# vtk DataFile Version 4.2
vtk output
ASCII
DATASET POLYDATA
POINTS 427 float
345.1 206.783 220.23 345.846 207.074 220.02 347.868 206.572 219.953 
354.725 206.674 220.072 354.424 206.284 220.023 355.288 206.577 220.135 
355.103 206.269 220.086 356.18 206.324 220.462 344.579 206.912 220.49 
344.61 207.151 220.532 345.187 207.38 220.176 345.587 207.346 220.057 
347.025 207.468 219.933 351.603 207.362 219.971 354.32 207.094 220.187 
355.616 206.879 220.346 355.915 206.709 220.41 344.892 207.372 220.345 
345.443 207.782 220.305 346.16 207.787 220.119 349.206 207.856 220.058 
352.891 207.64 220.268 348.329 206.054 220.118 353.196 205.772 220.097 
357.54 205.085 220.985 344.487 207.154 220.782 355.81 206.89 220.504 
345.187 207.725 220.432 345.177 207.741 220.628 346.472 207.967 220.241 
353.123 207.884 220.579 353.673 207.816 220.747 345.489 207.874 220.485 
345.892 208.004 220.596 349.974 208.443 220.729 353.259 207.991 220.869 
361.069 201.602 222.245 361.104 201.059 222.429 359.956 202.183 221.85 
361.169 201.833 222.301 357.743 202.573 221.694 358.635 202.367 221.74 
360.153 202.626 221.815 359.914 203.222 221.799 360.735 202.748 222.138 
347.393 205.174 220.797 343.617 206.071 221.644 359.283 204.267 221.926 
343.854 206.38 221.291 343.681 206.322 221.44 343.745 206.427 221.381 
343.934 206.591 221.346 344.311 206.99 221.111 345.028 207.585 220.971 
346.072 208.041 220.905 350.46 208.473 221.242 348.579 208.641 221.053 
349.429 208.669 221.118 361.413 200.05 222.97 361.131 200.61 222.594 
359.357 200.655 222.807 361.556 201.275 222.697 361.512 200.912 222.704 
361.714 200.885 222.999 359.109 201.739 222.023 353.279 203.243 221.871 
347.764 204.195 221.78 352.192 203.779 221.478 360.594 203.039 222.178 
360.889 202.689 222.407 343.201 205.314 222.211 342.838 205.191 222.574 
360.211 203.548 222.318 342.95 205.426 222.293 342.882 205.465 222.321 
343.233 205.63 222.055 358.879 204.736 222.075 343.005 205.558 222.247 
343.281 205.778 222.213 343.775 206.336 221.808 357.803 205.597 221.919 
345.499 207.587 221.649 357.151 206.097 222.029 346.019 207.776 221.661 
352.174 208.173 221.739 349.746 208.605 221.279 351.403 208.304 221.618 
361.345 199.688 223.271 361.682 199.952 223.199 359.825 200.01 223.281 
356.612 201.52 222.977 361.512 201.691 222.883 346.701 203.841 222.794 
346.475 203.729 223.396 348.204 203.406 223.289 349.526 203.42 222.625 
350.514 203.285 222.562 352.344 203.068 222.364 352.106 202.814 222.935 
342.495 204.445 223.261 343.144 204.574 222.886 342.93 204.439 223.162 
344.459 204.193 223.064 346.524 204.159 222.22 359.79 203.861 222.988 
342.058 204.548 223.22 342.302 204.712 223.109 342.554 204.725 222.95 
359.25 204.223 223.193 342.551 204.912 222.942 342.996 205.437 222.555 
342.857 205.14 222.925 343.759 206.07 222.374 344.345 206.286 222.602 
355.962 206.572 222.764 353.726 207.364 222.788 350.238 208.172 222.212 
362.277 198.768 224.088 361.58 199.049 224.005 359.823 199.79 223.96 
359.112 200.061 223.785 361.437 201.671 223.333 361.459 201.414 223.636 
343.77 204.322 223.554 361.058 202.236 223.374 360.881 202.205 223.719 
341.734 204.414 223.364 342.465 204.468 223.369 343.024 204.418 223.345 
341.885 204.487 223.318 342.167 204.605 223.265 342.47 204.825 223.123 
343.402 205.332 223.079 344.478 205.944 223.084 350.326 207.506 223.154 
362.478 198.439 224.283 362.529 198.339 224.334 362.51 198.379 224.334 
362.342 198.528 224.238 362.397 198.634 224.231 362.472 198.473 224.307 
361.809 198.908 224.222 362.171 199.091 224.119 359.417 199.978 224.39 
361.619 200.535 223.963 356.066 201.403 223.717 361.308 200.769 224.192 
349.666 202.895 225.011 348.895 203.119 224.756 350.679 202.761 224.243 
351.476 202.643 224.603 352.512 202.42 223.964 360.256 202.127 224.333 
344.503 204.245 223.915 344.158 204.284 223.8 348.073 203.418 224.197 
360.372 202.572 223.905 341.775 204.434 223.359 342.341 204.544 223.364 
343.141 204.618 223.464 344.804 204.632 224.033 358.063 203.755 224.516 
344.315 205.171 223.626 345.085 204.853 224.04 345.176 205.298 223.847 
347.063 205.115 224.38 356.976 204.543 224.44 357.746 204.375 224.212 
348.49 206.196 224.079 362.168 198.679 224.285 361.715 199.14 224.328 
362.143 198.875 224.283 359.291 200.155 224.703 360.562 200.036 224.611 
357.692 200.699 224.529 357.865 200.738 224.783 359.456 200.571 224.962 
360.52 200.578 224.666 354.651 201.864 224.555 354.246 202.061 224.736 
355.707 201.693 224.866 360.139 201.235 224.718 348.559 202.633 225.557 
348.545 202.631 225.569 348.472 202.59 225.599 348.796 202.751 225.421 
348.767 202.738 225.482 349.051 202.878 225.187 349.237 202.875 225.327 
351.355 202.802 225.013 357.976 202.056 225.22 344.321 204.361 223.907 
348.482 202.599 225.588 348.592 202.673 225.514 348.814 202.888 225.29 
348.29 203.717 224.695 348.892 203.276 225.108 356.092 203.133 225.27 
345.286 204.605 224.133 349.033 204.193 224.961 354.029 203.927 225.294 
356.933 203.708 224.927 358.852 200.43 224.872 357.301 201.182 224.974 
356.349 201.714 225.083 348.505 202.616 225.578 348.669 202.727 225.492 
349.042 202.98 225.364 349.677 203.109 225.358 351.206 203.061 225.278 
353.27 202.698 225.157 355.81 202.196 225.248 356.646 202.133 225.274 
349.448 203.424 225.288 354.566 203.032 225.356 351.272 203.233 230.347 
352.379 203.025 230.381 364 196.009 230.017 364 196.009 230.017 
364 196.009 230.017 364 196.009 230.017 361.856 199.008 231.032 
361.754 199.074 231.002 364 196.009 230.017 361.9 199.063 231.077 
361.222 199.512 230.961 361.544 199.18 231.03 361.89 199.262 231.125 
360.598 199.97 230.939 360.487 199.755 231.159 361.016 199.931 230.903 
361.699 199.646 231.042 361.832 199.506 231.115 358.342 201.035 231.006 
359.548 200.774 230.829 355.977 201.936 231.145 355.39 202.234 230.944 
360.348 201.049 230.913 360.855 200.744 231 346.707 203.571 230.91 
346.5 203.468 231.082 346.246 203.613 231.041 350.779 203.182 230.514 
351.381 202.834 231 355.776 202.646 230.606 357.411 202.144 230.68 
358.838 201.8 230.74 359.481 201.756 230.849 345.774 203.859 231.166 
347.762 203.837 230.643 355.291 203.118 230.525 358.558 202.459 230.807 
346.968 204.505 230.792 347.344 204.204 230.676 355.877 203.466 230.578 
348.213 204.742 230.63 348.57 205.052 230.698 350.706 204.557 230.425 
351.749 204.497 230.404 350.198 205.127 230.635 353.101 204.97 230.654 
364 196.009 230.017 361.865 199.013 231.097 361.749 199.033 231.073 
361.869 199.156 231.212 360.947 199.439 231.157 361.175 199.3 231.234 
361.515 199.161 231.212 361.895 199.33 231.27 359.614 200.127 231.375 
356.515 201.674 231.531 360.511 201.462 231.145 350.945 202.862 231.324 
361.587 201.107 231.74 343.034 204.034 231.837 343.633 204.081 231.76 
344.115 203.938 231.861 345.175 203.784 231.604 353.233 202.577 231.861 
358.815 202.89 231.077 343.022 204.098 231.858 342.915 204.255 232.014 
343.762 204.366 231.706 343.852 204.893 231.809 355.032 204.872 230.934 
357.625 204.416 231.458 346.948 205.601 231.257 357.674 204.952 231.876 
350.539 206.344 231.341 350.118 206.776 231.734 361.772 199.065 231.174 
361.496 199.257 231.431 361.702 199.209 231.343 361.795 199.483 231.485 
357.202 201.445 231.894 361.726 200.694 231.937 354.939 202.213 231.936 
361.514 201.388 231.882 343.004 204.076 231.897 343.181 204.1 232.008 
344.717 203.83 232.054 347.247 203.383 232.085 361.434 201.588 232.114 
341.857 204.366 232.099 341.857 204.38 232.106 341.789 204.357 232.087 
342.074 204.389 232.115 342.068 204.423 232.154 342.527 204.435 232.222 
342.469 204.427 232.088 343.263 204.343 232.385 359.653 203.698 232.08 
341.862 204.367 232.09 342.073 204.424 232.109 342.5 204.62 232.187 
342.831 205.078 232.574 344.864 205.778 232.02 347.846 206.717 231.898 
351.744 206.719 231.709 356.789 205.94 232.409 357.458 205.608 232.512 
361.572 199.407 231.586 360.571 199.979 232.087 361.61 199.655 231.767 
359.588 200.371 232.13 361.612 200.967 232.191 355.422 202.255 232.386 
344.461 203.959 232.353 345.91 203.745 232.469 348.615 203.442 232.62 
351.471 203.245 232.863 355.957 202.408 232.844 360.936 202.474 232.453 
360.956 202.289 232.615 341.862 204.382 232.097 342.067 204.458 232.148 
342.422 204.609 232.301 342.889 204.729 232.573 344.584 204.177 232.764 
360.236 203.313 232.469 342.834 205.551 232.979 343.108 205.181 232.993 
359.967 203.5 232.771 342.882 205.602 232.93 342.901 205.679 233.051 
343.399 206.055 233.087 344.381 206.559 232.939 355.873 206.605 232.693 
352.553 207.529 232.793 347.03 207.665 233.264 352.972 207.804 233.402 
360.805 200.108 232.272 361.175 200.074 232.219 360.836 200.4 232.477 
361.444 200.335 232.242 361.199 200.751 232.551 358.779 201.178 232.573 
361.452 200.842 232.385 356.673 202.186 232.832 358.783 201.559 232.862 
360.718 202.317 232.881 352.781 203.713 233.736 344.101 205.001 233.468 
343.118 205.857 233.221 343.316 205.98 233.489 358.161 205.341 233.231 
343.458 206.244 233.478 357.359 205.972 233.344 343.729 206.542 233.54 
344.243 206.94 233.691 355.638 207.099 233.623 356.16 206.818 233.685 
347.932 208.026 233.819 347.492 208.055 234.083 352.942 207.994 233.859 
350.096 208.143 234.094 352.626 208.058 234.149 360.925 200.687 232.622 
360.839 201.066 232.757 360.719 201.565 232.887 355.3 204.055 234.278 
345.299 205.223 234.081 355.879 204.483 234.532 352.085 205.136 234.848 
343.944 206.568 234.074 357.634 205.551 233.955 344.255 207.032 234.24 
355.976 206.926 234.108 344.523 207.402 234.406 353.184 207.997 234.117 
354.061 207.742 234.371 350.483 208.117 234.429 357.157 204.866 234.442 
358.283 204.506 233.957 348.139 205.961 234.981 356.615 205.379 234.713 
357.113 205.757 234.344 344.326 206.726 234.419 345.388 206.621 234.851 
356.732 206.225 234.335 344.487 207.146 234.585 356.296 206.495 234.495 
344.552 207.381 234.584 344.778 207.559 234.732 351.163 207.865 234.904 
351.542 207.675 235.059 353.449 207.744 234.727 353.983 207.675 234.608 
344.97 207.678 234.721 346.695 207.88 234.794 355.603 205.941 235.023 
[...]
POINT_DATA 427
COLOR_SCALARS scalars 3
1 0.65098 1 1 0.65098 1 1 0.65098 1 
1 0.65098 1 1 0.65098 1 
1 0.65098 1 1 0.65098 1 
1 0.65098 1 1 0.65098 1 
1 0.65098 1 1 0.65098 1 
1 0.65098 1 1 0.65098 1 
1 0.65098 1 1 0.65098 1 
1 0.65098 1 1 0.65098 1 
1 0.65098 1 1 0.65098 1 
1 0.65098 1 1 0.65098 1 
1 0.65098 1 1 0.65098 1 
1 0.65098 1 1 0.65098 1 
1 0.65098 1 1 0.65098 1 
1 0.65098 1 1 0.65098 1 
1 0.65098 1 1 0.65098 1 
1 0.65098 1 1 0.65098 1 
1 0.65098 1 1 0.65098 1 
1 0.65098 1 1 0.65098 1 
1 0.65098 1 1 0.65098 1 
1 0.65098 1 1 0.65098 1 
1 0.65098 1 1 0.65098 1 
1 0.65098 1 1 0.65098 1 
1 0.65098 1 1 0.65098 1 
1 0.65098 1 1 0.65098 1 
1 0.65098 1 1 0.65098 1 
1 0.65098 1 1 0.65098 1 
1 0.65098 1 1 0.65098 1 
1 0.65098 1 1 0.65098 1 
1 0.65098 1 1 0.65098 1 
1 0.65098 1 1 0.65098 1 
1 0.65098 1 1 0.65098 1 
1 0.65098 1 1 0.65098 1 
1 0.65098 1 1 0.65098 1 
1 0.65098 1 1 0.65098 1 
1 0.65098 1 1 0.65098 1 
1 0.65098 1 1 0.65098 1 
1 0.65098 1 1 0.65098 1 
1 0.65098 1 1 0.65098 1 
1 0.65098 1 1 0.65098 1 
1 0.65098 1 1 0.65098 1 
1 0.65098 1 1 0.65098 1 
1 0.65098 1 1 0.65098 1 
1 0.65098 1 1 0.65098 1 
1 0.65098 1 1 0.65098 1 
1 0.65098 1 1 0.65098 1 
1 0.65098 1 1 0.65098 1 
1 0.65098 1 1 0.65098 1 
1 0.65098 1 1 0.65098 1 
1 0.65098 1 1 0.65098 1 
1 0.65098 1 1 0.65098 1 
1 0.65098 1 1 0.65098 1 
1 0.65098 1 1 0.65098 1 
1 0.65098 1 1 0.65098 1 
1 0.65098 1 1 0.65098 1 
1 0.65098 1 1 0.65098 1 
1 0.65098 1 1 0.65098 1 
1 0.65098 1 1 0.65098 1 
1 0.65098 1 1 0.65098 1 
1 0.65098 1 1 0.65098 1 
1 0.65098 1 1 0.65098 1 
1 0.65098 1 1 0.65098 1 
1 0.65098 1 1 0.65098 1 
1 0.65098 1 1 0.65098 1 
1 0.65098 1 1 0.65098 1 
1 0.65098 1 1 0.65098 1 
1 0.65098 1 1 0.65098 1 
1 0.65098 1 1 0.65098 1 
1 0.65098 1 1 0.65098 1 
1 0.65098 1 1 0.65098 1 
1 0.65098 1 1 0.65098 1 
1 0.65098 1 1 0.65098 1 
1 0.65098 1 1 0.65098 1 
1 0.65098 1 1 0.65098 1 
1 0.65098 1 1 0.65098 1 
1 0.65098 1 1 0.65098 1 
1 0.65098 1 1 0.65098 1 
1 0.65098 1 1 0.65098 1 
1 0.65098 1 1 0.65098 1 
1 0.65098 1 1 0.65098 1 
1 0.65098 1 1 0.65098 1 
1 0.65098 1 1 0.65098 1 
1 0.65098 1 1 0.65098 1 
1 0.65098 1 1 0.65098 1 
1 0.65098 1 1 0.65098 1 
1 0.65098 1 1 0.65098 1 
1 0.65098 1 1 0.65098 1 
1 0.65098 1 1 0.65098 1 
1 0.65098 1 1 0.65098 1 
1 0.65098 1 1 0.65098 1 
1 0.65098 1 1 0.65098 1 
1 0.65098 1 1 0.65098 1 
1 0.65098 1 1 0.65098 1 
1 0.65098 1 1 0.65098 1 
1 0.65098 1 1 0.65098 1 
1 0.65098 1 1 0.65098 1 
1 0.65098 1 1 0.65098 1 
1 0.65098 1 1 0.65098 1 
1 0.65098 1 1 0.65098 1 
1 0.65098 1 1 0.65098 1 
1 0.65098 1 1 0.65098 1 
1 0.65098 1 1 0.65098 1 
1 0.65098 1 1 0.65098 1 
1 0.65098 1 1 0.65098 1 
1 0.65098 1 1 0.65098 1 
1 0.65098 1 1 0.65098 1 
1 0.65098 1 1 0.65098 1 
1 0.65098 1 1 0.65098 1 
1 0.65098 1 1 0.65098 1 
1 0.65098 1 1 0.65098 1 
1 0.65098 1 1 0.65098 1 
1 0.65098 1 1 0.65098 1 
1 0.65098 1 1 0.65098 1 
1 0.65098 1 1 0.65098 1 
1 0.65098 1 1 0.65098 1 
1 0.65098 1 1 0.65098 1 
1 0.65098 1 1 0.65098 1 
1 0.65098 1 1 0.65098 1 
1 0.65098 1 1 0.65098 1 
1 0.65098 1 1 0.65098 1 
1 0.65098 1 1 0.65098 1 
1 0.65098 1 1 0.65098 1 
1 0.65098 1 1 0.65098 1 
1 0.65098 1 1 0.65098 1 
1 0.65098 1 1 0.65098 1 
1 0.65098 1 1 0.65098 1 
1 0.65098 1 1 0.65098 1 
1 0.65098 1 1 0.65098 1 
1 0.65098 1 1 0.65098 1 
1 0.65098 1 1 0.65098 1 
1 0.65098 1 1 0.65098 1 
1 0.65098 1 1 0.65098 1 
1 0.65098 1 1 0.65098 1 
1 0.65098 1 1 0.65098 1 
1 0.65098 1 1 0.65098 1 
1 0.65098 1 1 0.65098 1 
1 0.65098 1 1 0.65098 1 
1 0.65098 1 1 0.65098 1 
1 0.65098 1 1 0.65098 1 
1 0.65098 1 1 0.65098 1 
1 0.65098 1 1 0.65098 1 
1 0.65098 1 1 0.65098 1 
1 0.65098 1 1 0.65098 1 
1 0.65098 1 1 0.65098 1 
1 0.65098 1 1 0.65098 1 
1 0.65098 1 1 0.65098 1 
1 0.65098 1 1 0.65098 1 
1 0.65098 1 1 0.65098 1 
1 0.65098 1 1 0.65098 1 
1 0.65098 1 1 0.65098 1 
1 0.65098 1 1 0.65098 1 
1 0.65098 1 1 0.65098 1 
1 0.65098 1 1 0.65098 1 
1 0.65098 1 1 0.65098 1 
1 0.65098 1 1 0.65098 1 
1 0.65098 1 1 0.65098 1 
1 0.65098 1 1 0.65098 1 
1 0.65098 1 1 0.65098 1 
1 0.65098 1 1 0.65098 1 
1 0.65098 1 1 0.65098 1 
1 0.65098 1 1 0.65098 1 
1 0.65098 1 1 0.65098 1 
1 0.65098 1 1 0.65098 1 
1 0.65098 1 1 0.65098 1 
1 0.65098 1 1 0.65098 1 
1 0.65098 1 1 0.65098 1 
1 0.65098 1 1 0.65098 1 
1 0.65098 1 1 0.65098 1 
1 0.65098 1 1 0.65098 1 
1 0.65098 1 1 0.65098 1 
1 0.65098 1 1 0.65098 1 
1 0.65098 1 1 0.65098 1 
1 0.65098 1 1 0.65098 1 
1 0.65098 1 1 0.65098 1 
1 0.65098 1 1 0.65098 1 
1 0.65098 1 1 0.65098 1 
1 0.65098 1 1 0.65098 1 
1 0.65098 1 1 0.65098 1 
1 0.65098 1 1 0.65098 1 
1 0.65098 1 1 0.65098 1 
1 0.65098 1 1 0.65098 1 
1 0.65098 1 1 0.65098 1 
1 0.65098 1 1 0.65098 1 
1 0.65098 1 1 0.65098 1 
1 0.65098 1 1 0.65098 1 
1 0.65098 1 1 0.65098 1 
1 0.65098 1 1 0.65098 1 
1 0.65098 1 1 0.65098 1 
1 0.65098 1 1 0.65098 1 
1 0.65098 1 1 0.65098 1 
1 0.65098 1 1 0.65098 1 
1 0.65098 1 1 0.65098 1 
1 0.65098 1 1 0.65098 1 
1 0.65098 1 1 0.65098 1 
1 0.65098 1 1 0.65098 1 
1 0.65098 1 1 0.65098 1 
1 0.65098 1 1 0.65098 1 
1 0.65098 1 1 0.65098 1 
1 0.65098 1 1 0.65098 1 
1 0.65098 1 1 0.65098 1 
1 0.65098 1 1 0.65098 1 
1 0.65098 1 1 0.65098 1 
1 0.65098 1 1 0.65098 1 
1 0.65098 1 1 0.65098 1 
1 0.65098 1 1 0.65098 1 
1 0.65098 1 1 0.65098 1 
1 0.65098 1 1 0.65098 1 
1 0.65098 1 1 0.65098 1 
1 0.65098 1 1 0.65098 1 
1 0.65098 1 1 0.65098 1 
1 0.65098 1 1 0.65098 1 
1 0.65098 1 1 0.65098 1 
1 0.65098 1 1 0.65098 1 
1 0.65098 1 1 0.65098 1 

NORMALS Normals float
-0.302507 -0.419916 -0.855664 -0.0248533 -0.210633 -0.977249 -0.0580787 -0.205094 -0.977018 
0.078864 0.222938 -0.971637 0.0052495 -0.0119389 -0.999915 0.370403 0.0702471 -0.926211 
0.254796 -0.120426 -0.959467 0.532026 0.257235 -0.806709 -0.73394 0.143778 -0.663822 
-0.764748 0.443575 -0.467335 -0.393262 0.195821 -0.898331 -0.201873 0.174251 -0.963786 
0.0156523 0.042336 -0.998981 0.045855 0.256431 -0.965474 0.187145 0.627029 -0.756182 
0.369432 0.361998 -0.855849 0.588544 0.455592 -0.667871 -0.580683 0.423776 -0.695141 
-0.295703 0.697113 -0.653141 -0.107869 0.422973 -0.899699 0.0307273 0.473668 -0.880167 
0.157121 0.661488 -0.733312 -0.0160241 -0.445224 -0.895276 -0.0715719 -0.42111 -0.904181 
0.552111 0.347317 -0.757987 -0.802742 0.544603 -0.242924 0.557816 0.740794 -0.374253 
-0.611255 0.74284 -0.27305 -0.527319 0.848503 0.0444608 -0.084065 0.814586 -0.573919 
0.141937 0.770928 -0.620906 0.32878 0.854095 -0.40302 -0.345176 0.937927 0.0338721 
-0.178661 0.959551 -0.217582 0.118646 0.901107 -0.417049 0.270322 0.956747 -0.107528 
0.370974 -0.184737 -0.910083 0.388977 -0.270572 -0.880618 0.189265 -0.196598 -0.962044 
0.762673 0.186874 -0.619199 -0.0307034 -0.437751 -0.898572 -0.060256 -0.424631 -0.903359 
0.166723 -0.0771911 -0.982978 0.328279 0.269782 -0.905235 0.506546 0.160321 -0.847177 
-0.148444 -0.618165 -0.771904 -0.877621 0.108785 -0.466848 0.464194 0.470847 -0.750217 
-0.619386 -0.120161 -0.775837 -0.578861 -0.266171 -0.770761 -0.80884 0.569797 -0.145289 
-0.643763 0.765126 0.0122905 -0.75943 0.650589 0.000841537 -0.555311 0.817222 0.1542 
-0.17043 0.970747 0.169125 0.192177 0.981194 0.0180451 -0.130242 0.982037 0.13653 
0.0906686 0.99391 -0.0626226 0.269164 -0.530672 -0.803702 0.138328 -0.477869 -0.867471 
-0.239581 -0.689743 -0.683269 0.770273 -0.00434093 -0.637699 0.668001 -0.178413 -0.722457 
0.977093 0.149032 -0.151918 -0.0544549 -0.437274 -0.897678 -0.102938 -0.768136 -0.631958 
-0.0842016 -0.798026 -0.596711 -0.239019 -0.682592 -0.690607 0.573607 0.479631 -0.664025 
0.815518 0.577799 -0.0328405 -0.409779 -0.546994 -0.729986 -0.775866 -0.174812 -0.606196 
0.641456 0.678169 -0.358637 -0.527632 -0.32512 -0.784794 -0.867591 0.429943 -0.249871 
-0.689217 0.108997 -0.71631 0.659156 0.711911 -0.242273 -0.671434 0.385774 -0.632736 
-0.680601 0.732583 0.010219 -0.659637 0.724789 0.198897 0.610236 0.781718 0.128567 
-0.412148 0.799975 0.436089 0.448794 0.882299 0.141889 -0.208526 0.889067 0.407526 
0.211895 0.953115 0.216037 0.0629183 0.941671 0.330601 0.17031 0.967189 0.18852 
-0.04536 -0.674894 -0.736519 0.528101 -0.348144 -0.774536 -0.220604 -0.758167 -0.613609 
-0.275957 -0.783989 -0.556065 0.923989 0.348109 -0.15832 -0.215416 -0.930813 -0.295268 
-0.238189 -0.950378 -0.200119 -0.144911 -0.96482 -0.219369 -0.15069 -0.922623 -0.355049 
-0.221753 -0.786222 -0.576785 -0.145956 -0.865298 -0.479538 -0.192813 -0.91444 -0.35584 
-0.0380709 -0.992878 -0.11289 -0.156796 -0.674232 -0.721683 -0.146462 -0.969903 -0.194516 
-0.199454 -0.867805 -0.455117 -0.254527 -0.797178 -0.547469 0.598133 0.648019 0.471496 
-0.573888 0.440703 -0.690242 -0.670568 0.667041 -0.324645 -0.494488 -0.203461 -0.845035 
0.539602 0.780057 0.316767 -0.764339 0.585186 -0.27082 -0.514787 0.772438 0.371933 
-0.58295 0.765584 0.272121 -0.454849 0.765373 0.455321 -0.359483 0.737403 0.571847 
0.446632 0.792886 0.41455 0.249307 0.858581 0.447978 -0.0182295 0.875757 0.482408 
0.759406 -0.0541188 -0.648363 -0.406742 -0.884745 -0.227567 -0.25996 -0.964806 0.039628 
-0.3824 -0.891286 -0.243679 0.877303 0.438226 0.195698 0.770761 0.392838 0.501603 
-0.35117 -0.762416 0.543509 0.725533 0.612911 0.312959 0.648622 0.595565 0.473911 
-0.929592 -0.0588306 0.363865 -0.0336881 -0.614504 0.788194 -0.124283 -0.899916 0.417978 
-0.370986 0.913579 0.166564 -0.392035 0.861627 0.322345 -0.412223 0.784616 0.463087 
-0.282872 0.7779 0.56112 -0.27169 0.697679 0.662894 0.050437 0.737965 0.672952 
0.789153 0.0639433 -0.610859 -0.209651 -0.723154 0.658099 0.733779 0.379379 0.563596 
-0.249111 -0.783723 -0.568967 0.9009 0.340539 -0.269095 0.849477 0.453716 0.269314 
-0.467446 -0.762288 0.447674 0.880876 0.411662 0.233651 -0.278604 -0.909209 0.309384 
0.774932 0.268751 0.572061 -0.369738 -0.917867 -0.14427 0.600073 0.237461 0.763888 
-0.115966 -0.980769 -0.156985 -0.536079 -0.840055 -0.0832249 -0.177031 -0.980533 -0.0849369 
-0.171318 -0.982199 0.0770401 -0.177131 -0.979148 -0.0994641 0.473058 0.424631 0.771949 
-0.198747 -0.471138 0.859377 -0.377205 -0.657973 0.651757 -0.239067 -0.959417 0.149552 
0.51835 0.511136 0.685605 -0.254877 0.790843 0.556422 -0.130775 0.49315 0.860059 
-0.267633 0.0664811 0.961225 -0.274144 0.177514 0.945163 0.378363 0.428772 0.820363 
-0.357082 0.584904 0.728271 -0.169502 0.349791 0.921366 -0.174163 0.537419 0.825135 
-0.17054 0.105304 0.979708 0.220069 0.63188 0.743167 0.410523 0.601108 0.685668 
-0.110351 0.650865 0.751131 -0.430999 -0.503664 0.748708 -0.0409647 -0.268636 0.96237 
0.252064 0.156913 0.954904 -0.150795 -0.74743 0.647001 0.141733 -0.126542 0.981783 
-0.391219 -0.90609 0.161083 -0.25212 -0.697655 0.670606 0.0858995 -0.287622 0.953884 
0.323647 0.0383925 0.945399 -0.266659 -0.858956 0.437135 -0.0653717 -0.766925 0.638398 
-0.326742 -0.757439 0.565266 0.282396 0.128524 0.950649 0.35424 -0.91986 -0.168435 
0.261569 0.2071 0.942704 0.0812901 0.075346 0.993838 0.0837292 -0.885419 -0.45719 
0.420975 -0.374098 0.826336 -0.0920367 -0.91177 -0.400256 0.173514 -0.869988 0.461533 
-0.0765225 -0.88506 0.459144 0.195923 0.112547 0.974139 -0.373903 -0.123952 0.919148 
0.12142 -0.803948 -0.582172 -0.0188723 -0.71595 -0.697896 -0.98593 0.0206567 -0.165875 
-0.469978 -0.343173 0.813236 -0.668035 0.171504 0.724096 0.112385 0.197469 0.973846 
-0.109313 0.0384492 0.993263 -0.0722541 0.322555 0.943789 0.0654719 0.256762 0.964255 
0.247138 0.401441 0.881912 -0.183293 -0.575623 0.796908 -0.193219 -0.574837 0.795128 
-0.206642 -0.486235 0.849043 -0.45332 0.84787 0.274986 -0.290302 0.777211 0.558273 
-0.148634 0.366305 0.918547 0.137121 0.0129997 0.990469 -0.016215 -0.425634 0.90475 
-0.0149233 -0.514052 0.857629 -0.0546187 -0.188734 0.980508 -0.0226384 -0.232967 0.972221 
-0.0449247 0.407493 0.912103 -0.0614615 -0.245692 0.967398 -0.0313012 -0.349197 -0.936526 
-0.0496789 -0.579771 -0.813264 0 -0.159641 -0.987175 0 -1 0 
-0.963361 -0.268207 4.13429e-08 0.963361 -0.268207 4.13429e-08 0.463995 -0.478637 -0.745396 
-0.166605 -0.452522 -0.876052 0 0.5547 -0.83205 0.969519 -0.238593 -0.0557304 
-0.164145 -0.314259 -0.935039 -0.45807 -0.741318 -0.49053 0.899411 0.103748 -0.424613 
-0.249849 -0.355676 -0.900594 -0.489657 -0.724147 -0.485641 0.0671819 0.00917233 -0.997699 
0.442786 0.170707 -0.880227 0.852924 0.233963 -0.466672 -0.339844 -0.718239 -0.607156 
-0.0265232 -0.149524 -0.988402 -0.244602 -0.755238 -0.6081 -0.130098 -0.768386 -0.626624 
0.139451 0.277173 -0.950646 0.282734 0.206382 -0.936733 -0.233638 -0.362456 -0.902241 
-0.224424 -0.936532 -0.269337 -0.378375 -0.471068 -0.796823 -0.158532 -0.789353 -0.593119 
-0.177258 -0.950601 -0.254827 -0.0552828 -0.239446 -0.969335 -0.0689595 -0.0980675 -0.992788 
0.181369 0.135109 -0.97409 0.306492 0.263024 -0.914812 -0.372049 -0.486637 -0.79042 
-0.0582949 -0.180325 -0.981878 -0.00195168 -0.111572 -0.993754 0.156857 0.334105 -0.929392 
-0.24625 0.145559 -0.958214 -0.164989 0.111549 -0.979967 0.145393 0.183826 -0.972147 
-0.0396809 0.146013 -0.988487 -0.0267746 0.308961 -0.950698 0.0194143 0.288871 -0.957171 
0.0175719 0.184682 -0.982641 -0.0486735 0.490249 -0.870223 0.144259 0.423481 -0.894345 
0 -0.159641 0.987175 0.359103 -0.850651 0.383976 -0.370586 -0.926789 -0.0610697 
0.722246 -0.418959 0.550303 -0.452512 -0.756089 -0.472824 -0.455737 -0.889925 0.0183648 
-0.341672 -0.928577 0.14493 0.985637 0.000783718 0.168875 -0.477423 -0.868891 -0.13075 
-0.237265 -0.954961 -0.178197 0.377628 0.410677 -0.829905 -0.159115 -0.987236 0.0068419 
0.870556 0.34744 -0.348451 -0.488015 -0.765598 -0.419168 -0.204458 -0.464649 -0.861567 
-0.161011 -0.985019 -0.0617539 -0.221465 -0.945966 -0.236858 -0.153489 -0.946025 0.285444 
0.27707 0.371266 -0.886224 -0.558507 0.117902 -0.821078 -0.734208 -0.460365 -0.499002 
-0.243168 0.166916 -0.955515 -0.279906 0.402008 -0.871804 0.155213 0.440134 -0.884416 
0.215214 0.556456 -0.802521 -0.194054 0.520362 -0.831605 0.369684 0.655649 -0.658375 
0.0783376 0.650451 -0.755497 0.0118113 0.724998 -0.68865 -0.0212642 -0.817266 0.575868 
-0.206451 -0.788548 0.579284 0.192778 -0.725232 0.660966 0.657533 -0.38114 0.64991 
-0.338692 -0.922705 0.184129 0.944201 0.0100958 0.329216 -0.322594 -0.858253 0.399167 
0.779192 0.493116 -0.386905 -0.813089 -0.571798 0.109235 -0.2465 -0.833723 0.494109 
-0.123251 -0.969965 0.209709 -0.0879817 -0.988792 0.12062 0.935182 0.32747 0.134902 
0.0161447 -0.845298 0.534051 -0.359344 0.380832 0.851962 0.0231205 -0.865784 0.499884 
0.0632189 -0.979986 -0.188762 -0.177243 -0.392458 0.902531 -0.182136 -0.803531 0.566714 
-0.107454 -0.41631 -0.902851 -0.27081 -0.731477 0.625782 0.628761 0.64666 -0.431846 
0.0993383 -0.392671 -0.914298 -0.0622227 0.374128 -0.925287 -0.279504 0.65358 -0.703357 
-0.822798 0.502597 -0.265328 -0.315667 0.523444 -0.79143 -0.0865296 0.709717 -0.699153 
0.040293 0.649834 -0.759007 0.420578 0.761681 -0.492907 0.390135 0.758871 -0.521449 
0.140801 -0.629868 0.763833 -0.231172 -0.761404 0.60566 0.258194 -0.538768 0.801913 
-0.298877 -0.674875 0.674697 0.906099 0.215831 0.363868 -0.44399 -0.638891 0.628244 
-0.163151 -0.90849 0.384743 -0.139632 -0.885315 0.443533 -0.0906532 -0.897768 0.431039 
-0.134045 -0.848563 0.511833 -0.319683 -0.628551 0.709032 0.828264 0.541293 0.144844 
0.763243 0.336294 0.551695 -0.184427 0.793927 -0.579368 -0.419243 0.904394 0.0794159 
-0.606136 0.185082 0.773527 -0.442279 -0.417474 0.793792 -0.192003 -0.786928 0.586412 
0.698573 0.712596 -0.0648283 -0.902484 0.068648 0.425217 -0.502519 -0.485982 0.71505 
0.697384 0.65549 0.289806 -0.642803 0.592212 -0.485891 -0.789653 0.611119 0.0546036 
-0.510916 0.729863 -0.454165 -0.339842 0.729088 -0.594086 0.288591 0.748465 -0.59709 
0.118094 0.833921 -0.539101 -0.213856 0.837846 -0.502274 0.126458 0.914704 -0.383829 
-0.0934597 -0.659605 0.745779 0.143776 -0.619376 0.771817 -0.00999786 -0.492659 0.870165 
0.632843 -0.284351 0.720176 0.416782 -0.288228 0.862101 -0.403143 -0.708584 0.579124 
0.675173 -0.0420138 0.736462 -0.223173 -0.811981 0.539334 -0.170156 -0.587846 0.790875 
0.623558 0.168145 0.76348 -0.123097 -0.719209 0.683803 -0.325891 -0.571485 0.753127 
-0.793758 0.523995 0.308832 -0.720594 0.0292573 0.692739 0.690598 0.718156 -0.0856003 
-0.772256 0.584161 0.249754 0.595911 0.80212 0.0386357 -0.639306 0.718259 -0.274576 
-0.616941 0.784711 -0.0601015 0.361475 0.897606 -0.252268 0.560945 0.82094 -0.106763 
0.0592281 0.981711 -0.180928 -0.0186447 0.999602 0.0211771 0.163745 0.93841 -0.30426 
0.0842766 0.931422 -0.35405 0.00512257 0.996614 -0.0820605 0.127962 -0.395818 0.90937 
0.109693 -0.288447 0.951192 0.27643 -0.190168 0.942031 -0.0261867 -0.548588 0.835683 
-0.250112 -0.547831 0.798326 0.111013 -0.398193 0.910559 0.000215973 -0.455876 0.890043 
-0.764817 0.260809 0.589095 0.68645 0.617806 0.383538 -0.837481 0.436377 0.328939 
0.47937 0.823435 0.303578 -0.547398 0.816041 -0.185561 0.177116 0.973807 0.142582 
0.353085 0.931149 0.0910592 0.243407 0.969358 -0.0331373 0.250546 -0.445811 0.859348 
0.548626 0.176908 0.817137 -0.0909046 -0.424433 0.900884 0.364445 -0.0203902 0.931001 
0.611815 0.465701 0.639379 -0.584183 -0.154207 0.796838 -0.21388 -0.240189 0.946871 
0.629226 0.625958 0.460707 -0.702351 0.0748702 0.707883 0.575175 0.703497 0.417451 
-0.762781 0.510779 0.396571 -0.547704 0.551785 0.62893 0.153546 0.903814 0.399429 
0.0289525 0.493416 0.869311 0.151641 0.77088 0.618667 0.303642 0.740386 0.599691 
-0.354134 0.927239 0.121726 -0.00513443 0.837985 0.54567 0.128193 -0.0714221 0.989174 
0.288538 0.00274133 0.957464 -0.375478 -0.186418 0.90789 0.0591333 -0.04331 0.99731 
0.472586 0.362513 0.803273 -0.488987 0.108757 0.865485 -0.0642777 0.200202 0.977644 
0.13222 0.18457 0.973885 0.131527 0.276278 0.952035 0.346973 0.58991 0.72912 
0.391406 0.53949 0.745487 -0.198875 0.24169 0.949755 -0.445695 0.631549 0.634431 
-0.617844 0.784217 -0.0572102 -0.590159 0.807286 -0.00124544 0 0.5547 0.83205 
-0.191883 0.811305 -0.552237 
