# vtk DataFile Version 4.2
vtk output
ASCII
DATASET POLYDATA
POINTS 478 float
338.063 221.259 216.387 343.624 221.156 215.991 343.148 220.982 216.095 
338.376 221.425 216.206 338.492 221.712 216.105 338.997 221.491 216.088 
339.927 220.916 216.386 339.976 221.393 216.07 341.975 221.432 215.924 
339.172 222.274 215.927 339.544 221.916 215.908 341.494 221.97 215.747 
344.332 221.939 215.831 340.526 222.626 215.709 343.225 222.98 215.639 
345.685 220.578 216.536 336.119 221.091 217.09 336.043 221.111 217.002 
336.806 221.208 216.816 337.329 220.983 216.972 337.996 220.834 217.061 
339.988 220.603 216.87 343.134 220.749 216.295 344.126 220.499 216.657 
345.273 221.067 216.269 336.023 221.213 216.999 340.456 220.679 216.696 
342.946 220.595 216.549 338.445 222.208 216.13 337.11 222.621 216.698 
339.241 222.923 216.004 344.787 223.243 215.883 338.979 223.661 216.244 
343.586 224.551 215.917 349.496 218.937 218.263 350.015 218.976 218.167 
349.276 219.735 217.617 350.589 219.487 217.89 335.968 221.13 217.056 
335.889 221.241 217.208 337.631 220.865 217.385 344.102 220.258 217.158 
346.169 220.268 217.108 335.602 221.454 217.449 335.54 221.588 217.371 
348.765 221.072 217.153 336.573 222.972 217.145 348.636 222.756 217.01 
336.727 223.575 217.459 337.179 224.445 217.747 338.242 224.247 216.79 
338.177 225.846 217.89 339.199 226.42 217.521 341.592 227.337 217.132 
340.341 227.537 217.654 341.854 228.036 217.448 355.488 218.31 219.101 
352.241 218.896 218.425 351.176 219.979 217.83 337.277 220.977 217.742 
343.54 220.268 217.178 344.618 220.141 217.732 335.471 221.611 217.648 
335.391 221.704 217.624 343.362 220.254 217.477 352.498 221.068 217.96 
335.446 221.856 217.61 335.508 222.117 217.898 335.72 222.563 217.809 
335.989 223.078 218.029 349.781 224.647 217.673 338.017 225.859 218.154 
339.095 227.057 218.338 339.827 227.628 218.038 345.188 229.064 218.106 
341.668 229.236 218.425 354.108 217.719 219.635 355.818 218.022 219.497 
357.995 218.266 219.726 358.226 218.275 219.819 349.315 218.644 219.167 
350.105 218.393 219.219 356.392 219.268 218.944 348.06 219.153 218.884 
335.992 221.45 217.885 336.98 221.144 217.993 344.321 220.296 218.345 
335.434 221.785 217.737 336.402 221.608 218.234 337.605 221.464 218.558 
358.295 220.572 219.713 358.575 220.24 220.012 335.525 222.298 218.126 
335.431 222.337 218.101 335.429 222.272 218.05 335.813 222.136 218.198 
337.35 221.713 218.666 353.095 222.568 218.213 357.687 221.719 219.44 
335.492 222.386 218.028 335.689 222.653 218.104 357.13 222.698 219.317 
357.496 223.414 219.714 337.753 225.575 218.28 337.727 225.51 218.557 
338.558 226.526 218.566 339.615 227.68 218.673 340.395 228.434 218.431 
340.264 228.421 218.578 340.573 228.703 218.668 341.041 229.062 218.651 
346.387 229.519 218.958 346.141 229.881 219.394 342.507 230.098 219.086 
342.401 230.128 219.229 344.877 230.076 219.131 345.41 230.039 219.315 
342.756 230.198 219.221 350.725 218.169 219.591 352.348 217.808 220.189 
353.144 217.651 220.156 358.344 218.277 219.974 348.462 219.094 219.38 
358.53 218.453 220.001 358.584 218.645 219.947 338.963 221.828 219.091 
335.531 222.438 218.142 335.809 222.569 218.282 338.391 223.081 219.457 
358.561 222.098 220.564 358.363 223.05 220.298 357.64 224.155 220.232 
357.401 224.471 220.318 337.455 224.922 218.884 354.585 225.712 219.768 
338.232 226.05 218.806 351.072 227.642 219.355 341.674 229.674 219.128 
341.586 229.572 219.289 349.061 229.395 219.87 341.871 229.81 219.278 
342.198 229.99 219.333 344.925 230.132 219.436 347.442 229.797 220.241 
342.538 230.145 219.348 344.27 230.119 219.545 351.602 218.175 220.564 
355.5 217.509 220.545 357.726 218.005 220.228 358.455 218.364 220.131 
358.192 218.186 220.177 348.654 219.376 219.91 358.476 218.848 220.526 
346.472 220.39 219.582 347.69 220.027 219.89 358.579 219.498 220.587 
345.129 221.721 220.051 349.847 220.965 221.25 345.906 222.275 220.459 
338.466 224.309 219.549 358.365 223.096 220.921 345.555 224.867 220.88 
358.214 223.692 220.579 339.136 225.958 219.562 355.463 226.163 221.05 
356.148 225.603 221.011 357.348 224.669 220.893 347.456 227.103 221.282 
353.118 227.58 220.437 340.992 228.452 219.592 353.85 227.479 221.06 
347.445 228.561 221.055 351.958 228.772 220.981 352.528 228.426 220.916 
343.78 229.493 220.01 346.502 229.456 220.404 350.299 229.66 220.911 
351.341 229.164 220.977 345.411 229.751 219.999 348.999 229.81 220.76 
347.953 229.864 220.555 354.469 217.476 221.391 354.337 217.447 221.375 
354.535 217.446 221.028 355.638 217.477 220.924 355.464 217.473 221.105 
355.831 217.583 221.101 353.942 217.664 221.159 356.194 217.653 220.858 
357.547 217.982 220.554 358.198 218.429 220.63 357.603 218.472 221.09 
357.671 219.34 221.345 356.473 220.729 221.998 351.769 223.002 221.971 
358.307 222.027 221.172 357.969 222.838 221.489 358.189 223.306 221.175 
358.174 223.602 221.001 357.883 223.964 221.096 355.779 225.907 221.205 
354.729 226.799 221.238 355.434 226.037 221.383 349.122 228.394 221.542 
352.932 228.216 221.059 353.357 227.895 221.248 353.891 227.402 221.346 
352.492 228.523 221.138 352.786 228.32 221.313 353.401 227.719 221.501 
349.026 229.504 221.164 350.683 229.572 221.046 350.996 229.412 221.126 
351.481 229.094 221.228 352.128 228.659 221.352 349.386 229.959 221.038 
350.521 229.611 221.199 349.564 229.98 221.146 349.775 229.94 221.186 
354.339 217.983 221.479 356.223 217.907 221.226 356.781 217.926 221 
357.864 218.192 220.697 354.385 219.535 221.835 353.42 223.552 222.184 
356.105 224.091 221.887 356.889 223.819 221.701 355.764 224.729 221.843 
353.43 226.251 222.053 350.4 228.66 221.712 351.372 228.567 221.717 
352.891 227.864 221.668 349.679 229.896 221.233 350.031 229.738 221.295 
356.243 223.318 233.216 353.339 225.392 232.907 356.764 223.883 233.355 
351.435 227.193 233.081 356.107 225.721 233.403 356.537 225.666 233.659 
356.923 225.354 233.946 352.524 227.393 233.064 350.229 228.629 233.376 
351.508 228.267 233.198 352.227 228.036 233.195 353.637 227.573 233.306 
355.605 226.61 233.564 354.7 227.356 233.613 349.446 229.47 233.731 
349.352 229.595 233.86 350.503 229.43 233.46 351.511 229.235 233.526 
352.096 228.95 233.668 349.658 229.897 234.007 350.101 229.95 233.806 
350.532 229.711 233.574 351.224 229.465 233.551 350.33 229.91 233.712 
350.598 229.847 233.699 352.22 218.686 234.605 351.392 218.55 234.789 
352.855 218.293 234.994 354.351 218.62 234.488 358.095 218.552 234.553 
358.425 218.526 234.636 358.24 218.369 234.694 358.594 218.514 234.727 
358.461 218.372 234.769 358.61 218.466 234.849 350.639 218.863 234.617 
350.465 218.708 234.786 352.946 219.16 234.21 357.335 218.977 234.285 
358.581 218.746 234.662 358.665 218.651 234.792 351.385 220.193 233.896 
350.925 222.249 233.558 358.526 220.889 234.67 358.054 223.232 234.415 
357.353 224.84 234.164 356.372 226.035 233.851 356.16 226.32 234.133 
355.388 227.014 234.076 355.767 226.678 234.194 349.079 229.161 233.826 
353.572 228.234 233.914 353.094 228.521 234.035 353.46 228.296 234.17 
349.418 230.033 234.299 349.67 230.037 234.253 350.063 229.934 234.202 
350.323 229.923 233.889 350.849 229.763 233.814 349.515 230.064 234.372 
350.116 218.339 235.491 350.84 218.203 235.523 351.703 218.087 235.628 
355.354 218.089 235.142 356.955 218.157 235.038 358.471 218.333 234.9 
358.348 218.325 235.052 358.55 218.438 234.985 358.66 219.232 235.037 
342.183 221.632 235.835 346.544 221.476 234.855 358.242 222.862 234.803 
356.188 225.861 234.907 356.514 225.339 235.096 356.96 225.091 234.93 
357.726 224.199 234.677 354.33 226.992 235.11 346.922 228.256 234.47 
353.724 227.972 234.466 346.402 229.047 234.972 349.4 229.676 235.142 
348.995 229.736 235.166 347.611 229.706 235.014 348.586 229.842 234.893 
347.874 229.812 235.219 347.468 229.79 235.266 349.699 218.405 235.685 
350.587 218.105 235.968 351.27 218.073 236.039 357.97 218.247 235.145 
358.209 218.383 235.25 347.648 219.175 236.031 347.973 218.95 236.229 
348.635 218.721 236.256 358.456 218.537 235.164 358.503 218.935 235.275 
341.438 221.004 236.638 339.388 221.455 236.65 358.516 220.927 235.315 
340.961 222.595 235.82 336.346 222.594 237.086 339.904 223.455 235.828 
345.666 223.293 234.627 358.269 222.453 235.188 336.795 223.624 236.965 
336.389 223.363 237.247 338.948 224.101 236.038 341.472 224.167 235.429 
356.725 223.534 235.926 357.242 223.393 235.775 337.056 224.438 237.141 
338.815 224.816 236.158 357.49 223.591 235.561 337.437 224.91 237.079 
339.566 225.68 236.025 340.389 225.775 235.745 338.251 225.879 236.941 
342.862 227.383 235.376 340.49 228.18 236.698 350.387 228.241 236.01 
341.25 228.859 236.751 341.422 228.704 236.396 342.078 228.729 236.07 
341.84 229.273 236.576 345.65 229.361 235.539 342.164 229.589 236.736 
342.564 229.761 236.636 342.803 229.597 236.316 345.139 229.642 236.025 
345.784 229.613 236.032 342.783 229.772 236.499 344.635 229.725 236.257 
351.846 218.14 236.338 355.866 218.17 235.781 356.604 218.256 235.806 
349.212 218.583 236.686 357.393 218.586 235.934 357.624 218.807 235.994 
337.778 220.618 237.499 337.549 220.741 237.452 346.877 219.334 237.139 
357.895 218.999 235.918 358.22 219.126 235.648 335.683 221.485 237.676 
337.43 221.025 237.242 337.201 220.873 237.645 338.348 220.929 237.112 
340.104 220.806 237.289 339.563 220.698 237.553 342.103 220.571 236.977 
355.977 220.776 236.695 335.476 221.588 237.565 335.451 221.639 237.516 
336.546 221.633 237.177 338.459 221.401 236.792 341.256 220.706 237.301 
353.435 221.66 237.224 358.355 220.55 235.618 335.505 221.776 237.512 
335.588 222.014 237.489 336.008 222.666 237.466 336.271 223.301 237.473 
336.432 223.585 237.355 357.975 222.767 235.464 337.133 224.618 237.243 
337.303 224.785 237.42 352.732 224.85 236.717 337.939 225.62 237.097 
338.912 226.676 236.956 348.273 227.993 237.035 340.739 228.459 236.796 
341.462 228.962 237.082 346.44 229.152 236.842 341.86 229.361 236.988 
341.969 229.505 236.872 342.192 229.539 236.954 346.204 229.481 236.435 
[...]
POINT_DATA 478
COLOR_SCALARS scalars 3
1 0.65098 1 1 0.65098 1 1 0.65098 1 
1 0.65098 1 1 0.65098 1 
1 0.65098 1 1 0.65098 1 
1 0.65098 1 1 0.65098 1 
1 0.65098 1 1 0.65098 1 
1 0.65098 1 1 0.65098 1 
1 0.65098 1 1 0.65098 1 
1 0.65098 1 1 0.65098 1 
1 0.65098 1 1 0.65098 1 
1 0.65098 1 1 0.65098 1 
1 0.65098 1 1 0.65098 1 
1 0.65098 1 1 0.65098 1 
1 0.65098 1 1 0.65098 1 
1 0.65098 1 1 0.65098 1 
1 0.65098 1 1 0.65098 1 
1 0.65098 1 1 0.65098 1 
1 0.65098 1 1 0.65098 1 
1 0.65098 1 1 0.65098 1 
1 0.65098 1 1 0.65098 1 
1 0.65098 1 1 0.65098 1 
1 0.65098 1 1 0.65098 1 
1 0.65098 1 1 0.65098 1 
1 0.65098 1 1 0.65098 1 
1 0.65098 1 1 0.65098 1 
1 0.65098 1 1 0.65098 1 
1 0.65098 1 1 0.65098 1 
1 0.65098 1 1 0.65098 1 
1 0.65098 1 1 0.65098 1 
1 0.65098 1 1 0.65098 1 
1 0.65098 1 1 0.65098 1 
1 0.65098 1 1 0.65098 1 
1 0.65098 1 1 0.65098 1 
1 0.65098 1 1 0.65098 1 
1 0.65098 1 1 0.65098 1 
1 0.65098 1 1 0.65098 1 
1 0.65098 1 1 0.65098 1 
1 0.65098 1 1 0.65098 1 
1 0.65098 1 1 0.65098 1 
1 0.65098 1 1 0.65098 1 
1 0.65098 1 1 0.65098 1 
1 0.65098 1 1 0.65098 1 
1 0.65098 1 1 0.65098 1 
1 0.65098 1 1 0.65098 1 
1 0.65098 1 1 0.65098 1 
1 0.65098 1 1 0.65098 1 
1 0.65098 1 1 0.65098 1 
1 0.65098 1 1 0.65098 1 
1 0.65098 1 1 0.65098 1 
1 0.65098 1 1 0.65098 1 
1 0.65098 1 1 0.65098 1 
1 0.65098 1 1 0.65098 1 
1 0.65098 1 1 0.65098 1 
1 0.65098 1 1 0.65098 1 
1 0.65098 1 1 0.65098 1 
1 0.65098 1 1 0.65098 1 
1 0.65098 1 1 0.65098 1 
1 0.65098 1 1 0.65098 1 
1 0.65098 1 1 0.65098 1 
1 0.65098 1 1 0.65098 1 
1 0.65098 1 1 0.65098 1 
1 0.65098 1 1 0.65098 1 
1 0.65098 1 1 0.65098 1 
1 0.65098 1 1 0.65098 1 
1 0.65098 1 1 0.65098 1 
1 0.65098 1 1 0.65098 1 
1 0.65098 1 1 0.65098 1 
1 0.65098 1 1 0.65098 1 
1 0.65098 1 1 0.65098 1 
1 0.65098 1 1 0.65098 1 
1 0.65098 1 1 0.65098 1 
1 0.65098 1 1 0.65098 1 
1 0.65098 1 1 0.65098 1 
1 0.65098 1 1 0.65098 1 
1 0.65098 1 1 0.65098 1 
1 0.65098 1 1 0.65098 1 
1 0.65098 1 1 0.65098 1 
1 0.65098 1 1 0.65098 1 
1 0.65098 1 1 0.65098 1 
1 0.65098 1 1 0.65098 1 
1 0.65098 1 1 0.65098 1 
1 0.65098 1 1 0.65098 1 
1 0.65098 1 1 0.65098 1 
1 0.65098 1 1 0.65098 1 
1 0.65098 1 1 0.65098 1 
1 0.65098 1 1 0.65098 1 
1 0.65098 1 1 0.65098 1 
1 0.65098 1 1 0.65098 1 
1 0.65098 1 1 0.65098 1 
1 0.65098 1 1 0.65098 1 
1 0.65098 1 1 0.65098 1 
1 0.65098 1 1 0.65098 1 
1 0.65098 1 1 0.65098 1 
1 0.65098 1 1 0.65098 1 
1 0.65098 1 1 0.65098 1 
1 0.65098 1 1 0.65098 1 
1 0.65098 1 1 0.65098 1 
1 0.65098 1 1 0.65098 1 
1 0.65098 1 1 0.65098 1 
1 0.65098 1 1 0.65098 1 
1 0.65098 1 1 0.65098 1 
1 0.65098 1 1 0.65098 1 
1 0.65098 1 1 0.65098 1 
1 0.65098 1 1 0.65098 1 
1 0.65098 1 1 0.65098 1 
1 0.65098 1 1 0.65098 1 
1 0.65098 1 1 0.65098 1 
1 0.65098 1 1 0.65098 1 
1 0.65098 1 1 0.65098 1 
1 0.65098 1 1 0.65098 1 
1 0.65098 1 1 0.65098 1 
1 0.65098 1 1 0.65098 1 
1 0.65098 1 1 0.65098 1 
1 0.65098 1 1 0.65098 1 
1 0.65098 1 1 0.65098 1 
1 0.65098 1 1 0.65098 1 
1 0.65098 1 1 0.65098 1 
1 0.65098 1 1 0.65098 1 
1 0.65098 1 1 0.65098 1 
1 0.65098 1 1 0.65098 1 
1 0.65098 1 1 0.65098 1 
1 0.65098 1 1 0.65098 1 
1 0.65098 1 1 0.65098 1 
1 0.65098 1 1 0.65098 1 
1 0.65098 1 1 0.65098 1 
1 0.65098 1 1 0.65098 1 
1 0.65098 1 1 0.65098 1 
1 0.65098 1 1 0.65098 1 
1 0.65098 1 1 0.65098 1 
1 0.65098 1 1 0.65098 1 
1 0.65098 1 1 0.65098 1 
1 0.65098 1 1 0.65098 1 
1 0.65098 1 1 0.65098 1 
1 0.65098 1 1 0.65098 1 
1 0.65098 1 1 0.65098 1 
1 0.65098 1 1 0.65098 1 
1 0.65098 1 1 0.65098 1 
1 0.65098 1 1 0.65098 1 
1 0.65098 1 1 0.65098 1 
1 0.65098 1 1 0.65098 1 
1 0.65098 1 1 0.65098 1 
1 0.65098 1 1 0.65098 1 
1 0.65098 1 1 0.65098 1 
1 0.65098 1 1 0.65098 1 
1 0.65098 1 1 0.65098 1 
1 0.65098 1 1 0.65098 1 
1 0.65098 1 1 0.65098 1 
1 0.65098 1 1 0.65098 1 
1 0.65098 1 1 0.65098 1 
1 0.65098 1 1 0.65098 1 
1 0.65098 1 1 0.65098 1 
1 0.65098 1 1 0.65098 1 
1 0.65098 1 1 0.65098 1 
1 0.65098 1 1 0.65098 1 
1 0.65098 1 1 0.65098 1 
1 0.65098 1 1 0.65098 1 
1 0.65098 1 1 0.65098 1 
1 0.65098 1 1 0.65098 1 
1 0.65098 1 1 0.65098 1 
1 0.65098 1 1 0.65098 1 
1 0.65098 1 1 0.65098 1 
1 0.65098 1 1 0.65098 1 
1 0.65098 1 1 0.65098 1 
1 0.65098 1 1 0.65098 1 
1 0.65098 1 1 0.65098 1 
1 0.65098 1 1 0.65098 1 
1 0.65098 1 1 0.65098 1 
1 0.65098 1 1 0.65098 1 
1 0.65098 1 1 0.65098 1 
1 0.65098 1 1 0.65098 1 
1 0.65098 1 1 0.65098 1 
1 0.65098 1 1 0.65098 1 
1 0.65098 1 1 0.65098 1 
1 0.65098 1 1 0.65098 1 
1 0.65098 1 1 0.65098 1 
1 0.65098 1 1 0.65098 1 
1 0.65098 1 1 0.65098 1 
1 0.65098 1 1 0.65098 1 
1 0.65098 1 1 0.65098 1 
1 0.65098 1 1 0.65098 1 
1 0.65098 1 1 0.65098 1 
1 0.65098 1 1 0.65098 1 
1 0.65098 1 1 0.65098 1 
1 0.65098 1 1 0.65098 1 
1 0.65098 1 1 0.65098 1 
1 0.65098 1 1 0.65098 1 
1 0.65098 1 1 0.65098 1 
1 0.65098 1 1 0.65098 1 
1 0.65098 1 1 0.65098 1 
1 0.65098 1 1 0.65098 1 
1 0.65098 1 1 0.65098 1 
1 0.65098 1 1 0.65098 1 
1 0.65098 1 1 0.65098 1 
1 0.65098 1 1 0.65098 1 
1 0.65098 1 1 0.65098 1 
1 0.65098 1 1 0.65098 1 
1 0.65098 1 1 0.65098 1 
1 0.65098 1 1 0.65098 1 
1 0.65098 1 1 0.65098 1 
1 0.65098 1 1 0.65098 1 
1 0.65098 1 1 0.65098 1 
1 0.65098 1 1 0.65098 1 
1 0.65098 1 1 0.65098 1 
1 0.65098 1 1 0.65098 1 
1 0.65098 1 1 0.65098 1 
1 0.65098 1 1 0.65098 1 
1 0.65098 1 1 0.65098 1 
1 0.65098 1 1 0.65098 1 
1 0.65098 1 1 0.65098 1 
1 0.65098 1 1 0.65098 1 
1 0.65098 1 1 0.65098 1 
1 0.65098 1 1 0.65098 1 
1 0.65098 1 1 0.65098 1 
1 0.65098 1 1 0.65098 1 
1 0.65098 1 1 0.65098 1 
1 0.65098 1 1 0.65098 1 
1 0.65098 1 1 0.65098 1 
1 0.65098 1 1 0.65098 1 
1 0.65098 1 1 0.65098 1 
1 0.65098 1 1 0.65098 1 
1 0.65098 1 1 0.65098 1 
1 0.65098 1 1 0.65098 1 
1 0.65098 1 1 0.65098 1 
1 0.65098 1 1 0.65098 1 
1 0.65098 1 1 0.65098 1 
1 0.65098 1 1 0.65098 1 
1 0.65098 1 1 0.65098 1 
1 0.65098 1 1 0.65098 1 
1 0.65098 1 1 0.65098 1 
1 0.65098 1 1 0.65098 1 
1 0.65098 1 1 0.65098 1 
1 0.65098 1 1 0.65098 1 
1 0.65098 1 1 0.65098 1 
1 0.65098 1 1 0.65098 1 
1 0.65098 1 1 0.65098 1 
1 0.65098 1 1 0.65098 1 
1 0.65098 1 1 0.65098 1 
1 0.65098 1 1 0.65098 1 
1 0.65098 1 1 0.65098 1 
1 0.65098 1 
NORMALS Normals float
-0.254808 -0.50484 -0.824748 0.0245291 -0.433874 -0.900639 -0.13351 -0.503913 -0.853374 
0.00473861 -0.714172 -0.699955 -0.297032 -0.0944787 -0.950182 -0.116874 -0.385118 -0.915437 
-0.0367486 -0.684663 -0.727933 -0.0314153 -0.503729 -0.86329 -0.0888134 -0.457918 -0.884547 
-0.171906 -0.0104587 -0.985058 -0.0814081 -0.129876 -0.988183 -0.0905157 -0.163192 -0.982433 
0.082256 -0.129978 -0.988099 -0.124809 -0.128274 -0.983854 0.0383491 0.0575522 -0.997606 
0.180938 -0.548338 -0.816448 -0.226557 -0.973098 0.0418525 -0.326645 -0.685247 -0.650953 
-0.228494 -0.44569 -0.865535 -0.0688423 -0.884593 -0.461255 0.0111768 -0.996375 0.0843281 
-0.113219 -0.958435 -0.261884 -0.0396745 -0.770075 -0.636719 0.0541413 -0.815975 -0.575546 
0.201724 -0.404542 -0.891994 -0.563395 -0.0768432 -0.822606 -0.0410288 -0.776073 -0.629307 
-0.173239 -0.849093 -0.499028 -0.315207 0.0564304 -0.947344 -0.414945 0.26853 -0.869317 
-0.2375 0.175166 -0.955464 0.287811 0.0305126 -0.957201 -0.292276 0.310749 -0.904439 
-0.0365091 0.270099 -0.96214 -0.157418 -0.839585 -0.519919 0.0811634 -0.76263 -0.641723 
0.0836262 -0.390826 -0.916658 0.325469 -0.60913 -0.723208 -0.707113 -0.630474 -0.320146 
-0.671745 -0.740763 0.00539287 -0.16364 -0.986489 0.0078888 -0.0280801 -0.975596 -0.217771 
-0.0166295 -0.781646 -0.6235 -0.69487 -0.718907 -0.0181472 -0.709731 0.0449784 -0.703036 
0.266335 -0.230736 -0.935856 -0.588036 0.426623 -0.687173 0.330334 -0.0233023 -0.943576 
-0.645213 0.52092 -0.558876 -0.654249 0.504644 -0.563288 -0.409985 0.370334 -0.833526 
-0.624288 0.578412 -0.525076 -0.485753 0.522625 -0.700648 -0.206279 0.419149 -0.884174 
-0.3542 0.522306 -0.775718 -0.162029 0.527622 -0.833883 0.170095 -0.520155 -0.836963 
0.127437 -0.460585 -0.87842 0.285703 -0.387253 -0.876589 -0.103237 -0.930834 0.350556 
-0.0751809 -0.945696 -0.316238 -0.147768 -0.988094 -0.0428436 -0.477581 -0.77962 0.405104 
-0.967527 -0.251096 -0.029018 -0.0843382 -0.986854 -0.137864 0.198543 -0.0984536 -0.975135 
-0.896044 0.343082 -0.281779 -0.990443 -0.0958175 0.0992036 -0.703056 0.479459 -0.525197 
-0.693532 0.538399 -0.478686 0.309935 0.238696 -0.920307 -0.743039 0.656572 -0.129636 
-0.704225 0.700883 -0.113271 -0.58885 0.629329 -0.50715 0.112851 0.549385 -0.827914 
-0.269827 0.649154 -0.711191 -0.0215338 -0.886948 -0.461367 0.194117 -0.745013 -0.638181 
0.287049 -0.693081 -0.661243 0.501005 -0.595275 -0.628205 -0.351774 -0.928372 0.119921 
-0.26091 -0.955117 -0.140274 0.298605 -0.179576 -0.93733 -0.429863 -0.897269 0.100627 
-0.430121 -0.656383 0.619804 -0.348627 -0.858773 0.375456 -0.151051 -0.923197 0.353399 
-0.810881 -0.194778 0.551846 -0.329564 -0.473928 0.816566 -0.15506 -0.659499 0.735539 
0.585457 0.0541345 -0.808894 0.88631 0.130467 -0.444334 -0.397856 -0.407987 0.821741 
-0.877147 0.172239 0.448271 -0.954547 -0.279208 0.104321 -0.465515 -0.371238 0.803416 
-0.33496 -0.389025 0.858174 0.27579 0.234915 -0.93207 0.527943 0.135069 -0.83847 
-0.79423 0.492872 -0.355353 -0.805837 0.573235 0.14842 0.339259 0.280211 -0.89799 
0.46502 0.395191 -0.7922 -0.815877 0.561525 -0.137969 -0.791226 0.597265 0.131285 
-0.674539 0.732715 -0.0901467 -0.741531 0.670918 0.000978925 -0.421684 0.671142 -0.609714 
-0.667024 0.693229 -0.27297 -0.49164 0.735728 -0.465826 -0.570101 0.743244 -0.350105 
0.220098 0.640314 -0.735904 0.215526 0.931649 -0.292539 -0.101158 0.766448 -0.63429 
-0.398835 0.908968 -0.121276 0.111017 0.839531 -0.531848 0.210881 0.926153 -0.31268 
0.00661227 0.873269 -0.487194 -0.248522 -0.96453 -0.0889816 -0.209168 -0.977451 0.028964 
-0.195702 -0.977885 0.0737723 0.462128 -0.869511 -0.174322 -0.487658 -0.753511 0.44092 
0.81897 -0.521156 -0.240175 0.941715 -0.134993 -0.308139 -0.0493683 -0.449684 0.891823 
-0.688948 0.411707 0.59653 -0.455001 0.00996905 0.890435 -0.1415 -0.258638 0.955554 
0.997417 0.067428 0.024737 0.826947 0.22469 -0.515434 0.663409 0.567266 -0.487954 
0.38131 0.59483 -0.707658 -0.72223 0.40121 0.563396 0.413899 0.622195 -0.664501 
-0.682264 0.604427 0.411319 0.373429 0.554857 -0.743428 -0.558693 0.809243 -0.181628 
-0.596651 0.605157 0.527061 0.198114 0.843207 -0.499753 -0.54826 0.797969 0.250313 
-0.391023 0.634246 0.666958 0.0728516 0.986529 0.146467 0.00646153 0.987385 0.158204 
-0.160157 0.78253 0.601662 -0.0277252 0.819273 0.572733 -0.351183 -0.75656 0.551623 
0.12487 -0.973468 -0.191746 0.320791 -0.94633 -0.0394021 0.76552 -0.576952 0.28479 
0.428205 -0.903411 0.022125 -0.451325 -0.642862 0.618898 0.845173 -0.262421 0.465637 
-0.275312 -0.708229 0.650089 -0.333657 -0.56977 0.751023 0.857478 -0.091559 0.506309 
-0.22254 -0.421902 0.878905 -0.235169 -0.252707 0.938528 -0.179731 -0.327975 0.927431 
-0.2557 -0.0432199 0.96579 0.93558 0.15083 0.31928 -0.183952 -0.169347 0.968237 
0.848817 0.502682 -0.16377 -0.430969 0.288015 0.855168 0.614519 0.767647 -0.181892 
0.680546 0.711935 0.173219 0.667072 0.741913 -0.0676709 -0.223626 0.133011 0.965557 
0.42904 0.589612 -0.684311 -0.408887 0.361133 0.83809 0.619261 0.763999 -0.181166 
-0.297469 0.293068 0.908638 0.477731 0.83355 -0.27743 0.474479 0.725599 -0.498374 
-0.175839 0.399826 0.899566 -0.295881 0.511878 0.806496 0.34644 0.798851 -0.491748 
0.473768 0.788155 -0.39288 -0.0977697 0.618247 0.779879 -0.307414 0.88814 0.341621 
-0.134034 0.918669 0.371594 0.116982 -0.698226 0.706255 -0.273675 -0.762938 0.585686 
-0.0694049 -0.997133 -0.0301437 0.21318 -0.975483 0.0546581 0.124791 -0.933625 0.335814 
0.323566 -0.822139 0.468394 -0.41607 -0.791485 0.447703 0.3191 -0.915593 0.244672 
0.320306 -0.920825 0.222454 0.631037 -0.39237 0.669207 0.391968 -0.443227 0.806171 
0.44923 -0.221582 0.865502 0.172467 -0.10975 0.978882 -0.156767 -0.0291814 0.987204 
0.763548 -0.0166597 0.645536 0.526455 0.0933685 0.84506 0.743944 0.255297 0.617552 
0.845614 0.405161 0.347538 0.595066 0.517033 0.615283 0.619173 0.616462 0.486414 
0.568214 0.689442 0.449223 0.540035 0.504442 0.673722 -0.158415 -0.00885652 0.987333 
0.556422 0.762149 -0.330944 0.589062 0.717742 0.371285 0.530604 0.548685 0.646069 
0.495138 0.867441 -0.0488265 0.522386 0.751294 0.403324 0.48714 0.575219 0.657128 
-0.290784 0.425076 0.857178 0.405279 0.870725 -0.278546 0.506289 0.847969 -0.156905 
0.457455 0.795221 0.397943 0.40911 0.71933 0.561421 0.162753 0.857339 -0.488345 
0.364177 0.868164 0.337145 -0.32116 0.655696 0.683315 0.270909 0.943916 0.18876 
-0.175723 -0.264357 0.948281 0.22981 -0.467893 0.853384 0.291853 -0.671773 0.68084 
0.467599 -0.760873 0.449914 -0.0213079 -0.14674 0.988946 0.000508707 -0.0494613 0.998776 
0.269057 0.200389 0.942047 0.370508 0.327227 0.869279 0.316895 0.305349 0.897964 
0.093298 0.202372 0.974854 -0.0917242 0.183093 0.978807 0.150399 0.298563 0.942465 
0.165006 0.248252 0.954539 -0.0925175 0.479361 0.872728 0.182113 0.555691 0.811198 
0.145133 -0.100183 -0.984327 0.0233789 -0.0755512 -0.996868 0.497128 0.0833607 -0.863664 
-0.302237 0.0828948 -0.949621 0.380153 0.162173 -0.910595 0.631496 0.358674 -0.687434 
0.771896 0.404032 -0.490851 0.158206 0.172821 -0.972164 -0.253415 0.111078 -0.960959 
-0.0597691 0.239706 -0.969004 0.203287 0.313745 -0.927491 0.302569 0.404413 -0.863077 
0.556967 0.6067 -0.567189 0.44704 0.538189 -0.714498 -0.327194 0.419175 -0.846898 
-0.661135 0.632173 -0.404052 -0.121578 0.294534 -0.947876 0.468069 0.627731 -0.621985 
0.415722 0.626194 -0.659588 -0.272577 0.898023 -0.345337 -0.235139 0.66446 -0.709367 
-0.0357923 0.478228 -0.877506 0.306583 0.605854 -0.734131 0.0499886 0.850286 -0.523942 
0.274055 0.871352 -0.406987 -0.073784 -0.683815 -0.725915 -0.0687542 -0.728903 -0.681156 
-0.0523786 -0.797598 -0.60091 -0.0190927 -0.471424 -0.8817 0.150839 -0.354258 -0.922903 
0.307396 -0.398978 -0.863901 0.0420882 -0.75404 -0.655479 0.67503 -0.418354 -0.607712 
0.420127 -0.748428 -0.513176 0.819417 -0.56881 -0.0707913 -0.228538 -0.4402 -0.868328 
-0.271088 -0.720557 -0.638208 0.000173624 -0.410289 -0.911955 0.0816445 -0.363917 -0.927846 
0.511109 -0.0779041 -0.855978 0.990359 -0.13627 0.0248939 -0.119074 -0.373629 -0.919904 
-0.259807 -0.118322 -0.958384 0.85682 0.0602706 -0.512081 0.855233 0.230189 -0.464316 
0.739217 0.301585 -0.602166 0.711024 0.627424 -0.317465 0.72886 0.675665 0.110634 
0.588266 0.793037 0.158228 0.654757 0.747761 0.110216 -0.543815 0.438651 -0.715438 
0.49664 0.812482 -0.305322 0.436729 0.860115 0.263572 0.478935 0.834635 0.272039 
-0.262429 0.885373 -0.383725 0.170981 0.980843 -0.0933394 0.244006 0.96117 0.128889 
0.160492 0.985277 0.0589172 0.458804 0.888135 0.0267591 0.0521444 0.98733 0.149865 
-0.213662 -0.947257 -0.238857 -0.171044 -0.927257 -0.333076 -0.0330757 -0.956089 -0.291205 
-0.0259359 -0.894701 -0.445913 0.0621623 -0.998049 0.00582425 0.371608 -0.927653 -0.0369775 
0.448403 -0.772532 0.449588 0.766252 -0.471626 0.43638 0.953794 0.0158213 0.300044 
-0.236276 -0.455876 -0.858109 -0.299105 -0.427968 -0.852866 0.957068 0.253007 0.141452 
0.450407 0.55086 0.702628 0.525191 0.553492 0.64639 0.650797 0.49582 0.575 
0.857149 0.484689 0.174274 0.359936 0.608102 0.707572 -0.352755 0.188927 -0.916444 
0.35368 0.68792 0.633779 -0.303198 0.3179 -0.898338 0.295991 0.810393 0.505622 
0.155423 0.799537 0.580159 -0.269141 0.789991 -0.550888 -0.0475104 0.991893 0.117864 
-0.0315222 0.988631 0.147021 -0.0922616 0.994149 0.0561705 -0.34718 -0.867251 -0.35685 
-0.222753 -0.9708 -0.0890451 -0.0573881 -0.990632 0.123914 0.204032 -0.935471 0.288556 
0.478415 -0.582315 0.657289 -0.322791 -0.841714 -0.432808 -0.363838 -0.899807 -0.240767 
-0.311741 -0.943059 -0.116003 0.699573 -0.365421 0.614057 0.767455 -0.207013 0.60676 
-0.234088 -0.707729 -0.666575 -0.140131 -0.63759 -0.757524 0.925068 0.131148 0.35644 
-0.230425 -0.27835 -0.93243 -0.489498 0.0755685 -0.868724 -0.207884 -0.096221 -0.973409 
-0.279694 -0.0774276 -0.956962 0.866395 0.314749 0.387677 -0.717915 0.308634 -0.623973 
-0.772753 0.306983 -0.55553 -0.285349 -0.0499724 -0.95712 -0.213589 -0.0536559 -0.975449 
0.315402 0.255729 0.913851 0.381503 0.244182 0.891533 -0.702532 0.366698 -0.609903 
-0.415527 0.224779 -0.881369 0.59437 0.39444 0.700815 -0.716329 0.54517 -0.435502 
-0.382252 0.2191 -0.897707 -0.28197 0.118417 -0.952087 -0.561654 0.412491 -0.717214 
-0.281436 0.269413 -0.920983 -0.564794 0.516997 -0.643212 0.317594 0.599999 0.734258 
-0.628904 0.730333 -0.266632 -0.445063 0.523636 -0.726446 -0.36075 0.413406 -0.836035 
-0.502991 0.675084 -0.539686 -0.206102 0.717923 -0.664913 -0.36554 0.927778 0.0748837 
-0.377463 0.790526 -0.482277 -0.26282 0.658089 -0.705581 0.00989382 0.940096 -0.340767 
0.00844357 0.993224 -0.115904 -0.170513 0.875163 -0.452786 -0.0101976 0.949764 -0.3128 
0.059863 -0.953216 0.296304 0.0950602 -0.790945 0.604458 0.121712 -0.864143 0.488307 
-0.219599 -0.966595 0.132178 0.18655 -0.523631 0.83127 0.388555 -0.442098 0.808439 
-0.114966 -0.918016 -0.379513 -0.417077 -0.776047 -0.473072 -0.233651 -0.957481 0.169227 
0.624876 -0.276713 0.730041 0.718131 -0.262613 0.644455 -0.489992 -0.84337 -0.220535 
-0.301119 -0.666788 -0.681705 -0.41449 -0.905392 -0.0919929 -0.0291754 -0.651629 -0.757977 
-0.0540647 -0.912811 -0.404788 0.0290553 -0.855146 -0.517572 -0.243572 -0.903994 -0.35138 
0.228373 0.00903692 0.973532 -0.546006 -0.837064 -0.0346505 -0.432965 -0.372567 -0.820814 
-0.260882 -0.442091 -0.858194 -0.155435 -0.415591 -0.896172 -0.170776 -0.923508 -0.343467 
0.2491 0.144451 0.957644 0.625981 0.126483 0.769513 -0.83542 0.36521 -0.410726 
-0.862788 0.375962 -0.338009 -0.861049 0.445799 -0.244658 -0.89839 0.429522 -0.091684 
-0.836237 0.502616 -0.21928 0.667837 0.210954 0.713787 -0.837381 0.545347 -0.0372665 
-0.748452 0.629447 0.208845 0.266898 0.341031 0.901367 -0.764659 0.632375 -0.124086 
-0.717321 0.677593 -0.162232 0.314119 0.549068 0.774503 -0.665702 0.746155 -0.00973988 
-0.527127 0.672148 0.519955 0.272755 0.71189 0.647161 -0.379871 0.632502 0.675011 
-0.551247 0.82549 0.121214 -0.208178 0.747554 0.630734 0.189055 0.885543 0.42435 
-0.0534994 0.915263 0.399288 0.0667645 0.807796 0.585669 0.140924 0.922938 0.358225 
0.134191 0.973479 0.18529 -0.0345329 -0.881618 0.470698 0.151939 -0.528257 0.83538 
-0.0672402 -0.766661 0.638522 0.220933 -0.341214 0.913653 -0.3363 -0.941089 0.0354065 
0.0309116 -0.874504 0.484033 0.117307 -0.111907 0.986771 0.263473 -0.290321 0.919943 
-0.560093 -0.822657 0.0976278 -0.66485 -0.407085 0.626304 -0.395193 -0.865089 0.308939 
-0.0642275 -0.954444 0.291395 -0.213039 -0.971202 0.106688 0.195199 -0.0454048 0.979712 
0.426978 -0.0911207 0.899659 -0.981847 -0.174583 -0.0741388 -0.893684 0.00620399 0.448655 
-0.763985 -0.374659 0.525316 -0.0755429 -0.991813 -0.102957 -0.874638 0.465071 0.136808 
-0.848481 0.414107 0.329536 -0.603461 0.601196 0.52383 -0.220468 0.619395 0.753488 
0.22031 0.471706 0.85379 0.0640818 0.700317 0.71095 0.265733 -0.753361 0.601526 
0.122196 -0.636892 0.761207 -0.180167 -0.916228 0.357862 -0.110053 -0.80408 0.584246 
-0.0998087 -0.852529 0.513062 0.297257 -0.362243 0.883413 0.109487 -0.244465 0.963457 
-0.606362 -0.541705 0.582135 -0.63942 -0.603641 0.476192 -0.251951 -0.90857 0.333197 
-0.204159 -0.899238 0.386898 -0.0768043 -0.833484 0.547179 -0.774966 0.122942 0.61993 
-0.638254 0.315885 0.702032 -0.762065 0.505176 0.405036 -0.223678 0.416203 0.88133 
0.0562892 0.361229 0.930777 -0.0555957 0.443782 0.894409 -0.0576719 -0.395345 0.916721 
0.21671 -0.386729 0.896369 -0.527404 -0.792231 0.306943 -0.348812 -0.502832 0.79088 
-0.0311153 -0.62631 0.778953 -0.150944 -0.504541 0.850091 -0.737782 -0.274411 0.616746 
-0.619754 0.055869 0.782805 0.100006 -0.263333 0.959507 -0.3474 0.201773 0.915752 
-0.341385 0.247243 0.906823 -0.216905 0.387088 0.896167 0.00503209 0.29725 0.954786 
0.255803 0.139215 0.956652 -0.231631 -0.649248 0.724447 -0.2546 -0.032183 0.966511 
-0.0537703 -0.19895 0.978533 0.0406332 0.0271804 0.998804 -0.142229 -0.0437591 0.988866 
-0.455387 -0.34658 0.820064 
