# vtk DataFile Version 4.2
vtk output
ASCII
DATASET POLYDATA
POINTS 607 float
341.928 221.537 208.761 341.272 221.592 208.966 342.897 220.925 208.714 
344.213 221.291 208.601 343.625 221.954 208.509 344.387 221.679 208.547 
343.268 223.153 208.758 345.323 219.802 209.188 346.848 219.73 209.41 
340.85 219.657 209.39 344.242 220.743 208.773 347.49 220.521 209.373 
345.684 223.159 208.84 342.942 225.223 209.82 346.774 225.133 209.552 
343.229 225.593 209.98 337.272 219.2 210.808 337.977 218.49 210.509 
337.731 219.706 210.561 337.763 220.664 210.715 349.251 220.709 210.049 
342.374 225.543 210.348 345.049 227.461 210.97 337.356 216.154 211.554 
338.073 215.842 211.535 350.516 216.006 211.741 337.301 216.665 211.33 
337.948 216.743 211.056 350.817 216.885 211.44 335.585 218.392 212.171 
336.691 217.87 211.293 350.627 218.043 211.087 349.85 227.217 211.537 
336.885 215.737 212.269 336.714 215.713 212.556 337.203 215.485 212.542 
338.396 215.205 212.325 339.001 215.153 212.196 349.484 215.095 212.202 
336.635 216.104 212.066 348.826 215.532 211.704 351.797 215.942 212.486 
342.301 215.983 211.274 345.687 215.496 211.68 335.344 217.448 212.511 
335.09 217.625 212.721 351.937 219.226 211.509 335.991 219.597 211.939 
339.239 223.809 211.462 340.843 225.804 212.04 344.604 228.618 212.419 
348.878 228.995 212.719 338.877 214.988 212.734 338.537 215.06 212.641 
345.971 214.823 212.869 349.13 214.696 212.804 349.576 214.65 213.197 
351.019 214.85 213.226 336.452 215.923 212.738 337.933 215.27 212.785 
339.573 215.126 212.271 340.536 215.199 212.388 343.81 215.174 212.462 
352.18 215.27 213.812 336.972 215.678 213.054 334.944 217.703 213.028 
353.51 217.43 212.971 334.69 218.206 213.242 354.242 218.016 213.315 
334.857 218.761 213.246 335.065 219.06 213.045 337.712 222.902 212.635 
350.885 228.424 213.139 345.049 229.462 213.393 348.147 214.673 213.604 
348.859 214.628 213.509 338.556 215.274 213.139 339.391 215.625 213.558 
342.044 215.428 213.249 347.136 214.947 213.842 351.366 214.94 213.928 
351.868 215.093 213.957 351.735 215.126 214.228 339.016 216.236 213.916 
353.994 216.363 214.642 341.744 216.178 213.909 342.465 216.034 213.855 
354.393 216.767 214.506 335.297 217.422 213.509 343.5 216.671 214.316 
355.022 217.389 214.616 334.759 218.123 213.461 334.674 218.192 213.382 
355.479 218.501 214.156 334.741 218.419 213.392 355.569 219.252 213.964 
335.697 220.298 213.355 336.178 221.035 213.566 337.146 222.309 213.184 
341.705 227.413 213.548 344.25 229.554 213.954 344.023 229.642 214.298 
351.844 215.413 214.678 353.509 216.007 214.737 353.402 216.074 215.118 
355.886 218.021 214.961 356.614 218.267 215.541 334.732 218.273 213.494 
334.985 218.411 213.689 356.464 218.733 215.006 335.093 219.181 213.887 
356.576 219.549 214.805 356.905 218.88 215.385 357.159 219.167 215.652 
335.316 219.767 213.629 335.907 220.509 214.019 336.58 221.517 213.812 
337.57 222.735 214.167 356.992 223.55 215.396 342.021 227.933 214.295 
344.817 230.653 215.417 354.299 216.714 215.461 354.172 216.842 215.806 
336.005 218.004 214.185 354.901 217.235 215.829 356.609 218.215 215.821 
356.879 218.451 215.966 336.29 220.707 214.259 337.558 220.913 214.888 
357.634 221.002 216.08 335.004 222.013 216.009 335.004 222.013 216.009 
335.004 222.013 216.009 335.004 222.013 216.009 336.986 221.687 214.273 
335.004 222.013 216.009 344.609 222.879 216.168 357.531 224.603 216.766 
339.092 224.846 214.607 342.26 225.093 216.123 357.117 225.698 216.596 
342.41 228.366 215.723 344.185 230.537 215.954 352.801 216.654 215.986 
353.573 216.731 215.916 355.644 217.759 216.271 356.235 218.077 216.377 
356.742 218.4 216.274 356.501 218.391 216.703 356.96 218.693 216.762 
357.462 219.318 216.78 357.623 219.909 216.406 357.602 219.687 216.693 
335.004 222.013 216.009 357.769 221.757 217.078 338.699 224.077 214.761 
357.731 224.451 217.208 357.77 224.291 217.544 341.4 225.615 215.862 
342.221 225.678 216.155 357.34 225.626 216.887 346.405 226.392 217.563 
341.712 227.341 215.465 343.017 227.254 216.508 342.783 229.122 216.081 
342.797 228.484 216.285 343.645 228.689 216.941 353.852 229.147 216.737 
343.507 229.937 216.187 343.832 230.257 216.797 344.589 231.224 216.837 
355.49 218.055 216.752 354.694 218.564 217.288 357.068 218.906 217.027 
356.959 219.044 217.2 352.918 219.35 217.604 357.22 219.194 217.144 
357.411 219.342 217.028 357.648 223.073 217.813 357.709 224.824 218.018 
357.534 225.681 217.795 357.664 225.333 217.997 355.084 228.656 217.514 
344.079 230.862 217.218 344.033 230.754 217.062 344.189 230.148 217.358 
344.15 230.989 217.174 344.306 231.154 217.341 345.008 231.668 217.861 
345.45 232.164 218.127 345.318 232.143 218.421 346.623 232.441 218.065 
345.671 232.566 218.637 355.203 219.893 217.926 357.344 219.535 217.205 
355.944 221.981 218.533 356.905 222.742 218.501 357.294 222.611 218.148 
357.439 223.501 218.328 357.242 223.745 218.634 357.6 225.379 218.386 
356.618 227.455 218.296 354.144 229.479 218.073 344.213 230.962 217.361 
351.548 231.034 218.196 344.823 231.11 217.954 345.292 231.7 218.556 
345.719 231.301 218.86 345.23 232.793 219.175 345.335 232.475 218.893 
345.462 232.253 219.054 349.084 232.33 219.058 345.264 232.76 219.094 
345.428 232.804 219.042 345.71 232.847 219.009 345.577 232.931 219.165 
347.169 232.839 218.992 347.037 232.882 219.227 356.745 223.212 218.739 
357.38 224.829 218.871 357.232 225.125 219.081 357.403 225.184 218.913 
357.426 225.507 218.803 357.131 226.066 219.073 356.852 227.012 218.831 
349.149 229.404 219.693 354.576 229.36 218.894 352.678 230.527 219.299 
345.377 232.764 219.298 345.275 232.823 219.247 346.277 231.882 219.445 
349.1 232.4 219.429 345.3 232.88 219.21 345.42 232.938 219.211 
345.413 232.947 219.293 347.457 232.835 219.204 345.59 232.963 219.286 
345.843 232.922 219.375 346.345 232.844 219.455 356.876 225.318 219.302 
355.301 226.841 220.071 356.268 226.707 219.805 356.555 226.653 219.629 
355.57 227.246 220.076 356.544 227.331 219.281 352.713 228.715 220.267 
355.846 228.305 219.27 355.929 228.144 219.438 353.205 229.04 220.331 
354.695 229.246 219.196 352.482 230.634 219.533 353.257 230.063 219.781 
354.516 229.225 219.555 348.2 231.397 219.958 352.869 230.237 220.004 
345.381 232.879 219.315 346.986 232.207 219.781 347.516 232.101 219.926 
349.216 232.35 219.68 349.483 232.153 219.898 350.111 231.811 219.9 
345.588 232.91 219.369 346.485 232.573 219.622 348.129 232.595 219.72 
355.981 227.244 219.922 355.417 227.774 220.046 355.878 227.63 219.883 
353.838 228.884 220.252 355.249 228.231 219.96 355.726 228.025 219.741 
353.684 229.325 220.204 354.16 229.153 219.993 351.646 230.685 220.218 
353.372 229.752 220.102 349.459 231.831 220.13 348.544 232.266 220.005 
347.425 232.528 219.848 349.004 234.013 222.009 349.004 234.013 222.009 
349.004 234.013 222.009 349.004 234.013 222.009 349.11 232.34 220.071 
349.004 234.013 222.009 352.671 230.126 220.303 350.639 231.356 220.278 
350.93 231.254 220.264 349.202 232.277 220.144 349.004 234.013 222.009 
349.922 231.969 235.016 350.005 231.878 234.994 349.871 231.92 235.013 
350.066 231.888 235.097 349 234.009 233.017 349 234.009 233.017 
349 234.009 233.017 349.731 232.049 235.136 349 234.009 233.017 
349 234.009 233.017 356.068 227.568 235.5 355.956 227.562 235.463 
354.057 229.294 235.106 353.662 229.24 234.964 354.559 229.074 235.276 
356.091 227.57 235.667 354.956 228.705 235.414 353.21 229.415 234.907 
352.777 229.823 234.903 353.703 229.823 235.211 351.605 230.328 234.858 
351.199 230.691 234.887 352.431 230.391 235.03 353.461 230.158 235.333 
350.147 231.603 235.022 353.092 230.435 235.384 349.534 231.936 235.104 
349.205 231.807 235.143 348.882 232.141 235.329 350.603 231.632 235.383 
349 234.009 233.017 349.257 232.19 235.31 349.488 232.2 235.415 
356.614 226.255 235.846 356.446 225.865 235.844 354.224 227.355 235.207 
356.004 227.181 235.521 356.499 226.702 235.776 356.813 226.335 236.023 
355.452 227.917 235.459 356.362 227.158 235.746 353.531 228.797 234.97 
355.95 227.898 236.087 354.84 229.164 235.798 349.294 230.779 235.194 
353.403 230.282 235.542 352.734 230.681 235.543 346.758 232.016 235.82 
346.115 232.751 235.961 346.017 232.742 236.057 346.054 232.817 235.987 
346.404 232.617 235.88 346.118 232.545 236.05 346.787 232.625 235.782 
348.042 232.397 235.574 348.656 232.447 235.734 346.194 232.805 235.962 
346.511 232.782 235.914 354.806 224.582 235.946 356.307 224.55 236.132 
355.837 223.924 236.209 357.23 224.107 236.639 357.473 224.209 236.903 
357.479 224.905 236.802 357.12 226.084 236.458 355.544 228.474 236.392 
348.36 230.013 235.737 354.579 229.453 236.24 353.741 229.985 236.553 
351.907 231.137 236.406 345.242 232.152 236.894 345.178 232.19 236.971 
345.533 232.189 236.666 346.013 232.1 236.264 345.603 232.404 236.775 
346.055 232.793 236.067 345.955 232.583 236.341 347.606 232.797 235.974 
347.866 232.716 236.184 346.256 232.803 236.102 357.423 221.067 237.638 
357.604 220.729 237.984 357.654 221.504 237.85 356.836 223.034 236.752 
357.3 223.549 236.888 357.638 225.195 237.37 350.677 226.792 236.1 
355.654 228.371 236.868 345.534 230.035 237.165 344.499 230.958 238.237 
345.256 231.142 237.161 345.192 232.142 237.094 344.786 231.379 238.012 
345.107 231.773 237.447 345.437 232.248 237.164 346.369 232.76 236.39 
356.26 218.202 238.625 356.907 218.598 238.633 353.943 219.385 237.647 
357.409 219.218 238.516 357.638 220.196 238.398 357.754 223.926 237.832 
357.449 225.779 237.547 357.16 226.506 237.408 356.86 226.918 237.57 
342.944 229.079 239.543 353.592 229.676 237.881 354.867 228.46 238.36 
344.068 229.898 238.454 344.656 231.24 238.403 347.686 232.535 237.25 
356.767 218.313 238.815 357.421 219.105 238.714 357.176 218.764 238.938 
357.475 219.271 238.915 357.623 219.863 238.85 357.693 224.366 238.216 
338 225.009 239.017 338 225.009 239.017 338 225.009 239.017 
338 225.009 239.017 338 225.009 239.017 339.681 225.116 240.624 
339.591 225.101 240.813 339.717 225.239 240.654 339.883 225.289 240.582 
[...]
POINT_DATA 607
COLOR_SCALARS scalars 3
1 0.65098 1 1 0.65098 1 1 0.65098 1 
1 0.65098 1 1 0.65098 1 
1 0.65098 1 1 0.65098 1 
1 0.65098 1 1 0.65098 1 
1 0.65098 1 1 0.65098 1 
1 0.65098 1 1 0.65098 1 
1 0.65098 1 1 0.65098 1 
1 0.65098 1 1 0.65098 1 
1 0.65098 1 1 0.65098 1 
1 0.65098 1 1 0.65098 1 
1 0.65098 1 1 0.65098 1 
1 0.65098 1 1 0.65098 1 
1 0.65098 1 1 0.65098 1 
1 0.65098 1 1 0.65098 1 
1 0.65098 1 1 0.65098 1 
1 0.65098 1 1 0.65098 1 
1 0.65098 1 1 0.65098 1 
1 0.65098 1 1 0.65098 1 
1 0.65098 1 1 0.65098 1 
1 0.65098 1 1 0.65098 1 
1 0.65098 1 1 0.65098 1 
1 0.65098 1 1 0.65098 1 
1 0.65098 1 1 0.65098 1 
1 0.65098 1 1 0.65098 1 
1 0.65098 1 1 0.65098 1 
1 0.65098 1 1 0.65098 1 
1 0.65098 1 1 0.65098 1 
1 0.65098 1 1 0.65098 1 
1 0.65098 1 1 0.65098 1 
1 0.65098 1 1 0.65098 1 
1 0.65098 1 1 0.65098 1 
1 0.65098 1 1 0.65098 1 
1 0.65098 1 1 0.65098 1 
1 0.65098 1 1 0.65098 1 
1 0.65098 1 1 0.65098 1 
1 0.65098 1 1 0.65098 1 
1 0.65098 1 1 0.65098 1 
1 0.65098 1 1 0.65098 1 
1 0.65098 1 1 0.65098 1 
1 0.65098 1 1 0.65098 1 
1 0.65098 1 1 0.65098 1 
1 0.65098 1 1 0.65098 1 
1 0.65098 1 1 0.65098 1 
1 0.65098 1 1 0.65098 1 
1 0.65098 1 1 0.65098 1 
1 0.65098 1 1 0.65098 1 
1 0.65098 1 1 0.65098 1 
1 0.65098 1 1 0.65098 1 
1 0.65098 1 1 0.65098 1 
1 0.65098 1 1 0.65098 1 
1 0.65098 1 1 0.65098 1 
1 0.65098 1 1 0.65098 1 
1 0.65098 1 1 0.65098 1 
1 0.65098 1 1 0.65098 1 
1 0.65098 1 1 0.65098 1 
1 0.65098 1 1 0.65098 1 
1 0.65098 1 1 0.65098 1 
1 0.65098 1 1 0.65098 1 
1 0.65098 1 1 0.65098 1 
1 0.65098 1 1 0.65098 1 
1 0.65098 1 1 0.65098 1 
1 0.65098 1 1 0.65098 1 
1 0.65098 1 1 0.65098 1 
1 0.65098 1 1 0.65098 1 
1 0.65098 1 1 0.65098 1 
1 0.65098 1 1 0.65098 1 
1 0.65098 1 1 0.65098 1 
1 0.65098 1 1 0.65098 1 
1 0.65098 1 1 0.65098 1 
1 0.65098 1 1 0.65098 1 
1 0.65098 1 1 0.65098 1 
1 0.65098 1 1 0.65098 1 
1 0.65098 1 1 0.65098 1 
1 0.65098 1 1 0.65098 1 
1 0.65098 1 1 0.65098 1 
1 0.65098 1 1 0.65098 1 
1 0.65098 1 1 0.65098 1 
1 0.65098 1 1 0.65098 1 
1 0.65098 1 1 0.65098 1 
1 0.65098 1 1 0.65098 1 
1 0.65098 1 1 0.65098 1 
1 0.65098 1 1 0.65098 1 
1 0.65098 1 1 0.65098 1 
1 0.65098 1 1 0.65098 1 
1 0.65098 1 1 0.65098 1 
1 0.65098 1 1 0.65098 1 
1 0.65098 1 1 0.65098 1 
1 0.65098 1 1 0.65098 1 
1 0.65098 1 1 0.65098 1 
1 0.65098 1 1 0.65098 1 
1 0.65098 1 1 0.65098 1 
1 0.65098 1 1 0.65098 1 
1 0.65098 1 1 0.65098 1 
1 0.65098 1 1 0.65098 1 
1 0.65098 1 1 0.65098 1 
1 0.65098 1 1 0.65098 1 
1 0.65098 1 1 0.65098 1 
1 0.65098 1 1 0.65098 1 
1 0.65098 1 1 0.65098 1 
1 0.65098 1 1 0.65098 1 
1 0.65098 1 1 0.65098 1 
1 0.65098 1 1 0.65098 1 
1 0.65098 1 1 0.65098 1 
1 0.65098 1 1 0.65098 1 
1 0.65098 1 1 0.65098 1 
1 0.65098 1 1 0.65098 1 
1 0.65098 1 1 0.65098 1 
1 0.65098 1 1 0.65098 1 
1 0.65098 1 1 0.65098 1 
1 0.65098 1 1 0.65098 1 
1 0.65098 1 1 0.65098 1 
1 0.65098 1 1 0.65098 1 
1 0.65098 1 1 0.65098 1 
1 0.65098 1 1 0.65098 1 
1 0.65098 1 1 0.65098 1 
1 0.65098 1 1 0.65098 1 
1 0.65098 1 1 0.65098 1 
1 0.65098 1 1 0.65098 1 
1 0.65098 1 1 0.65098 1 
1 0.65098 1 1 0.65098 1 
1 0.65098 1 1 0.65098 1 
1 0.65098 1 1 0.65098 1 
1 0.65098 1 1 0.65098 1 
1 0.65098 1 1 0.65098 1 
1 0.65098 1 1 0.65098 1 
1 0.65098 1 1 0.65098 1 
1 0.65098 1 1 0.65098 1 
1 0.65098 1 1 0.65098 1 
1 0.65098 1 1 0.65098 1 
1 0.65098 1 1 0.65098 1 
1 0.65098 1 1 0.65098 1 
1 0.65098 1 1 0.65098 1 
1 0.65098 1 1 0.65098 1 
1 0.65098 1 1 0.65098 1 
1 0.65098 1 1 0.65098 1 
1 0.65098 1 1 0.65098 1 
1 0.65098 1 1 0.65098 1 
1 0.65098 1 1 0.65098 1 
1 0.65098 1 1 0.65098 1 
1 0.65098 1 1 0.65098 1 
1 0.65098 1 1 0.65098 1 
1 0.65098 1 1 0.65098 1 
1 0.65098 1 1 0.65098 1 
1 0.65098 1 1 0.65098 1 
1 0.65098 1 1 0.65098 1 
1 0.65098 1 1 0.65098 1 
1 0.65098 1 1 0.65098 1 
1 0.65098 1 1 0.65098 1 
1 0.65098 1 1 0.65098 1 
1 0.65098 1 1 0.65098 1 
1 0.65098 1 1 0.65098 1 
1 0.65098 1 1 0.65098 1 
1 0.65098 1 1 0.65098 1 
1 0.65098 1 1 0.65098 1 
1 0.65098 1 1 0.65098 1 
1 0.65098 1 1 0.65098 1 
1 0.65098 1 1 0.65098 1 
1 0.65098 1 1 0.65098 1 
1 0.65098 1 1 0.65098 1 
1 0.65098 1 1 0.65098 1 
1 0.65098 1 1 0.65098 1 
1 0.65098 1 1 0.65098 1 
1 0.65098 1 1 0.65098 1 
1 0.65098 1 1 0.65098 1 
1 0.65098 1 1 0.65098 1 
1 0.65098 1 1 0.65098 1 
1 0.65098 1 1 0.65098 1 
1 0.65098 1 1 0.65098 1 
1 0.65098 1 1 0.65098 1 
1 0.65098 1 1 0.65098 1 
1 0.65098 1 1 0.65098 1 
1 0.65098 1 1 0.65098 1 
1 0.65098 1 1 0.65098 1 
1 0.65098 1 1 0.65098 1 
1 0.65098 1 1 0.65098 1 
1 0.65098 1 1 0.65098 1 
1 0.65098 1 1 0.65098 1 
1 0.65098 1 1 0.65098 1 
1 0.65098 1 1 0.65098 1 
1 0.65098 1 1 0.65098 1 
1 0.65098 1 1 0.65098 1 
1 0.65098 1 1 0.65098 1 
1 0.65098 1 1 0.65098 1 
1 0.65098 1 1 0.65098 1 
1 0.65098 1 1 0.65098 1 
1 0.65098 1 1 0.65098 1 
1 0.65098 1 1 0.65098 1 
1 0.65098 1 1 0.65098 1 
1 0.65098 1 1 0.65098 1 
1 0.65098 1 1 0.65098 1 
1 0.65098 1 1 0.65098 1 
1 0.65098 1 1 0.65098 1 
1 0.65098 1 1 0.65098 1 
1 0.65098 1 1 0.65098 1 
1 0.65098 1 1 0.65098 1 
1 0.65098 1 1 0.65098 1 
1 0.65098 1 1 0.65098 1 
1 0.65098 1 1 0.65098 1 
1 0.65098 1 1 0.65098 1 
1 0.65098 1 1 0.65098 1 
1 0.65098 1 1 0.65098 1 
1 0.65098 1 1 0.65098 1 
1 0.65098 1 1 0.65098 1 
1 0.65098 1 1 0.65098 1 
1 0.65098 1 1 0.65098 1 
1 0.65098 1 1 0.65098 1 
1 0.65098 1 1 0.65098 1 
1 0.65098 1 1 0.65098 1 
1 0.65098 1 1 0.65098 1 
1 0.65098 1 1 0.65098 1 
1 0.65098 1 1 0.65098 1 
1 0.65098 1 1 0.65098 1 
1 0.65098 1 1 0.65098 1 
1 0.65098 1 1 0.65098 1 
1 0.65098 1 1 0.65098 1 
1 0.65098 1 1 0.65098 1 
1 0.65098 1 1 0.65098 1 
1 0.65098 1 1 0.65098 1 
1 0.65098 1 1 0.65098 1 
1 0.65098 1 1 0.65098 1 
1 0.65098 1 1 0.65098 1 
1 0.65098 1 1 0.65098 1 
1 0.65098 1 1 0.65098 1 
1 0.65098 1 1 0.65098 1 
1 0.65098 1 1 0.65098 1 
1 0.65098 1 1 0.65098 1 
1 0.65098 1 1 0.65098 1 
1 0.65098 1 1 0.65098 1 
1 0.65098 1 1 0.65098 1 
1 0.65098 1 1 0.65098 1 
1 0.65098 1 1 0.65098 1 
1 0.65098 1 1 0.65098 1 
1 0.65098 1 1 0.65098 1 
1 0.65098 1 1 0.65098 1 
1 0.65098 1 1 0.65098 1 
1 0.65098 1 1 0.65098 1 
1 0.65098 1 1 0.65098 1 
1 0.65098 1 1 0.65098 1 
1 0.65098 1 1 0.65098 1 
1 0.65098 1 1 0.65098 1 
1 0.65098 1 1 0.65098 1 
1 0.65098 1 1 0.65098 1 
1 0.65098 1 1 0.65098 1 
1 0.65098 1 1 0.65098 1 
1 0.65098 1 1 0.65098 1 
1 0.65098 1 1 0.65098 1 
1 0.65098 1 1 0.65098 1 
1 0.65098 1 1 0.65098 1 
1 0.65098 1 1 0.65098 1 
1 0.65098 1 1 0.65098 1 
1 0.65098 1 1 0.65098 1 
1 0.65098 1 1 0.65098 1 
1 0.65098 1 1 0.65098 1 
1 0.65098 1 1 0.65098 1 
1 0.65098 1 1 0.65098 1 
1 0.65098 1 1 0.65098 1 
1 0.65098 1 1 0.65098 1 
1 0.65098 1 1 0.65098 1 
1 0.65098 1 1 0.65098 1 
1 0.65098 1 1 0.65098 1 
1 0.65098 1 1 0.65098 1 
1 0.65098 1 1 0.65098 1 
1 0.65098 1 1 0.65098 1 
1 0.65098 1 1 0.65098 1 
1 0.65098 1 1 0.65098 1 
1 0.65098 1 1 0.65098 1 
1 0.65098 1 1 0.65098 1 
1 0.65098 1 1 0.65098 1 
1 0.65098 1 1 0.65098 1 
1 0.65098 1 1 0.65098 1 
1 0.65098 1 1 0.65098 1 
1 0.65098 1 1 0.65098 1 
1 0.65098 1 1 0.65098 1 
1 0.65098 1 1 0.65098 1 
1 0.65098 1 1 0.65098 1 
1 0.65098 1 1 0.65098 1 
1 0.65098 1 1 0.65098 1 
1 0.65098 1 1 0.65098 1 
1 0.65098 1 1 0.65098 1 
1 0.65098 1 1 0.65098 1 
1 0.65098 1 1 0.65098 1 
1 0.65098 1 1 0.65098 1 
1 0.65098 1 1 0.65098 1 
1 0.65098 1 1 0.65098 1 
1 0.65098 1 1 0.65098 1 
1 0.65098 1 1 0.65098 1 
1 0.65098 1 1 0.65098 1 
1 0.65098 1 1 0.65098 1 
1 0.65098 1 1 0.65098 1 
1 0.65098 1 1 0.65098 1 
1 0.65098 1 1 0.65098 1 
1 0.65098 1 1 0.65098 1 
1 0.65098 1 1 0.65098 1 
1 0.65098 1 1 0.65098 1 
1 0.65098 1 1 0.65098 1 
1 0.65098 1 1 0.65098 1 
1 0.65098 1 1 0.65098 1 
1 0.65098 1 1 0.65098 1 
1 0.65098 1 1 0.65098 1 
1 0.65098 1 1 0.65098 1 
1 0.65098 1 1 0.65098 1 
1 0.65098 1 1 0.65098 1 
1 0.65098 1 1 0.65098 1 

NORMALS Normals float
-0.227375 -0.0402687 -0.972974 -0.371364 0.061184 -0.926469 -0.113199 -0.297559 -0.947969 
0.0430516 -0.242733 -0.969137 -0.059152 -0.0635989 -0.996221 0.207381 -0.0574584 -0.976571 
-0.165456 0.308591 -0.936694 0.078686 -0.438605 -0.895229 0.186468 -0.372904 -0.90894 
-0.137498 -0.395932 -0.907927 0.151552 -0.276131 -0.949096 0.315752 -0.0714926 -0.946145 
0.185052 0.0571151 -0.981068 -0.333124 0.4609 -0.822557 0.271839 0.297994 -0.915043 
-0.168033 0.600762 -0.781569 -0.608629 -0.00831169 -0.793412 -0.257171 -0.085438 -0.962582 
-0.216668 0.0857096 -0.972476 -0.540704 0.23655 -0.807269 0.419016 -0.0742716 -0.904936 
-0.448952 0.543938 -0.708924 -0.173018 0.671442 -0.720576 -0.372109 -0.549824 -0.747816 
-0.147256 -0.631083 -0.76161 0.222122 -0.47364 -0.852248 -0.394718 -0.366932 -0.842353 
-0.313571 -0.319181 -0.894313 0.369902 -0.297517 -0.880145 -0.660911 -0.0442576 -0.749159 
-0.616392 -0.11342 -0.779228 0.363776 -0.223114 -0.904371 0.43583 0.422221 -0.794847 
-0.40784 -0.76159 -0.503633 -0.564344 -0.813767 -0.138923 -0.351682 -0.934128 -0.0610262 
-0.233585 -0.894484 -0.38123 -0.071074 -0.860745 -0.50405 0.199314 -0.778459 -0.595211 
-0.603457 -0.452117 -0.656833 0.0392645 -0.702505 -0.710595 0.515152 -0.497409 -0.698 
0.0141758 -0.687481 -0.726064 0.00709425 -0.710452 -0.703709 -0.711261 -0.484903 -0.508898 
-0.823094 -0.121445 -0.554768 0.503818 -0.00924703 -0.863761 -0.782862 0.362639 -0.505588 
-0.652875 0.599099 -0.463502 -0.469914 0.746269 -0.471447 -0.354255 0.741646 -0.569618 
0.111992 0.780763 -0.614709 -0.0445941 -0.9857 0.162499 -0.252304 -0.958544 -0.132426 
-0.113071 -0.993579 -0.00407369 -0.00441904 -0.934277 -0.35652 0.136602 -0.973627 -0.18273 
0.293297 -0.928847 -0.226318 -0.686358 -0.72574 -0.0470597 -0.274991 -0.960982 0.0298882 
0.054065 -0.873509 -0.483796 0.0518236 -0.973344 -0.223417 -0.0407669 -0.959834 -0.277591 
0.526476 -0.84981 -0.0254015 -0.370167 -0.776878 0.509349 -0.811427 -0.583552 -0.0324567 
0.565863 -0.31639 -0.761378 -0.952987 0.0168553 -0.302544 0.579536 -0.285683 -0.763232 
-0.887508 0.300232 -0.349557 -0.866926 0.422144 -0.265016 -0.734685 0.570011 -0.367866 
0.382032 0.762135 -0.522687 -0.14624 0.84544 -0.513659 -0.0576674 -0.955115 0.290569 
0.0324774 -0.850397 0.525138 -0.163481 -0.756371 0.633385 0.157694 -0.545399 0.823209 
-0.0305721 -0.882207 0.469868 -0.0304229 -0.629022 0.776792 0.140194 -0.948897 0.282738 
0.405822 -0.907646 0.107177 0.365072 -0.844379 0.392105 -0.0223577 -0.423518 0.905612 
0.48052 -0.869807 0.111965 -0.0084533 -0.546208 0.837607 -0.0461344 -0.448471 0.892606 
0.61703 -0.665796 -0.419512 -0.518559 -0.505111 0.689898 -0.0865528 -0.416614 0.904954 
0.649438 -0.604408 -0.461434 -0.687386 -0.430397 0.585028 -0.964337 -0.164076 0.207683 
0.668987 -0.382893 -0.637063 -0.925265 0.280258 0.255616 0.610907 -0.086131 -0.787003 
-0.762073 0.641896 0.0849376 -0.812893 0.571724 0.11107 -0.809154 0.58738 0.0159556 
-0.605894 0.698986 -0.379884 -0.325077 0.817527 -0.475368 -0.504803 0.768528 -0.393114 
0.160969 -0.83586 0.524812 0.498954 -0.849922 -0.169343 0.375127 -0.824269 0.424099 
0.636067 -0.410846 -0.653165 0.665702 -0.689297 -0.285849 -0.781005 0.044914 0.622908 
-0.554778 -0.0870917 0.827428 0.636567 -0.269374 -0.722648 -0.733447 0.258964 0.628485 
0.665345 -0.0694454 -0.743299 0.805691 -0.364575 -0.466848 0.845859 -0.219144 -0.486311 
-0.814237 0.577326 0.0609328 -0.731976 0.525464 0.433704 -0.752536 0.57831 0.315035 
-0.748748 0.46781 0.469607 0.732068 0.204462 -0.649824 -0.725719 0.674122 -0.137445 
-0.22136 0.810477 -0.542334 0.524138 -0.834267 0.171106 0.192945 -0.656812 0.728952 
-0.318887 -0.276714 0.906499 0.399652 -0.813391 0.422698 0.508421 -0.861107 0.0017248 
0.779863 -0.621938 -0.0707581 -0.60929 0.414002 0.67629 -0.224581 0.030352 0.973983 
0.943272 -0.0154422 -0.331662 0.170517 -0.837181 -0.519665 -0.650108 0.393343 -0.650108 
0.465829 0.606501 -0.644329 0.650108 -0.393343 0.650108 -0.692642 0.483495 0.535238 
-0.170517 0.837181 0.519665 -0.285054 -0.235514 0.929127 0.912248 0.247275 -0.326586 
-0.757719 0.63086 0.166967 -0.330443 -0.240805 0.91259 0.656284 0.46507 -0.594139 
-0.854497 0.270983 0.443174 -0.689485 0.653701 -0.311905 0.0107566 -0.529497 0.848244 
0.358134 -0.580162 0.731541 0.147493 -0.833996 0.531692 0.406574 -0.874293 0.265158 
0.718933 -0.686151 0.111052 0.407961 -0.75328 0.515885 0.503534 -0.705235 0.499096 
0.872609 -0.484889 -0.0586208 0.953438 -0.227459 -0.198037 0.980305 -0.183336 0.0734125 
-0.465829 -0.606501 0.644329 0.968483 -0.0949885 0.230254 -0.707265 0.429911 0.561206 
0.977068 0.104549 -0.185492 0.971371 -0.0503989 0.232158 -0.441312 0.0724389 0.894425 
-0.333543 -0.00227076 0.942732 0.84899 0.381846 -0.365253 -0.40001 -0.133112 0.906793 
-0.664393 0.392168 0.636229 -0.542173 0.078547 0.836588 -0.833002 0.455694 0.31377 
-0.647673 0.014545 0.761779 -0.56069 -0.0677137 0.825252 0.567061 0.593437 -0.571205 
-0.689482 0.681194 -0.24615 -0.871389 0.461233 0.16717 -0.588184 0.761092 -0.273457 
0.17987 -0.692511 0.698624 0.049442 -0.661445 0.748362 0.724679 -0.602618 0.334202 
0.262271 -0.538603 0.8007 -0.0949713 -0.344965 0.933799 0.562703 -0.446115 0.69595 
0.843772 -0.32898 0.424054 0.94591 -0.127374 0.298381 0.992556 0.117437 -0.0322608 
0.935199 0.343479 -0.0861676 0.978014 0.194286 -0.0757712 0.65486 0.702511 -0.278634 
-0.897739 0.296468 0.325838 -0.828082 0.525138 -0.196241 -0.621266 -0.0985885 0.777373 
-0.800491 0.599041 -0.0191151 -0.737374 0.621919 0.263623 -0.807881 0.563384 0.172994 
-0.425223 0.839 -0.339505 -0.844374 0.518485 -0.134928 0.127832 0.849385 -0.512058 
-0.329386 0.751514 -0.571604 0.174395 -0.378017 0.909225 0.513995 -0.270874 0.813902 
0.162744 -0.316562 0.934507 0.474185 -0.362664 0.802261 0.660027 -0.274683 0.699223 
0.783902 -0.16655 0.598129 0.700974 -0.210323 0.681468 0.947525 0.209153 0.241767 
0.832605 0.533461 -0.148955 0.435365 0.870899 -0.228018 -0.756957 0.355792 0.548114 
0.465125 0.829111 -0.310217 -0.749273 0.319322 0.580192 -0.897223 -0.0166773 0.441262 
-0.529088 -0.270932 0.804153 -0.985089 -0.0287568 0.169628 -0.930402 0.20667 -0.302722 
-0.727287 -0.355511 0.587082 0.389646 0.90448 -0.173469 -0.604618 0.502553 -0.617963 
-0.327382 0.689069 -0.646533 0.000395266 0.867563 -0.497327 -0.0268894 0.893142 -0.448969 
0.115272 0.933385 -0.339859 0.0106588 0.980614 -0.195661 0.318868 -0.25636 0.912471 
0.833604 -0.187905 0.51942 0.575358 -0.105465 0.811074 0.799745 0.0860832 0.594136 
0.879485 0.0998153 0.465341 0.895056 0.276345 0.350011 0.905749 0.368159 0.209945 
-0.315797 -0.197375 0.928071 0.547717 0.836418 0.0202699 0.632975 0.769487 -0.0850461 
-0.459375 -0.270926 0.845916 -0.744837 0.146284 0.651014 -0.368862 -0.359104 0.857313 
0.445931 0.887926 -0.112842 -0.637909 0.764646 -0.0915835 -0.218196 0.907117 -0.359903 
-0.361535 0.847535 0.388558 0.30064 0.911552 -0.280515 0.0380133 0.997522 0.0591947 
0.0180076 0.86133 0.507727 0.0216679 0.807732 0.589151 0.5213 -0.0950502 0.848064 
0.117418 -0.153515 0.981145 0.290632 -0.167708 0.942023 0.709317 0.162281 0.685955 
0.213255 -0.0165798 0.976856 0.776391 0.422567 0.467604 -0.0727467 -0.142181 0.987164 
0.621201 0.738522 0.262098 0.700589 0.605894 0.376919 0.115338 0.073594 0.990596 
0.610951 0.766863 0.19662 0.466219 0.841228 0.273817 0.606662 0.779769 0.154668 
0.542235 0.745288 0.387978 -0.197182 -0.176664 0.964318 0.501837 0.774225 0.385662 
-0.51117 0.280066 0.812568 -0.251313 -0.217258 0.943208 -0.201829 -0.109683 0.97326 
0.416719 0.907967 0.0440683 0.595085 0.777695 0.202643 0.407153 0.85656 0.317066 
-0.158561 0.466499 0.870194 -0.24993 0.128698 0.959673 0.121389 0.932257 0.340824 
0.483094 0.109412 0.868706 0.269358 0.1943 0.943236 0.567755 0.34813 0.745962 
0.228463 0.0802085 0.970243 0.525977 0.558856 0.641114 0.548452 0.523233 0.652248 
0.311825 0.318036 0.895331 0.48143 0.500913 0.719244 0.225365 0.330494 0.916507 
0.458928 0.532924 0.710899 0.103676 0.202926 0.97369 -0.134221 0.305239 0.942769 
-0.081162 0.367396 0.926516 0.170517 -0.837181 -0.519665 -0.650108 0.393343 -0.650108 
0.465829 0.606501 -0.644329 0.650108 -0.393343 0.650108 0.198906 0.872771 0.445766 
-0.170517 0.837181 0.519665 0.257733 0.468378 0.845101 0.0617728 0.250901 0.96604 
0.377044 0.631041 0.677957 0.262316 0.557656 0.787534 -0.465829 -0.606501 0.644329 
0.199107 0.691518 -0.694377 0.345588 0.302116 -0.888423 -0.232874 0.144011 -0.961785 
0.596393 0.73776 -0.316268 0 -0.159641 -0.987175 0 -1 0 
-0.963361 -0.268207 4.13429e-08 0.057413 0.822788 -0.565441 0.963361 -0.268207 4.13429e-08 
0 0.5547 -0.83205 0.600995 0.377859 -0.704292 0.170536 0.0400118 -0.984539 
0.332757 0.160645 -0.929229 0.247645 0.0795277 -0.965581 0.575949 0.506373 -0.641771 
0.699841 0.688741 -0.189362 0.658885 0.42203 -0.622705 0.203494 0.224835 -0.952911 
0.0136218 0.0258023 -0.999574 0.4578 0.532338 -0.712064 -0.0599369 -0.0276923 -0.997818 
-0.060468 -0.0129916 -0.998085 0.283357 0.457878 -0.842649 0.564219 0.678122 -0.470965 
0.176651 0.134854 -0.974992 0.436178 0.786812 -0.436663 -0.181679 0.235587 -0.954721 
-0.221169 0.133613 -0.966039 -0.114109 0.576621 -0.809004 0.439725 0.765537 -0.469675 
0 -0.159641 0.987175 -0.0292751 0.764636 -0.643797 0.328978 0.931476 -0.155322 
0.60077 -0.104261 -0.792594 0.323257 -0.184456 -0.92816 -0.0555619 -0.21029 -0.976059 
0.266773 -0.0991864 -0.958642 0.689649 0.197683 -0.696639 0.783321 0.0983362 -0.61379 
0.403952 0.365534 -0.838575 0.824984 0.337007 -0.453682 0.0469435 -0.142132 -0.988734 
0.76287 0.598211 -0.245304 0.658928 0.701732 -0.2709 -0.21826 -0.118398 -0.968682 
0.60983 0.769096 -0.191306 0.47911 0.877578 -0.0176369 -0.412826 -0.224114 -0.882807 
-0.435243 -0.114243 -0.893035 -0.93063 0.0235954 -0.3652 -0.621907 0.600593 -0.502514 
-0.318483 -0.0135824 -0.947831 -0.664853 -0.297172 -0.685317 -0.121148 0.39454 -0.910858 
-0.144806 0.367589 -0.918645 0.21246 0.93931 -0.269366 -0.0644402 0.818808 -0.57044 
-0.0162061 0.904998 -0.425108 -0.081103 -0.328151 -0.941137 0.323452 -0.202364 -0.924353 
0.119759 -0.396854 -0.910035 0.546003 -0.189521 -0.816065 0.920801 -0.061499 -0.385155 
0.750669 -0.0528901 -0.658558 0.87655 0.233646 -0.420797 0.702002 0.709367 -0.063182 
-0.386921 -0.398692 -0.831467 0.622774 0.781114 0.0448705 0.521512 0.848105 0.0934999 
0.419961 0.896881 0.138698 -0.693356 0.00778479 -0.720553 -0.827513 0.508747 -0.237483 
-0.670529 0.183675 -0.718787 -0.595624 -0.201803 -0.777501 -0.458841 0.888505 -0.00485621 
-0.379314 0.883459 0.274993 -0.818154 0.547888 -0.174477 0.12217 0.980289 -0.155267 
0.18498 0.962567 0.198107 -0.0529241 0.981581 0.183567 0.556973 -0.323136 -0.765091 
0.959292 -0.137335 -0.246774 0.859224 -0.125841 -0.495881 0.332438 -0.350239 -0.875681 
0.75891 -0.210897 -0.616099 0.981322 0.186958 -0.0453138 -0.362524 -0.356391 -0.86114 
0.699057 0.713783 0.0428141 -0.547087 -0.126516 -0.82746 -0.891558 0.428491 -0.146696 
-0.745342 -0.133106 -0.65326 -0.607116 0.669284 0.428333 -0.724524 0.688763 0.0258855 
-0.914052 0.392069 -0.103874 -0.460209 0.834768 0.302276 -0.226163 0.943921 0.240548 
0.298173 -0.681477 -0.668343 0.555076 -0.586473 -0.589864 0.0488562 -0.483812 -0.873807 
0.716884 -0.424039 -0.553415 0.901841 -0.24506 -0.355848 0.999536 -0.0296095 0.0071505 
0.920916 0.307453 0.239553 0.879787 0.470688 -0.0665359 0.707672 0.619286 0.340125 
-0.777076 0.612086 -0.146641 0.51095 0.785562 0.34903 0.58358 0.736952 0.341081 
-0.784934 0.0547913 -0.617152 -0.790875 0.609325 0.0569141 0.079354 0.947882 0.30858 
0.613191 -0.780764 -0.120014 0.866187 -0.47936 -0.141187 0.771263 -0.633403 -0.0628783 
0.941803 -0.326153 0.0814375 0.981147 -0.0807179 0.175597 0.976681 0.165193 0.137134 
0 -0.159641 -0.987175 0 -1 0 -0.963361 -0.268207 4.13429e-08 
0.963361 -0.268207 4.13429e-08 0 0.5547 -0.83205 -0.678934 0.261196 -0.686167 
-0.851817 0.436055 -0.290281 -0.691633 0.571914 -0.441088 -0.498 0.380052 -0.779459 
-0.745724 0.360295 -0.560432 -0.55037 -0.0627281 -0.832561 0.788001 0.391381 0.475262 
-0.685854 0.463523 -0.561026 -0.511297 -0.0696001 -0.856581 -0.824095 0.51712 -0.231201 
-0.685089 0.266846 -0.677825 -0.815645 0.385411 -0.431488 -0.685583 0.680858 0.2577 
-0.392793 0.836167 0.382802 0.300578 -0.884584 -0.356602 0.486385 -0.856022 -0.175089 
-0.822576 -0.470299 -0.319668 0.772904 -0.391524 0.499327 -0.334026 -0.327016 -0.884018 