# vtk DataFile Version 4.2
vtk output
ASCII
DATASET POLYDATA
POINTS 3150 float
423 256.009 163.017 423 256.009 163.017 423 256.009 163.017 
423 256.009 163.017 423 256.009 163.017 423.88 254.379 165.784 
424.934 253.974 165.693 426.505 254.347 165.921 420 256.009 164.017 
420 256.009 164.017 420 256.009 164.017 420 256.009 164.017 
423 256.009 163.017 425.928 254.776 166.093 439.184 255.645 166.294 
420 256.009 164.017 493.151 269.816 165.69 492.985 269.766 165.758 
493.439 269.875 165.711 493.138 269.947 165.74 494.886 270.587 165.606 
496.967 272.773 165.799 496.969 272.934 165.867 497.595 273.404 165.972 
497.681 273.481 166.002 497.769 273.416 166.038 419.555 253.536 165.78 
418.771 253.439 165.859 418.099 253.99 166.077 419.639 254.113 165.915 
422.156 253.569 165.657 417.863 254.697 166.434 420.231 254.462 166.087 
431.521 254.639 166.51 435.222 254.721 166.395 438.238 255.128 166.29 
437.692 254.496 166.27 439.798 254.565 166.256 440.956 255.232 166.226 
418.056 254.954 166.471 418.868 255.021 166.564 420.955 254.849 166.412 
420 256.009 164.017 422.034 254.797 166.339 432.065 255.02 166.714 
434.831 255.083 166.593 441.277 255.586 166.299 418.196 254.925 166.346 
443.464 256.588 166.666 443.752 256.689 166.681 445.093 257.223 166.92 
445.008 257.396 167.05 445.196 257.379 166.948 445.325 257.356 166.95 
492.103 268.574 166.364 492.269 269.305 166.192 491.984 269.403 166.479 
492.748 269.453 165.932 492.875 269.936 165.911 496.45 272.222 165.798 
495.787 272.324 165.908 497.358 273.185 165.972 497.895 273.126 166.087 
498.261 273.669 166.347 497.659 273.735 166.337 499.529 274.466 166.733 
499.521 274.398 166.701 499.329 274.389 166.754 499.643 274.449 166.764 
499.615 274.567 166.896 417.715 251.545 166.373 416.103 253.663 167.052 
425.598 252.931 165.907 438.678 253.535 166.581 439.872 254.06 166.412 
416.26 254.364 167.135 443.055 255.403 166.692 417.915 255.27 167.037 
433.572 255.375 166.979 442.621 256.038 166.621 416.012 255.438 167.717 
415.644 255.666 168.135 441.656 256.24 166.746 442.423 256.697 167.105 
444.522 257.046 166.914 445.052 256.871 166.947 492.258 267.552 166.671 
491.667 269 166.772 494.674 268.949 166.009 495.82 272.812 166.173 
498.525 273.112 166.33 499.04 274 166.579 499.576 274.233 166.729 
499.965 274.513 166.976 499.282 274.703 167.172 501.383 275.483 167.734 
417.092 249.283 167.47 423.15 249.453 167.214 416.725 250.824 167.026 
436.137 252.935 166.847 431.084 253.281 166.643 441.951 253.902 166.959 
428.263 255.621 167.515 446.934 256.293 167.806 447.359 256.808 167.845 
446.527 257.65 167.592 449.477 259.696 168.455 450.908 260.487 168.558 
451.432 260.526 168.504 451.46 260.66 168.625 451.658 260.543 168.638 
451.726 260.698 168.818 491.707 266.763 167.291 491.353 266.181 167.749 
491.151 266.533 167.707 492.488 266.333 167.332 490.86 266.689 167.936 
490.868 267.261 167.872 491.264 267.791 167.324 491.259 269.464 167.686 
492.018 271.12 167.629 500.938 272.867 167.374 500.905 274.964 167.517 
500.826 275.519 168.099 503.376 275.3 167.953 503.007 276.32 168.625 
502.869 275.932 168.203 504.192 276.105 168.381 504.134 276.436 168.595 
418.946 247.107 168.166 415.847 248.289 168.763 414.339 252.053 168.859 
433.822 255.88 167.821 449.187 259.189 168.397 449.826 258.461 168.409 
447.385 258.957 168.709 448.907 259.677 168.941 450.111 259.916 168.537 
450.735 259.369 168.471 450.61 259.708 168.447 450.229 260.4 168.935 
451.521 260.397 168.522 451.407 260.135 168.531 451.978 260.805 169.228 
490.145 265.329 168.825 489.488 264.754 169.4 490.466 266.613 168.534 
491.313 269.862 167.961 494.635 274.083 168.174 501.955 273.509 167.641 
496.129 274.402 167.804 502.88 274.583 167.795 498.387 275.288 168.58 
503.68 275.352 168.031 503.179 276.619 169.199 504.649 277.041 169.222 
506.318 277.037 169.104 506.8 277.046 169.216 420.712 245.145 169.364 
417.075 246.182 169.199 418.326 246.357 168.714 414.929 249.057 169.381 
432.158 251.41 168.001 446.227 253.953 168.675 413.962 254.845 169.718 
434.487 256.37 169.168 414.149 255.471 169.909 416.668 256.717 169.288 
415.449 256.6 169.51 415.56 256.848 169.924 453.176 258.418 169.567 
454.043 259.058 169.947 453.146 259.463 169.485 452.283 260.145 169.047 
453.82 260.061 170.084 454.183 259.742 170.182 486.537 262.432 170.412 
485.955 262.632 170.632 487.467 263.76 170.464 487.906 264.114 170.404 
489.462 263.941 169.457 494.64 264.009 169.293 489.08 265.055 170.07 
490.149 266.439 169.241 490.48 267.211 169.062 492.199 273.07 169.612 
504.897 274.192 168.758 506.945 276.664 169.206 507.366 276.107 169.399 
508.317 276.903 169.696 504.518 277.11 169.575 507.281 277.585 169.687 
508.167 277.536 169.813 507.726 277.791 169.954 508.65 277.695 170.117 
413.436 252.632 170.399 414.373 256.436 170.616 414.788 256.745 170.624 
452.601 256.989 169.707 454.588 258.025 170.275 445.734 258.905 169.933 
454.356 260.027 170.477 477.893 260.712 171.317 479.348 260.836 171.132 
453.704 260.687 170.481 479.736 261.125 171.203 483.088 261.829 171.035 
485.446 261.647 170.683 484.102 262.588 171.162 487.646 262.146 170.277 
490.716 262.308 170.02 486.722 263.755 171.013 503.844 271.549 169.385 
491.831 273.234 171.054 492.3 273.925 170.537 493.316 274.676 170.243 
494.056 274.947 169.987 492.869 274.646 170.73 500.718 276.213 170.555 
510.068 277.53 170.971 508.106 277.899 170.266 419.563 242.341 171.29 
420.079 242.312 171.266 420.711 242.347 171.225 417.335 243.183 171.509 
417.811 244.126 170.451 433.42 248.829 170.289 413.219 251.596 171.443 
452.276 255.057 170.398 451.7 254.293 170.609 453.625 256.508 170.218 
467.139 257.947 171.957 467.633 257.445 171.924 468.372 257.516 171.913 
455.549 259.432 171.103 458.025 258.002 171.595 469.084 258.229 171.973 
454.592 260.408 171.012 476.775 259.001 171.431 478.934 259.935 171.219 
479.48 259.423 171.342 480.538 259.557 171.327 454.226 260.802 171.113 
481.858 260.801 171.069 486.436 260.957 170.829 487.475 260.996 170.789 
451.603 261.505 171.754 479.76 261.936 171.663 484.766 263.385 171.773 
486.679 264.037 171.544 487.246 264.388 171.877 489.917 266.044 170.606 
490.312 266.29 170.91 492.734 267.976 171.68 491.771 268.829 170.627 
492.376 269.387 171.132 493.827 268.97 171.952 494.913 268.91 172.395 
491.934 270.547 170.833 492.891 269.807 171.56 494.258 269.435 172.144 
491.825 271.388 170.901 493.405 270.161 171.988 491.794 273.404 171.708 
491.877 273.89 172.11 492.161 274.444 172.265 508.482 277.938 170.7 
509.108 277.881 170.805 509.534 277.758 170.808 510.564 277.673 171.513 
510.899 277.591 171.541 511.129 277.526 171.665 418.618 242.016 171.839 
451.129 253.6 170.815 459.11 254.901 171.68 413.563 256.413 172.475 
413.88 256.823 172.441 462.94 257.88 172.163 466.441 257.801 172.087 
469.931 258.014 171.925 470.469 258.845 172.005 484.582 259.054 171.726 
450.222 261.255 172.395 453.22 261.563 172.122 490.98 266.567 171.418 
492.106 266.389 172.68 494.977 267.561 173.045 495.129 268.404 172.625 
495.694 269.094 172.697 498.254 269.181 173.553 492.608 271.082 171.992 
495.597 270.228 172.895 493.762 270.949 172.793 497.605 270.317 173.521 
493.125 275.293 172.545 512.499 276.603 172.429 509.713 277.895 171.96 
510.736 277.763 172.184 511.613 277.451 172.286 419.489 240.072 173.128 
417.312 241.435 173.254 415.418 243.816 173.58 431.889 245.727 172.43 
444.913 249.022 171.727 459.109 252.735 172.414 468.768 255.604 172.244 
413.134 256.016 173.902 414.975 258.077 173.642 443.944 258.872 173.067 
469.9 259.299 172.242 454.014 261.409 172.15 454.756 261.244 172.387 
476.525 262.853 173.472 480.154 262.958 172.745 488.368 264.891 173.303 
492.489 266.142 173.384 503.098 266.726 171.726 498.73 269.959 173.7 
500.291 269.96 174.153 499.33 270.374 174 492.13 272.256 172.771 
499.551 270.695 174.264 500.578 270.481 174.4 491.868 272.873 172.895 
513.551 274.388 173.102 492.033 274.719 174.135 492.44 275.06 173.736 
514.398 275.97 173.693 513.546 276.814 173.443 416.465 241.858 173.927 
413.968 257.574 174.166 414.374 258.025 174.225 414.631 258.438 174.935 
459.731 260.283 173.512 470.18 260.499 172.868 470.549 261.938 174.064 
478.31 263.491 174.201 490.988 265.506 174.016 492.716 265.935 174.098 
496.884 267.197 174.531 499.699 268.346 174.746 500.286 268.784 174.667 
502.305 270.122 175.035 492.694 271.981 173.6 495.885 271.111 174.051 
500.023 270.815 174.528 502.17 270.769 175.18 503.029 270.629 175.474 
492.136 272.547 174.761 491.836 273.062 174.092 494.674 271.473 174.596 
500.285 271.016 174.992 491.643 273.762 174.681 491.79 274.374 174.585 
515.881 275.232 174.488 492.874 275.374 174.255 514.987 276.221 174.225 
514.345 277.22 174.722 474.538 251.33 174.771 412.82 254.96 175.071 
467.115 260.681 173.715 459.826 261.961 175.786 453.698 262.713 175.871 
469.442 262.68 175.767 472.895 263.02 174.951 497.162 266.923 175.387 
502.967 269.111 176.082 503.873 269.582 176.293 503.966 270.064 176.063 
503.793 270.303 175.885 502.512 270.859 175.423 492.591 272.113 175.448 
501.894 271.082 175.723 502.682 270.977 175.794 503.383 270.868 175.983 
491.485 273.493 175.435 491.453 273.225 175.791 491.418 273.494 176.027 
516.645 272.966 175.077 492.029 274.757 175.683 516.606 275.562 174.963 
517.939 275.866 175.78 515.957 276.805 175.335 516.865 276.49 175.63 
515.913 277.191 175.831 414.799 244.305 175.774 497.973 257.725 175.246 
415.131 259.064 175.956 472.263 263.403 176.198 490.77 265.377 175.603 
497.73 266.984 176.243 500.999 268.176 176.089 502.817 268.944 176.286 
504.769 270.301 176.602 504.751 270.45 176.561 503.804 270.743 176.075 
498.906 271.314 176.071 500.798 271.24 176.147 519.377 274.105 176.266 
491.549 273.881 176.239 492.32 275.033 175.816 492.557 275.089 176.173 
518.267 276.016 176.088 516.971 276.922 176.16 422.285 234.041 177.081 
425.461 234.6 176.699 419.47 235.213 177.659 423.2 235.148 176.251 
418.233 236.556 177.931 414.305 246.066 176.925 470.908 246.633 177.222 
415.431 259.532 177.471 497.731 266.983 176.866 502.058 268.513 176.81 
[...]
POINT_DATA 3150
COLOR_SCALARS scalars 3
1 0.701961 0.85098 1 0.701961 0.85098 1 0.701961 0.85098 
1 0.701961 0.85098 1 0.701961 0.85098 
1 0.701961 0.85098 1 0.701961 0.85098 
1 0.701961 0.85098 1 0.701961 0.85098 
1 0.701961 0.85098 1 0.701961 0.85098 
1 0.701961 0.85098 1 0.701961 0.85098 
1 0.701961 0.85098 1 0.701961 0.85098 
1 0.701961 0.85098 1 0.701961 0.85098 
1 0.701961 0.85098 1 0.701961 0.85098 
1 0.701961 0.85098 1 0.701961 0.85098 
1 0.701961 0.85098 1 0.701961 0.85098 
1 0.701961 0.85098 1 0.701961 0.85098 
1 0.701961 0.85098 1 0.701961 0.85098 
1 0.701961 0.85098 1 0.701961 0.85098 
1 0.701961 0.85098 1 0.701961 0.85098 
1 0.701961 0.85098 1 0.701961 0.85098 
1 0.701961 0.85098 1 0.701961 0.85098 
1 0.701961 0.85098 1 0.701961 0.85098 
1 0.701961 0.85098 1 0.701961 0.85098 
1 0.701961 0.85098 1 0.701961 0.85098 
1 0.701961 0.85098 1 0.701961 0.85098 
1 0.701961 0.85098 1 0.701961 0.85098 
1 0.701961 0.85098 1 0.701961 0.85098 
1 0.701961 0.85098 1 0.701961 0.85098 
1 0.701961 0.85098 1 0.701961 0.85098 
1 0.701961 0.85098 1 0.701961 0.85098 
1 0.701961 0.85098 1 0.701961 0.85098 
1 0.701961 0.85098 1 0.701961 0.85098 
1 0.701961 0.85098 1 0.701961 0.85098 
1 0.701961 0.85098 1 0.701961 0.85098 
1 0.701961 0.85098 1 0.701961 0.85098 
1 0.701961 0.85098 1 0.701961 0.85098 
1 0.701961 0.85098 1 0.701961 0.85098 
1 0.701961 0.85098 1 0.701961 0.85098 
1 0.701961 0.85098 1 0.701961 0.85098 
1 0.701961 0.85098 1 0.701961 0.85098 
1 0.701961 0.85098 1 0.701961 0.85098 
1 0.701961 0.85098 1 0.701961 0.85098 
1 0.701961 0.85098 1 0.701961 0.85098 
1 0.701961 0.85098 1 0.701961 0.85098 
1 0.701961 0.85098 1 0.701961 0.85098 
1 0.701961 0.85098 1 0.701961 0.85098 
1 0.701961 0.85098 1 0.701961 0.85098 
1 0.701961 0.85098 1 0.701961 0.85098 
1 0.701961 0.85098 1 0.701961 0.85098 
1 0.701961 0.85098 1 0.701961 0.85098 
1 0.701961 0.85098 1 0.701961 0.85098 
1 0.701961 0.85098 1 0.701961 0.85098 
1 0.701961 0.85098 1 0.701961 0.85098 
1 0.701961 0.85098 1 0.701961 0.85098 
1 0.701961 0.85098 1 0.701961 0.85098 
1 0.701961 0.85098 1 0.701961 0.85098 
1 0.701961 0.85098 1 0.701961 0.85098 
1 0.701961 0.85098 1 0.701961 0.85098 
1 0.701961 0.85098 1 0.701961 0.85098 
1 0.701961 0.85098 1 0.701961 0.85098 
1 0.701961 0.85098 1 0.701961 0.85098 
1 0.701961 0.85098 1 0.701961 0.85098 
1 0.701961 0.85098 1 0.701961 0.85098 
1 0.701961 0.85098 1 0.701961 0.85098 
1 0.701961 0.85098 1 0.701961 0.85098 
1 0.701961 0.85098 1 0.701961 0.85098 
1 0.701961 0.85098 1 0.701961 0.85098 
1 0.701961 0.85098 1 0.701961 0.85098 
1 0.701961 0.85098 1 0.701961 0.85098 
1 0.701961 0.85098 1 0.701961 0.85098 
1 0.701961 0.85098 1 0.701961 0.85098 
1 0.701961 0.85098 1 0.701961 0.85098 
1 0.701961 0.85098 1 0.701961 0.85098 
1 0.701961 0.85098 1 0.701961 0.85098 
1 0.701961 0.85098 1 0.701961 0.85098 
1 0.701961 0.85098 1 0.701961 0.85098 
1 0.701961 0.85098 1 0.701961 0.85098 
1 0.701961 0.85098 1 0.701961 0.85098 
1 0.701961 0.85098 1 0.701961 0.85098 
1 0.701961 0.85098 1 0.701961 0.85098 
1 0.701961 0.85098 1 0.701961 0.85098 
1 0.701961 0.85098 1 0.701961 0.85098 
1 0.701961 0.85098 1 0.701961 0.85098 
1 0.701961 0.85098 1 0.701961 0.85098 
1 0.701961 0.85098 1 0.701961 0.85098 
1 0.701961 0.85098 1 0.701961 0.85098 
1 0.701961 0.85098 1 0.701961 0.85098 
1 0.701961 0.85098 1 0.701961 0.85098 
1 0.701961 0.85098 1 0.701961 0.85098 
1 0.701961 0.85098 1 0.701961 0.85098 
1 0.701961 0.85098 1 0.701961 0.85098 
1 0.701961 0.85098 1 0.701961 0.85098 
1 0.701961 0.85098 1 0.701961 0.85098 
1 0.701961 0.85098 1 0.701961 0.85098 
1 0.701961 0.85098 1 0.701961 0.85098 
1 0.701961 0.85098 1 0.701961 0.85098 
1 0.701961 0.85098 1 0.701961 0.85098 
1 0.701961 0.85098 1 0.701961 0.85098 
1 0.701961 0.85098 1 0.701961 0.85098 
1 0.701961 0.85098 1 0.701961 0.85098 
1 0.701961 0.85098 1 0.701961 0.85098 
1 0.701961 0.85098 1 0.701961 0.85098 
1 0.701961 0.85098 1 0.701961 0.85098 
1 0.701961 0.85098 1 0.701961 0.85098 
1 0.701961 0.85098 1 0.701961 0.85098 
1 0.701961 0.85098 1 0.701961 0.85098 
1 0.701961 0.85098 1 0.701961 0.85098 
1 0.701961 0.85098 1 0.701961 0.85098 
1 0.701961 0.85098 1 0.701961 0.85098 
1 0.701961 0.85098 1 0.701961 0.85098 
1 0.701961 0.85098 1 0.701961 0.85098 
1 0.701961 0.85098 1 0.701961 0.85098 
1 0.701961 0.85098 1 0.701961 0.85098 
1 0.701961 0.85098 1 0.701961 0.85098 
1 0.701961 0.85098 1 0.701961 0.85098 
1 0.701961 0.85098 1 0.701961 0.85098 
1 0.701961 0.85098 1 0.701961 0.85098 
1 0.701961 0.85098 1 0.701961 0.85098 
1 0.701961 0.85098 1 0.701961 0.85098 
1 0.701961 0.85098 1 0.701961 0.85098 
1 0.701961 0.85098 1 0.701961 0.85098 
1 0.701961 0.85098 1 0.701961 0.85098 
1 0.701961 0.85098 1 0.701961 0.85098 
1 0.701961 0.85098 1 0.701961 0.85098 
1 0.701961 0.85098 1 0.701961 0.85098 
1 0.701961 0.85098 1 0.701961 0.85098 
1 0.701961 0.85098 1 0.701961 0.85098 
1 0.701961 0.85098 1 0.701961 0.85098 
1 0.701961 0.85098 1 0.701961 0.85098 
1 0.701961 0.85098 1 0.701961 0.85098 
1 0.701961 0.85098 1 0.701961 0.85098 
1 0.701961 0.85098 1 0.701961 0.85098 
1 0.701961 0.85098 1 0.701961 0.85098 
1 0.701961 0.85098 1 0.701961 0.85098 
1 0.701961 0.85098 1 0.701961 0.85098 
1 0.701961 0.85098 1 0.701961 0.85098 
1 0.701961 0.85098 1 0.701961 0.85098 
1 0.701961 0.85098 1 0.701961 0.85098 
1 0.701961 0.85098 1 0.701961 0.85098 
1 0.701961 0.85098 1 0.701961 0.85098 
1 0.701961 0.85098 1 0.701961 0.85098 
1 0.701961 0.85098 1 0.701961 0.85098 
1 0.701961 0.85098 1 0.701961 0.85098 
1 0.701961 0.85098 1 0.701961 0.85098 
1 0.701961 0.85098 1 0.701961 0.85098 
1 0.701961 0.85098 1 0.701961 0.85098 
1 0.701961 0.85098 1 0.701961 0.85098 
1 0.701961 0.85098 1 0.701961 0.85098 
1 0.701961 0.85098 1 0.701961 0.85098 
1 0.701961 0.85098 1 0.701961 0.85098 
1 0.701961 0.85098 1 0.701961 0.85098 
1 0.701961 0.85098 1 0.701961 0.85098 
1 0.701961 0.85098 1 0.701961 0.85098 
1 0.701961 0.85098 1 0.701961 0.85098 
1 0.701961 0.85098 1 0.701961 0.85098 
1 0.701961 0.85098 1 0.701961 0.85098 
1 0.701961 0.85098 1 0.701961 0.85098 
1 0.701961 0.85098 1 0.701961 0.85098 
1 0.701961 0.85098 1 0.701961 0.85098 
1 0.701961 0.85098 1 0.701961 0.85098 
1 0.701961 0.85098 1 0.701961 0.85098 
1 0.701961 0.85098 1 0.701961 0.85098 
1 0.701961 0.85098 1 0.701961 0.85098 
1 0.701961 0.85098 1 0.701961 0.85098 
1 0.701961 0.85098 1 0.701961 0.85098 
1 0.701961 0.85098 1 0.701961 0.85098 
1 0.701961 0.85098 1 0.701961 0.85098 
1 0.701961 0.85098 1 0.701961 0.85098 
1 0.701961 0.85098 1 0.701961 0.85098 
1 0.701961 0.85098 1 0.701961 0.85098 
1 0.701961 0.85098 1 0.701961 0.85098 
1 0.701961 0.85098 1 0.701961 0.85098 
1 0.701961 0.85098 1 0.701961 0.85098 
1 0.701961 0.85098 1 0.701961 0.85098 
1 0.701961 0.85098 1 0.701961 0.85098 
1 0.701961 0.85098 1 0.701961 0.85098 
1 0.701961 0.85098 1 0.701961 0.85098 
1 0.701961 0.85098 1 0.701961 0.85098 
1 0.701961 0.85098 1 0.701961 0.85098 
1 0.701961 0.85098 1 0.701961 0.85098 
1 0.701961 0.85098 1 0.701961 0.85098 
1 0.701961 0.85098 1 0.701961 0.85098 
1 0.701961 0.85098 1 0.701961 0.85098 
1 0.701961 0.85098 1 0.701961 0.85098 
1 0.701961 0.85098 1 0.701961 0.85098 
1 0.701961 0.85098 1 0.701961 0.85098 
1 0.701961 0.85098 1 0.701961 0.85098 
1 0.701961 0.85098 1 0.701961 0.85098 
1 0.701961 0.85098 1 0.701961 0.85098 
1 0.701961 0.85098 1 0.701961 0.85098 
1 0.701961 0.85098 1 0.701961 0.85098 
1 0.701961 0.85098 1 0.701961 0.85098 
1 0.701961 0.85098 1 0.701961 0.85098 
1 0.701961 0.85098 1 0.701961 0.85098 
1 0.701961 0.85098 1 0.701961 0.85098 
1 0.701961 0.85098 1 0.701961 0.85098 
1 0.701961 0.85098 1 0.701961 0.85098 
1 0.701961 0.85098 1 0.701961 0.85098 
1 0.701961 0.85098 1 0.701961 0.85098 
1 0.701961 0.85098 1 0.701961 0.85098 
1 0.701961 0.85098 1 0.701961 0.85098 
1 0.701961 0.85098 1 0.701961 0.85098 
1 0.701961 0.85098 1 0.701961 0.85098 
1 0.701961 0.85098 1 0.701961 0.85098 
1 0.701961 0.85098 1 0.701961 0.85098 
1 0.701961 0.85098 1 0.701961 0.85098 
1 0.701961 0.85098 1 0.701961 0.85098 
1 0.701961 0.85098 1 0.701961 0.85098 
1 0.701961 0.85098 1 0.701961 0.85098 
1 0.701961 0.85098 1 0.701961 0.85098 
1 0.701961 0.85098 1 0.701961 0.85098 
1 0.701961 0.85098 1 0.701961 0.85098 
1 0.701961 0.85098 1 0.701961 0.85098 
1 0.701961 0.85098 1 0.701961 0.85098 
1 0.701961 0.85098 1 0.701961 0.85098 
1 0.701961 0.85098 1 0.701961 0.85098 
1 0.701961 0.85098 1 0.701961 0.85098 
1 0.701961 0.85098 1 0.701961 0.85098 
1 0.701961 0.85098 1 0.701961 0.85098 
1 0.701961 0.85098 1 0.701961 0.85098 
1 0.701961 0.85098 1 0.701961 0.85098 
1 0.701961 0.85098 1 0.701961 0.85098 
1 0.701961 0.85098 1 0.701961 0.85098 
1 0.701961 0.85098 1 0.701961 0.85098 
1 0.701961 0.85098 1 0.701961 0.85098 
1 0.701961 0.85098 1 0.701961 0.85098 
1 0.701961 0.85098 1 0.701961 0.85098 
1 0.701961 0.85098 1 0.701961 0.85098 
1 0.701961 0.85098 1 0.701961 0.85098 
1 0.701961 0.85098 1 0.701961 0.85098 
1 0.701961 0.85098 1 0.701961 0.85098 
1 0.701961 0.85098 1 0.701961 0.85098 
1 0.701961 0.85098 1 0.701961 0.85098 
1 0.701961 0.85098 1 0.701961 0.85098 
1 0.701961 0.85098 1 0.701961 0.85098 
1 0.701961 0.85098 1 0.701961 0.85098 
1 0.701961 0.85098 1 0.701961 0.85098 
1 0.701961 0.85098 1 0.701961 0.85098 
1 0.701961 0.85098 1 0.701961 0.85098 
1 0.701961 0.85098 1 0.701961 0.85098 
1 0.701961 0.85098 1 0.701961 0.85098 
1 0.701961 0.85098 1 0.701961 0.85098 
1 0.701961 0.85098 1 0.701961 0.85098 
1 0.701961 0.85098 1 0.701961 0.85098 
1 0.701961 0.85098 1 0.701961 0.85098 
1 0.701961 0.85098 1 0.701961 0.85098 
1 0.701961 0.85098 1 0.701961 0.85098 
1 0.701961 0.85098 1 0.701961 0.85098 
1 0.701961 0.85098 1 0.701961 0.85098 
1 0.701961 0.85098 1 0.701961 0.85098 
1 0.701961 0.85098 1 0.701961 0.85098 
1 0.701961 0.85098 1 0.701961 0.85098 
1 0.701961 0.85098 1 0.701961 0.85098 
1 0.701961 0.85098 1 0.701961 0.85098 
1 0.701961 0.85098 1 0.701961 0.85098 
1 0.701961 0.85098 1 0.701961 0.85098 
1 0.701961 0.85098 1 0.701961 0.85098 
1 0.701961 0.85098 1 0.701961 0.85098 
1 0.701961 0.85098 1 0.701961 0.85098 
1 0.701961 0.85098 1 0.701961 0.85098 
1 0.701961 0.85098 1 0.701961 0.85098 
1 0.701961 0.85098 1 0.701961 0.85098 
1 0.701961 0.85098 1 0.701961 0.85098 
1 0.701961 0.85098 1 0.701961 0.85098 
1 0.701961 0.85098 1 0.701961 0.85098 
1 0.701961 0.85098 1 0.701961 0.85098 
1 0.701961 0.85098 1 0.701961 0.85098 
1 0.701961 0.85098 1 0.701961 0.85098 
1 0.701961 0.85098 1 0.701961 0.85098 
1 0.701961 0.85098 1 0.701961 0.85098 
1 0.701961 0.85098 1 0.701961 0.85098 
1 0.701961 0.85098 1 0.701961 0.85098 
1 0.701961 0.85098 1 0.701961 0.85098 
1 0.701961 0.85098 1 0.701961 0.85098 
1 0.701961 0.85098 1 0.701961 0.85098 
1 0.701961 0.85098 1 0.701961 0.85098 
1 0.701961 0.85098 1 0.701961 0.85098 
1 0.701961 0.85098 1 0.701961 0.85098 
1 0.701961 0.85098 1 0.701961 0.85098 
1 0.701961 0.85098 1 0.701961 0.85098 
1 0.701961 0.85098 1 0.701961 0.85098 
1 0.701961 0.85098 1 0.701961 0.85098 
1 0.701961 0.85098 1 0.701961 0.85098 
1 0.701961 0.85098 1 0.701961 0.85098 
1 0.701961 0.85098 1 0.701961 0.85098 
1 0.701961 0.85098 1 0.701961 0.85098 
1 0.701961 0.85098 1 0.701961 0.85098 
1 0.701961 0.85098 1 0.701961 0.85098 
1 0.701961 0.85098 1 0.701961 0.85098 
1 0.701961 0.85098 1 0.701961 0.85098 
1 0.701961 0.85098 1 0.701961 0.85098 
1 0.701961 0.85098 1 0.701961 0.85098 
1 0.701961 0.85098 1 0.701961 0.85098 
1 0.701961 0.85098 1 0.701961 0.85098 
1 0.701961 0.85098 1 0.701961 0.85098 
1 0.701961 0.85098 1 0.701961 0.85098 
1 0.701961 0.85098 1 0.701961 0.85098 
1 0.701961 0.85098 1 0.701961 0.85098 
1 0.701961 0.85098 1 0.701961 0.85098 
1 0.701961 0.85098 1 0.701961 0.85098 
1 0.701961 0.85098 1 0.701961 0.85098 
1 0.701961 0.85098 1 0.701961 0.85098 
1 0.701961 0.85098 1 0.701961 0.85098 
1 0.701961 0.85098 1 0.701961 0.85098 
1 0.701961 0.85098 1 0.701961 0.85098 
1 0.701961 0.85098 1 0.701961 0.85098 
1 0.701961 0.85098 1 0.701961 0.85098 
1 0.701961 0.85098 1 0.701961 0.85098 
1 0.701961 0.85098 1 0.701961 0.85098 
1 0.701961 0.85098 1 0.701961 0.85098 
1 0.701961 0.85098 1 0.701961 0.85098 
1 0.701961 0.85098 1 0.701961 0.85098 
1 0.701961 0.85098 1 0.701961 0.85098 
1 0.701961 0.85098 1 0.701961 0.85098 
1 0.701961 0.85098 1 0.701961 0.85098 
1 0.701961 0.85098 1 0.701961 0.85098 
1 0.701961 0.85098 1 0.701961 0.85098 
1 0.701961 0.85098 1 0.701961 0.85098 
1 0.701961 0.85098 1 0.701961 0.85098 
1 0.701961 0.85098 1 0.701961 0.85098 
1 0.701961 0.85098 1 0.701961 0.85098 
1 0.701961 0.85098 1 0.701961 0.85098 
1 0.701961 0.85098 1 0.701961 0.85098 
1 0.701961 0.85098 1 0.701961 0.85098 
1 0.701961 0.85098 1 0.701961 0.85098 
1 0.701961 0.85098 1 0.701961 0.85098 
1 0.701961 0.85098 1 0.701961 0.85098 
1 0.701961 0.85098 1 0.701961 0.85098 
1 0.701961 0.85098 1 0.701961 0.85098 
1 0.701961 0.85098 1 0.701961 0.85098 
1 0.701961 0.85098 1 0.701961 0.85098 
1 0.701961 0.85098 1 0.701961 0.85098 
1 0.701961 0.85098 1 0.701961 0.85098 
1 0.701961 0.85098 1 0.701961 0.85098 
1 0.701961 0.85098 1 0.701961 0.85098 
1 0.701961 0.85098 1 0.701961 0.85098 
1 0.701961 0.85098 1 0.701961 0.85098 
1 0.701961 0.85098 1 0.701961 0.85098 
1 0.701961 0.85098 1 0.701961 0.85098 
1 0.701961 0.85098 1 0.701961 0.85098 
1 0.701961 0.85098 1 0.701961 0.85098 
1 0.701961 0.85098 1 0.701961 0.85098 
1 0.701961 0.85098 1 0.701961 0.85098 
1 0.701961 0.85098 1 0.701961 0.85098 
1 0.701961 0.85098 1 0.701961 0.85098 
1 0.701961 0.85098 1 0.701961 0.85098 
1 0.701961 0.85098 1 0.701961 0.85098 
1 0.701961 0.85098 1 0.701961 0.85098 
1 0.701961 0.85098 1 0.701961 0.85098 
1 0.701961 0.85098 1 0.701961 0.85098 
1 0.701961 0.85098 1 0.701961 0.85098 
1 0.701961 0.85098 1 0.701961 0.85098 
1 0.701961 0.85098 1 0.701961 0.85098 
1 0.701961 0.85098 1 0.701961 0.85098 
1 0.701961 0.85098 1 0.701961 0.85098 
1 0.701961 0.85098 1 0.701961 0.85098 
1 0.701961 0.85098 1 0.701961 0.85098 
1 0.701961 0.85098 1 0.701961 0.85098 
1 0.701961 0.85098 1 0.701961 0.85098 
1 0.701961 0.85098 1 0.701961 0.85098 
1 0.701961 0.85098 1 0.701961 0.85098 
1 0.701961 0.85098 1 0.701961 0.85098 
1 0.701961 0.85098 1 0.701961 0.85098 
1 0.701961 0.85098 1 0.701961 0.85098 
1 0.701961 0.85098 1 0.701961 0.85098 
1 0.701961 0.85098 1 0.701961 0.85098 
1 0.701961 0.85098 1 0.701961 0.85098 
1 0.701961 0.85098 1 0.701961 0.85098 
1 0.701961 0.85098 1 0.701961 0.85098 
1 0.701961 0.85098 1 0.701961 0.85098 
1 0.701961 0.85098 1 0.701961 0.85098 
1 0.701961 0.85098 1 0.701961 0.85098 
1 0.701961 0.85098 1 0.701961 0.85098 
1 0.701961 0.85098 1 0.701961 0.85098 
1 0.701961 0.85098 1 0.701961 0.85098 
1 0.701961 0.85098 1 0.701961 0.85098 
1 0.701961 0.85098 1 0.701961 0.85098 
1 0.701961 0.85098 1 0.701961 0.85098 
1 0.701961 0.85098 1 0.701961 0.85098 
1 0.701961 0.85098 1 0.701961 0.85098 
1 0.701961 0.85098 1 0.701961 0.85098 
1 0.701961 0.85098 1 0.701961 0.85098 
1 0.701961 0.85098 1 0.701961 0.85098 
1 0.701961 0.85098 1 0.701961 0.85098 
1 0.701961 0.85098 1 0.701961 0.85098 
1 0.701961 0.85098 1 0.701961 0.85098 
1 0.701961 0.85098 1 0.701961 0.85098 
1 0.701961 0.85098 1 0.701961 0.85098 
1 0.701961 0.85098 1 0.701961 0.85098 
1 0.701961 0.85098 1 0.701961 0.85098 
1 0.701961 0.85098 1 0.701961 0.85098 
1 0.701961 0.85098 1 0.701961 0.85098 
1 0.701961 0.85098 1 0.701961 0.85098 
1 0.701961 0.85098 1 0.701961 0.85098 
1 0.701961 0.85098 1 0.701961 0.85098 
1 0.701961 0.85098 1 0.701961 0.85098 
1 0.701961 0.85098 1 0.701961 0.85098 
1 0.701961 0.85098 1 0.701961 0.85098 
1 0.701961 0.85098 1 0.701961 0.85098 
1 0.701961 0.85098 1 0.701961 0.85098 
1 0.701961 0.85098 1 0.701961 0.85098 
1 0.701961 0.85098 1 0.701961 0.85098 
1 0.701961 0.85098 1 0.701961 0.85098 
1 0.701961 0.85098 1 0.701961 0.85098 
1 0.701961 0.85098 1 0.701961 0.85098 
1 0.701961 0.85098 1 0.701961 0.85098 
1 0.701961 0.85098 1 0.701961 0.85098 
1 0.701961 0.85098 1 0.701961 0.85098 
1 0.701961 0.85098 1 0.701961 0.85098 
1 0.701961 0.85098 1 0.701961 0.85098 
1 0.701961 0.85098 1 0.701961 0.85098 
1 0.701961 0.85098 1 0.701961 0.85098 
1 0.701961 0.85098 1 0.701961 0.85098 
1 0.701961 0.85098 1 0.701961 0.85098 
1 0.701961 0.85098 1 0.701961 0.85098 
1 0.701961 0.85098 1 0.701961 0.85098 
1 0.701961 0.85098 1 0.701961 0.85098 
1 0.701961 0.85098 1 0.701961 0.85098 
1 0.701961 0.85098 1 0.701961 0.85098 
1 0.701961 0.85098 1 0.701961 0.85098 
1 0.701961 0.85098 1 0.701961 0.85098 
1 0.701961 0.85098 1 0.701961 0.85098 
1 0.701961 0.85098 1 0.701961 0.85098 
1 0.701961 0.85098 1 0.701961 0.85098 
1 0.701961 0.85098 1 0.701961 0.85098 
1 0.701961 0.85098 1 0.701961 0.85098 
1 0.701961 0.85098 1 0.701961 0.85098 
1 0.701961 0.85098 1 0.701961 0.85098 
1 0.701961 0.85098 1 0.701961 0.85098 
1 0.701961 0.85098 1 0.701961 0.85098 
1 0.701961 0.85098 1 0.701961 0.85098 
1 0.701961 0.85098 1 0.701961 0.85098 
1 0.701961 0.85098 1 0.701961 0.85098 
1 0.701961 0.85098 1 0.701961 0.85098 
1 0.701961 0.85098 1 0.701961 0.85098 
1 0.701961 0.85098 1 0.701961 0.85098 
1 0.701961 0.85098 1 0.701961 0.85098 
1 0.701961 0.85098 1 0.701961 0.85098 
1 0.701961 0.85098 1 0.701961 0.85098 
1 0.701961 0.85098 1 0.701961 0.85098 
1 0.701961 0.85098 1 0.701961 0.85098 
1 0.701961 0.85098 1 0.701961 0.85098 
1 0.701961 0.85098 1 0.701961 0.85098 
1 0.701961 0.85098 1 0.701961 0.85098 
1 0.701961 0.85098 1 0.701961 0.85098 
1 0.701961 0.85098 1 0.701961 0.85098 
1 0.701961 0.85098 1 0.701961 0.85098 
1 0.701961 0.85098 1 0.701961 0.85098 
1 0.701961 0.85098 1 0.701961 0.85098 
1 0.701961 0.85098 1 0.701961 0.85098 
1 0.701961 0.85098 1 0.701961 0.85098 
1 0.701961 0.85098 1 0.701961 0.85098 
1 0.701961 0.85098 1 0.701961 0.85098 
1 0.701961 0.85098 1 0.701961 0.85098 
1 0.701961 0.85098 1 0.701961 0.85098 
1 0.701961 0.85098 1 0.701961 0.85098 
1 0.701961 0.85098 1 0.701961 0.85098 
1 0.701961 0.85098 1 0.701961 0.85098 
1 0.701961 0.85098 1 0.701961 0.85098 
1 0.701961 0.85098 1 0.701961 0.85098 
1 0.701961 0.85098 1 0.701961 0.85098 
1 0.701961 0.85098 1 0.701961 0.85098 
1 0.701961 0.85098 1 0.701961 0.85098 
1 0.701961 0.85098 1 0.701961 0.85098 
1 0.701961 0.85098 1 0.701961 0.85098 
1 0.701961 0.85098 1 0.701961 0.85098 
1 0.701961 0.85098 1 0.701961 0.85098 
1 0.701961 0.85098 1 0.701961 0.85098 
1 0.701961 0.85098 1 0.701961 0.85098 
1 0.701961 0.85098 1 0.701961 0.85098 
1 0.701961 0.85098 1 0.701961 0.85098 
1 0.701961 0.85098 1 0.701961 0.85098 
1 0.701961 0.85098 1 0.701961 0.85098 
1 0.701961 0.85098 1 0.701961 0.85098 
1 0.701961 0.85098 1 0.701961 0.85098 
1 0.701961 0.85098 1 0.701961 0.85098 
1 0.701961 0.85098 1 0.701961 0.85098 
1 0.701961 0.85098 1 0.701961 0.85098 
1 0.701961 0.85098 1 0.701961 0.85098 
1 0.701961 0.85098 1 0.701961 0.85098 
1 0.701961 0.85098 1 0.701961 0.85098 
1 0.701961 0.85098 1 0.701961 0.85098 
1 0.701961 0.85098 1 0.701961 0.85098 
1 0.701961 0.85098 1 0.701961 0.85098 
1 0.701961 0.85098 1 0.701961 0.85098 
1 0.701961 0.85098 1 0.701961 0.85098 
1 0.701961 0.85098 1 0.701961 0.85098 
1 0.701961 0.85098 1 0.701961 0.85098 
1 0.701961 0.85098 1 0.701961 0.85098 
1 0.701961 0.85098 1 0.701961 0.85098 
1 0.701961 0.85098 1 0.701961 0.85098 
1 0.701961 0.85098 1 0.701961 0.85098 
1 0.701961 0.85098 1 0.701961 0.85098 
1 0.701961 0.85098 1 0.701961 0.85098 
1 0.701961 0.85098 1 0.701961 0.85098 
1 0.701961 0.85098 1 0.701961 0.85098 
1 0.701961 0.85098 1 0.701961 0.85098 
1 0.701961 0.85098 1 0.701961 0.85098 
1 0.701961 0.85098 1 0.701961 0.85098 
1 0.701961 0.85098 1 0.701961 0.85098 
1 0.701961 0.85098 1 0.701961 0.85098 
1 0.701961 0.85098 1 0.701961 0.85098 
1 0.701961 0.85098 1 0.701961 0.85098 
1 0.701961 0.85098 1 0.701961 0.85098 
1 0.701961 0.85098 1 0.701961 0.85098 
1 0.701961 0.85098 1 0.701961 0.85098 
1 0.701961 0.85098 1 0.701961 0.85098 
1 0.701961 0.85098 1 0.701961 0.85098 
1 0.701961 0.85098 1 0.701961 0.85098 
1 0.701961 0.85098 1 0.701961 0.85098 
1 0.701961 0.85098 1 0.701961 0.85098 
1 0.701961 0.85098 1 0.701961 0.85098 
1 0.701961 0.85098 1 0.701961 0.85098 
1 0.701961 0.85098 1 0.701961 0.85098 
1 0.701961 0.85098 1 0.701961 0.85098 