# vtk DataFile Version 4.2
vtk output
ASCII
DATASET POLYDATA
POINTS 35777 float
309.63 138.946 20.6811 318.623 138.511 20.6256 319.219 140.229 20.4544 
320.128 141.162 20.4092 308.631 143.512 20.3634 314.183 143.174 20.1582 
303.878 146.595 20.6427 320.781 146.833 20.1977 323.535 147.643 20.4148 
306.368 149.257 20.3496 309.099 150.08 20.1742 317.641 151.69 20.2391 
311.668 155.625 20.4364 308.444 132.208 21.5769 315.252 133.213 21.2408 
321.193 134.136 21.2216 326.248 134.2 21.4171 322.141 135.086 21.1507 
301.668 135.748 21.6565 329.056 137.088 21.2994 299.596 138.251 21.6198 
333.788 141.882 21.4015 327.073 145.227 20.7871 295.646 148.621 21.3941 
334.562 148.691 21.3947 295.376 150.4 21.368 326.115 150.724 20.7441 
295.345 153.27 21.3271 303.004 154.965 20.8934 296.154 156.116 21.3008 
326.778 157.804 21.1762 307.862 161.916 21.1639 308.866 161.917 21.1417 
309.801 162.856 21.2181 310.8 162.854 21.204 300.777 163.525 21.603 
315.524 164.524 21.4198 324.261 164.117 21.7055 324.348 125.461 22.6369 
306.874 125.834 22.7524 328.308 127.145 22.5379 332.272 128.351 22.6034 
302.621 129.688 22.3923 315.75 129.663 21.7594 339.051 134.096 22.3907 
295.548 136.496 22.3308 340.943 137.97 22.2466 341.884 141.906 22.184 
287.677 148.578 22.3844 342.688 147.728 22.2841 287.238 155.182 22.2968 
337.817 156.887 22.153 341.586 156.561 22.6548 331.928 163.021 22.158 
333.634 162.728 22.3085 290.935 163.913 22.4253 328.661 165.714 22.3189 
320.046 167.162 22.0322 327.548 166.696 22.4427 293.347 167.44 22.7037 
314.96 168.053 22.0417 324.566 167.715 22.4477 331.863 166.806 23.0221 
304.706 168.863 22.2995 296.248 169.303 22.8194 310.532 169.667 22.3707 
317.274 169.442 22.4791 301.397 171.03 22.9539 323.048 170.036 23.1048 
303.087 171.233 22.9644 308.348 171.955 23.0716 313.244 122.18 23.2414 
298.688 125.595 23.6618 342.402 127.73 23.6731 296.811 129.861 23.0999 
343.069 134.943 22.7452 352.358 140.504 23.678 283.263 146.989 23.1911 
350.733 148.676 23.579 344.17 154.338 22.8608 283.01 156.926 22.9616 
348.034 156.183 23.7805 340.806 162.069 23.336 285.96 162.973 22.9171 
336.999 164.17 23.126 339.5 163.815 23.5014 333.717 166.96 23.4101 
328.819 168.86 23.311 330.088 170.136 24.1431 296.448 171.697 23.452 
315.786 171.918 23.3302 317.609 172.466 23.7297 319.185 172.637 23.9611 
314.244 173.46 23.995 322.79 116.435 24.7352 304.593 118.354 24.7229 
308.56 118.444 24.3637 316.185 118.052 24.1784 329.46 118.317 24.5969 
298.91 120.755 24.7804 343.234 124.136 24.479 292.844 124.792 24.8304 
349.662 126.565 24.8484 352.989 133.985 24.1928 358.213 138.473 24.8678 
283.653 139.49 23.9816 357.321 142.531 24.6265 276.002 145.809 24.7995 
355.418 150.576 24.7537 275.311 154.231 24.3442 353.642 153.571 24.7028 
352.2 156.523 24.8449 346.242 160.225 24.1529 350.661 158.91 25.0064 
347.322 162.045 25.0476 278.994 163.98 23.8739 342.735 164.946 24.7907 
337.861 167.965 24.8857 274.303 169.302 24.315 334.024 169.01 24.4362 
325.517 172.034 24.427 271.629 173.37 24.6143 277.02 173.043 24.1462 
278.92 173.954 24.1279 283.707 174.8 24.2045 294.396 174.629 24.3877 
273.143 176.004 24.5588 288.292 175.521 24.4309 292.952 176.333 24.8507 
277.635 177.682 24.4653 284.124 178.298 24.7333 274.298 179.2 24.8528 
281.155 179.184 24.7766 277.084 180.149 24.9452 338.111 183.171 26.1211 
338.082 182.753 26.1049 339.008 183.001 26.2379 339.463 182.447 26.2624 
341.109 182.261 26.6003 333.235 184.397 25.8194 336.093 183.799 26.0037 
337.171 183.588 26.0838 339.547 183.29 26.489 340.908 183.008 26.8792 
341.474 182.683 26.9132 331.217 184.988 25.7412 334.053 184.946 25.9488 
335.617 184.336 26.0135 336.463 184.316 26.1613 337.558 184.063 26.3006 
338.232 184.095 26.5366 339.815 183.557 26.7898 328.494 186.249 25.6794 
331.214 186.01 25.8107 332.725 185.522 25.8987 333.549 185.528 26.0873 
336.26 184.822 26.3601 327.234 187.154 25.6765 326.459 187.064 25.6478 
329.169 186.955 25.8491 330.767 186.406 25.8775 333.387 186.052 26.3719 
334.246 185.817 26.5418 335.858 185.14 26.4796 324.939 187.559 25.676 
326.371 187.703 25.6962 328.571 187.583 26.0296 332.159 186.716 26.51 
323.856 188.803 25.9375 325.366 188.58 25.8574 326.705 188.151 25.8505 
327.484 188.184 26.0665 328.338 188.192 26.3775 329.277 187.921 26.5474 
330.933 187.244 26.4782 324.377 189.067 26.0508 325.744 188.859 26.0564 
327.114 188.741 26.3296 325.432 189.322 26.4146 326.638 189.059 26.4676 
337.111 119.052 25.0697 355.092 130.938 25.0015 359.606 133.33 25.7012 
280.254 136.077 25.2372 360.773 138.312 25.553 360.715 143.834 25.56 
358.722 149.819 25.5879 355.881 156.389 26.0755 354.409 157.783 25.978 
350.274 162.084 26.1797 311.125 176.867 25.6923 268.097 177.996 25.3463 
344.845 179.66 27.1418 345.671 179.8 27.303 346.991 179.557 27.6887 
342.104 181.097 26.7513 341.369 180.893 26.699 344 180.461 27.0511 
345.504 180.291 27.4242 346.762 179.945 27.8447 347.288 179.591 27.8862 
339.494 181.429 26.4763 342.703 181.367 26.9293 344.289 181.139 27.4134 
345.053 180.884 27.647 345.748 180.535 27.709 334.31 182.939 26.1566 
336.06 182.66 26.1707 342.745 181.949 27.2531 341.963 182.502 27.1171 
343.755 181.511 27.4449 332.811 184.151 25.8543 340.392 183.44 27.0239 
327.948 185.187 25.8823 337.984 184.616 27.0228 339.345 184.124 27.324 
325.648 185.281 26.0479 324.179 186.876 25.7749 326.079 186.503 25.7191 
335.819 185.444 26.8569 331.517 187.199 26.7377 332.912 186.727 26.949 
305.078 189.74 26.0878 315.74 188.426 26.0045 317.511 189.381 25.9228 
322.162 188.621 25.9441 312.882 190.194 26.011 328.12 188.854 27.1036 
315.051 190.946 26.0399 317.736 190.636 26.0936 318.597 190.523 26.1462 
320.431 190.274 26.3258 323.499 189.909 26.6046 305.096 191.386 26.0571 
319.076 191.009 26.4 321.19 190.76 26.7481 322.046 190.798 27.0033 
323.76 190.34 27.1176 314.806 192.435 26.41 315.07 192.82 26.6324 
316.364 192.109 26.4544 317.075 191.888 26.4466 318.996 191.68 26.7721 
315.871 193.226 27.1198 317.076 192.497 26.8174 317.808 192.54 27.0423 
321.793 109.675 26.8498 317.277 111.075 26.2849 327.717 110.693 26.853 
309.128 112.045 26.2421 298.485 114.451 26.7142 304.806 113.716 26.0866 
337.441 113.736 26.8082 293.41 117.511 26.7306 343.693 116.521 26.7741 
352.645 121.568 26.7902 356.625 124.578 26.7906 283.409 126.25 26.65 
359.72 127.366 26.8141 362.608 131.275 26.7929 363.751 136.864 26.4913 
363.693 140.878 26.3577 362.489 146.706 26.3548 362.48 149.714 26.8714 
361.311 151.728 26.8814 358.645 153.856 26.3684 359.194 155.118 26.9924 
354.926 159.855 27.1555 258.797 171.526 26.7139 315.188 176.472 25.7711 
317.077 176.374 25.9293 324.131 175.514 26.3534 352.955 175.56 28.7409 
352.896 175.457 28.7081 352.687 175.616 28.7099 353.131 175.54 28.8344 
353.422 175.348 28.9908 258.644 177.536 26.7224 349.627 177.299 28.1013 
350.366 177.005 28.2749 350.211 176.572 28.2334 350.784 177.047 28.4575 
350.957 176.567 28.4085 351.324 176.684 28.6106 353.222 175.601 28.9844 
296.952 178.347 25.776 302.025 178.203 25.9633 305.874 178.252 26.0836 
348.667 177.532 27.8675 350.661 177.376 28.581 343.987 179.081 27.2423 
346.762 178.701 27.5338 347.837 178.497 27.791 348.694 178.31 28.0387 
350.351 177.687 28.6437 259.606 180.168 26.695 292.252 180.53 26.0917 
348.325 178.89 28.2036 347.708 179.398 28.0803 346.265 180.402 27.9656 
290.823 181.856 26.2956 345.067 181.224 28.1654 263.011 183.881 26.5897 
341.702 183.055 27.7502 281.6 184.631 26.2853 336.511 185.357 27.2456 
335.071 186.131 27.6577 328.727 188.75 27.4613 330.125 188.243 27.7112 
284.565 190.307 26.7291 309.091 190.105 26.1634 326.73 189.511 27.3559 
292.093 191.083 26.4843 325.16 190.252 27.8743 289.782 192.808 26.6914 
292.703 192.771 26.5993 298.847 192.893 26.4571 306.442 193.247 26.2681 
308.84 192.989 26.3466 313.708 192.751 26.5012 320.003 192.068 27.489 
321.638 191.555 27.7294 311.432 193.448 26.6764 313.297 193.32 26.7772 
314.972 193.39 27.0714 307.617 194.65 26.6455 312.911 193.875 27.0481 
316.835 193.559 27.9109 299.306 195.383 26.8704 300.966 195.604 26.8616 
309.05 195.181 27.0393 310.688 195.136 27.4234 313.57 194.651 27.844 
304.703 196.355 27.0651 305.113 196.728 27.2558 306.104 196.193 27.1092 
312.39 195.131 27.9351 307.16 196.88 27.6687 303.128 110.973 27.1979 
334.022 111.835 27.0689 347.921 116.238 27.6124 287.983 120.081 27.2113 
366.308 132.554 27.7273 366.731 140.888 27.3949 365.792 145.041 27.3382 
366.201 147.619 28.0089 365.517 148.84 27.9823 361.387 155.026 28.0736 
359.389 156.322 27.5875 358.105 157.661 27.5615 338.632 171.234 27.122 
335.281 172.133 26.6578 331.74 173.582 26.5974 333.642 173.316 26.8609 
356.041 173.54 29.8963 356.007 173.423 29.86 326.058 175.308 26.4997 
329.395 175.288 26.9716 352.726 175.253 28.7503 352.02 175.348 28.6435 
353.502 174.949 29.0074 320.336 176.705 26.4597 351.935 175.988 28.6772 
351.422 175.575 28.5354 353.486 175.49 29.1921 322.151 177.076 26.8139 
323.902 177.135 26.9921 352.48 176.239 29.2222 314.462 178.688 26.4639 
346.907 177.579 27.7715 304.756 179.912 26.5033 310.445 179.574 26.5206 
313.39 179.548 26.589 349.702 178.409 29.089 300.496 180.658 26.5292 
318.173 180.052 26.8918 295.582 181.728 26.5381 322.895 180.741 27.3759 
347.461 179.924 28.7263 310.026 182.044 26.7584 298.118 183.13 26.7175 
302.988 183.022 26.7357 325.311 182.253 27.1285 328.035 182.012 27.0219 
286.504 184.598 26.5052 295.133 184.106 26.7048 323.543 182.689 27.0346 
307.702 184.662 26.6682 312.603 184.477 26.6347 339.246 184.538 28.5851 
333.642 186.891 28.1172 282.941 187.96 26.7045 273.302 189.266 26.8429 
261.61 189.992 27.8533 269.939 190.079 27.1499 263.327 190.36 27.764 
265.281 190.583 27.6339 280.081 190.989 27.0193 277.947 191.979 27.2324 
287.158 194.265 27.0912 295.066 195.283 26.9971 315.217 194.366 28.3496 
316.046 194.221 28.7247 283.354 195.485 27.6779 285.12 195.759 27.6239 
290.828 195.928 27.3295 313.354 195.264 28.5673 298.693 197.049 27.4011 
310.919 196.24 28.5673 303.473 197.523 27.6431 306.039 197.251 27.7277 
306.782 197.386 28.0427 309.497 196.816 28.3754 309.23 197.095 28.6294 
[...]
POINT_DATA 35777
COLOR_SCALARS scalars 3
0.439216 1 0.443137 0.439216 1 0.443137 0.439216 1 0.443137 
0.439216 1 0.443137 0.439216 1 0.443137 
0.439216 1 0.443137 0.439216 1 0.443137 
0.439216 1 0.443137 0.439216 1 0.443137 
0.439216 1 0.443137 0.439216 1 0.443137 
0.439216 1 0.443137 0.439216 1 0.443137 
0.439216 1 0.443137 0.439216 1 0.443137 
0.439216 1 0.443137 0.439216 1 0.443137 
0.439216 1 0.443137 0.439216 1 0.443137 
0.439216 1 0.443137 0.439216 1 0.443137 
0.439216 1 0.443137 0.439216 1 0.443137 
0.439216 1 0.443137 0.439216 1 0.443137 
0.439216 1 0.443137 0.439216 1 0.443137 
0.439216 1 0.443137 0.439216 1 0.443137 
0.439216 1 0.443137 0.439216 1 0.443137 
0.439216 1 0.443137 0.439216 1 0.443137 
0.439216 1 0.443137 0.439216 1 0.443137 
0.439216 1 0.443137 0.439216 1 0.443137 
0.439216 1 0.443137 0.439216 1 0.443137 
0.439216 1 0.443137 0.439216 1 0.443137 
0.439216 1 0.443137 0.439216 1 0.443137 
0.439216 1 0.443137 0.439216 1 0.443137 
0.439216 1 0.443137 0.439216 1 0.443137 
0.439216 1 0.443137 0.439216 1 0.443137 
0.439216 1 0.443137 0.439216 1 0.443137 
0.439216 1 0.443137 0.439216 1 0.443137 
0.439216 1 0.443137 0.439216 1 0.443137 
0.439216 1 0.443137 0.439216 1 0.443137 
0.439216 1 0.443137 0.439216 1 0.443137 
0.439216 1 0.443137 0.439216 1 0.443137 
0.439216 1 0.443137 0.439216 1 0.443137 
0.439216 1 0.443137 0.439216 1 0.443137 
0.439216 1 0.443137 0.439216 1 0.443137 
0.439216 1 0.443137 0.439216 1 0.443137 
0.439216 1 0.443137 0.439216 1 0.443137 
0.439216 1 0.443137 0.439216 1 0.443137 
0.439216 1 0.443137 0.439216 1 0.443137 
0.439216 1 0.443137 0.439216 1 0.443137 
0.439216 1 0.443137 0.439216 1 0.443137 
0.439216 1 0.443137 0.439216 1 0.443137 
0.439216 1 0.443137 0.439216 1 0.443137 
0.439216 1 0.443137 0.439216 1 0.443137 
0.439216 1 0.443137 0.439216 1 0.443137 
0.439216 1 0.443137 0.439216 1 0.443137 
0.439216 1 0.443137 0.439216 1 0.443137 
0.439216 1 0.443137 0.439216 1 0.443137 
0.439216 1 0.443137 0.439216 1 0.443137 
0.439216 1 0.443137 0.439216 1 0.443137 
0.439216 1 0.443137 0.439216 1 0.443137 
0.439216 1 0.443137 0.439216 1 0.443137 
0.439216 1 0.443137 0.439216 1 0.443137 
0.439216 1 0.443137 0.439216 1 0.443137 
0.439216 1 0.443137 0.439216 1 0.443137 
0.439216 1 0.443137 0.439216 1 0.443137 
0.439216 1 0.443137 0.439216 1 0.443137 
0.439216 1 0.443137 0.439216 1 0.443137 
0.439216 1 0.443137 0.439216 1 0.443137 
0.439216 1 0.443137 0.439216 1 0.443137 
0.439216 1 0.443137 0.439216 1 0.443137 
0.439216 1 0.443137 0.439216 1 0.443137 
0.439216 1 0.443137 0.439216 1 0.443137 
0.439216 1 0.443137 0.439216 1 0.443137 
0.439216 1 0.443137 0.439216 1 0.443137 
0.439216 1 0.443137 0.439216 1 0.443137 
0.439216 1 0.443137 0.439216 1 0.443137 
0.439216 1 0.443137 0.439216 1 0.443137 
0.439216 1 0.443137 0.439216 1 0.443137 
0.439216 1 0.443137 0.439216 1 0.443137 
0.439216 1 0.443137 0.439216 1 0.443137 
0.439216 1 0.443137 0.439216 1 0.443137 
0.439216 1 0.443137 0.439216 1 0.443137 
0.439216 1 0.443137 0.439216 1 0.443137 
0.439216 1 0.443137 0.439216 1 0.443137 
0.439216 1 0.443137 0.439216 1 0.443137 
0.439216 1 0.443137 0.439216 1 0.443137 
0.439216 1 0.443137 0.439216 1 0.443137 
0.439216 1 0.443137 0.439216 1 0.443137 
0.439216 1 0.443137 0.439216 1 0.443137 
0.439216 1 0.443137 0.439216 1 0.443137 
0.439216 1 0.443137 0.439216 1 0.443137 
0.439216 1 0.443137 0.439216 1 0.443137 
0.439216 1 0.443137 0.439216 1 0.443137 
0.439216 1 0.443137 0.439216 1 0.443137 
0.439216 1 0.443137 0.439216 1 0.443137 
0.439216 1 0.443137 0.439216 1 0.443137 
0.439216 1 0.443137 0.439216 1 0.443137 
0.439216 1 0.443137 0.439216 1 0.443137 
0.439216 1 0.443137 0.439216 1 0.443137 
0.439216 1 0.443137 0.439216 1 0.443137 
0.439216 1 0.443137 0.439216 1 0.443137 
0.439216 1 0.443137 0.439216 1 0.443137 
0.439216 1 0.443137 0.439216 1 0.443137 
0.439216 1 0.443137 0.439216 1 0.443137 
0.439216 1 0.443137 0.439216 1 0.443137 
0.439216 1 0.443137 0.439216 1 0.443137 
0.439216 1 0.443137 0.439216 1 0.443137 
0.439216 1 0.443137 0.439216 1 0.443137 
0.439216 1 0.443137 0.439216 1 0.443137 
0.439216 1 0.443137 0.439216 1 0.443137 
0.439216 1 0.443137 0.439216 1 0.443137 
0.439216 1 0.443137 0.439216 1 0.443137 
0.439216 1 0.443137 0.439216 1 0.443137 
0.439216 1 0.443137 0.439216 1 0.443137 
0.439216 1 0.443137 0.439216 1 0.443137 
0.439216 1 0.443137 0.439216 1 0.443137 
0.439216 1 0.443137 0.439216 1 0.443137 
0.439216 1 0.443137 0.439216 1 0.443137 
0.439216 1 0.443137 0.439216 1 0.443137 
0.439216 1 0.443137 0.439216 1 0.443137 
0.439216 1 0.443137 0.439216 1 0.443137 
0.439216 1 0.443137 0.439216 1 0.443137 
0.439216 1 0.443137 0.439216 1 0.443137 
0.439216 1 0.443137 0.439216 1 0.443137 
0.439216 1 0.443137 0.439216 1 0.443137 
0.439216 1 0.443137 0.439216 1 0.443137 
0.439216 1 0.443137 0.439216 1 0.443137 
0.439216 1 0.443137 0.439216 1 0.443137 
0.439216 1 0.443137 0.439216 1 0.443137 
0.439216 1 0.443137 0.439216 1 0.443137 
0.439216 1 0.443137 0.439216 1 0.443137 
0.439216 1 0.443137 0.439216 1 0.443137 
0.439216 1 0.443137 0.439216 1 0.443137 
0.439216 1 0.443137 0.439216 1 0.443137 
0.439216 1 0.443137 0.439216 1 0.443137 
0.439216 1 0.443137 0.439216 1 0.443137 
0.439216 1 0.443137 0.439216 1 0.443137 
0.439216 1 0.443137 0.439216 1 0.443137 
0.439216 1 0.443137 0.439216 1 0.443137 
0.439216 1 0.443137 0.439216 1 0.443137 
0.439216 1 0.443137 0.439216 1 0.443137 
0.439216 1 0.443137 0.439216 1 0.443137 
0.439216 1 0.443137 0.439216 1 0.443137 
0.439216 1 0.443137 0.439216 1 0.443137 
0.439216 1 0.443137 0.439216 1 0.443137 
0.439216 1 0.443137 0.439216 1 0.443137 
0.439216 1 0.443137 0.439216 1 0.443137 
0.439216 1 0.443137 0.439216 1 0.443137 
0.439216 1 0.443137 0.439216 1 0.443137 
0.439216 1 0.443137 0.439216 1 0.443137 
0.439216 1 0.443137 0.439216 1 0.443137 
0.439216 1 0.443137 0.439216 1 0.443137 
0.439216 1 0.443137 0.439216 1 0.443137 
0.439216 1 0.443137 0.439216 1 0.443137 
0.439216 1 0.443137 0.439216 1 0.443137 
0.439216 1 0.443137 0.439216 1 0.443137 
0.439216 1 0.443137 0.439216 1 0.443137 
0.439216 1 0.443137 0.439216 1 0.443137 
0.439216 1 0.443137 0.439216 1 0.443137 
0.439216 1 0.443137 0.439216 1 0.443137 
0.439216 1 0.443137 0.439216 1 0.443137 
0.439216 1 0.443137 0.439216 1 0.443137 
0.439216 1 0.443137 0.439216 1 0.443137 
0.439216 1 0.443137 0.439216 1 0.443137 
0.439216 1 0.443137 0.439216 1 0.443137 
0.439216 1 0.443137 0.439216 1 0.443137 
0.439216 1 0.443137 0.439216 1 0.443137 
0.439216 1 0.443137 0.439216 1 0.443137 
0.439216 1 0.443137 0.439216 1 0.443137 
0.439216 1 0.443137 0.439216 1 0.443137 
0.439216 1 0.443137 0.439216 1 0.443137 
0.439216 1 0.443137 0.439216 1 0.443137 
0.439216 1 0.443137 0.439216 1 0.443137 
0.439216 1 0.443137 0.439216 1 0.443137 
0.439216 1 0.443137 0.439216 1 0.443137 
0.439216 1 0.443137 0.439216 1 0.443137 
0.439216 1 0.443137 0.439216 1 0.443137 
0.439216 1 0.443137 0.439216 1 0.443137 
0.439216 1 0.443137 0.439216 1 0.443137 
0.439216 1 0.443137 0.439216 1 0.443137 
0.439216 1 0.443137 0.439216 1 0.443137 
0.439216 1 0.443137 0.439216 1 0.443137 
0.439216 1 0.443137 0.439216 1 0.443137 
0.439216 1 0.443137 0.439216 1 0.443137 
0.439216 1 0.443137 0.439216 1 0.443137 
0.439216 1 0.443137 0.439216 1 0.443137 
0.439216 1 0.443137 0.439216 1 0.443137 
0.439216 1 0.443137 0.439216 1 0.443137 
0.439216 1 0.443137 0.439216 1 0.443137 
0.439216 1 0.443137 0.439216 1 0.443137 
0.439216 1 0.443137 0.439216 1 0.443137 
0.439216 1 0.443137 0.439216 1 0.443137 
0.439216 1 0.443137 0.439216 1 0.443137 
0.439216 1 0.443137 0.439216 1 0.443137 
0.439216 1 0.443137 0.439216 1 0.443137 
0.439216 1 0.443137 0.439216 1 0.443137 
0.439216 1 0.443137 0.439216 1 0.443137 
0.439216 1 0.443137 0.439216 1 0.443137 
0.439216 1 0.443137 0.439216 1 0.443137 
0.439216 1 0.443137 0.439216 1 0.443137 
0.439216 1 0.443137 0.439216 1 0.443137 
0.439216 1 0.443137 0.439216 1 0.443137 
0.439216 1 0.443137 0.439216 1 0.443137 
0.439216 1 0.443137 0.439216 1 0.443137 
0.439216 1 0.443137 0.439216 1 0.443137 
0.439216 1 0.443137 0.439216 1 0.443137 
0.439216 1 0.443137 0.439216 1 0.443137 
0.439216 1 0.443137 0.439216 1 0.443137 
0.439216 1 0.443137 0.439216 1 0.443137 
0.439216 1 0.443137 0.439216 1 0.443137 
0.439216 1 0.443137 0.439216 1 0.443137 
0.439216 1 0.443137 0.439216 1 0.443137 
0.439216 1 0.443137 0.439216 1 0.443137 
0.439216 1 0.443137 0.439216 1 0.443137 
0.439216 1 0.443137 0.439216 1 0.443137 
0.439216 1 0.443137 0.439216 1 0.443137 
0.439216 1 0.443137 0.439216 1 0.443137 
0.439216 1 0.443137 0.439216 1 0.443137 
0.439216 1 0.443137 0.439216 1 0.443137 
0.439216 1 0.443137 0.439216 1 0.443137 
0.439216 1 0.443137 0.439216 1 0.443137 
0.439216 1 0.443137 0.439216 1 0.443137 
0.439216 1 0.443137 0.439216 1 0.443137 
0.439216 1 0.443137 0.439216 1 0.443137 
0.439216 1 0.443137 0.439216 1 0.443137 
0.439216 1 0.443137 0.439216 1 0.443137 
0.439216 1 0.443137 0.439216 1 0.443137 
0.439216 1 0.443137 0.439216 1 0.443137 
0.439216 1 0.443137 0.439216 1 0.443137 
0.439216 1 0.443137 0.439216 1 0.443137 
0.439216 1 0.443137 0.439216 1 0.443137 
0.439216 1 0.443137 0.439216 1 0.443137 
0.439216 1 0.443137 0.439216 1 0.443137 
0.439216 1 0.443137 0.439216 1 0.443137 
0.439216 1 0.443137 0.439216 1 0.443137 
0.439216 1 0.443137 0.439216 1 0.443137 
0.439216 1 0.443137 0.439216 1 0.443137 
0.439216 1 0.443137 0.439216 1 0.443137 
0.439216 1 0.443137 0.439216 1 0.443137 
0.439216 1 0.443137 0.439216 1 0.443137 
0.439216 1 0.443137 0.439216 1 0.443137 
0.439216 1 0.443137 0.439216 1 0.443137 
0.439216 1 0.443137 0.439216 1 0.443137 
0.439216 1 0.443137 0.439216 1 0.443137 
0.439216 1 0.443137 0.439216 1 0.443137 
0.439216 1 0.443137 0.439216 1 0.443137 
0.439216 1 0.443137 0.439216 1 0.443137 
0.439216 1 0.443137 0.439216 1 0.443137 
0.439216 1 0.443137 0.439216 1 0.443137 
0.439216 1 0.443137 0.439216 1 0.443137 
0.439216 1 0.443137 0.439216 1 0.443137 
0.439216 1 0.443137 0.439216 1 0.443137 
0.439216 1 0.443137 0.439216 1 0.443137 
0.439216 1 0.443137 0.439216 1 0.443137 
0.439216 1 0.443137 0.439216 1 0.443137 
0.439216 1 0.443137 0.439216 1 0.443137 
0.439216 1 0.443137 0.439216 1 0.443137 
0.439216 1 0.443137 0.439216 1 0.443137 
0.439216 1 0.443137 0.439216 1 0.443137 
0.439216 1 0.443137 0.439216 1 0.443137 
0.439216 1 0.443137 0.439216 1 0.443137 
0.439216 1 0.443137 0.439216 1 0.443137 
0.439216 1 0.443137 0.439216 1 0.443137 
0.439216 1 0.443137 0.439216 1 0.443137 
0.439216 1 0.443137 0.439216 1 0.443137 
0.439216 1 0.443137 0.439216 1 0.443137 
0.439216 1 0.443137 0.439216 1 0.443137 
0.439216 1 0.443137 0.439216 1 0.443137 
0.439216 1 0.443137 0.439216 1 0.443137 
0.439216 1 0.443137 0.439216 1 0.443137 
0.439216 1 0.443137 0.439216 1 0.443137 
0.439216 1 0.443137 0.439216 1 0.443137 
0.439216 1 0.443137 0.439216 1 0.443137 
0.439216 1 0.443137 0.439216 1 0.443137 
0.439216 1 0.443137 0.439216 1 0.443137 
0.439216 1 0.443137 0.439216 1 0.443137 
0.439216 1 0.443137 0.439216 1 0.443137 
0.439216 1 0.443137 0.439216 1 0.443137 
0.439216 1 0.443137 0.439216 1 0.443137 
0.439216 1 0.443137 0.439216 1 0.443137 
0.439216 1 0.443137 0.439216 1 0.443137 
0.439216 1 0.443137 0.439216 1 0.443137 
0.439216 1 0.443137 0.439216 1 0.443137 
0.439216 1 0.443137 0.439216 1 0.443137 
0.439216 1 0.443137 0.439216 1 0.443137 
0.439216 1 0.443137 0.439216 1 0.443137 
0.439216 1 0.443137 0.439216 1 0.443137 
0.439216 1 0.443137 0.439216 1 0.443137 
0.439216 1 0.443137 0.439216 1 0.443137 
0.439216 1 0.443137 0.439216 1 0.443137 
0.439216 1 0.443137 0.439216 1 0.443137 
0.439216 1 0.443137 0.439216 1 0.443137 
0.439216 1 0.443137 0.439216 1 0.443137 
0.439216 1 0.443137 0.439216 1 0.443137 
0.439216 1 0.443137 0.439216 1 0.443137 
0.439216 1 0.443137 0.439216 1 0.443137 
0.439216 1 0.443137 0.439216 1 0.443137 
0.439216 1 0.443137 0.439216 1 0.443137 
0.439216 1 0.443137 0.439216 1 0.443137 
0.439216 1 0.443137 0.439216 1 0.443137 
0.439216 1 0.443137 0.439216 1 0.443137 
0.439216 1 0.443137 0.439216 1 0.443137 
0.439216 1 0.443137 0.439216 1 0.443137 
0.439216 1 0.443137 0.439216 1 0.443137 
0.439216 1 0.443137 0.439216 1 0.443137 
0.439216 1 0.443137 0.439216 1 0.443137 
0.439216 1 0.443137 0.439216 1 0.443137 
0.439216 1 0.443137 0.439216 1 0.443137 
0.439216 1 0.443137 0.439216 1 0.443137 
0.439216 1 0.443137 0.439216 1 0.443137 
0.439216 1 0.443137 0.439216 1 0.443137 
0.439216 1 0.443137 0.439216 1 0.443137 
0.439216 1 0.443137 0.439216 1 0.443137 
0.439216 1 0.443137 0.439216 1 0.443137 
0.439216 1 0.443137 0.439216 1 0.443137 
0.439216 1 0.443137 0.439216 1 0.443137 
0.439216 1 0.443137 0.439216 1 0.443137 
0.439216 1 0.443137 0.439216 1 0.443137 
0.439216 1 0.443137 0.439216 1 0.443137 
0.439216 1 0.443137 0.439216 1 0.443137 
0.439216 1 0.443137 0.439216 1 0.443137 
0.439216 1 0.443137 0.439216 1 0.443137 
0.439216 1 0.443137 0.439216 1 0.443137 
0.439216 1 0.443137 0.439216 1 0.443137 
0.439216 1 0.443137 0.439216 1 0.443137 
0.439216 1 0.443137 0.439216 1 0.443137 
0.439216 1 0.443137 0.439216 1 0.443137 
0.439216 1 0.443137 0.439216 1 0.443137 
0.439216 1 0.443137 0.439216 1 0.443137 
0.439216 1 0.443137 0.439216 1 0.443137 
0.439216 1 0.443137 0.439216 1 0.443137 
0.439216 1 0.443137 0.439216 1 0.443137 
0.439216 1 0.443137 0.439216 1 0.443137 
0.439216 1 0.443137 0.439216 1 0.443137 
0.439216 1 0.443137 0.439216 1 0.443137 
0.439216 1 0.443137 0.439216 1 0.443137 
0.439216 1 0.443137 0.439216 1 0.443137 
0.439216 1 0.443137 0.439216 1 0.443137 
0.439216 1 0.443137 0.439216 1 0.443137 
0.439216 1 0.443137 0.439216 1 0.443137 
0.439216 1 0.443137 0.439216 1 0.443137 
0.439216 1 0.443137 0.439216 1 0.443137 
0.439216 1 0.443137 0.439216 1 0.443137 
0.439216 1 0.443137 0.439216 1 0.443137 
0.439216 1 0.443137 0.439216 1 0.443137 
0.439216 1 0.443137 0.439216 1 0.443137 
0.439216 1 0.443137 0.439216 1 0.443137 
0.439216 1 0.443137 0.439216 1 0.443137 
0.439216 1 0.443137 0.439216 1 0.443137 
0.439216 1 0.443137 0.439216 1 0.443137 
0.439216 1 0.443137 0.439216 1 0.443137 
0.439216 1 0.443137 0.439216 1 0.443137 
0.439216 1 0.443137 0.439216 1 0.443137 
0.439216 1 0.443137 0.439216 1 0.443137 
0.439216 1 0.443137 0.439216 1 0.443137 
0.439216 1 0.443137 0.439216 1 0.443137 
0.439216 1 0.443137 0.439216 1 0.443137 
0.439216 1 0.443137 0.439216 1 0.443137 
0.439216 1 0.443137 0.439216 1 0.443137 
0.439216 1 0.443137 0.439216 1 0.443137 
0.439216 1 0.443137 0.439216 1 0.443137 
0.439216 1 0.443137 0.439216 1 0.443137 
0.439216 1 0.443137 0.439216 1 0.443137 
0.439216 1 0.443137 0.439216 1 0.443137 
0.439216 1 0.443137 0.439216 1 0.443137 
0.439216 1 0.443137 0.439216 1 0.443137 
0.439216 1 0.443137 0.439216 1 0.443137 
0.439216 1 0.443137 0.439216 1 0.443137 
0.439216 1 0.443137 0.439216 1 0.443137 
0.439216 1 0.443137 0.439216 1 0.443137 
0.439216 1 0.443137 0.439216 1 0.443137 
0.439216 1 0.443137 0.439216 1 0.443137 
0.439216 1 0.443137 0.439216 1 0.443137 
0.439216 1 0.443137 0.439216 1 0.443137 
0.439216 1 0.443137 0.439216 1 0.443137 
0.439216 1 0.443137 0.439216 1 0.443137 
0.439216 1 0.443137 0.439216 1 0.443137 
0.439216 1 0.443137 0.439216 1 0.443137 
0.439216 1 0.443137 0.439216 1 0.443137 
0.439216 1 0.443137 0.439216 1 0.443137 
0.439216 1 0.443137 0.439216 1 0.443137 
0.439216 1 0.443137 0.439216 1 0.443137 
0.439216 1 0.443137 0.439216 1 0.443137 
0.439216 1 0.443137 0.439216 1 0.443137 
0.439216 1 0.443137 0.439216 1 0.443137 
0.439216 1 0.443137 0.439216 1 0.443137 
0.439216 1 0.443137 0.439216 1 0.443137 
0.439216 1 0.443137 0.439216 1 0.443137 
0.439216 1 0.443137 0.439216 1 0.443137 
0.439216 1 0.443137 0.439216 1 0.443137 
0.439216 1 0.443137 0.439216 1 0.443137 
0.439216 1 0.443137 0.439216 1 0.443137 
0.439216 1 0.443137 0.439216 1 0.443137 
0.439216 1 0.443137 0.439216 1 0.443137 
0.439216 1 0.443137 0.439216 1 0.443137 
0.439216 1 0.443137 0.439216 1 0.443137 
0.439216 1 0.443137 0.439216 1 0.443137 
0.439216 1 0.443137 0.439216 1 0.443137 
0.439216 1 0.443137 0.439216 1 0.443137 
0.439216 1 0.443137 0.439216 1 0.443137 
0.439216 1 0.443137 0.439216 1 0.443137 
0.439216 1 0.443137 0.439216 1 0.443137 
0.439216 1 0.443137 0.439216 1 0.443137 
0.439216 1 0.443137 0.439216 1 0.443137 
0.439216 1 0.443137 0.439216 1 0.443137 
0.439216 1 0.443137 0.439216 1 0.443137 
0.439216 1 0.443137 0.439216 1 0.443137 
0.439216 1 0.443137 0.439216 1 0.443137 
0.439216 1 0.443137 0.439216 1 0.443137 
0.439216 1 0.443137 0.439216 1 0.443137 
0.439216 1 0.443137 0.439216 1 0.443137 
0.439216 1 0.443137 0.439216 1 0.443137 
0.439216 1 0.443137 0.439216 1 0.443137 
0.439216 1 0.443137 0.439216 1 0.443137 
0.439216 1 0.443137 0.439216 1 0.443137 
0.439216 1 0.443137 0.439216 1 0.443137 
0.439216 1 0.443137 0.439216 1 0.443137 
0.439216 1 0.443137 0.439216 1 0.443137 
0.439216 1 0.443137 0.439216 1 0.443137 
0.439216 1 0.443137 0.439216 1 0.443137 
0.439216 1 0.443137 0.439216 1 0.443137 
0.439216 1 0.443137 0.439216 1 0.443137 
0.439216 1 0.443137 0.439216 1 0.443137 
0.439216 1 0.443137 0.439216 1 0.443137 
0.439216 1 0.443137 0.439216 1 0.443137 
0.439216 1 0.443137 0.439216 1 0.443137 
0.439216 1 0.443137 0.439216 1 0.443137 
0.439216 1 0.443137 0.439216 1 0.443137 
0.439216 1 0.443137 0.439216 1 0.443137 
0.439216 1 0.443137 0.439216 1 0.443137 
0.439216 1 0.443137 0.439216 1 0.443137 
0.439216 1 0.443137 0.439216 1 0.443137 
0.439216 1 0.443137 0.439216 1 0.443137 
0.439216 1 0.443137 0.439216 1 0.443137 
0.439216 1 0.443137 0.439216 1 0.443137 
0.439216 1 0.443137 0.439216 1 0.443137 
0.439216 1 0.443137 0.439216 1 0.443137 
0.439216 1 0.443137 0.439216 1 0.443137 
0.439216 1 0.443137 0.439216 1 0.443137 
0.439216 1 0.443137 0.439216 1 0.443137 
0.439216 1 0.443137 0.439216 1 0.443137 
0.439216 1 0.443137 0.439216 1 0.443137 
0.439216 1 0.443137 0.439216 1 0.443137 
0.439216 1 0.443137 0.439216 1 0.443137 
0.439216 1 0.443137 0.439216 1 0.443137 
0.439216 1 0.443137 0.439216 1 0.443137 
0.439216 1 0.443137 0.439216 1 0.443137 
0.439216 1 0.443137 0.439216 1 0.443137 
0.439216 1 0.443137 0.439216 1 0.443137 
0.439216 1 0.443137 0.439216 1 0.443137 
0.439216 1 0.443137 0.439216 1 0.443137 
0.439216 1 0.443137 0.439216 1 0.443137 
0.439216 1 0.443137 0.439216 1 0.443137 
0.439216 1 0.443137 0.439216 1 0.443137 
0.439216 1 0.443137 0.439216 1 0.443137 
0.439216 1 0.443137 0.439216 1 0.443137 
0.439216 1 0.443137 0.439216 1 0.443137 
0.439216 1 0.443137 0.439216 1 0.443137 
0.439216 1 0.443137 0.439216 1 0.443137 
0.439216 1 0.443137 0.439216 1 0.443137 
0.439216 1 0.443137 0.439216 1 0.443137 
0.439216 1 0.443137 0.439216 1 0.443137 
0.439216 1 0.443137 0.439216 1 0.443137 
0.439216 1 0.443137 0.439216 1 0.443137 
0.439216 1 0.443137 0.439216 1 0.443137 
0.439216 1 0.443137 0.439216 1 0.443137 
0.439216 1 0.443137 0.439216 1 0.443137 
0.439216 1 0.443137 0.439216 1 0.443137 
0.439216 1 0.443137 0.439216 1 0.443137 
0.439216 1 0.443137 0.439216 1 0.443137 
0.439216 1 0.443137 0.439216 1 0.443137 
0.439216 1 0.443137 0.439216 1 0.443137 
0.439216 1 0.443137 0.439216 1 0.443137 
0.439216 1 0.443137 0.439216 1 0.443137 
0.439216 1 0.443137 0.439216 1 0.443137 
0.439216 1 0.443137 0.439216 1 0.443137 
0.439216 1 0.443137 0.439216 1 0.443137 
0.439216 1 0.443137 0.439216 1 0.443137 
0.439216 1 0.443137 0.439216 1 0.443137 
0.439216 1 0.443137 0.439216 1 0.443137 
0.439216 1 0.443137 0.439216 1 0.443137 
0.439216 1 0.443137 0.439216 1 0.443137 
0.439216 1 0.443137 0.439216 1 0.443137 
0.439216 1 0.443137 0.439216 1 0.443137 
0.439216 1 0.443137 0.439216 1 0.443137 
0.439216 1 0.443137 0.439216 1 0.443137 
0.439216 1 0.443137 0.439216 1 0.443137 
0.439216 1 0.443137 0.439216 1 0.443137 
0.439216 1 0.443137 0.439216 1 0.443137 
0.439216 1 0.443137 0.439216 1 0.443137 
0.439216 1 0.443137 0.439216 1 0.443137 
0.439216 1 0.443137 0.439216 1 0.443137 
0.439216 1 0.443137 0.439216 1 0.443137 
0.439216 1 0.443137 0.439216 1 0.443137 
0.439216 1 0.443137 0.439216 1 0.443137 
0.439216 1 0.443137 0.439216 1 0.443137 
0.439216 1 0.443137 0.439216 1 0.443137 