# vtk DataFile Version 4.2
vtk output
ASCII
DATASET POLYDATA
POINTS 708 float
420.371 188.622 138.281 412.946 188.714 138.484 418.306 189.305 138.203 
420.268 189.355 138.183 421.678 188.721 138.512 411.769 189.851 138.751 
416.039 189.799 138.496 419.108 190.094 138.251 422.013 190.14 138.278 
412.273 190.119 138.828 417.17 190.856 139.071 418.526 191.621 139.234 
418.686 191.346 138.872 419.227 191.969 139.161 424.318 192.305 138.572 
421.41 193.819 139.026 421.851 194.947 139.433 422.883 194.688 138.676 
422.355 195.403 139.189 422.964 195.673 138.932 423.402 197.287 139.209 
424.426 197.243 138.932 424.106 198.641 139.355 423.977 198.731 139.494 
424.433 198.647 139.304 424.789 199.102 139.53 417.719 185.763 139.041 
418.77 185.72 139.181 412.959 187.995 138.548 423.282 188.041 139.464 
406.686 189.573 139.135 408.689 189.169 138.931 423.156 189.062 138.94 
409.19 189.853 138.884 406.774 191.648 139.107 409.161 190.972 139.137 
411.327 190.837 139.389 413.96 190.809 139.615 418.095 191.568 139.505 
404.229 192.958 139.324 407.171 191.993 139.258 408.95 191.559 139.409 
409.568 191.611 139.661 412.556 191.117 140.001 403.289 193.882 139.55 
404.657 193.361 139.465 406.054 192.99 139.544 408.512 192.075 139.672 
401.516 194.311 139.897 402.471 194.582 139.811 403.03 194.365 139.737 
405.246 193.608 139.737 407.327 192.949 139.991 426.972 194.615 139.924 
404.167 194.551 140.172 421.902 195.393 139.842 422.265 195.881 139.662 
426.926 196.267 139.921 425.597 197.803 139.311 426.272 197.62 139.651 
425.434 199.314 139.761 424.862 199.649 139.874 425.341 200.096 140.13 
424.484 200.216 140.535 424.333 200.384 140.996 424.912 200.276 140.327 
425.332 200.513 140.406 414.843 183.841 140.102 422.092 185.7 140.157 
424.007 187.116 140.392 403.656 189.319 140.111 415.398 191.071 140.257 
411.824 191.415 140.715 418 191.748 140.471 401.31 192.926 140.104 
400.707 193.018 140.409 408.667 192.373 140.154 420.177 193.192 139.904 
407.857 192.993 140.437 400.242 194.483 140.544 399.389 195.528 141.186 
400.706 195.127 140.444 404.982 194.496 140.612 399.747 195.812 141.071 
400.28 195.792 140.889 401.04 195.748 140.676 399.834 196.258 141.316 
401.792 196.135 141.066 423.418 199.011 140.726 427.396 198.672 140.973 
425.557 200.732 140.663 424.614 200.783 141.29 405.421 185.637 141.353 
402.353 188.366 141.535 400.955 190.498 141.398 417.966 191.748 141.296 
397.918 195.614 142.473 398.871 195.946 141.688 398.103 196.64 142.52 
398.574 196.623 142.187 398.864 197.182 142.481 400.1 197.055 142.11 
426.449 200.717 141.221 425.148 201.332 141.858 425.05 201.444 142.447 
425.488 201.313 141.622 426.427 200.958 141.671 425.777 201.459 141.99 
419.271 181.726 142.216 408.045 183.055 142.221 406.885 183.773 142.19 
403.945 186.095 142.149 401.691 188.546 142.154 426.438 189.186 141.446 
427.44 190.581 142.042 397.796 194.431 142.881 428.51 194.522 142.253 
397.457 197.093 143.595 428.62 196.946 142.828 398.083 197.341 143.024 
398.436 197.458 142.89 428.148 198.259 142.245 398.548 197.696 143.173 
407.246 182.396 143.736 410.158 182.035 142.392 422.765 183.11 142.844 
403.505 185.429 143.937 425.27 186.05 142.853 401.848 187.505 143.628 
410.576 191.781 143.183 420.571 193.735 142.786 428.55 192.95 143.078 
397.631 194.078 143.803 397.579 194.59 143.356 396.942 196.324 144.024 
396.934 196.646 144.116 397.019 196.985 144.257 397.244 197.169 144.02 
398.092 197.718 143.836 398.523 197.824 143.597 425.869 201.744 143.347 
421.574 180.913 144.075 404.396 184.419 144.274 427.476 189.219 143.806 
396.985 197.059 144.701 400.188 197.821 143.889 398.028 197.791 144.517 
427.902 199.782 144.478 409.665 180.268 145.658 421.82 180.121 145.242 
399.456 190.456 144.859 415.026 190.723 145.234 416.717 190.948 144.558 
419.072 192.145 143.861 408.892 192.807 144.775 396.853 196.44 144.909 
396.879 196.82 144.913 428.788 196.953 145.157 397.531 197.494 145.479 
423.101 199.083 145.156 398.588 198.002 145.022 426.326 201.793 144.485 
426.524 201.719 144.933 426.885 201.371 145.339 415.225 177.958 146.538 
420.199 178.424 146.487 413.572 190.883 146.113 411.617 191.441 145.878 
428.449 191.487 145.939 398.485 192.228 146.068 397.564 194.225 146.111 
397.06 196.993 145.501 397.182 197.217 145.397 399.144 198.105 145.164 
399.466 198.115 145.505 400.03 198.011 145.712 397.989 197.746 145.887 
426.488 201.731 145.4 426.243 201.816 145.694 425.807 201.862 145.718 
414.599 177.966 147.115 418.39 177.827 146.724 419.234 177.834 147.188 
421.052 178.753 146.725 421.346 178.898 147.076 405.327 183.404 146.788 
412.861 191.162 146.9 415.578 190.828 146.481 397.658 194.363 146.725 
397.094 196.771 145.749 398.048 197.679 146.355 399.548 198.091 145.904 
424.253 200.799 147.42 426.914 201.122 146.922 427.118 200.786 147.194 
424.528 201.19 146.96 424.892 201.357 147.338 426.523 201.415 146.837 
414.986 177.879 148.09 417.068 177.625 147.905 399.089 191.776 147.696 
398.488 193.153 147.9 397.636 194.755 146.951 397.815 194.926 147.364 
397.651 195.997 147 404.35 196.391 147.202 397.908 197.235 146.886 
398.157 197.242 147.129 398.46 197.513 147.043 399.119 197.514 147.36 
399.292 197.843 146.795 423.677 199.721 147.952 424.391 200.797 147.896 
427.053 200.592 147.687 425.274 201.496 147.455 425.605 201.608 147.235 
417.024 177.674 148.522 418.402 177.716 148.283 413.347 178.497 148.297 
420.9 178.526 148.237 427.861 190.286 148.054 399.705 191.447 148.853 
419.646 192.691 148.433 398.323 194.043 148.061 427.969 196.633 148.322 
398.21 196.844 147.434 399.194 196.417 148.576 399.284 196.771 148.384 
399.173 197.097 147.966 426.986 199.749 148.632 426.486 200.902 148.099 
425.405 201.066 148.383 425.51 201.396 147.805 417.121 177.932 149.336 
421.29 178.854 149.157 411.273 179.89 149.503 423.149 180.532 149.178 
402.989 187.51 150.254 426.929 188.027 149.362 399.69 192.239 149.47 
413.021 191.996 150.135 398.646 194.334 148.597 421.86 195.722 149.5 
398.728 195.477 148.606 401.151 196.555 149.299 423.3 198.311 149.379 
423.67 198.998 149.237 426.345 199.806 149.351 424.527 200.342 148.904 
425.112 200.366 149.272 426.093 200.682 148.803 425.753 200.829 148.736 
420.221 178.588 149.774 420.027 178.864 150.435 421.864 179.519 150.109 
424.851 183.602 150.717 418.916 192.379 149.408 399.62 193.442 149.698 
416.041 191.798 151.136 426.74 194.452 150.889 399.704 195.578 149.415 
404.648 195.279 150.678 405.492 195.101 150.562 423.325 197.85 150.097 
425.658 198.853 150.302 424.27 198.905 150.113 426.097 199.249 149.839 
415.853 178.993 150.932 421.498 179.599 150.739 424.456 183.91 151.843 
403.485 188.422 151.903 426.769 189.861 150.796 400.59 192.52 150.553 
413.434 191.858 151.815 419.764 193.032 151.464 401.307 193.574 151.139 
401.445 194.124 151.111 401.83 194.321 151.247 403.857 194.434 151.63 
426.096 195.382 151.354 402.089 194.633 151.172 422.033 195.399 151.169 
422.237 195.273 151.737 424.879 197.946 151.003 425.188 198.509 150.63 
424.827 199.108 150.236 425.238 199.641 149.945 411.854 181.437 152.783 
422.682 181.68 152.321 425.139 187.213 152.652 403.8 188.877 152.589 
425.641 189.462 152.478 401.932 192.262 151.688 412.323 191.784 152.703 
415.558 191.275 153.072 416.087 191.574 152.458 417.551 191.57 152.987 
406.62 193.193 152.63 407.09 193.584 152.103 422.086 194.684 152.224 
424.817 194.297 152.563 423.041 183.242 153.173 423.747 184.183 152.956 
406.296 186.103 153.22 424.238 186 153.278 403.6 189.439 152.674 
403.667 190.23 152.895 416.959 190.77 153.906 402.68 191.558 152.349 
413.581 190.994 153.603 417.281 191.163 153.516 424.597 191.911 153.302 
403.406 192.09 152.727 404.059 192.148 152.989 405.248 192.709 152.982 
405.713 192.105 153.375 422.488 194.062 152.968 422.948 195.418 152.166 
414.765 182.125 154.271 417.567 182.913 154.636 420.759 183.111 154.215 
419.606 183.616 154.713 422.215 184.366 154.27 408.205 185.584 154.452 
423.598 186.749 154.066 405.367 187.921 153.557 404.492 189.427 153.355 
411.195 189.722 154.902 416.866 190.235 154.34 418.434 189.595 154.837 
419.019 190.278 154.538 423.366 189.642 154.315 405.31 190.205 153.892 
405.766 190.394 154.077 407.533 190.741 154.345 409.265 190.687 154.43 
420.016 191.914 153.552 421.53 190.679 154.526 422.161 190.625 154.47 
414.776 183.905 155.319 416.015 184.418 155.391 418.93 186.132 155.337 
414.341 186.818 155.657 422.441 186.59 154.661 406.3 188.222 154.256 
407.255 188.885 154.836 415.295 185.141 155.615 411.968 184.559 299.835 
413.032 184.905 299.633 410.11 185.531 299.828 410.571 186.35 299.523 
413.281 185.936 299.491 409.563 186.945 299.674 408.65 187.78 299.931 
409.492 187.543 299.676 411.024 184.034 300.396 416.363 183.586 300.452 
416.567 184.191 300.252 409.2 184.999 300.488 408.345 185.663 300.616 
414.551 186.372 299.665 414.662 186.975 299.737 409.312 188.442 299.906 
413.478 188.639 300.105 406.678 189.644 300.834 409.8 189.431 300.258 
416.405 182.866 300.836 422.438 182.246 302.238 418.41 183.547 300.771 
423.093 183.05 302.191 408.902 184.113 301.392 421.318 184.191 301.128 
423.319 187.465 301.412 404.845 189.473 301.77 423.014 189.374 301.279 
410.131 190.753 301.106 416.183 190.317 301.207 420.239 181.171 302.227 
411.234 182.434 301.74 405.232 187.531 302.156 424.473 186.412 302.264 
425.141 188.443 302.685 411.649 191.057 301.572 409.04 191.661 301.674 
403.712 192.074 302.58 406.468 192.49 302.19 419.14 192.018 302.562 
420.667 192.908 302.709 421.684 194.053 303.149 421.944 193.555 302.604 
424.488 193.474 302.585 422.541 194.855 303.12 422.772 195.093 303.171 
424.286 195.066 303.128 423.762 195.51 303.278 422.72 181.456 303.175 
424.773 185.775 302.792 425.13 185.781 303.337 425.583 187.333 303.39 
402.258 190.274 303.758 417.674 191.62 302.586 401.855 192.552 303.701 
402.505 192.469 303.338 401.39 193.201 304.057 409.477 192.869 303.271 
421.143 193.72 303.347 401.656 193.656 304.074 403.361 193.842 303.603 
405.305 194.05 303.609 425.558 194.724 303.478 424.912 195.242 303.345 
[...]
POINT_DATA 708
COLOR_SCALARS scalars 3
1 0.682353 0.435294 1 0.682353 0.435294 1 0.682353 0.435294 
1 0.682353 0.435294 1 0.682353 0.435294 
1 0.682353 0.435294 1 0.682353 0.435294 
1 0.682353 0.435294 1 0.682353 0.435294 
1 0.682353 0.435294 1 0.682353 0.435294 
1 0.682353 0.435294 1 0.682353 0.435294 
1 0.682353 0.435294 1 0.682353 0.435294 
1 0.682353 0.435294 1 0.682353 0.435294 
1 0.682353 0.435294 1 0.682353 0.435294 
1 0.682353 0.435294 1 0.682353 0.435294 
1 0.682353 0.435294 1 0.682353 0.435294 
1 0.682353 0.435294 1 0.682353 0.435294 
1 0.682353 0.435294 1 0.682353 0.435294 
1 0.682353 0.435294 1 0.682353 0.435294 
1 0.682353 0.435294 1 0.682353 0.435294 
1 0.682353 0.435294 1 0.682353 0.435294 
1 0.682353 0.435294 1 0.682353 0.435294 
1 0.682353 0.435294 1 0.682353 0.435294 
1 0.682353 0.435294 1 0.682353 0.435294 
1 0.682353 0.435294 1 0.682353 0.435294 
1 0.682353 0.435294 1 0.682353 0.435294 
1 0.682353 0.435294 1 0.682353 0.435294 
1 0.682353 0.435294 1 0.682353 0.435294 
1 0.682353 0.435294 1 0.682353 0.435294 
1 0.682353 0.435294 1 0.682353 0.435294 
1 0.682353 0.435294 1 0.682353 0.435294 
1 0.682353 0.435294 1 0.682353 0.435294 
1 0.682353 0.435294 1 0.682353 0.435294 
1 0.682353 0.435294 1 0.682353 0.435294 
1 0.682353 0.435294 1 0.682353 0.435294 
1 0.682353 0.435294 1 0.682353 0.435294 
1 0.682353 0.435294 1 0.682353 0.435294 
1 0.682353 0.435294 1 0.682353 0.435294 
1 0.682353 0.435294 1 0.682353 0.435294 
1 0.682353 0.435294 1 0.682353 0.435294 
1 0.682353 0.435294 1 0.682353 0.435294 
1 0.682353 0.435294 1 0.682353 0.435294 
1 0.682353 0.435294 1 0.682353 0.435294 
1 0.682353 0.435294 1 0.682353 0.435294 
1 0.682353 0.435294 1 0.682353 0.435294 
1 0.682353 0.435294 1 0.682353 0.435294 
1 0.682353 0.435294 1 0.682353 0.435294 
1 0.682353 0.435294 1 0.682353 0.435294 
1 0.682353 0.435294 1 0.682353 0.435294 
1 0.682353 0.435294 1 0.682353 0.435294 
1 0.682353 0.435294 1 0.682353 0.435294 
1 0.682353 0.435294 1 0.682353 0.435294 
1 0.682353 0.435294 1 0.682353 0.435294 
1 0.682353 0.435294 1 0.682353 0.435294 
1 0.682353 0.435294 1 0.682353 0.435294 
1 0.682353 0.435294 1 0.682353 0.435294 
1 0.682353 0.435294 1 0.682353 0.435294 
1 0.682353 0.435294 1 0.682353 0.435294 
1 0.682353 0.435294 1 0.682353 0.435294 
1 0.682353 0.435294 1 0.682353 0.435294 
1 0.682353 0.435294 1 0.682353 0.435294 
1 0.682353 0.435294 1 0.682353 0.435294 
1 0.682353 0.435294 1 0.682353 0.435294 
1 0.682353 0.435294 1 0.682353 0.435294 
1 0.682353 0.435294 1 0.682353 0.435294 
1 0.682353 0.435294 1 0.682353 0.435294 
1 0.682353 0.435294 1 0.682353 0.435294 
1 0.682353 0.435294 1 0.682353 0.435294 
1 0.682353 0.435294 1 0.682353 0.435294 
1 0.682353 0.435294 1 0.682353 0.435294 
1 0.682353 0.435294 1 0.682353 0.435294 
1 0.682353 0.435294 1 0.682353 0.435294 
1 0.682353 0.435294 1 0.682353 0.435294 
1 0.682353 0.435294 1 0.682353 0.435294 
1 0.682353 0.435294 1 0.682353 0.435294 
1 0.682353 0.435294 1 0.682353 0.435294 
1 0.682353 0.435294 1 0.682353 0.435294 
1 0.682353 0.435294 1 0.682353 0.435294 
1 0.682353 0.435294 1 0.682353 0.435294 
1 0.682353 0.435294 1 0.682353 0.435294 
1 0.682353 0.435294 1 0.682353 0.435294 
1 0.682353 0.435294 1 0.682353 0.435294 
1 0.682353 0.435294 1 0.682353 0.435294 
1 0.682353 0.435294 1 0.682353 0.435294 
1 0.682353 0.435294 1 0.682353 0.435294 
1 0.682353 0.435294 1 0.682353 0.435294 
1 0.682353 0.435294 1 0.682353 0.435294 
1 0.682353 0.435294 1 0.682353 0.435294 
1 0.682353 0.435294 1 0.682353 0.435294 
1 0.682353 0.435294 1 0.682353 0.435294 
1 0.682353 0.435294 1 0.682353 0.435294 
1 0.682353 0.435294 1 0.682353 0.435294 
1 0.682353 0.435294 1 0.682353 0.435294 
1 0.682353 0.435294 1 0.682353 0.435294 
1 0.682353 0.435294 1 0.682353 0.435294 
1 0.682353 0.435294 1 0.682353 0.435294 
1 0.682353 0.435294 1 0.682353 0.435294 
1 0.682353 0.435294 1 0.682353 0.435294 
1 0.682353 0.435294 1 0.682353 0.435294 
1 0.682353 0.435294 1 0.682353 0.435294 
1 0.682353 0.435294 1 0.682353 0.435294 
1 0.682353 0.435294 1 0.682353 0.435294 
1 0.682353 0.435294 1 0.682353 0.435294 
1 0.682353 0.435294 1 0.682353 0.435294 
1 0.682353 0.435294 1 0.682353 0.435294 
1 0.682353 0.435294 1 0.682353 0.435294 
1 0.682353 0.435294 1 0.682353 0.435294 
1 0.682353 0.435294 1 0.682353 0.435294 
1 0.682353 0.435294 1 0.682353 0.435294 
1 0.682353 0.435294 1 0.682353 0.435294 
1 0.682353 0.435294 1 0.682353 0.435294 
1 0.682353 0.435294 1 0.682353 0.435294 
1 0.682353 0.435294 1 0.682353 0.435294 
1 0.682353 0.435294 1 0.682353 0.435294 
1 0.682353 0.435294 1 0.682353 0.435294 
1 0.682353 0.435294 1 0.682353 0.435294 
1 0.682353 0.435294 1 0.682353 0.435294 
1 0.682353 0.435294 1 0.682353 0.435294 
1 0.682353 0.435294 1 0.682353 0.435294 
1 0.682353 0.435294 1 0.682353 0.435294 
1 0.682353 0.435294 1 0.682353 0.435294 
1 0.682353 0.435294 1 0.682353 0.435294 
1 0.682353 0.435294 1 0.682353 0.435294 
1 0.682353 0.435294 1 0.682353 0.435294 
1 0.682353 0.435294 1 0.682353 0.435294 
1 0.682353 0.435294 1 0.682353 0.435294 
1 0.682353 0.435294 1 0.682353 0.435294 
1 0.682353 0.435294 1 0.682353 0.435294 
1 0.682353 0.435294 1 0.682353 0.435294 
1 0.682353 0.435294 1 0.682353 0.435294 
1 0.682353 0.435294 1 0.682353 0.435294 
1 0.682353 0.435294 1 0.682353 0.435294 
1 0.682353 0.435294 1 0.682353 0.435294 
1 0.682353 0.435294 1 0.682353 0.435294 
1 0.682353 0.435294 1 0.682353 0.435294 
1 0.682353 0.435294 1 0.682353 0.435294 
1 0.682353 0.435294 1 0.682353 0.435294 
1 0.682353 0.435294 1 0.682353 0.435294 
1 0.682353 0.435294 1 0.682353 0.435294 
1 0.682353 0.435294 1 0.682353 0.435294 
1 0.682353 0.435294 1 0.682353 0.435294 
1 0.682353 0.435294 1 0.682353 0.435294 
1 0.682353 0.435294 1 0.682353 0.435294 
1 0.682353 0.435294 1 0.682353 0.435294 
1 0.682353 0.435294 1 0.682353 0.435294 
1 0.682353 0.435294 1 0.682353 0.435294 
1 0.682353 0.435294 1 0.682353 0.435294 
1 0.682353 0.435294 1 0.682353 0.435294 
1 0.682353 0.435294 1 0.682353 0.435294 
1 0.682353 0.435294 1 0.682353 0.435294 
1 0.682353 0.435294 1 0.682353 0.435294 
1 0.682353 0.435294 1 0.682353 0.435294 
1 0.682353 0.435294 1 0.682353 0.435294 
1 0.682353 0.435294 1 0.682353 0.435294 
1 0.682353 0.435294 1 0.682353 0.435294 
1 0.682353 0.435294 1 0.682353 0.435294 
1 0.682353 0.435294 1 0.682353 0.435294 
1 0.682353 0.435294 1 0.682353 0.435294 
1 0.682353 0.435294 1 0.682353 0.435294 
1 0.682353 0.435294 1 0.682353 0.435294 
1 0.682353 0.435294 1 0.682353 0.435294 
1 0.682353 0.435294 1 0.682353 0.435294 
1 0.682353 0.435294 1 0.682353 0.435294 
1 0.682353 0.435294 1 0.682353 0.435294 
1 0.682353 0.435294 1 0.682353 0.435294 
1 0.682353 0.435294 1 0.682353 0.435294 
1 0.682353 0.435294 1 0.682353 0.435294 
1 0.682353 0.435294 1 0.682353 0.435294 
1 0.682353 0.435294 1 0.682353 0.435294 
1 0.682353 0.435294 1 0.682353 0.435294 
1 0.682353 0.435294 1 0.682353 0.435294 
1 0.682353 0.435294 1 0.682353 0.435294 
1 0.682353 0.435294 1 0.682353 0.435294 
1 0.682353 0.435294 1 0.682353 0.435294 
1 0.682353 0.435294 1 0.682353 0.435294 
1 0.682353 0.435294 1 0.682353 0.435294 
1 0.682353 0.435294 1 0.682353 0.435294 
1 0.682353 0.435294 1 0.682353 0.435294 
1 0.682353 0.435294 1 0.682353 0.435294 
1 0.682353 0.435294 1 0.682353 0.435294 
1 0.682353 0.435294 1 0.682353 0.435294 
1 0.682353 0.435294 1 0.682353 0.435294 
1 0.682353 0.435294 1 0.682353 0.435294 
1 0.682353 0.435294 1 0.682353 0.435294 
1 0.682353 0.435294 1 0.682353 0.435294 
1 0.682353 0.435294 1 0.682353 0.435294 
1 0.682353 0.435294 1 0.682353 0.435294 
1 0.682353 0.435294 1 0.682353 0.435294 
1 0.682353 0.435294 1 0.682353 0.435294 
1 0.682353 0.435294 1 0.682353 0.435294 
1 0.682353 0.435294 1 0.682353 0.435294 
1 0.682353 0.435294 1 0.682353 0.435294 
1 0.682353 0.435294 1 0.682353 0.435294 
1 0.682353 0.435294 1 0.682353 0.435294 
1 0.682353 0.435294 1 0.682353 0.435294 
1 0.682353 0.435294 1 0.682353 0.435294 
1 0.682353 0.435294 1 0.682353 0.435294 
1 0.682353 0.435294 1 0.682353 0.435294 
1 0.682353 0.435294 1 0.682353 0.435294 
1 0.682353 0.435294 1 0.682353 0.435294 
1 0.682353 0.435294 1 0.682353 0.435294 
1 0.682353 0.435294 1 0.682353 0.435294 
1 0.682353 0.435294 1 0.682353 0.435294 
1 0.682353 0.435294 1 0.682353 0.435294 
1 0.682353 0.435294 1 0.682353 0.435294 
1 0.682353 0.435294 1 0.682353 0.435294 
1 0.682353 0.435294 1 0.682353 0.435294 
1 0.682353 0.435294 1 0.682353 0.435294 
1 0.682353 0.435294 1 0.682353 0.435294 
1 0.682353 0.435294 1 0.682353 0.435294 
1 0.682353 0.435294 1 0.682353 0.435294 
1 0.682353 0.435294 1 0.682353 0.435294 
1 0.682353 0.435294 1 0.682353 0.435294 
1 0.682353 0.435294 1 0.682353 0.435294 
1 0.682353 0.435294 1 0.682353 0.435294 
1 0.682353 0.435294 1 0.682353 0.435294 
1 0.682353 0.435294 1 0.682353 0.435294 
1 0.682353 0.435294 1 0.682353 0.435294 
1 0.682353 0.435294 1 0.682353 0.435294 
1 0.682353 0.435294 1 0.682353 0.435294 
1 0.682353 0.435294 1 0.682353 0.435294 
1 0.682353 0.435294 1 0.682353 0.435294 
1 0.682353 0.435294 1 0.682353 0.435294 
1 0.682353 0.435294 1 0.682353 0.435294 
1 0.682353 0.435294 1 0.682353 0.435294 
1 0.682353 0.435294 1 0.682353 0.435294 
1 0.682353 0.435294 1 0.682353 0.435294 
1 0.682353 0.435294 1 0.682353 0.435294 
1 0.682353 0.435294 1 0.682353 0.435294 
1 0.682353 0.435294 1 0.682353 0.435294 
1 0.682353 0.435294 1 0.682353 0.435294 
1 0.682353 0.435294 1 0.682353 0.435294 
1 0.682353 0.435294 1 0.682353 0.435294 
1 0.682353 0.435294 1 0.682353 0.435294 
1 0.682353 0.435294 1 0.682353 0.435294 
1 0.682353 0.435294 1 0.682353 0.435294 
1 0.682353 0.435294 1 0.682353 0.435294 
1 0.682353 0.435294 1 0.682353 0.435294 
1 0.682353 0.435294 1 0.682353 0.435294 
1 0.682353 0.435294 1 0.682353 0.435294 
1 0.682353 0.435294 1 0.682353 0.435294 
1 0.682353 0.435294 1 0.682353 0.435294 
1 0.682353 0.435294 1 0.682353 0.435294 
1 0.682353 0.435294 1 0.682353 0.435294 
1 0.682353 0.435294 1 0.682353 0.435294 
1 0.682353 0.435294 1 0.682353 0.435294 
1 0.682353 0.435294 1 0.682353 0.435294 
1 0.682353 0.435294 1 0.682353 0.435294 
1 0.682353 0.435294 1 0.682353 0.435294 
1 0.682353 0.435294 1 0.682353 0.435294 
1 0.682353 0.435294 1 0.682353 0.435294 
1 0.682353 0.435294 1 0.682353 0.435294 
1 0.682353 0.435294 1 0.682353 0.435294 
1 0.682353 0.435294 1 0.682353 0.435294 
1 0.682353 0.435294 1 0.682353 0.435294 
1 0.682353 0.435294 1 0.682353 0.435294 
1 0.682353 0.435294 1 0.682353 0.435294 
1 0.682353 0.435294 1 0.682353 0.435294 
1 0.682353 0.435294 1 0.682353 0.435294 
1 0.682353 0.435294 1 0.682353 0.435294 
1 0.682353 0.435294 1 0.682353 0.435294 
1 0.682353 0.435294 1 0.682353 0.435294 
1 0.682353 0.435294 1 0.682353 0.435294 
1 0.682353 0.435294 1 0.682353 0.435294 
1 0.682353 0.435294 1 0.682353 0.435294 
1 0.682353 0.435294 1 0.682353 0.435294 
1 0.682353 0.435294 1 0.682353 0.435294 
1 0.682353 0.435294 1 0.682353 0.435294 
1 0.682353 0.435294 1 0.682353 0.435294 
1 0.682353 0.435294 1 0.682353 0.435294 
1 0.682353 0.435294 1 0.682353 0.435294 
1 0.682353 0.435294 1 0.682353 0.435294 
1 0.682353 0.435294 1 0.682353 0.435294 
1 0.682353 0.435294 1 0.682353 0.435294 
1 0.682353 0.435294 1 0.682353 0.435294 
1 0.682353 0.435294 1 0.682353 0.435294 
1 0.682353 0.435294 1 0.682353 0.435294 
1 0.682353 0.435294 1 0.682353 0.435294 
1 0.682353 0.435294 1 0.682353 0.435294 
1 0.682353 0.435294 1 0.682353 0.435294 
1 0.682353 0.435294 1 0.682353 0.435294 
1 0.682353 0.435294 1 0.682353 0.435294 
1 0.682353 0.435294 1 0.682353 0.435294 
1 0.682353 0.435294 1 0.682353 0.435294 
1 0.682353 0.435294 1 0.682353 0.435294 
1 0.682353 0.435294 1 0.682353 0.435294 
1 0.682353 0.435294 1 0.682353 0.435294 
1 0.682353 0.435294 1 0.682353 0.435294 
1 0.682353 0.435294 1 0.682353 0.435294 
1 0.682353 0.435294 1 0.682353 0.435294 
1 0.682353 0.435294 1 0.682353 0.435294 
1 0.682353 0.435294 1 0.682353 0.435294 
1 0.682353 0.435294 1 0.682353 0.435294 
1 0.682353 0.435294 1 0.682353 0.435294 
1 0.682353 0.435294 1 0.682353 0.435294 
1 0.682353 0.435294 1 0.682353 0.435294 
1 0.682353 0.435294 1 0.682353 0.435294 
1 0.682353 0.435294 1 0.682353 0.435294 
1 0.682353 0.435294 1 0.682353 0.435294 
1 0.682353 0.435294 1 0.682353 0.435294 
1 0.682353 0.435294 1 0.682353 0.435294 
1 0.682353 0.435294 1 0.682353 0.435294 
1 0.682353 0.435294 1 0.682353 0.435294 
1 0.682353 0.435294 1 0.682353 0.435294 
1 0.682353 0.435294 1 0.682353 0.435294 
1 0.682353 0.435294 1 0.682353 0.435294 
1 0.682353 0.435294 1 0.682353 0.435294 
1 0.682353 0.435294 1 0.682353 0.435294 
1 0.682353 0.435294 1 0.682353 0.435294 
1 0.682353 0.435294 1 0.682353 0.435294 
1 0.682353 0.435294 1 0.682353 0.435294 
1 0.682353 0.435294 1 0.682353 0.435294 
1 0.682353 0.435294 1 0.682353 0.435294 
1 0.682353 0.435294 1 0.682353 0.435294 
1 0.682353 0.435294 1 0.682353 0.435294 
1 0.682353 0.435294 1 0.682353 0.435294 
1 0.682353 0.435294 1 0.682353 0.435294 
1 0.682353 0.435294 1 0.682353 0.435294 
1 0.682353 0.435294 1 0.682353 0.435294 
1 0.682353 0.435294 1 0.682353 0.435294 
1 0.682353 0.435294 1 0.682353 0.435294 
1 0.682353 0.435294 1 0.682353 0.435294 
1 0.682353 0.435294 1 0.682353 0.435294 
1 0.682353 0.435294 1 0.682353 0.435294 
1 0.682353 0.435294 1 0.682353 0.435294 
1 0.682353 0.435294 1 0.682353 0.435294 
1 0.682353 0.435294 1 0.682353 0.435294 
1 0.682353 0.435294 1 0.682353 0.435294 
1 0.682353 0.435294 1 0.682353 0.435294 
1 0.682353 0.435294 1 0.682353 0.435294 
1 0.682353 0.435294 1 0.682353 0.435294 
1 0.682353 0.435294 1 0.682353 0.435294 
1 0.682353 0.435294 1 0.682353 0.435294 
1 0.682353 0.435294 1 0.682353 0.435294 
1 0.682353 0.435294 1 0.682353 0.435294 
1 0.682353 0.435294 1 0.682353 0.435294 
1 0.682353 0.435294 1 0.682353 0.435294 
1 0.682353 0.435294 1 0.682353 0.435294 
1 0.682353 0.435294 1 0.682353 0.435294 
1 0.682353 0.435294 1 0.682353 0.435294 
1 0.682353 0.435294 1 0.682353 0.435294 
1 0.682353 0.435294 1 0.682353 0.435294 
1 0.682353 0.435294 1 0.682353 0.435294 
1 0.682353 0.435294 1 0.682353 0.435294 
1 0.682353 0.435294 1 0.682353 0.435294 
1 0.682353 0.435294 1 0.682353 0.435294 
1 0.682353 0.435294 1 0.682353 0.435294 
1 0.682353 0.435294 1 0.682353 0.435294 
1 0.682353 0.435294 1 0.682353 0.435294 
1 0.682353 0.435294 1 0.682353 0.435294 
1 0.682353 0.435294 1 0.682353 0.435294 
1 0.682353 0.435294 1 0.682353 0.435294 
1 0.682353 0.435294 1 0.682353 0.435294 
1 0.682353 0.435294 1 0.682353 0.435294 
1 0.682353 0.435294 1 0.682353 0.435294 
1 0.682353 0.435294 1 0.682353 0.435294 
1 0.682353 0.435294 1 0.682353 0.435294 
1 0.682353 0.435294 1 0.682353 0.435294 
1 0.682353 0.435294 
NORMALS Normals float
0.130341 -0.327883 -0.935684 -0.0810595 0.0703842 -0.994221 -0.069454 -0.0293166 -0.997154 
0.0439861 -0.0880474 -0.995145 0.2369 -0.302007 -0.923401 -0.0677924 0.249727 -0.96594 
-0.0538422 0.384058 -0.921738 -0.122366 0.186426 -0.974819 0.15463 -0.123272 -0.980252 
-0.0221459 0.489912 -0.871491 -0.149496 0.786166 -0.599662 -0.345269 0.836093 -0.426306 
-0.274041 0.530217 -0.802353 -0.400685 0.585005 -0.705139 0.424313 -0.120885 -0.897411 
-0.559754 0.541887 -0.626924 -0.682693 0.40741 -0.606587 -0.212712 0.243164 -0.946375 
-0.624498 0.354859 -0.695756 -0.506456 0.25622 -0.823319 -0.498009 0.322173 -0.805103 
0.0158315 0.162596 -0.986566 -0.289929 0.478125 -0.829058 -0.43975 0.577277 -0.68802 
-0.0108102 0.392985 -0.919481 -0.0144161 0.488049 -0.872697 -0.000754266 -0.649378 -0.760466 
0.0778243 -0.591121 -0.80282 -0.123454 -0.183326 -0.975269 0.297716 -0.465254 -0.833609 
-0.150787 -0.126663 -0.980418 -0.17087 -0.129973 -0.976683 0.442204 -0.32538 -0.835813 
0.05534 0.209399 -0.976263 0.0181614 0.242049 -0.970094 0.0915322 0.288272 -0.953164 
0.0694969 0.754639 -0.652449 -0.00281137 0.806448 -0.591299 -0.30475 0.751056 -0.585699 
0.0156831 0.0855928 -0.996207 0.0888938 0.452969 -0.887083 0.230874 0.587099 -0.775894 
0.282598 0.595341 -0.752136 0.122749 0.944057 -0.306085 0.0348277 0.342961 -0.938704 
0.224469 0.313729 -0.922599 0.238643 0.634147 -0.735464 0.269678 0.559457 -0.783761 
-0.257205 0.108241 -0.960276 0.0192968 0.515312 -0.856785 0.051534 0.394426 -0.917481 
0.326355 0.469632 -0.820328 0.167347 0.716013 -0.677732 0.722761 -0.0903108 -0.685172 
0.231778 0.638004 -0.734323 -0.822197 0.46493 -0.328378 -0.761178 0.461254 -0.455909 
0.656087 0.0841228 -0.749982 0.373965 0.151015 -0.915065 0.66443 0.137439 -0.734604 
0.312093 0.379026 -0.87117 -0.149779 0.553869 -0.819021 0.242983 0.495475 -0.833945 
-0.491681 0.676036 -0.548839 -0.6026 0.704801 -0.374337 -0.299416 0.692931 -0.655893 
0.10722 0.642748 -0.758538 -0.0538196 -0.498371 -0.865292 0.327411 -0.648898 -0.686828 
0.550917 -0.486015 -0.678439 -0.339443 -0.350361 -0.872941 -0.0807075 0.985944 -0.14629 
0.286162 0.916358 -0.279997 -0.202646 0.962782 -0.178846 -0.414275 -0.226373 -0.88155 
-0.547507 -0.135646 -0.825734 0.413312 0.81978 -0.396401 -0.622647 0.749108 -0.226161 
0.383777 0.832569 -0.399429 -0.594067 -0.0233878 -0.804076 -0.55373 0.141506 -0.820585 
-0.34607 0.233988 -0.908562 0.398987 0.818541 -0.413279 -0.407242 0.348026 -0.844412 
-0.277313 0.435393 -0.856464 -0.130993 0.561062 -0.817343 -0.315911 0.593832 -0.739975 
0.12015 0.776392 -0.618691 -0.820007 0.494481 -0.288232 0.715137 0.32767 -0.617423 
-0.149268 0.814343 -0.560861 -0.569094 0.755408 -0.324793 -0.426458 -0.612724 -0.665359 
-0.644653 -0.52222 -0.558309 -0.723947 -0.405956 -0.557763 -0.31193 0.94985 -0.0220228 
-0.759521 0.0537525 -0.648258 -0.44984 0.43586 -0.779532 -0.587037 0.394367 -0.707009 
-0.485167 0.386343 -0.784444 -0.243091 0.630663 -0.737001 0.0149944 0.834695 -0.550509 
0.537601 0.593934 -0.598521 -0.292938 0.903073 -0.31408 -0.471267 0.877562 -0.0882721 
0.0415571 0.875744 -0.480983 0.653893 0.690929 -0.308289 0.0898328 0.948205 -0.304692 
0.179535 -0.6995 -0.691713 -0.355703 -0.584827 -0.729007 -0.331929 -0.520689 -0.786579 
-0.545921 -0.610081 -0.574258 -0.716351 -0.446044 -0.53655 0.700656 -0.392913 -0.595568 
0.839841 -0.292914 -0.457022 -0.795075 -0.254287 -0.55063 0.931266 -0.0304117 -0.36307 
-0.699436 0.490821 -0.519504 0.96641 0.1256 -0.224224 -0.614497 0.508894 -0.602843 
-0.352492 0.659186 -0.664246 0.884872 0.255005 -0.389838 -0.291588 0.851587 -0.435634 
-0.495457 -0.786266 -0.369199 -0.162731 -0.650563 -0.741813 0.675317 -0.571048 -0.466745 
-0.674038 -0.681022 -0.286148 0.707332 -0.543042 -0.452534 -0.788042 -0.614195 -0.0418738 
0.370471 0.928747 0.0134445 -0.841902 0.481338 -0.243955 0.946595 -0.181892 -0.266221 
-0.886002 -0.417083 -0.202591 -0.945858 -0.199 -0.256421 -0.967335 -0.101275 -0.232391 
-0.856727 0.211135 -0.470575 -0.876853 0.425053 -0.22463 -0.660869 0.696326 -0.279967 
-0.340045 0.930829 -0.133889 -0.134788 0.986794 -0.0898323 0.32751 0.926562 -0.184986 
0.383605 -0.682114 -0.622549 -0.652251 -0.71918 -0.239475 0.864327 -0.450242 -0.2241 
-0.791441 0.608747 -0.0552133 0.122716 0.97447 -0.188014 -0.400987 0.910248 -0.103238 
0.921021 0.382697 0.0725555 -0.46064 -0.875153 -0.148044 0.503892 -0.708921 -0.493482 
-0.807187 -0.587875 0.0533959 -0.0185029 0.99618 -0.0853413 -0.406505 0.903321 -0.136986 
-0.641033 0.746255 -0.179386 0.55771 0.815192 -0.156272 -0.983134 -0.0601294 0.172719 
-0.966724 0.255464 0.01348 0.992526 0.117977 0.0312038 -0.591236 0.786078 0.180336 
-0.897027 0.436712 0.0680034 -0.254368 0.966296 -0.03961 0.3268 0.93614 -0.129784 
0.459454 0.886241 -0.0589794 0.762525 0.641183 -0.0862493 -0.121128 -0.94663 -0.298696 
0.350706 -0.882723 -0.312739 0.165372 0.984462 -0.0590426 0.364078 0.928493 -0.0731271 
0.986705 -0.1327 0.093826 -0.847486 -0.497746 0.184437 -0.962533 -0.256837 0.0869734 
-0.884983 0.336731 0.321586 -0.692053 0.697372 0.186373 0.0275575 0.991657 -0.125922 
-0.0416654 0.998494 0.0356848 0.254956 0.964305 0.0715082 -0.316235 0.940026 0.127856 
0.572611 0.808914 0.133323 0.398773 0.906166 0.140864 -0.0872568 0.995906 0.0236232 
-0.298003 -0.935706 -0.18881 0.0896276 -0.884808 -0.457255 0.268099 -0.955319 -0.124451 
0.50122 -0.83448 -0.228955 0.684243 -0.725949 -0.0693587 -0.67033 -0.736878 0.0875652 