# vtk DataFile Version 4.2
vtk output
ASCII
DATASET POLYDATA
POINTS 367 float
431.475 171.661 186.438 431.612 171.329 186.596 430.732 172.339 186.221 
430.157 172.209 186.213 431.717 171.541 186.582 430.705 172.862 186.247 
431.093 172.566 186.295 431.493 172.458 186.489 431.828 172.068 186.794 
428.413 174.016 186.156 427.845 174.102 186.19 430.447 173.404 186.341 
431.49 172.877 186.584 427.536 174.329 186.283 427.519 174.652 186.369 
428.883 174.391 186.276 430.215 174.109 186.574 431.318 173.217 186.633 
428.919 174.856 186.481 431.592 170.907 186.872 431.906 171.001 187.17 
431.998 171.596 187.195 426.344 173.592 186.856 426.228 173.951 186.869 
431.603 173.031 186.809 431.81 172.775 187.032 426.331 174.431 186.837 
429.92 174.556 186.67 430.208 174.577 186.938 425.9 174.921 187.217 
427.955 175.268 186.67 426.083 175.3 187.283 431.684 169.606 187.774 
431.794 169.58 188.011 432.077 171.681 187.679 432.011 172.237 187.678 
425.384 173.153 187.884 431.675 173.114 187.09 430.774 174.318 187.272 
431.16 173.91 187.354 425.385 174.998 188.082 429.362 175.227 186.982 
429.772 175.055 187.182 425.94 175.743 187.603 427.5 176.087 187.376 
427.046 176.331 187.684 427.505 176.36 187.681 431.525 169.258 188.005 
432.051 170.352 188.343 432.088 171.119 188.249 430.851 174.294 187.567 
431.429 173.618 187.688 429.643 175.272 187.709 425.605 176.006 188.24 
428.356 176.159 187.679 426.291 176.44 188.14 426.025 176.425 188.391 
428.146 176.304 187.876 426.985 176.569 188.308 430.917 167.709 189.171 
430.591 167.74 189.095 431.333 168.349 188.789 431.156 167.822 189.211 
429.184 168.144 188.871 430.016 167.8 189.036 431.779 168.901 189.151 
425.565 170.182 189.438 431.646 172.937 188.332 431.182 173.649 188.492 
431.382 173.29 188.544 430.646 174.227 188.447 430.874 173.895 188.612 
430.18 174.622 188.419 425.415 175.846 188.542 428.893 175.895 187.972 
425.443 176.091 188.999 425.671 176.229 188.518 427.887 176.429 188.109 
425.587 176.267 188.824 425.945 176.417 188.775 426.379 176.505 188.786 
427.282 176.49 188.542 430.598 166.86 190.006 431.177 167.529 189.623 
431.27 167.448 190.048 429.195 166.856 189.917 431.575 168.212 189.84 
425.734 168.795 190.025 425.629 168.39 190.439 426.497 168.545 189.578 
431.823 170.768 189.381 425.293 171.086 189.785 431.496 172.19 189.232 
425.187 172.978 189.557 430.905 172.318 189.772 425.274 173.823 189.573 
431.011 173.415 188.894 427.45 175.596 189.407 426.8 175.637 189.537 
425.425 175.841 189.207 426.229 176.108 189.313 426.406 175.823 189.475 
427.86 175.903 189.014 425.52 176.112 189.171 426.225 176.347 189.068 
425.863 176.332 189.084 425.641 176.278 189.026 429.493 166.08 190.691 
430.578 166.564 190.439 430.96 166.869 190.398 426.86 166.202 190.935 
428.312 165.827 190.913 425.815 166.664 191.327 425.551 168.207 190.9 
431.61 169.111 190.198 431.281 169.615 190.578 431.396 169.215 190.543 
425.385 170.238 190.543 430.755 170.211 190.752 425.313 172.249 190.078 
427.499 172.609 190.756 430.43 171.622 190.376 426.428 172.727 190.676 
425.474 173.506 190.007 425.796 173.434 190.247 426.469 174.524 190.04 
425.596 175.951 189.316 425.717 176.163 189.231 425.987 165.546 191.908 
428.542 165.512 191.203 429.465 165.403 191.605 430.759 166.569 191.078 
425.736 166.47 191.723 426.249 166.038 191.351 430.995 167.049 191.009 
425.649 167.383 191.599 431.123 167.738 190.959 430.775 167.509 191.418 
430.514 167.637 191.617 425.562 170.68 190.857 425.662 170.083 191.207 
427.011 169.675 191.75 426.225 170.314 191.402 426.634 170.85 191.301 
425.866 171.949 190.713 425.58 173.019 190.255 426.111 164.46 192.705 
426.011 164.315 192.919 425.953 164.595 192.746 426.761 164.166 192.832 
428.194 164.511 192.336 428.353 164.439 192.525 429.06 164.792 192.314 
428.687 164.561 192.537 428.991 164.725 192.511 425.984 164.785 192.537 
427.329 164.671 192.147 429.061 164.955 192.012 429.253 164.921 192.364 
429.419 165.16 192.321 425.817 165.737 192.253 429.754 165.67 192.088 
425.747 166.521 192.073 428.186 166.328 192.713 428.892 165.855 192.627 
429.975 166.33 192.045 425.777 167.051 192.034 426.281 167.607 192.203 
425.888 163.696 193.358 425.846 163.689 193.359 426.086 163.859 193.219 
425.982 164.601 192.902 425.98 164.013 193.173 426.495 164.003 193.108 
428.214 164.392 192.738 428.673 164.656 192.697 428.224 164.502 192.864 
426.257 164.907 192.964 427.863 164.496 192.985 428.901 164.959 192.671 
429.119 164.909 192.529 426.662 165.446 192.913 426.093 164.018 193.246 
426.384 164.047 193.223 426.919 164.177 193.119 427.892 164.336 192.915 
424 161.009 261.017 424 161.009 261.017 424 161.009 261.017 
424 161.009 261.017 424 161.009 261.017 426.933 162.002 261.015 
426.922 162.002 261.015 426.933 162.002 261.015 426.962 162.002 261.015 
426.962 162.002 261.016 427.008 162.003 261.016 427.008 162.002 261.016 
427.053 162.003 261.016 427.053 162.003 261.016 427.082 162.003 261.017 
427.081 162.003 261.016 427.092 162.003 261.017 426.933 162.002 261.015 
426.962 162.003 261.015 427.008 162.003 261.016 427.053 162.003 261.016 
427.081 162.003 261.017 424 161.009 261.018 426.934 162.003 261.015 
426.962 162.003 261.016 427.008 162.003 261.016 427.053 162.003 261.016 
427.081 162.003 261.017 426.356 164.764 262.535 426.233 164.811 262.503 
426.676 164.725 262.551 426.662 164.789 262.457 427.501 164.717 262.541 
428.569 164.744 262.733 428.63 164.685 262.873 428.945 164.801 262.818 
428.86 164.724 262.855 429.043 164.793 262.904 426.258 164.922 262.496 
426.161 164.918 262.541 427.805 164.867 262.52 428.341 164.983 262.608 
429.259 165.006 262.971 426.174 165.101 262.587 426.18 165.561 262.812 
427.438 164.711 262.852 429.02 164.832 263.069 426.158 165.08 262.643 
426.281 165.127 262.788 428.398 164.859 263.31 429.284 165.024 263.402 
430.258 165.631 263.445 430.325 165.607 263.571 425.972 166.045 263.174 
425.834 166.441 263.221 425.991 166.19 263.034 426.294 165.567 263.157 
430.53 165.899 263.709 425.731 166.93 263.433 426.848 166.268 262.737 
425.676 167.516 263.565 428.526 166.641 262.847 430.632 166.731 263.687 
425.773 167.794 263.507 425.914 168.308 263.58 430.227 165.596 263.757 
430.467 165.886 264.18 431.022 166.541 264.459 426.694 166.131 264.013 
430.983 166.945 264.08 431.158 166.889 264.431 430.708 167.283 263.847 
430.229 168.389 263.856 426.468 169.483 263.755 425.676 170.343 264.472 
425.528 170.824 264.872 425.983 170.325 264.235 426.316 171.02 264.334 
426.44 166.631 264.246 428.994 166.318 264.892 431.005 166.655 264.775 
426.399 167.218 264.633 431.482 167.718 265.074 425.65 168.24 264.539 
425.803 168.232 264.806 429.022 171.1 264.388 431.339 170.728 265.443 
430.659 171.464 265.222 425.548 172.608 265.294 425.764 173.256 265.29 
426.29 173.462 265.166 425.344 174.191 265.841 425.558 174.845 265.882 
425.275 175.495 266.57 425.848 175.289 265.943 425.492 175.594 266.307 
430.581 166.86 265.28 430.387 172.293 265.441 430.825 172.758 266.017 
431.554 172.367 266.658 428.033 174.666 265.731 425.093 175.077 266.767 
426.296 175.856 266.194 425.577 175.914 266.561 425.889 176.143 266.561 
426.729 176.249 266.521 427.149 176.149 266.512 431.217 167.933 265.971 
431.511 168.417 266.173 431.729 169.025 266.307 425.101 173.959 266.837 
431.2 173.69 267.316 431.545 173.108 267.507 430.733 174.323 267.269 
425.136 175.226 267.168 429.845 174.854 266.821 430.461 174.777 267.5 
425.306 175.729 267.311 425.638 176.288 267.112 425.74 176.39 267.307 
426.942 176.374 266.72 427.337 176.317 266.812 430.472 170.095 268.017 
431.972 170.709 267.148 431.762 172.585 267.774 425.191 174.224 267.295 
425.192 174.84 267.43 431.058 174.182 267.999 431.235 173.764 268.276 
430.094 175.101 267.868 425.467 175.688 267.694 425.453 175.943 267.512 
425.94 176.473 267.397 426.098 176.423 267.59 426.251 176.506 267.398 
431.143 169.756 267.686 430.947 170.069 267.968 431.576 170.321 267.859 
429.693 170.722 268.346 431.431 170.642 268.133 431.913 171.574 267.797 
428.577 171.562 268.521 425.385 173.863 267.538 431.667 172.734 268.248 
425.742 174.32 268.096 425.378 175.046 267.773 430.949 174.231 268.293 
430.68 174.462 268.385 430.454 174.727 268.273 426.131 176.162 267.852 
426.96 175.92 268.347 426.492 176.381 267.712 427.16 176.088 268.207 
427.637 176.026 268.182 430.899 171.241 268.591 431.721 171.623 268.199 
427.871 173.073 268.874 426.47 174.266 268.561 431.347 173.212 268.695 
431.128 173.311 268.816 431.262 173.018 268.801 429.76 174.545 268.769 
426.853 175.164 268.639 428.198 175.356 268.711 428.547 175.039 268.815 
427.119 175.598 268.564 431.144 171.605 268.655 431.476 171.46 268.444 
430.573 172.34 268.956 431.005 172.14 268.831 431.255 172.572 268.773 
430.189 173.491 268.995 429.497 174.132 268.965 428.146 176.304 187.876 
425.846 163.689 193.359 424 161.009 261.017 424 161.009 261.017 
424 161.009 261.017 427.092 162.003 261.017 424 161.009 261.018 
426.729 176.249 266.521 
POLYGONS 702 2808
3 3 2 0 
3 6 0 2 
3 4 1 0 
3 4 0 6 
3 9 11 3 
3 10 9 3 
3 3 11 2 
3 2 11 5 
3 6 2 5 
3 4 6 7 
3 7 8 4 
3 11 9 16 
3 16 9 15 
3 6 5 17 
3 17 5 11 
3 12 25 7 
3 12 7 17 
3 17 7 6 
3 8 7 25 
3 10 13 14 
3 15 9 10 
3 27 16 15 
3 17 11 16 
3 18 10 14 
3 15 10 18 
3 27 15 18 
3 0 19 3 
3 1 19 0 
3 1 4 19 
3 19 4 20 
3 20 4 21 
3 4 8 21 
3 10 22 13 
3 12 24 25 
3 26 23 29 
3 23 26 22 
3 22 26 14 
3 13 22 14 
3 28 16 27 
3 28 17 16 
3 24 12 17 
3 14 26 29 
3 14 30 18 
3 27 18 41 
3 14 29 31 
3 44 14 31 
3 30 14 44 
3 32 19 20 
3 20 33 32 
3 33 20 49 
3 20 21 49 
3 49 21 34 
3 3 22 10 
3 21 8 34 
3 34 8 35 
3 25 24 37 
3 8 25 35 
3 40 23 36 
3 22 36 23 
3 38 39 28 
3 39 17 28 
3 37 24 17 
3 37 17 39 
3 29 23 40 
3 27 41 42 
3 28 27 42 
3 29 40 53 
3 31 53 43 
3 31 29 53 
3 31 45 44 
3 43 45 31 
3 57 30 44 
3 57 54 30 
3 54 18 30 
3 41 18 54 
3 45 43 55 
3 46 44 45 
3 57 44 46 
3 47 61 60 
3 61 47 33 
3 19 32 60 
3 47 60 32 
3 47 32 33 
3 89 3 19 
3 33 49 48 
3 66 36 89 
3 22 89 36 
3 3 89 22 
3 35 25 51 
3 36 95 40 
3 39 38 50 
3 71 39 50 
3 71 51 39 
3 51 37 39 
3 51 25 37 
3 95 73 40 
3 42 52 28 
3 50 38 28 
3 50 28 52 
3 40 73 53 
3 74 41 54 
3 52 42 41 
3 74 52 41 
3 43 53 56 
3 55 43 56 
3 55 46 45 
3 57 46 77 
3 55 56 80 
3 58 55 80 
3 46 55 58 
3 77 46 58 
3 62 59 60 
3 63 60 64 
3 61 62 60 
3 61 33 62 
3 62 33 65 
3 60 63 19 
3 63 89 19 
3 33 48 65 
3 66 93 36 
3 34 35 67 
3 36 93 95 
3 68 69 67 
3 68 67 51 
3 51 67 35 
3 68 51 71 
3 70 71 50 
3 70 50 72 
3 72 50 52 
3 99 73 95 
3 52 74 72 
3 75 73 99 
3 53 76 56 
3 53 73 76 
3 73 75 76 
3 54 359 77 
3 54 77 74 
3 76 75 78 
3 79 76 78 
3 56 76 79 
3 56 79 80 
3 77 58 81 
3 58 80 81 
3 82 83 84 
3 89 64 85 
3 85 64 82 
3 83 82 60 
3 83 60 59 
3 62 83 59 
3 83 62 84 
3 84 62 86 
3 64 89 63 
3 60 82 64 
3 62 65 86 
3 86 65 114 
3 87 89 112 
3 88 87 112 
3 114 65 90 
3 89 87 66 
3 65 48 90 
3 48 49 90 
3 90 49 92 
3 66 91 93 
3 34 92 49 
3 92 67 94 
3 92 34 67 
3 69 68 96 
3 69 96 67 
3 67 96 94 
3 96 70 72 
3 71 70 96 
3 68 71 96 
3 98 120 97 
3 120 102 97 
3 72 102 120 
3 80 100 101 
3 98 80 101 
3 98 97 80 
3 97 81 80 
3 102 81 97 
3 72 74 102 
3 99 103 75 
3 104 105 127 
3 100 104 127 
3 100 80 104 
3 77 81 102 
3 74 77 102 
3 75 103 106 
3 78 75 106 
3 105 104 79 
3 105 79 106 
3 106 79 78 
3 80 79 104 
3 130 107 108 
3 108 109 131 
3 130 111 107 
3 108 107 85 
3 109 108 82 
3 109 82 84 
3 109 84 134 
3 110 112 89 
3 111 110 89 
3 107 111 89 
3 85 107 89 
3 108 85 82 
3 84 86 134 
3 113 88 135 
3 112 135 88 
3 88 113 87 
3 115 116 114 
3 115 114 90 
3 87 113 66 
3 113 117 66 
3 90 118 115 
3 66 117 91 
3 117 119 91 
3 90 92 118 
3 91 119 93 
3 118 121 120 
3 92 121 118 
3 119 145 93 
3 122 120 124 
3 121 72 120 
3 94 72 121 
3 92 94 121 
3 123 95 145 
3 145 95 93 
3 123 124 95 
3 94 96 72 
3 124 125 95 
3 120 125 124 
3 120 98 125 
3 95 126 99 
3 125 126 95 
3 98 126 125 
3 101 100 126 
3 98 101 126 
3 126 127 103 
3 99 126 103 
3 100 127 126 
3 103 127 106 
3 105 106 127 
3 128 129 156 
3 156 129 157 
3 129 130 157 
3 108 131 130 
3 128 132 133 
3 110 128 133 
3 111 128 110 
3 129 128 111 
3 130 129 111 
3 134 137 131 
3 131 109 134 
3 112 133 132 
3 112 132 135 
3 110 133 112 
3 137 134 136 
3 134 86 136 
3 135 117 113 
3 137 136 138 
3 136 116 138 
3 86 116 136 
3 114 116 86 
3 117 140 139 
3 138 118 163 
3 115 118 116 
3 116 118 138 
3 139 144 119 
3 117 139 119 
3 139 142 143 
3 140 142 139 
3 142 141 143 
3 120 143 141 
3 163 118 141 
3 118 120 141 
3 144 145 119 
3 143 144 139 
3 120 122 144 
3 120 144 143 
3 144 122 145 
3 124 123 145 
3 122 124 145 
3 146 147 148 
3 146 149 147 
3 150 153 151 
3 153 152 154 
3 155 146 148 
3 149 146 155 
3 151 149 156 
3 150 151 156 
3 153 150 157 
3 152 153 157 
3 158 154 152 
3 158 152 157 
3 128 155 148 
3 160 128 148 
3 149 155 128 
3 156 149 128 
3 157 150 156 
3 158 157 130 
3 158 130 131 
3 158 131 161 
3 158 161 159 
3 161 131 137 
3 132 128 160 
3 132 160 162 
3 163 164 165 
3 164 161 165 
3 161 137 165 
3 166 135 162 
3 162 135 132 
3 135 166 117 
3 167 141 166 
3 138 163 165 
3 137 138 165 
3 166 140 117 
3 141 140 166 
3 163 141 167 
3 141 142 140 
3 169 170 168 
3 147 171 148 
3 169 172 170 
3 170 172 147 
3 171 147 172 
3 170 173 168 
3 170 147 173 
3 147 149 173 
3 151 174 149 
3 149 174 173 
3 175 176 174 
3 175 174 153 
3 153 174 151 
3 153 154 175 
3 182 171 172 
3 182 177 171 
3 177 182 184 
3 176 175 178 
3 154 158 180 
3 154 180 175 
3 175 180 179 
3 158 159 180 
3 171 166 160 
3 148 171 160 
3 184 181 177 
3 181 171 177 
3 178 181 184 
3 180 159 179 
3 160 166 162 
3 181 167 171 
3 167 166 171 
3 178 167 181 
3 163 178 175 
3 164 163 175 
3 179 164 175 
3 161 164 179 
3 159 161 179 
3 178 163 167 
3 172 360 182 
3 182 360 168 
3 168 173 183 
3 168 183 182 
3 173 174 184 
3 183 173 184 
3 184 174 185 
3 174 176 185 
3 184 182 183 
3 185 178 184 
3 176 178 185 
3 186 187 188 
3 187 186 189 
3 361 362 190 
3 191 192 193 
3 363 361 190 
3 193 194 195 
3 191 193 195 
3 194 196 197 
3 195 194 197 
3 196 198 199 
3 197 196 199 
3 198 200 201 
3 199 198 201 
3 201 200 202 
3 193 192 203 
3 194 193 203 
3 204 194 203 
3 196 194 204 
3 205 196 204 
3 198 196 205 
3 206 198 205 
3 200 198 206 
3 207 200 206 
3 202 200 207 
3 187 208 188 
3 187 189 208 
3 362 365 190 
3 363 190 365 
3 191 209 192 
3 191 195 210 
3 209 191 210 
3 195 197 211 
3 210 195 211 
3 197 199 212 
3 211 197 212 
3 199 201 213 
3 212 199 213 
3 201 364 213 
3 216 214 215 
3 216 215 217 
3 203 192 209 
3 210 204 209 
3 209 204 203 
3 218 220 216 
3 218 216 217 
3 211 205 210 
3 210 205 204 
3 212 206 211 
3 211 206 205 
3 219 220 218 
3 213 207 212 
3 212 207 206 
3 219 221 222 
3 219 222 220 
3 213 364 207 
3 222 221 223 
3 225 224 215 
3 218 217 226 
3 219 218 227 
3 227 218 226 
3 221 219 227 
3 228 223 221 
3 224 225 229 
3 229 230 224 
3 217 215 224 
3 224 230 245 
3 217 224 245 
3 226 217 245 
3 216 220 231 
3 220 222 232 
3 222 223 232 
3 215 233 225 
3 214 234 215 
3 234 233 215 
3 216 234 214 
3 231 234 216 
3 235 231 220 
3 232 235 220 
3 236 235 232 
3 232 223 228 
3 237 232 228 
3 232 237 238 
3 233 229 225 
3 239 240 241 
3 239 230 242 
3 239 241 230 
3 242 230 234 
3 229 233 230 
3 234 230 233 
3 235 234 231 
3 221 227 248 
3 221 248 228 
3 228 248 237 
3 243 238 237 
3 244 241 240 
3 230 241 245 
3 226 248 227 
3 245 248 226 
3 248 243 237 
3 249 241 244 
3 246 249 244 
3 245 241 249 
3 248 245 247 
3 249 246 250 
3 245 249 250 
3 232 238 251 
3 236 232 251 
3 239 242 269 
3 242 234 254 
3 269 242 254 
3 254 234 235 
3 251 252 236 
3 251 238 243 
3 251 243 252 
3 243 256 253 
3 239 269 244 
3 240 239 244 
3 256 248 255 
3 243 248 256 
3 248 257 255 
3 248 258 257 
3 255 257 258 
3 256 255 272 
3 260 250 246 
3 260 259 250 
3 250 259 245 
3 247 271 248 
3 271 258 248 
3 272 255 258 
3 261 260 246 
3 263 245 259 
3 271 247 263 
3 263 247 245 
3 259 260 262 
3 263 259 262 
3 262 260 261 
3 263 262 261 
3 235 236 265 
3 265 236 252 
3 243 253 252 
3 269 254 264 
3 254 235 264 
3 264 235 265 
3 266 265 252 
3 266 252 253 
3 266 253 268 
3 268 253 256 
3 264 267 269 
3 267 264 265 
3 267 270 269 
3 272 268 256 
3 269 296 244 
3 244 296 246 
3 270 296 269 
3 271 272 258 
3 309 268 272 
3 246 296 261 
3 272 271 273 
3 274 263 261 
3 287 274 261 
3 271 263 276 
3 276 263 274 
3 286 273 271 
3 277 274 287 
3 275 274 277 
3 276 274 275 
3 286 271 276 
3 277 276 275 
3 280 276 277 
3 278 280 277 
3 279 281 277 
3 281 280 278 
3 281 278 277 
3 265 266 282 
3 293 265 282 
3 266 293 282 
3 293 266 268 
3 265 270 267 
3 273 285 272 
3 283 285 273 
3 310 309 272 
3 285 310 272 
3 261 296 287 
3 286 283 273 
3 286 284 283 
3 285 283 284 
3 276 280 288 
3 284 286 301 
3 277 287 279 
3 287 300 279 
3 280 281 288 
3 286 276 292 
3 292 276 288 
3 307 286 292 
3 301 286 307 
3 289 281 279 
3 289 279 304 
3 304 279 300 
3 281 289 288 
3 289 290 288 
3 291 292 288 
3 290 289 304 
3 306 288 290 
3 366 288 306 
3 294 293 268 
3 294 268 295 
3 308 270 265 
3 268 309 295 
3 327 270 308 
3 298 285 284 
3 297 298 284 
3 313 314 297 
3 313 297 299 
3 299 297 284 
3 298 297 314 
3 301 302 284 
3 302 299 284 
3 313 299 302 
3 317 304 303 
3 303 304 300 
3 317 305 304 
3 292 291 306 
3 306 307 292 
3 304 305 318 
3 304 318 290 
3 306 290 320 
3 290 318 320 
3 307 306 320 
3 265 293 308 
3 321 308 293 
3 294 321 293 
3 321 294 295 
3 321 295 323 
3 323 295 309 
3 270 327 342 
3 308 324 327 
3 342 343 270 
3 270 311 296 
3 285 298 310 
3 296 311 287 
3 311 312 287 
3 287 312 300 
3 312 316 300 
3 315 333 302 
3 333 313 302 
3 316 317 303 
3 316 303 300 
3 307 315 301 
3 315 302 301 
3 317 318 305 
3 318 319 320 
3 321 322 308 
3 322 321 323 
3 308 325 324 
3 308 322 325 
3 323 325 322 
3 309 310 326 
3 328 270 343 
3 326 310 329 
3 328 330 311 
3 270 328 311 
3 343 330 328 
3 310 298 329 
3 329 298 344 
3 330 331 312 
3 311 330 312 
3 332 314 313 
3 332 333 314 
3 333 344 314 
3 344 298 314 
3 312 331 316 
3 334 333 315 
3 313 333 332 
3 317 348 335 
3 316 348 317 
3 335 348 336 
3 317 335 318 
3 319 318 335 
3 319 335 337 
3 337 335 336 
3 338 337 336 
3 315 307 339 
3 319 337 320 
3 338 320 337 
3 307 320 338 
3 339 307 338 
3 324 325 340 
3 325 353 340 
3 323 353 325 
3 323 309 341 
3 341 309 326 
3 327 324 340 
3 341 326 344 
3 326 329 344 
3 344 345 346 
3 330 348 331 
3 334 345 333 
3 345 344 333 
3 331 348 316 
3 348 330 343 
3 347 339 350 
3 334 339 347 
3 334 315 339 
3 336 351 339 
3 348 351 336 
3 351 349 339 
3 350 339 349 
3 336 339 338 
3 340 353 352 
3 355 340 352 
3 323 341 353 
3 327 340 355 
3 327 355 354 
3 341 344 352 
3 353 341 352 
3 342 327 354 
3 352 356 355 
3 356 354 355 
3 352 344 356 
3 342 348 343 
3 354 348 342 
3 345 357 354 
3 346 345 356 
3 356 345 354 
3 344 346 356 
3 354 358 348 
3 334 347 358 
3 334 358 357 
3 357 358 354 
3 345 334 357 
3 350 349 348 
3 358 350 348 
3 347 350 358 
3 348 349 351 

POINT_DATA 367
COLOR_SCALARS scalars 3
1 0.764706 0.584314 1 0.764706 0.584314 1 0.764706 0.584314 
1 0.764706 0.584314 1 0.764706 0.584314 
1 0.764706 0.584314 1 0.764706 0.584314 
1 0.764706 0.584314 1 0.764706 0.584314 
1 0.764706 0.584314 1 0.764706 0.584314 
1 0.764706 0.584314 1 0.764706 0.584314 
1 0.764706 0.584314 1 0.764706 0.584314 
1 0.764706 0.584314 1 0.764706 0.584314 
1 0.764706 0.584314 1 0.764706 0.584314 
1 0.764706 0.584314 1 0.764706 0.584314 
1 0.764706 0.584314 1 0.764706 0.584314 
1 0.764706 0.584314 1 0.764706 0.584314 
1 0.764706 0.584314 1 0.764706 0.584314 
1 0.764706 0.584314 1 0.764706 0.584314 
1 0.764706 0.584314 1 0.764706 0.584314 
1 0.764706 0.584314 1 0.764706 0.584314 
1 0.764706 0.584314 1 0.764706 0.584314 
1 0.764706 0.584314 1 0.764706 0.584314 
1 0.764706 0.584314 1 0.764706 0.584314 
1 0.764706 0.584314 1 0.764706 0.584314 
1 0.764706 0.584314 1 0.764706 0.584314 
1 0.764706 0.584314 1 0.764706 0.584314 
1 0.764706 0.584314 1 0.764706 0.584314 
1 0.764706 0.584314 1 0.764706 0.584314 
1 0.764706 0.584314 1 0.764706 0.584314 
1 0.764706 0.584314 1 0.764706 0.584314 
1 0.764706 0.584314 1 0.764706 0.584314 
1 0.764706 0.584314 1 0.764706 0.584314 
1 0.764706 0.584314 1 0.764706 0.584314 
1 0.764706 0.584314 1 0.764706 0.584314 
1 0.764706 0.584314 1 0.764706 0.584314 
1 0.764706 0.584314 1 0.764706 0.584314 
1 0.764706 0.584314 1 0.764706 0.584314 
1 0.764706 0.584314 1 0.764706 0.584314 
1 0.764706 0.584314 1 0.764706 0.584314 
1 0.764706 0.584314 1 0.764706 0.584314 
1 0.764706 0.584314 1 0.764706 0.584314 
1 0.764706 0.584314 1 0.764706 0.584314 
1 0.764706 0.584314 1 0.764706 0.584314 
1 0.764706 0.584314 1 0.764706 0.584314 
1 0.764706 0.584314 1 0.764706 0.584314 
1 0.764706 0.584314 1 0.764706 0.584314 
1 0.764706 0.584314 1 0.764706 0.584314 
1 0.764706 0.584314 1 0.764706 0.584314 
1 0.764706 0.584314 1 0.764706 0.584314 
1 0.764706 0.584314 1 0.764706 0.584314 
1 0.764706 0.584314 1 0.764706 0.584314 
1 0.764706 0.584314 1 0.764706 0.584314 
1 0.764706 0.584314 1 0.764706 0.584314 
1 0.764706 0.584314 1 0.764706 0.584314 
1 0.764706 0.584314 1 0.764706 0.584314 
1 0.764706 0.584314 1 0.764706 0.584314 
1 0.764706 0.584314 1 0.764706 0.584314 
1 0.764706 0.584314 1 0.764706 0.584314 
1 0.764706 0.584314 1 0.764706 0.584314 
1 0.764706 0.584314 1 0.764706 0.584314 
1 0.764706 0.584314 1 0.764706 0.584314 
1 0.764706 0.584314 1 0.764706 0.584314 
1 0.764706 0.584314 1 0.764706 0.584314 
1 0.764706 0.584314 1 0.764706 0.584314 
1 0.764706 0.584314 1 0.764706 0.584314 
1 0.764706 0.584314 1 0.764706 0.584314 
1 0.764706 0.584314 1 0.764706 0.584314 
1 0.764706 0.584314 1 0.764706 0.584314 
1 0.764706 0.584314 1 0.764706 0.584314 
1 0.764706 0.584314 1 0.764706 0.584314 
1 0.764706 0.584314 1 0.764706 0.584314 
1 0.764706 0.584314 1 0.764706 0.584314 
1 0.764706 0.584314 1 0.764706 0.584314 
1 0.764706 0.584314 1 0.764706 0.584314 
1 0.764706 0.584314 1 0.764706 0.584314 
1 0.764706 0.584314 1 0.764706 0.584314 
1 0.764706 0.584314 1 0.764706 0.584314 
1 0.764706 0.584314 1 0.764706 0.584314 
1 0.764706 0.584314 1 0.764706 0.584314 
1 0.764706 0.584314 1 0.764706 0.584314 
1 0.764706 0.584314 1 0.764706 0.584314 
1 0.764706 0.584314 1 0.764706 0.584314 
1 0.764706 0.584314 1 0.764706 0.584314 
1 0.764706 0.584314 1 0.764706 0.584314 
1 0.764706 0.584314 1 0.764706 0.584314 
1 0.764706 0.584314 1 0.764706 0.584314 
1 0.764706 0.584314 1 0.764706 0.584314 
1 0.764706 0.584314 1 0.764706 0.584314 
1 0.764706 0.584314 1 0.764706 0.584314 
1 0.764706 0.584314 1 0.764706 0.584314 
1 0.764706 0.584314 1 0.764706 0.584314 
1 0.764706 0.584314 1 0.764706 0.584314 
1 0.764706 0.584314 1 0.764706 0.584314 
1 0.764706 0.584314 1 0.764706 0.584314 
1 0.764706 0.584314 1 0.764706 0.584314 
1 0.764706 0.584314 1 0.764706 0.584314 
1 0.764706 0.584314 1 0.764706 0.584314 
1 0.764706 0.584314 1 0.764706 0.584314 
1 0.764706 0.584314 1 0.764706 0.584314 
1 0.764706 0.584314 1 0.764706 0.584314 
1 0.764706 0.584314 1 0.764706 0.584314 
1 0.764706 0.584314 1 0.764706 0.584314 
1 0.764706 0.584314 1 0.764706 0.584314 
1 0.764706 0.584314 1 0.764706 0.584314 
1 0.764706 0.584314 1 0.764706 0.584314 
1 0.764706 0.584314 1 0.764706 0.584314 
1 0.764706 0.584314 1 0.764706 0.584314 
1 0.764706 0.584314 1 0.764706 0.584314 
1 0.764706 0.584314 1 0.764706 0.584314 
1 0.764706 0.584314 1 0.764706 0.584314 
1 0.764706 0.584314 1 0.764706 0.584314 
1 0.764706 0.584314 1 0.764706 0.584314 
1 0.764706 0.584314 1 0.764706 0.584314 
1 0.764706 0.584314 1 0.764706 0.584314 
1 0.764706 0.584314 1 0.764706 0.584314 
1 0.764706 0.584314 1 0.764706 0.584314 
1 0.764706 0.584314 1 0.764706 0.584314 
1 0.764706 0.584314 1 0.764706 0.584314 
1 0.764706 0.584314 1 0.764706 0.584314 
1 0.764706 0.584314 1 0.764706 0.584314 
1 0.764706 0.584314 1 0.764706 0.584314 
1 0.764706 0.584314 1 0.764706 0.584314 
1 0.764706 0.584314 1 0.764706 0.584314 
1 0.764706 0.584314 1 0.764706 0.584314 
1 0.764706 0.584314 1 0.764706 0.584314 
1 0.764706 0.584314 1 0.764706 0.584314 
1 0.764706 0.584314 1 0.764706 0.584314 
1 0.764706 0.584314 1 0.764706 0.584314 
1 0.764706 0.584314 1 0.764706 0.584314 
1 0.764706 0.584314 1 0.764706 0.584314 
1 0.764706 0.584314 1 0.764706 0.584314 
1 0.764706 0.584314 1 0.764706 0.584314 
1 0.764706 0.584314 1 0.764706 0.584314 
1 0.764706 0.584314 1 0.764706 0.584314 
1 0.764706 0.584314 1 0.764706 0.584314 
1 0.764706 0.584314 1 0.764706 0.584314 
1 0.764706 0.584314 1 0.764706 0.584314 
1 0.764706 0.584314 1 0.764706 0.584314 
1 0.764706 0.584314 1 0.764706 0.584314 
1 0.764706 0.584314 1 0.764706 0.584314 
1 0.764706 0.584314 1 0.764706 0.584314 
1 0.764706 0.584314 1 0.764706 0.584314 
1 0.764706 0.584314 1 0.764706 0.584314 
1 0.764706 0.584314 1 0.764706 0.584314 
1 0.764706 0.584314 1 0.764706 0.584314 
1 0.764706 0.584314 1 0.764706 0.584314 
1 0.764706 0.584314 1 0.764706 0.584314 
1 0.764706 0.584314 1 0.764706 0.584314 
1 0.764706 0.584314 1 0.764706 0.584314 
1 0.764706 0.584314 1 0.764706 0.584314 
1 0.764706 0.584314 1 0.764706 0.584314 
1 0.764706 0.584314 1 0.764706 0.584314 
1 0.764706 0.584314 1 0.764706 0.584314 
1 0.764706 0.584314 1 0.764706 0.584314 
1 0.764706 0.584314 1 0.764706 0.584314 
1 0.764706 0.584314 1 0.764706 0.584314 
1 0.764706 0.584314 1 0.764706 0.584314 
1 0.764706 0.584314 1 0.764706 0.584314 
1 0.764706 0.584314 1 0.764706 0.584314 
1 0.764706 0.584314 1 0.764706 0.584314 
1 0.764706 0.584314 1 0.764706 0.584314 
1 0.764706 0.584314 1 0.764706 0.584314 
1 0.764706 0.584314 1 0.764706 0.584314 
1 0.764706 0.584314 1 0.764706 0.584314 
1 0.764706 0.584314 1 0.764706 0.584314 
1 0.764706 0.584314 1 0.764706 0.584314 
1 0.764706 0.584314 1 0.764706 0.584314 
1 0.764706 0.584314 1 0.764706 0.584314 
1 0.764706 0.584314 1 0.764706 0.584314 
1 0.764706 0.584314 1 0.764706 0.584314 
1 0.764706 0.584314 1 0.764706 0.584314 
1 0.764706 0.584314 1 0.764706 0.584314 
1 0.764706 0.584314 1 0.764706 0.584314 
1 0.764706 0.584314 1 0.764706 0.584314 
1 0.764706 0.584314 1 0.764706 0.584314 
1 0.764706 0.584314 1 0.764706 0.584314 
1 0.764706 0.584314 1 0.764706 0.584314 
1 0.764706 0.584314 1 0.764706 0.584314 
1 0.764706 0.584314 1 0.764706 0.584314 
1 0.764706 0.584314 1 0.764706 0.584314 
1 0.764706 0.584314 1 0.764706 0.584314 
1 0.764706 0.584314 1 0.764706 0.584314 
1 0.764706 0.584314 1 0.764706 0.584314 
1 0.764706 0.584314 1 0.764706 0.584314 
1 0.764706 0.584314 1 0.764706 0.584314 
1 0.764706 0.584314 1 0.764706 0.584314 
1 0.764706 0.584314 1 0.764706 0.584314 

NORMALS Normals float
0.156676 -0.261825 -0.952313 0.309468 -0.438288 -0.84388 0.0351973 -0.0191892 -0.999196 
-0.0929646 -0.267562 -0.959045 0.708337 -0.129573 -0.69388 0.1584 0.194264 -0.968076 
0.378367 0.121427 -0.917657 0.595889 0.167601 -0.785383 0.911626 0.120099 -0.393084 
0.0911417 0.140282 -0.985908 -0.126487 0.107664 -0.986108 0.128234 0.226468 -0.96554 
0.653495 0.256174 -0.712263 -0.340748 0.110795 -0.933603 -0.256553 0.337982 -0.90551 
0.149429 0.304779 -0.940628 0.361475 0.381681 -0.850679 0.509463 0.459048 -0.72782 
0.138515 0.52036 -0.842638 0.154128 -0.530577 -0.833506 0.876236 -0.264544 -0.402774 
0.963352 -0.0467879 -0.264129 -0.426009 -0.179598 -0.886714 -0.655549 -0.0383466 -0.754178 
0.76688 0.429049 -0.477296 0.910461 0.26607 -0.31665 -0.398857 0.0882286 -0.912759 
0.416704 0.554556 -0.720295 0.583765 0.676028 -0.449671 -0.650122 0.227385 -0.725009 
0.0266864 0.651945 -0.757796 -0.46406 0.431513 -0.773593 0.44753 -0.528456 -0.721423 
0.868014 -0.376048 -0.324252 0.989529 0.127293 0.0680302 0.97357 0.227722 0.017424 
-0.870683 -0.146183 -0.469619 0.812214 0.530267 -0.243159 0.631253 0.71234 -0.306744 
0.742247 0.631209 -0.225043 -0.924503 0.0919618 -0.369916 0.449291 0.76253 -0.465495 
0.554446 0.750284 -0.360087 -0.515947 0.559235 -0.648888 -0.0461523 0.659502 -0.750285 
-0.184015 0.709641 -0.680109 0.0577397 0.896567 -0.439128 0.375306 -0.626335 -0.683264 
0.993034 -0.112082 -0.0363591 0.999828 -0.00465822 -0.017942 0.673643 0.736838 0.0572254 
0.835982 0.540906 0.0924929 0.61754 0.78185 -0.0857655 -0.755891 0.437668 -0.486904 
0.42626 0.833061 -0.35258 -0.223775 0.906265 -0.35862 -0.421224 0.857118 -0.296512 
0.159978 0.801364 -0.576388 0.021293 0.996989 -0.0745623 0.243597 -0.664269 -0.706688 
0.0807117 -0.594227 -0.800238 0.546905 -0.621775 -0.560617 0.716812 -0.501941 -0.483979 
-0.132982 -0.549047 -0.825144 -0.0793119 -0.645971 -0.75923 0.967389 -0.252816 -0.0156097 
-0.883574 -0.24293 -0.400353 0.849897 0.346533 0.396975 0.749456 0.554967 0.361008 
0.773357 0.368666 0.515756 0.537234 0.666748 0.516553 0.649976 0.65914 0.37824 
0.493898 0.649686 0.577903 -0.952031 0.265081 -0.152866 0.565345 0.819579 0.0931464 
-0.869055 0.49326 0.0379274 -0.683453 0.682205 -0.259787 0.413898 0.887298 0.203448 
-0.619184 0.780895 -0.0825508 -0.292388 0.952699 0.0829121 0.102198 0.904968 0.413023 
0.210225 0.864532 0.456497 0.325017 -0.745617 -0.581739 0.511498 -0.727896 -0.456659 
0.845249 -0.494569 -0.202375 -0.0824215 -0.71343 -0.695863 0.948353 -0.280602 0.14795 
-0.80277 -0.280394 -0.526251 -0.939828 -0.19394 -0.281266 -0.36582 -0.52668 -0.767323 
0.902381 0.132925 0.409926 -0.992552 -0.0980814 -0.0722487 0.804642 0.289366 0.518477 
-0.996092 0.0198047 0.0860714 0.556945 0.448869 0.698806 -0.879332 0.212512 0.426162 
0.562407 0.46111 0.68635 0.248539 0.586668 0.770746 0.0760079 0.439655 0.894945 
-0.890269 0.220454 0.398523 0.146478 0.602238 0.784763 0.104501 0.461346 0.881044 
0.422503 0.636898 0.644866 -0.622405 0.55809 0.54877 0.0465598 0.817044 0.574693 
-0.165041 0.872817 0.459294 -0.473563 0.82943 0.296284 -0.00675181 -0.718137 -0.695869 
0.375084 -0.799563 -0.469053 0.743681 -0.633828 -0.212605 -0.327157 -0.553873 -0.765632 
-0.0425713 -0.648324 -0.760174 -0.75029 -0.377627 -0.542644 -0.975078 -0.133544 -0.177166 
0.918913 -0.0110217 0.394307 0.702041 0.195881 0.684667 0.742426 0.0262991 0.669411 
-0.983736 -0.023327 0.178101 0.433836 0.271367 0.859154 -0.890201 0.0949408 0.445565 
0.123611 0.365319 0.922639 0.418481 0.387 0.821647 -0.20267 0.284694 0.936949 
-0.637725 0.360452 0.680721 -0.337173 0.422799 0.841163 -0.230994 0.360241 0.903807 