# vtk DataFile Version 4.2
vtk output
ASCII
DATASET POLYDATA
POINTS 809 float
300.189 129.316 121.501 302.215 130.312 121.374 301.641 129.555 121.463 
305.72 131.643 121.307 303.65 133.913 121.679 303.992 133.666 121.467 
308.97 135.866 121.124 312.551 136.508 121.22 308.181 137.217 121.6 
314.647 138.871 121.308 314.487 139.626 121.37 316.053 139.909 121.527 
315.56 141.132 121.698 316.556 140.898 121.734 293.608 126.249 122.875 
295.528 126.925 122.31 300.386 127.505 121.942 299.237 127.998 121.703 
297.292 129.082 122.103 298.545 130.419 122.24 302.038 132.962 121.962 
302.95 133.667 121.928 303.916 134.434 121.918 303.569 134.703 122.672 
315.47 136.428 121.99 306.856 137.262 122.665 309.021 138.257 122.01 
315.8 138.757 121.548 308.568 138.454 122.786 310.324 139.533 122.668 
318.054 141.388 122.193 314.319 142.001 122.688 291.27 124.325 123.783 
290.868 124.674 123.976 292.071 125.144 123.46 292.596 125.033 123.277 
290.932 125.054 124.067 291.756 125.538 123.707 301.344 125.576 123.164 
292.478 126.381 123.622 292.973 127.313 123.916 293.992 128.144 123.95 
296.023 129.333 123.608 297.421 130.338 123.634 298.46 130.99 123.121 
299.054 131.446 123.335 318.39 136.022 123.386 306.535 137.081 122.807 
308.038 138.12 123.245 309.117 138.89 123.212 309.558 139.17 123.127 
320.974 141.743 123.239 319.514 143.693 122.885 316.229 144.254 123.578 
317.418 145.008 123.52 318.454 145.574 123.574 319.279 145.082 123.283 
320.772 144.931 123.467 319.866 145.658 123.575 289.851 122.96 124.741 
291.476 123.371 124.017 290.995 122.724 124.417 292.445 123.258 123.876 
290.425 124.376 124.278 290.525 125.415 124.723 295.398 129.088 124.283 
295.819 129.329 124.054 297.933 130.722 123.816 298.827 131.33 123.756 
304.478 135.38 123.251 306.159 136.696 123.268 308.265 138.248 123.383 
309.029 138.731 123.488 311.082 140.062 123.509 313.457 141.848 124.061 
319.639 146.274 123.916 320.249 146.92 124.298 289.087 121.558 125.724 
288.733 121.734 125.851 288.633 122.072 125.845 295.33 122.039 124.615 
289.387 122.835 125.109 288.764 123.152 125.763 289.391 124.327 125.51 
291.04 126.029 125.16 296.252 129.515 124.502 298.081 130.68 124.306 
298.92 130.802 124.99 299.19 131.355 124.378 301.826 133.377 123.841 
309.155 138.498 123.952 311.141 138.582 125.563 312.143 140.228 124.897 
322.587 146.955 124.611 317.332 146.904 125.961 319.93 147.488 124.744 
325.199 146.896 125.77 318.767 148.046 125.886 318.866 147.774 125.429 
288.304 121.079 126.474 288.001 121.153 126.826 288.604 120.643 126.509 
288.351 121.631 126.258 288.603 123.226 126.118 288.344 122.937 126.655 
290.181 125.32 125.554 291.632 126.47 125.403 297.205 129.703 125.133 
298.98 130.428 125.439 319.624 131.473 126.592 316.867 146.45 126.109 
318.43 147.934 126.176 325.797 147.882 126.889 320.606 149.281 126.41 
325.328 148.621 126.719 325.571 148.392 126.819 324.506 149.243 126.829 
288.069 118.871 128.128 287.858 119.326 127.89 287.835 119.785 127.636 
287.715 121.118 127.402 289.058 123.876 126.721 292.512 126.64 126.037 
299.298 129.179 126.692 324.048 137.476 126.694 315.654 143.976 127.115 
326.415 143.672 127.448 326.602 145.048 127.235 326.505 145.702 127.088 
326.607 145.391 127.232 316.664 146.113 126.585 326.558 145.672 127.386 
325.921 148.014 127.387 325.464 148.681 126.961 321.008 149.992 127.564 
321.753 149.96 127.098 323.305 149.855 127.052 324.004 149.687 127.12 
324.482 149.533 127.263 325.391 148.845 127.296 287.706 119.087 128.259 
287.503 119.177 128.651 287.382 119.802 128.692 287.478 121.007 128.624 
287.754 121.681 128.121 288.433 122.922 127.624 326.203 139.854 128.079 
326.605 143.555 128.415 326.581 144.553 128.08 326.49 145.692 127.923 
326.045 147.675 127.779 318.567 148.115 128.006 325.901 148.129 127.728 
319.486 148.933 128.261 320.683 149.866 127.78 325.119 149.11 127.623 
321.778 150.298 127.959 322.229 150.408 127.965 322.084 150.39 128.26 
322.65 150.375 127.887 323.335 150.242 128.238 288.849 117.988 128.613 
287.377 119.069 129.489 287.393 120.474 129.241 288.635 122.338 128.692 
324.834 134.81 129.412 317.653 146.591 128.572 325.052 148.977 128.181 
324.599 149.197 128.653 321.02 150.011 128.41 322.065 150.277 128.586 
323.167 150.231 128.528 323.373 149.95 128.821 322.451 150.383 128.448 
287.466 120.666 129.392 326.523 139.079 129.907 326.643 142.114 130.006 
326.588 143.152 129.797 326.485 143.852 129.798 325.483 147.303 129.469 
324.84 147.981 129.722 319.988 149.19 128.975 321.151 149.907 128.78 
321.241 149.61 129.237 322.908 149.82 129.146 323.161 149.3 129.568 
287.845 116.307 131.811 287.475 117.406 131.328 287.729 119.534 130.792 
326.171 143.221 130.928 325.605 145.008 130.801 320.054 147.691 130.401 
323.89 147.507 130.63 287.787 116.032 132.464 287.489 117.171 132.367 
287.729 118.206 132.23 288.069 119.116 131.75 324.261 131.434 131.897 
326.348 140.596 131.821 325.533 144.09 131.434 321.023 146.848 131.343 
288.292 115.157 133.614 304.515 116.887 132.912 289.368 118.773 133.011 
326.359 138.9 132.088 324.26 143.287 132.836 287.837 115.33 134.235 
287.687 115.728 133.806 289.717 118.106 133.972 322.834 128.268 133.359 
323.638 129.577 133.164 325.286 132.999 133.13 325.86 136.39 133.559 
319.066 139.313 133.783 325.343 141.245 133.077 322.186 142.262 133.77 
323.951 142.242 133.498 323.057 142.594 133.562 288.273 114.725 135.232 
289.735 113.929 135.539 287.833 115.988 134.554 321.374 125.882 134.342 
322.655 127.735 133.991 324.454 130.801 134.082 324.837 131.986 134.724 
325.166 132.676 134.307 320.035 138.348 134.882 324.646 140.77 133.805 
323.502 141.239 134.075 288.627 114.261 136.211 288.387 114.536 135.824 
289.048 113.976 136.367 287.899 115.266 134.968 318.535 121.974 135.391 
325.118 133.259 134.965 325.083 136.658 134.92 324.872 138.142 134.704 
321.184 138.186 135.405 289.232 113.799 137.025 288.524 114.687 136.544 
289.06 115.928 136.127 321.999 126.486 136.763 323.622 129.667 136.44 
317.791 130.823 136.941 324.15 130.995 136.057 323.358 135.092 136.525 
324.254 135.831 135.878 321.947 137.345 135.835 289.706 113.621 138.078 
289.242 113.833 137.449 288.722 114.333 136.944 289.14 114.935 137.276 
309.137 115.167 137.654 318.536 120.953 137.639 323.184 128.927 136.908 
323.342 129.551 136.896 318.979 132.172 137.002 323.304 131.822 137.109 
323.366 132.652 136.977 322.786 132.647 137.302 321.342 133.156 137.4 
322.194 133.361 137.295 321.323 134.667 136.837 322.014 135.061 136.74 
289 114.248 137.478 313.006 116.245 139.218 317.076 119.304 138.421 
319.074 121.475 138.373 321.422 126.06 138.051 321.534 126.659 138.187 
320.121 130.033 138.249 321.655 131.387 137.846 291.522 112.764 139.707 
305.943 113.106 140.419 290.108 113.926 139.015 292.223 114.696 140.079 
313.21 116.213 139.795 315.417 117.77 139.197 317.575 119.632 139.392 
318.951 121.347 138.979 319.255 121.962 139.277 320.327 125.674 139.317 
320.662 127.053 138.942 292.104 112.492 140.818 291.881 112.868 141.357 
290.88 113.94 139.783 313.158 116.119 140.317 318.065 120.293 140.179 
319.111 122.636 140.192 319.859 124.234 139.676 292.317 112.679 142.539 
306.44 112.978 141.654 316.588 118.832 140.967 316.983 119.129 140.558 
317.382 119.692 140.769 318.177 121.345 140.899 318.23 122.166 141.046 
315.453 123.802 140.805 315.626 123.514 141.1 317.909 123.02 141.225 
295.893 111.285 142.808 307.684 113.396 142.618 310.265 114.553 142.038 
310.252 114.65 142.465 312.496 115.779 141.737 313.722 116.764 141.869 
316.981 120.096 141.579 317.077 120.854 141.75 316.474 121.339 142.125 
316.074 123.391 141.264 297.555 111.142 143.542 304.266 112.202 143.428 
306.217 112.859 143.027 308.224 113.728 142.952 302.519 115.129 143.93 
310.42 115.048 142.998 311.502 115.573 142.697 312.323 116.669 143.186 
313.058 117.438 143.119 315.465 121.481 142.157 293.054 111.612 145.022 
298.984 111.125 144.781 292.759 111.898 144.76 301.559 111.521 144.466 
303.368 112.04 144.211 307.51 113.563 143.601 309.429 114.609 143.325 
310.861 116.387 143.675 310.329 116.387 143.83 308.381 116.976 143.388 
311.472 117.148 143.529 309.883 117.439 143.506 312.347 118.716 143.095 
292.879 111.69 145.078 293.034 111.644 145.272 293.931 111.465 145.441 
294.613 111.369 145.453 299.71 111.24 145.288 301.585 111.518 145.005 
292.926 111.718 145.248 292.82 111.79 145.03 304.03 112.398 144.773 
292.857 111.915 145 293.127 112.035 145.159 307.202 113.594 143.94 
307.502 114.112 144.187 300.135 114.133 145.124 302.963 114.401 145.092 
305.267 114.516 144.954 307.453 115.16 144.344 309.53 116.136 143.904 
293.171 111.707 145.469 293.48 111.648 145.68 296.986 111.365 145.879 
292.977 111.827 145.258 293.478 111.774 145.715 302.227 111.916 145.555 
303.739 112.796 145.618 304.296 113.077 145.538 304.535 113.376 145.535 
300.637 113.825 145.626 301.776 113.58 145.945 302.098 113.846 145.709 
293.732 111.687 145.868 294.164 111.689 146.042 294.659 111.688 146.175 
301.532 111.938 146.091 294.225 111.836 146.125 294.508 111.791 146.218 
302.273 112.619 146.155 298.127 112.868 146.34 298.42 112.672 146.48 
302.124 112.874 146.227 300.593 113.061 146.285 301.683 113.122 146.194 
303.035 113.686 145.771 304.428 113.674 145.53 295.018 111.863 146.297 
297.543 111.9 146.443 299.397 111.898 146.427 300.969 111.915 146.248 
294.972 112.077 146.249 300.932 112.246 146.41 299.072 112.644 146.492 
296.91 111.697 308.761 296.264 111.636 308.911 297.541 111.452 308.904 
298.643 111.744 308.552 300.795 111.909 308.54 301.24 111.936 308.647 
301.036 111.789 308.654 295.829 111.737 308.987 295.74 111.931 309.008 
296.688 111.965 308.723 298.125 111.992 308.528 299.714 112.115 308.473 
297.684 112.279 308.655 294.19 111.701 309.866 295.119 111.379 309.789 
296.709 111.23 309.471 294.529 111.807 309.615 294.133 111.912 309.846 
295.215 111.791 309.298 303.794 112.74 309.579 296.459 112.429 308.999 
302.473 113.011 309.138 303.129 112.992 309.268 293.867 111.653 310.18 
293.738 111.553 310.619 293.51 111.768 310.428 294.312 111.365 310.512 
[...]
POINT_DATA 809
COLOR_SCALARS scalars 3
1 0.501961 0.517647 1 0.501961 0.517647 1 0.501961 0.517647 
1 0.501961 0.517647 1 0.501961 0.517647 
1 0.501961 0.517647 1 0.501961 0.517647 
1 0.501961 0.517647 1 0.501961 0.517647 
1 0.501961 0.517647 1 0.501961 0.517647 
1 0.501961 0.517647 1 0.501961 0.517647 
1 0.501961 0.517647 1 0.501961 0.517647 
1 0.501961 0.517647 1 0.501961 0.517647 
1 0.501961 0.517647 1 0.501961 0.517647 
1 0.501961 0.517647 1 0.501961 0.517647 
1 0.501961 0.517647 1 0.501961 0.517647 
1 0.501961 0.517647 1 0.501961 0.517647 
1 0.501961 0.517647 1 0.501961 0.517647 
1 0.501961 0.517647 1 0.501961 0.517647 
1 0.501961 0.517647 1 0.501961 0.517647 
1 0.501961 0.517647 1 0.501961 0.517647 
1 0.501961 0.517647 1 0.501961 0.517647 
1 0.501961 0.517647 1 0.501961 0.517647 
1 0.501961 0.517647 1 0.501961 0.517647 
1 0.501961 0.517647 1 0.501961 0.517647 
1 0.501961 0.517647 1 0.501961 0.517647 
1 0.501961 0.517647 1 0.501961 0.517647 
1 0.501961 0.517647 1 0.501961 0.517647 
1 0.501961 0.517647 1 0.501961 0.517647 
1 0.501961 0.517647 1 0.501961 0.517647 
1 0.501961 0.517647 1 0.501961 0.517647 
1 0.501961 0.517647 1 0.501961 0.517647 
1 0.501961 0.517647 1 0.501961 0.517647 
1 0.501961 0.517647 1 0.501961 0.517647 
1 0.501961 0.517647 1 0.501961 0.517647 
1 0.501961 0.517647 1 0.501961 0.517647 
1 0.501961 0.517647 1 0.501961 0.517647 
1 0.501961 0.517647 1 0.501961 0.517647 
1 0.501961 0.517647 1 0.501961 0.517647 
1 0.501961 0.517647 1 0.501961 0.517647 
1 0.501961 0.517647 1 0.501961 0.517647 
1 0.501961 0.517647 1 0.501961 0.517647 
1 0.501961 0.517647 1 0.501961 0.517647 
1 0.501961 0.517647 1 0.501961 0.517647 
1 0.501961 0.517647 1 0.501961 0.517647 
1 0.501961 0.517647 1 0.501961 0.517647 
1 0.501961 0.517647 1 0.501961 0.517647 
1 0.501961 0.517647 1 0.501961 0.517647 
1 0.501961 0.517647 1 0.501961 0.517647 
1 0.501961 0.517647 1 0.501961 0.517647 
1 0.501961 0.517647 1 0.501961 0.517647 
1 0.501961 0.517647 1 0.501961 0.517647 
1 0.501961 0.517647 1 0.501961 0.517647 
1 0.501961 0.517647 1 0.501961 0.517647 
1 0.501961 0.517647 1 0.501961 0.517647 
1 0.501961 0.517647 1 0.501961 0.517647 
1 0.501961 0.517647 1 0.501961 0.517647 
1 0.501961 0.517647 1 0.501961 0.517647 
1 0.501961 0.517647 1 0.501961 0.517647 
1 0.501961 0.517647 1 0.501961 0.517647 
1 0.501961 0.517647 1 0.501961 0.517647 
1 0.501961 0.517647 1 0.501961 0.517647 
1 0.501961 0.517647 1 0.501961 0.517647 
1 0.501961 0.517647 1 0.501961 0.517647 
1 0.501961 0.517647 1 0.501961 0.517647 
1 0.501961 0.517647 1 0.501961 0.517647 
1 0.501961 0.517647 1 0.501961 0.517647 
1 0.501961 0.517647 1 0.501961 0.517647 
1 0.501961 0.517647 1 0.501961 0.517647 
1 0.501961 0.517647 1 0.501961 0.517647 
1 0.501961 0.517647 1 0.501961 0.517647 
1 0.501961 0.517647 1 0.501961 0.517647 
1 0.501961 0.517647 1 0.501961 0.517647 
1 0.501961 0.517647 1 0.501961 0.517647 
1 0.501961 0.517647 1 0.501961 0.517647 
1 0.501961 0.517647 1 0.501961 0.517647 
1 0.501961 0.517647 1 0.501961 0.517647 
1 0.501961 0.517647 1 0.501961 0.517647 
1 0.501961 0.517647 1 0.501961 0.517647 
1 0.501961 0.517647 1 0.501961 0.517647 
1 0.501961 0.517647 1 0.501961 0.517647 
1 0.501961 0.517647 1 0.501961 0.517647 
1 0.501961 0.517647 1 0.501961 0.517647 
1 0.501961 0.517647 1 0.501961 0.517647 
1 0.501961 0.517647 1 0.501961 0.517647 
1 0.501961 0.517647 1 0.501961 0.517647 
1 0.501961 0.517647 1 0.501961 0.517647 
1 0.501961 0.517647 1 0.501961 0.517647 
1 0.501961 0.517647 1 0.501961 0.517647 
1 0.501961 0.517647 1 0.501961 0.517647 
1 0.501961 0.517647 1 0.501961 0.517647 
1 0.501961 0.517647 1 0.501961 0.517647 
1 0.501961 0.517647 1 0.501961 0.517647 
1 0.501961 0.517647 1 0.501961 0.517647 
1 0.501961 0.517647 1 0.501961 0.517647 
1 0.501961 0.517647 1 0.501961 0.517647 
1 0.501961 0.517647 1 0.501961 0.517647 
1 0.501961 0.517647 1 0.501961 0.517647 
1 0.501961 0.517647 1 0.501961 0.517647 
1 0.501961 0.517647 1 0.501961 0.517647 
1 0.501961 0.517647 1 0.501961 0.517647 
1 0.501961 0.517647 1 0.501961 0.517647 
1 0.501961 0.517647 1 0.501961 0.517647 
1 0.501961 0.517647 1 0.501961 0.517647 
1 0.501961 0.517647 1 0.501961 0.517647 
1 0.501961 0.517647 1 0.501961 0.517647 
1 0.501961 0.517647 1 0.501961 0.517647 
1 0.501961 0.517647 1 0.501961 0.517647 
1 0.501961 0.517647 1 0.501961 0.517647 
1 0.501961 0.517647 1 0.501961 0.517647 
1 0.501961 0.517647 1 0.501961 0.517647 
1 0.501961 0.517647 1 0.501961 0.517647 
1 0.501961 0.517647 1 0.501961 0.517647 
1 0.501961 0.517647 1 0.501961 0.517647 
1 0.501961 0.517647 1 0.501961 0.517647 
1 0.501961 0.517647 1 0.501961 0.517647 
1 0.501961 0.517647 1 0.501961 0.517647 
1 0.501961 0.517647 1 0.501961 0.517647 
1 0.501961 0.517647 1 0.501961 0.517647 
1 0.501961 0.517647 1 0.501961 0.517647 
1 0.501961 0.517647 1 0.501961 0.517647 
1 0.501961 0.517647 1 0.501961 0.517647 
1 0.501961 0.517647 1 0.501961 0.517647 
1 0.501961 0.517647 1 0.501961 0.517647 
1 0.501961 0.517647 1 0.501961 0.517647 
1 0.501961 0.517647 1 0.501961 0.517647 
1 0.501961 0.517647 1 0.501961 0.517647 
1 0.501961 0.517647 1 0.501961 0.517647 
1 0.501961 0.517647 1 0.501961 0.517647 
1 0.501961 0.517647 1 0.501961 0.517647 
1 0.501961 0.517647 1 0.501961 0.517647 
1 0.501961 0.517647 1 0.501961 0.517647 
1 0.501961 0.517647 1 0.501961 0.517647 
1 0.501961 0.517647 1 0.501961 0.517647 
1 0.501961 0.517647 1 0.501961 0.517647 
1 0.501961 0.517647 1 0.501961 0.517647 
1 0.501961 0.517647 1 0.501961 0.517647 
1 0.501961 0.517647 1 0.501961 0.517647 
1 0.501961 0.517647 1 0.501961 0.517647 
1 0.501961 0.517647 1 0.501961 0.517647 
1 0.501961 0.517647 1 0.501961 0.517647 
1 0.501961 0.517647 1 0.501961 0.517647 
1 0.501961 0.517647 1 0.501961 0.517647 
1 0.501961 0.517647 1 0.501961 0.517647 
1 0.501961 0.517647 1 0.501961 0.517647 
1 0.501961 0.517647 1 0.501961 0.517647 
1 0.501961 0.517647 1 0.501961 0.517647 
1 0.501961 0.517647 1 0.501961 0.517647 
1 0.501961 0.517647 1 0.501961 0.517647 
1 0.501961 0.517647 1 0.501961 0.517647 
1 0.501961 0.517647 1 0.501961 0.517647 
1 0.501961 0.517647 1 0.501961 0.517647 
1 0.501961 0.517647 1 0.501961 0.517647 
1 0.501961 0.517647 1 0.501961 0.517647 
1 0.501961 0.517647 1 0.501961 0.517647 
1 0.501961 0.517647 1 0.501961 0.517647 
1 0.501961 0.517647 1 0.501961 0.517647 
1 0.501961 0.517647 1 0.501961 0.517647 
1 0.501961 0.517647 1 0.501961 0.517647 
1 0.501961 0.517647 1 0.501961 0.517647 
1 0.501961 0.517647 1 0.501961 0.517647 
1 0.501961 0.517647 1 0.501961 0.517647 
1 0.501961 0.517647 1 0.501961 0.517647 
1 0.501961 0.517647 1 0.501961 0.517647 
1 0.501961 0.517647 1 0.501961 0.517647 
1 0.501961 0.517647 1 0.501961 0.517647 
1 0.501961 0.517647 1 0.501961 0.517647 
1 0.501961 0.517647 1 0.501961 0.517647 
1 0.501961 0.517647 1 0.501961 0.517647 
1 0.501961 0.517647 1 0.501961 0.517647 
1 0.501961 0.517647 1 0.501961 0.517647 
1 0.501961 0.517647 1 0.501961 0.517647 
1 0.501961 0.517647 1 0.501961 0.517647 
1 0.501961 0.517647 1 0.501961 0.517647 
1 0.501961 0.517647 1 0.501961 0.517647 
1 0.501961 0.517647 1 0.501961 0.517647 
1 0.501961 0.517647 1 0.501961 0.517647 
1 0.501961 0.517647 1 0.501961 0.517647 
1 0.501961 0.517647 1 0.501961 0.517647 
1 0.501961 0.517647 1 0.501961 0.517647 
1 0.501961 0.517647 1 0.501961 0.517647 
1 0.501961 0.517647 1 0.501961 0.517647 
1 0.501961 0.517647 1 0.501961 0.517647 
1 0.501961 0.517647 1 0.501961 0.517647 
1 0.501961 0.517647 1 0.501961 0.517647 
1 0.501961 0.517647 1 0.501961 0.517647 
1 0.501961 0.517647 1 0.501961 0.517647 
1 0.501961 0.517647 1 0.501961 0.517647 
1 0.501961 0.517647 1 0.501961 0.517647 
1 0.501961 0.517647 1 0.501961 0.517647 
1 0.501961 0.517647 1 0.501961 0.517647 
1 0.501961 0.517647 1 0.501961 0.517647 
1 0.501961 0.517647 1 0.501961 0.517647 
1 0.501961 0.517647 1 0.501961 0.517647 
1 0.501961 0.517647 1 0.501961 0.517647 
1 0.501961 0.517647 1 0.501961 0.517647 
1 0.501961 0.517647 1 0.501961 0.517647 
1 0.501961 0.517647 1 0.501961 0.517647 
1 0.501961 0.517647 1 0.501961 0.517647 
1 0.501961 0.517647 1 0.501961 0.517647 
1 0.501961 0.517647 1 0.501961 0.517647 
1 0.501961 0.517647 1 0.501961 0.517647 
1 0.501961 0.517647 1 0.501961 0.517647 
1 0.501961 0.517647 1 0.501961 0.517647 
1 0.501961 0.517647 1 0.501961 0.517647 
1 0.501961 0.517647 1 0.501961 0.517647 
1 0.501961 0.517647 1 0.501961 0.517647 
1 0.501961 0.517647 1 0.501961 0.517647 
1 0.501961 0.517647 1 0.501961 0.517647 
1 0.501961 0.517647 1 0.501961 0.517647 
1 0.501961 0.517647 1 0.501961 0.517647 
1 0.501961 0.517647 1 0.501961 0.517647 
1 0.501961 0.517647 1 0.501961 0.517647 
1 0.501961 0.517647 1 0.501961 0.517647 
1 0.501961 0.517647 1 0.501961 0.517647 
1 0.501961 0.517647 1 0.501961 0.517647 
1 0.501961 0.517647 1 0.501961 0.517647 
1 0.501961 0.517647 1 0.501961 0.517647 
1 0.501961 0.517647 1 0.501961 0.517647 
1 0.501961 0.517647 1 0.501961 0.517647 
1 0.501961 0.517647 1 0.501961 0.517647 
1 0.501961 0.517647 1 0.501961 0.517647 
1 0.501961 0.517647 1 0.501961 0.517647 
1 0.501961 0.517647 1 0.501961 0.517647 
1 0.501961 0.517647 1 0.501961 0.517647 
1 0.501961 0.517647 1 0.501961 0.517647 
1 0.501961 0.517647 1 0.501961 0.517647 
1 0.501961 0.517647 1 0.501961 0.517647 
1 0.501961 0.517647 1 0.501961 0.517647 
1 0.501961 0.517647 1 0.501961 0.517647 
1 0.501961 0.517647 1 0.501961 0.517647 
1 0.501961 0.517647 1 0.501961 0.517647 
1 0.501961 0.517647 1 0.501961 0.517647 
1 0.501961 0.517647 1 0.501961 0.517647 
1 0.501961 0.517647 1 0.501961 0.517647 
1 0.501961 0.517647 1 0.501961 0.517647 
1 0.501961 0.517647 1 0.501961 0.517647 
1 0.501961 0.517647 1 0.501961 0.517647 
1 0.501961 0.517647 1 0.501961 0.517647 
1 0.501961 0.517647 1 0.501961 0.517647 
1 0.501961 0.517647 1 0.501961 0.517647 
1 0.501961 0.517647 1 0.501961 0.517647 
1 0.501961 0.517647 1 0.501961 0.517647 
1 0.501961 0.517647 1 0.501961 0.517647 
1 0.501961 0.517647 1 0.501961 0.517647 
1 0.501961 0.517647 1 0.501961 0.517647 
1 0.501961 0.517647 1 0.501961 0.517647 
1 0.501961 0.517647 1 0.501961 0.517647 
1 0.501961 0.517647 1 0.501961 0.517647 
1 0.501961 0.517647 1 0.501961 0.517647 
1 0.501961 0.517647 1 0.501961 0.517647 
1 0.501961 0.517647 1 0.501961 0.517647 
1 0.501961 0.517647 1 0.501961 0.517647 
1 0.501961 0.517647 1 0.501961 0.517647 
1 0.501961 0.517647 1 0.501961 0.517647 
1 0.501961 0.517647 1 0.501961 0.517647 
1 0.501961 0.517647 1 0.501961 0.517647 
1 0.501961 0.517647 1 0.501961 0.517647 
1 0.501961 0.517647 1 0.501961 0.517647 
1 0.501961 0.517647 1 0.501961 0.517647 
1 0.501961 0.517647 1 0.501961 0.517647 
1 0.501961 0.517647 1 0.501961 0.517647 
1 0.501961 0.517647 1 0.501961 0.517647 
1 0.501961 0.517647 1 0.501961 0.517647 
1 0.501961 0.517647 1 0.501961 0.517647 
1 0.501961 0.517647 1 0.501961 0.517647 
1 0.501961 0.517647 1 0.501961 0.517647 
1 0.501961 0.517647 1 0.501961 0.517647 
1 0.501961 0.517647 1 0.501961 0.517647 
1 0.501961 0.517647 1 0.501961 0.517647 
1 0.501961 0.517647 1 0.501961 0.517647 
1 0.501961 0.517647 1 0.501961 0.517647 
1 0.501961 0.517647 1 0.501961 0.517647 
1 0.501961 0.517647 1 0.501961 0.517647 
1 0.501961 0.517647 1 0.501961 0.517647 
1 0.501961 0.517647 1 0.501961 0.517647 
1 0.501961 0.517647 1 0.501961 0.517647 
1 0.501961 0.517647 1 0.501961 0.517647 
1 0.501961 0.517647 1 0.501961 0.517647 
1 0.501961 0.517647 1 0.501961 0.517647 
1 0.501961 0.517647 1 0.501961 0.517647 
1 0.501961 0.517647 1 0.501961 0.517647 
1 0.501961 0.517647 1 0.501961 0.517647 
1 0.501961 0.517647 1 0.501961 0.517647 
1 0.501961 0.517647 1 0.501961 0.517647 
1 0.501961 0.517647 1 0.501961 0.517647 
1 0.501961 0.517647 1 0.501961 0.517647 
1 0.501961 0.517647 1 0.501961 0.517647 
1 0.501961 0.517647 1 0.501961 0.517647 
1 0.501961 0.517647 1 0.501961 0.517647 
1 0.501961 0.517647 1 0.501961 0.517647 
1 0.501961 0.517647 1 0.501961 0.517647 
1 0.501961 0.517647 1 0.501961 0.517647 
1 0.501961 0.517647 1 0.501961 0.517647 
1 0.501961 0.517647 1 0.501961 0.517647 
1 0.501961 0.517647 1 0.501961 0.517647 
1 0.501961 0.517647 1 0.501961 0.517647 
1 0.501961 0.517647 1 0.501961 0.517647 
1 0.501961 0.517647 1 0.501961 0.517647 
1 0.501961 0.517647 1 0.501961 0.517647 
1 0.501961 0.517647 1 0.501961 0.517647 
1 0.501961 0.517647 1 0.501961 0.517647 
1 0.501961 0.517647 1 0.501961 0.517647 
1 0.501961 0.517647 1 0.501961 0.517647 
1 0.501961 0.517647 1 0.501961 0.517647 
1 0.501961 0.517647 1 0.501961 0.517647 
1 0.501961 0.517647 1 0.501961 0.517647 
1 0.501961 0.517647 1 0.501961 0.517647 
1 0.501961 0.517647 1 0.501961 0.517647 
1 0.501961 0.517647 1 0.501961 0.517647 
1 0.501961 0.517647 1 0.501961 0.517647 
1 0.501961 0.517647 1 0.501961 0.517647 
1 0.501961 0.517647 1 0.501961 0.517647 
1 0.501961 0.517647 1 0.501961 0.517647 
1 0.501961 0.517647 1 0.501961 0.517647 
1 0.501961 0.517647 1 0.501961 0.517647 
1 0.501961 0.517647 1 0.501961 0.517647 
1 0.501961 0.517647 1 0.501961 0.517647 
1 0.501961 0.517647 1 0.501961 0.517647 
1 0.501961 0.517647 1 0.501961 0.517647 
1 0.501961 0.517647 1 0.501961 0.517647 
1 0.501961 0.517647 1 0.501961 0.517647 
1 0.501961 0.517647 1 0.501961 0.517647 
1 0.501961 0.517647 1 0.501961 0.517647 
1 0.501961 0.517647 1 0.501961 0.517647 
1 0.501961 0.517647 1 0.501961 0.517647 
1 0.501961 0.517647 1 0.501961 0.517647 
1 0.501961 0.517647 1 0.501961 0.517647 
1 0.501961 0.517647 1 0.501961 0.517647 
1 0.501961 0.517647 1 0.501961 0.517647 
1 0.501961 0.517647 1 0.501961 0.517647 
1 0.501961 0.517647 1 0.501961 0.517647 
1 0.501961 0.517647 1 0.501961 0.517647 
1 0.501961 0.517647 1 0.501961 0.517647 
1 0.501961 0.517647 1 0.501961 0.517647 
1 0.501961 0.517647 1 0.501961 0.517647 
1 0.501961 0.517647 1 0.501961 0.517647 
1 0.501961 0.517647 1 0.501961 0.517647 
1 0.501961 0.517647 1 0.501961 0.517647 
1 0.501961 0.517647 1 0.501961 0.517647 
1 0.501961 0.517647 1 0.501961 0.517647 
1 0.501961 0.517647 1 0.501961 0.517647 
1 0.501961 0.517647 1 0.501961 0.517647 
1 0.501961 0.517647 1 0.501961 0.517647 
1 0.501961 0.517647 1 0.501961 0.517647 
1 0.501961 0.517647 1 0.501961 0.517647 
1 0.501961 0.517647 1 0.501961 0.517647 
1 0.501961 0.517647 1 0.501961 0.517647 
1 0.501961 0.517647 1 0.501961 0.517647 
1 0.501961 0.517647 1 0.501961 0.517647 
1 0.501961 0.517647 1 0.501961 0.517647 
1 0.501961 0.517647 1 0.501961 0.517647 
1 0.501961 0.517647 1 0.501961 0.517647 
1 0.501961 0.517647 1 0.501961 0.517647 
1 0.501961 0.517647 1 0.501961 0.517647 
1 0.501961 0.517647 1 0.501961 0.517647 
1 0.501961 0.517647 1 0.501961 0.517647 
1 0.501961 0.517647 1 0.501961 0.517647 
1 0.501961 0.517647 1 0.501961 0.517647 
1 0.501961 0.517647 1 0.501961 0.517647 
1 0.501961 0.517647 1 0.501961 0.517647 
1 0.501961 0.517647 1 0.501961 0.517647 
1 0.501961 0.517647 1 0.501961 0.517647 
1 0.501961 0.517647 1 0.501961 0.517647 
1 0.501961 0.517647 1 0.501961 0.517647 
1 0.501961 0.517647 1 0.501961 0.517647 
1 0.501961 0.517647 1 0.501961 0.517647 
1 0.501961 0.517647 1 0.501961 0.517647 
1 0.501961 0.517647 1 0.501961 0.517647 
1 0.501961 0.517647 1 0.501961 0.517647 
1 0.501961 0.517647 1 0.501961 0.517647 
1 0.501961 0.517647 1 0.501961 0.517647 
1 0.501961 0.517647 1 0.501961 0.517647 
1 0.501961 0.517647 1 0.501961 0.517647 
1 0.501961 0.517647 1 0.501961 0.517647 
1 0.501961 0.517647 1 0.501961 0.517647 
1 0.501961 0.517647 1 0.501961 0.517647 
1 0.501961 0.517647 1 0.501961 0.517647 
1 0.501961 0.517647 1 0.501961 0.517647 
1 0.501961 0.517647 1 0.501961 0.517647 
1 0.501961 0.517647 1 0.501961 0.517647 
1 0.501961 0.517647 1 0.501961 0.517647 
1 0.501961 0.517647 1 0.501961 0.517647 
1 0.501961 0.517647 1 0.501961 0.517647 
1 0.501961 0.517647 1 0.501961 0.517647 
1 0.501961 0.517647 1 0.501961 0.517647 
1 0.501961 0.517647 1 0.501961 0.517647 
1 0.501961 0.517647 1 0.501961 0.517647 
1 0.501961 0.517647 1 0.501961 0.517647 
1 0.501961 0.517647 1 0.501961 0.517647 
1 0.501961 0.517647 1 0.501961 0.517647 
1 0.501961 0.517647 1 0.501961 0.517647 
1 0.501961 0.517647 1 0.501961 0.517647 
1 0.501961 0.517647 1 0.501961 0.517647 
1 0.501961 0.517647 1 0.501961 0.517647 
1 0.501961 0.517647 1 0.501961 0.517647 
1 0.501961 0.517647 1 0.501961 0.517647 
1 0.501961 0.517647 1 0.501961 0.517647 
1 0.501961 0.517647 1 0.501961 0.517647 
1 0.501961 0.517647 1 0.501961 0.517647 
1 0.501961 0.517647 1 0.501961 0.517647 
1 0.501961 0.517647 1 0.501961 0.517647 
1 0.501961 0.517647 1 0.501961 0.517647 
1 0.501961 0.517647 1 0.501961 0.517647 
1 0.501961 0.517647 1 0.501961 0.517647 
1 0.501961 0.517647 1 0.501961 0.517647 
1 0.501961 0.517647 1 0.501961 0.517647 
1 0.501961 0.517647 1 0.501961 0.517647 
1 0.501961 0.517647 1 0.501961 0.517647 

NORMALS Normals float
-0.100946 -0.0451291 -0.993868 -0.0165354 -0.0510141 -0.998561 0.0374056 -0.112151 -0.992987 
0.192713 -0.34814 -0.91742 -0.347035 0.428463 -0.834258 -0.271188 0.307289 -0.912157 
0.0765405 -0.262501 -0.961891 0.082337 -0.142603 -0.986349 -0.234164 0.371504 -0.898416 
0.103497 -0.0202587 -0.994423 0.0467506 0.149398 -0.987671 0.335782 -0.0637248 -0.939782 
-0.0893625 0.347618 -0.933368 0.227402 0.105113 -0.968111 -0.309959 0.0454749 -0.949662 
-0.254497 0.0470756 -0.965927 0.156334 -0.378154 -0.912447 -0.0789673 -0.297504 -0.951449 
-0.467548 0.495859 -0.731794 -0.511518 0.657277 -0.553476 -0.365387 0.391974 -0.844304 
-0.473106 0.529383 -0.704219 -0.44316 0.651558 -0.615695 -0.559313 0.777755 -0.286821 
0.361233 -0.401769 -0.841482 -0.552037 0.813186 -0.184346 -0.369099 0.71116 -0.598345 
0.274267 -0.0381383 -0.960897 -0.549596 0.812018 -0.196393 -0.426199 0.791509 -0.438027 
0.135797 0.222159 -0.965508 -0.472653 0.676927 -0.564242 -0.383431 -0.0406698 -0.922674 
-0.497867 0.0260154 -0.866863 -0.289299 -0.0535722 -0.955739 -0.31133 0.0328475 -0.949734 
-0.542856 0.312852 -0.779379 -0.462996 0.308684 -0.830872 0.170797 -0.540302 -0.823955 
-0.479641 0.403038 -0.779426 -0.593456 0.695556 -0.404983 -0.543243 0.735308 -0.405228 
-0.506372 0.815814 -0.279346 -0.592459 0.80406 -0.0498062 -0.557263 0.798399 -0.228073 
-0.501443 0.850396 -0.159317 0.471617 -0.339446 -0.813851 -0.584338 0.785419 -0.204123 
-0.618136 0.682627 0.389781 -0.547336 0.834024 -0.0694816 -0.520534 0.851315 0.0656371 
0.425944 -0.04929 -0.903406 0.125859 0.226455 -0.965856 -0.533435 0.701468 -0.472643 
-0.265905 0.66317 -0.699643 -0.205283 0.563841 -0.799964 -0.0156432 0.343066 -0.939181 
0.261711 0.317533 -0.911416 0.122828 0.428292 -0.895254 -0.533133 -0.163343 -0.830113 
-0.1765 -0.432154 -0.884359 -0.323886 -0.405767 -0.854664 -0.130501 -0.359452 -0.923993 
-0.639182 0.12496 -0.758835 -0.705409 0.552236 -0.444334 -0.522806 0.839745 0.146635 
-0.451837 0.886356 -0.101074 -0.50645 0.8561 0.102958 -0.534519 0.831341 0.15219 
-0.577822 0.805997 -0.128412 -0.534767 0.797554 0.279163 -0.594554 0.70475 0.387082 
-0.520188 0.795448 0.310913 -0.580639 0.762893 0.284346 -0.693844 0.71942 0.0318662 
0.0139734 0.561837 -0.82713 -0.0601061 0.519273 -0.852492 -0.380926 -0.439428 -0.81351 
-0.54851 -0.320852 -0.772134 -0.775312 -0.0167631 -0.631356 -0.0101823 -0.653768 -0.756626 
-0.556375 -0.216342 -0.802274 -0.766619 0.16962 -0.619294 -0.8069 0.485738 -0.336111 
-0.654072 0.748553 0.108895 -0.455447 0.875355 0.162241 -0.527788 0.792215 0.306325 
-0.317394 0.779616 0.539871 -0.526006 0.822106 0.21785 -0.518616 0.765878 0.380089 
-0.52121 0.612774 0.59401 -0.541618 0.590922 0.597881 -0.692732 0.585526 0.421047 
0.284685 0.431734 -0.855898 -0.710638 0.70164 -0.0519231 -0.0465161 0.660896 -0.749035 
0.612507 0.00893555 -0.790414 -0.412038 0.782623 -0.466612 -0.366841 0.657491 -0.658129 
-0.631124 -0.351255 -0.691595 -0.802169 -0.217856 -0.555935 -0.412057 -0.503865 -0.759164 
-0.711888 -0.199507 -0.673358 -0.892434 0.352588 -0.281503 -0.911514 0.380302 -0.156567 
-0.690662 0.720431 0.0629645 -0.599305 0.774014 0.204294 -0.428398 0.748021 0.506893 
-0.171096 0.755172 0.632804 0.4893 -0.551845 -0.675316 -0.765322 0.629921 -0.13222 
-0.608694 0.731301 -0.307719 0.863906 0.199259 -0.46256 -0.304264 0.80268 -0.51296 