# vtk DataFile Version 4.2
vtk output
ASCII
DATASET POLYDATA
POINTS 745 float
301.048 133.393 120.332 303.734 135.103 120.294 302.429 135.444 120.49 
309.163 138.623 120.477 312.766 140.78 120.657 312.05 141.716 120.957 
294.845 129.722 121.159 297.414 129.475 120.878 295.164 131.046 121.177 
295.888 131.939 121.145 302.992 132.949 120.383 304.93 133.951 120.4 
309.973 136.143 120.686 307.46 136.879 120.399 304.421 138.034 121.11 
314.587 139.965 120.933 316.216 140.091 121.265 314.497 142.808 121.278 
317.13 143.739 121.842 297.013 126.394 121.896 292.716 131.679 122.369 
317.602 139.143 121.959 317.368 140.707 121.625 318.325 143.519 122.083 
316.271 144.468 122.027 316.048 145.032 122.341 318.511 145.709 122.653 
318.65 145.665 122.679 318.463 145.925 122.798 318.599 136.66 123.216 
319.503 147.272 123.622 289.374 123.291 124.276 288.111 126.15 124.325 
309.717 129.285 123.37 317.469 134.573 123.575 309.179 143.924 123.523 
322.525 144.661 123.841 291.031 121.009 125.381 294.152 121.303 125.065 
287.756 129.095 125.59 292.545 135.715 125.48 320.673 134.506 125.536 
324.076 143.959 124.725 325.722 144.917 125.956 323.55 146.798 124.612 
325.224 147.056 125.689 287.31 121.216 126.211 300.093 122.007 125.617 
286.228 122.601 126.265 315.853 129.197 125.906 289.164 131.392 125.557 
325.682 142.572 126.315 326.06 144.365 126.489 326.098 146.542 126.573 
325.681 147.765 126.392 326.019 147.251 126.725 325.408 148.517 126.424 
318.722 149.899 125.802 325.469 149.089 126.776 324.812 149.847 126.884 
322.729 150.647 126.647 324.364 150.211 126.92 288.09 119.109 127.5 
285.999 121.118 126.977 285.312 124.592 126.843 285.539 127.128 127.291 
291.655 136.074 126.952 326.138 141.029 127.452 326.623 145.434 127.229 
326.579 145.73 127.383 325.979 148.298 127.344 325.708 148.917 126.897 
325.162 149.678 127.012 325.669 149.044 127.046 319.976 151.486 127.749 
325.076 149.8 127.269 321.728 151.412 127.81 324.074 150.568 127.479 
285.617 119.212 128.304 289.613 118.39 127.91 285.407 127.506 127.741 
289.494 133.886 127.935 324.672 136.286 128.118 294.885 140.391 128.236 
326.306 140.765 127.849 296.485 141.62 127.998 298.827 143.234 128.063 
326.606 142.662 128.379 326.523 145.759 127.932 325.952 148.437 127.712 
325.514 149.232 127.842 324.914 149.918 127.814 324.425 150.367 127.714 
321.166 151.681 128.392 321.538 151.727 128.284 321.797 151.609 128.166 
322.255 151.356 128.286 321.665 151.712 128.239 289.163 116.943 129.622 
283.999 119.045 129.39 282.797 124.201 129.424 285.992 129.684 129.116 
292.039 137.616 128.716 326.148 138.723 128.796 295.095 141.302 129.477 
298.077 143.436 129.018 300.524 145.365 129.847 325.465 148.475 129.04 
310.408 149.869 129.101 323.923 150.41 128.889 321.696 151.644 128.372 
285.061 128.721 129.824 326.561 139.068 129.92 326.708 142.109 130.04 
296.862 143.002 130.388 326.56 143.87 129.842 298.627 144.244 130.219 
300.119 145.321 130.582 307.12 148.796 129.431 309.549 150.037 130.203 
311.905 150.789 129.821 322.677 150.885 129.494 320.263 151.713 129.746 
317.406 124.722 130.646 287.196 131.965 131.06 324.913 133.785 130.391 
295.028 141.432 130.795 296.133 142.45 131.142 325.134 146.06 131.296 
304.113 148.043 131.616 305.422 148.517 130.493 308.983 149.981 131.061 
310.719 150.756 131.254 310.553 150.664 130.92 312.906 151.186 130.287 
311.584 150.972 130.949 315.603 151.802 130.786 316.472 151.828 130.78 
282.736 117.299 131.657 325.652 134.336 131.824 326.604 141.004 131.463 
326.096 142.499 131.961 296.591 142.629 131.895 298.998 144.447 131.691 
301.227 145.733 132.346 322.155 149.152 131.783 305.609 148.782 131.88 
305.909 148.962 131.651 309.837 150.374 131.584 311.371 150.795 131.776 
312.717 151.043 131.791 313.08 151.212 131.372 283.635 115.604 133.109 
290.144 114.542 133.301 281.242 117.316 133.239 304.515 116.887 132.912 
319.613 125.061 132.457 286.054 130.683 133.194 326.062 135.41 132.819 
323.691 146.208 132.65 308.329 149.466 132.59 318.654 149.654 133.021 
312.654 150.744 132.32 282.493 115.78 133.687 279.356 119.359 133.919 
320.421 124.884 133.887 281.382 126.146 134.16 282.449 127.121 134.292 
325.678 133.682 133.543 307.457 148.721 133.468 308.997 149.206 133.434 
313.446 149.505 133.934 282.157 115.075 135.112 277.712 122.318 135.413 
285.338 129.6 135.275 286.191 130.484 134.929 325.908 135.701 134.439 
324.783 140.906 134.888 299.355 143.053 134.514 321.677 144.422 135.209 
279.196 117.136 135.878 278.557 124.212 135.862 324.801 131.07 135.67 
325.375 138.669 135.169 321.334 143.339 136.097 318.632 144.896 136.327 
310.431 147.31 135.679 317.244 120.158 136.489 287.824 131.537 136.321 
316.284 145.607 136.577 283.102 113.278 138.334 277.421 124.471 138.429 
279.211 125.178 138.165 323.578 128.43 137.211 324.674 134.277 137.437 
295.889 112.334 138.928 319.233 121.354 138.443 274.504 122.009 139.25 
320.51 123.035 138.565 274.071 123.614 140.2 274.017 123.438 140.242 
274.032 123.604 140.375 274.839 123.388 139.404 274.158 123.522 140.082 
274.89 123.78 139.722 274.238 123.714 140.189 275.309 124.027 139.772 
303.591 112.976 139.484 311.88 115.455 140.104 315.439 117.768 139.21 
320.799 123.666 139.518 274.182 123.043 139.966 273.839 123.201 140.695 
321.123 124.395 139.755 274.467 123.599 139.919 274.697 123.919 140.27 
285.794 128.068 140.231 323.443 129.36 138.754 323.116 130.402 139.596 
293.07 133.75 139.812 308.467 113.806 140.81 311.981 115.415 140.897 
318.301 120.218 140.258 318.634 120.699 140.519 273.035 121.252 141.634 
272.934 121.609 141.905 273.063 122.091 141.933 273.307 122.647 141.971 
274.012 123.54 141.052 322.551 128.867 140.084 319.111 136.706 141.242 
305.65 139.964 141.078 301.487 111.962 141.553 307.75 113.363 142.042 
312.111 115.485 141.532 317.618 119.691 140.87 318.337 120.602 141.039 
272.763 121.472 142.528 319.166 121.627 140.84 320.247 123.186 140.529 
321.237 125.331 140.51 321.397 126.74 140.943 321.509 127.663 141.06 
321.577 130.687 141.27 289.718 111.261 142.933 311.971 115.529 142.165 
272.454 119.825 143.337 318.217 120.953 141.547 272.714 121.557 143.372 
317.399 122.405 143.056 274.662 123.276 143.186 283.225 125.388 142.985 
320.202 125.38 141.748 312.502 136.901 143.281 308.228 138.165 142.843 
282.848 112.348 143.853 273.56 117.4 143.28 272.554 118.673 143.816 
272.272 120.366 144.026 272.617 121.353 144.246 272.973 121.942 143.812 
298.148 133.847 143.564 304.461 112.329 144.245 279.829 113.147 145.146 
281.567 112.72 145.576 307.701 113.569 143.873 273.811 116.509 144.519 
311.784 116.427 143.984 272.469 118.125 144.875 272.314 118.425 145.131 
272.24 118.955 145.092 314.96 128.01 144.724 310.4 134.012 144.954 
294.2 110.911 146.064 285.591 111.943 146.156 305.147 112.672 144.774 
307.474 113.628 144.307 308.824 114.707 144.718 275.988 114.747 145.732 
309.22 115.828 145.515 309.534 116.328 145.612 272.441 117.979 145.379 
272.444 117.9 145.754 272.406 120.311 145.531 272.447 120.624 145.32 
274.217 121.66 145.558 306.565 132.089 145.998 302.677 132.95 145.588 
305.329 113.018 145.367 281.47 113.079 146.959 277.472 114.039 146.822 
274.642 115.64 146.483 274.157 115.889 146.162 273.401 116.631 146.125 
272.588 117.628 145.954 272.522 117.964 146.074 273.065 119.926 146.511 
272.565 120.54 145.602 273.265 120.221 146.456 273.663 120.371 146.531 
277.263 121.255 146.762 283.285 122.948 146.635 292.484 127.092 146.896 
305.6 128.964 147.02 299.676 129.552 146.998 307.704 129.446 146.592 
298.675 111.413 146.969 301.89 112.172 146.791 285.304 112.521 147.553 
289.856 111.517 147.426 303.729 113.018 146.696 278.338 113.874 147.375 
280.539 113.602 147.667 283.162 112.979 147.411 275.736 115.173 147.468 
277.015 114.397 147.462 303.969 114.059 147.536 273.963 116.442 146.936 
273.551 116.662 146.671 273.722 116.802 147.013 273.38 117.035 146.829 
272.806 118.31 146.659 273.414 118.487 147.191 272.688 119.409 146.393 
274.593 118.976 147.533 306.163 120.083 147.897 276.552 119.943 147.545 
291.411 111.724 148.33 293.852 111.567 148.241 294.829 111.586 148.176 
288.125 112.514 148.339 300.367 112.85 148.316 278.249 114.047 147.706 
277.907 114.287 147.877 279.112 114.216 148.187 284.055 113.187 147.962 
301.123 113.835 148.611 276.051 114.958 147.799 276.049 115.015 147.949 
276.736 114.848 148.01 301.987 114.424 148.528 275.231 116.016 147.614 
275.911 115.122 147.864 275.811 115.458 147.903 273.637 117.35 147.154 
302.157 116.149 148.935 277.269 116.541 148.564 278.478 117.371 148.644 
277.181 118.076 148.278 282.951 118.275 149.033 302.083 118.275 149.133 
276.933 118.83 148.04 280.92 119.044 148.52 301.404 120.401 149.238 
292.344 123.943 148.97 292.289 111.915 148.724 292.881 112.27 149.146 
295.71 112.061 148.759 286.778 113.018 148.585 288.576 113.028 148.982 
298.603 112.729 148.696 278.036 114.657 148.255 287.024 113.602 149.054 
276.557 115.167 148.182 278.639 115.024 148.58 284.026 114.693 148.938 
287.811 114.249 149.53 276.904 115.636 148.408 287.66 120.994 149.336 
293.211 112.851 149.538 295.137 112.897 149.556 290.423 113.987 149.822 
294.892 114.229 150.089 290.333 115.536 150.241 292.948 116.934 150.5 
294.699 116.643 150.446 290.761 120.725 150.002 295.714 116.06 305.079 
294.05 111.823 307.2 295.445 112.303 306.625 298.939 112.431 306.711 
299.282 112.162 307.022 286.745 113.158 307.052 289.877 112.447 307.044 
293.987 112.875 306.188 299.876 112.662 306.738 290.98 113.555 306.068 
294.53 113.515 305.803 300.42 113.356 306.552 295.086 114.222 305.504 
290.494 115.222 305.592 291.188 117.033 305.328 288.828 119.932 305.774 
299.394 111.823 307.549 300.813 112.375 307.349 288.65 112.154 307.724 
290.357 111.949 307.564 278.683 114.636 307.805 278.479 114.154 308.324 
278.01 114.525 308.087 283.327 114.024 307.337 285.772 113.977 306.698 
276.497 114.912 308.456 278.535 115.264 307.419 276.499 116.07 307.594 
301.264 115.495 306.265 273.528 117.048 308.598 279.535 116.433 306.898 
273.776 117.776 308.105 274.791 117.425 307.725 275.637 117.321 307.493 
[...]
POINT_DATA 745
COLOR_SCALARS scalars 3
1 0.501961 0.517647 1 0.501961 0.517647 1 0.501961 0.517647 
1 0.501961 0.517647 1 0.501961 0.517647 
1 0.501961 0.517647 1 0.501961 0.517647 
1 0.501961 0.517647 1 0.501961 0.517647 
1 0.501961 0.517647 1 0.501961 0.517647 
1 0.501961 0.517647 1 0.501961 0.517647 
1 0.501961 0.517647 1 0.501961 0.517647 
1 0.501961 0.517647 1 0.501961 0.517647 
1 0.501961 0.517647 1 0.501961 0.517647 
1 0.501961 0.517647 1 0.501961 0.517647 
1 0.501961 0.517647 1 0.501961 0.517647 
1 0.501961 0.517647 1 0.501961 0.517647 
1 0.501961 0.517647 1 0.501961 0.517647 
1 0.501961 0.517647 1 0.501961 0.517647 
1 0.501961 0.517647 1 0.501961 0.517647 
1 0.501961 0.517647 1 0.501961 0.517647 
1 0.501961 0.517647 1 0.501961 0.517647 
1 0.501961 0.517647 1 0.501961 0.517647 
1 0.501961 0.517647 1 0.501961 0.517647 
1 0.501961 0.517647 1 0.501961 0.517647 
1 0.501961 0.517647 1 0.501961 0.517647 
1 0.501961 0.517647 1 0.501961 0.517647 
1 0.501961 0.517647 1 0.501961 0.517647 
1 0.501961 0.517647 1 0.501961 0.517647 
1 0.501961 0.517647 1 0.501961 0.517647 
1 0.501961 0.517647 1 0.501961 0.517647 
1 0.501961 0.517647 1 0.501961 0.517647 
1 0.501961 0.517647 1 0.501961 0.517647 
1 0.501961 0.517647 1 0.501961 0.517647 
1 0.501961 0.517647 1 0.501961 0.517647 
1 0.501961 0.517647 1 0.501961 0.517647 
1 0.501961 0.517647 1 0.501961 0.517647 
1 0.501961 0.517647 1 0.501961 0.517647 
1 0.501961 0.517647 1 0.501961 0.517647 
1 0.501961 0.517647 1 0.501961 0.517647 
1 0.501961 0.517647 1 0.501961 0.517647 
1 0.501961 0.517647 1 0.501961 0.517647 
1 0.501961 0.517647 1 0.501961 0.517647 
1 0.501961 0.517647 1 0.501961 0.517647 
1 0.501961 0.517647 1 0.501961 0.517647 
1 0.501961 0.517647 1 0.501961 0.517647 
1 0.501961 0.517647 1 0.501961 0.517647 
1 0.501961 0.517647 1 0.501961 0.517647 
1 0.501961 0.517647 1 0.501961 0.517647 
1 0.501961 0.517647 1 0.501961 0.517647 
1 0.501961 0.517647 1 0.501961 0.517647 
1 0.501961 0.517647 1 0.501961 0.517647 
1 0.501961 0.517647 1 0.501961 0.517647 
1 0.501961 0.517647 1 0.501961 0.517647 
1 0.501961 0.517647 1 0.501961 0.517647 
1 0.501961 0.517647 1 0.501961 0.517647 
1 0.501961 0.517647 1 0.501961 0.517647 
1 0.501961 0.517647 1 0.501961 0.517647 
1 0.501961 0.517647 1 0.501961 0.517647 
1 0.501961 0.517647 1 0.501961 0.517647 
1 0.501961 0.517647 1 0.501961 0.517647 
1 0.501961 0.517647 1 0.501961 0.517647 
1 0.501961 0.517647 1 0.501961 0.517647 
1 0.501961 0.517647 1 0.501961 0.517647 
1 0.501961 0.517647 1 0.501961 0.517647 
1 0.501961 0.517647 1 0.501961 0.517647 
1 0.501961 0.517647 1 0.501961 0.517647 
1 0.501961 0.517647 1 0.501961 0.517647 
1 0.501961 0.517647 1 0.501961 0.517647 
1 0.501961 0.517647 1 0.501961 0.517647 
1 0.501961 0.517647 1 0.501961 0.517647 
1 0.501961 0.517647 1 0.501961 0.517647 
1 0.501961 0.517647 1 0.501961 0.517647 
1 0.501961 0.517647 1 0.501961 0.517647 
1 0.501961 0.517647 1 0.501961 0.517647 
1 0.501961 0.517647 1 0.501961 0.517647 
1 0.501961 0.517647 1 0.501961 0.517647 
1 0.501961 0.517647 1 0.501961 0.517647 
1 0.501961 0.517647 1 0.501961 0.517647 
1 0.501961 0.517647 1 0.501961 0.517647 
1 0.501961 0.517647 1 0.501961 0.517647 
1 0.501961 0.517647 1 0.501961 0.517647 
1 0.501961 0.517647 1 0.501961 0.517647 
1 0.501961 0.517647 1 0.501961 0.517647 
1 0.501961 0.517647 1 0.501961 0.517647 
1 0.501961 0.517647 1 0.501961 0.517647 
1 0.501961 0.517647 1 0.501961 0.517647 
1 0.501961 0.517647 1 0.501961 0.517647 
1 0.501961 0.517647 1 0.501961 0.517647 
1 0.501961 0.517647 1 0.501961 0.517647 
1 0.501961 0.517647 1 0.501961 0.517647 
1 0.501961 0.517647 1 0.501961 0.517647 
1 0.501961 0.517647 1 0.501961 0.517647 
1 0.501961 0.517647 1 0.501961 0.517647 
1 0.501961 0.517647 1 0.501961 0.517647 
1 0.501961 0.517647 1 0.501961 0.517647 
1 0.501961 0.517647 1 0.501961 0.517647 
1 0.501961 0.517647 1 0.501961 0.517647 
1 0.501961 0.517647 1 0.501961 0.517647 
1 0.501961 0.517647 1 0.501961 0.517647 
1 0.501961 0.517647 1 0.501961 0.517647 
1 0.501961 0.517647 1 0.501961 0.517647 
1 0.501961 0.517647 1 0.501961 0.517647 
1 0.501961 0.517647 1 0.501961 0.517647 
1 0.501961 0.517647 1 0.501961 0.517647 
1 0.501961 0.517647 1 0.501961 0.517647 
1 0.501961 0.517647 1 0.501961 0.517647 
1 0.501961 0.517647 1 0.501961 0.517647 
1 0.501961 0.517647 1 0.501961 0.517647 
1 0.501961 0.517647 1 0.501961 0.517647 
1 0.501961 0.517647 1 0.501961 0.517647 
1 0.501961 0.517647 1 0.501961 0.517647 
1 0.501961 0.517647 1 0.501961 0.517647 
1 0.501961 0.517647 1 0.501961 0.517647 
1 0.501961 0.517647 1 0.501961 0.517647 
1 0.501961 0.517647 1 0.501961 0.517647 
1 0.501961 0.517647 1 0.501961 0.517647 
1 0.501961 0.517647 1 0.501961 0.517647 
1 0.501961 0.517647 1 0.501961 0.517647 
1 0.501961 0.517647 1 0.501961 0.517647 
1 0.501961 0.517647 1 0.501961 0.517647 
1 0.501961 0.517647 1 0.501961 0.517647 
1 0.501961 0.517647 1 0.501961 0.517647 
1 0.501961 0.517647 1 0.501961 0.517647 
1 0.501961 0.517647 1 0.501961 0.517647 
1 0.501961 0.517647 1 0.501961 0.517647 
1 0.501961 0.517647 1 0.501961 0.517647 
1 0.501961 0.517647 1 0.501961 0.517647 
1 0.501961 0.517647 1 0.501961 0.517647 
1 0.501961 0.517647 1 0.501961 0.517647 
1 0.501961 0.517647 1 0.501961 0.517647 
1 0.501961 0.517647 1 0.501961 0.517647 
1 0.501961 0.517647 1 0.501961 0.517647 
1 0.501961 0.517647 1 0.501961 0.517647 
1 0.501961 0.517647 1 0.501961 0.517647 
1 0.501961 0.517647 1 0.501961 0.517647 
1 0.501961 0.517647 1 0.501961 0.517647 
1 0.501961 0.517647 1 0.501961 0.517647 
1 0.501961 0.517647 1 0.501961 0.517647 
1 0.501961 0.517647 1 0.501961 0.517647 
1 0.501961 0.517647 1 0.501961 0.517647 
1 0.501961 0.517647 1 0.501961 0.517647 
1 0.501961 0.517647 1 0.501961 0.517647 
1 0.501961 0.517647 1 0.501961 0.517647 
1 0.501961 0.517647 1 0.501961 0.517647 
1 0.501961 0.517647 1 0.501961 0.517647 
1 0.501961 0.517647 1 0.501961 0.517647 
1 0.501961 0.517647 1 0.501961 0.517647 
1 0.501961 0.517647 1 0.501961 0.517647 
1 0.501961 0.517647 1 0.501961 0.517647 
1 0.501961 0.517647 1 0.501961 0.517647 
1 0.501961 0.517647 1 0.501961 0.517647 
1 0.501961 0.517647 1 0.501961 0.517647 
1 0.501961 0.517647 1 0.501961 0.517647 
1 0.501961 0.517647 1 0.501961 0.517647 
1 0.501961 0.517647 1 0.501961 0.517647 
1 0.501961 0.517647 1 0.501961 0.517647 
1 0.501961 0.517647 1 0.501961 0.517647 
1 0.501961 0.517647 1 0.501961 0.517647 
1 0.501961 0.517647 1 0.501961 0.517647 
1 0.501961 0.517647 1 0.501961 0.517647 
1 0.501961 0.517647 1 0.501961 0.517647 
1 0.501961 0.517647 1 0.501961 0.517647 
1 0.501961 0.517647 1 0.501961 0.517647 
1 0.501961 0.517647 1 0.501961 0.517647 
1 0.501961 0.517647 1 0.501961 0.517647 
1 0.501961 0.517647 1 0.501961 0.517647 
1 0.501961 0.517647 1 0.501961 0.517647 
1 0.501961 0.517647 1 0.501961 0.517647 
1 0.501961 0.517647 1 0.501961 0.517647 
1 0.501961 0.517647 1 0.501961 0.517647 
1 0.501961 0.517647 1 0.501961 0.517647 
1 0.501961 0.517647 1 0.501961 0.517647 
1 0.501961 0.517647 1 0.501961 0.517647 
1 0.501961 0.517647 1 0.501961 0.517647 
1 0.501961 0.517647 1 0.501961 0.517647 
1 0.501961 0.517647 1 0.501961 0.517647 
1 0.501961 0.517647 1 0.501961 0.517647 
1 0.501961 0.517647 1 0.501961 0.517647 
1 0.501961 0.517647 1 0.501961 0.517647 
1 0.501961 0.517647 1 0.501961 0.517647 
1 0.501961 0.517647 1 0.501961 0.517647 
1 0.501961 0.517647 1 0.501961 0.517647 
1 0.501961 0.517647 1 0.501961 0.517647 
1 0.501961 0.517647 1 0.501961 0.517647 
1 0.501961 0.517647 1 0.501961 0.517647 
1 0.501961 0.517647 1 0.501961 0.517647 
1 0.501961 0.517647 1 0.501961 0.517647 
1 0.501961 0.517647 1 0.501961 0.517647 
1 0.501961 0.517647 1 0.501961 0.517647 
1 0.501961 0.517647 1 0.501961 0.517647 
1 0.501961 0.517647 1 0.501961 0.517647 
1 0.501961 0.517647 1 0.501961 0.517647 
1 0.501961 0.517647 1 0.501961 0.517647 
1 0.501961 0.517647 1 0.501961 0.517647 
1 0.501961 0.517647 1 0.501961 0.517647 
1 0.501961 0.517647 1 0.501961 0.517647 
1 0.501961 0.517647 1 0.501961 0.517647 
1 0.501961 0.517647 1 0.501961 0.517647 
1 0.501961 0.517647 1 0.501961 0.517647 
1 0.501961 0.517647 1 0.501961 0.517647 
1 0.501961 0.517647 1 0.501961 0.517647 
1 0.501961 0.517647 1 0.501961 0.517647 
1 0.501961 0.517647 1 0.501961 0.517647 
1 0.501961 0.517647 1 0.501961 0.517647 
1 0.501961 0.517647 1 0.501961 0.517647 
1 0.501961 0.517647 1 0.501961 0.517647 
1 0.501961 0.517647 1 0.501961 0.517647 
1 0.501961 0.517647 1 0.501961 0.517647 
1 0.501961 0.517647 1 0.501961 0.517647 
1 0.501961 0.517647 1 0.501961 0.517647 
1 0.501961 0.517647 1 0.501961 0.517647 
1 0.501961 0.517647 1 0.501961 0.517647 
1 0.501961 0.517647 1 0.501961 0.517647 
1 0.501961 0.517647 1 0.501961 0.517647 
1 0.501961 0.517647 1 0.501961 0.517647 
1 0.501961 0.517647 1 0.501961 0.517647 
1 0.501961 0.517647 1 0.501961 0.517647 
1 0.501961 0.517647 1 0.501961 0.517647 
1 0.501961 0.517647 1 0.501961 0.517647 
1 0.501961 0.517647 1 0.501961 0.517647 
1 0.501961 0.517647 1 0.501961 0.517647 
1 0.501961 0.517647 1 0.501961 0.517647 
1 0.501961 0.517647 1 0.501961 0.517647 
1 0.501961 0.517647 1 0.501961 0.517647 
1 0.501961 0.517647 1 0.501961 0.517647 
1 0.501961 0.517647 1 0.501961 0.517647 
1 0.501961 0.517647 1 0.501961 0.517647 
1 0.501961 0.517647 1 0.501961 0.517647 
1 0.501961 0.517647 1 0.501961 0.517647 
1 0.501961 0.517647 1 0.501961 0.517647 
1 0.501961 0.517647 1 0.501961 0.517647 
1 0.501961 0.517647 1 0.501961 0.517647 
1 0.501961 0.517647 1 0.501961 0.517647 
1 0.501961 0.517647 1 0.501961 0.517647 
1 0.501961 0.517647 1 0.501961 0.517647 
1 0.501961 0.517647 1 0.501961 0.517647 
1 0.501961 0.517647 1 0.501961 0.517647 
1 0.501961 0.517647 1 0.501961 0.517647 
1 0.501961 0.517647 1 0.501961 0.517647 
1 0.501961 0.517647 1 0.501961 0.517647 
1 0.501961 0.517647 1 0.501961 0.517647 
1 0.501961 0.517647 1 0.501961 0.517647 
1 0.501961 0.517647 1 0.501961 0.517647 
1 0.501961 0.517647 1 0.501961 0.517647 
1 0.501961 0.517647 1 0.501961 0.517647 
1 0.501961 0.517647 1 0.501961 0.517647 
1 0.501961 0.517647 1 0.501961 0.517647 
1 0.501961 0.517647 1 0.501961 0.517647 
1 0.501961 0.517647 1 0.501961 0.517647 
1 0.501961 0.517647 1 0.501961 0.517647 
1 0.501961 0.517647 1 0.501961 0.517647 
1 0.501961 0.517647 1 0.501961 0.517647 
1 0.501961 0.517647 1 0.501961 0.517647 
1 0.501961 0.517647 1 0.501961 0.517647 
1 0.501961 0.517647 1 0.501961 0.517647 
1 0.501961 0.517647 1 0.501961 0.517647 
1 0.501961 0.517647 1 0.501961 0.517647 
1 0.501961 0.517647 1 0.501961 0.517647 
1 0.501961 0.517647 1 0.501961 0.517647 
1 0.501961 0.517647 1 0.501961 0.517647 
1 0.501961 0.517647 1 0.501961 0.517647 
1 0.501961 0.517647 1 0.501961 0.517647 
1 0.501961 0.517647 1 0.501961 0.517647 
1 0.501961 0.517647 1 0.501961 0.517647 
1 0.501961 0.517647 1 0.501961 0.517647 
1 0.501961 0.517647 1 0.501961 0.517647 
1 0.501961 0.517647 1 0.501961 0.517647 
1 0.501961 0.517647 1 0.501961 0.517647 
1 0.501961 0.517647 1 0.501961 0.517647 
1 0.501961 0.517647 1 0.501961 0.517647 
1 0.501961 0.517647 1 0.501961 0.517647 
1 0.501961 0.517647 1 0.501961 0.517647 
1 0.501961 0.517647 1 0.501961 0.517647 
1 0.501961 0.517647 1 0.501961 0.517647 
1 0.501961 0.517647 1 0.501961 0.517647 
1 0.501961 0.517647 1 0.501961 0.517647 
1 0.501961 0.517647 1 0.501961 0.517647 
1 0.501961 0.517647 1 0.501961 0.517647 
1 0.501961 0.517647 1 0.501961 0.517647 
1 0.501961 0.517647 1 0.501961 0.517647 
1 0.501961 0.517647 1 0.501961 0.517647 
1 0.501961 0.517647 1 0.501961 0.517647 
1 0.501961 0.517647 1 0.501961 0.517647 
1 0.501961 0.517647 1 0.501961 0.517647 
1 0.501961 0.517647 1 0.501961 0.517647 
1 0.501961 0.517647 1 0.501961 0.517647 
1 0.501961 0.517647 1 0.501961 0.517647 
1 0.501961 0.517647 1 0.501961 0.517647 
1 0.501961 0.517647 1 0.501961 0.517647 
1 0.501961 0.517647 1 0.501961 0.517647 
1 0.501961 0.517647 1 0.501961 0.517647 
1 0.501961 0.517647 1 0.501961 0.517647 
1 0.501961 0.517647 1 0.501961 0.517647 
1 0.501961 0.517647 1 0.501961 0.517647 
1 0.501961 0.517647 1 0.501961 0.517647 
1 0.501961 0.517647 1 0.501961 0.517647 
1 0.501961 0.517647 1 0.501961 0.517647 
1 0.501961 0.517647 1 0.501961 0.517647 
1 0.501961 0.517647 1 0.501961 0.517647 
1 0.501961 0.517647 1 0.501961 0.517647 
1 0.501961 0.517647 1 0.501961 0.517647 
1 0.501961 0.517647 1 0.501961 0.517647 
1 0.501961 0.517647 1 0.501961 0.517647 
1 0.501961 0.517647 1 0.501961 0.517647 
1 0.501961 0.517647 1 0.501961 0.517647 
1 0.501961 0.517647 1 0.501961 0.517647 
1 0.501961 0.517647 1 0.501961 0.517647 
1 0.501961 0.517647 1 0.501961 0.517647 
1 0.501961 0.517647 1 0.501961 0.517647 
1 0.501961 0.517647 1 0.501961 0.517647 
1 0.501961 0.517647 1 0.501961 0.517647 
1 0.501961 0.517647 1 0.501961 0.517647 
1 0.501961 0.517647 1 0.501961 0.517647 
1 0.501961 0.517647 1 0.501961 0.517647 
1 0.501961 0.517647 1 0.501961 0.517647 
1 0.501961 0.517647 1 0.501961 0.517647 
1 0.501961 0.517647 1 0.501961 0.517647 
1 0.501961 0.517647 1 0.501961 0.517647 
1 0.501961 0.517647 1 0.501961 0.517647 
1 0.501961 0.517647 1 0.501961 0.517647 
1 0.501961 0.517647 1 0.501961 0.517647 
1 0.501961 0.517647 1 0.501961 0.517647 
1 0.501961 0.517647 1 0.501961 0.517647 
1 0.501961 0.517647 1 0.501961 0.517647 
1 0.501961 0.517647 1 0.501961 0.517647 
1 0.501961 0.517647 1 0.501961 0.517647 
1 0.501961 0.517647 1 0.501961 0.517647 
1 0.501961 0.517647 1 0.501961 0.517647 
1 0.501961 0.517647 1 0.501961 0.517647 
1 0.501961 0.517647 1 0.501961 0.517647 
1 0.501961 0.517647 1 0.501961 0.517647 
1 0.501961 0.517647 1 0.501961 0.517647 
1 0.501961 0.517647 1 0.501961 0.517647 
1 0.501961 0.517647 1 0.501961 0.517647 
1 0.501961 0.517647 1 0.501961 0.517647 
1 0.501961 0.517647 1 0.501961 0.517647 
1 0.501961 0.517647 1 0.501961 0.517647 
1 0.501961 0.517647 1 0.501961 0.517647 
1 0.501961 0.517647 1 0.501961 0.517647 
1 0.501961 0.517647 1 0.501961 0.517647 
1 0.501961 0.517647 1 0.501961 0.517647 
1 0.501961 0.517647 1 0.501961 0.517647 
1 0.501961 0.517647 1 0.501961 0.517647 
1 0.501961 0.517647 1 0.501961 0.517647 
1 0.501961 0.517647 1 0.501961 0.517647 
1 0.501961 0.517647 1 0.501961 0.517647 
1 0.501961 0.517647 1 0.501961 0.517647 
1 0.501961 0.517647 1 0.501961 0.517647 
1 0.501961 0.517647 1 0.501961 0.517647 
1 0.501961 0.517647 1 0.501961 0.517647 
1 0.501961 0.517647 1 0.501961 0.517647 
1 0.501961 0.517647 1 0.501961 0.517647 
1 0.501961 0.517647 1 0.501961 0.517647 
1 0.501961 0.517647 1 0.501961 0.517647 
1 0.501961 0.517647 1 0.501961 0.517647 
1 0.501961 0.517647 1 0.501961 0.517647 
1 0.501961 0.517647 1 0.501961 0.517647 
1 0.501961 0.517647 1 0.501961 0.517647 
1 0.501961 0.517647 1 0.501961 0.517647 
1 0.501961 0.517647 1 0.501961 0.517647 
1 0.501961 0.517647 1 0.501961 0.517647 
1 0.501961 0.517647 1 0.501961 0.517647 
1 0.501961 0.517647 1 0.501961 0.517647 
1 0.501961 0.517647 1 0.501961 0.517647 
1 0.501961 0.517647 1 0.501961 0.517647 
1 0.501961 0.517647 1 0.501961 0.517647 
1 0.501961 0.517647 1 0.501961 0.517647 
1 0.501961 0.517647 1 0.501961 0.517647 
1 0.501961 0.517647 1 0.501961 0.517647 
1 0.501961 0.517647 1 0.501961 0.517647 
1 0.501961 0.517647 1 0.501961 0.517647 
1 0.501961 0.517647 1 0.501961 0.517647 
1 0.501961 0.517647 1 0.501961 0.517647 
1 0.501961 0.517647 1 0.501961 0.517647 
1 0.501961 0.517647 1 0.501961 0.517647 
1 0.501961 0.517647 1 0.501961 0.517647 

NORMALS Normals float
-0.0604064 -0.019274 -0.997988 -0.0918815 0.05633 -0.994175 -0.219727 0.226351 -0.948939 
-0.0235001 0.151483 -0.988181 0.0499775 -0.0188486 -0.998572 -0.227583 0.536211 -0.812825 
-0.261969 -0.152279 -0.952986 0.0467425 -0.170783 -0.984199 -0.286047 0.247943 -0.925582 
-0.242685 0.160318 -0.956766 0.0669089 -0.262057 -0.96273 0.125143 -0.231285 -0.964804 
0.18872 -0.188666 -0.963738 -0.0214052 -0.0169639 -0.999627 -0.238452 0.425249 -0.8731 
0.15602 -0.18958 -0.96939 0.253606 -0.0580292 -0.965566 0.12292 0.210825 -0.969765 
0.17489 0.318837 -0.931535 0.0582661 -0.41977 -0.905759 -0.524621 0.363196 -0.769975 
0.411872 -0.226432 -0.882661 0.35389 0.00567126 -0.93527 0.28275 0.0602594 -0.957299 
0.0488714 0.472939 -0.879739 -0.0256475 0.547435 -0.836455 -0.0876161 0.407024 -0.909205 
0.271133 0.367453 -0.889643 -0.0523403 0.48275 -0.874192 0.539067 -0.288699 -0.791239 
0.155389 0.474534 -0.866413 -0.327316 -0.317076 -0.890127 -0.582027 0.0967087 -0.807399 
0.19217 -0.437311 -0.878538 0.298043 -0.342238 -0.891091 -0.235888 0.648065 -0.724132 
0.381992 0.128414 -0.915201 0.00142555 -0.646161 -0.7632 0.00843247 -0.605842 -0.795541 
-0.720959 0.443506 -0.532467 -0.494285 0.545351 -0.67696 0.564177 -0.45096 -0.691621 
0.556719 -0.141227 -0.818608 0.789504 0.128568 -0.600127 0.442057 0.222123 -0.86905 
0.640355 0.221359 -0.73549 -0.293785 -0.497584 -0.81615 0.287121 -0.556347 -0.779769 
-0.566822 -0.210826 -0.796407 0.457584 -0.525371 -0.717358 -0.640262 0.4309 -0.635916 
0.760323 -0.179073 -0.624373 0.894705 0.0944758 -0.436552 0.894096 0.142053 -0.424751 
0.499754 0.224179 -0.836654 0.907134 0.178 -0.381346 0.486084 0.292159 -0.82363 
-0.119704 0.695293 -0.708688 0.521202 0.490274 -0.698556 0.465617 0.648301 -0.602417 
0.233569 0.792219 -0.563768 0.363993 0.60305 -0.709817 -0.220973 -0.62683 -0.747164 
-0.573562 -0.351129 -0.740091 -0.723746 -0.00283145 -0.690061 -0.749275 0.317593 -0.581138 
-0.704243 0.603232 -0.374371 0.893744 -0.141704 -0.425608 0.915108 -0.0109179 -0.403061 
0.970387 0.241239 0.012327 0.954715 0.288141 -0.0741154 0.876758 0.353463 -0.326127 
0.69249 0.661703 -0.287415 0.839646 0.514584 -0.173775 -0.0643027 0.909838 -0.409952 
0.642643 0.758777 -0.106149 0.156618 0.843438 -0.51389 0.414431 0.900724 -0.130167 
-0.421116 -0.533438 -0.733556 0.0206331 -0.686717 -0.726632 -0.776131 0.375052 -0.506908 
-0.735137 0.524539 -0.429456 0.738885 -0.342269 -0.580431 -0.701177 0.485905 -0.521773 
0.935366 -0.156404 -0.317221 -0.495548 0.585533 -0.641547 -0.397774 0.693504 -0.600689 
0.986405 0.0172634 -0.163425 0.944059 0.267074 0.193454 0.966572 0.250844 0.05307 
0.853926 0.508147 0.112237 0.655473 0.734867 0.174144 0.617816 0.775701 0.128804 
-0.0781629 0.957494 -0.277662 -0.298257 0.254137 -0.920031 0.531235 0.825903 -0.188873 
0.437287 0.896204 -0.0748265 0.192676 0.90811 -0.371768 0.0241811 -0.791756 -0.610359 
-0.518599 -0.445336 -0.729884 -0.766596 0.160526 -0.621741 -0.710596 0.557101 -0.429759 
-0.658256 0.579584 -0.480397 0.933032 -0.158881 -0.322812 -0.703809 0.662531 -0.256332 
-0.538405 0.766163 -0.350875 -0.446601 0.850624 -0.277465 0.727528 0.492424 0.477725 
-0.417854 0.755805 -0.50414 0.535684 0.784856 0.311519 0.309619 0.920305 0.239113 
-0.814558 0.5478 -0.190817 0.974369 -0.153504 -0.164442 0.999292 0.0374737 0.00327596 
-0.606945 0.788074 -0.102745 0.962804 0.18895 0.193149 -0.54209 0.823216 -0.168684 
-0.477491 0.873679 0.0932081 -0.286375 0.781428 -0.5544 -0.583224 0.724228 -0.367891 
-0.262196 0.920354 -0.290175 0.463069 0.765776 0.446267 0.246459 0.863866 0.43931 
0.431165 -0.707782 -0.55959 -0.729963 0.679417 -0.0744784 0.785149 -0.479865 -0.391498 
-0.737014 0.661617 0.138102 -0.635843 0.765477 0.0987373 0.759592 0.372399 0.533235 
-0.501139 0.860302 0.0934882 -0.442128 0.862331 -0.246796 -0.480406 0.87284 -0.0857901 
-0.166457 0.985116 -0.0428643 -0.257376 0.945938 -0.197379 -0.199982 0.921688 -0.332414 
-0.25191 0.967529 0.0207203 -0.0536305 0.947326 0.315749 0.00655064 0.999537 0.0297182 
-0.599292 -0.465691 -0.651138 0.92783 -0.330895 -0.172163 0.991671 0.0691102 0.108689 
0.816564 0.309747 0.487113 -0.627864 0.723958 0.285781 -0.500478 0.829086 0.249275 
-0.520855 0.830287 0.198328 0.477615 0.585602 0.654946 -0.396731 0.888886 0.229099 
-0.390506 0.919502 0.0449634 -0.364812 0.920963 0.136894 -0.155587 0.921976 0.354618 
-0.137049 0.91053 0.390068 -0.150644 0.974194 0.168088 -0.281413 -0.796636 -0.534956 
-0.00221501 -0.890455 -0.455066 -0.594383 -0.574569 -0.562653 0.193267 -0.814711 -0.546712 
0.639922 -0.572039 -0.5131 -0.82193 0.567103 0.0531505 0.962836 -0.266103 0.0462134 