# vtk DataFile Version 4.2
vtk output
ASCII
DATASET POLYDATA
POINTS 1646 float
258.238 229.778 157.488 259.144 230.194 157.198 259.269 229.965 157.389 
258.418 230.684 156.883 258.211 231.857 156.562 260.213 231.667 157.072 
258.804 232.749 156.556 259.289 232.765 156.617 261.135 231.613 157.538 
262.171 231.485 158.213 255.849 232.363 157.002 258.288 232.898 156.579 
260.895 233.199 156.991 261.565 233.126 157.242 263.055 233.146 157.887 
260.46 234.252 156.906 262.156 234.611 157.348 262.709 234.403 157.539 
260.967 235.647 157.234 257.693 228.695 158.839 259.382 229.515 158.255 
253.494 230.349 158.461 254.812 230.719 157.667 260.891 230.11 158.652 
265.807 235.122 158.713 254.272 235.632 157.705 262.685 235.949 157.65 
264.933 236.361 158.352 255.554 228.831 158.933 267.53 236.172 159.333 
266.564 237.058 158.94 249.72 238.506 158.857 265.503 237.916 158.796 
252.229 242.35 159.046 266.952 233.431 160.23 269.766 237.382 160.047 
266.644 238.919 159.348 244.517 245.564 160.085 247.815 244.752 159.669 
245.122 246.299 160.024 245.842 246.835 160.037 245.659 247.439 160.138 
255.233 227.469 161.4 250.062 229.264 160.922 275.135 237.384 162.152 
275.17 239.171 161.358 278.005 239.178 162.232 271.924 240.169 160.675 
278.04 239.62 162.02 278.348 240.65 161.819 271.341 241.682 161.013 
277.321 241.384 161.491 243.255 245.25 160.391 248.704 249.514 161.533 
240.454 251.389 161.69 246.088 250.893 161.815 251.894 227.597 161.998 
251.087 227.962 161.828 273.632 236.273 162.386 279.283 240.473 162.222 
281.026 240.123 163.185 280.188 241.346 162.27 281.995 241.189 163.067 
281.824 242.139 162.583 276.934 243.018 161.595 278.961 243.007 161.77 
279.901 242.996 161.912 238.567 248.203 161.88 238.012 250.257 162.165 
238.497 253.035 162.687 251.337 227.461 162.425 247.186 229.979 162.157 
278.487 238.33 163.163 286.111 245.033 163.852 259.924 246.229 162.425 
258.463 246.793 162.568 279.451 247.351 162.919 284.889 247.362 163.399 
235.946 251.327 163.309 236.05 253.178 163.631 242.735 253.533 163.311 
249.759 226.509 164.057 245.152 229.189 163.672 281.022 239.339 163.87 
285.323 242.104 164.609 285.987 243.834 164.103 285.261 249.399 164.1 
234.693 251.045 164.154 235.392 252.689 163.918 235.561 255.05 164.72 
248.011 226.475 164.469 236.243 241.616 164.13 234.54 242.997 164.951 
288.875 247.029 165.217 280.963 250.126 164.161 245.96 253.281 164.349 
234.177 255.048 165.716 234.913 256.191 165.899 246.582 224.89 165.901 
256.821 226.209 165.608 263.929 229.294 165.938 285.638 241.107 165.846 
287.461 242.355 166.173 288.767 243.682 166.188 289.851 245.809 165.99 
287.593 251.589 165.673 240.873 255.925 165.608 243.916 225.114 166.274 
253.082 224.385 166.659 235.465 232.583 166.508 234.197 235.414 166.661 
285.348 240.183 166.898 291.745 246.305 167.052 291.492 250.357 167.013 
232.262 251.29 167.309 278.22 254.08 167.063 284.9 253.756 166.372 
250.595 223.403 167 259.716 226.734 166.872 233.867 229.252 168.335 
232.563 233.018 168.711 232.453 238.064 168.095 232.014 241.348 168.58 
231.824 245.659 168.428 293.4 248.169 167.75 254.046 252.949 167.178 
256.215 252.733 167.378 291.321 253.224 168.17 280.996 255.682 167.935 
285.459 255.442 167.763 235.444 258.52 168.615 235.138 258.605 168.927 
235.99 258.575 168.589 240.032 221.085 168.857 252.802 222.569 167.971 
235.602 225.915 168.484 235.213 226.755 168.37 265.946 229.32 167.827 
271.616 232.144 168.32 296.073 247.028 169.204 246.624 255.389 168.08 
273.43 255.261 168.937 287.813 256.292 169.378 233.58 258.051 169.928 
239.176 258.394 169.21 250.056 215.301 170.416 254.007 216.451 170.286 
259.605 217.496 170.486 263.649 217.718 170.657 263.101 217.207 170.936 
265.036 217.306 171.087 266.755 217.863 170.903 267.337 217.467 171.359 
269.871 217.967 171.023 272.222 217.791 171.347 260.263 218.166 170.282 
267.351 218.47 170.61 269.408 218.374 170.757 272.058 218.459 170.882 
273.041 218.024 171.153 273.707 218.436 171.058 274.168 218.476 171.139 
274.484 218.412 171.292 264.831 218.91 170.334 268.09 218.913 170.501 
270.867 219.065 170.665 272.577 218.887 170.848 274.457 218.661 171.216 
255.962 221.117 169.282 233.939 224.03 170.278 263.843 227.078 168.853 
232.742 227.971 169.92 265.731 228.378 168.66 268.974 230.204 168.766 
292.076 242.422 169.541 297.735 250.607 170.535 293.466 253.984 169.925 
231.69 254.31 170.74 241.439 257.728 169.393 239.862 258.191 169.205 
281.865 257.307 170.126 286.45 257.212 170.242 234.737 259.095 170.317 
245.914 214.201 171.597 251.656 214.021 171.903 250.562 214.829 170.809 
254.509 214.995 171.619 254.534 214.719 172.072 244.436 215.425 170.75 
256.658 215.698 171.403 258.112 215.592 171.896 255.135 216.039 170.768 
259.366 216.324 171.253 264.456 216.919 171.385 264.808 216.698 171.816 
268.029 217.247 171.892 274.654 218.185 171.558 275.038 218.043 171.936 
275.953 218.43 172.232 275.743 218.734 171.864 266.367 219.545 170.326 
275.918 219.112 171.83 275.275 219.555 171.513 265.041 222.659 170.224 
263.17 223.795 169.834 265.352 224.921 170.072 232.776 225.054 171.004 
266.782 227.715 169.508 231.901 228.664 171.311 231.783 229.71 171.29 
274.513 231.783 170.467 279.106 234.924 170.853 290.412 240.991 170.202 
299.869 246.8 171.339 252.275 256.395 170.988 270.259 256.974 171.064 
289.616 256.548 170.884 233.89 259.045 171.212 235.926 259.641 170.9 
244.261 213.681 173.033 250.681 213.733 172.236 251.805 213.83 172.637 
243.275 214.101 172.439 254.174 214.48 172.502 254.787 214.574 172.807 
257.741 215.333 172.425 265.252 216.627 172.225 266.586 216.83 172.681 
268.77 217.175 172.462 272.752 217.484 172.289 267.647 222.838 170.541 
271.771 222.286 171.038 268.66 223.547 170.694 271.477 223.274 171.078 
271.283 224.139 171.091 269.402 225.149 170.79 271.164 224.979 171.083 
268.409 226.011 170.533 270.229 226.829 170.761 270.066 228.576 170.262 
276.977 233.208 170.935 231.275 235.868 172.154 300.666 245.529 171.974 
301.039 245.942 172.094 301.117 248.213 172.105 300.88 248.876 172.085 
298.465 252.652 172.242 232.017 257.293 173.115 270.603 258.02 172.281 
282.077 257.861 172.212 286.396 257.641 171.682 247.082 213.353 173.161 
250.34 213.576 172.653 253.393 214.212 173.031 255.837 214.81 173.434 
262.417 216.13 173.028 268.443 217.106 173.148 275.004 217.737 172.771 
278.513 219.464 173.891 279.07 220.5 173.747 278.723 221.308 173.366 
277.655 231.205 172.561 277.071 232.301 171.661 279.798 234.545 171.991 
283.568 236.425 172.903 299.813 242.286 173.186 302.345 246.807 172.788 
302.865 248.135 173.195 295.477 254.83 173.043 232.579 258.634 173.293 
232.936 259.089 173.162 269.114 258.943 173.726 251.087 213.632 173.318 
239.356 214.439 174.013 253.52 214.247 173.712 258.311 215.346 173.717 
235.991 216.342 173.931 261.594 215.997 173.676 263.285 216.271 173.506 
235.323 217.057 173.748 267.346 217.044 173.948 267 217.048 174.224 
270.24 217.33 173.694 272.312 217.44 173.625 270.968 217.513 174.362 
274.089 217.625 174.205 277.142 218.358 173.962 279.682 220.292 174.302 
232.599 220.522 174.358 232.209 222.053 173.993 278.057 228.807 173.292 
279.137 231.925 173.352 285.923 237.123 173.914 303.636 243.779 173.979 
304.076 248.558 174.122 250.313 258.469 173.619 273.395 258.582 173.736 
280.808 257.866 173.628 246.81 213.316 174.44 236.315 215.465 175.388 
253.318 214.462 174.834 256.447 215.11 174.613 234.013 217.767 174.733 
275.727 217.885 174.772 277.959 218.415 175.306 278.861 218.711 175.595 
279.773 219.177 175.519 280.662 219.706 175.532 232.544 219.917 175.367 
280.987 221.595 174.853 282.126 221.184 175.662 290.719 238.515 174.946 
305.529 241.961 175.613 306.313 243.18 175.574 306.128 245.659 175.147 
303.846 249.824 174.438 303.908 250.644 174.989 301.775 252.441 174.994 
289.27 257.089 174.585 280.056 257.733 175.26 269.452 259.489 174.92 
272.218 259.024 174.936 236.868 261.169 174.378 233.188 260.54 175.779 
239.882 213.629 176.261 240.687 213.558 175.402 241.999 213.401 175.924 
248.325 213.648 175.303 260.239 216.283 175.77 261.917 216.622 175.784 
276.346 218.176 176.312 281.668 219.664 176.377 282.537 220.486 176.239 
282.691 222.09 175.964 282.071 233.078 175.12 303.674 239.982 176.286 
306.924 247.641 175.972 305.92 249.67 176.093 304.93 250.698 175.887 
297.225 254.961 176.591 231.432 256.621 176.446 258.21 260.702 175.914 
267.838 260.032 176.346 269.579 259.732 176.097 237.337 214.639 176.623 
252.838 215.047 176.355 234.283 216.726 177.103 232.323 220.002 176.522 
278.146 218.444 177.157 283.994 220.339 177.496 284.994 220.71 178.042 
282.311 225.892 176.232 302.435 239.281 176.739 305.921 239.794 177.216 
307.203 249.737 177.554 303.231 252.589 176.816 270.879 259.476 176.343 
268.503 259.985 177.02 266.181 260.616 177.418 240.15 213.69 177.338 
241.596 213.66 177.199 243.493 214.277 178.08 269.106 219.372 178.739 
269.897 219.332 178.656 274.315 218.908 178.518 284.943 219.993 178.558 
231.643 222.545 177.449 283.357 228.778 177.14 282.756 229.603 176.699 
309.673 241.782 178.187 309.677 246.123 177.962 308.828 247.939 177.716 
305.388 251.241 177.188 272.688 258.683 178.176 273.707 258.444 177.96 
241.161 262.052 177.402 258.204 262.35 178.295 262.192 261.719 178.5 
263.609 261.385 178.422 237.899 214.612 178.45 260.727 217.792 178.399 
280.711 218.732 178.969 285.32 219.64 179.407 276.395 218.976 179.39 
286.381 220.562 179.479 286.642 222.608 178.967 287.48 222.031 179.785 
287.636 234.017 178.547 309.825 239.249 179.799 310.808 244.309 178.783 
311.938 243.445 179.946 310.757 246.36 179.174 307.385 250.598 179.117 
298.056 254.9 179.425 268.366 259.897 178.693 233.496 262.231 179.349 
233.244 262.187 179.863 254.993 262.823 178.871 234.651 262.948 179.673 
235.499 263.134 179.473 235.656 216.143 179.575 236.727 215.594 179.684 
233.849 217.837 179.588 233.639 218.209 179.736 278.853 218.767 179.408 
284.665 219.206 180.048 285.452 219.463 179.981 281.168 218.826 180.547 
310.994 240.017 180.022 311.453 246.286 180.053 309.569 248.96 180.12 
[...]
POINT_DATA 1646
COLOR_SCALARS scalars 3
0.94902 0.282353 0.231373 0.94902 0.282353 0.231373 0.94902 0.282353 0.231373 
0.94902 0.282353 0.231373 0.94902 0.282353 0.231373 
0.94902 0.282353 0.231373 0.94902 0.282353 0.231373 
0.94902 0.282353 0.231373 0.94902 0.282353 0.231373 
0.94902 0.282353 0.231373 0.94902 0.282353 0.231373 
0.94902 0.282353 0.231373 0.94902 0.282353 0.231373 
0.94902 0.282353 0.231373 0.94902 0.282353 0.231373 
0.94902 0.282353 0.231373 0.94902 0.282353 0.231373 
0.94902 0.282353 0.231373 0.94902 0.282353 0.231373 
0.94902 0.282353 0.231373 0.94902 0.282353 0.231373 
0.94902 0.282353 0.231373 0.94902 0.282353 0.231373 
0.94902 0.282353 0.231373 0.94902 0.282353 0.231373 
0.94902 0.282353 0.231373 0.94902 0.282353 0.231373 
0.94902 0.282353 0.231373 0.94902 0.282353 0.231373 
0.94902 0.282353 0.231373 0.94902 0.282353 0.231373 
0.94902 0.282353 0.231373 0.94902 0.282353 0.231373 
0.94902 0.282353 0.231373 0.94902 0.282353 0.231373 
0.94902 0.282353 0.231373 0.94902 0.282353 0.231373 
0.94902 0.282353 0.231373 0.94902 0.282353 0.231373 
0.94902 0.282353 0.231373 0.94902 0.282353 0.231373 
0.94902 0.282353 0.231373 0.94902 0.282353 0.231373 
0.94902 0.282353 0.231373 0.94902 0.282353 0.231373 
0.94902 0.282353 0.231373 0.94902 0.282353 0.231373 
0.94902 0.282353 0.231373 0.94902 0.282353 0.231373 
0.94902 0.282353 0.231373 0.94902 0.282353 0.231373 
0.94902 0.282353 0.231373 0.94902 0.282353 0.231373 
0.94902 0.282353 0.231373 0.94902 0.282353 0.231373 
0.94902 0.282353 0.231373 0.94902 0.282353 0.231373 
0.94902 0.282353 0.231373 0.94902 0.282353 0.231373 
0.94902 0.282353 0.231373 0.94902 0.282353 0.231373 
0.94902 0.282353 0.231373 0.94902 0.282353 0.231373 
0.94902 0.282353 0.231373 0.94902 0.282353 0.231373 
0.94902 0.282353 0.231373 0.94902 0.282353 0.231373 
0.94902 0.282353 0.231373 0.94902 0.282353 0.231373 
0.94902 0.282353 0.231373 0.94902 0.282353 0.231373 
0.94902 0.282353 0.231373 0.94902 0.282353 0.231373 
0.94902 0.282353 0.231373 0.94902 0.282353 0.231373 
0.94902 0.282353 0.231373 0.94902 0.282353 0.231373 
0.94902 0.282353 0.231373 0.94902 0.282353 0.231373 
0.94902 0.282353 0.231373 0.94902 0.282353 0.231373 
0.94902 0.282353 0.231373 0.94902 0.282353 0.231373 
0.94902 0.282353 0.231373 0.94902 0.282353 0.231373 
0.94902 0.282353 0.231373 0.94902 0.282353 0.231373 
0.94902 0.282353 0.231373 0.94902 0.282353 0.231373 
0.94902 0.282353 0.231373 0.94902 0.282353 0.231373 
0.94902 0.282353 0.231373 0.94902 0.282353 0.231373 
0.94902 0.282353 0.231373 0.94902 0.282353 0.231373 
0.94902 0.282353 0.231373 0.94902 0.282353 0.231373 
0.94902 0.282353 0.231373 0.94902 0.282353 0.231373 
0.94902 0.282353 0.231373 0.94902 0.282353 0.231373 
0.94902 0.282353 0.231373 0.94902 0.282353 0.231373 
0.94902 0.282353 0.231373 0.94902 0.282353 0.231373 
0.94902 0.282353 0.231373 0.94902 0.282353 0.231373 
0.94902 0.282353 0.231373 0.94902 0.282353 0.231373 
0.94902 0.282353 0.231373 0.94902 0.282353 0.231373 
0.94902 0.282353 0.231373 0.94902 0.282353 0.231373 
0.94902 0.282353 0.231373 0.94902 0.282353 0.231373 
0.94902 0.282353 0.231373 0.94902 0.282353 0.231373 
0.94902 0.282353 0.231373 0.94902 0.282353 0.231373 
0.94902 0.282353 0.231373 0.94902 0.282353 0.231373 
0.94902 0.282353 0.231373 0.94902 0.282353 0.231373 
0.94902 0.282353 0.231373 0.94902 0.282353 0.231373 
0.94902 0.282353 0.231373 0.94902 0.282353 0.231373 
0.94902 0.282353 0.231373 0.94902 0.282353 0.231373 
0.94902 0.282353 0.231373 0.94902 0.282353 0.231373 
0.94902 0.282353 0.231373 0.94902 0.282353 0.231373 
0.94902 0.282353 0.231373 0.94902 0.282353 0.231373 
0.94902 0.282353 0.231373 0.94902 0.282353 0.231373 
0.94902 0.282353 0.231373 0.94902 0.282353 0.231373 
0.94902 0.282353 0.231373 0.94902 0.282353 0.231373 
0.94902 0.282353 0.231373 0.94902 0.282353 0.231373 
0.94902 0.282353 0.231373 0.94902 0.282353 0.231373 
0.94902 0.282353 0.231373 0.94902 0.282353 0.231373 
0.94902 0.282353 0.231373 0.94902 0.282353 0.231373 
0.94902 0.282353 0.231373 0.94902 0.282353 0.231373 
0.94902 0.282353 0.231373 0.94902 0.282353 0.231373 
0.94902 0.282353 0.231373 0.94902 0.282353 0.231373 
0.94902 0.282353 0.231373 0.94902 0.282353 0.231373 
0.94902 0.282353 0.231373 0.94902 0.282353 0.231373 
0.94902 0.282353 0.231373 0.94902 0.282353 0.231373 
0.94902 0.282353 0.231373 0.94902 0.282353 0.231373 
0.94902 0.282353 0.231373 0.94902 0.282353 0.231373 
0.94902 0.282353 0.231373 0.94902 0.282353 0.231373 
0.94902 0.282353 0.231373 0.94902 0.282353 0.231373 
0.94902 0.282353 0.231373 0.94902 0.282353 0.231373 
0.94902 0.282353 0.231373 0.94902 0.282353 0.231373 
0.94902 0.282353 0.231373 0.94902 0.282353 0.231373 
0.94902 0.282353 0.231373 0.94902 0.282353 0.231373 
0.94902 0.282353 0.231373 0.94902 0.282353 0.231373 
0.94902 0.282353 0.231373 0.94902 0.282353 0.231373 
0.94902 0.282353 0.231373 0.94902 0.282353 0.231373 
0.94902 0.282353 0.231373 0.94902 0.282353 0.231373 
0.94902 0.282353 0.231373 0.94902 0.282353 0.231373 
0.94902 0.282353 0.231373 0.94902 0.282353 0.231373 
0.94902 0.282353 0.231373 0.94902 0.282353 0.231373 
0.94902 0.282353 0.231373 0.94902 0.282353 0.231373 
0.94902 0.282353 0.231373 0.94902 0.282353 0.231373 
0.94902 0.282353 0.231373 0.94902 0.282353 0.231373 
0.94902 0.282353 0.231373 0.94902 0.282353 0.231373 
0.94902 0.282353 0.231373 0.94902 0.282353 0.231373 
0.94902 0.282353 0.231373 0.94902 0.282353 0.231373 
0.94902 0.282353 0.231373 0.94902 0.282353 0.231373 
0.94902 0.282353 0.231373 0.94902 0.282353 0.231373 
0.94902 0.282353 0.231373 0.94902 0.282353 0.231373 
0.94902 0.282353 0.231373 0.94902 0.282353 0.231373 
0.94902 0.282353 0.231373 0.94902 0.282353 0.231373 
0.94902 0.282353 0.231373 0.94902 0.282353 0.231373 
0.94902 0.282353 0.231373 0.94902 0.282353 0.231373 
0.94902 0.282353 0.231373 0.94902 0.282353 0.231373 
0.94902 0.282353 0.231373 0.94902 0.282353 0.231373 
0.94902 0.282353 0.231373 0.94902 0.282353 0.231373 
0.94902 0.282353 0.231373 0.94902 0.282353 0.231373 
0.94902 0.282353 0.231373 0.94902 0.282353 0.231373 
0.94902 0.282353 0.231373 0.94902 0.282353 0.231373 
0.94902 0.282353 0.231373 0.94902 0.282353 0.231373 
0.94902 0.282353 0.231373 0.94902 0.282353 0.231373 
0.94902 0.282353 0.231373 0.94902 0.282353 0.231373 
0.94902 0.282353 0.231373 0.94902 0.282353 0.231373 
0.94902 0.282353 0.231373 0.94902 0.282353 0.231373 
0.94902 0.282353 0.231373 0.94902 0.282353 0.231373 
0.94902 0.282353 0.231373 0.94902 0.282353 0.231373 
0.94902 0.282353 0.231373 0.94902 0.282353 0.231373 
0.94902 0.282353 0.231373 0.94902 0.282353 0.231373 
0.94902 0.282353 0.231373 0.94902 0.282353 0.231373 
0.94902 0.282353 0.231373 0.94902 0.282353 0.231373 
0.94902 0.282353 0.231373 0.94902 0.282353 0.231373 
0.94902 0.282353 0.231373 0.94902 0.282353 0.231373 
0.94902 0.282353 0.231373 0.94902 0.282353 0.231373 
0.94902 0.282353 0.231373 0.94902 0.282353 0.231373 
0.94902 0.282353 0.231373 0.94902 0.282353 0.231373 
0.94902 0.282353 0.231373 0.94902 0.282353 0.231373 
0.94902 0.282353 0.231373 0.94902 0.282353 0.231373 
0.94902 0.282353 0.231373 0.94902 0.282353 0.231373 
0.94902 0.282353 0.231373 0.94902 0.282353 0.231373 
0.94902 0.282353 0.231373 0.94902 0.282353 0.231373 
0.94902 0.282353 0.231373 0.94902 0.282353 0.231373 
0.94902 0.282353 0.231373 0.94902 0.282353 0.231373 
0.94902 0.282353 0.231373 0.94902 0.282353 0.231373 
0.94902 0.282353 0.231373 0.94902 0.282353 0.231373 
0.94902 0.282353 0.231373 0.94902 0.282353 0.231373 
0.94902 0.282353 0.231373 0.94902 0.282353 0.231373 
0.94902 0.282353 0.231373 0.94902 0.282353 0.231373 
0.94902 0.282353 0.231373 0.94902 0.282353 0.231373 
0.94902 0.282353 0.231373 0.94902 0.282353 0.231373 
0.94902 0.282353 0.231373 0.94902 0.282353 0.231373 
0.94902 0.282353 0.231373 0.94902 0.282353 0.231373 
0.94902 0.282353 0.231373 0.94902 0.282353 0.231373 
0.94902 0.282353 0.231373 0.94902 0.282353 0.231373 
0.94902 0.282353 0.231373 0.94902 0.282353 0.231373 
0.94902 0.282353 0.231373 0.94902 0.282353 0.231373 
0.94902 0.282353 0.231373 0.94902 0.282353 0.231373 
0.94902 0.282353 0.231373 0.94902 0.282353 0.231373 
0.94902 0.282353 0.231373 0.94902 0.282353 0.231373 
0.94902 0.282353 0.231373 0.94902 0.282353 0.231373 
0.94902 0.282353 0.231373 0.94902 0.282353 0.231373 
0.94902 0.282353 0.231373 0.94902 0.282353 0.231373 
0.94902 0.282353 0.231373 0.94902 0.282353 0.231373 
0.94902 0.282353 0.231373 0.94902 0.282353 0.231373 
0.94902 0.282353 0.231373 0.94902 0.282353 0.231373 
0.94902 0.282353 0.231373 0.94902 0.282353 0.231373 
0.94902 0.282353 0.231373 0.94902 0.282353 0.231373 
0.94902 0.282353 0.231373 0.94902 0.282353 0.231373 
0.94902 0.282353 0.231373 0.94902 0.282353 0.231373 
0.94902 0.282353 0.231373 0.94902 0.282353 0.231373 
0.94902 0.282353 0.231373 0.94902 0.282353 0.231373 
0.94902 0.282353 0.231373 0.94902 0.282353 0.231373 
0.94902 0.282353 0.231373 0.94902 0.282353 0.231373 
0.94902 0.282353 0.231373 0.94902 0.282353 0.231373 
0.94902 0.282353 0.231373 0.94902 0.282353 0.231373 
0.94902 0.282353 0.231373 0.94902 0.282353 0.231373 
0.94902 0.282353 0.231373 0.94902 0.282353 0.231373 
0.94902 0.282353 0.231373 0.94902 0.282353 0.231373 
0.94902 0.282353 0.231373 0.94902 0.282353 0.231373 
0.94902 0.282353 0.231373 0.94902 0.282353 0.231373 
0.94902 0.282353 0.231373 0.94902 0.282353 0.231373 
0.94902 0.282353 0.231373 0.94902 0.282353 0.231373 
0.94902 0.282353 0.231373 0.94902 0.282353 0.231373 
0.94902 0.282353 0.231373 0.94902 0.282353 0.231373 
0.94902 0.282353 0.231373 0.94902 0.282353 0.231373 
0.94902 0.282353 0.231373 0.94902 0.282353 0.231373 
0.94902 0.282353 0.231373 0.94902 0.282353 0.231373 
0.94902 0.282353 0.231373 0.94902 0.282353 0.231373 
0.94902 0.282353 0.231373 0.94902 0.282353 0.231373 
0.94902 0.282353 0.231373 0.94902 0.282353 0.231373 
0.94902 0.282353 0.231373 0.94902 0.282353 0.231373 
0.94902 0.282353 0.231373 0.94902 0.282353 0.231373 
0.94902 0.282353 0.231373 0.94902 0.282353 0.231373 
0.94902 0.282353 0.231373 0.94902 0.282353 0.231373 
0.94902 0.282353 0.231373 0.94902 0.282353 0.231373 
0.94902 0.282353 0.231373 0.94902 0.282353 0.231373 
0.94902 0.282353 0.231373 0.94902 0.282353 0.231373 
0.94902 0.282353 0.231373 0.94902 0.282353 0.231373 
0.94902 0.282353 0.231373 0.94902 0.282353 0.231373 
0.94902 0.282353 0.231373 0.94902 0.282353 0.231373 
0.94902 0.282353 0.231373 0.94902 0.282353 0.231373 
0.94902 0.282353 0.231373 0.94902 0.282353 0.231373 
0.94902 0.282353 0.231373 0.94902 0.282353 0.231373 
0.94902 0.282353 0.231373 0.94902 0.282353 0.231373 
0.94902 0.282353 0.231373 0.94902 0.282353 0.231373 
0.94902 0.282353 0.231373 0.94902 0.282353 0.231373 
0.94902 0.282353 0.231373 0.94902 0.282353 0.231373 
0.94902 0.282353 0.231373 0.94902 0.282353 0.231373 
0.94902 0.282353 0.231373 0.94902 0.282353 0.231373 
0.94902 0.282353 0.231373 0.94902 0.282353 0.231373 
0.94902 0.282353 0.231373 0.94902 0.282353 0.231373 
0.94902 0.282353 0.231373 0.94902 0.282353 0.231373 
0.94902 0.282353 0.231373 0.94902 0.282353 0.231373 
0.94902 0.282353 0.231373 0.94902 0.282353 0.231373 
0.94902 0.282353 0.231373 0.94902 0.282353 0.231373 
0.94902 0.282353 0.231373 0.94902 0.282353 0.231373 
0.94902 0.282353 0.231373 0.94902 0.282353 0.231373 
0.94902 0.282353 0.231373 0.94902 0.282353 0.231373 
0.94902 0.282353 0.231373 0.94902 0.282353 0.231373 
0.94902 0.282353 0.231373 0.94902 0.282353 0.231373 
0.94902 0.282353 0.231373 0.94902 0.282353 0.231373 
0.94902 0.282353 0.231373 0.94902 0.282353 0.231373 
0.94902 0.282353 0.231373 0.94902 0.282353 0.231373 
0.94902 0.282353 0.231373 0.94902 0.282353 0.231373 
0.94902 0.282353 0.231373 0.94902 0.282353 0.231373 
0.94902 0.282353 0.231373 0.94902 0.282353 0.231373 
0.94902 0.282353 0.231373 0.94902 0.282353 0.231373 
0.94902 0.282353 0.231373 0.94902 0.282353 0.231373 
0.94902 0.282353 0.231373 0.94902 0.282353 0.231373 
0.94902 0.282353 0.231373 0.94902 0.282353 0.231373 
0.94902 0.282353 0.231373 0.94902 0.282353 0.231373 
0.94902 0.282353 0.231373 0.94902 0.282353 0.231373 
0.94902 0.282353 0.231373 0.94902 0.282353 0.231373 
0.94902 0.282353 0.231373 0.94902 0.282353 0.231373 
0.94902 0.282353 0.231373 0.94902 0.282353 0.231373 
0.94902 0.282353 0.231373 0.94902 0.282353 0.231373 
0.94902 0.282353 0.231373 0.94902 0.282353 0.231373 
0.94902 0.282353 0.231373 0.94902 0.282353 0.231373 
0.94902 0.282353 0.231373 0.94902 0.282353 0.231373 
0.94902 0.282353 0.231373 0.94902 0.282353 0.231373 
0.94902 0.282353 0.231373 0.94902 0.282353 0.231373 
0.94902 0.282353 0.231373 0.94902 0.282353 0.231373 
0.94902 0.282353 0.231373 0.94902 0.282353 0.231373 
0.94902 0.282353 0.231373 0.94902 0.282353 0.231373 
0.94902 0.282353 0.231373 0.94902 0.282353 0.231373 
0.94902 0.282353 0.231373 0.94902 0.282353 0.231373 
0.94902 0.282353 0.231373 0.94902 0.282353 0.231373 
0.94902 0.282353 0.231373 0.94902 0.282353 0.231373 
0.94902 0.282353 0.231373 0.94902 0.282353 0.231373 
0.94902 0.282353 0.231373 0.94902 0.282353 0.231373 
0.94902 0.282353 0.231373 0.94902 0.282353 0.231373 
0.94902 0.282353 0.231373 0.94902 0.282353 0.231373 
0.94902 0.282353 0.231373 0.94902 0.282353 0.231373 
0.94902 0.282353 0.231373 0.94902 0.282353 0.231373 
0.94902 0.282353 0.231373 0.94902 0.282353 0.231373 
0.94902 0.282353 0.231373 0.94902 0.282353 0.231373 
0.94902 0.282353 0.231373 0.94902 0.282353 0.231373 
0.94902 0.282353 0.231373 0.94902 0.282353 0.231373 
0.94902 0.282353 0.231373 0.94902 0.282353 0.231373 
0.94902 0.282353 0.231373 0.94902 0.282353 0.231373 
0.94902 0.282353 0.231373 0.94902 0.282353 0.231373 
0.94902 0.282353 0.231373 0.94902 0.282353 0.231373 
0.94902 0.282353 0.231373 0.94902 0.282353 0.231373 
0.94902 0.282353 0.231373 0.94902 0.282353 0.231373 
0.94902 0.282353 0.231373 0.94902 0.282353 0.231373 
0.94902 0.282353 0.231373 0.94902 0.282353 0.231373 
0.94902 0.282353 0.231373 0.94902 0.282353 0.231373 
0.94902 0.282353 0.231373 0.94902 0.282353 0.231373 
0.94902 0.282353 0.231373 0.94902 0.282353 0.231373 
0.94902 0.282353 0.231373 0.94902 0.282353 0.231373 
0.94902 0.282353 0.231373 0.94902 0.282353 0.231373 
0.94902 0.282353 0.231373 0.94902 0.282353 0.231373 
0.94902 0.282353 0.231373 0.94902 0.282353 0.231373 
0.94902 0.282353 0.231373 0.94902 0.282353 0.231373 
0.94902 0.282353 0.231373 0.94902 0.282353 0.231373 
0.94902 0.282353 0.231373 0.94902 0.282353 0.231373 
0.94902 0.282353 0.231373 0.94902 0.282353 0.231373 
0.94902 0.282353 0.231373 0.94902 0.282353 0.231373 
0.94902 0.282353 0.231373 0.94902 0.282353 0.231373 
0.94902 0.282353 0.231373 0.94902 0.282353 0.231373 
0.94902 0.282353 0.231373 0.94902 0.282353 0.231373 
0.94902 0.282353 0.231373 0.94902 0.282353 0.231373 
0.94902 0.282353 0.231373 0.94902 0.282353 0.231373 
0.94902 0.282353 0.231373 0.94902 0.282353 0.231373 
0.94902 0.282353 0.231373 0.94902 0.282353 0.231373 
0.94902 0.282353 0.231373 0.94902 0.282353 0.231373 
0.94902 0.282353 0.231373 0.94902 0.282353 0.231373 
0.94902 0.282353 0.231373 0.94902 0.282353 0.231373 
0.94902 0.282353 0.231373 0.94902 0.282353 0.231373 
0.94902 0.282353 0.231373 0.94902 0.282353 0.231373 
0.94902 0.282353 0.231373 0.94902 0.282353 0.231373 
0.94902 0.282353 0.231373 0.94902 0.282353 0.231373 
0.94902 0.282353 0.231373 0.94902 0.282353 0.231373 
0.94902 0.282353 0.231373 0.94902 0.282353 0.231373 
0.94902 0.282353 0.231373 0.94902 0.282353 0.231373 
0.94902 0.282353 0.231373 0.94902 0.282353 0.231373 
0.94902 0.282353 0.231373 0.94902 0.282353 0.231373 
0.94902 0.282353 0.231373 0.94902 0.282353 0.231373 
0.94902 0.282353 0.231373 0.94902 0.282353 0.231373 
0.94902 0.282353 0.231373 0.94902 0.282353 0.231373 
0.94902 0.282353 0.231373 0.94902 0.282353 0.231373 
0.94902 0.282353 0.231373 0.94902 0.282353 0.231373 
0.94902 0.282353 0.231373 0.94902 0.282353 0.231373 
0.94902 0.282353 0.231373 0.94902 0.282353 0.231373 
0.94902 0.282353 0.231373 0.94902 0.282353 0.231373 
0.94902 0.282353 0.231373 0.94902 0.282353 0.231373 
0.94902 0.282353 0.231373 0.94902 0.282353 0.231373 
0.94902 0.282353 0.231373 0.94902 0.282353 0.231373 
0.94902 0.282353 0.231373 0.94902 0.282353 0.231373 
0.94902 0.282353 0.231373 0.94902 0.282353 0.231373 
0.94902 0.282353 0.231373 0.94902 0.282353 0.231373 
0.94902 0.282353 0.231373 0.94902 0.282353 0.231373 
0.94902 0.282353 0.231373 0.94902 0.282353 0.231373 
0.94902 0.282353 0.231373 0.94902 0.282353 0.231373 
0.94902 0.282353 0.231373 0.94902 0.282353 0.231373 
0.94902 0.282353 0.231373 0.94902 0.282353 0.231373 
0.94902 0.282353 0.231373 0.94902 0.282353 0.231373 
0.94902 0.282353 0.231373 0.94902 0.282353 0.231373 
0.94902 0.282353 0.231373 0.94902 0.282353 0.231373 
0.94902 0.282353 0.231373 0.94902 0.282353 0.231373 
0.94902 0.282353 0.231373 0.94902 0.282353 0.231373 
0.94902 0.282353 0.231373 0.94902 0.282353 0.231373 
0.94902 0.282353 0.231373 0.94902 0.282353 0.231373 
0.94902 0.282353 0.231373 0.94902 0.282353 0.231373 
0.94902 0.282353 0.231373 0.94902 0.282353 0.231373 
0.94902 0.282353 0.231373 0.94902 0.282353 0.231373 
0.94902 0.282353 0.231373 0.94902 0.282353 0.231373 
0.94902 0.282353 0.231373 0.94902 0.282353 0.231373 
0.94902 0.282353 0.231373 0.94902 0.282353 0.231373 
0.94902 0.282353 0.231373 0.94902 0.282353 0.231373 
0.94902 0.282353 0.231373 0.94902 0.282353 0.231373 
0.94902 0.282353 0.231373 0.94902 0.282353 0.231373 
0.94902 0.282353 0.231373 0.94902 0.282353 0.231373 
0.94902 0.282353 0.231373 0.94902 0.282353 0.231373 
0.94902 0.282353 0.231373 0.94902 0.282353 0.231373 
0.94902 0.282353 0.231373 0.94902 0.282353 0.231373 
0.94902 0.282353 0.231373 0.94902 0.282353 0.231373 
0.94902 0.282353 0.231373 0.94902 0.282353 0.231373 
0.94902 0.282353 0.231373 0.94902 0.282353 0.231373 
0.94902 0.282353 0.231373 0.94902 0.282353 0.231373 
0.94902 0.282353 0.231373 0.94902 0.282353 0.231373 
0.94902 0.282353 0.231373 0.94902 0.282353 0.231373 
0.94902 0.282353 0.231373 0.94902 0.282353 0.231373 
0.94902 0.282353 0.231373 0.94902 0.282353 0.231373 
0.94902 0.282353 0.231373 0.94902 0.282353 0.231373 
0.94902 0.282353 0.231373 0.94902 0.282353 0.231373 
0.94902 0.282353 0.231373 0.94902 0.282353 0.231373 
0.94902 0.282353 0.231373 0.94902 0.282353 0.231373 
0.94902 0.282353 0.231373 0.94902 0.282353 0.231373 
0.94902 0.282353 0.231373 0.94902 0.282353 0.231373 
0.94902 0.282353 0.231373 0.94902 0.282353 0.231373 
0.94902 0.282353 0.231373 0.94902 0.282353 0.231373 
0.94902 0.282353 0.231373 0.94902 0.282353 0.231373 
0.94902 0.282353 0.231373 0.94902 0.282353 0.231373 
0.94902 0.282353 0.231373 0.94902 0.282353 0.231373 
0.94902 0.282353 0.231373 0.94902 0.282353 0.231373 
0.94902 0.282353 0.231373 0.94902 0.282353 0.231373 
0.94902 0.282353 0.231373 0.94902 0.282353 0.231373 
0.94902 0.282353 0.231373 0.94902 0.282353 0.231373 
0.94902 0.282353 0.231373 0.94902 0.282353 0.231373 
0.94902 0.282353 0.231373 0.94902 0.282353 0.231373 
0.94902 0.282353 0.231373 0.94902 0.282353 0.231373 
0.94902 0.282353 0.231373 0.94902 0.282353 0.231373 
0.94902 0.282353 0.231373 0.94902 0.282353 0.231373 
0.94902 0.282353 0.231373 0.94902 0.282353 0.231373 
0.94902 0.282353 0.231373 0.94902 0.282353 0.231373 
0.94902 0.282353 0.231373 0.94902 0.282353 0.231373 
0.94902 0.282353 0.231373 0.94902 0.282353 0.231373 
0.94902 0.282353 0.231373 0.94902 0.282353 0.231373 
0.94902 0.282353 0.231373 0.94902 0.282353 0.231373 
0.94902 0.282353 0.231373 0.94902 0.282353 0.231373 
0.94902 0.282353 0.231373 0.94902 0.282353 0.231373 
0.94902 0.282353 0.231373 0.94902 0.282353 0.231373 
0.94902 0.282353 0.231373 0.94902 0.282353 0.231373 
0.94902 0.282353 0.231373 0.94902 0.282353 0.231373 
0.94902 0.282353 0.231373 0.94902 0.282353 0.231373 
0.94902 0.282353 0.231373 0.94902 0.282353 0.231373 
0.94902 0.282353 0.231373 0.94902 0.282353 0.231373 
0.94902 0.282353 0.231373 0.94902 0.282353 0.231373 
0.94902 0.282353 0.231373 0.94902 0.282353 0.231373 
0.94902 0.282353 0.231373 0.94902 0.282353 0.231373 
0.94902 0.282353 0.231373 0.94902 0.282353 0.231373 