# vtk DataFile Version 4.2
vtk output
ASCII
DATASET POLYDATA
POINTS 1060 float
455.681 162.429 201.02 455.681 162.422 201.058 455.681 162.425 201.043 
455.681 162.409 201.13 455.681 162.422 201.058 455.682 162.389 201.239 
455.686 162.307 201.709 455.684 162.346 201.485 455.683 162.352 201.449 
455.681 162.409 201.131 455.681 162.402 201.171 455.68 162.417 201.084 
455.682 162.386 201.254 455.681 162.422 201.056 455.681 162.407 201.137 
456.861 161.034 203.659 456.854 161.037 203.72 456.854 161.036 203.722 
456.853 161.037 203.721 455.691 162.261 201.984 455.705 162.197 202.379 
455.705 162.191 202.409 455.694 162.261 201.976 455.687 162.316 201.65 
456.853 161.036 203.724 455.681 162.401 201.173 455.698 162.236 202.129 
455.683 162.363 201.383 455.692 162.281 201.857 456.832 161.044 203.898 
456.834 161.043 203.9 456.832 161.043 203.901 455.748 162.072 203.183 
455.735 162.108 202.967 455.723 162.146 202.669 455.705 162.217 202.233 
456.833 161.042 203.904 455.728 162.136 202.76 455.718 162.174 202.497 
456.79 161.059 204.24 456.795 161.06 204.239 456.793 161.054 204.251 
455.79 162.002 203.748 455.782 162.014 203.479 455.749 162.096 202.959 
456.797 161.054 204.25 455.786 162.029 203.501 455.774 162.055 203.243 
456.729 161.076 204.741 456.736 161.093 204.708 456.749 161.062 204.764 
455.857 161.908 204.608 455.84 161.95 203.807 456.755 161.078 204.732 
455.871 161.932 204.346 455.878 161.926 204.098 457.954 160.006 207.122 
457.944 159.997 207.153 457.927 160.036 207.17 457.969 159.988 207.171 
456.661 161.059 205.568 456.64 161.145 205.166 456.75 161.062 205.294 
455.915 161.735 205.684 456.016 161.635 205.385 456.037 161.744 204.826 
456.694 161.15 205.383 455.962 161.882 205.248 461.351 156.848 208.587 
461.315 156.85 208.626 461.324 156.872 208.642 461.346 156.827 208.636 
458.34 159.429 207.851 457.972 159.953 207.27 457.873 160.036 207.265 
457.998 159.99 207.348 458.388 159.498 207.906 456.391 161.353 205.6 
456.77 160.743 206.694 456.894 160.97 206.2 457.886 160.147 207.345 
445.213 162.769 207.944 445.327 162.808 207.949 445.379 162.695 208.06 
455.953 161.559 206.354 455.906 161.803 206.371 456.704 161.36 206.208 
444.136 163.452 207.706 443.915 163.45 207.753 445.119 162.932 207.901 
445.35 162.939 207.99 456.177 161.842 205.935 443.905 163.613 207.74 
443.669 163.563 207.825 444.15 163.617 207.744 444.398 163.452 207.767 
444.378 163.734 207.904 455.989 166.537 208.712 455.958 166.489 208.752 
455.962 166.614 208.806 456.021 166.594 208.772 461.263 156.892 208.714 
461.193 156.856 208.813 461.139 156.961 208.899 459.509 158.353 208.768 
459.464 158.281 208.835 461.256 156.925 208.88 461.336 156.826 208.959 
458.048 159.785 207.631 458.442 159.072 208.27 458.678 159.258 208.253 
457.439 160.333 207.267 456.92 160.334 207.445 458.132 160.08 207.732 
446.534 162.101 209.054 446.507 162.062 209.13 446.425 162.149 209.003 
457.847 160.56 207.709 457.258 161.098 207.191 444.778 162.751 208.205 
445.586 162.545 208.407 445.805 162.732 208.436 446.501 162.199 209.047 
455.816 161.697 207.27 444.636 163.126 207.905 445.143 163.189 207.982 
455.938 162.059 207.305 456.308 162.038 207.055 443.501 163.502 207.961 
443.328 163.707 208.024 444.757 163.472 207.921 445.099 163.497 208.073 
439.888 164.766 208.971 439.543 164.637 209.121 439.542 164.879 209.139 
441.696 164.713 208.539 441.609 164.386 208.534 440.75 165.093 208.895 
455.94 166.354 208.851 456.031 166.299 208.919 456.032 166.781 208.93 
455.888 166.812 209.099 456.92 170.89 209.467 456.911 170.894 209.518 
456.907 170.812 209.548 456.926 170.893 209.517 456.911 170.859 209.69 
460.935 156.96 209.069 461.21 156.732 209.027 461.353 156.677 209.306 
459.107 158.693 208.652 458.644 158.598 208.684 459.577 157.87 209.085 
459.878 158.157 209.125 460.962 157.182 209.283 457.971 158.889 208.649 
459.52 158.712 208.942 459.127 159.292 208.755 446.567 161.993 209.471 
446.288 162.101 209.127 455.639 161.298 208.463 445.75 162.205 209 
446.195 162.421 208.884 446.635 162.341 209.294 443.281 163.394 208.269 
456.14 162.505 208.112 456.696 162.312 208.045 439.998 164.152 209.155 
442.501 163.945 208.406 439.235 164.802 209.297 438.904 164.822 209.58 
442.781 164.514 208.42 455.93 166.169 208.992 455.845 165.986 209.204 
456.009 165.996 209.151 439.222 165.083 209.475 442.037 165.314 208.947 
456.32 167.616 209.563 456.861 170.701 209.728 456.897 170.628 209.771 
456.86 170.766 210.092 456.929 170.758 210.004 461.898 155.299 210.967 
460.879 156.694 209.372 460.699 156.384 209.824 461.446 156.328 209.932 
460.274 157.289 209.317 461.492 156.667 209.923 459.16 157.839 209.181 
460.503 157.677 209.411 457.966 158.303 209.366 459.879 158.721 209.4 
447.031 162.158 210.008 446.862 161.966 209.957 445.64 161.933 209.651 
447.203 162.243 210.309 455.283 162.076 209.305 441.152 163.252 209.709 
455.456 162.303 208.859 455.698 162.686 208.743 456.048 163.111 208.879 
456.544 162.971 208.78 438.429 164.234 210.277 437.858 164.489 210.638 
438.815 163.887 210.372 455.87 163.69 209.371 456.342 163.62 209.257 
456.933 163.587 209.521 445.529 164.458 209.19 455.839 165.581 209.477 
456.229 165.712 209.442 456.516 164.277 209.617 439.069 165.844 210.309 
443.707 165.455 209.307 445.038 165.245 209.565 439.66 166.081 210.306 
442.358 166.116 209.901 455.521 167.68 210.327 456.135 168.505 210.063 
456.459 168.505 210.02 456.259 169.041 210.285 456.812 170.378 209.998 
456.907 170.197 210.246 456.752 170.715 210.723 456.916 170.713 210.586 
461.613 155.722 210.633 461.1 155.802 210.455 461.811 154.932 211.446 
462.171 155.053 211.567 462.077 155.636 211.243 458.532 157.46 209.944 
458.37 157.817 209.626 461.504 157.311 210.871 460.19 158.954 210.146 
447.219 161.893 210.856 455.522 163.238 209.4 457.555 163.166 209.907 
436.997 164.168 211.636 436.698 164.291 211.896 438.059 163.688 211.424 
455.333 163.919 209.995 455.981 164.69 209.633 455.359 165.149 210.102 
436.928 164.388 211.546 437.621 164.864 210.833 456.571 165.132 209.775 
457.104 164.554 210.158 438.587 165.733 210.563 456.777 166.82 209.978 
456.767 168.882 210.336 456.618 169.674 210.343 456.982 169.314 210.697 
456.431 170.371 211.006 456.651 170.86 211.489 457.056 170.495 211.262 
462.204 154.51 212.032 461.981 154.203 212.267 462.487 154.303 212.382 
460.236 155.618 211.01 462.595 154.617 212.401 457.441 157.955 210.55 
456.485 158.436 211.593 443.747 162.009 210.86 454.745 161.511 211.579 
447.544 162.985 211.033 458.416 162.738 211.115 436.65 165.145 212.092 
446.719 164.999 210.798 437.243 165.452 211.651 437.771 165.732 211.373 
442.664 166.865 211.129 457.058 167.064 210.528 457.252 169.29 211.48 
456.343 170.865 212.013 456.824 170.993 211.874 456.652 171.129 212.281 
457.03 170.815 212.07 456.876 171.109 212.426 462.583 153.838 212.859 
461.328 154.361 212.199 462.138 156.891 212.361 447.839 161.803 212.545 
436.482 163.688 213.558 448.04 163.731 212.29 436.163 164.93 212.628 
458.21 164.329 212.212 447.27 165.652 211.892 455.784 170.625 212.806 
456.113 170.97 212.658 456.412 171.33 213.079 456.777 171.316 213.013 
448.218 161.238 213.944 448.442 161.356 214.104 447.575 161.31 213.169 
448.593 161.666 214.024 448.547 162.434 213.434 448.766 162.145 214.044 
435.579 164.223 213.94 435.367 164.344 214.34 437.506 163.288 213.643 
453.833 163.706 213.47 435.983 165.147 213.042 436.489 165.81 213.247 
450 166.009 213.517 450 166.009 213.517 450 166.009 213.517 
450 166.009 213.517 446.307 166.654 212.439 450 166.009 213.517 
443.711 167.716 213.178 445.069 167.731 213.814 455.004 169.15 212.923 
456.21 171.512 213.841 456.68 171.549 213.601 456.752 171.688 214.139 
464.336 152.118 215.843 464.332 152.054 215.89 464.216 152.158 215.795 
464.392 152.071 216.004 463.423 153.388 214.552 464.262 152.268 215.848 
458.397 155.332 213.787 447.961 161.126 213.996 435.329 164.035 215.506 
435.265 164.621 214.555 435.558 165.309 214.442 436.445 166.004 213.83 
450 166.009 213.518 450 166.009 213.518 450 166.009 213.518 
438.169 166.989 213.824 447 166.464 213.056 450 166.009 213.518 
457.506 170.196 214.273 457.139 171.26 214.531 456.46 171.917 214.919 
464.246 151.949 216.077 464.448 151.796 216.341 464.37 151.698 216.428 
464.507 151.697 216.564 463.739 152.495 215.505 464.528 151.927 216.448 
464.436 152.224 216.147 464.259 152.65 216.008 449.023 161.282 215.566 
448.127 165.423 213.584 450 166.009 213.518 456.48 172.014 215.504 
456.848 171.8 215.26 461.982 152.322 215.661 464.736 151.907 217.149 
454.943 159.421 216.232 449.426 161.622 216.384 435.084 165.022 215.813 
453.164 164.773 215.425 435.923 166.154 216.27 455.748 171.672 216.747 
456.441 171.975 216.197 456.611 172.021 215.74 448.577 160.826 216.884 
448.063 160.762 216.385 448.917 161.022 216.499 434.828 164.685 217.244 
451.547 164.405 217.958 451.365 164.677 217.844 451.807 164.551 217.7 
452.263 164.531 217.254 452.103 164.195 217.739 451.778 164.903 217.739 
452.449 165.126 216.974 448.389 166.95 216.797 453.813 168.552 217.012 
456.605 171.876 217.864 456.228 171.927 217.378 456.699 171.924 216.122 
463.498 150.849 218.369 465.062 151.346 218.751 453.169 162.544 218.132 
450.848 163.904 218.586 450.687 164.499 217.699 451.397 164.367 218.437 
451.94 164.087 218.371 435.324 165.858 218.413 449.925 165.642 217.513 
451.011 164.98 218.156 451.49 164.895 218.42 445.929 168.671 218.157 
454.541 170.564 218.718 455.233 171.488 218.494 456.73 171.819 218.499 
455.824 172.06 219.173 456.173 172.116 219.118 464.468 150.333 219.96 
465.034 150.815 219.323 465.262 150.74 219.705 465.19 150.611 219.788 
465.338 150.974 219.809 449.149 160.986 218.222 447.079 160.727 219.157 
452.325 163.612 219.057 434.949 165.485 219.198 451.301 164.522 218.701 
451.16 164.517 219.31 451.612 164.883 218.78 451.851 164.201 219.005 
450.666 165.661 218.593 451.301 165.511 218.982 451.516 164.614 219.581 
451.822 165.891 218.56 450.797 166.497 219.046 451.527 166.456 219.002 
452.146 166.725 218.632 464.01 150.134 220.575 457.689 154.204 219.578 
[...]
POINT_DATA 1060
COLOR_SCALARS scalars 3
1 0.988235 0.568627 1 0.988235 0.568627 1 0.988235 0.568627 
1 0.988235 0.568627 1 0.988235 0.568627 
1 0.988235 0.568627 1 0.988235 0.568627 
1 0.988235 0.568627 1 0.988235 0.568627 
1 0.988235 0.568627 1 0.988235 0.568627 
1 0.988235 0.568627 1 0.988235 0.568627 
1 0.988235 0.568627 1 0.988235 0.568627 
1 0.988235 0.568627 1 0.988235 0.568627 
1 0.988235 0.568627 1 0.988235 0.568627 
1 0.988235 0.568627 1 0.988235 0.568627 
1 0.988235 0.568627 1 0.988235 0.568627 
1 0.988235 0.568627 1 0.988235 0.568627 
1 0.988235 0.568627 1 0.988235 0.568627 
1 0.988235 0.568627 1 0.988235 0.568627 
1 0.988235 0.568627 1 0.988235 0.568627 
1 0.988235 0.568627 1 0.988235 0.568627 
1 0.988235 0.568627 1 0.988235 0.568627 
1 0.988235 0.568627 1 0.988235 0.568627 
1 0.988235 0.568627 1 0.988235 0.568627 
1 0.988235 0.568627 1 0.988235 0.568627 
1 0.988235 0.568627 1 0.988235 0.568627 
1 0.988235 0.568627 1 0.988235 0.568627 
1 0.988235 0.568627 1 0.988235 0.568627 
1 0.988235 0.568627 1 0.988235 0.568627 
1 0.988235 0.568627 1 0.988235 0.568627 
1 0.988235 0.568627 1 0.988235 0.568627 
1 0.988235 0.568627 1 0.988235 0.568627 
1 0.988235 0.568627 1 0.988235 0.568627 
1 0.988235 0.568627 1 0.988235 0.568627 
1 0.988235 0.568627 1 0.988235 0.568627 
1 0.988235 0.568627 1 0.988235 0.568627 
1 0.988235 0.568627 1 0.988235 0.568627 
1 0.988235 0.568627 1 0.988235 0.568627 
1 0.988235 0.568627 1 0.988235 0.568627 
1 0.988235 0.568627 1 0.988235 0.568627 
1 0.988235 0.568627 1 0.988235 0.568627 
1 0.988235 0.568627 1 0.988235 0.568627 
1 0.988235 0.568627 1 0.988235 0.568627 
1 0.988235 0.568627 1 0.988235 0.568627 
1 0.988235 0.568627 1 0.988235 0.568627 
1 0.988235 0.568627 1 0.988235 0.568627 
1 0.988235 0.568627 1 0.988235 0.568627 
1 0.988235 0.568627 1 0.988235 0.568627 
1 0.988235 0.568627 1 0.988235 0.568627 
1 0.988235 0.568627 1 0.988235 0.568627 
1 0.988235 0.568627 1 0.988235 0.568627 
1 0.988235 0.568627 1 0.988235 0.568627 
1 0.988235 0.568627 1 0.988235 0.568627 
1 0.988235 0.568627 1 0.988235 0.568627 
1 0.988235 0.568627 1 0.988235 0.568627 
1 0.988235 0.568627 1 0.988235 0.568627 
1 0.988235 0.568627 1 0.988235 0.568627 
1 0.988235 0.568627 1 0.988235 0.568627 
1 0.988235 0.568627 1 0.988235 0.568627 
1 0.988235 0.568627 1 0.988235 0.568627 
1 0.988235 0.568627 1 0.988235 0.568627 
1 0.988235 0.568627 1 0.988235 0.568627 
1 0.988235 0.568627 1 0.988235 0.568627 
1 0.988235 0.568627 1 0.988235 0.568627 
1 0.988235 0.568627 1 0.988235 0.568627 
1 0.988235 0.568627 1 0.988235 0.568627 
1 0.988235 0.568627 1 0.988235 0.568627 
1 0.988235 0.568627 1 0.988235 0.568627 
1 0.988235 0.568627 1 0.988235 0.568627 
1 0.988235 0.568627 1 0.988235 0.568627 
1 0.988235 0.568627 1 0.988235 0.568627 
1 0.988235 0.568627 1 0.988235 0.568627 
1 0.988235 0.568627 1 0.988235 0.568627 
1 0.988235 0.568627 1 0.988235 0.568627 
1 0.988235 0.568627 1 0.988235 0.568627 
1 0.988235 0.568627 1 0.988235 0.568627 
1 0.988235 0.568627 1 0.988235 0.568627 
1 0.988235 0.568627 1 0.988235 0.568627 
1 0.988235 0.568627 1 0.988235 0.568627 
1 0.988235 0.568627 1 0.988235 0.568627 
1 0.988235 0.568627 1 0.988235 0.568627 
1 0.988235 0.568627 1 0.988235 0.568627 
1 0.988235 0.568627 1 0.988235 0.568627 
1 0.988235 0.568627 1 0.988235 0.568627 
1 0.988235 0.568627 1 0.988235 0.568627 
1 0.988235 0.568627 1 0.988235 0.568627 
1 0.988235 0.568627 1 0.988235 0.568627 
1 0.988235 0.568627 1 0.988235 0.568627 
1 0.988235 0.568627 1 0.988235 0.568627 
1 0.988235 0.568627 1 0.988235 0.568627 
1 0.988235 0.568627 1 0.988235 0.568627 
1 0.988235 0.568627 1 0.988235 0.568627 
1 0.988235 0.568627 1 0.988235 0.568627 
1 0.988235 0.568627 1 0.988235 0.568627 
1 0.988235 0.568627 1 0.988235 0.568627 
1 0.988235 0.568627 1 0.988235 0.568627 
1 0.988235 0.568627 1 0.988235 0.568627 
1 0.988235 0.568627 1 0.988235 0.568627 
1 0.988235 0.568627 1 0.988235 0.568627 
1 0.988235 0.568627 1 0.988235 0.568627 
1 0.988235 0.568627 1 0.988235 0.568627 
1 0.988235 0.568627 1 0.988235 0.568627 
1 0.988235 0.568627 1 0.988235 0.568627 
1 0.988235 0.568627 1 0.988235 0.568627 
1 0.988235 0.568627 1 0.988235 0.568627 
1 0.988235 0.568627 1 0.988235 0.568627 
1 0.988235 0.568627 1 0.988235 0.568627 
1 0.988235 0.568627 1 0.988235 0.568627 
1 0.988235 0.568627 1 0.988235 0.568627 
1 0.988235 0.568627 1 0.988235 0.568627 
1 0.988235 0.568627 1 0.988235 0.568627 
1 0.988235 0.568627 1 0.988235 0.568627 
1 0.988235 0.568627 1 0.988235 0.568627 
1 0.988235 0.568627 1 0.988235 0.568627 
1 0.988235 0.568627 1 0.988235 0.568627 
1 0.988235 0.568627 1 0.988235 0.568627 
1 0.988235 0.568627 1 0.988235 0.568627 
1 0.988235 0.568627 1 0.988235 0.568627 
1 0.988235 0.568627 1 0.988235 0.568627 
1 0.988235 0.568627 1 0.988235 0.568627 
1 0.988235 0.568627 1 0.988235 0.568627 
1 0.988235 0.568627 1 0.988235 0.568627 
1 0.988235 0.568627 1 0.988235 0.568627 
1 0.988235 0.568627 1 0.988235 0.568627 
1 0.988235 0.568627 1 0.988235 0.568627 
1 0.988235 0.568627 1 0.988235 0.568627 
1 0.988235 0.568627 1 0.988235 0.568627 
1 0.988235 0.568627 1 0.988235 0.568627 
1 0.988235 0.568627 1 0.988235 0.568627 
1 0.988235 0.568627 1 0.988235 0.568627 
1 0.988235 0.568627 1 0.988235 0.568627 
1 0.988235 0.568627 1 0.988235 0.568627 
1 0.988235 0.568627 1 0.988235 0.568627 
1 0.988235 0.568627 1 0.988235 0.568627 
1 0.988235 0.568627 1 0.988235 0.568627 
1 0.988235 0.568627 1 0.988235 0.568627 
1 0.988235 0.568627 1 0.988235 0.568627 
1 0.988235 0.568627 1 0.988235 0.568627 
1 0.988235 0.568627 1 0.988235 0.568627 
1 0.988235 0.568627 1 0.988235 0.568627 
1 0.988235 0.568627 1 0.988235 0.568627 
1 0.988235 0.568627 1 0.988235 0.568627 
1 0.988235 0.568627 1 0.988235 0.568627 
1 0.988235 0.568627 1 0.988235 0.568627 
1 0.988235 0.568627 1 0.988235 0.568627 
1 0.988235 0.568627 1 0.988235 0.568627 
1 0.988235 0.568627 1 0.988235 0.568627 
1 0.988235 0.568627 1 0.988235 0.568627 
1 0.988235 0.568627 1 0.988235 0.568627 
1 0.988235 0.568627 1 0.988235 0.568627 
1 0.988235 0.568627 1 0.988235 0.568627 
1 0.988235 0.568627 1 0.988235 0.568627 
1 0.988235 0.568627 1 0.988235 0.568627 
1 0.988235 0.568627 1 0.988235 0.568627 
1 0.988235 0.568627 1 0.988235 0.568627 
1 0.988235 0.568627 1 0.988235 0.568627 
1 0.988235 0.568627 1 0.988235 0.568627 
1 0.988235 0.568627 1 0.988235 0.568627 
1 0.988235 0.568627 1 0.988235 0.568627 
1 0.988235 0.568627 1 0.988235 0.568627 
1 0.988235 0.568627 1 0.988235 0.568627 
1 0.988235 0.568627 1 0.988235 0.568627 
1 0.988235 0.568627 1 0.988235 0.568627 
1 0.988235 0.568627 1 0.988235 0.568627 
1 0.988235 0.568627 1 0.988235 0.568627 
1 0.988235 0.568627 1 0.988235 0.568627 
1 0.988235 0.568627 1 0.988235 0.568627 
1 0.988235 0.568627 1 0.988235 0.568627 
1 0.988235 0.568627 1 0.988235 0.568627 
1 0.988235 0.568627 1 0.988235 0.568627 
1 0.988235 0.568627 1 0.988235 0.568627 
1 0.988235 0.568627 1 0.988235 0.568627 
1 0.988235 0.568627 1 0.988235 0.568627 
1 0.988235 0.568627 1 0.988235 0.568627 
1 0.988235 0.568627 1 0.988235 0.568627 
1 0.988235 0.568627 1 0.988235 0.568627 
1 0.988235 0.568627 1 0.988235 0.568627 
1 0.988235 0.568627 1 0.988235 0.568627 
1 0.988235 0.568627 1 0.988235 0.568627 
1 0.988235 0.568627 1 0.988235 0.568627 
1 0.988235 0.568627 1 0.988235 0.568627 
1 0.988235 0.568627 1 0.988235 0.568627 
1 0.988235 0.568627 1 0.988235 0.568627 
1 0.988235 0.568627 1 0.988235 0.568627 
1 0.988235 0.568627 1 0.988235 0.568627 
1 0.988235 0.568627 1 0.988235 0.568627 
1 0.988235 0.568627 1 0.988235 0.568627 
1 0.988235 0.568627 1 0.988235 0.568627 
1 0.988235 0.568627 1 0.988235 0.568627 
1 0.988235 0.568627 1 0.988235 0.568627 
1 0.988235 0.568627 1 0.988235 0.568627 
1 0.988235 0.568627 1 0.988235 0.568627 
1 0.988235 0.568627 1 0.988235 0.568627 
1 0.988235 0.568627 1 0.988235 0.568627 
1 0.988235 0.568627 1 0.988235 0.568627 
1 0.988235 0.568627 1 0.988235 0.568627 
1 0.988235 0.568627 1 0.988235 0.568627 
1 0.988235 0.568627 1 0.988235 0.568627 
1 0.988235 0.568627 1 0.988235 0.568627 
1 0.988235 0.568627 1 0.988235 0.568627 
1 0.988235 0.568627 1 0.988235 0.568627 
1 0.988235 0.568627 1 0.988235 0.568627 
1 0.988235 0.568627 1 0.988235 0.568627 
1 0.988235 0.568627 1 0.988235 0.568627 
1 0.988235 0.568627 1 0.988235 0.568627 
1 0.988235 0.568627 1 0.988235 0.568627 
1 0.988235 0.568627 1 0.988235 0.568627 
1 0.988235 0.568627 1 0.988235 0.568627 
1 0.988235 0.568627 1 0.988235 0.568627 
1 0.988235 0.568627 1 0.988235 0.568627 
1 0.988235 0.568627 1 0.988235 0.568627 
1 0.988235 0.568627 1 0.988235 0.568627 
1 0.988235 0.568627 1 0.988235 0.568627 
1 0.988235 0.568627 1 0.988235 0.568627 
1 0.988235 0.568627 1 0.988235 0.568627 
1 0.988235 0.568627 1 0.988235 0.568627 
1 0.988235 0.568627 1 0.988235 0.568627 
1 0.988235 0.568627 1 0.988235 0.568627 
1 0.988235 0.568627 1 0.988235 0.568627 
1 0.988235 0.568627 1 0.988235 0.568627 
1 0.988235 0.568627 1 0.988235 0.568627 
1 0.988235 0.568627 1 0.988235 0.568627 
1 0.988235 0.568627 1 0.988235 0.568627 
1 0.988235 0.568627 1 0.988235 0.568627 
1 0.988235 0.568627 1 0.988235 0.568627 
1 0.988235 0.568627 1 0.988235 0.568627 
1 0.988235 0.568627 1 0.988235 0.568627 
1 0.988235 0.568627 1 0.988235 0.568627 
1 0.988235 0.568627 1 0.988235 0.568627 
1 0.988235 0.568627 1 0.988235 0.568627 
1 0.988235 0.568627 1 0.988235 0.568627 
1 0.988235 0.568627 1 0.988235 0.568627 
1 0.988235 0.568627 1 0.988235 0.568627 
1 0.988235 0.568627 1 0.988235 0.568627 
1 0.988235 0.568627 1 0.988235 0.568627 
1 0.988235 0.568627 1 0.988235 0.568627 
1 0.988235 0.568627 1 0.988235 0.568627 
1 0.988235 0.568627 1 0.988235 0.568627 
1 0.988235 0.568627 1 0.988235 0.568627 
1 0.988235 0.568627 1 0.988235 0.568627 
1 0.988235 0.568627 1 0.988235 0.568627 
1 0.988235 0.568627 1 0.988235 0.568627 
1 0.988235 0.568627 1 0.988235 0.568627 
1 0.988235 0.568627 1 0.988235 0.568627 
1 0.988235 0.568627 1 0.988235 0.568627 
1 0.988235 0.568627 1 0.988235 0.568627 
1 0.988235 0.568627 1 0.988235 0.568627 
1 0.988235 0.568627 1 0.988235 0.568627 
1 0.988235 0.568627 1 0.988235 0.568627 
1 0.988235 0.568627 1 0.988235 0.568627 
1 0.988235 0.568627 1 0.988235 0.568627 
1 0.988235 0.568627 1 0.988235 0.568627 
1 0.988235 0.568627 1 0.988235 0.568627 
1 0.988235 0.568627 1 0.988235 0.568627 
1 0.988235 0.568627 1 0.988235 0.568627 
1 0.988235 0.568627 1 0.988235 0.568627 
1 0.988235 0.568627 1 0.988235 0.568627 
1 0.988235 0.568627 1 0.988235 0.568627 
1 0.988235 0.568627 1 0.988235 0.568627 
1 0.988235 0.568627 1 0.988235 0.568627 
1 0.988235 0.568627 1 0.988235 0.568627 
1 0.988235 0.568627 1 0.988235 0.568627 
1 0.988235 0.568627 1 0.988235 0.568627 
1 0.988235 0.568627 1 0.988235 0.568627 
1 0.988235 0.568627 1 0.988235 0.568627 
1 0.988235 0.568627 1 0.988235 0.568627 
1 0.988235 0.568627 1 0.988235 0.568627 
1 0.988235 0.568627 1 0.988235 0.568627 
1 0.988235 0.568627 1 0.988235 0.568627 
1 0.988235 0.568627 1 0.988235 0.568627 
1 0.988235 0.568627 1 0.988235 0.568627 
1 0.988235 0.568627 1 0.988235 0.568627 
1 0.988235 0.568627 1 0.988235 0.568627 
1 0.988235 0.568627 1 0.988235 0.568627 
1 0.988235 0.568627 1 0.988235 0.568627 
1 0.988235 0.568627 1 0.988235 0.568627 
1 0.988235 0.568627 1 0.988235 0.568627 
1 0.988235 0.568627 1 0.988235 0.568627 
1 0.988235 0.568627 1 0.988235 0.568627 
1 0.988235 0.568627 1 0.988235 0.568627 
1 0.988235 0.568627 1 0.988235 0.568627 
1 0.988235 0.568627 1 0.988235 0.568627 
1 0.988235 0.568627 1 0.988235 0.568627 
1 0.988235 0.568627 1 0.988235 0.568627 
1 0.988235 0.568627 1 0.988235 0.568627 
1 0.988235 0.568627 1 0.988235 0.568627 
1 0.988235 0.568627 1 0.988235 0.568627 
1 0.988235 0.568627 1 0.988235 0.568627 
1 0.988235 0.568627 1 0.988235 0.568627 
1 0.988235 0.568627 1 0.988235 0.568627 
1 0.988235 0.568627 1 0.988235 0.568627 
1 0.988235 0.568627 1 0.988235 0.568627 
1 0.988235 0.568627 1 0.988235 0.568627 
1 0.988235 0.568627 1 0.988235 0.568627 
1 0.988235 0.568627 1 0.988235 0.568627 
1 0.988235 0.568627 1 0.988235 0.568627 
1 0.988235 0.568627 1 0.988235 0.568627 
1 0.988235 0.568627 1 0.988235 0.568627 
1 0.988235 0.568627 1 0.988235 0.568627 
1 0.988235 0.568627 1 0.988235 0.568627 
1 0.988235 0.568627 1 0.988235 0.568627 
1 0.988235 0.568627 1 0.988235 0.568627 
1 0.988235 0.568627 1 0.988235 0.568627 
1 0.988235 0.568627 1 0.988235 0.568627 
1 0.988235 0.568627 1 0.988235 0.568627 
1 0.988235 0.568627 1 0.988235 0.568627 
1 0.988235 0.568627 1 0.988235 0.568627 
1 0.988235 0.568627 1 0.988235 0.568627 
1 0.988235 0.568627 1 0.988235 0.568627 
1 0.988235 0.568627 1 0.988235 0.568627 
1 0.988235 0.568627 1 0.988235 0.568627 
1 0.988235 0.568627 1 0.988235 0.568627 
1 0.988235 0.568627 1 0.988235 0.568627 
1 0.988235 0.568627 1 0.988235 0.568627 
1 0.988235 0.568627 1 0.988235 0.568627 
1 0.988235 0.568627 1 0.988235 0.568627 
1 0.988235 0.568627 1 0.988235 0.568627 
1 0.988235 0.568627 1 0.988235 0.568627 
1 0.988235 0.568627 1 0.988235 0.568627 
1 0.988235 0.568627 1 0.988235 0.568627 
1 0.988235 0.568627 1 0.988235 0.568627 
1 0.988235 0.568627 1 0.988235 0.568627 
1 0.988235 0.568627 1 0.988235 0.568627 
1 0.988235 0.568627 1 0.988235 0.568627 
1 0.988235 0.568627 1 0.988235 0.568627 
1 0.988235 0.568627 1 0.988235 0.568627 
1 0.988235 0.568627 1 0.988235 0.568627 
1 0.988235 0.568627 1 0.988235 0.568627 
1 0.988235 0.568627 1 0.988235 0.568627 
1 0.988235 0.568627 1 0.988235 0.568627 
1 0.988235 0.568627 1 0.988235 0.568627 
1 0.988235 0.568627 1 0.988235 0.568627 
1 0.988235 0.568627 1 0.988235 0.568627 
1 0.988235 0.568627 1 0.988235 0.568627 
1 0.988235 0.568627 1 0.988235 0.568627 
1 0.988235 0.568627 1 0.988235 0.568627 
1 0.988235 0.568627 1 0.988235 0.568627 
1 0.988235 0.568627 1 0.988235 0.568627 
1 0.988235 0.568627 1 0.988235 0.568627 
1 0.988235 0.568627 1 0.988235 0.568627 
1 0.988235 0.568627 1 0.988235 0.568627 
1 0.988235 0.568627 1 0.988235 0.568627 
1 0.988235 0.568627 1 0.988235 0.568627 
1 0.988235 0.568627 1 0.988235 0.568627 
1 0.988235 0.568627 1 0.988235 0.568627 
1 0.988235 0.568627 1 0.988235 0.568627 
1 0.988235 0.568627 1 0.988235 0.568627 
1 0.988235 0.568627 1 0.988235 0.568627 
1 0.988235 0.568627 1 0.988235 0.568627 
1 0.988235 0.568627 1 0.988235 0.568627 
1 0.988235 0.568627 1 0.988235 0.568627 
1 0.988235 0.568627 1 0.988235 0.568627 
1 0.988235 0.568627 1 0.988235 0.568627 
1 0.988235 0.568627 1 0.988235 0.568627 
1 0.988235 0.568627 1 0.988235 0.568627 
1 0.988235 0.568627 1 0.988235 0.568627 
1 0.988235 0.568627 1 0.988235 0.568627 
1 0.988235 0.568627 1 0.988235 0.568627 
1 0.988235 0.568627 1 0.988235 0.568627 
1 0.988235 0.568627 1 0.988235 0.568627 
1 0.988235 0.568627 1 0.988235 0.568627 
1 0.988235 0.568627 1 0.988235 0.568627 
1 0.988235 0.568627 1 0.988235 0.568627 
1 0.988235 0.568627 1 0.988235 0.568627 
1 0.988235 0.568627 1 0.988235 0.568627 
1 0.988235 0.568627 1 0.988235 0.568627 
1 0.988235 0.568627 1 0.988235 0.568627 
1 0.988235 0.568627 1 0.988235 0.568627 
1 0.988235 0.568627 1 0.988235 0.568627 
1 0.988235 0.568627 1 0.988235 0.568627 
1 0.988235 0.568627 1 0.988235 0.568627 
1 0.988235 0.568627 1 0.988235 0.568627 
1 0.988235 0.568627 1 0.988235 0.568627 
1 0.988235 0.568627 1 0.988235 0.568627 
1 0.988235 0.568627 1 0.988235 0.568627 
1 0.988235 0.568627 1 0.988235 0.568627 
1 0.988235 0.568627 1 0.988235 0.568627 
1 0.988235 0.568627 1 0.988235 0.568627 
1 0.988235 0.568627 1 0.988235 0.568627 
1 0.988235 0.568627 1 0.988235 0.568627 
1 0.988235 0.568627 1 0.988235 0.568627 
1 0.988235 0.568627 1 0.988235 0.568627 
1 0.988235 0.568627 1 0.988235 0.568627 
1 0.988235 0.568627 1 0.988235 0.568627 
1 0.988235 0.568627 1 0.988235 0.568627 
1 0.988235 0.568627 1 0.988235 0.568627 
1 0.988235 0.568627 1 0.988235 0.568627 
1 0.988235 0.568627 1 0.988235 0.568627 
1 0.988235 0.568627 1 0.988235 0.568627 
1 0.988235 0.568627 1 0.988235 0.568627 
1 0.988235 0.568627 1 0.988235 0.568627 
1 0.988235 0.568627 1 0.988235 0.568627 
1 0.988235 0.568627 1 0.988235 0.568627 
1 0.988235 0.568627 1 0.988235 0.568627 
1 0.988235 0.568627 1 0.988235 0.568627 
1 0.988235 0.568627 1 0.988235 0.568627 
1 0.988235 0.568627 1 0.988235 0.568627 
1 0.988235 0.568627 1 0.988235 0.568627 
1 0.988235 0.568627 1 0.988235 0.568627 
1 0.988235 0.568627 1 0.988235 0.568627 
1 0.988235 0.568627 1 0.988235 0.568627 
1 0.988235 0.568627 1 0.988235 0.568627 
1 0.988235 0.568627 1 0.988235 0.568627 
1 0.988235 0.568627 1 0.988235 0.568627 
1 0.988235 0.568627 1 0.988235 0.568627 
1 0.988235 0.568627 1 0.988235 0.568627 
1 0.988235 0.568627 1 0.988235 0.568627 
1 0.988235 0.568627 1 0.988235 0.568627 
1 0.988235 0.568627 1 0.988235 0.568627 
1 0.988235 0.568627 1 0.988235 0.568627 
1 0.988235 0.568627 1 0.988235 0.568627 
1 0.988235 0.568627 1 0.988235 0.568627 
1 0.988235 0.568627 1 0.988235 0.568627 
1 0.988235 0.568627 1 0.988235 0.568627 
1 0.988235 0.568627 1 0.988235 0.568627 
1 0.988235 0.568627 1 0.988235 0.568627 
1 0.988235 0.568627 1 0.988235 0.568627 
1 0.988235 0.568627 1 0.988235 0.568627 
1 0.988235 0.568627 1 0.988235 0.568627 
1 0.988235 0.568627 1 0.988235 0.568627 
1 0.988235 0.568627 1 0.988235 0.568627 
1 0.988235 0.568627 1 0.988235 0.568627 
1 0.988235 0.568627 1 0.988235 0.568627 
1 0.988235 0.568627 1 0.988235 0.568627 
1 0.988235 0.568627 1 0.988235 0.568627 
1 0.988235 0.568627 1 0.988235 0.568627 
1 0.988235 0.568627 1 0.988235 0.568627 
1 0.988235 0.568627 1 0.988235 0.568627 
1 0.988235 0.568627 1 0.988235 0.568627 
1 0.988235 0.568627 1 0.988235 0.568627 
1 0.988235 0.568627 1 0.988235 0.568627 
1 0.988235 0.568627 1 0.988235 0.568627 
1 0.988235 0.568627 1 0.988235 0.568627 
1 0.988235 0.568627 1 0.988235 0.568627 
1 0.988235 0.568627 1 0.988235 0.568627 
1 0.988235 0.568627 1 0.988235 0.568627 
1 0.988235 0.568627 1 0.988235 0.568627 
1 0.988235 0.568627 1 0.988235 0.568627 
1 0.988235 0.568627 1 0.988235 0.568627 
1 0.988235 0.568627 1 0.988235 0.568627 
1 0.988235 0.568627 1 0.988235 0.568627 
1 0.988235 0.568627 1 0.988235 0.568627 
1 0.988235 0.568627 1 0.988235 0.568627 
1 0.988235 0.568627 1 0.988235 0.568627 
1 0.988235 0.568627 1 0.988235 0.568627 
1 0.988235 0.568627 1 0.988235 0.568627 
1 0.988235 0.568627 1 0.988235 0.568627 
1 0.988235 0.568627 1 0.988235 0.568627 
1 0.988235 0.568627 1 0.988235 0.568627 
1 0.988235 0.568627 1 0.988235 0.568627 
1 0.988235 0.568627 1 0.988235 0.568627 
1 0.988235 0.568627 1 0.988235 0.568627 
1 0.988235 0.568627 1 0.988235 0.568627 
1 0.988235 0.568627 1 0.988235 0.568627 
1 0.988235 0.568627 1 0.988235 0.568627 
1 0.988235 0.568627 1 0.988235 0.568627 
1 0.988235 0.568627 1 0.988235 0.568627 
1 0.988235 0.568627 1 0.988235 0.568627 
1 0.988235 0.568627 1 0.988235 0.568627 
1 0.988235 0.568627 1 0.988235 0.568627 
1 0.988235 0.568627 1 0.988235 0.568627 
1 0.988235 0.568627 1 0.988235 0.568627 
1 0.988235 0.568627 1 0.988235 0.568627 
1 0.988235 0.568627 1 0.988235 0.568627 
1 0.988235 0.568627 1 0.988235 0.568627 
1 0.988235 0.568627 1 0.988235 0.568627 
1 0.988235 0.568627 1 0.988235 0.568627 
1 0.988235 0.568627 1 0.988235 0.568627 
1 0.988235 0.568627 1 0.988235 0.568627 
1 0.988235 0.568627 1 0.988235 0.568627 
1 0.988235 0.568627 1 0.988235 0.568627 
1 0.988235 0.568627 1 0.988235 0.568627 
1 0.988235 0.568627 1 0.988235 0.568627 
1 0.988235 0.568627 1 0.988235 0.568627 
1 0.988235 0.568627 1 0.988235 0.568627 
1 0.988235 0.568627 1 0.988235 0.568627 
1 0.988235 0.568627 1 0.988235 0.568627 
1 0.988235 0.568627 1 0.988235 0.568627 
1 0.988235 0.568627 1 0.988235 0.568627 
1 0.988235 0.568627 1 0.988235 0.568627 
1 0.988235 0.568627 1 0.988235 0.568627 
1 0.988235 0.568627 1 0.988235 0.568627 
1 0.988235 0.568627 1 0.988235 0.568627 
1 0.988235 0.568627 1 0.988235 0.568627 
1 0.988235 0.568627 1 0.988235 0.568627 
1 0.988235 0.568627 1 0.988235 0.568627 
1 0.988235 0.568627 1 0.988235 0.568627 
1 0.988235 0.568627 1 0.988235 0.568627 
1 0.988235 0.568627 1 0.988235 0.568627 
1 0.988235 0.568627 1 0.988235 0.568627 
1 0.988235 0.568627 1 0.988235 0.568627 