# vtk DataFile Version 4.2
vtk output
ASCII
DATASET POLYDATA
POINTS 414 float
314.506 247.79 181.96 315.159 247.673 182.02 313.511 247.84 182.23 
314.813 248.481 181.839 315.225 248.189 181.954 313.047 249.874 181.785 
311.463 251.069 181.937 312.716 250.497 181.793 314.18 250.542 181.936 
310.321 251.733 182.229 309.954 251.598 182.485 310.232 252.187 182.243 
310.375 252.391 182.209 311.113 252.074 182.03 312.329 252.071 182.066 
315.521 246.107 182.659 315.987 245.506 182.939 316.484 245.635 182.916 
314.544 245.746 183.07 316.658 246.013 182.798 316.991 246.284 182.856 
311.87 248.373 182.81 316.937 248.68 182.759 309.494 252.236 182.922 
310.276 253.489 182.861 314.13 253.219 183.064 316.633 244.17 183.793 
315.521 244.121 183.917 318.028 243.947 184.085 318.353 244.184 184.081 
317.569 250.224 183.541 308.948 251.643 183.719 315.059 252.894 183.264 
309.303 254.303 184.024 309.527 254.636 184.186 310.818 254.916 183.922 
317.433 242.669 184.942 319.035 243.704 184.687 318.849 244.252 184.311 
319.424 245.574 184.354 310.159 248.964 184.032 313.191 254.67 184.02 
309.255 254.785 184.666 309.46 255.093 184.832 311.147 255.226 184.239 
316.77 242.086 185.875 316 242.757 185.207 318.956 242.598 185.449 
320.573 246.825 185.412 308.102 252.474 185.178 308.106 253.537 185.803 
310.405 255.877 185.535 318.9 241.884 186.263 314.303 243.268 186.051 
321.24 244.256 186.429 309.226 248.745 185.965 318.448 252.489 186.307 
307.799 253.094 186.992 308.37 254.305 186.69 313.57 255.417 185.373 
309.767 255.914 186.818 311.302 256.337 186.508 311.825 256.305 186.344 
308.374 254.385 187.607 310.029 256.085 187.174 314.645 242.389 188.403 
308.833 254.947 188.441 311.153 256.401 187.866 322.802 243.205 188.99 
323.066 249.309 189.622 307.798 252.991 189.221 308.768 254.709 188.893 
318.01 254.107 188.923 313.579 256.154 188.985 320.719 241.289 189.79 
323.881 243.998 190.003 309.321 246.848 190.486 307.907 249.23 189.391 
307.614 251.026 189.69 309.315 254.596 190.342 316.654 254.992 189.289 
310.28 255.313 190.49 312.257 256.325 189.008 319.971 241.006 190.988 
322.487 241.818 190.544 311.105 244.922 191.143 308.305 248.518 190.878 
324.102 249.171 191.282 307.772 251.643 190.536 319.357 253.566 190.01 
313.611 255.963 190.397 314.904 255.721 190.553 316.104 241.713 191.702 
317.495 241.361 192.192 319.121 241.073 192.047 312.915 243.684 192.132 
324.783 243.458 191.725 309.83 246.565 191.985 309.358 247.003 191.565 
308.359 251.946 191.596 322.82 251.123 191.763 309.329 253.464 191.867 
315.027 255.559 191.21 312.644 255.712 191.139 314.893 242.612 192.476 
324.952 242.574 192.997 312.932 243.872 192.607 309.998 246.706 192.481 
308.618 248.72 191.956 325.703 247.998 193.49 310.01 253.311 192.701 
314.084 255.478 191.73 317.759 241.992 193.761 322.58 241.426 193.519 
324.918 242.406 193.292 313.17 243.961 192.953 312.201 245.058 193.23 
313.257 244.32 193.316 310.204 247.27 193.063 326.283 246.352 194.407 
308.849 248.967 192.368 324.624 249.642 194.085 325.129 249.11 193.952 
309.361 251.577 192.969 319.65 253.201 192.955 311.802 254.131 193.149 
313.325 254.441 193.355 318.102 253.59 193.529 320.353 241.862 194.735 
324.005 241.845 194.109 316.37 242.873 193.912 319.203 242.084 194.606 
319.807 242.051 194.807 326.107 243.906 194.522 314.64 244.763 194.238 
326.378 245.154 195.049 316.564 245.771 195.21 326.37 245.688 195.155 
316.966 247.566 195.46 325.871 248.193 194.649 313.405 249.618 195.024 
325.556 248.65 194.461 322.969 251.093 193.72 311.421 253.682 193.403 
323.972 241.895 194.758 325.176 242.714 195.298 320.191 242.741 195.447 
325.987 243.67 195.196 326.268 245.931 195.547 325.514 248.707 194.961 
314.288 251.067 195.296 324.918 249.056 195.278 314.89 251.643 195.254 
315.619 251.89 195.108 313.212 252.07 194.907 313.736 252.229 194.977 
320.477 251.204 195.076 321.097 251.806 194.298 315.606 253.205 194.469 
322.814 242.035 195.613 323.989 242.285 195.849 324.302 242.138 195.384 
324.749 242.347 195.434 324.64 242.317 195.662 320.481 243.423 195.81 
322.111 243.133 196.324 325.975 243.792 195.636 322.699 243.769 196.689 
326.042 244.126 195.854 321.951 246.025 196.505 323.652 246.094 196.875 
324.032 246.458 196.84 325.826 247.4 195.986 321.044 248.978 195.965 
324.586 247.854 196.383 325.437 248.091 195.961 324.666 248.308 196.114 
325.301 248.48 195.747 313.959 251.829 195.175 324.505 242.362 195.829 
323.516 242.822 196.448 324.063 242.706 196.352 325 242.878 196.218 
324.894 243.018 196.446 323.779 243.303 196.74 325.162 243.162 196.375 
324.355 244.774 197.07 325.879 244.592 196.314 324.915 245.24 197.015 
325.409 245.574 196.787 324.62 246.526 196.775 324.804 243.627 196.78 
324.315 244.257 197.002 325.226 243.985 196.705 325.116 243.662 258.313 
324.825 243.724 258.258 325.333 243.614 258.453 325.37 243.388 258.667 
325.052 243.983 258.247 324.806 243.984 258.219 325.583 243.806 258.659 
325.257 244.317 258.33 325.558 244.3 258.542 324.324 243.062 258.613 
324.058 242.786 258.863 323.906 243.023 258.694 325.125 243.155 258.662 
323.59 243.206 258.689 325.818 243.836 258.954 324.463 245.758 258.479 
324.783 246.059 258.57 325.266 246.077 258.732 325.917 245.962 259.216 
324.969 246.991 258.933 325.506 246.628 259.048 323.007 241.988 260.041 
322.722 242.245 259.674 323.998 242.465 259.26 324.301 242.266 259.648 
324.691 242.425 259.538 322.199 242.394 259.66 320.512 243.323 259.585 
325.781 243.461 259.414 325.99 243.811 259.527 321.036 244.102 259.205 
326.219 244.921 259.669 322.282 246.339 258.879 326.255 245.477 259.774 
325.565 247.167 259.442 323.135 249.14 259.576 325.226 248.445 260.074 
323.519 249.309 259.718 323.676 249.649 260.037 324.18 249.494 260.117 
321.599 242.185 260.11 321.307 241.761 260.916 322.312 241.813 260.558 
323.566 241.889 260.344 324.135 242.07 260.163 324.634 242.309 259.958 
325.045 242.596 260.181 320.229 242.242 260.509 318.58 245.065 259.82 
326.327 245.195 260.154 326.322 245.808 260.17 325.885 247.774 260.365 
311.453 250.757 260.843 313.359 251.089 260.39 311.863 251.931 260.896 
312.818 252.235 260.761 314.655 252.439 260.664 321.09 251.63 260.894 
323.274 250.612 260.958 313.157 252.788 260.999 314.779 253.076 260.983 
321.368 241.504 261.602 322.81 241.649 261.081 323.454 241.762 260.898 
325.058 242.657 260.979 316 243.672 261.294 326.274 244.905 260.708 
318.158 245.33 259.9 310.161 247.955 261.972 326.147 247.316 260.854 
309.457 249.506 262.193 310.015 250.688 261.64 324.462 249.748 260.775 
321.39 251.799 261.217 321.827 251.694 261.45 323.136 250.91 261.451 
318.771 252.958 261.274 319.889 252.829 261.644 319.514 253.104 261.835 
317.812 241.44 263.116 318.599 241.691 262.069 324.394 242.15 261.588 
315.561 242.751 262.278 314.404 243.17 262.686 312.453 244.535 262.565 
310.42 246.187 262.922 311.773 245.489 262.28 326.188 244.971 261.28 
309.97 247.079 262.682 326.221 246.784 261.28 308.984 249.242 262.699 
308.828 248.957 263.008 325.255 249.057 261.565 325.267 248.981 261.801 
324.705 249.646 261.698 309.758 251.49 262.008 323.634 250.637 261.687 
323.743 250.545 262.001 310.172 252.574 262.168 322.783 251.24 261.929 
321.269 252.323 262.42 312.799 254.428 262.531 324.52 242.517 262.413 
324.838 242.945 262.64 311.255 244.907 263.746 325.25 243.777 262.701 
309.79 246.615 263.537 308.751 248.356 263.74 308.75 250.027 262.899 
322.383 251.507 263.379 321.431 252.297 263.129 310 253.773 263.329 
310.754 254.657 263.789 317.241 254.426 262.918 319.319 253.51 263.131 
317.715 241.115 264.721 320.681 241.21 263.713 322.144 241.562 263.45 
325.106 244.731 263.514 324.882 248.034 263.506 308.002 249.719 264.646 
314.519 255.482 264.07 322.771 241.906 263.758 314.674 242.177 265.635 
311.32 244.61 264.957 310.239 245.736 264.766 308.395 248.603 264.77 
308.507 252.911 264.742 316.666 241.34 266.424 316.039 241.521 265.879 
320.168 241.218 265.181 323.649 243.98 265.266 309.561 254.762 265.313 
309.889 255.493 266.303 313.415 256.1 266.449 322.243 243.191 266.625 
307.606 251.76 267.305 307.819 252.646 266.679 319.323 252.862 267.077 
314.995 255.608 266.517 310.742 256.269 267.581 312.863 256.302 267.013 
311.875 256.465 267.607 318.528 241.276 267.023 314.677 242.427 268.071 
320.61 242.404 267.865 309.063 247.961 267.49 321.388 249.885 267.812 
307.609 251.877 267.99 307.625 252.426 268.273 309.252 255.321 267.649 
310.13 256.068 268.257 317.309 241.604 268.337 319.49 241.717 267.704 
319.748 251.541 268.54 315.639 254.743 268.783 312.228 256.314 268.576 
320.858 247.662 269.427 309.073 249.032 269.425 307.83 251.692 269.407 
307.707 252.285 269.306 307.881 253.23 269.7 309.364 255.29 269.765 
310.484 256.21 269.212 316.791 242.124 269.483 314.322 243.682 270.084 
319.397 244.28 270.569 318.939 250.184 270.577 308.088 252.067 270.466 
307.902 252.862 270.069 309.052 254.712 270.528 312.696 255.421 270.485 
310.116 255.898 269.857 310.334 255.85 270.116 310.943 256.109 269.774 
317.149 242.879 270.37 315.261 243.771 270.891 318.729 243.784 270.72 
318.495 244.607 271.273 319.355 246.283 271.056 318.453 248.712 271.669 
309.517 250.097 271.421 309.022 251.24 271.597 317.641 250.349 271.767 
309.168 254.011 271.386 314.179 253.782 271.802 313.075 254.478 271.557 
317.158 243.986 271.353 317.81 243.87 271.143 315.6 244.503 271.764 
316.671 244.896 272.188 317.179 245.753 272.397 314.189 245.727 272.115 
317.565 246.017 272.281 317.65 247.533 272.384 316.212 251.012 272.417 
310.477 254.064 272.218 311.119 254.117 272.311 316.713 245.927 272.605 
316.67 246.608 272.795 311.891 249.363 272.916 310.202 250.516 272.446 
310.007 251.428 272.719 314.614 250.954 273.168 312.897 252.465 273.161 
310.643 253.269 272.85 311.542 253.351 272.888 311.755 252.947 273.093 
313.167 249.473 273.361 312.186 250.297 273.362 310.83 250.986 273.149 
311.803 251.043 273.414 311.241 251.19 273.376 313.308 250.485 273.472 
310.025 252.509 272.821 310.962 251.289 273.297 313.27 251.275 273.39 
310.018 252.946 272.754 311.002 252.41 273.179 311.055 251.074 273.323 

[...]
POINT_DATA 414
COLOR_SCALARS scalars 3
1 0.298039 0.243137 1 0.298039 0.243137 1 0.298039 0.243137 
1 0.298039 0.243137 1 0.298039 0.243137 
1 0.298039 0.243137 1 0.298039 0.243137 
1 0.298039 0.243137 1 0.298039 0.243137 
1 0.298039 0.243137 1 0.298039 0.243137 
1 0.298039 0.243137 1 0.298039 0.243137 
1 0.298039 0.243137 1 0.298039 0.243137 
1 0.298039 0.243137 1 0.298039 0.243137 
1 0.298039 0.243137 1 0.298039 0.243137 
1 0.298039 0.243137 1 0.298039 0.243137 
1 0.298039 0.243137 1 0.298039 0.243137 
1 0.298039 0.243137 1 0.298039 0.243137 
1 0.298039 0.243137 1 0.298039 0.243137 
1 0.298039 0.243137 1 0.298039 0.243137 
1 0.298039 0.243137 1 0.298039 0.243137 
1 0.298039 0.243137 1 0.298039 0.243137 
1 0.298039 0.243137 1 0.298039 0.243137 
1 0.298039 0.243137 1 0.298039 0.243137 
1 0.298039 0.243137 1 0.298039 0.243137 
1 0.298039 0.243137 1 0.298039 0.243137 
1 0.298039 0.243137 1 0.298039 0.243137 
1 0.298039 0.243137 1 0.298039 0.243137 
1 0.298039 0.243137 1 0.298039 0.243137 
1 0.298039 0.243137 1 0.298039 0.243137 
1 0.298039 0.243137 1 0.298039 0.243137 
1 0.298039 0.243137 1 0.298039 0.243137 
1 0.298039 0.243137 1 0.298039 0.243137 
1 0.298039 0.243137 1 0.298039 0.243137 
1 0.298039 0.243137 1 0.298039 0.243137 
1 0.298039 0.243137 1 0.298039 0.243137 
1 0.298039 0.243137 1 0.298039 0.243137 
1 0.298039 0.243137 1 0.298039 0.243137 
1 0.298039 0.243137 1 0.298039 0.243137 
1 0.298039 0.243137 1 0.298039 0.243137 
1 0.298039 0.243137 1 0.298039 0.243137 
1 0.298039 0.243137 1 0.298039 0.243137 
1 0.298039 0.243137 1 0.298039 0.243137 
1 0.298039 0.243137 1 0.298039 0.243137 
1 0.298039 0.243137 1 0.298039 0.243137 
1 0.298039 0.243137 1 0.298039 0.243137 
1 0.298039 0.243137 1 0.298039 0.243137 
1 0.298039 0.243137 1 0.298039 0.243137 
1 0.298039 0.243137 1 0.298039 0.243137 
1 0.298039 0.243137 1 0.298039 0.243137 
1 0.298039 0.243137 1 0.298039 0.243137 
1 0.298039 0.243137 1 0.298039 0.243137 
1 0.298039 0.243137 1 0.298039 0.243137 
1 0.298039 0.243137 1 0.298039 0.243137 
1 0.298039 0.243137 1 0.298039 0.243137 
1 0.298039 0.243137 1 0.298039 0.243137 
1 0.298039 0.243137 1 0.298039 0.243137 
1 0.298039 0.243137 1 0.298039 0.243137 
1 0.298039 0.243137 1 0.298039 0.243137 
1 0.298039 0.243137 1 0.298039 0.243137 
1 0.298039 0.243137 1 0.298039 0.243137 
1 0.298039 0.243137 1 0.298039 0.243137 
1 0.298039 0.243137 1 0.298039 0.243137 
1 0.298039 0.243137 1 0.298039 0.243137 
1 0.298039 0.243137 1 0.298039 0.243137 
1 0.298039 0.243137 1 0.298039 0.243137 
1 0.298039 0.243137 1 0.298039 0.243137 
1 0.298039 0.243137 1 0.298039 0.243137 
1 0.298039 0.243137 1 0.298039 0.243137 
1 0.298039 0.243137 1 0.298039 0.243137 
1 0.298039 0.243137 1 0.298039 0.243137 
1 0.298039 0.243137 1 0.298039 0.243137 
1 0.298039 0.243137 1 0.298039 0.243137 
1 0.298039 0.243137 1 0.298039 0.243137 
1 0.298039 0.243137 1 0.298039 0.243137 
1 0.298039 0.243137 1 0.298039 0.243137 
1 0.298039 0.243137 1 0.298039 0.243137 
1 0.298039 0.243137 1 0.298039 0.243137 
1 0.298039 0.243137 1 0.298039 0.243137 
1 0.298039 0.243137 1 0.298039 0.243137 
1 0.298039 0.243137 1 0.298039 0.243137 
1 0.298039 0.243137 1 0.298039 0.243137 
1 0.298039 0.243137 1 0.298039 0.243137 
1 0.298039 0.243137 1 0.298039 0.243137 
1 0.298039 0.243137 1 0.298039 0.243137 
1 0.298039 0.243137 1 0.298039 0.243137 
1 0.298039 0.243137 1 0.298039 0.243137 
1 0.298039 0.243137 1 0.298039 0.243137 
1 0.298039 0.243137 1 0.298039 0.243137 
1 0.298039 0.243137 1 0.298039 0.243137 
1 0.298039 0.243137 1 0.298039 0.243137 
1 0.298039 0.243137 1 0.298039 0.243137 
1 0.298039 0.243137 1 0.298039 0.243137 
1 0.298039 0.243137 1 0.298039 0.243137 
1 0.298039 0.243137 1 0.298039 0.243137 
1 0.298039 0.243137 1 0.298039 0.243137 
1 0.298039 0.243137 1 0.298039 0.243137 
1 0.298039 0.243137 1 0.298039 0.243137 
1 0.298039 0.243137 1 0.298039 0.243137 
1 0.298039 0.243137 1 0.298039 0.243137 
1 0.298039 0.243137 1 0.298039 0.243137 
1 0.298039 0.243137 1 0.298039 0.243137 
1 0.298039 0.243137 1 0.298039 0.243137 
1 0.298039 0.243137 1 0.298039 0.243137 
1 0.298039 0.243137 1 0.298039 0.243137 
1 0.298039 0.243137 1 0.298039 0.243137 
1 0.298039 0.243137 1 0.298039 0.243137 
1 0.298039 0.243137 1 0.298039 0.243137 
1 0.298039 0.243137 1 0.298039 0.243137 
1 0.298039 0.243137 1 0.298039 0.243137 
1 0.298039 0.243137 1 0.298039 0.243137 
1 0.298039 0.243137 1 0.298039 0.243137 
1 0.298039 0.243137 1 0.298039 0.243137 
1 0.298039 0.243137 1 0.298039 0.243137 
1 0.298039 0.243137 1 0.298039 0.243137 
1 0.298039 0.243137 1 0.298039 0.243137 
1 0.298039 0.243137 1 0.298039 0.243137 
1 0.298039 0.243137 1 0.298039 0.243137 
1 0.298039 0.243137 1 0.298039 0.243137 
1 0.298039 0.243137 1 0.298039 0.243137 
1 0.298039 0.243137 1 0.298039 0.243137 
1 0.298039 0.243137 1 0.298039 0.243137 
1 0.298039 0.243137 1 0.298039 0.243137 
1 0.298039 0.243137 1 0.298039 0.243137 
1 0.298039 0.243137 1 0.298039 0.243137 
1 0.298039 0.243137 1 0.298039 0.243137 
1 0.298039 0.243137 1 0.298039 0.243137 
1 0.298039 0.243137 1 0.298039 0.243137 
1 0.298039 0.243137 1 0.298039 0.243137 
1 0.298039 0.243137 1 0.298039 0.243137 
1 0.298039 0.243137 1 0.298039 0.243137 
1 0.298039 0.243137 1 0.298039 0.243137 
1 0.298039 0.243137 1 0.298039 0.243137 
1 0.298039 0.243137 1 0.298039 0.243137 
1 0.298039 0.243137 1 0.298039 0.243137 
1 0.298039 0.243137 1 0.298039 0.243137 
1 0.298039 0.243137 1 0.298039 0.243137 
1 0.298039 0.243137 1 0.298039 0.243137 
1 0.298039 0.243137 1 0.298039 0.243137 
1 0.298039 0.243137 1 0.298039 0.243137 
1 0.298039 0.243137 1 0.298039 0.243137 
1 0.298039 0.243137 1 0.298039 0.243137 
1 0.298039 0.243137 1 0.298039 0.243137 
1 0.298039 0.243137 1 0.298039 0.243137 
1 0.298039 0.243137 1 0.298039 0.243137 
1 0.298039 0.243137 1 0.298039 0.243137 
1 0.298039 0.243137 1 0.298039 0.243137 
1 0.298039 0.243137 1 0.298039 0.243137 
1 0.298039 0.243137 1 0.298039 0.243137 
1 0.298039 0.243137 1 0.298039 0.243137 
1 0.298039 0.243137 1 0.298039 0.243137 
1 0.298039 0.243137 1 0.298039 0.243137 
1 0.298039 0.243137 1 0.298039 0.243137 
1 0.298039 0.243137 1 0.298039 0.243137 
1 0.298039 0.243137 1 0.298039 0.243137 
1 0.298039 0.243137 1 0.298039 0.243137 
1 0.298039 0.243137 1 0.298039 0.243137 
1 0.298039 0.243137 1 0.298039 0.243137 
1 0.298039 0.243137 1 0.298039 0.243137 
1 0.298039 0.243137 1 0.298039 0.243137 
1 0.298039 0.243137 1 0.298039 0.243137 
1 0.298039 0.243137 1 0.298039 0.243137 
1 0.298039 0.243137 1 0.298039 0.243137 
1 0.298039 0.243137 1 0.298039 0.243137 
1 0.298039 0.243137 1 0.298039 0.243137 
1 0.298039 0.243137 1 0.298039 0.243137 
1 0.298039 0.243137 1 0.298039 0.243137 
1 0.298039 0.243137 1 0.298039 0.243137 
1 0.298039 0.243137 1 0.298039 0.243137 
1 0.298039 0.243137 1 0.298039 0.243137 
1 0.298039 0.243137 1 0.298039 0.243137 
1 0.298039 0.243137 1 0.298039 0.243137 
1 0.298039 0.243137 1 0.298039 0.243137 
1 0.298039 0.243137 1 0.298039 0.243137 
1 0.298039 0.243137 1 0.298039 0.243137 
1 0.298039 0.243137 1 0.298039 0.243137 
1 0.298039 0.243137 1 0.298039 0.243137 
1 0.298039 0.243137 1 0.298039 0.243137 
1 0.298039 0.243137 1 0.298039 0.243137 
1 0.298039 0.243137 1 0.298039 0.243137 
1 0.298039 0.243137 1 0.298039 0.243137 
1 0.298039 0.243137 1 0.298039 0.243137 
1 0.298039 0.243137 1 0.298039 0.243137 
1 0.298039 0.243137 1 0.298039 0.243137 
1 0.298039 0.243137 1 0.298039 0.243137 
1 0.298039 0.243137 1 0.298039 0.243137 
1 0.298039 0.243137 1 0.298039 0.243137 
1 0.298039 0.243137 1 0.298039 0.243137 
1 0.298039 0.243137 1 0.298039 0.243137 
1 0.298039 0.243137 1 0.298039 0.243137 
1 0.298039 0.243137 1 0.298039 0.243137 
1 0.298039 0.243137 1 0.298039 0.243137 
1 0.298039 0.243137 1 0.298039 0.243137 
1 0.298039 0.243137 1 0.298039 0.243137 
1 0.298039 0.243137 1 0.298039 0.243137 
1 0.298039 0.243137 1 0.298039 0.243137 
1 0.298039 0.243137 1 0.298039 0.243137 
1 0.298039 0.243137 1 0.298039 0.243137 
1 0.298039 0.243137 1 0.298039 0.243137 
1 0.298039 0.243137 1 0.298039 0.243137 
1 0.298039 0.243137 1 0.298039 0.243137 
1 0.298039 0.243137 1 0.298039 0.243137 
1 0.298039 0.243137 1 0.298039 0.243137 
1 0.298039 0.243137 1 0.298039 0.243137 
1 0.298039 0.243137 1 0.298039 0.243137 
1 0.298039 0.243137 1 0.298039 0.243137 
1 0.298039 0.243137 1 0.298039 0.243137 
1 0.298039 0.243137 1 0.298039 0.243137 
1 0.298039 0.243137 1 0.298039 0.243137 
1 0.298039 0.243137 1 0.298039 0.243137 
1 0.298039 0.243137 1 0.298039 0.243137 
1 0.298039 0.243137 1 0.298039 0.243137 
1 0.298039 0.243137 
NORMALS Normals float
-0.0703147 -0.278464 -0.957869 0.149964 -0.271603 -0.950654 -0.349154 -0.314921 -0.882562 
0.19685 0.0684882 -0.978038 0.261442 -0.0906679 -0.960951 -0.149367 -0.108431 -0.982819 
-0.187273 -0.0438155 -0.98133 -0.168359 -0.0151978 -0.985609 0.212229 0.238285 -0.947723 
-0.450075 -0.0820268 -0.889215 -0.585657 -0.279224 -0.760947 -0.531935 0.0707561 -0.843824 
-0.291022 0.262878 -0.919892 -0.0607769 0.224766 -0.972515 0.0752791 0.411182 -0.908439 
-0.0016295 -0.32745 -0.944867 -0.0183117 -0.472476 -0.881153 0.176772 -0.462903 -0.868604 
-0.34099 -0.554802 -0.758894 0.194028 -0.28257 -0.939419 0.430601 -0.161072 -0.888053 
-0.543823 -0.564108 -0.621321 0.491036 0.0561386 -0.869329 -0.6992 0.156192 -0.697656 
-0.234025 0.529179 -0.815599 0.318829 0.564618 -0.761285 0.0151189 -0.54272 -0.839777 
-0.178866 -0.625699 -0.759281 0.239653 -0.502482 -0.830709 0.350284 -0.394205 -0.849649 
0.608496 0.255252 -0.751385 -0.851374 -0.0889335 -0.516965 0.483409 0.482847 -0.730188 
-0.649999 0.444279 -0.616536 -0.398268 0.701936 -0.590481 -0.139274 0.669006 -0.730092 
0.148022 -0.678137 -0.719874 0.545518 -0.385004 -0.744434 0.436159 -0.403197 -0.804486 
0.598762 -0.121073 -0.791723 -0.780997 -0.373901 -0.500242 0.179376 0.669172 -0.721133 
-0.702553 0.590017 -0.397869 -0.549212 0.744148 -0.380276 -0.0547419 0.836944 -0.544545 
-0.174762 -0.909201 -0.377904 -0.342184 -0.734331 -0.586232 0.392509 -0.67447 -0.625321 
0.746716 0.0063422 -0.665113 -0.942341 0.00765249 -0.334567 -0.847733 0.430992 -0.309183 
-0.262635 0.892153 -0.36754 0.147658 -0.925304 -0.349299 -0.596378 -0.710857 -0.372848 
0.712197 -0.329335 -0.619931 -0.778894 -0.492166 -0.388711 0.56301 0.698963 -0.440987 
-0.966366 0.257172 0.00044027 -0.819062 0.571091 -0.054706 0.387584 0.813516 -0.433556 
-0.580249 0.79949 -0.155329 -0.143369 0.961094 -0.236102 0.123106 0.96257 -0.24146 
-0.846805 0.529807 0.0471795 -0.46277 0.869726 0.171522 -0.489189 -0.86627 -0.101341 
-0.782994 0.5888 0.200587 -0.100748 0.991849 0.0780121 0.734837 -0.331995 -0.591434 
0.793876 0.29137 -0.533727 -0.947378 0.301354 0.107984 -0.71221 0.661672 0.234407 
0.515952 0.843318 -0.15036 0.235436 0.970548 -0.0510449 0.259273 -0.945235 -0.198266 
0.762353 -0.353063 -0.542369 -0.784869 -0.61956 -0.0112046 -0.947548 -0.270973 -0.169487 
-0.997939 -0.0492693 -0.0411129 -0.650831 0.625949 0.42966 0.412194 0.904012 -0.113398 
-0.368613 0.858059 0.357575 -0.279444 0.906338 0.316957 0.0534477 -0.995254 -0.0813182 
0.516226 -0.778156 -0.357749 -0.645593 -0.749096 0.148541 -0.915591 -0.345112 0.206375 
0.819951 0.446759 -0.357892 -0.938177 0.0632754 0.340324 0.540316 0.830416 -0.135898 
0.115148 0.984691 0.13086 0.221015 0.969774 0.103394 -0.38996 -0.91112 0.133386 
-0.254207 -0.957446 0.136657 -0.0866618 -0.973168 0.213151 -0.462952 -0.86315 0.201614 
0.811969 -0.21983 -0.540724 -0.810524 -0.495168 0.312825 -0.817041 -0.483586 0.313989 
-0.827988 0.21093 0.519562 0.648652 0.751796 -0.118548 -0.699614 0.514458 0.495857 
0.322176 0.890233 0.322007 -0.15174 0.927011 0.342965 -0.464806 -0.847776 0.255402 
0.692351 -0.655769 -0.301026 -0.559522 -0.682169 0.470724 -0.740093 -0.482206 0.468765 
-0.858082 -0.322261 0.399804 0.877948 0.288155 -0.382327 -0.528821 0.483271 0.697709 
0.0208895 0.903926 0.427178 -0.230201 -0.874981 0.425929 0.132565 -0.986578 0.0953408 
0.499826 -0.812425 -0.300232 -0.424219 -0.688629 0.588072 -0.543366 -0.541922 0.641151 
-0.466194 -0.55164 0.691633 -0.652066 -0.265525 0.710146 0.982827 0.135125 -0.125665 
-0.781046 -0.0872755 0.618344 0.658389 0.750975 -0.050596 0.73983 0.633574 -0.226355 
-0.611843 0.128495 0.780472 0.403732 0.856001 0.322896 -0.316089 0.772306 0.551027 
-0.0266859 0.734984 0.677559 0.28925 0.849665 0.440913 -0.158286 -0.848148 0.505559 
0.355031 -0.933236 0.0549906 -0.382317 -0.639888 0.666616 -0.290778 -0.668845 0.684174 
-0.467677 -0.5073 0.723827 0.918405 -0.373915 -0.129305 -0.355251 -0.352973 0.865568 
0.996789 -0.0760771 0.0249988 -0.262722 -0.0928513 0.960394 0.991985 0.0794975 0.0982159 
-0.148958 -0.0360734 0.988185 0.913395 0.403181 0.0561655 -0.245902 -0.123404 0.961407 
0.724241 0.687357 -0.0549118 0.624127 0.776875 0.0832478 -0.377948 0.529439 0.759506 
0.178815 -0.970319 0.162809 0.720901 -0.692433 0.0289535 -0.41527 -0.457238 0.786438 
0.886292 -0.457178 0.0739862 0.935163 0.0945473 0.341367 0.726865 0.664721 0.172668 
0.0331885 -0.103139 0.994113 0.528145 0.779543 0.336713 0.0742136 0.175407 0.981695 
0.0359745 0.290289 0.956263 -0.321659 0.400058 0.858189 -0.134915 0.542444 0.829188 
0.142028 0.554885 0.819714 0.353738 0.768003 0.533892 0.015885 0.649626 0.760088 
-0.0365247 -0.868101 0.495041 0.10163 -0.80851 0.57964 0.319295 -0.936955 0.142007 
0.538887 -0.8346 -0.114209 0.577078 -0.780789 0.239478 -0.411063 -0.259406 0.87392 
-0.291715 -0.362556 0.88513 0.76952 -0.511545 0.38231 -0.231365 -0.186881 0.954749 
0.913973 -0.285079 0.28876 -0.267552 0.0378295 0.962801 -0.147147 0.0544321 0.987616 
-0.0333121 0.238177 0.97065 0.814622 0.25326 0.521777 -0.0895535 0.15522 0.983812 
0.224045 0.412105 0.883161 0.62043 0.465802 0.630948 0.235349 0.582071 0.778334 
0.558176 0.574542 0.598616 -0.187652 0.194001 0.962887 0.21279 -0.830612 0.514591 
-0.0988667 -0.586197 0.804114 0.109421 -0.683375 0.721821 0.429985 -0.73247 0.527826 
0.279472 -0.56923 0.773222 -0.0501407 -0.344005 0.937628 0.691346 -0.505782 0.515971 
0.0191402 -0.0720265 0.997219 0.742408 -0.19397 0.641254 0.273684 0.0263813 0.961458 
0.578797 0.115607 0.807235 0.205775 0.214163 0.954877 0.269914 -0.3331 0.903433 
-0.0355395 -0.149565 0.988113 0.423865 -0.203959 0.882462 0.287115 -0.346967 -0.892849 
-0.00157332 -0.329785 -0.944055 0.584378 -0.309174 -0.750276 0.700762 -0.521429 -0.486871 
0.394462 -0.0708035 -0.916181 -0.119827 -0.0756986 -0.989905 0.725042 -0.288681 -0.625282 
0.37892 0.135769 -0.915416 0.720898 -0.0284314 -0.692458 -0.0883147 -0.496315 -0.863639 
-0.0661213 -0.74193 -0.667209 -0.204763 -0.498676 -0.842255 0.351097 -0.673694 -0.650283 
-0.266935 -0.529262 -0.805374 0.857901 -0.2139 -0.467176 0.0585036 0.20449 -0.977119 
0.228478 0.252916 -0.940123 0.41709 0.185287 -0.889778 0.77291 0.204735 -0.600578 
0.221323 0.409958 -0.884845 0.587502 0.329561 -0.739075 -0.0307085 -0.897627 -0.439685 
-0.0775533 -0.788071 -0.61068 -0.040081 -0.820801 -0.569807 0.18526 -0.915746 -0.356494 
0.41572 -0.827383 -0.377642 -0.243461 -0.708539 -0.662344 -0.282875 -0.444826 -0.849771 
0.773124 -0.610689 -0.171283 0.932954 -0.352022 -0.0753462 -0.267622 -0.260297 -0.927698 
0.963906 -0.125161 -0.234988 -0.142224 0.15071 -0.978294 0.920277 0.0532497 -0.387627 
0.64812 0.426466 -0.630926 0.0712287 0.546396 -0.834493 0.572907 0.533908 -0.621868 
0.244214 0.545502 -0.80174 0.234646 0.646647 -0.725802 0.412989 0.611688 -0.674743 
-0.189432 -0.699898 -0.688665 0.0359113 -0.926348 -0.374952 -0.0747141 -0.935729 -0.344716 
0.10846 -0.946301 -0.304551 0.286352 -0.930573 -0.228113 0.45024 -0.887408 -0.098947 
0.688588 -0.724281 0.0355526 -0.299999 -0.713051 -0.633687 -0.332074 -0.247989 -0.910071 
0.993674 -0.0729821 -0.0853555 0.988292 0.110487 -0.105225 0.870168 0.386212 -0.306018 
-0.391967 -0.0300137 -0.91949 -0.165283 0.0866053 -0.982436 -0.32628 0.402267 -0.855408 
-0.133215 0.368469 -0.920046 0.0551862 0.422829 -0.904528 0.215951 0.545152 -0.810046 
0.362261 0.788132 -0.497609 -0.15667 0.577793 -0.801005 0.0801183 0.617046 -0.782838 
-0.0837823 -0.959211 -0.269992 0.00719407 -0.988794 -0.149114 0.175072 -0.974867 -0.137782 
0.72986 -0.67791 0.0879855 -0.431797 -0.40366 -0.806604 0.929555 -0.343323 0.134377 
-0.373814 -0.146924 -0.915793 -0.652602 -0.284057 -0.702441 0.948764 0.307704 0.0718731 
-0.59434 -0.202715 -0.778246 -0.584274 0.0957576 -0.805887 0.612656 0.732335 -0.297217 
0.428802 0.739756 -0.518547 0.475119 0.771069 -0.423927 0.456315 0.865855 -0.205115 
0.192775 0.773315 -0.604005 0.402571 0.830212 -0.385597 0.287602 0.886782 -0.361804 
-0.242384 -0.92597 -0.289532 -0.196566 -0.864858 -0.461934 0.548843 -0.827357 0.119383 
-0.390584 -0.785418 -0.480169 -0.58391 -0.656858 -0.47706 -0.506179 -0.645125 -0.57236 
-0.679304 -0.598421 -0.424781 -0.406161 -0.446609 -0.797228 0.944652 -0.105813 0.310543 
-0.823312 -0.316069 -0.471443 0.963328 0.120352 0.239823 -0.717978 -0.111089 -0.687144 
-0.811231 -0.304626 -0.499106 0.796071 0.599901 -0.079937 0.841142 0.494803 0.218289 
0.717685 0.67141 0.184759 -0.698295 0.186613 -0.691056 0.574136 0.807742 -0.133867 
0.623271 0.781848 0.0157153 -0.609742 0.373103 -0.699291 0.473975 0.861314 -0.182993 
0.51518 0.835944 -0.189172 -0.151975 0.745141 -0.64936 0.569041 -0.751901 0.332922 
0.769376 -0.535659 0.348037 -0.628867 -0.713557 -0.308809 0.852512 -0.387526 0.35078 
-0.852836 -0.457479 -0.251763 -0.875103 -0.380751 -0.298703 -0.855409 0.101617 -0.507887 
0.668476 0.7282 0.151208 0.528714 0.848783 -0.00543147 -0.469435 0.622342 -0.626356 
-0.425552 0.774431 -0.468148 0.25606 0.863818 -0.43388 0.40208 0.906183 -0.131011 
-0.218385 -0.962651 -0.160034 -0.0398799 -0.998303 0.0424413 0.288628 -0.956232 0.0481138 
0.828917 -0.175517 0.531122 0.828311 0.286484 0.481485 -0.962267 -0.0959485 -0.254629 
0.0313054 0.943467 -0.329984 0.480097 -0.812284 0.331211 -0.604589 -0.789185 -0.107973 
-0.677316 -0.73521 0.0266274 -0.765677 -0.639912 -0.0652066 -0.915485 -0.395449 -0.0742162 
-0.841766 0.380528 -0.382922 -0.213772 -0.974937 0.0616383 -0.282922 -0.959142 0.0010391 
-0.0469649 -0.997873 0.0452195 0.767517 -0.292537 0.570385 -0.673124 0.640283 -0.370057 
-0.381915 0.856591 -0.346977 0.203214 0.975915 -0.0793347 0.701982 -0.475324 0.530366 
-0.979914 -0.199401 -0.00288307 -0.946137 0.29069 -0.142563 0.55668 0.769109 0.313973 
0.394491 0.91707 0.0579671 -0.360347 0.915272 -0.180078 0.310731 0.949226 0.0491502 
-0.0757492 0.985444 -0.152192 0.0301232 -0.997959 0.0563098 -0.591565 -0.787759 0.171718 
0.540914 -0.695399 0.473109 -0.821093 -0.541075 0.181781 0.780074 0.387386 0.491341 
-0.998462 -0.0504382 0.0230269 -0.99666 0.0772414 0.0265251 -0.727748 0.676334 -0.11382 
-0.449473 0.893294 -0.000307053 -0.0284165 -0.945468 0.324473 0.341239 -0.851909 0.39725 
0.633916 0.531974 0.561385 0.438101 0.848616 0.29651 0.203572 0.956861 0.207306 
0.766213 0.112834 0.632603 -0.767425 -0.513152 0.384362 -0.935819 -0.277128 0.217813 
-0.985769 -0.02002 0.166907 -0.911439 0.397186 0.107339 -0.695808 0.679667 0.232174 
-0.205746 0.968277 0.141804 -0.130208 -0.88041 0.455986 -0.525442 -0.695288 0.490394 
0.561802 -0.344982 0.751908 0.63424 0.461546 0.620254 -0.874015 -0.120592 0.470697 
-0.883136 0.142188 0.44705 -0.706092 0.583002 0.401923 0.297278 0.834157 0.464552 
-0.49208 0.833115 0.252541 -0.362422 0.759919 0.539605 -0.0201735 0.902429 0.430366 
-0.00622272 -0.755077 0.655606 -0.16077 -0.752509 0.638657 0.419431 -0.620156 0.662937 
0.407394 -0.37478 0.832808 0.676765 -0.103392 0.728903 0.664708 0.112175 0.738634 
-0.666519 -0.490014 0.561817 -0.802184 -0.171747 0.571842 0.492894 0.312576 0.812005 
-0.648766 0.404762 0.644415 0.43673 0.605973 0.664879 0.141595 0.784658 0.603542 
0.110689 -0.656773 0.745921 0.209924 -0.578965 0.787865 -0.247335 -0.492431 0.834468 
0.109016 -0.550873 0.827438 0.421095 -0.322484 0.847751 -0.423274 -0.513367 0.746521 
0.516624 -0.1745 0.838242 0.483677 0.0587334 0.873274 0.452851 0.457548 0.765229 
-0.15707 0.752751 0.639293 -0.050574 0.738541 0.672309 0.0903075 -0.286408 0.953842 