# vtk DataFile Version 4.2
vtk output
ASCII
DATASET POLYDATA
POINTS 441 float
476.49 277.506 150.843 476.904 277.514 150.863 476.356 277.801 150.806 
477.333 275.921 152.088 469.856 277.197 151.838 469.061 277.127 152.039 
471.926 276.885 151.677 473.439 276.244 151.88 474.985 276.581 151.447 
479.315 276.814 151.796 467.951 277.436 152.187 469.777 277.786 151.614 
471.507 277.528 151.464 479.908 277.461 151.644 481.417 277.807 152.053 
481.801 277.804 152.303 467.422 278.097 152.123 466.969 278.227 152.349 
467.891 278.261 151.923 470.223 278.237 151.491 479.604 278.028 151.392 
481.161 278.153 151.838 467.155 278.426 152.188 467.208 278.649 152.184 
468.071 278.682 151.916 471.697 278.763 151.365 478.561 278.78 151.164 
481.584 278.692 151.933 468.893 279.392 151.923 472.258 279.405 151.465 
480.137 279.136 151.502 480.863 279.276 151.686 471.739 280.073 151.793 
473.895 280.045 151.577 471.756 275.562 153.157 471.285 275.907 152.665 
476.215 275.495 152.641 479.042 275.947 152.442 479.087 275.807 152.743 
480.83 276.719 152.534 480.96 276.615 152.835 466.186 277.545 153.532 
466.066 277.921 153.293 467.046 277.491 152.75 482.583 278.012 152.912 
482.304 278.732 152.319 482.778 278.501 152.757 466.338 278.61 152.875 
483.19 279.358 152.807 466.985 279.538 152.752 482.859 279.99 152.602 
471.624 280.654 152.15 479.563 280.529 151.88 482.259 280.551 152.491 
469.645 275.852 153.48 466.88 276.915 153.779 479.996 276.022 153.373 
465.843 277.811 153.658 465.633 277.944 153.916 465.473 278.254 154 
483.576 278.373 153.933 465.616 278.424 153.68 483.711 279.702 153.267 
484.623 279.472 154.398 483.884 280.343 153.37 467.635 280.655 153.62 
483.376 280.982 153.181 484.164 281.796 153.949 484.541 281.36 154.016 
481.274 282.243 153.245 470.004 275.553 154.271 471.553 275.294 154.32 
474.955 275.135 153.875 481.239 276.491 154.132 466.28 277.264 154.58 
483.04 277.674 154.488 465.487 278.565 153.945 465.384 278.535 154.325 
469.767 281.806 154.008 469.374 282.111 154.769 474.35 283.055 154.134 
483.72 282.92 154.434 473.932 275.117 154.686 467.232 276.655 155.423 
480.356 276.106 154.763 465.526 278.012 154.816 465.475 278.221 155.085 
465.372 278.639 154.735 466.416 280.333 154.876 486.456 281.73 156.317 
471.375 283.128 155.414 485.13 283.406 155.554 474.648 275.169 155.24 
466.839 276.958 155.623 483.931 278.312 155.714 486.704 281.635 156.863 
486.783 281.893 156.822 468.582 282.266 156.033 486.381 282.925 156.365 
469.163 276.232 156.646 478.591 275.97 156.461 466.105 278.455 156.979 
465.753 279.175 156.272 486.43 281.061 157.502 468.569 282.387 156.677 
469.214 282.748 156.629 486.556 283.346 156.814 475.051 284.819 157.246 
485.671 284.556 157.455 474.866 275.8 157.265 467.622 277.472 157.727 
466.018 278.805 157.073 466.749 278.266 157.794 466.056 279.801 157.123 
485.704 280.369 158.009 466.231 280.192 157.314 466.558 280.629 157.365 
487.549 282.846 158.473 487.619 283.46 158.247 479.031 285.567 158.148 
478.617 285.63 158.593 480.844 285.55 157.939 479.493 277.191 158.482 
466.146 279.524 157.512 466.374 279.245 157.877 466.358 280.298 157.585 
466.58 280.332 157.964 467.293 281.303 158.067 467.892 281.768 158.316 
487.956 283.379 158.826 487.962 283.374 159.005 487.983 283.505 158.836 
488.005 283.485 158.952 472.651 284.4 158.572 487.9 283.61 158.941 
485.873 285.022 159.058 476.699 277.258 159.492 467.652 278.467 158.817 
469.374 278.104 159.507 466.744 279.503 158.401 466.848 280.09 158.493 
468.741 282.135 159.582 487.535 283.097 159.358 487.706 283.459 159.381 
487.91 283.508 159.126 470.826 283.602 159.681 487.447 284.032 159.205 
473.738 284.694 159.806 477.504 285.562 160.157 479.973 285.688 159.979 
483.466 285.495 159.595 471.821 278.205 160.319 467.554 279.477 159.216 
469.518 278.932 160.161 470.425 278.884 160.471 480.931 279.206 160.443 
467.796 280.073 159.509 468.639 279.71 160.092 468.031 281.148 159.559 
486.479 282.654 160.166 487.119 283.078 159.827 470.238 283.12 160.281 
487.46 283.664 159.64 487.038 284.143 159.797 473.496 284.499 160.315 
486.147 284.81 159.672 477.868 285.464 160.625 480.502 285.531 160.497 
483.068 285.421 160.11 476.34 279.003 161.291 470.219 280.104 160.971 
468.957 280.927 160.424 470.731 280.616 161.323 483.046 281.454 161.35 
485.082 282.164 160.868 469.56 282.46 160.404 485.287 282.616 160.957 
485.9 282.864 160.704 485.939 283.279 160.807 470.547 283.183 160.526 
470.697 283.042 160.772 486.165 283.546 160.684 471.018 283.335 160.614 
474.496 284.347 161.311 485.408 284.291 160.751 485.691 284.014 160.788 
476.408 285.014 161.182 483.781 284.92 160.767 484.106 284.622 160.981 
481.001 285.268 160.966 475.845 280.34 162.136 470.1 281.477 161.06 
473.96 281.288 162.323 474.694 281.153 162.37 471.569 281.921 161.628 
472.449 281.753 161.967 473.724 281.682 162.334 470.575 282.611 160.96 
473.084 282.355 162.109 481.715 282.707 162.156 473.058 282.835 161.963 
481.591 283.727 162.08 485.061 283.417 161.165 476.404 284.079 162.084 
477.058 284.558 161.844 477.962 284.14 162.266 480.641 284.499 161.845 
479.829 284.352 162.064 482.619 284.335 161.569 483.183 284.102 161.543 
478.422 284.403 162.114 478.616 284.824 161.703 479.738 284.827 161.65 
476.19 282.308 162.607 478.009 282.161 162.63 474.364 282.9 162.303 
475.155 282.957 162.423 481.239 282.892 162.301 474.88 283.46 162.156 
476.678 283.538 162.402 479.395 283.853 162.345 475.282 282.875 292.952 
478.562 282.316 292.687 479.188 283.057 292.756 476.435 283.375 292.874 
479.321 283.497 292.854 479.775 283.299 292.893 472.13 280.651 293.626 
471.306 281.382 293.814 470.642 281.469 294.119 472.931 281.456 293.328 
482.997 281.128 294.254 470.61 281.967 294.204 474.197 281.774 293.069 
483.419 282.191 293.889 470.903 282.265 294.118 470.994 282.515 294.197 
473.27 282.579 293.462 481.926 282.992 293.379 471.218 282.869 294.378 
471.761 283.302 294.482 484.429 283.509 293.912 473.32 283.641 294.098 
476.807 284.199 293.418 483.341 284.155 293.754 477.28 284.844 294.009 
480.724 284.854 293.763 484.557 284.549 294.19 474.49 279.354 293.874 
469.355 281.107 294.928 485.009 282.124 294.496 469.912 282.217 294.871 
469.696 282.408 295.263 471.158 283.418 295.146 472.597 283.902 294.802 
485.771 284.239 294.479 487.005 284.186 295.249 482.918 284.992 294.125 
485 284.748 294.482 486.174 284.601 294.965 481.236 285.49 294.725 
482.146 285.403 294.667 470.321 278.563 295.189 479.673 278.177 295.607 
468.607 279.017 295.638 467.801 279.517 296.029 468.118 280.58 295.774 
484.959 281.312 295.109 486.476 282.574 295.175 468.217 281.442 296.045 
487.33 283.523 295.399 487.62 283.547 295.669 487.677 283.423 295.877 
487.786 283.706 295.916 471.31 283.682 295.723 472.741 284.156 295.301 
487.518 283.961 295.69 476.644 285.329 295.151 485.352 284.903 294.809 
484.569 285.274 295.185 485.924 284.95 295.414 472.377 277.286 295.949 
468.396 278.153 296.423 466.998 278.764 296.907 466.808 279.074 297.03 
466.796 279.694 297.01 467.145 280.105 296.65 486.073 281.429 296.131 
468.129 281.768 296.637 468.646 282.372 296.944 487.759 283.443 296.247 
470.414 283.459 296.778 487.922 283.687 296.105 487.952 283.742 296.041 
487.966 283.752 296.109 471.872 284.021 296.349 487.667 283.957 296.062 
487.901 283.791 296.068 477.011 285.555 295.88 487.253 284.256 296.255 
477.592 285.663 296.022 482.591 285.642 295.848 485.017 285.259 295.617 
468.086 277.18 297.853 466.845 278.46 297.293 466.23 278.615 297.916 
482.911 278.687 296.996 486.558 281.621 296.832 467.11 281.038 297.451 
487.68 283.28 296.709 487.851 283.751 296.248 487.369 284.113 296.713 
475.339 285.065 296.98 486.121 284.904 296.167 485.707 285.041 296.324 
481.41 285.723 296.552 484.131 285.405 296.355 472.56 276.075 297.71 
475.07 275.532 298.685 467.04 277.501 298.139 478.937 276.365 298.155 
465.959 279.046 298.663 465.989 279.619 298.873 466.568 280.746 298.655 
466.931 281.235 298.646 487.228 282.675 297.495 487.631 283.365 297.045 
487.636 283.611 297.059 470.756 283.611 297.831 487.272 284.058 297.032 
487.49 283.678 297.262 475.269 275.167 299.835 469.507 276.209 298.717 
479.405 276.053 299.254 466.493 277.654 298.769 466.122 278.04 299.01 
483.282 278.054 298.934 485.969 280.754 298.612 466.074 280.179 299.842 
466.404 280.636 299.486 467.157 281.457 298.968 486.943 282.422 298.025 
469.13 282.647 299.053 487.408 283.17 297.42 486.656 283.367 298.282 
486.951 283.158 298.099 483.316 284.81 298.577 485.388 284.067 298.599 
486.018 283.669 298.589 467.544 276.536 300.066 468.731 275.95 300.458 
479.49 275.919 299.895 466.212 277.499 300.321 465.664 278.594 299.98 
465.885 279.756 300.384 486.047 281.434 299.266 486.296 282.679 299.035 
485.884 283.268 299.108 486.04 282.912 299.228 470.855 275.381 301.367 
473.45 275.123 301.285 474.349 275.086 301.232 478.359 275.385 300.915 
465.829 277.846 300.516 465.624 278.205 300.47 465.445 278.574 301.106 
484.864 279.686 300.251 465.747 279.276 301.146 466.504 280.397 301.077 
485.102 282.104 300.548 469.47 275.689 301.603 472.413 275.28 301.958 
480.108 276.014 301.309 465.475 278.585 301.437 465.511 278.817 301.267 
484.715 279.9 300.801 466.123 279.63 301.658 466.784 280.518 301.32 
469.205 281.564 301.558 484.411 281.764 301.306 483.359 282.097 301.674 
477.65 283.318 301.48 479.84 283.215 301.511 469.885 275.739 302.372 
472.176 275.484 302.565 479.347 275.734 301.92 479.388 275.867 302.269 
467.037 276.929 301.935 467.359 276.84 302.249 465.698 278.164 301.721 
482.473 277.696 301.901 465.563 278.45 301.665 466.36 279.42 302.373 
483.127 280.592 302.487 471.866 281.796 302.232 471.334 275.89 303.125 
472.864 275.677 303.087 474.685 275.625 303.095 478.355 275.705 302.533 
467.968 276.943 302.805 468.558 276.733 302.888 470.98 276.145 303.306 
466.265 278.042 302.474 481.815 277.772 302.744 466.434 278.207 302.689 
482.729 278.731 302.537 482.244 278.757 302.943 466.135 278.696 302.551 
466.082 278.873 302.485 467.129 279.666 302.662 467.379 279.476 302.897 
[...]
POINT_DATA 441
COLOR_SCALARS scalars 3
1 0.701961 0.85098 1 0.701961 0.85098 1 0.701961 0.85098 
1 0.701961 0.85098 1 0.701961 0.85098 
1 0.701961 0.85098 1 0.701961 0.85098 
1 0.701961 0.85098 1 0.701961 0.85098 
1 0.701961 0.85098 1 0.701961 0.85098 
1 0.701961 0.85098 1 0.701961 0.85098 
1 0.701961 0.85098 1 0.701961 0.85098 
1 0.701961 0.85098 1 0.701961 0.85098 
1 0.701961 0.85098 1 0.701961 0.85098 
1 0.701961 0.85098 1 0.701961 0.85098 
1 0.701961 0.85098 1 0.701961 0.85098 
1 0.701961 0.85098 1 0.701961 0.85098 
1 0.701961 0.85098 1 0.701961 0.85098 
1 0.701961 0.85098 1 0.701961 0.85098 
1 0.701961 0.85098 1 0.701961 0.85098 
1 0.701961 0.85098 1 0.701961 0.85098 
1 0.701961 0.85098 1 0.701961 0.85098 
1 0.701961 0.85098 1 0.701961 0.85098 
1 0.701961 0.85098 1 0.701961 0.85098 
1 0.701961 0.85098 1 0.701961 0.85098 
1 0.701961 0.85098 1 0.701961 0.85098 
1 0.701961 0.85098 1 0.701961 0.85098 
1 0.701961 0.85098 1 0.701961 0.85098 
1 0.701961 0.85098 1 0.701961 0.85098 
1 0.701961 0.85098 1 0.701961 0.85098 
1 0.701961 0.85098 1 0.701961 0.85098 
1 0.701961 0.85098 1 0.701961 0.85098 
1 0.701961 0.85098 1 0.701961 0.85098 
1 0.701961 0.85098 1 0.701961 0.85098 
1 0.701961 0.85098 1 0.701961 0.85098 
1 0.701961 0.85098 1 0.701961 0.85098 
1 0.701961 0.85098 1 0.701961 0.85098 
1 0.701961 0.85098 1 0.701961 0.85098 
1 0.701961 0.85098 1 0.701961 0.85098 
1 0.701961 0.85098 1 0.701961 0.85098 
1 0.701961 0.85098 1 0.701961 0.85098 
1 0.701961 0.85098 1 0.701961 0.85098 
1 0.701961 0.85098 1 0.701961 0.85098 
1 0.701961 0.85098 1 0.701961 0.85098 
1 0.701961 0.85098 1 0.701961 0.85098 
1 0.701961 0.85098 1 0.701961 0.85098 
1 0.701961 0.85098 1 0.701961 0.85098 
1 0.701961 0.85098 1 0.701961 0.85098 
1 0.701961 0.85098 1 0.701961 0.85098 
1 0.701961 0.85098 1 0.701961 0.85098 
1 0.701961 0.85098 1 0.701961 0.85098 
1 0.701961 0.85098 1 0.701961 0.85098 
1 0.701961 0.85098 1 0.701961 0.85098 
1 0.701961 0.85098 1 0.701961 0.85098 
1 0.701961 0.85098 1 0.701961 0.85098 
1 0.701961 0.85098 1 0.701961 0.85098 
1 0.701961 0.85098 1 0.701961 0.85098 
1 0.701961 0.85098 1 0.701961 0.85098 
1 0.701961 0.85098 1 0.701961 0.85098 
1 0.701961 0.85098 1 0.701961 0.85098 
1 0.701961 0.85098 1 0.701961 0.85098 
1 0.701961 0.85098 1 0.701961 0.85098 
1 0.701961 0.85098 1 0.701961 0.85098 
1 0.701961 0.85098 1 0.701961 0.85098 
1 0.701961 0.85098 1 0.701961 0.85098 
1 0.701961 0.85098 1 0.701961 0.85098 
1 0.701961 0.85098 1 0.701961 0.85098 
1 0.701961 0.85098 1 0.701961 0.85098 
1 0.701961 0.85098 1 0.701961 0.85098 
1 0.701961 0.85098 1 0.701961 0.85098 
1 0.701961 0.85098 1 0.701961 0.85098 
1 0.701961 0.85098 1 0.701961 0.85098 
1 0.701961 0.85098 1 0.701961 0.85098 
1 0.701961 0.85098 1 0.701961 0.85098 
1 0.701961 0.85098 1 0.701961 0.85098 
1 0.701961 0.85098 1 0.701961 0.85098 
1 0.701961 0.85098 1 0.701961 0.85098 
1 0.701961 0.85098 1 0.701961 0.85098 
1 0.701961 0.85098 1 0.701961 0.85098 
1 0.701961 0.85098 1 0.701961 0.85098 
1 0.701961 0.85098 1 0.701961 0.85098 
1 0.701961 0.85098 1 0.701961 0.85098 
1 0.701961 0.85098 1 0.701961 0.85098 
1 0.701961 0.85098 1 0.701961 0.85098 
1 0.701961 0.85098 1 0.701961 0.85098 
1 0.701961 0.85098 1 0.701961 0.85098 
1 0.701961 0.85098 1 0.701961 0.85098 
1 0.701961 0.85098 1 0.701961 0.85098 
1 0.701961 0.85098 1 0.701961 0.85098 
1 0.701961 0.85098 1 0.701961 0.85098 
1 0.701961 0.85098 1 0.701961 0.85098 
1 0.701961 0.85098 1 0.701961 0.85098 
1 0.701961 0.85098 1 0.701961 0.85098 
1 0.701961 0.85098 1 0.701961 0.85098 
1 0.701961 0.85098 1 0.701961 0.85098 
1 0.701961 0.85098 1 0.701961 0.85098 
1 0.701961 0.85098 1 0.701961 0.85098 
1 0.701961 0.85098 1 0.701961 0.85098 
1 0.701961 0.85098 1 0.701961 0.85098 
1 0.701961 0.85098 1 0.701961 0.85098 
1 0.701961 0.85098 1 0.701961 0.85098 
1 0.701961 0.85098 1 0.701961 0.85098 
1 0.701961 0.85098 1 0.701961 0.85098 
1 0.701961 0.85098 1 0.701961 0.85098 
1 0.701961 0.85098 1 0.701961 0.85098 
1 0.701961 0.85098 1 0.701961 0.85098 
1 0.701961 0.85098 1 0.701961 0.85098 
1 0.701961 0.85098 1 0.701961 0.85098 
1 0.701961 0.85098 1 0.701961 0.85098 
1 0.701961 0.85098 1 0.701961 0.85098 
1 0.701961 0.85098 1 0.701961 0.85098 
1 0.701961 0.85098 1 0.701961 0.85098 
1 0.701961 0.85098 1 0.701961 0.85098 
1 0.701961 0.85098 1 0.701961 0.85098 
1 0.701961 0.85098 1 0.701961 0.85098 
1 0.701961 0.85098 1 0.701961 0.85098 
1 0.701961 0.85098 1 0.701961 0.85098 
1 0.701961 0.85098 1 0.701961 0.85098 
1 0.701961 0.85098 1 0.701961 0.85098 
1 0.701961 0.85098 1 0.701961 0.85098 
1 0.701961 0.85098 1 0.701961 0.85098 
1 0.701961 0.85098 1 0.701961 0.85098 
1 0.701961 0.85098 1 0.701961 0.85098 
1 0.701961 0.85098 1 0.701961 0.85098 
1 0.701961 0.85098 1 0.701961 0.85098 
1 0.701961 0.85098 1 0.701961 0.85098 
1 0.701961 0.85098 1 0.701961 0.85098 
1 0.701961 0.85098 1 0.701961 0.85098 
1 0.701961 0.85098 1 0.701961 0.85098 
1 0.701961 0.85098 1 0.701961 0.85098 
1 0.701961 0.85098 1 0.701961 0.85098 
1 0.701961 0.85098 1 0.701961 0.85098 
1 0.701961 0.85098 1 0.701961 0.85098 
1 0.701961 0.85098 1 0.701961 0.85098 
1 0.701961 0.85098 1 0.701961 0.85098 
1 0.701961 0.85098 1 0.701961 0.85098 
1 0.701961 0.85098 1 0.701961 0.85098 
1 0.701961 0.85098 1 0.701961 0.85098 
1 0.701961 0.85098 1 0.701961 0.85098 
1 0.701961 0.85098 1 0.701961 0.85098 
1 0.701961 0.85098 1 0.701961 0.85098 
1 0.701961 0.85098 1 0.701961 0.85098 
1 0.701961 0.85098 1 0.701961 0.85098 
1 0.701961 0.85098 1 0.701961 0.85098 
1 0.701961 0.85098 1 0.701961 0.85098 
1 0.701961 0.85098 1 0.701961 0.85098 
1 0.701961 0.85098 1 0.701961 0.85098 
1 0.701961 0.85098 1 0.701961 0.85098 
1 0.701961 0.85098 1 0.701961 0.85098 
1 0.701961 0.85098 1 0.701961 0.85098 
1 0.701961 0.85098 1 0.701961 0.85098 
1 0.701961 0.85098 1 0.701961 0.85098 
1 0.701961 0.85098 1 0.701961 0.85098 
1 0.701961 0.85098 1 0.701961 0.85098 
1 0.701961 0.85098 1 0.701961 0.85098 
1 0.701961 0.85098 1 0.701961 0.85098 
1 0.701961 0.85098 1 0.701961 0.85098 
1 0.701961 0.85098 1 0.701961 0.85098 
1 0.701961 0.85098 1 0.701961 0.85098 
1 0.701961 0.85098 1 0.701961 0.85098 
1 0.701961 0.85098 1 0.701961 0.85098 
1 0.701961 0.85098 1 0.701961 0.85098 
1 0.701961 0.85098 1 0.701961 0.85098 
1 0.701961 0.85098 1 0.701961 0.85098 
1 0.701961 0.85098 1 0.701961 0.85098 
1 0.701961 0.85098 1 0.701961 0.85098 
1 0.701961 0.85098 1 0.701961 0.85098 
1 0.701961 0.85098 1 0.701961 0.85098 
1 0.701961 0.85098 1 0.701961 0.85098 
1 0.701961 0.85098 1 0.701961 0.85098 
1 0.701961 0.85098 1 0.701961 0.85098 
1 0.701961 0.85098 1 0.701961 0.85098 
1 0.701961 0.85098 1 0.701961 0.85098 
1 0.701961 0.85098 1 0.701961 0.85098 
1 0.701961 0.85098 1 0.701961 0.85098 
1 0.701961 0.85098 1 0.701961 0.85098 
1 0.701961 0.85098 1 0.701961 0.85098 
1 0.701961 0.85098 1 0.701961 0.85098 
1 0.701961 0.85098 1 0.701961 0.85098 
1 0.701961 0.85098 1 0.701961 0.85098 
1 0.701961 0.85098 1 0.701961 0.85098 
1 0.701961 0.85098 1 0.701961 0.85098 
1 0.701961 0.85098 1 0.701961 0.85098 
1 0.701961 0.85098 1 0.701961 0.85098 
1 0.701961 0.85098 1 0.701961 0.85098 
1 0.701961 0.85098 1 0.701961 0.85098 
1 0.701961 0.85098 1 0.701961 0.85098 
1 0.701961 0.85098 1 0.701961 0.85098 
1 0.701961 0.85098 1 0.701961 0.85098 
1 0.701961 0.85098 1 0.701961 0.85098 
1 0.701961 0.85098 1 0.701961 0.85098 
1 0.701961 0.85098 1 0.701961 0.85098 
1 0.701961 0.85098 1 0.701961 0.85098 
1 0.701961 0.85098 1 0.701961 0.85098 
1 0.701961 0.85098 1 0.701961 0.85098 
1 0.701961 0.85098 1 0.701961 0.85098 
1 0.701961 0.85098 1 0.701961 0.85098 
1 0.701961 0.85098 1 0.701961 0.85098 
1 0.701961 0.85098 1 0.701961 0.85098 
1 0.701961 0.85098 1 0.701961 0.85098 
1 0.701961 0.85098 1 0.701961 0.85098 
1 0.701961 0.85098 1 0.701961 0.85098 
1 0.701961 0.85098 1 0.701961 0.85098 
1 0.701961 0.85098 1 0.701961 0.85098 
1 0.701961 0.85098 1 0.701961 0.85098 
1 0.701961 0.85098 1 0.701961 0.85098 
1 0.701961 0.85098 1 0.701961 0.85098 
1 0.701961 0.85098 1 0.701961 0.85098 
1 0.701961 0.85098 1 0.701961 0.85098 
1 0.701961 0.85098 1 0.701961 0.85098 
1 0.701961 0.85098 1 0.701961 0.85098 
1 0.701961 0.85098 1 0.701961 0.85098 
1 0.701961 0.85098 1 0.701961 0.85098 
1 0.701961 0.85098 1 0.701961 0.85098 
1 0.701961 0.85098 1 0.701961 0.85098 
1 0.701961 0.85098 1 0.701961 0.85098 
1 0.701961 0.85098 1 0.701961 0.85098 
1 0.701961 0.85098 1 0.701961 0.85098 
1 0.701961 0.85098 1 0.701961 0.85098 
1 0.701961 0.85098 1 0.701961 0.85098 
1 0.701961 0.85098 1 0.701961 0.85098 
1 0.701961 0.85098 1 0.701961 0.85098 
1 0.701961 0.85098 1 0.701961 0.85098 
1 0.701961 0.85098 1 0.701961 0.85098 
1 0.701961 0.85098 1 0.701961 0.85098 

NORMALS Normals float
-0.0478895 -0.321253 -0.945782 0.128583 -0.350063 -0.927859 -0.0492796 0.00552063 -0.99877 
0.141503 -0.817754 -0.557903 -0.131698 -0.540814 -0.830768 -0.358426 -0.47804 -0.801878 
-0.147186 -0.478558 -0.865632 -0.0819215 -0.667295 -0.740274 -0.0693435 -0.494465 -0.866427 
0.229307 -0.479086 -0.847287 -0.371821 -0.508624 -0.776563 -0.37929 -0.0226203 -0.925001 
-0.102022 -0.287842 -0.952228 0.235016 -0.353347 -0.905491 0.252701 -0.451726 -0.85562 
0.553985 -0.406013 -0.726811 -0.377794 -0.209638 -0.901845 -0.618012 -0.230405 -0.751648 
-0.217505 -0.104338 -0.970466 -0.226721 -0.0592769 -0.972154 0.187861 -0.213215 -0.958774 
0.243912 -0.261535 -0.933866 -0.499403 -0.00921176 -0.866321 -0.46339 0.164031 -0.870841 
-0.227912 0.24466 -0.942442 -0.177354 0.124953 -0.976183 0.0961864 0.0179162 -0.995202 
0.431795 -0.0847007 -0.897986 -0.194215 0.41254 -0.889995 -0.0285356 0.365377 -0.930422 
0.165374 -0.0608382 -0.984353 0.306583 0.144371 -0.940831 -0.287086 0.39598 -0.872228 
-0.0453439 0.490804 -0.870089 -0.119869 -0.921921 -0.368365 -0.202766 -0.80465 -0.558053 
-0.0534903 -0.873048 -0.484692 0.244866 -0.760609 -0.601261 0.232805 -0.939519 -0.25121 
0.402969 -0.694758 -0.595758 0.499281 -0.805323 -0.319646 -0.58939 -0.718107 -0.370056 
-0.608562 -0.429285 -0.667358 -0.49333 -0.629966 -0.599807 0.627746 -0.57835 -0.521005 
0.502134 -0.108504 -0.857956 0.613015 -0.300658 -0.730628 -0.691505 0.00363119 -0.722363 
0.652085 -0.125822 -0.747633 -0.524737 0.526811 -0.668671 0.481127 0.0510514 -0.875163 
-0.170473 0.590571 -0.788774 0.132002 0.457581 -0.879315 0.306531 0.319487 -0.896642 
-0.275173 -0.871403 -0.406123 -0.49465 -0.817269 -0.295623 0.364905 -0.908248 -0.20477 
-0.745003 -0.485501 -0.457448 -0.817485 -0.545156 -0.185801 -0.939518 -0.214539 -0.266982 
0.710011 -0.560286 -0.426573 -0.81691 0.0799607 -0.571195 0.663929 -0.145023 -0.733599 
0.810395 -0.371449 -0.453084 0.605498 0.0633425 -0.793322 -0.409479 0.797722 -0.442681 
0.418261 0.331131 -0.845819 0.511555 0.370313 -0.775358 0.667475 0.215962 -0.712627 
0.0615984 0.711359 -0.700124 -0.26797 -0.963282 -0.0167151 -0.160007 -0.985907 -0.0488436 
0.079954 -0.991932 -0.09838 0.518286 -0.854755 0.0277918 -0.641061 -0.76573 0.0519363 
0.618056 -0.766722 -0.173619 -0.873502 0.292016 -0.389514 -0.996697 -0.0373058 -0.0721354 
-0.205417 0.813915 -0.543458 -0.37225 0.858292 -0.353222 -0.156692 0.815394 -0.557297 
0.329737 0.623469 -0.708915 -0.159189 -0.982747 -0.0941695 -0.436287 -0.897108 0.0696472 
0.342493 -0.93554 0.0863915 -0.843266 -0.530125 0.0887134 -0.884482 -0.403248 0.234697 
-0.975462 0.216533 0.0398533 -0.735793 0.634079 -0.23781 0.841356 -0.0784269 -0.534761 
-0.193674 0.847879 -0.49355 0.396522 0.650647 -0.647634 0.104823 -0.958451 0.265298 
-0.583932 -0.774908 0.241952 0.65559 -0.754361 0.033799 0.894478 -0.384423 -0.228315 
0.931596 -0.167476 -0.322616 -0.542527 0.78302 -0.304212 0.673322 0.368805 -0.640797 
-0.25775 -0.893216 0.368416 0.193135 -0.946353 0.259065 -0.79974 -0.480141 0.36039 
-0.973094 0.171463 0.153913 0.848745 -0.528265 -0.0238303 -0.49858 0.860351 -0.105894 
-0.346519 0.921279 -0.176548 0.728903 0.343288 -0.592329 -0.159757 0.945512 -0.283698 
0.424106 0.768414 -0.479244 -0.0458561 -0.899596 0.43431 -0.427556 -0.763507 0.483997 
-0.906774 -0.166281 0.387441 -0.732978 -0.445177 0.514354 -0.950243 0.289533 0.114926 
0.518231 -0.747832 0.41495 -0.864017 0.503111 -0.0188421 -0.717598 0.691443 -0.0834228 
0.838057 -0.528523 -0.135364 0.852413 0.170071 -0.494437 0.0363555 0.968669 -0.245681 
0.0423017 0.999099 -0.00332027 0.0882637 0.971887 -0.218278 0.345869 -0.812213 0.469771 
-0.899058 -0.0413487 0.435872 -0.808281 -0.151986 0.568843 -0.859853 0.281308 0.42605 
-0.777726 0.452663 0.436163 -0.730436 0.608404 0.310337 -0.597473 0.795148 0.103758 
0.903009 -0.32966 -0.275498 0.846055 -0.428409 0.317265 0.890865 0.311478 -0.330668 
0.983734 0.137248 0.115889 -0.33349 0.939475 -0.0785529 0.638746 0.768862 -0.0292314 
0.370152 0.916845 -0.14961 0.146495 -0.840741 0.521243 -0.522821 -0.440501 0.729806 
-0.391988 -0.603208 0.694612 -0.776827 -0.0902141 0.623218 -0.787193 0.1752 0.591298 
-0.674614 0.593659 0.438708 0.680639 -0.602212 0.417219 0.771612 0.24223 0.588166 
0.784601 0.327247 0.526604 -0.484957 0.860687 0.155031 0.664599 0.723619 0.186236 
-0.276861 0.948344 0.154892 -0.142668 0.983674 0.109686 0.0320621 0.996863 0.072357 
0.175041 0.968224 0.178613 -0.180007 -0.580789 0.793903 -0.601557 -0.190624 0.775753 
-0.334631 -0.521412 0.784953 -0.267046 -0.454362 0.849848 0.270439 -0.606764 0.747462 
-0.58989 -0.161973 0.791072 -0.487812 -0.319912 0.812217 -0.720851 0.389793 0.573093 
0.579958 -0.45034 0.678854 0.640038 -0.257743 0.723823 -0.597025 0.66082 0.454838 
0.674775 0.0224901 0.737681 0.632554 0.552595 0.542692 -0.299083 0.903762 0.306208 
0.395183 0.811669 0.430144 -0.0036323 0.94148 0.337049 0.101203 0.913046 0.395101 
0.110024 0.892285 0.43786 -0.0194725 -0.64334 0.765332 -0.345538 -0.265313 0.900118 
-0.590603 0.110092 0.799417 -0.251459 -0.12325 0.959988 0.389696 -0.554818 0.735061 
0.401226 -0.614294 0.679456 -0.642145 0.528273 0.555498 0.391296 -0.313276 0.865301 
0.515659 -0.26885 0.81352 0.447902 -0.0518694 0.892577 -0.440446 0.755843 0.484468 
-0.385012 0.534006 0.75273 0.58544 0.017453 0.810528 -0.331051 0.698299 0.634653 
-0.277615 0.743896 0.607905 0.326303 0.529129 0.783293 0.411309 0.389977 0.823858 
-0.201322 0.81876 0.537681 0.165148 0.806123 0.568235 0.259229 0.594291 0.761327 
0.123526 0.887132 0.444678 0.0490533 -0.416327 0.907891 -0.445105 0.097379 0.890168 
-0.1419 -0.266107 0.953442 -0.124745 -0.27568 0.953121 -0.257089 0.110808 0.960014 
-0.349021 0.0367807 0.936393 -0.209775 -0.0220889 0.9775 -0.34843 0.37475 0.859162 
-0.324584 0.223661 0.919033 0.241273 -0.149251 0.958912 -0.277906 0.384245 0.880411 
0.218184 0.243468 0.94505 0.298738 0.032469 0.953783 -0.204876 0.501238 0.840706 
-0.0796755 0.668679 0.73927 -0.0539426 0.556048 0.829398 0.0968101 0.566211 0.818555 
0.0147056 0.560865 0.827777 0.240561 0.525564 0.816035 0.178113 0.503486 0.845445 
0.0275865 0.474548 0.879797 -0.0349183 0.749932 0.660593 0.0164353 0.711917 0.702071 
-0.07835 0.115462 0.990217 0.0689625 -0.0149364 0.997507 -0.17704 0.225266 0.958077 
-0.0429468 0.336349 0.940758 0.153695 0.10402 0.982628 -0.143793 0.529163 0.836248 
-0.118588 0.340353 0.93279 0.053948 0.423452 0.904311 -0.235036 0.30986 -0.921273 
0.052617 -0.108829 -0.992667 0.0764475 0.101323 -0.991912 -0.114791 0.354053 -0.928154 
0.0503754 0.386246 -0.921019 0.234345 0.0945674 -0.967543 -0.30132 -0.15953 -0.940083 
-0.311494 0.0288678 -0.94981 -0.483127 -0.0133729 -0.875448 -0.256965 -0.0452458 -0.965361 
0.300878 -0.50145 -0.811185 -0.651069 0.424144 -0.629452 -0.140996 0.0573756 -0.988346 
0.300313 -0.248508 -0.920899 -0.37994 0.261561 -0.88726 -0.337293 0.468451 -0.81657 
-0.258547 0.297215 -0.919139 0.231632 -0.0506604 -0.971484 -0.602786 0.635045 -0.48308 
-0.286851 0.772159 -0.566998 0.362926 -0.105585 -0.925817 -0.227969 0.645004 -0.729384 
-0.209732 0.70456 -0.677944 0.157126 0.334491 -0.929208 -0.0563507 0.85653 -0.513011 
-0.0856348 0.762448 -0.641358 0.193155 0.5026 -0.842665 0.011993 -0.570176 -0.821435 
-0.613464 0.149723 -0.7754 0.404476 -0.46769 -0.785917 -0.600494 0.395835 -0.694782 
-0.620457 0.57693 -0.53121 -0.49285 0.738478 -0.460162 -0.169451 0.714406 -0.678904 
0.403604 0.414573 -0.815619 0.628215 0.355826 -0.691906 0.156103 0.780443 -0.605426 
0.187835 0.723644 -0.664121 0.472607 0.7917 -0.387109 -0.24537 0.931141 -0.26976 
0.0844609 0.930173 -0.357273 -0.286925 -0.565289 -0.773384 0.229 -0.777978 -0.585072 
-0.475754 -0.275519 -0.835313 -0.600508 -0.201794 -0.773737 -0.616636 0.134869 -0.77561 
0.455506 -0.678472 -0.57636 0.583528 -0.503884 -0.636864 -0.678024 0.499801 -0.538965 
0.611078 -0.411236 -0.676364 0.766476 -0.185425 -0.614924 0.628352 -0.706809 -0.324954 
0.771266 0.0548992 -0.634141 -0.330273 0.917885 -0.220015 -0.308972 0.895323 -0.320832 
0.6198 0.717604 -0.317636 -0.243373 0.911085 -0.332708 0.333977 0.803138 -0.493384 
0.162272 0.938142 -0.305871 0.380684 0.876395 -0.294978 -0.0970472 -0.774159 -0.625507 
-0.428576 -0.59666 -0.678468 -0.614431 -0.32748 -0.717796 -0.745769 -0.167628 -0.644771 
-0.826873 0.132152 -0.546642 -0.761733 0.210123 -0.612872 0.631242 -0.665726 -0.397922 
-0.701286 0.584921 -0.40751 -0.593987 0.782114 -0.188352 0.777989 -0.628028 0.0177287 
-0.485821 0.857651 -0.168563 0.779819 -0.625758 0.0175943 0.851451 0.0550677 -0.521535 
0.949465 0.235647 0.207331 -0.338156 0.927572 -0.158934 0.632097 0.762079 -0.140321 
0.509552 0.835598 -0.20526 -0.139001 0.973481 -0.181695 0.515186 0.855369 0.0541074 
-0.0650198 0.984753 0.161352 0.125965 0.99017 -0.0607943 0.263224 0.96461 -0.0155427 
-0.345323 -0.767756 -0.539724 -0.602297 -0.509148 -0.614822 -0.864317 -0.230486 -0.447025 
0.35576 -0.747596 -0.560834 0.791785 -0.601312 -0.107237 -0.756477 0.590195 -0.281805 
0.886562 -0.462603 -0.00239701 0.822411 0.424272 0.378989 0.608939 0.755449 0.241846 
-0.246997 0.96338 0.104365 0.490904 0.866529 0.0902292 0.305077 0.934335 0.184246 
-0.0925922 0.994641 -0.0460083 0.201392 0.969522 0.139526 -0.0100533 -0.862562 -0.505852 
-0.0819861 -0.92689 -0.366269 -0.532923 -0.714888 -0.45269 0.16865 -0.914556 -0.367619 
-0.944434 0.142328 -0.296289 -0.92208 0.314953 -0.224884 -0.861774 0.440061 -0.252372 
-0.664635 0.735699 -0.130412 0.887312 -0.366316 0.280159 0.920338 -0.289496 0.263002 
0.918353 0.200041 0.341485 -0.341378 0.926317 0.159369 0.455059 0.749176 0.481308 
0.506497 0.418641 0.753791 0.0288774 -0.974131 -0.224131 -0.218376 -0.902346 -0.371596 
0.333154 -0.906076 -0.260834 -0.706454 -0.667609 -0.234994 -0.824165 -0.536551 -0.181287 
0.541802 -0.810598 -0.222221 0.808536 -0.579656 0.101332 -0.886455 0.452568 0.0968526 
-0.786893 0.615287 0.0471187 -0.60531 0.769844 0.202334 0.824116 -0.124006 0.55268 
-0.45516 0.882651 0.117288 0.745029 0.129796 0.654282 0.661439 0.43697 0.609553 
0.773444 0.0530686 0.631639 0.222019 0.862881 0.454031 0.401867 0.740505 0.538661 
0.448309 0.670539 0.591097 -0.474309 -0.875512 -0.0922503 -0.343333 -0.936265 -0.0743685 
0.267209 -0.947818 -0.173895 -0.713579 -0.690231 -0.119946 -0.966664 -0.123032 -0.224554 
-0.859606 0.501278 0.098985 0.806348 -0.144787 0.573445 0.752649 0.25408 0.607423 
0.527149 0.595211 0.606497 0.714883 0.25985 0.649168 -0.160453 -0.983587 0.0825339 
-0.0861925 -0.99384 0.069666 0.0191563 -0.99594 0.0879541 0.177583 -0.982973 -0.0472115 
-0.758451 -0.650027 -0.0470812 -0.898335 -0.387032 -0.207847 -0.977674 -0.210124 -0.00142841 
0.760625 -0.583364 0.284843 -0.868671 0.444015 0.219686 -0.723982 0.649019 0.233718 
0.478668 0.516569 0.709953 -0.289093 -0.956816 0.0304658 -0.0998617 -0.990798 0.0913612 
0.51131 -0.859218 0.0175038 -0.954695 0.11042 0.276341 -0.886336 0.427276 0.178449 
0.805876 -0.260542 0.531678 -0.750315 0.554804 0.359474 -0.395181 0.781423 0.482917 
-0.341925 0.791953 0.505864 0.665954 0.120009 0.736277 0.314583 0.592245 0.741811 
-0.0467155 0.813112 0.580229 0.0800397 0.712604 0.696986 -0.260676 -0.841212 0.47372 
-0.122891 -0.944341 0.305152 0.319824 -0.938171 0.132467 0.408141 -0.810659 0.419825 
-0.600607 -0.769265 0.217951 -0.457273 -0.790925 0.406618 -0.813834 -0.525042 0.249008 