# vtk DataFile Version 4.2
vtk output
ASCII
DATASET POLYDATA
POINTS 1828 float
213.168 145.393 190.589 212.829 146.572 190.33 210.511 147.702 190.228 
212.018 148.235 190.112 213.375 148.647 190.465 209.492 152.384 189.768 
211.575 153.488 190.071 209.713 156.798 189.733 211.232 156.405 190.116 
207.88 159.817 189.695 210.985 160.121 190.387 215.64 140.137 191.937 
217.076 139.748 192.149 217.605 139.581 192.291 216.299 140.794 191.787 
217.918 140.531 192.487 215.197 142.328 191.426 216.406 141.859 191.743 
216.391 142.674 191.819 217.051 142.667 192.267 214.748 144.027 191.187 
209.067 145.888 191.23 216.054 144.665 191.918 209.183 148.048 190.419 
214.594 148.791 191.326 215.409 148.063 192.117 213.766 150.024 190.848 
204.801 151.467 190.839 214.06 151.756 191.417 214.497 152.041 192.04 
212.463 156.832 190.845 211.512 160.907 190.793 208.903 162.957 190.167 
212.444 162.153 191.836 198.308 165.442 190.575 208.12 166.289 190.779 
211.06 165.739 191.875 194.186 169.242 191.24 205.063 168.633 191.486 
208.322 168.019 191.517 201.579 169.634 191.455 207.73 168.57 191.902 
218.635 137.648 193.203 218.836 137.638 193.295 216.828 138.34 192.753 
218.549 138.49 192.886 218.905 138.39 193.13 215.294 139.253 192.501 
218.886 139.461 193.184 213.435 140.965 192.08 218.159 141.059 192.872 
218.602 140.602 193.246 210.294 143.095 192.265 217.247 143.255 192.712 
216.463 144.679 192.299 216.056 146.95 192.778 215.064 150.404 192.402 
215.086 150.97 192.738 214.699 152.825 192.746 197.272 158.343 191.498 
213.393 159.565 192.426 211.469 165.815 192.351 208.385 168.355 191.835 
209.373 168.317 192.323 196.86 170.614 191.479 201.985 170.164 191.928 
209.094 168.55 192.482 191.472 171.52 192.308 192.145 172.064 192.495 
195.919 172.15 192.506 197.524 171.944 192.727 193.443 172.558 192.712 
218.186 136.939 193.685 219.204 137.022 193.937 219.12 137.487 193.595 
215.775 138.272 193.067 219.244 138.914 193.516 219.36 139.522 194.056 
218.258 141.91 193.687 216.657 145.321 192.945 216.146 147.847 193.672 
195.403 155.646 193.015 213.249 162.08 193.246 212.279 165.27 193.21 
186.521 169.388 192.876 206.061 169.859 193.399 186.227 172.155 193.115 
187.903 171.757 192.902 202.206 170.78 192.769 188.591 172.346 193.073 
184.053 173.583 193.55 195.37 172.604 192.975 184.21 174.072 193.632 
183.821 174.386 193.877 185.4 173.827 193.619 190.898 173.274 193.671 
184.121 174.522 193.686 184.699 174.399 193.804 219.066 136.029 194.67 
219.324 135.981 194.856 219.777 136.697 194.661 219.892 136.201 195.167 
220.062 136.62 195.169 213.3 139.219 193.582 219.016 140.659 194.455 
217.436 144.205 194.136 200.112 150.093 193.806 215.405 151.228 194.287 
213.773 161.011 194.205 213.235 163.179 194.352 211.779 166.759 194.014 
182.815 169.378 193.782 208.899 169.179 194.316 211.124 167.624 194.411 
182.258 173.534 193.972 192.423 173.635 194.37 181.574 174.263 194.4 
181.186 174.625 194.797 185.234 174.472 194.142 184.615 174.714 194.389 
186.004 174.213 194.06 181.49 174.729 194.549 184.393 174.556 193.987 
220.177 136.065 195.792 196.92 150.929 195.106 213.967 160.193 195.624 
179.998 168.489 194.831 210.092 168.708 195.538 179.529 171.319 194.549 
175.779 174.137 195.679 180.023 174.257 195.024 175.161 175.367 196.221 
181.934 174.91 194.869 181.407 175.133 195.396 175.801 175.581 196.271 
219.646 135.016 196.282 220.416 136.7 196.149 213.075 137.633 195.619 
219.548 139.678 196.281 216.172 148.502 195.797 215.349 151.652 196.008 
184.004 160.56 196.055 213.405 162.737 196.039 177.609 175.524 196.137 
172 178.009 196.017 172 178.009 196.017 172 178.009 196.017 
173.984 175.866 196.616 172 178.009 196.017 172 178.009 196.017 
220.596 135.356 197.282 220.627 136.45 197.588 189.504 154.24 197.139 
212.171 166.476 197.089 197.292 173.924 197.309 170.774 176.142 197.432 
169.908 176.519 197.681 172.585 175.735 196.991 177.243 176.121 196.689 
183.221 175.997 196.959 172.086 176.878 197.413 173.561 176.6 197.192 
169.68 177.89 197.794 170.256 177.855 197.748 171.031 177.803 197.756 
172 178.009 196.017 167.939 181.563 198.398 167.905 181.651 198.464 
168.031 181.509 198.423 167.957 181.611 198.413 219.894 133.082 198.561 
220.636 133.368 198.817 215.189 151.13 198.088 177.969 164.559 197.499 
211.664 167.233 198.368 210.799 168.452 197.918 211.232 167.935 198.23 
170.773 172.596 198.027 195.198 174.9 198.047 168.679 175.949 198.37 
168.651 176.68 198.218 167.826 177.976 198.499 167.921 178.752 198.383 
168.339 179.387 198.247 168.501 181.002 198.537 167.648 181.287 198.593 
167.262 181.732 198.863 168.238 181.49 198.599 167.531 181.816 198.713 
167.425 182.03 198.837 167.824 181.826 198.712 167.588 181.939 198.715 
167.983 181.637 198.493 167.508 181.979 198.741 220.481 132.971 199.113 
220.992 134.417 199.075 220.831 135.638 199.472 212.959 163.49 198.336 
171.895 168.74 199.618 211.144 168.15 199.142 169.318 173.606 198.789 
176.655 177.489 198.094 165.101 182.053 199.884 166.589 181.698 199.201 
164.662 183.238 199.952 167.353 182.478 199.201 166.85 183.317 199.557 
163.65 183.621 200.434 165.825 183.806 199.705 163.102 185.368 200.46 
164.37 184.884 199.957 165.475 184.778 199.88 163.044 186.44 200.331 
165.226 186.414 200.172 163.493 187.676 200.117 163.187 187.979 200.209 
163.626 188.633 200.216 223 131.009 200.017 223 131.009 200.017 
223 131.009 200.017 223 131.009 200.017 223 131.009 200.017 
210.432 168.821 199.754 210.814 168.661 199.557 210.793 168.674 199.675 
210.902 168.606 199.622 166.518 176.794 200.263 182.61 177.586 198.95 
181.419 178.23 199.439 163.842 182.4 200.72 162.841 184.475 200.937 
162.632 185.245 200.828 166.398 185.749 200.39 162.534 187.017 200.594 
162.09 188.656 200.897 162.205 189.35 200.876 162.644 189.754 200.684 
162.629 190.324 200.791 163.633 190.295 200.588 163.133 190.955 200.798 
163.995 190.887 200.697 164.036 191.069 200.797 223 131.009 200.017 
221.107 133.183 200.803 220.416 136.215 200.873 172.793 166.456 201.233 
210.992 168.105 200.187 210.896 168.508 199.739 209.295 169.674 200.818 
193.556 177.251 200.716 188.52 178.288 200.553 162.472 184.407 201.406 
162.31 184.205 201.839 161.769 186.346 201.44 161.831 188.985 201.158 
164.849 189.808 200.866 161.712 191.463 201.669 164.393 191.348 201.102 
162.424 192.23 201.502 162.881 192.102 201.34 217.495 131.272 201.902 
218.753 130.932 202.352 221.159 132.762 202.406 211.592 164.079 202.219 
210.511 167.941 202.149 169.129 170.742 202.471 192.585 178.458 201.749 
173.504 182.75 201.607 161.401 185.962 202.424 168.056 185.718 201.256 
164.94 191.729 201.503 221.13 132.079 203.029 197.017 143.14 203.028 
213.952 150.278 203.109 181.884 155.599 202.874 210.751 165.872 203.251 
208.752 170.053 202.633 209.374 169.586 202.314 209.252 169.745 202.462 
202.733 174.172 202.126 191.217 180.55 203.381 170.943 184.505 201.914 
167.004 197.013 203.009 167.004 197.013 203.009 167.004 197.013 203.009 
167.004 197.013 203.009 167.004 197.013 203.009 221.075 133.092 203.91 
209.32 169.26 203.191 168.938 170.612 204.193 207.056 171.698 203.583 
172.678 186.208 203.541 158.82 193.338 204.528 167.004 197.013 203.009 
219.616 129.355 204.968 223 129.009 205.017 223 129.009 205.017 
223 129.009 205.017 223 129.009 205.017 220.812 130.584 204.283 
220.621 129.925 204.898 223 129.009 205.017 208.038 170.423 205.335 
158.043 192.15 205.668 162.968 199.567 204.982 165.968 199.058 205.374 
165.027 199.888 205.405 220.146 128.781 206.032 223 129.009 205.017 
221.371 130.328 206.028 221.37 131.077 205.692 193.636 143.8 205.656 
211.548 154.355 205.733 181.208 154.921 205.287 206.861 172.429 205.857 
168.71 192.431 205.093 158.413 199.379 206.298 159.122 200.163 206.179 
166.156 198.989 205.471 166.723 200.593 206.293 222.656 127.686 208.619 
222.629 127.629 208.602 222.511 127.79 208.506 222.677 127.544 208.756 
221.565 129.222 207.056 222.625 127.78 208.707 221.553 130.651 207.402 
207.378 171.171 207.134 205.333 174.669 206.793 168.426 203.525 207.574 
170.981 205.071 208.16 171.019 205.036 208.169 171.088 205.081 208.212 
218.414 127.046 207.961 220.414 127.188 207.918 222.494 127.493 208.621 
222.639 127.202 209.043 221.595 128.186 207.636 222.179 127.794 208.273 
222.228 128.358 208.34 220.995 131.675 208.25 206.402 173.289 207.848 
205.739 174.358 207.168 206.017 174.061 207.744 194.04 183.013 207.127 
159.548 186.498 208.425 156.966 193.613 208.17 156.475 195.882 208.521 
168.905 196.046 206.825 156.363 199.073 208.741 170.21 204.349 208.153 
170.882 204.789 208.242 171.359 205.1 208.394 172.9 206.075 208.823 
170.448 206.358 208.344 225 126.009 209.017 225 126.009 209.017 
225 126.009 209.017 225 126.009 209.017 222.825 126.995 209.613 
225 126.009 209.017 221.883 129.779 208.878 179.538 155.163 209.054 
207.192 169.544 208.676 203.557 177.3 207.937 204.702 176.283 209.035 
157.424 191.486 209.24 156.084 199.383 209.514 156.655 201.957 208.754 
156.477 203.531 209.327 156.873 204.899 209.269 172.069 207.075 208.72 
158.148 207.339 209.228 171.418 208.587 209.024 179.272 208.504 210.335 
225 125.009 210.017 225 125.009 210.017 225 125.009 210.017 
225 125.009 210.017 222.185 126.098 209.706 222.51 125.615 210.355 
225 125.009 210.017 225 126.009 209.017 215.908 125.984 209.973 
222.996 127.129 210.237 206.193 172.201 209.821 205.886 173.798 209.609 
205.475 174.804 209.856 204.809 176.315 210.11 161.431 182.671 209.869 
156.026 198.608 210.048 172.967 198.038 209.362 155.759 200.531 210.271 
155.651 201.032 210.527 178.01 206.393 210.17 156.62 208.003 210.515 
157.167 208.907 210.393 160.635 209.749 209.696 158.574 209.896 210.189 
178.234 210.596 210.351 226 123.009 211.017 226 123.009 211.017 
226 123.009 211.017 226 123.009 211.017 223.836 123.538 212.396 
223.822 123.441 212.447 226 123.009 211.017 223.863 123.458 212.509 
222.643 124.627 211.205 223.755 123.659 212.391 225 125.009 210.017 
222.959 125.194 211.118 216.307 136.942 211.051 204.667 176.679 210.855 
201.081 181.325 210.08 158.146 189.942 210.543 179.832 193.137 209.757 
[...]
POINT_DATA 1828
COLOR_SCALARS scalars 3
0.564706 0.796078 0.929412 0.564706 0.796078 0.929412 0.564706 0.796078 0.929412 
0.564706 0.796078 0.929412 0.564706 0.796078 0.929412 
0.564706 0.796078 0.929412 0.564706 0.796078 0.929412 
0.564706 0.796078 0.929412 0.564706 0.796078 0.929412 
0.564706 0.796078 0.929412 0.564706 0.796078 0.929412 
0.564706 0.796078 0.929412 0.564706 0.796078 0.929412 
0.564706 0.796078 0.929412 0.564706 0.796078 0.929412 
0.564706 0.796078 0.929412 0.564706 0.796078 0.929412 
0.564706 0.796078 0.929412 0.564706 0.796078 0.929412 
0.564706 0.796078 0.929412 0.564706 0.796078 0.929412 
0.564706 0.796078 0.929412 0.564706 0.796078 0.929412 
0.564706 0.796078 0.929412 0.564706 0.796078 0.929412 
0.564706 0.796078 0.929412 0.564706 0.796078 0.929412 
0.564706 0.796078 0.929412 0.564706 0.796078 0.929412 
0.564706 0.796078 0.929412 0.564706 0.796078 0.929412 
0.564706 0.796078 0.929412 0.564706 0.796078 0.929412 
0.564706 0.796078 0.929412 0.564706 0.796078 0.929412 
0.564706 0.796078 0.929412 0.564706 0.796078 0.929412 
0.564706 0.796078 0.929412 0.564706 0.796078 0.929412 
0.564706 0.796078 0.929412 0.564706 0.796078 0.929412 
0.564706 0.796078 0.929412 0.564706 0.796078 0.929412 
0.564706 0.796078 0.929412 0.564706 0.796078 0.929412 
0.564706 0.796078 0.929412 0.564706 0.796078 0.929412 
0.564706 0.796078 0.929412 0.564706 0.796078 0.929412 
0.564706 0.796078 0.929412 0.564706 0.796078 0.929412 
0.564706 0.796078 0.929412 0.564706 0.796078 0.929412 
0.564706 0.796078 0.929412 0.564706 0.796078 0.929412 
0.564706 0.796078 0.929412 0.564706 0.796078 0.929412 
0.564706 0.796078 0.929412 0.564706 0.796078 0.929412 
0.564706 0.796078 0.929412 0.564706 0.796078 0.929412 
0.564706 0.796078 0.929412 0.564706 0.796078 0.929412 
0.564706 0.796078 0.929412 0.564706 0.796078 0.929412 
0.564706 0.796078 0.929412 0.564706 0.796078 0.929412 
0.564706 0.796078 0.929412 0.564706 0.796078 0.929412 
0.564706 0.796078 0.929412 0.564706 0.796078 0.929412 
0.564706 0.796078 0.929412 0.564706 0.796078 0.929412 
0.564706 0.796078 0.929412 0.564706 0.796078 0.929412 
0.564706 0.796078 0.929412 0.564706 0.796078 0.929412 
0.564706 0.796078 0.929412 0.564706 0.796078 0.929412 
0.564706 0.796078 0.929412 0.564706 0.796078 0.929412 
0.564706 0.796078 0.929412 0.564706 0.796078 0.929412 
0.564706 0.796078 0.929412 0.564706 0.796078 0.929412 
0.564706 0.796078 0.929412 0.564706 0.796078 0.929412 
0.564706 0.796078 0.929412 0.564706 0.796078 0.929412 
0.564706 0.796078 0.929412 0.564706 0.796078 0.929412 
0.564706 0.796078 0.929412 0.564706 0.796078 0.929412 
0.564706 0.796078 0.929412 0.564706 0.796078 0.929412 
0.564706 0.796078 0.929412 0.564706 0.796078 0.929412 
0.564706 0.796078 0.929412 0.564706 0.796078 0.929412 
0.564706 0.796078 0.929412 0.564706 0.796078 0.929412 
0.564706 0.796078 0.929412 0.564706 0.796078 0.929412 
0.564706 0.796078 0.929412 0.564706 0.796078 0.929412 
0.564706 0.796078 0.929412 0.564706 0.796078 0.929412 
0.564706 0.796078 0.929412 0.564706 0.796078 0.929412 
0.564706 0.796078 0.929412 0.564706 0.796078 0.929412 
0.564706 0.796078 0.929412 0.564706 0.796078 0.929412 
0.564706 0.796078 0.929412 0.564706 0.796078 0.929412 
0.564706 0.796078 0.929412 0.564706 0.796078 0.929412 
0.564706 0.796078 0.929412 0.564706 0.796078 0.929412 
0.564706 0.796078 0.929412 0.564706 0.796078 0.929412 
0.564706 0.796078 0.929412 0.564706 0.796078 0.929412 
0.564706 0.796078 0.929412 0.564706 0.796078 0.929412 
0.564706 0.796078 0.929412 0.564706 0.796078 0.929412 
0.564706 0.796078 0.929412 0.564706 0.796078 0.929412 
0.564706 0.796078 0.929412 0.564706 0.796078 0.929412 
0.564706 0.796078 0.929412 0.564706 0.796078 0.929412 
0.564706 0.796078 0.929412 0.564706 0.796078 0.929412 
0.564706 0.796078 0.929412 0.564706 0.796078 0.929412 
0.564706 0.796078 0.929412 0.564706 0.796078 0.929412 
0.564706 0.796078 0.929412 0.564706 0.796078 0.929412 
0.564706 0.796078 0.929412 0.564706 0.796078 0.929412 
0.564706 0.796078 0.929412 0.564706 0.796078 0.929412 
0.564706 0.796078 0.929412 0.564706 0.796078 0.929412 
0.564706 0.796078 0.929412 0.564706 0.796078 0.929412 
0.564706 0.796078 0.929412 0.564706 0.796078 0.929412 
0.564706 0.796078 0.929412 0.564706 0.796078 0.929412 
0.564706 0.796078 0.929412 0.564706 0.796078 0.929412 
0.564706 0.796078 0.929412 0.564706 0.796078 0.929412 
0.564706 0.796078 0.929412 0.564706 0.796078 0.929412 
0.564706 0.796078 0.929412 0.564706 0.796078 0.929412 
0.564706 0.796078 0.929412 0.564706 0.796078 0.929412 
0.564706 0.796078 0.929412 0.564706 0.796078 0.929412 
0.564706 0.796078 0.929412 0.564706 0.796078 0.929412 
0.564706 0.796078 0.929412 0.564706 0.796078 0.929412 
0.564706 0.796078 0.929412 0.564706 0.796078 0.929412 
0.564706 0.796078 0.929412 0.564706 0.796078 0.929412 
0.564706 0.796078 0.929412 0.564706 0.796078 0.929412 
0.564706 0.796078 0.929412 0.564706 0.796078 0.929412 
0.564706 0.796078 0.929412 0.564706 0.796078 0.929412 
0.564706 0.796078 0.929412 0.564706 0.796078 0.929412 
0.564706 0.796078 0.929412 0.564706 0.796078 0.929412 
0.564706 0.796078 0.929412 0.564706 0.796078 0.929412 
0.564706 0.796078 0.929412 0.564706 0.796078 0.929412 
0.564706 0.796078 0.929412 0.564706 0.796078 0.929412 
0.564706 0.796078 0.929412 0.564706 0.796078 0.929412 
0.564706 0.796078 0.929412 0.564706 0.796078 0.929412 
0.564706 0.796078 0.929412 0.564706 0.796078 0.929412 
0.564706 0.796078 0.929412 0.564706 0.796078 0.929412 
0.564706 0.796078 0.929412 0.564706 0.796078 0.929412 
0.564706 0.796078 0.929412 0.564706 0.796078 0.929412 
0.564706 0.796078 0.929412 0.564706 0.796078 0.929412 
0.564706 0.796078 0.929412 0.564706 0.796078 0.929412 
0.564706 0.796078 0.929412 0.564706 0.796078 0.929412 
0.564706 0.796078 0.929412 0.564706 0.796078 0.929412 
0.564706 0.796078 0.929412 0.564706 0.796078 0.929412 
0.564706 0.796078 0.929412 0.564706 0.796078 0.929412 
0.564706 0.796078 0.929412 0.564706 0.796078 0.929412 
0.564706 0.796078 0.929412 0.564706 0.796078 0.929412 
0.564706 0.796078 0.929412 0.564706 0.796078 0.929412 
0.564706 0.796078 0.929412 0.564706 0.796078 0.929412 
0.564706 0.796078 0.929412 0.564706 0.796078 0.929412 
0.564706 0.796078 0.929412 0.564706 0.796078 0.929412 
0.564706 0.796078 0.929412 0.564706 0.796078 0.929412 
0.564706 0.796078 0.929412 0.564706 0.796078 0.929412 
0.564706 0.796078 0.929412 0.564706 0.796078 0.929412 
0.564706 0.796078 0.929412 0.564706 0.796078 0.929412 
0.564706 0.796078 0.929412 0.564706 0.796078 0.929412 
0.564706 0.796078 0.929412 0.564706 0.796078 0.929412 
0.564706 0.796078 0.929412 0.564706 0.796078 0.929412 
0.564706 0.796078 0.929412 0.564706 0.796078 0.929412 
0.564706 0.796078 0.929412 0.564706 0.796078 0.929412 
0.564706 0.796078 0.929412 0.564706 0.796078 0.929412 
0.564706 0.796078 0.929412 0.564706 0.796078 0.929412 
0.564706 0.796078 0.929412 0.564706 0.796078 0.929412 
0.564706 0.796078 0.929412 0.564706 0.796078 0.929412 
0.564706 0.796078 0.929412 0.564706 0.796078 0.929412 
0.564706 0.796078 0.929412 0.564706 0.796078 0.929412 
0.564706 0.796078 0.929412 0.564706 0.796078 0.929412 
0.564706 0.796078 0.929412 0.564706 0.796078 0.929412 
0.564706 0.796078 0.929412 0.564706 0.796078 0.929412 
0.564706 0.796078 0.929412 0.564706 0.796078 0.929412 
0.564706 0.796078 0.929412 0.564706 0.796078 0.929412 
0.564706 0.796078 0.929412 0.564706 0.796078 0.929412 
0.564706 0.796078 0.929412 0.564706 0.796078 0.929412 
0.564706 0.796078 0.929412 0.564706 0.796078 0.929412 
0.564706 0.796078 0.929412 0.564706 0.796078 0.929412 
0.564706 0.796078 0.929412 0.564706 0.796078 0.929412 
0.564706 0.796078 0.929412 0.564706 0.796078 0.929412 
0.564706 0.796078 0.929412 0.564706 0.796078 0.929412 
0.564706 0.796078 0.929412 0.564706 0.796078 0.929412 
0.564706 0.796078 0.929412 0.564706 0.796078 0.929412 
0.564706 0.796078 0.929412 0.564706 0.796078 0.929412 
0.564706 0.796078 0.929412 0.564706 0.796078 0.929412 
0.564706 0.796078 0.929412 0.564706 0.796078 0.929412 
0.564706 0.796078 0.929412 0.564706 0.796078 0.929412 
0.564706 0.796078 0.929412 0.564706 0.796078 0.929412 
0.564706 0.796078 0.929412 0.564706 0.796078 0.929412 
0.564706 0.796078 0.929412 0.564706 0.796078 0.929412 
0.564706 0.796078 0.929412 0.564706 0.796078 0.929412 
0.564706 0.796078 0.929412 0.564706 0.796078 0.929412 
0.564706 0.796078 0.929412 0.564706 0.796078 0.929412 
0.564706 0.796078 0.929412 0.564706 0.796078 0.929412 
0.564706 0.796078 0.929412 0.564706 0.796078 0.929412 
0.564706 0.796078 0.929412 0.564706 0.796078 0.929412 
0.564706 0.796078 0.929412 0.564706 0.796078 0.929412 
0.564706 0.796078 0.929412 0.564706 0.796078 0.929412 
0.564706 0.796078 0.929412 0.564706 0.796078 0.929412 
0.564706 0.796078 0.929412 0.564706 0.796078 0.929412 
0.564706 0.796078 0.929412 0.564706 0.796078 0.929412 
0.564706 0.796078 0.929412 0.564706 0.796078 0.929412 
0.564706 0.796078 0.929412 0.564706 0.796078 0.929412 
0.564706 0.796078 0.929412 0.564706 0.796078 0.929412 
0.564706 0.796078 0.929412 0.564706 0.796078 0.929412 
0.564706 0.796078 0.929412 0.564706 0.796078 0.929412 
0.564706 0.796078 0.929412 0.564706 0.796078 0.929412 
0.564706 0.796078 0.929412 0.564706 0.796078 0.929412 
0.564706 0.796078 0.929412 0.564706 0.796078 0.929412 
0.564706 0.796078 0.929412 0.564706 0.796078 0.929412 
0.564706 0.796078 0.929412 0.564706 0.796078 0.929412 
0.564706 0.796078 0.929412 0.564706 0.796078 0.929412 
0.564706 0.796078 0.929412 0.564706 0.796078 0.929412 
0.564706 0.796078 0.929412 0.564706 0.796078 0.929412 
0.564706 0.796078 0.929412 0.564706 0.796078 0.929412 
0.564706 0.796078 0.929412 0.564706 0.796078 0.929412 
0.564706 0.796078 0.929412 0.564706 0.796078 0.929412 
0.564706 0.796078 0.929412 0.564706 0.796078 0.929412 
0.564706 0.796078 0.929412 0.564706 0.796078 0.929412 
0.564706 0.796078 0.929412 0.564706 0.796078 0.929412 
0.564706 0.796078 0.929412 0.564706 0.796078 0.929412 
0.564706 0.796078 0.929412 0.564706 0.796078 0.929412 
0.564706 0.796078 0.929412 0.564706 0.796078 0.929412 
0.564706 0.796078 0.929412 0.564706 0.796078 0.929412 
0.564706 0.796078 0.929412 0.564706 0.796078 0.929412 
0.564706 0.796078 0.929412 0.564706 0.796078 0.929412 
0.564706 0.796078 0.929412 0.564706 0.796078 0.929412 
0.564706 0.796078 0.929412 0.564706 0.796078 0.929412 
0.564706 0.796078 0.929412 0.564706 0.796078 0.929412 
0.564706 0.796078 0.929412 0.564706 0.796078 0.929412 
0.564706 0.796078 0.929412 0.564706 0.796078 0.929412 
0.564706 0.796078 0.929412 0.564706 0.796078 0.929412 
0.564706 0.796078 0.929412 0.564706 0.796078 0.929412 
0.564706 0.796078 0.929412 0.564706 0.796078 0.929412 
0.564706 0.796078 0.929412 0.564706 0.796078 0.929412 
0.564706 0.796078 0.929412 0.564706 0.796078 0.929412 
0.564706 0.796078 0.929412 0.564706 0.796078 0.929412 
0.564706 0.796078 0.929412 0.564706 0.796078 0.929412 
0.564706 0.796078 0.929412 0.564706 0.796078 0.929412 
0.564706 0.796078 0.929412 0.564706 0.796078 0.929412 
0.564706 0.796078 0.929412 0.564706 0.796078 0.929412 
0.564706 0.796078 0.929412 0.564706 0.796078 0.929412 
0.564706 0.796078 0.929412 0.564706 0.796078 0.929412 
0.564706 0.796078 0.929412 0.564706 0.796078 0.929412 
0.564706 0.796078 0.929412 0.564706 0.796078 0.929412 
0.564706 0.796078 0.929412 0.564706 0.796078 0.929412 
0.564706 0.796078 0.929412 0.564706 0.796078 0.929412 
0.564706 0.796078 0.929412 0.564706 0.796078 0.929412 
0.564706 0.796078 0.929412 0.564706 0.796078 0.929412 
0.564706 0.796078 0.929412 0.564706 0.796078 0.929412 
0.564706 0.796078 0.929412 0.564706 0.796078 0.929412 
0.564706 0.796078 0.929412 0.564706 0.796078 0.929412 
0.564706 0.796078 0.929412 0.564706 0.796078 0.929412 
0.564706 0.796078 0.929412 0.564706 0.796078 0.929412 
0.564706 0.796078 0.929412 0.564706 0.796078 0.929412 
0.564706 0.796078 0.929412 0.564706 0.796078 0.929412 
0.564706 0.796078 0.929412 0.564706 0.796078 0.929412 
0.564706 0.796078 0.929412 0.564706 0.796078 0.929412 
0.564706 0.796078 0.929412 0.564706 0.796078 0.929412 
0.564706 0.796078 0.929412 0.564706 0.796078 0.929412 
0.564706 0.796078 0.929412 0.564706 0.796078 0.929412 
0.564706 0.796078 0.929412 0.564706 0.796078 0.929412 
0.564706 0.796078 0.929412 0.564706 0.796078 0.929412 
0.564706 0.796078 0.929412 0.564706 0.796078 0.929412 
0.564706 0.796078 0.929412 0.564706 0.796078 0.929412 
0.564706 0.796078 0.929412 0.564706 0.796078 0.929412 
0.564706 0.796078 0.929412 0.564706 0.796078 0.929412 
0.564706 0.796078 0.929412 0.564706 0.796078 0.929412 
0.564706 0.796078 0.929412 0.564706 0.796078 0.929412 
0.564706 0.796078 0.929412 0.564706 0.796078 0.929412 
0.564706 0.796078 0.929412 0.564706 0.796078 0.929412 
0.564706 0.796078 0.929412 0.564706 0.796078 0.929412 
0.564706 0.796078 0.929412 0.564706 0.796078 0.929412 
0.564706 0.796078 0.929412 0.564706 0.796078 0.929412 
0.564706 0.796078 0.929412 0.564706 0.796078 0.929412 
0.564706 0.796078 0.929412 0.564706 0.796078 0.929412 
0.564706 0.796078 0.929412 0.564706 0.796078 0.929412 
0.564706 0.796078 0.929412 0.564706 0.796078 0.929412 
0.564706 0.796078 0.929412 0.564706 0.796078 0.929412 
0.564706 0.796078 0.929412 0.564706 0.796078 0.929412 
0.564706 0.796078 0.929412 0.564706 0.796078 0.929412 
0.564706 0.796078 0.929412 0.564706 0.796078 0.929412 
0.564706 0.796078 0.929412 0.564706 0.796078 0.929412 
0.564706 0.796078 0.929412 0.564706 0.796078 0.929412 
0.564706 0.796078 0.929412 0.564706 0.796078 0.929412 
0.564706 0.796078 0.929412 0.564706 0.796078 0.929412 
0.564706 0.796078 0.929412 0.564706 0.796078 0.929412 
0.564706 0.796078 0.929412 0.564706 0.796078 0.929412 
0.564706 0.796078 0.929412 0.564706 0.796078 0.929412 
0.564706 0.796078 0.929412 0.564706 0.796078 0.929412 
0.564706 0.796078 0.929412 0.564706 0.796078 0.929412 
0.564706 0.796078 0.929412 0.564706 0.796078 0.929412 
0.564706 0.796078 0.929412 0.564706 0.796078 0.929412 
0.564706 0.796078 0.929412 0.564706 0.796078 0.929412 
0.564706 0.796078 0.929412 0.564706 0.796078 0.929412 
0.564706 0.796078 0.929412 0.564706 0.796078 0.929412 
0.564706 0.796078 0.929412 0.564706 0.796078 0.929412 
0.564706 0.796078 0.929412 0.564706 0.796078 0.929412 
0.564706 0.796078 0.929412 0.564706 0.796078 0.929412 
0.564706 0.796078 0.929412 0.564706 0.796078 0.929412 
0.564706 0.796078 0.929412 0.564706 0.796078 0.929412 
0.564706 0.796078 0.929412 0.564706 0.796078 0.929412 
0.564706 0.796078 0.929412 0.564706 0.796078 0.929412 
0.564706 0.796078 0.929412 0.564706 0.796078 0.929412 
0.564706 0.796078 0.929412 0.564706 0.796078 0.929412 
0.564706 0.796078 0.929412 0.564706 0.796078 0.929412 
0.564706 0.796078 0.929412 0.564706 0.796078 0.929412 
0.564706 0.796078 0.929412 0.564706 0.796078 0.929412 
0.564706 0.796078 0.929412 0.564706 0.796078 0.929412 
0.564706 0.796078 0.929412 0.564706 0.796078 0.929412 
0.564706 0.796078 0.929412 0.564706 0.796078 0.929412 
0.564706 0.796078 0.929412 0.564706 0.796078 0.929412 
0.564706 0.796078 0.929412 0.564706 0.796078 0.929412 
0.564706 0.796078 0.929412 0.564706 0.796078 0.929412 
0.564706 0.796078 0.929412 0.564706 0.796078 0.929412 
0.564706 0.796078 0.929412 0.564706 0.796078 0.929412 
0.564706 0.796078 0.929412 0.564706 0.796078 0.929412 
0.564706 0.796078 0.929412 0.564706 0.796078 0.929412 
0.564706 0.796078 0.929412 0.564706 0.796078 0.929412 
0.564706 0.796078 0.929412 0.564706 0.796078 0.929412 
0.564706 0.796078 0.929412 0.564706 0.796078 0.929412 
0.564706 0.796078 0.929412 0.564706 0.796078 0.929412 
0.564706 0.796078 0.929412 0.564706 0.796078 0.929412 
0.564706 0.796078 0.929412 0.564706 0.796078 0.929412 
0.564706 0.796078 0.929412 0.564706 0.796078 0.929412 
0.564706 0.796078 0.929412 0.564706 0.796078 0.929412 
0.564706 0.796078 0.929412 0.564706 0.796078 0.929412 
0.564706 0.796078 0.929412 0.564706 0.796078 0.929412 
0.564706 0.796078 0.929412 0.564706 0.796078 0.929412 
0.564706 0.796078 0.929412 0.564706 0.796078 0.929412 
0.564706 0.796078 0.929412 0.564706 0.796078 0.929412 
0.564706 0.796078 0.929412 0.564706 0.796078 0.929412 
0.564706 0.796078 0.929412 0.564706 0.796078 0.929412 
0.564706 0.796078 0.929412 0.564706 0.796078 0.929412 
0.564706 0.796078 0.929412 0.564706 0.796078 0.929412 
0.564706 0.796078 0.929412 0.564706 0.796078 0.929412 
0.564706 0.796078 0.929412 0.564706 0.796078 0.929412 
0.564706 0.796078 0.929412 0.564706 0.796078 0.929412 
0.564706 0.796078 0.929412 0.564706 0.796078 0.929412 
0.564706 0.796078 0.929412 0.564706 0.796078 0.929412 
0.564706 0.796078 0.929412 0.564706 0.796078 0.929412 
0.564706 0.796078 0.929412 0.564706 0.796078 0.929412 
0.564706 0.796078 0.929412 0.564706 0.796078 0.929412 
0.564706 0.796078 0.929412 0.564706 0.796078 0.929412 
0.564706 0.796078 0.929412 0.564706 0.796078 0.929412 
0.564706 0.796078 0.929412 0.564706 0.796078 0.929412 
0.564706 0.796078 0.929412 0.564706 0.796078 0.929412 
0.564706 0.796078 0.929412 0.564706 0.796078 0.929412 
0.564706 0.796078 0.929412 0.564706 0.796078 0.929412 
0.564706 0.796078 0.929412 0.564706 0.796078 0.929412 
0.564706 0.796078 0.929412 0.564706 0.796078 0.929412 
0.564706 0.796078 0.929412 0.564706 0.796078 0.929412 
0.564706 0.796078 0.929412 0.564706 0.796078 0.929412 
0.564706 0.796078 0.929412 0.564706 0.796078 0.929412 
0.564706 0.796078 0.929412 0.564706 0.796078 0.929412 
0.564706 0.796078 0.929412 0.564706 0.796078 0.929412 
0.564706 0.796078 0.929412 0.564706 0.796078 0.929412 
0.564706 0.796078 0.929412 0.564706 0.796078 0.929412 
0.564706 0.796078 0.929412 0.564706 0.796078 0.929412 
0.564706 0.796078 0.929412 0.564706 0.796078 0.929412 
0.564706 0.796078 0.929412 0.564706 0.796078 0.929412 
0.564706 0.796078 0.929412 0.564706 0.796078 0.929412 
0.564706 0.796078 0.929412 0.564706 0.796078 0.929412 
0.564706 0.796078 0.929412 0.564706 0.796078 0.929412 
0.564706 0.796078 0.929412 0.564706 0.796078 0.929412 
0.564706 0.796078 0.929412 0.564706 0.796078 0.929412 
0.564706 0.796078 0.929412 0.564706 0.796078 0.929412 
0.564706 0.796078 0.929412 0.564706 0.796078 0.929412 
0.564706 0.796078 0.929412 0.564706 0.796078 0.929412 
0.564706 0.796078 0.929412 0.564706 0.796078 0.929412 
0.564706 0.796078 0.929412 0.564706 0.796078 0.929412 
0.564706 0.796078 0.929412 0.564706 0.796078 0.929412 
0.564706 0.796078 0.929412 0.564706 0.796078 0.929412 
0.564706 0.796078 0.929412 0.564706 0.796078 0.929412 
0.564706 0.796078 0.929412 0.564706 0.796078 0.929412 
0.564706 0.796078 0.929412 0.564706 0.796078 0.929412 
0.564706 0.796078 0.929412 0.564706 0.796078 0.929412 
0.564706 0.796078 0.929412 0.564706 0.796078 0.929412 
0.564706 0.796078 0.929412 0.564706 0.796078 0.929412 
0.564706 0.796078 0.929412 0.564706 0.796078 0.929412 
0.564706 0.796078 0.929412 0.564706 0.796078 0.929412 
0.564706 0.796078 0.929412 0.564706 0.796078 0.929412 
0.564706 0.796078 0.929412 0.564706 0.796078 0.929412 
0.564706 0.796078 0.929412 0.564706 0.796078 0.929412 
0.564706 0.796078 0.929412 0.564706 0.796078 0.929412 
0.564706 0.796078 0.929412 0.564706 0.796078 0.929412 
0.564706 0.796078 0.929412 0.564706 0.796078 0.929412 
0.564706 0.796078 0.929412 0.564706 0.796078 0.929412 
0.564706 0.796078 0.929412 0.564706 0.796078 0.929412 
0.564706 0.796078 0.929412 0.564706 0.796078 0.929412 
0.564706 0.796078 0.929412 0.564706 0.796078 0.929412 
0.564706 0.796078 0.929412 0.564706 0.796078 0.929412 
0.564706 0.796078 0.929412 0.564706 0.796078 0.929412 
0.564706 0.796078 0.929412 0.564706 0.796078 0.929412 
0.564706 0.796078 0.929412 0.564706 0.796078 0.929412 
0.564706 0.796078 0.929412 0.564706 0.796078 0.929412 
0.564706 0.796078 0.929412 0.564706 0.796078 0.929412 
0.564706 0.796078 0.929412 0.564706 0.796078 0.929412 
0.564706 0.796078 0.929412 0.564706 0.796078 0.929412 
0.564706 0.796078 0.929412 0.564706 0.796078 0.929412 
0.564706 0.796078 0.929412 0.564706 0.796078 0.929412 
0.564706 0.796078 0.929412 0.564706 0.796078 0.929412 
0.564706 0.796078 0.929412 0.564706 0.796078 0.929412 
0.564706 0.796078 0.929412 0.564706 0.796078 0.929412 