# vtk DataFile Version 4.2
vtk output
ASCII
DATASET POLYDATA
POINTS 700 float
208.362 171.282 192.81 210.816 171.306 192.79 211.714 171.85 192.702 
203.758 172.574 192.611 206.011 172.99 192.083 200.272 174.2 192.311 
201.673 173.27 192.635 211.473 173.026 192.383 200.993 174.79 191.932 
207.009 175.012 191.603 201.45 176.307 191.506 198.075 180.045 191.283 
200.298 183.404 191.576 202.171 184.442 192.083 212.239 170.555 193.771 
212.356 170.261 194.108 207.71 170.403 193.808 212.842 171.074 193.691 
213.171 170.817 194.091 203.807 171.511 193.877 212.679 171.811 193.217 
213.843 171.285 194.266 213.897 171.674 194.072 200.785 172.471 193.889 
201.689 172.224 193.777 213.949 172.31 193.889 197.813 173.834 193.211 
193.378 174.359 194.034 213.223 174.053 193.126 188.677 175.722 193.849 
188.113 177.051 192.959 186.159 178 192.846 184.367 182.263 192.33 
206.787 182.926 192.736 202.69 186.853 193.141 198.854 188.703 192.906 
185.501 191.055 192.93 210.966 169.68 194.619 212.625 170.246 194.354 
202.251 171.761 194.321 204.56 171.038 194.457 214.895 172.452 195.076 
190.751 174.584 194.838 191.679 174.454 194.683 193.374 174.114 194.558 
186.728 176.123 193.931 187.777 175.421 194.673 182.711 176.85 194.134 
179.834 178.645 193.733 176.911 180.502 193.97 179.289 183.008 193.114 
209.064 182.761 193.471 184.5 193.438 193.872 189.696 193.669 193.546 
191.364 195.098 194.493 212.496 169.972 195.415 199.079 172.598 194.965 
215.026 172.581 195.564 190.789 174.453 195.388 215.412 173.737 195.73 
187.485 175.295 195.301 181.675 176.486 194.888 215.322 175.489 195.3 
174.877 178.69 195.536 205.708 187.885 195.119 180.929 194.705 195.315 
184.4 194.644 194.471 193.64 195.611 195.475 209.453 169.363 195.923 
210.7 169.378 195.673 212.948 170.263 196.026 199.909 172.28 195.953 
214.751 172.042 196.093 194.28 173.743 195.602 191.198 174.386 195.846 
182.445 175.755 196.296 184.136 175.599 196.124 188.275 175.082 196.017 
179.439 176.501 196.439 175.775 177.663 196.693 173.699 178.809 196.348 
172.859 179.405 196.476 173.012 180.373 195.689 172.447 182.085 195.453 
170.804 185.364 195.826 183.414 196.699 196.061 195.379 173.571 196.467 
200.083 172.506 197.41 191.679 174.412 196.464 183.934 175.601 196.714 
173.325 178.677 197.359 176.544 177.334 197.141 216.058 177.25 197.628 
170.883 180.552 197.891 170.536 181.044 197.69 170.927 181.421 196.818 
169.597 182.62 197.562 167.857 188.897 197.623 173.89 193.856 197.198 
209.511 169.43 197.022 210.979 169.577 197.185 215.649 174.383 197.677 
181.024 176.302 197.571 182.859 176.045 197.702 184.928 175.87 197.85 
174.025 178.222 197.963 176.16 177.53 197.826 216.128 176.743 198.23 
172.788 178.936 198.138 169.963 181.537 198.432 168.3 183.939 198.402 
214.83 183.498 197.794 167.701 185.646 198.351 167.098 187.343 198.478 
166.964 187.065 198.805 167.481 191.138 198.472 204.554 171.211 198.977 
212.656 170.824 198.841 215.262 173.791 198.858 190.41 175.28 198.095 
215.528 174.328 198.589 215.771 175.147 198.616 173.888 178.322 198.205 
180.895 176.831 198.574 173.867 178.499 198.566 216.571 177.974 199.468 
170.846 180.543 198.888 167.029 186.637 199.029 166.234 189.018 199.581 
166.721 191.47 199.501 211.146 170.371 199.223 214.501 172.912 199.598 
216.136 176.476 199.775 184.555 177.047 199.536 174.205 178.677 199.09 
177.737 178.228 199.674 216.696 177.872 200.406 171.72 179.871 199.047 
169.712 181.952 199.238 170.65 181.015 199.375 169.307 182.659 199.573 
167.97 184.288 199.44 168.201 183.978 199.659 167.263 185.912 199.895 
166.067 190.105 200.227 166.27 190.707 199.752 166.344 191.061 199.859 
204.91 192.817 199.308 190.919 199.975 199.381 189.467 177.078 200.412 
216.765 177.927 200.97 171.138 181.613 200.481 167.591 185.372 200.32 
166.16 189.021 200.511 166.157 190.819 200.751 166.443 191.416 200.127 
168.75 195.799 201.59 215.744 176.294 201.858 167.684 185.525 200.817 
167.713 185.814 201.145 168.389 185.434 201.62 217.3 185.264 202.222 
166.698 188.745 201.69 166.464 191.758 201.025 166.508 191.724 201.633 
207.774 192.879 201.567 200.095 175.514 203.039 216.022 177.328 203.238 
218.265 181.615 202.859 169.789 185.94 202.986 167.779 187.63 202.485 
216.571 186.732 203.415 166.692 192.001 202.365 208.879 171.495 202.185 
215.685 177.388 204.255 198.55 177.342 204.34 218.34 183.372 203.943 
172.532 185.917 204.085 217.361 185.666 204.256 212.554 190.632 203.841 
167.148 193.792 202.998 168.125 197.685 204.767 218.216 181.854 204.5 
167.629 195.137 204.533 168.548 199.416 205.323 169.106 200.31 205.479 
214.42 176.99 205.643 216.763 179.467 205.603 218.176 183.475 204.905 
216.655 186.221 206.111 168.536 192.283 205.493 210.177 192.719 205.715 
168.107 198.374 206.115 168.615 199.81 206.018 171.073 202.721 206.385 
174.284 204.052 206.152 216.858 180.379 206.519 217.402 181.555 206.236 
185.484 185.057 206.617 217.35 184.712 206.086 168.345 199.174 206.652 
168.792 200.059 207.05 169.693 201.661 207.133 169.987 202.145 207.587 
172.725 204.223 207.528 175.543 205.206 207.58 182.597 206.913 207.512 
203.065 176.901 207.148 212.697 177.573 207.684 217.091 182.509 206.946 
216.308 185.615 207.316 211.854 191.168 207.459 168.328 198.195 206.95 
168.594 197.708 207.34 168.423 198.919 207.012 169.304 200.873 207.748 
170.041 202.125 208.018 172.361 204.108 207.772 174.13 204.922 208.343 
192.628 205.756 208.054 188.447 207.444 208.301 215.146 181.284 208.615 
216.17 181.937 207.857 215.237 185.494 208.608 211.713 190.87 208.648 
169.471 201.017 208.003 170.564 202.574 208.57 170.835 202.969 208.601 
174.01 204.833 208.698 174.512 205.025 208.659 186.082 208.373 209.509 
213.345 187.504 209.675 211.715 190.244 209.632 180.117 191.678 209.802 
177.437 193.869 210.061 169.989 199.916 208.789 171.154 200.544 209.518 
171.141 202.654 209.092 171.101 203.134 208.766 172.513 204.103 208.778 
173.753 204.546 209.003 174.345 204.7 209.185 174.773 204.97 209.005 
177.561 205.595 209.387 208.568 180.307 210.985 212.834 186.484 210.483 
212.347 186.184 210.932 210.738 190.352 210.867 176.91 196.821 210.948 
173.692 198.681 210.438 175.226 202.959 210.654 174.092 204.219 209.496 
181.924 207.072 211.224 203.914 180.848 211.182 211.113 184.959 211.758 
210.876 188.487 211.63 211.024 187.717 211.683 203.228 197.581 212.297 
175.75 202.16 211.018 179.447 201.456 212.32 177.194 202.908 211.316 
180.026 205.033 211.723 184.137 208.304 212.089 186.842 209.675 212.829 
206.986 193.706 212.342 180.782 200.898 212.943 181.301 202.401 213.217 
180.678 203.648 212.647 195.075 206.868 212.736 194.392 207.39 212.41 
191.339 209.237 212.538 200.515 185.131 213.647 182.45 200.55 213.945 
182.791 205.876 213.508 195.826 206.185 213.765 202.65 186.22 214.697 
205.647 186.293 214.395 184.252 206.442 215.058 185.985 209.101 215.021 
193.001 208.947 214.063 188.766 210.275 214.437 189.237 210.238 214.554 
189.735 210.158 214.793 190.427 209.933 214.93 203.434 188.122 215.559 
204.421 188.586 215.525 205.125 189.231 215.404 203.099 195.828 215.251 
203.254 195.368 215.407 195.56 206.415 215.548 194.238 208.049 215.53 
189.842 210.103 215.308 188.292 210.117 215.494 202.533 193.108 216.563 
195.338 206.467 216.229 185.764 208.007 216.463 193.297 208.633 216.188 
191.982 209.211 216.195 198.485 192.895 217.578 193.895 194.065 217.573 
190.603 195.725 217.534 195.325 205.855 216.907 193.557 207.871 217.103 
187.029 208.87 217.061 192.06 208.908 216.908 187.248 209.108 216.903 
190.37 209.23 217.054 195.154 198.576 218.735 187.777 204.376 218.754 
191.922 207.487 218.467 187.56 207.902 218.039 187.906 208.092 218.116 
190.393 208.233 218.192 189.7 203.653 219.526 191.306 205.253 219.515 
189.073 207.866 218.469 190.036 205.423 219.566 191.233 199.301 236.357 
191.452 201.621 236.011 189.317 201.828 236.332 188.274 203.796 236.491 
187.879 206.038 236.661 188.598 206.739 236.536 187.957 207.137 236.888 
191.127 206.958 236.585 198.031 194.347 237.439 193.83 196.75 236.784 
190.631 197.005 237.208 195.145 197.185 236.756 197.373 196.669 237.148 
195.766 197.834 236.81 194.732 203.294 236.929 195.104 204.775 237.6 
193.828 207.263 237.94 186.78 208.026 238.112 191.583 208.278 237.451 
187.337 209.029 238.562 191.401 208.762 237.785 188.581 209.248 238.318 
201.192 192.674 238.387 201.531 193.675 238.549 200.04 196.448 238.246 
187.884 198.085 237.978 197.82 199.932 237.957 198.62 199.745 238.432 
198.05 201.523 238.794 185.767 205.254 238.155 195.803 205.255 238.591 
192.757 208.387 237.963 191.66 208.948 238.072 192.122 208.847 238.165 
193.173 208.469 238.534 198.173 189.873 239.099 204.69 190.003 239.79 
201.461 195.169 238.772 202.848 195.749 239.993 199.568 199.941 239.48 
185.383 202.57 238.576 184.868 206.746 239.584 188.785 209.977 239.273 
189.389 209.976 239.252 188.624 210.157 239.721 203.688 187.269 240.227 
201.458 188.606 239.478 204.711 187.853 240.206 204.63 193.67 240.396 
202.928 196.49 240.598 197.703 203.249 239.79 184.227 205.3 239.875 
195.528 206.598 239.936 194.458 207.832 240.125 193.429 208.641 239.839 
187.564 209.856 240.125 190.53 209.929 240.415 188.925 210.254 240.015 
206.834 191.547 241.352 183.213 203.144 240.7 197.677 203.829 241.13 
183.907 206.491 240.765 183.621 206.771 241.363 186.925 209.694 241.275 
189.484 210.216 240.602 203.321 183.924 241.984 197.199 186.685 241.641 
208.396 187.931 241.839 207.366 192.528 242.368 204.866 195.313 241.992 
182.753 198.402 241.665 197.992 203.451 241.693 192.753 209.013 241.149 
193.435 208.447 241.781 188.225 209.98 241.566 189.815 209.925 241.704 
210.17 184.669 243.24 210.759 185.8 243.452 209.299 191.283 243.4 
207.25 193.248 242.871 181.015 203.467 242.501 195.082 206.828 242.733 
190.635 209.25 243.053 188.697 209.747 242.486 205.956 195.264 244.119 
179.81 204.355 243.524 180.366 205.563 243.922 185.881 209.136 243.711 
213.864 183.481 245.601 213.391 186.877 245.562 173.701 201.254 244.86 
171.723 202.185 245.734 172.218 203.021 245.864 175.775 203.524 244.882 
173.451 204.16 246.032 175.54 204.261 245.373 175.776 204.823 245.751 
[...]
POINT_DATA 700
COLOR_SCALARS scalars 3
0.564706 0.796078 0.929412 0.564706 0.796078 0.929412 0.564706 0.796078 0.929412 
0.564706 0.796078 0.929412 0.564706 0.796078 0.929412 
0.564706 0.796078 0.929412 0.564706 0.796078 0.929412 
0.564706 0.796078 0.929412 0.564706 0.796078 0.929412 
0.564706 0.796078 0.929412 0.564706 0.796078 0.929412 
0.564706 0.796078 0.929412 0.564706 0.796078 0.929412 
0.564706 0.796078 0.929412 0.564706 0.796078 0.929412 
0.564706 0.796078 0.929412 0.564706 0.796078 0.929412 
0.564706 0.796078 0.929412 0.564706 0.796078 0.929412 
0.564706 0.796078 0.929412 0.564706 0.796078 0.929412 
0.564706 0.796078 0.929412 0.564706 0.796078 0.929412 
0.564706 0.796078 0.929412 0.564706 0.796078 0.929412 
0.564706 0.796078 0.929412 0.564706 0.796078 0.929412 
0.564706 0.796078 0.929412 0.564706 0.796078 0.929412 
0.564706 0.796078 0.929412 0.564706 0.796078 0.929412 
0.564706 0.796078 0.929412 0.564706 0.796078 0.929412 
0.564706 0.796078 0.929412 0.564706 0.796078 0.929412 
0.564706 0.796078 0.929412 0.564706 0.796078 0.929412 
0.564706 0.796078 0.929412 0.564706 0.796078 0.929412 
0.564706 0.796078 0.929412 0.564706 0.796078 0.929412 
0.564706 0.796078 0.929412 0.564706 0.796078 0.929412 
0.564706 0.796078 0.929412 0.564706 0.796078 0.929412 
0.564706 0.796078 0.929412 0.564706 0.796078 0.929412 
0.564706 0.796078 0.929412 0.564706 0.796078 0.929412 
0.564706 0.796078 0.929412 0.564706 0.796078 0.929412 
0.564706 0.796078 0.929412 0.564706 0.796078 0.929412 
0.564706 0.796078 0.929412 0.564706 0.796078 0.929412 
0.564706 0.796078 0.929412 0.564706 0.796078 0.929412 
0.564706 0.796078 0.929412 0.564706 0.796078 0.929412 
0.564706 0.796078 0.929412 0.564706 0.796078 0.929412 
0.564706 0.796078 0.929412 0.564706 0.796078 0.929412 
0.564706 0.796078 0.929412 0.564706 0.796078 0.929412 
0.564706 0.796078 0.929412 0.564706 0.796078 0.929412 
0.564706 0.796078 0.929412 0.564706 0.796078 0.929412 
0.564706 0.796078 0.929412 0.564706 0.796078 0.929412 
0.564706 0.796078 0.929412 0.564706 0.796078 0.929412 
0.564706 0.796078 0.929412 0.564706 0.796078 0.929412 
0.564706 0.796078 0.929412 0.564706 0.796078 0.929412 
0.564706 0.796078 0.929412 0.564706 0.796078 0.929412 
0.564706 0.796078 0.929412 0.564706 0.796078 0.929412 
0.564706 0.796078 0.929412 0.564706 0.796078 0.929412 
0.564706 0.796078 0.929412 0.564706 0.796078 0.929412 
0.564706 0.796078 0.929412 0.564706 0.796078 0.929412 
0.564706 0.796078 0.929412 0.564706 0.796078 0.929412 
0.564706 0.796078 0.929412 0.564706 0.796078 0.929412 
0.564706 0.796078 0.929412 0.564706 0.796078 0.929412 
0.564706 0.796078 0.929412 0.564706 0.796078 0.929412 
0.564706 0.796078 0.929412 0.564706 0.796078 0.929412 
0.564706 0.796078 0.929412 0.564706 0.796078 0.929412 
0.564706 0.796078 0.929412 0.564706 0.796078 0.929412 
0.564706 0.796078 0.929412 0.564706 0.796078 0.929412 
0.564706 0.796078 0.929412 0.564706 0.796078 0.929412 
0.564706 0.796078 0.929412 0.564706 0.796078 0.929412 
0.564706 0.796078 0.929412 0.564706 0.796078 0.929412 
0.564706 0.796078 0.929412 0.564706 0.796078 0.929412 
0.564706 0.796078 0.929412 0.564706 0.796078 0.929412 
0.564706 0.796078 0.929412 0.564706 0.796078 0.929412 
0.564706 0.796078 0.929412 0.564706 0.796078 0.929412 
0.564706 0.796078 0.929412 0.564706 0.796078 0.929412 
0.564706 0.796078 0.929412 0.564706 0.796078 0.929412 
0.564706 0.796078 0.929412 0.564706 0.796078 0.929412 
0.564706 0.796078 0.929412 0.564706 0.796078 0.929412 
0.564706 0.796078 0.929412 0.564706 0.796078 0.929412 
0.564706 0.796078 0.929412 0.564706 0.796078 0.929412 
0.564706 0.796078 0.929412 0.564706 0.796078 0.929412 
0.564706 0.796078 0.929412 0.564706 0.796078 0.929412 
0.564706 0.796078 0.929412 0.564706 0.796078 0.929412 
0.564706 0.796078 0.929412 0.564706 0.796078 0.929412 
0.564706 0.796078 0.929412 0.564706 0.796078 0.929412 
0.564706 0.796078 0.929412 0.564706 0.796078 0.929412 
0.564706 0.796078 0.929412 0.564706 0.796078 0.929412 
0.564706 0.796078 0.929412 0.564706 0.796078 0.929412 
0.564706 0.796078 0.929412 0.564706 0.796078 0.929412 
0.564706 0.796078 0.929412 0.564706 0.796078 0.929412 
0.564706 0.796078 0.929412 0.564706 0.796078 0.929412 
0.564706 0.796078 0.929412 0.564706 0.796078 0.929412 
0.564706 0.796078 0.929412 0.564706 0.796078 0.929412 
0.564706 0.796078 0.929412 0.564706 0.796078 0.929412 
0.564706 0.796078 0.929412 0.564706 0.796078 0.929412 
0.564706 0.796078 0.929412 0.564706 0.796078 0.929412 
0.564706 0.796078 0.929412 0.564706 0.796078 0.929412 
0.564706 0.796078 0.929412 0.564706 0.796078 0.929412 
0.564706 0.796078 0.929412 0.564706 0.796078 0.929412 
0.564706 0.796078 0.929412 0.564706 0.796078 0.929412 
0.564706 0.796078 0.929412 0.564706 0.796078 0.929412 
0.564706 0.796078 0.929412 0.564706 0.796078 0.929412 
0.564706 0.796078 0.929412 0.564706 0.796078 0.929412 
0.564706 0.796078 0.929412 0.564706 0.796078 0.929412 
0.564706 0.796078 0.929412 0.564706 0.796078 0.929412 
0.564706 0.796078 0.929412 0.564706 0.796078 0.929412 
0.564706 0.796078 0.929412 0.564706 0.796078 0.929412 
0.564706 0.796078 0.929412 0.564706 0.796078 0.929412 
0.564706 0.796078 0.929412 0.564706 0.796078 0.929412 
0.564706 0.796078 0.929412 0.564706 0.796078 0.929412 
0.564706 0.796078 0.929412 0.564706 0.796078 0.929412 
0.564706 0.796078 0.929412 0.564706 0.796078 0.929412 
0.564706 0.796078 0.929412 0.564706 0.796078 0.929412 
0.564706 0.796078 0.929412 0.564706 0.796078 0.929412 
0.564706 0.796078 0.929412 0.564706 0.796078 0.929412 
0.564706 0.796078 0.929412 0.564706 0.796078 0.929412 
0.564706 0.796078 0.929412 0.564706 0.796078 0.929412 
0.564706 0.796078 0.929412 0.564706 0.796078 0.929412 
0.564706 0.796078 0.929412 0.564706 0.796078 0.929412 
0.564706 0.796078 0.929412 0.564706 0.796078 0.929412 
0.564706 0.796078 0.929412 0.564706 0.796078 0.929412 
0.564706 0.796078 0.929412 0.564706 0.796078 0.929412 
0.564706 0.796078 0.929412 0.564706 0.796078 0.929412 
0.564706 0.796078 0.929412 0.564706 0.796078 0.929412 
0.564706 0.796078 0.929412 0.564706 0.796078 0.929412 
0.564706 0.796078 0.929412 0.564706 0.796078 0.929412 
0.564706 0.796078 0.929412 0.564706 0.796078 0.929412 
0.564706 0.796078 0.929412 0.564706 0.796078 0.929412 
0.564706 0.796078 0.929412 0.564706 0.796078 0.929412 
0.564706 0.796078 0.929412 0.564706 0.796078 0.929412 
0.564706 0.796078 0.929412 0.564706 0.796078 0.929412 
0.564706 0.796078 0.929412 0.564706 0.796078 0.929412 
0.564706 0.796078 0.929412 0.564706 0.796078 0.929412 
0.564706 0.796078 0.929412 0.564706 0.796078 0.929412 
0.564706 0.796078 0.929412 0.564706 0.796078 0.929412 
0.564706 0.796078 0.929412 0.564706 0.796078 0.929412 
0.564706 0.796078 0.929412 0.564706 0.796078 0.929412 
0.564706 0.796078 0.929412 0.564706 0.796078 0.929412 
0.564706 0.796078 0.929412 0.564706 0.796078 0.929412 
0.564706 0.796078 0.929412 0.564706 0.796078 0.929412 
0.564706 0.796078 0.929412 0.564706 0.796078 0.929412 
0.564706 0.796078 0.929412 0.564706 0.796078 0.929412 
0.564706 0.796078 0.929412 0.564706 0.796078 0.929412 
0.564706 0.796078 0.929412 0.564706 0.796078 0.929412 
0.564706 0.796078 0.929412 0.564706 0.796078 0.929412 
0.564706 0.796078 0.929412 0.564706 0.796078 0.929412 
0.564706 0.796078 0.929412 0.564706 0.796078 0.929412 
0.564706 0.796078 0.929412 0.564706 0.796078 0.929412 
0.564706 0.796078 0.929412 0.564706 0.796078 0.929412 
0.564706 0.796078 0.929412 0.564706 0.796078 0.929412 
0.564706 0.796078 0.929412 0.564706 0.796078 0.929412 
0.564706 0.796078 0.929412 0.564706 0.796078 0.929412 
0.564706 0.796078 0.929412 0.564706 0.796078 0.929412 
0.564706 0.796078 0.929412 0.564706 0.796078 0.929412 
0.564706 0.796078 0.929412 0.564706 0.796078 0.929412 
0.564706 0.796078 0.929412 0.564706 0.796078 0.929412 
0.564706 0.796078 0.929412 0.564706 0.796078 0.929412 
0.564706 0.796078 0.929412 0.564706 0.796078 0.929412 
0.564706 0.796078 0.929412 0.564706 0.796078 0.929412 
0.564706 0.796078 0.929412 0.564706 0.796078 0.929412 
0.564706 0.796078 0.929412 0.564706 0.796078 0.929412 
0.564706 0.796078 0.929412 0.564706 0.796078 0.929412 
0.564706 0.796078 0.929412 0.564706 0.796078 0.929412 
0.564706 0.796078 0.929412 0.564706 0.796078 0.929412 
0.564706 0.796078 0.929412 0.564706 0.796078 0.929412 
0.564706 0.796078 0.929412 0.564706 0.796078 0.929412 
0.564706 0.796078 0.929412 0.564706 0.796078 0.929412 
0.564706 0.796078 0.929412 0.564706 0.796078 0.929412 
0.564706 0.796078 0.929412 0.564706 0.796078 0.929412 
0.564706 0.796078 0.929412 0.564706 0.796078 0.929412 
0.564706 0.796078 0.929412 0.564706 0.796078 0.929412 
0.564706 0.796078 0.929412 0.564706 0.796078 0.929412 
0.564706 0.796078 0.929412 0.564706 0.796078 0.929412 
0.564706 0.796078 0.929412 0.564706 0.796078 0.929412 
0.564706 0.796078 0.929412 0.564706 0.796078 0.929412 
0.564706 0.796078 0.929412 0.564706 0.796078 0.929412 
0.564706 0.796078 0.929412 0.564706 0.796078 0.929412 
0.564706 0.796078 0.929412 0.564706 0.796078 0.929412 
0.564706 0.796078 0.929412 0.564706 0.796078 0.929412 
0.564706 0.796078 0.929412 0.564706 0.796078 0.929412 
0.564706 0.796078 0.929412 0.564706 0.796078 0.929412 
0.564706 0.796078 0.929412 0.564706 0.796078 0.929412 
0.564706 0.796078 0.929412 0.564706 0.796078 0.929412 
0.564706 0.796078 0.929412 0.564706 0.796078 0.929412 
0.564706 0.796078 0.929412 0.564706 0.796078 0.929412 
0.564706 0.796078 0.929412 0.564706 0.796078 0.929412 
0.564706 0.796078 0.929412 0.564706 0.796078 0.929412 
0.564706 0.796078 0.929412 0.564706 0.796078 0.929412 
0.564706 0.796078 0.929412 0.564706 0.796078 0.929412 
0.564706 0.796078 0.929412 0.564706 0.796078 0.929412 
0.564706 0.796078 0.929412 0.564706 0.796078 0.929412 
0.564706 0.796078 0.929412 0.564706 0.796078 0.929412 
0.564706 0.796078 0.929412 0.564706 0.796078 0.929412 
0.564706 0.796078 0.929412 0.564706 0.796078 0.929412 
0.564706 0.796078 0.929412 0.564706 0.796078 0.929412 
0.564706 0.796078 0.929412 0.564706 0.796078 0.929412 
0.564706 0.796078 0.929412 0.564706 0.796078 0.929412 
0.564706 0.796078 0.929412 0.564706 0.796078 0.929412 
0.564706 0.796078 0.929412 0.564706 0.796078 0.929412 
0.564706 0.796078 0.929412 0.564706 0.796078 0.929412 
0.564706 0.796078 0.929412 0.564706 0.796078 0.929412 
0.564706 0.796078 0.929412 0.564706 0.796078 0.929412 
0.564706 0.796078 0.929412 0.564706 0.796078 0.929412 
0.564706 0.796078 0.929412 0.564706 0.796078 0.929412 
0.564706 0.796078 0.929412 0.564706 0.796078 0.929412 
0.564706 0.796078 0.929412 0.564706 0.796078 0.929412 
0.564706 0.796078 0.929412 0.564706 0.796078 0.929412 
0.564706 0.796078 0.929412 0.564706 0.796078 0.929412 
0.564706 0.796078 0.929412 0.564706 0.796078 0.929412 
0.564706 0.796078 0.929412 0.564706 0.796078 0.929412 
0.564706 0.796078 0.929412 0.564706 0.796078 0.929412 
0.564706 0.796078 0.929412 0.564706 0.796078 0.929412 
0.564706 0.796078 0.929412 0.564706 0.796078 0.929412 
0.564706 0.796078 0.929412 0.564706 0.796078 0.929412 
0.564706 0.796078 0.929412 0.564706 0.796078 0.929412 
0.564706 0.796078 0.929412 0.564706 0.796078 0.929412 
0.564706 0.796078 0.929412 0.564706 0.796078 0.929412 
0.564706 0.796078 0.929412 0.564706 0.796078 0.929412 
0.564706 0.796078 0.929412 0.564706 0.796078 0.929412 
0.564706 0.796078 0.929412 0.564706 0.796078 0.929412 
0.564706 0.796078 0.929412 0.564706 0.796078 0.929412 
0.564706 0.796078 0.929412 0.564706 0.796078 0.929412 
0.564706 0.796078 0.929412 0.564706 0.796078 0.929412 
0.564706 0.796078 0.929412 0.564706 0.796078 0.929412 
0.564706 0.796078 0.929412 0.564706 0.796078 0.929412 
0.564706 0.796078 0.929412 0.564706 0.796078 0.929412 
0.564706 0.796078 0.929412 0.564706 0.796078 0.929412 
0.564706 0.796078 0.929412 0.564706 0.796078 0.929412 
0.564706 0.796078 0.929412 0.564706 0.796078 0.929412 
0.564706 0.796078 0.929412 0.564706 0.796078 0.929412 
0.564706 0.796078 0.929412 0.564706 0.796078 0.929412 
0.564706 0.796078 0.929412 0.564706 0.796078 0.929412 
0.564706 0.796078 0.929412 0.564706 0.796078 0.929412 
0.564706 0.796078 0.929412 0.564706 0.796078 0.929412 
0.564706 0.796078 0.929412 0.564706 0.796078 0.929412 
0.564706 0.796078 0.929412 0.564706 0.796078 0.929412 
0.564706 0.796078 0.929412 0.564706 0.796078 0.929412 
0.564706 0.796078 0.929412 0.564706 0.796078 0.929412 
0.564706 0.796078 0.929412 0.564706 0.796078 0.929412 
0.564706 0.796078 0.929412 0.564706 0.796078 0.929412 
0.564706 0.796078 0.929412 0.564706 0.796078 0.929412 
0.564706 0.796078 0.929412 0.564706 0.796078 0.929412 
0.564706 0.796078 0.929412 0.564706 0.796078 0.929412 
0.564706 0.796078 0.929412 0.564706 0.796078 0.929412 
0.564706 0.796078 0.929412 0.564706 0.796078 0.929412 
0.564706 0.796078 0.929412 0.564706 0.796078 0.929412 
0.564706 0.796078 0.929412 0.564706 0.796078 0.929412 
0.564706 0.796078 0.929412 0.564706 0.796078 0.929412 
0.564706 0.796078 0.929412 0.564706 0.796078 0.929412 
0.564706 0.796078 0.929412 0.564706 0.796078 0.929412 
0.564706 0.796078 0.929412 0.564706 0.796078 0.929412 
0.564706 0.796078 0.929412 0.564706 0.796078 0.929412 
0.564706 0.796078 0.929412 0.564706 0.796078 0.929412 
0.564706 0.796078 0.929412 0.564706 0.796078 0.929412 
0.564706 0.796078 0.929412 0.564706 0.796078 0.929412 
0.564706 0.796078 0.929412 0.564706 0.796078 0.929412 
0.564706 0.796078 0.929412 0.564706 0.796078 0.929412 
0.564706 0.796078 0.929412 0.564706 0.796078 0.929412 
0.564706 0.796078 0.929412 0.564706 0.796078 0.929412 
0.564706 0.796078 0.929412 0.564706 0.796078 0.929412 
0.564706 0.796078 0.929412 0.564706 0.796078 0.929412 
0.564706 0.796078 0.929412 0.564706 0.796078 0.929412 
0.564706 0.796078 0.929412 0.564706 0.796078 0.929412 
0.564706 0.796078 0.929412 0.564706 0.796078 0.929412 
0.564706 0.796078 0.929412 0.564706 0.796078 0.929412 
0.564706 0.796078 0.929412 0.564706 0.796078 0.929412 
0.564706 0.796078 0.929412 0.564706 0.796078 0.929412 
0.564706 0.796078 0.929412 0.564706 0.796078 0.929412 
0.564706 0.796078 0.929412 0.564706 0.796078 0.929412 
0.564706 0.796078 0.929412 0.564706 0.796078 0.929412 
0.564706 0.796078 0.929412 0.564706 0.796078 0.929412 
0.564706 0.796078 0.929412 0.564706 0.796078 0.929412 
0.564706 0.796078 0.929412 0.564706 0.796078 0.929412 
0.564706 0.796078 0.929412 0.564706 0.796078 0.929412 
0.564706 0.796078 0.929412 0.564706 0.796078 0.929412 
0.564706 0.796078 0.929412 0.564706 0.796078 0.929412 
0.564706 0.796078 0.929412 0.564706 0.796078 0.929412 
0.564706 0.796078 0.929412 0.564706 0.796078 0.929412 
0.564706 0.796078 0.929412 0.564706 0.796078 0.929412 
0.564706 0.796078 0.929412 0.564706 0.796078 0.929412 
0.564706 0.796078 0.929412 0.564706 0.796078 0.929412 
0.564706 0.796078 0.929412 0.564706 0.796078 0.929412 
0.564706 0.796078 0.929412 0.564706 0.796078 0.929412 
0.564706 0.796078 0.929412 0.564706 0.796078 0.929412 
0.564706 0.796078 0.929412 0.564706 0.796078 0.929412 
0.564706 0.796078 0.929412 0.564706 0.796078 0.929412 
0.564706 0.796078 0.929412 0.564706 0.796078 0.929412 
0.564706 0.796078 0.929412 0.564706 0.796078 0.929412 
0.564706 0.796078 0.929412 0.564706 0.796078 0.929412 
0.564706 0.796078 0.929412 0.564706 0.796078 0.929412 
0.564706 0.796078 0.929412 0.564706 0.796078 0.929412 
0.564706 0.796078 0.929412 0.564706 0.796078 0.929412 
0.564706 0.796078 0.929412 0.564706 0.796078 0.929412 
0.564706 0.796078 0.929412 0.564706 0.796078 0.929412 
0.564706 0.796078 0.929412 0.564706 0.796078 0.929412 
0.564706 0.796078 0.929412 0.564706 0.796078 0.929412 
0.564706 0.796078 0.929412 0.564706 0.796078 0.929412 
0.564706 0.796078 0.929412 0.564706 0.796078 0.929412 
0.564706 0.796078 0.929412 0.564706 0.796078 0.929412 
0.564706 0.796078 0.929412 0.564706 0.796078 0.929412 
0.564706 0.796078 0.929412 0.564706 0.796078 0.929412 
0.564706 0.796078 0.929412 0.564706 0.796078 0.929412 
0.564706 0.796078 0.929412 0.564706 0.796078 0.929412 
0.564706 0.796078 0.929412 0.564706 0.796078 0.929412 
0.564706 0.796078 0.929412 0.564706 0.796078 0.929412 
0.564706 0.796078 0.929412 0.564706 0.796078 0.929412 
0.564706 0.796078 0.929412 0.564706 0.796078 0.929412 
0.564706 0.796078 0.929412 0.564706 0.796078 0.929412 
0.564706 0.796078 0.929412 0.564706 0.796078 0.929412 
0.564706 0.796078 0.929412 0.564706 0.796078 0.929412 
0.564706 0.796078 0.929412 0.564706 0.796078 0.929412 
0.564706 0.796078 0.929412 0.564706 0.796078 0.929412 
0.564706 0.796078 0.929412 0.564706 0.796078 0.929412 
0.564706 0.796078 0.929412 0.564706 0.796078 0.929412 
0.564706 0.796078 0.929412 0.564706 0.796078 0.929412 
0.564706 0.796078 0.929412 0.564706 0.796078 0.929412 
0.564706 0.796078 0.929412 0.564706 0.796078 0.929412 
0.564706 0.796078 0.929412 0.564706 0.796078 0.929412 
0.564706 0.796078 0.929412 0.564706 0.796078 0.929412 
0.564706 0.796078 0.929412 0.564706 0.796078 0.929412 
0.564706 0.796078 0.929412 0.564706 0.796078 0.929412 
0.564706 0.796078 0.929412 0.564706 0.796078 0.929412 
0.564706 0.796078 0.929412 0.564706 0.796078 0.929412 
0.564706 0.796078 0.929412 0.564706 0.796078 0.929412 
0.564706 0.796078 0.929412 0.564706 0.796078 0.929412 
0.564706 0.796078 0.929412 0.564706 0.796078 0.929412 
0.564706 0.796078 0.929412 0.564706 0.796078 0.929412 
0.564706 0.796078 0.929412 0.564706 0.796078 0.929412 
0.564706 0.796078 0.929412 0.564706 0.796078 0.929412 
0.564706 0.796078 0.929412 0.564706 0.796078 0.929412 
0.564706 0.796078 0.929412 0.564706 0.796078 0.929412 
0.564706 0.796078 0.929412 0.564706 0.796078 0.929412 
0.564706 0.796078 0.929412 0.564706 0.796078 0.929412 
0.564706 0.796078 0.929412 0.564706 0.796078 0.929412 
0.564706 0.796078 0.929412 0.564706 0.796078 0.929412 
0.564706 0.796078 0.929412 0.564706 0.796078 0.929412 
0.564706 0.796078 0.929412 0.564706 0.796078 0.929412 
0.564706 0.796078 0.929412 0.564706 0.796078 0.929412 
0.564706 0.796078 0.929412 0.564706 0.796078 0.929412 
0.564706 0.796078 0.929412 0.564706 0.796078 0.929412 
0.564706 0.796078 0.929412 0.564706 0.796078 0.929412 
0.564706 0.796078 0.929412 0.564706 0.796078 0.929412 
0.564706 0.796078 0.929412 0.564706 0.796078 0.929412 
0.564706 0.796078 0.929412 0.564706 0.796078 0.929412 
0.564706 0.796078 0.929412 0.564706 0.796078 0.929412 
0.564706 0.796078 0.929412 0.564706 0.796078 0.929412 
0.564706 0.796078 0.929412 0.564706 0.796078 0.929412 
0.564706 0.796078 0.929412 0.564706 0.796078 0.929412 
0.564706 0.796078 0.929412 0.564706 0.796078 0.929412 
0.564706 0.796078 0.929412 0.564706 0.796078 0.929412 
0.564706 0.796078 0.929412 0.564706 0.796078 0.929412 
0.564706 0.796078 0.929412 0.564706 0.796078 0.929412 
0.564706 0.796078 0.929412 0.564706 0.796078 0.929412 
0.564706 0.796078 0.929412 0.564706 0.796078 0.929412 
0.564706 0.796078 0.929412 0.564706 0.796078 0.929412 
0.564706 0.796078 0.929412 0.564706 0.796078 0.929412 
0.564706 0.796078 0.929412 0.564706 0.796078 0.929412 
0.564706 0.796078 0.929412 0.564706 0.796078 0.929412 
0.564706 0.796078 0.929412 0.564706 0.796078 0.929412 
0.564706 0.796078 0.929412 0.564706 0.796078 0.929412 
0.564706 0.796078 0.929412 0.564706 0.796078 0.929412 
0.564706 0.796078 0.929412 0.564706 0.796078 0.929412 
0.564706 0.796078 0.929412 0.564706 0.796078 0.929412 
0.564706 0.796078 0.929412 0.564706 0.796078 0.929412 
0.564706 0.796078 0.929412 0.564706 0.796078 0.929412 
0.564706 0.796078 0.929412 
NORMALS Normals float
-0.0404933 -0.561485 -0.826496 0.0772664 -0.565537 -0.821095 0.366343 -0.277065 -0.888272 
-0.157915 -0.579607 -0.799449 -0.0864011 -0.402135 -0.911494 -0.222621 -0.52936 -0.818668 
-0.129724 -0.586012 -0.799851 0.206502 0.00385885 -0.978439 -0.107411 -0.333022 -0.936781 
0.0189728 -0.0670485 -0.997569 -0.00416061 -0.241763 -0.970326 0.00356181 0.00787671 -0.999963 
0.0998292 0.193897 -0.975929 0.238679 0.204405 -0.949342 0.34584 -0.576349 -0.740416 
0.254822 -0.848921 -0.463033 -0.164585 -0.799212 -0.578076 0.434521 -0.525278 -0.731624 
0.553344 -0.547303 -0.627908 -0.20822 -0.881804 -0.423162 0.47625 -0.342056 -0.810051 