# vtk DataFile Version 4.2
vtk output
ASCII
DATASET POLYDATA
POINTS 4325 float
220.019 142.314 191.187 219.91 142.702 191.016 219.752 142.862 190.906 
219.506 143.152 190.779 220.261 143.228 191.213 219.476 144.094 190.665 
219.933 144.187 190.872 220.481 144.217 191.431 213.418 145.68 189.955 
219.375 150.767 190.308 219.95 151.501 190.661 220.786 153.576 191.252 
219.41 154.974 190.046 220.661 154.965 190.775 221.054 155.589 191.061 
210.205 161.356 189.689 215.327 162.948 190.128 215.432 135.464 191.138 
220.109 140.5 191.79 219.888 140.642 191.575 207.22 141.534 190.848 
220.64 142.853 191.889 217.877 144.563 190.257 215.831 148.866 189.74 
202.682 154.21 190.798 221.345 154.349 191.892 220.26 160.069 190.813 
221.493 160.607 191.804 218.774 161.816 190.609 220.48 162.61 191.818 
216.629 163.701 190.535 216.913 132.22 191.922 208.153 136.233 191.498 
220.866 143.472 192.394 220.951 143.605 192.828 203.457 149.469 191.571 
222.219 158.868 192.282 221.566 161.704 192.322 219.673 165.557 193.148 
217.613 167.478 192.671 215.74 168.535 192.036 216.458 168.527 192.408 
204.216 183.189 192.147 193.427 186.227 191.828 201.218 185.288 192.139 
194.761 187.226 191.957 220.552 127.585 193.336 221.461 130.305 193.931 
201.28 141.927 192.388 220.85 141.615 192.948 201.419 147.481 192.498 
203.606 147.657 191.674 201.288 149.258 192.635 197.655 154.111 192.696 
190.558 164.289 192.327 221.452 163.459 193.363 218.424 167.082 193.324 
216.8 169.232 193.169 214.747 174.505 193.741 182.226 186.03 192.661 
202.689 186.853 193.141 190.466 190.527 192.563 195.342 191.849 193.619 
190.186 192.176 192.977 192.914 192.325 193.305 218.535 124.537 193.794 
223.072 125.421 194.346 221.479 131.369 194.199 219.842 134.503 193.187 
220.327 135.45 193.729 220.735 136.506 194.406 198.95 140.466 193.815 
199.251 148.661 193.857 200.119 148.765 193.494 200.081 149.438 193.493 
199.509 150.326 193.481 222.172 163.077 194.424 219.279 166.345 193.781 
220.249 165.682 194.822 212.163 179.805 193.693 198.24 190.925 193.872 
183.685 192.728 193.76 187.3 194.362 193.917 191.364 195.098 194.493 
220.939 121.135 195.053 224.494 122.537 195.267 225.445 123.577 195.606 
222.451 130.537 194.946 220.9 137.511 194.82 221.003 140.035 195.092 
221.372 145.037 195.29 200.004 148.903 193.852 199.783 148.969 193.927 
200.025 148.9 194.049 200.013 149.026 193.851 198.255 148.935 194.261 
198.997 149.404 194.004 199.709 149.366 193.824 199.982 148.968 194.044 
222.192 153.937 194.87 187.598 159.32 194.769 223.809 158.922 195.868 
219.311 165.361 196.073 183.317 166.211 194.23 218.439 165.905 196.196 
219.89 165.705 195.478 219.416 166.147 194.852 220.497 165.582 195.796 
218.675 166.837 194.701 205.708 187.885 195.119 224.324 119.963 195.913 
224.764 120.43 195.886 225.627 122.066 195.87 226.758 121.544 196.497 
227.405 122.413 197.008 226.229 124.522 196.296 226.187 125.287 196.457 
224.497 128.59 196.199 222.469 131.661 195.807 221.39 133.799 195.149 
221.155 137.264 196.173 200.096 148.832 194.212 200.086 148.843 194.184 
200.043 148.925 194.051 200.073 148.869 194.152 194.006 147.83 196.462 
200.077 148.857 194.182 219.192 163.478 197.491 222.598 162.71 195.634 
218.531 164.651 197.003 220.393 165.134 196.42 220.862 165.623 196.175 
217.237 168.413 196.696 220.974 165.675 196.098 216.851 170.358 195.452 
216.109 175.079 196.702 215.629 177.382 196.191 214.678 179.942 195.874 
196.979 194.018 195.641 186.235 197.988 196.63 225.409 117.022 197.067 
225.872 117.448 197.022 214.593 119.115 196.875 226.814 119.038 196.924 
227.992 119.54 197.414 228.581 119.66 197.846 227.22 124.448 197.335 
226.199 126.368 197.138 200.103 148.831 194.214 195.097 149.791 196.038 
224.166 156.982 197.134 185.115 157.653 197.172 223.751 159.846 197.328 
218.962 163.168 197.757 218.304 163.306 198.156 222.769 162.182 197.013 
178.283 165.65 196.678 221.278 165.316 196.363 221.015 165.601 196.345 
221.089 165.611 196.197 221.017 165.668 196.237 216.239 177.198 197.71 
167.917 182.406 196.957 166.856 187.261 197.353 203.221 190.958 196.31 
188.874 198.611 197.263 224.421 115.483 197.526 229.151 120.495 198.535 
228.201 122.592 197.965 226.063 127.383 198.243 195.266 136.188 197.831 
220.994 139.176 198.128 190.829 144.982 198.055 222.657 146.147 198.217 
190.507 146.459 198.311 222.448 147.582 197.477 197 148 198 
197 148 198 197 148 198 197 148 198 
197 148 198 223.659 159.832 197.903 218.558 161.796 199.007 
222.538 162.282 197.62 217.487 164.933 198.419 220.928 164.234 197.387 
221.155 165.111 196.763 221.379 164.637 197.217 221.724 164.693 196.906 
175.766 166.163 198.011 221.492 164.911 196.905 221.109 165.579 196.331 
167.288 178.527 198.265 215.689 181.899 197.92 165.69 187.231 197.956 
167.086 191.188 198.194 226.092 114.236 198.226 229.467 113.447 199.434 
229.864 113.678 199.609 230.455 114.595 199.961 229.896 119.963 199.666 
222.189 133.603 199.132 221.801 142.788 198.872 223.103 147.251 198.537 
197 148 198 191.149 151.031 198.894 224.904 150.843 199.498 
225.227 152.004 199.815 224.976 153.484 199.556 224.38 156.992 198.832 
224.156 157.923 198.899 218.956 160.389 199.763 222.98 160.677 198.465 
221.057 163.829 197.658 221.404 163.516 197.828 221.592 164.485 197.36 
221.667 164.693 197.129 221.574 164.691 197.208 171.894 168.74 199.614 
229.769 111.944 199.974 231.061 112.669 200.684 230.39 113.687 200.014 
231.445 112.981 201.088 220.554 138.398 200.856 221.141 140.908 200.036 
188.691 145.974 200.136 188.586 146.922 200.805 223.82 147.894 199.174 
191.19 149.228 199.443 191.975 149.481 198.955 191.962 149.797 199.023 
225.97 151.204 201.064 224.76 155.21 199.547 219.944 158.515 200.823 
219.497 158.872 200.656 223.54 159.059 199.348 223.074 159.764 199.287 
217.78 161.729 199.991 222.146 161.725 198.554 221.684 164.541 197.291 
170.158 170.378 200.344 165.428 178.564 200.505 164.521 180.984 200.267 
162.886 184.487 200.65 162.694 185.28 200.526 161.881 187.55 200.921 
162.419 190.152 200.535 231.444 108.263 201.734 232.037 108.863 202.287 
230.928 110.385 201.003 231.885 113.859 201.867 229.37 122.582 201.131 
223.606 143.347 201.024 188.118 143.265 201.241 224.274 144.597 200.717 
226.197 146.606 201.885 191.683 149.547 199.357 191.848 149.54 199.325 
191.879 149.594 199.25 191.063 149.78 199.674 191.663 149.767 199.334 
191.331 150.136 199.384 219.378 157.535 201.69 222.052 158.858 200.708 
222.639 159.508 199.958 177.53 160.663 201.833 166.449 175.897 201.328 
217.859 180.982 201.691 162.497 184.416 201.24 162.325 184.21 201.729 
162.52 192.459 201.187 222.603 105.756 202.108 231.233 105.387 202.617 
218.82 107.697 202.028 231.111 118.364 202.392 201.148 122.845 201.62 
220.998 140.646 201.767 220.542 140.256 202.681 222.594 141.724 202.251 
191.83 149.555 199.344 226.692 147.49 202.656 189.524 149.022 201.07 
189.289 150.199 201.098 226.706 149.161 202.634 188.633 150.62 201.491 
220.303 155.664 202.825 219.382 156.314 202.61 218.183 158.471 201.943 
168.421 171.928 202.216 216.018 174.71 202.45 218.183 182.29 202.345 
216.588 186.371 202.16 207.774 192.879 201.567 227.797 102.933 203.545 
230.838 103.03 204.001 231.448 103.424 204.124 227.258 104.145 202.558 
231.864 104.351 203.805 217.224 107.14 203.482 232.728 108.267 203.641 
208.27 114.305 203.24 221.464 134.107 202.499 220.743 135.454 202.856 
219.323 138.681 204.173 187.419 141.54 203.471 222.044 141.135 203.115 
223.226 142.111 202.175 225.579 142.482 203.404 187.341 143.562 203.426 
226.91 147.599 203.411 188.761 148.384 202.226 188.974 149.338 201.863 
220.059 153.609 204.221 220.963 153.473 204.242 219.538 154.125 204.069 
218.697 155.518 203.674 222.815 155.75 203.493 223.464 156.639 202.396 
174.256 163.797 203.357 217.346 178.874 202.676 218.156 183.611 202.932 
210.811 191.498 202.584 159.341 193.052 203.993 159.877 194.471 203.672 
161.177 194.641 202.93 228.941 102.003 204.661 229.801 102.089 204.594 
226.125 102.713 204.272 230.84 102.729 204.322 230.997 102.676 204.585 
222.824 103.716 204.338 231.975 103.917 204.417 232.016 104.217 204.121 
232.215 104.343 204.47 215.738 107.512 204.549 233.02 111.202 204.584 
230.76 120.136 203.894 195.156 127.673 203.503 219.693 139.911 204.062 
222.326 140.922 203.822 224.451 140.842 204.356 219.916 140.39 204.508 
225.479 142.076 203.64 225.302 141.733 203.845 226.029 142.596 203.783 
226.469 142.96 204.169 188.354 147.859 204.027 188.355 148.074 204.15 
188.303 148.399 204.058 221.173 152.413 204.955 221.512 152.46 205.075 
218.917 154.348 204.349 223.046 154.75 204.779 224.192 155.348 203.661 
223.572 155.366 204.078 215.474 165.633 203.712 218.358 181.907 203.905 
218.443 182.418 203.804 218.345 183.368 203.944 217.365 185.666 204.257 
212.556 190.632 203.843 205.786 195.228 204.054 165.04 197.323 202.897 
230.335 102.102 204.925 226.792 102.083 205.501 231.281 102.867 204.738 
222.309 103.588 205.327 218.48 105.539 205.351 233.039 106.852 205.17 
197.041 123.596 205.625 223.342 139.792 205.683 223.928 139.653 205.68 
225.875 140.505 205.232 218.155 140.419 206.309 221.598 140.651 204.65 
221.668 140.422 205.502 218.163 141.072 206.669 219.166 140.543 205.478 
220.382 140.684 205.18 188.272 147.888 204.658 187.507 149.17 204.798 
220.668 150.906 205.908 220.984 150.666 206.018 221.683 150.564 206.221 
219.786 152.486 205.194 222.204 151.527 206.224 222.158 153.047 205.287 
223.723 154.649 205.423 217.312 179.273 204.47 218.188 181.437 204.266 
216.658 186.619 204.994 158.044 192.151 205.667 208.852 193.551 204.748 
158.609 195.672 205.063 167.045 199.489 203.792 175.138 203.43 204.77 
191.369 204.42 205.434 228.733 101.553 206.067 230.563 102.051 206.011 
215.444 107.347 206.101 197.582 122.595 206.5 229.733 123.4 205.892 
227.006 126.887 205.262 193.036 127.805 206.272 224.808 129.022 205.79 
187.739 136.482 205.868 220.841 140.589 206.029 227.076 141.127 206.07 
227.391 141.192 206.708 217.055 142.06 207.753 218.314 141.654 207.217 
217.734 142.134 207.619 219.193 141.218 206.739 188.017 147.213 206.156 
[...]
POINT_DATA 4325
COLOR_SCALARS scalars 3
0.564706 0.796078 0.929412 0.564706 0.796078 0.929412 0.564706 0.796078 0.929412 
0.564706 0.796078 0.929412 0.564706 0.796078 0.929412 
0.564706 0.796078 0.929412 0.564706 0.796078 0.929412 
0.564706 0.796078 0.929412 0.564706 0.796078 0.929412 
0.564706 0.796078 0.929412 0.564706 0.796078 0.929412 
0.564706 0.796078 0.929412 0.564706 0.796078 0.929412 
0.564706 0.796078 0.929412 0.564706 0.796078 0.929412 
0.564706 0.796078 0.929412 0.564706 0.796078 0.929412 
0.564706 0.796078 0.929412 0.564706 0.796078 0.929412 
0.564706 0.796078 0.929412 0.564706 0.796078 0.929412 
0.564706 0.796078 0.929412 0.564706 0.796078 0.929412 
0.564706 0.796078 0.929412 0.564706 0.796078 0.929412 
0.564706 0.796078 0.929412 0.564706 0.796078 0.929412 
0.564706 0.796078 0.929412 0.564706 0.796078 0.929412 
0.564706 0.796078 0.929412 0.564706 0.796078 0.929412 
0.564706 0.796078 0.929412 0.564706 0.796078 0.929412 
0.564706 0.796078 0.929412 0.564706 0.796078 0.929412 
0.564706 0.796078 0.929412 0.564706 0.796078 0.929412 
0.564706 0.796078 0.929412 0.564706 0.796078 0.929412 
0.564706 0.796078 0.929412 0.564706 0.796078 0.929412 
0.564706 0.796078 0.929412 0.564706 0.796078 0.929412 
0.564706 0.796078 0.929412 0.564706 0.796078 0.929412 
0.564706 0.796078 0.929412 0.564706 0.796078 0.929412 
0.564706 0.796078 0.929412 0.564706 0.796078 0.929412 
0.564706 0.796078 0.929412 0.564706 0.796078 0.929412 
0.564706 0.796078 0.929412 0.564706 0.796078 0.929412 
0.564706 0.796078 0.929412 0.564706 0.796078 0.929412 
0.564706 0.796078 0.929412 0.564706 0.796078 0.929412 
0.564706 0.796078 0.929412 0.564706 0.796078 0.929412 
0.564706 0.796078 0.929412 0.564706 0.796078 0.929412 
0.564706 0.796078 0.929412 0.564706 0.796078 0.929412 
0.564706 0.796078 0.929412 0.564706 0.796078 0.929412 
0.564706 0.796078 0.929412 0.564706 0.796078 0.929412 
0.564706 0.796078 0.929412 0.564706 0.796078 0.929412 
0.564706 0.796078 0.929412 0.564706 0.796078 0.929412 
0.564706 0.796078 0.929412 0.564706 0.796078 0.929412 
0.564706 0.796078 0.929412 0.564706 0.796078 0.929412 
0.564706 0.796078 0.929412 0.564706 0.796078 0.929412 
0.564706 0.796078 0.929412 0.564706 0.796078 0.929412 
0.564706 0.796078 0.929412 0.564706 0.796078 0.929412 
0.564706 0.796078 0.929412 0.564706 0.796078 0.929412 
0.564706 0.796078 0.929412 0.564706 0.796078 0.929412 
0.564706 0.796078 0.929412 0.564706 0.796078 0.929412 
0.564706 0.796078 0.929412 0.564706 0.796078 0.929412 
0.564706 0.796078 0.929412 0.564706 0.796078 0.929412 
0.564706 0.796078 0.929412 0.564706 0.796078 0.929412 
0.564706 0.796078 0.929412 0.564706 0.796078 0.929412 
0.564706 0.796078 0.929412 0.564706 0.796078 0.929412 
0.564706 0.796078 0.929412 0.564706 0.796078 0.929412 
0.564706 0.796078 0.929412 0.564706 0.796078 0.929412 
0.564706 0.796078 0.929412 0.564706 0.796078 0.929412 
0.564706 0.796078 0.929412 0.564706 0.796078 0.929412 
0.564706 0.796078 0.929412 0.564706 0.796078 0.929412 
0.564706 0.796078 0.929412 0.564706 0.796078 0.929412 
0.564706 0.796078 0.929412 0.564706 0.796078 0.929412 
0.564706 0.796078 0.929412 0.564706 0.796078 0.929412 
0.564706 0.796078 0.929412 0.564706 0.796078 0.929412 
0.564706 0.796078 0.929412 0.564706 0.796078 0.929412 
0.564706 0.796078 0.929412 0.564706 0.796078 0.929412 
0.564706 0.796078 0.929412 0.564706 0.796078 0.929412 
0.564706 0.796078 0.929412 0.564706 0.796078 0.929412 
0.564706 0.796078 0.929412 0.564706 0.796078 0.929412 
0.564706 0.796078 0.929412 0.564706 0.796078 0.929412 
0.564706 0.796078 0.929412 0.564706 0.796078 0.929412 
0.564706 0.796078 0.929412 0.564706 0.796078 0.929412 
0.564706 0.796078 0.929412 0.564706 0.796078 0.929412 
0.564706 0.796078 0.929412 0.564706 0.796078 0.929412 
0.564706 0.796078 0.929412 0.564706 0.796078 0.929412 
0.564706 0.796078 0.929412 0.564706 0.796078 0.929412 
0.564706 0.796078 0.929412 0.564706 0.796078 0.929412 
0.564706 0.796078 0.929412 0.564706 0.796078 0.929412 
0.564706 0.796078 0.929412 0.564706 0.796078 0.929412 
0.564706 0.796078 0.929412 0.564706 0.796078 0.929412 
0.564706 0.796078 0.929412 0.564706 0.796078 0.929412 
0.564706 0.796078 0.929412 0.564706 0.796078 0.929412 
0.564706 0.796078 0.929412 0.564706 0.796078 0.929412 
0.564706 0.796078 0.929412 0.564706 0.796078 0.929412 
0.564706 0.796078 0.929412 0.564706 0.796078 0.929412 
0.564706 0.796078 0.929412 0.564706 0.796078 0.929412 
0.564706 0.796078 0.929412 0.564706 0.796078 0.929412 
0.564706 0.796078 0.929412 0.564706 0.796078 0.929412 
0.564706 0.796078 0.929412 0.564706 0.796078 0.929412 
0.564706 0.796078 0.929412 0.564706 0.796078 0.929412 
0.564706 0.796078 0.929412 0.564706 0.796078 0.929412 
0.564706 0.796078 0.929412 0.564706 0.796078 0.929412 
0.564706 0.796078 0.929412 0.564706 0.796078 0.929412 
0.564706 0.796078 0.929412 0.564706 0.796078 0.929412 
0.564706 0.796078 0.929412 0.564706 0.796078 0.929412 
0.564706 0.796078 0.929412 0.564706 0.796078 0.929412 
0.564706 0.796078 0.929412 0.564706 0.796078 0.929412 
0.564706 0.796078 0.929412 0.564706 0.796078 0.929412 
0.564706 0.796078 0.929412 0.564706 0.796078 0.929412 
0.564706 0.796078 0.929412 0.564706 0.796078 0.929412 
0.564706 0.796078 0.929412 0.564706 0.796078 0.929412 
0.564706 0.796078 0.929412 0.564706 0.796078 0.929412 
0.564706 0.796078 0.929412 0.564706 0.796078 0.929412 
0.564706 0.796078 0.929412 0.564706 0.796078 0.929412 
0.564706 0.796078 0.929412 0.564706 0.796078 0.929412 
0.564706 0.796078 0.929412 0.564706 0.796078 0.929412 
0.564706 0.796078 0.929412 0.564706 0.796078 0.929412 
0.564706 0.796078 0.929412 0.564706 0.796078 0.929412 
0.564706 0.796078 0.929412 0.564706 0.796078 0.929412 
0.564706 0.796078 0.929412 0.564706 0.796078 0.929412 
0.564706 0.796078 0.929412 0.564706 0.796078 0.929412 
0.564706 0.796078 0.929412 0.564706 0.796078 0.929412 
0.564706 0.796078 0.929412 0.564706 0.796078 0.929412 
0.564706 0.796078 0.929412 0.564706 0.796078 0.929412 
0.564706 0.796078 0.929412 0.564706 0.796078 0.929412 
0.564706 0.796078 0.929412 0.564706 0.796078 0.929412 
0.564706 0.796078 0.929412 0.564706 0.796078 0.929412 
0.564706 0.796078 0.929412 0.564706 0.796078 0.929412 
0.564706 0.796078 0.929412 0.564706 0.796078 0.929412 
0.564706 0.796078 0.929412 0.564706 0.796078 0.929412 
0.564706 0.796078 0.929412 0.564706 0.796078 0.929412 
0.564706 0.796078 0.929412 0.564706 0.796078 0.929412 
0.564706 0.796078 0.929412 0.564706 0.796078 0.929412 
0.564706 0.796078 0.929412 0.564706 0.796078 0.929412 
0.564706 0.796078 0.929412 0.564706 0.796078 0.929412 
0.564706 0.796078 0.929412 0.564706 0.796078 0.929412 
0.564706 0.796078 0.929412 0.564706 0.796078 0.929412 
0.564706 0.796078 0.929412 0.564706 0.796078 0.929412 
0.564706 0.796078 0.929412 0.564706 0.796078 0.929412 
0.564706 0.796078 0.929412 0.564706 0.796078 0.929412 
0.564706 0.796078 0.929412 0.564706 0.796078 0.929412 
0.564706 0.796078 0.929412 0.564706 0.796078 0.929412 
0.564706 0.796078 0.929412 0.564706 0.796078 0.929412 
0.564706 0.796078 0.929412 0.564706 0.796078 0.929412 
0.564706 0.796078 0.929412 0.564706 0.796078 0.929412 
0.564706 0.796078 0.929412 0.564706 0.796078 0.929412 
0.564706 0.796078 0.929412 0.564706 0.796078 0.929412 
0.564706 0.796078 0.929412 0.564706 0.796078 0.929412 
0.564706 0.796078 0.929412 0.564706 0.796078 0.929412 
0.564706 0.796078 0.929412 0.564706 0.796078 0.929412 
0.564706 0.796078 0.929412 0.564706 0.796078 0.929412 
0.564706 0.796078 0.929412 0.564706 0.796078 0.929412 
0.564706 0.796078 0.929412 0.564706 0.796078 0.929412 
0.564706 0.796078 0.929412 0.564706 0.796078 0.929412 
0.564706 0.796078 0.929412 0.564706 0.796078 0.929412 
0.564706 0.796078 0.929412 0.564706 0.796078 0.929412 
0.564706 0.796078 0.929412 0.564706 0.796078 0.929412 
0.564706 0.796078 0.929412 0.564706 0.796078 0.929412 
0.564706 0.796078 0.929412 0.564706 0.796078 0.929412 
0.564706 0.796078 0.929412 0.564706 0.796078 0.929412 
0.564706 0.796078 0.929412 0.564706 0.796078 0.929412 
0.564706 0.796078 0.929412 0.564706 0.796078 0.929412 
0.564706 0.796078 0.929412 0.564706 0.796078 0.929412 
0.564706 0.796078 0.929412 0.564706 0.796078 0.929412 
0.564706 0.796078 0.929412 0.564706 0.796078 0.929412 
0.564706 0.796078 0.929412 0.564706 0.796078 0.929412 
0.564706 0.796078 0.929412 0.564706 0.796078 0.929412 
0.564706 0.796078 0.929412 0.564706 0.796078 0.929412 
0.564706 0.796078 0.929412 0.564706 0.796078 0.929412 
0.564706 0.796078 0.929412 0.564706 0.796078 0.929412 
0.564706 0.796078 0.929412 0.564706 0.796078 0.929412 
0.564706 0.796078 0.929412 0.564706 0.796078 0.929412 
0.564706 0.796078 0.929412 0.564706 0.796078 0.929412 
0.564706 0.796078 0.929412 0.564706 0.796078 0.929412 
0.564706 0.796078 0.929412 0.564706 0.796078 0.929412 
0.564706 0.796078 0.929412 0.564706 0.796078 0.929412 
0.564706 0.796078 0.929412 0.564706 0.796078 0.929412 
0.564706 0.796078 0.929412 0.564706 0.796078 0.929412 
0.564706 0.796078 0.929412 0.564706 0.796078 0.929412 
0.564706 0.796078 0.929412 0.564706 0.796078 0.929412 
0.564706 0.796078 0.929412 0.564706 0.796078 0.929412 
0.564706 0.796078 0.929412 0.564706 0.796078 0.929412 
0.564706 0.796078 0.929412 0.564706 0.796078 0.929412 
0.564706 0.796078 0.929412 0.564706 0.796078 0.929412 
0.564706 0.796078 0.929412 0.564706 0.796078 0.929412 
0.564706 0.796078 0.929412 0.564706 0.796078 0.929412 
0.564706 0.796078 0.929412 0.564706 0.796078 0.929412 
0.564706 0.796078 0.929412 0.564706 0.796078 0.929412 
0.564706 0.796078 0.929412 0.564706 0.796078 0.929412 
0.564706 0.796078 0.929412 0.564706 0.796078 0.929412 
0.564706 0.796078 0.929412 0.564706 0.796078 0.929412 
0.564706 0.796078 0.929412 0.564706 0.796078 0.929412 
0.564706 0.796078 0.929412 0.564706 0.796078 0.929412 
0.564706 0.796078 0.929412 0.564706 0.796078 0.929412 
0.564706 0.796078 0.929412 0.564706 0.796078 0.929412 
0.564706 0.796078 0.929412 0.564706 0.796078 0.929412 
0.564706 0.796078 0.929412 0.564706 0.796078 0.929412 
0.564706 0.796078 0.929412 0.564706 0.796078 0.929412 
0.564706 0.796078 0.929412 0.564706 0.796078 0.929412 
0.564706 0.796078 0.929412 0.564706 0.796078 0.929412 
0.564706 0.796078 0.929412 0.564706 0.796078 0.929412 
0.564706 0.796078 0.929412 0.564706 0.796078 0.929412 
0.564706 0.796078 0.929412 0.564706 0.796078 0.929412 
0.564706 0.796078 0.929412 0.564706 0.796078 0.929412 
0.564706 0.796078 0.929412 0.564706 0.796078 0.929412 
0.564706 0.796078 0.929412 0.564706 0.796078 0.929412 
0.564706 0.796078 0.929412 0.564706 0.796078 0.929412 
0.564706 0.796078 0.929412 0.564706 0.796078 0.929412 
0.564706 0.796078 0.929412 0.564706 0.796078 0.929412 
0.564706 0.796078 0.929412 0.564706 0.796078 0.929412 
0.564706 0.796078 0.929412 0.564706 0.796078 0.929412 
0.564706 0.796078 0.929412 0.564706 0.796078 0.929412 
0.564706 0.796078 0.929412 0.564706 0.796078 0.929412 
0.564706 0.796078 0.929412 0.564706 0.796078 0.929412 
0.564706 0.796078 0.929412 0.564706 0.796078 0.929412 
0.564706 0.796078 0.929412 0.564706 0.796078 0.929412 
0.564706 0.796078 0.929412 0.564706 0.796078 0.929412 
0.564706 0.796078 0.929412 0.564706 0.796078 0.929412 
0.564706 0.796078 0.929412 0.564706 0.796078 0.929412 
0.564706 0.796078 0.929412 0.564706 0.796078 0.929412 
0.564706 0.796078 0.929412 0.564706 0.796078 0.929412 
0.564706 0.796078 0.929412 0.564706 0.796078 0.929412 
0.564706 0.796078 0.929412 0.564706 0.796078 0.929412 
0.564706 0.796078 0.929412 0.564706 0.796078 0.929412 
0.564706 0.796078 0.929412 0.564706 0.796078 0.929412 
0.564706 0.796078 0.929412 0.564706 0.796078 0.929412 
0.564706 0.796078 0.929412 0.564706 0.796078 0.929412 
0.564706 0.796078 0.929412 0.564706 0.796078 0.929412 
0.564706 0.796078 0.929412 0.564706 0.796078 0.929412 
0.564706 0.796078 0.929412 0.564706 0.796078 0.929412 
0.564706 0.796078 0.929412 0.564706 0.796078 0.929412 
0.564706 0.796078 0.929412 0.564706 0.796078 0.929412 
0.564706 0.796078 0.929412 0.564706 0.796078 0.929412 
0.564706 0.796078 0.929412 0.564706 0.796078 0.929412 
0.564706 0.796078 0.929412 0.564706 0.796078 0.929412 
0.564706 0.796078 0.929412 0.564706 0.796078 0.929412 
0.564706 0.796078 0.929412 0.564706 0.796078 0.929412 
0.564706 0.796078 0.929412 0.564706 0.796078 0.929412 
0.564706 0.796078 0.929412 0.564706 0.796078 0.929412 
0.564706 0.796078 0.929412 0.564706 0.796078 0.929412 
0.564706 0.796078 0.929412 0.564706 0.796078 0.929412 
0.564706 0.796078 0.929412 0.564706 0.796078 0.929412 
0.564706 0.796078 0.929412 0.564706 0.796078 0.929412 
0.564706 0.796078 0.929412 0.564706 0.796078 0.929412 
0.564706 0.796078 0.929412 0.564706 0.796078 0.929412 
0.564706 0.796078 0.929412 0.564706 0.796078 0.929412 
0.564706 0.796078 0.929412 0.564706 0.796078 0.929412 
0.564706 0.796078 0.929412 0.564706 0.796078 0.929412 
0.564706 0.796078 0.929412 0.564706 0.796078 0.929412 
0.564706 0.796078 0.929412 0.564706 0.796078 0.929412 
0.564706 0.796078 0.929412 0.564706 0.796078 0.929412 
0.564706 0.796078 0.929412 0.564706 0.796078 0.929412 
0.564706 0.796078 0.929412 0.564706 0.796078 0.929412 
0.564706 0.796078 0.929412 0.564706 0.796078 0.929412 
0.564706 0.796078 0.929412 0.564706 0.796078 0.929412 
0.564706 0.796078 0.929412 0.564706 0.796078 0.929412 
0.564706 0.796078 0.929412 0.564706 0.796078 0.929412 
0.564706 0.796078 0.929412 0.564706 0.796078 0.929412 
0.564706 0.796078 0.929412 0.564706 0.796078 0.929412 
0.564706 0.796078 0.929412 0.564706 0.796078 0.929412 
0.564706 0.796078 0.929412 0.564706 0.796078 0.929412 
0.564706 0.796078 0.929412 0.564706 0.796078 0.929412 
0.564706 0.796078 0.929412 0.564706 0.796078 0.929412 
0.564706 0.796078 0.929412 0.564706 0.796078 0.929412 
0.564706 0.796078 0.929412 0.564706 0.796078 0.929412 
0.564706 0.796078 0.929412 0.564706 0.796078 0.929412 
0.564706 0.796078 0.929412 0.564706 0.796078 0.929412 
0.564706 0.796078 0.929412 0.564706 0.796078 0.929412 
0.564706 0.796078 0.929412 0.564706 0.796078 0.929412 
0.564706 0.796078 0.929412 0.564706 0.796078 0.929412 
0.564706 0.796078 0.929412 0.564706 0.796078 0.929412 
0.564706 0.796078 0.929412 0.564706 0.796078 0.929412 
0.564706 0.796078 0.929412 0.564706 0.796078 0.929412 
0.564706 0.796078 0.929412 0.564706 0.796078 0.929412 
0.564706 0.796078 0.929412 0.564706 0.796078 0.929412 
0.564706 0.796078 0.929412 0.564706 0.796078 0.929412 
0.564706 0.796078 0.929412 0.564706 0.796078 0.929412 
0.564706 0.796078 0.929412 0.564706 0.796078 0.929412 
0.564706 0.796078 0.929412 0.564706 0.796078 0.929412 
0.564706 0.796078 0.929412 0.564706 0.796078 0.929412 
0.564706 0.796078 0.929412 0.564706 0.796078 0.929412 
0.564706 0.796078 0.929412 0.564706 0.796078 0.929412 
0.564706 0.796078 0.929412 0.564706 0.796078 0.929412 
0.564706 0.796078 0.929412 0.564706 0.796078 0.929412 
0.564706 0.796078 0.929412 0.564706 0.796078 0.929412 
0.564706 0.796078 0.929412 0.564706 0.796078 0.929412 
0.564706 0.796078 0.929412 0.564706 0.796078 0.929412 
0.564706 0.796078 0.929412 0.564706 0.796078 0.929412 
0.564706 0.796078 0.929412 0.564706 0.796078 0.929412 
0.564706 0.796078 0.929412 0.564706 0.796078 0.929412 
0.564706 0.796078 0.929412 0.564706 0.796078 0.929412 
0.564706 0.796078 0.929412 0.564706 0.796078 0.929412 
0.564706 0.796078 0.929412 0.564706 0.796078 0.929412 
0.564706 0.796078 0.929412 0.564706 0.796078 0.929412 
0.564706 0.796078 0.929412 0.564706 0.796078 0.929412 
0.564706 0.796078 0.929412 0.564706 0.796078 0.929412 
0.564706 0.796078 0.929412 0.564706 0.796078 0.929412 
0.564706 0.796078 0.929412 0.564706 0.796078 0.929412 
0.564706 0.796078 0.929412 0.564706 0.796078 0.929412 
0.564706 0.796078 0.929412 0.564706 0.796078 0.929412 
0.564706 0.796078 0.929412 0.564706 0.796078 0.929412 
0.564706 0.796078 0.929412 0.564706 0.796078 0.929412 
0.564706 0.796078 0.929412 0.564706 0.796078 0.929412 
0.564706 0.796078 0.929412 0.564706 0.796078 0.929412 
0.564706 0.796078 0.929412 0.564706 0.796078 0.929412 
0.564706 0.796078 0.929412 0.564706 0.796078 0.929412 
0.564706 0.796078 0.929412 0.564706 0.796078 0.929412 
0.564706 0.796078 0.929412 0.564706 0.796078 0.929412 
0.564706 0.796078 0.929412 0.564706 0.796078 0.929412 
0.564706 0.796078 0.929412 0.564706 0.796078 0.929412 
0.564706 0.796078 0.929412 0.564706 0.796078 0.929412 
0.564706 0.796078 0.929412 0.564706 0.796078 0.929412 
0.564706 0.796078 0.929412 0.564706 0.796078 0.929412 
0.564706 0.796078 0.929412 0.564706 0.796078 0.929412 
0.564706 0.796078 0.929412 0.564706 0.796078 0.929412 
0.564706 0.796078 0.929412 0.564706 0.796078 0.929412 
0.564706 0.796078 0.929412 0.564706 0.796078 0.929412 
0.564706 0.796078 0.929412 0.564706 0.796078 0.929412 
0.564706 0.796078 0.929412 0.564706 0.796078 0.929412 
0.564706 0.796078 0.929412 0.564706 0.796078 0.929412 
0.564706 0.796078 0.929412 0.564706 0.796078 0.929412 
0.564706 0.796078 0.929412 0.564706 0.796078 0.929412 
0.564706 0.796078 0.929412 0.564706 0.796078 0.929412 
0.564706 0.796078 0.929412 0.564706 0.796078 0.929412 
0.564706 0.796078 0.929412 0.564706 0.796078 0.929412 
0.564706 0.796078 0.929412 0.564706 0.796078 0.929412 
0.564706 0.796078 0.929412 0.564706 0.796078 0.929412 
0.564706 0.796078 0.929412 0.564706 0.796078 0.929412 
0.564706 0.796078 0.929412 0.564706 0.796078 0.929412 
0.564706 0.796078 0.929412 0.564706 0.796078 0.929412 
0.564706 0.796078 0.929412 0.564706 0.796078 0.929412 
0.564706 0.796078 0.929412 0.564706 0.796078 0.929412 
0.564706 0.796078 0.929412 0.564706 0.796078 0.929412 
0.564706 0.796078 0.929412 0.564706 0.796078 0.929412 
0.564706 0.796078 0.929412 0.564706 0.796078 0.929412 
0.564706 0.796078 0.929412 0.564706 0.796078 0.929412 
0.564706 0.796078 0.929412 0.564706 0.796078 0.929412 
0.564706 0.796078 0.929412 0.564706 0.796078 0.929412 
0.564706 0.796078 0.929412 0.564706 0.796078 0.929412 
0.564706 0.796078 0.929412 0.564706 0.796078 0.929412 
0.564706 0.796078 0.929412 0.564706 0.796078 0.929412 
0.564706 0.796078 0.929412 0.564706 0.796078 0.929412 
0.564706 0.796078 0.929412 0.564706 0.796078 0.929412 
0.564706 0.796078 0.929412 0.564706 0.796078 0.929412 
0.564706 0.796078 0.929412 0.564706 0.796078 0.929412 
0.564706 0.796078 0.929412 0.564706 0.796078 0.929412 
0.564706 0.796078 0.929412 0.564706 0.796078 0.929412 
0.564706 0.796078 0.929412 0.564706 0.796078 0.929412 
0.564706 0.796078 0.929412 0.564706 0.796078 0.929412 
0.564706 0.796078 0.929412 0.564706 0.796078 0.929412 
0.564706 0.796078 0.929412 0.564706 0.796078 0.929412 
0.564706 0.796078 0.929412 0.564706 0.796078 0.929412 
0.564706 0.796078 0.929412 0.564706 0.796078 0.929412 
0.564706 0.796078 0.929412 0.564706 0.796078 0.929412 
0.564706 0.796078 0.929412 0.564706 0.796078 0.929412 
0.564706 0.796078 0.929412 0.564706 0.796078 0.929412 
0.564706 0.796078 0.929412 0.564706 0.796078 0.929412 
0.564706 0.796078 0.929412 0.564706 0.796078 0.929412 
0.564706 0.796078 0.929412 0.564706 0.796078 0.929412 
0.564706 0.796078 0.929412 0.564706 0.796078 0.929412 
0.564706 0.796078 0.929412 0.564706 0.796078 0.929412 
0.564706 0.796078 0.929412 0.564706 0.796078 0.929412 
0.564706 0.796078 0.929412 0.564706 0.796078 0.929412 
0.564706 0.796078 0.929412 0.564706 0.796078 0.929412 
0.564706 0.796078 0.929412 0.564706 0.796078 0.929412 
0.564706 0.796078 0.929412 0.564706 0.796078 0.929412 
0.564706 0.796078 0.929412 0.564706 0.796078 0.929412 
0.564706 0.796078 0.929412 0.564706 0.796078 0.929412 
0.564706 0.796078 0.929412 0.564706 0.796078 0.929412 
0.564706 0.796078 0.929412 0.564706 0.796078 0.929412 
0.564706 0.796078 0.929412 0.564706 0.796078 0.929412 
0.564706 0.796078 0.929412 0.564706 0.796078 0.929412 
0.564706 0.796078 0.929412 0.564706 0.796078 0.929412 
0.564706 0.796078 0.929412 0.564706 0.796078 0.929412 
0.564706 0.796078 0.929412 0.564706 0.796078 0.929412 
0.564706 0.796078 0.929412 0.564706 0.796078 0.929412 
0.564706 0.796078 0.929412 0.564706 0.796078 0.929412 
0.564706 0.796078 0.929412 0.564706 0.796078 0.929412 
0.564706 0.796078 0.929412 0.564706 0.796078 0.929412 