# vtk DataFile Version 4.2
vtk output
ASCII
DATASET POLYDATA
POINTS 327 float
331.239 176.073 128.907 331.16 177.492 128.559 332.955 177.186 129.211 
333.359 177.168 129.51 328.3 177.408 128.864 330.147 178.055 128.556 
332.273 177.888 128.818 327.84 177.959 129.149 327.881 178.356 129.246 
329.243 178.627 128.768 331.394 178.57 128.68 328.59 178.974 129.085 
329.017 179.04 128.988 330.504 179.233 128.911 332.512 178.978 129.109 
333.172 178.901 129.515 330.73 179.716 129.224 331.148 179.919 129.415 
331.89 179.596 129.171 329.863 173.645 129.921 329.557 173.29 130.136 
328.519 173.718 129.733 330.234 173.594 130.175 330.64 173.77 130.339 
332.171 175.565 129.647 332.455 175.421 130.083 332.785 175.665 130.266 
327.848 176.045 129.176 333.162 176.236 130.118 333.886 177.284 130.116 
333.937 178.284 130.017 327.857 178.733 129.576 333.589 178.861 129.854 
330.108 180.05 129.786 329.888 180.185 130.169 332.183 179.76 129.38 
333.02 179.484 129.749 333.514 179.233 130.186 331.299 180.194 129.898 
332.285 179.966 129.731 328.434 172.784 130.644 328.313 172.985 130.376 
328.111 173.08 130.339 328.772 173.301 130.009 327.506 173.461 130.444 
327.068 173.987 130.545 326.868 174.536 130.517 331.068 174.005 130.592 
331.912 174.726 130.611 332.974 175.778 130.77 326.351 176.616 130.37 
326.242 176.33 130.57 334.111 177.379 130.477 326.27 177.156 130.764 
334.291 177.687 130.528 334.308 177.947 130.559 334.384 177.781 130.799 
334.15 178.336 130.51 327.576 179.059 130.74 333.299 179.754 130.722 
328.171 172.704 130.998 327.815 172.869 130.957 328.847 172.652 130.928 
327.239 173.327 131.249 327.101 173.534 131.068 327.581 173.148 130.752 
329.193 172.801 130.95 330.031 173.231 131.07 326.213 175.765 130.967 
326.171 176.801 131.041 334.048 177.156 130.991 334.311 177.57 131.08 
326.244 177.214 131.094 334.392 177.859 131.095 326.667 177.994 131.326 
334.34 178.078 131.305 334.027 179.04 131.752 328.782 180.055 131.534 
332.883 180.08 130.753 332.582 180.263 131.023 333.57 179.663 131.421 
331.261 180.564 131.31 327.877 172.804 131.221 328.134 172.71 131.369 
328.451 172.613 131.23 328.777 172.627 131.144 328.653 172.627 131.35 
329.332 172.936 131.571 326.634 174.65 131.568 330.655 173.905 131.885 
326.201 176.425 131.392 328.135 172.799 131.603 327.691 173.459 132.032 
327.259 173.924 132.104 330.247 174.075 132.557 331.458 175.186 132.99 
333.653 179.567 132.727 327.093 174.436 132.297 329.301 173.775 132.686 
329.113 174.062 132.95 327.388 174.716 132.755 327.28 175.389 132.984 
330.628 174.975 133.333 326.822 176.491 132.76 327.94 179.139 133.153 
328.214 178.92 133.93 331.008 180.629 134.062 328.282 175.716 133.829 
330.037 175.169 133.65 332.221 177.263 134.918 333.332 178.198 134.664 
329.157 179.172 134.996 329.97 179.966 135.5 332.334 180.566 134.105 
332.56 180.481 134.545 332.881 180.218 134.746 329.251 177.354 134.893 
331.406 177.132 135.115 331.875 177.273 135.134 331.644 177.528 135.473 
332.883 178.443 135.613 333.124 178.796 135.448 331.036 180.596 136.003 
330.485 178.644 136.229 332.383 178.54 136.252 331.067 180.609 136.867 
332.005 180.675 136.426 331.459 178.642 136.6 331.83 179.018 136.985 
330.882 180.228 137.486 331.222 180.71 137.479 331.237 180.682 137.823 
332.429 179.597 137.251 332.28 179.964 137.654 332.24 180.352 137.827 
331.043 180.281 137.818 332.186 180.543 137.81 331.321 180.628 138.139 
331.451 180.781 138.106 331.6 180.843 138.039 331.803 180.814 138.043 
331.73 179.753 137.813 331.991 179.765 137.742 331.187 180.213 137.969 
331.725 180.029 138.05 332.146 180.243 138.033 332.02 180.332 138.219 
331.19 180.43 138.038 331.39 180.443 138.225 332.098 180.418 138.151 
332.068 180.581 138.101 331.471 180.645 138.337 331.944 180.732 138.154 
331.823 180.765 138.279 331.917 180.676 138.297 331.492 180.74 138.295 
331.648 180.79 138.265 331.848 180.317 138.27 331.593 180.574 138.385 
331.753 180.502 138.381 331.933 180.516 138.31 331.59 180.71 138.383 
331.755 180.67 138.379 331.749 180.313 316.993 331.888 180.139 317.075 
331.856 180.532 316.908 332.035 180.529 316.953 331.585 180.705 316.995 
331.519 180.775 317.13 331.764 180.707 316.925 331.959 180.683 316.943 
331.69 180.825 317.035 331.881 180.817 317.024 331.391 179.541 317.778 
331.205 180.252 317.359 332.02 180.132 317.103 331.003 180.403 317.736 
332.137 180.617 317.072 332.298 180.498 317.283 331.186 180.578 317.475 
331.382 180.763 317.426 332.049 180.761 317.087 331.803 180.893 317.179 
330.972 179.383 318.235 330.858 179.734 318.069 331.931 179.615 317.595 
331.829 179.324 317.968 332.557 180.021 317.718 332.163 180.817 317.495 
331.558 180.896 317.549 331.325 178.067 319.314 331.101 178.502 318.92 
330.494 179.491 318.79 332.319 179.202 318.333 332.599 179.437 318.3 
332.631 179.757 318.045 332.029 180.887 317.852 330.092 177.006 320.323 
331.407 177.54 319.858 329.584 177.63 320.093 330.635 178.174 319.368 
332.773 179.523 318.515 330.55 180.332 319.799 332.861 180.239 319.027 
332.169 177.422 320.327 328.805 178.121 320.625 329.619 179.42 320.095 
333.081 180.067 320.448 328.182 173.662 322.413 329.037 173.527 322.482 
328.874 174.517 321.893 330.764 174.784 322.245 327.926 176.128 321.572 
330.076 175.768 321.249 327.864 176.913 321.445 327.772 177.586 321.459 
333.755 178.221 321.516 328.126 178.141 321.22 328.576 179.236 321.477 
333.436 179.495 320.895 332.514 180.51 320.729 327.862 173.022 323.005 
328.293 173.133 322.765 329.247 173.468 322.583 326.977 175.841 322.481 
332.4 175.915 322.408 327.033 177.135 322.285 327.05 177.731 322.395 
327.276 178.135 322.246 327.55 178.7 322.365 328.06 172.716 323.323 
328.3 172.678 323.386 327.406 173.148 323.358 326.283 176.264 323.573 
326.658 177.726 323.321 328.708 180.031 323.137 329.133 180.324 323.487 
332.874 180.24 323.002 327.807 172.694 324.097 328.4 172.613 323.732 
327.191 173.322 324.111 326.946 173.716 323.874 331.126 174.121 323.78 
331.302 174.193 324.114 326.083 175.893 324.301 332.423 175.384 323.367 
326.067 176.293 324.235 326.12 176.763 324.389 334.193 178.248 323.765 
328.295 179.868 323.924 328.732 180.176 324.192 330.367 180.558 324.076 
327.739 172.763 324.257 327.961 172.715 324.322 328.07 172.859 324.592 
329.539 173.034 324.177 327.032 173.812 324.602 326.613 174.729 324.712 
331.572 174.529 324.786 326.136 175.769 324.575 332.951 175.766 324.019 
333.719 176.647 323.769 334.258 177.644 324.506 326.241 177.18 324.716 
334.284 178.126 324.329 334.318 177.894 324.506 326.365 177.582 324.534 
334.264 178.106 324.63 333.844 179.15 324.444 332.389 180.398 323.883 
331.574 180.451 324.473 328.693 172.75 324.376 327.683 173.177 324.733 
327.955 173.105 324.812 329.476 173.199 324.725 330.271 173.624 324.772 
330.692 174.007 325.024 326.824 174.642 325.062 331.431 174.565 325.133 
326.982 174.861 325.339 332.943 176.074 325.271 333.458 176.675 325.139 
326.328 176.683 325.19 334.142 177.489 324.726 326.539 176.888 325.427 
334.235 177.808 324.77 334.096 178.116 324.959 327.103 178.666 325.471 
328.995 179.906 325.48 329.958 180.175 325.417 329.409 174.764 326.142 
330.297 174.574 325.845 330.311 175.062 326.235 328.745 175.318 326.322 
326.86 176.087 325.62 332.729 176.1 325.721 327.537 176.775 326.182 
333.734 177.202 325.298 326.73 177.414 325.503 327.029 177.381 325.843 
333.679 177.524 325.534 333.74 178.074 325.483 327.252 178.705 325.748 
327.302 178.9 325.625 327.445 178.863 325.818 333.507 179.067 325.438 
333.241 179.224 325.617 333.34 178.905 325.746 327.587 179.092 325.637 
330.364 179.73 326.232 332.49 179.89 325.352 332.644 176.372 326.006 
329.241 177.099 326.906 331.596 177.267 326.983 332.19 177.778 326.849 
332.676 177.839 326.455 332.26 178.235 326.809 330.379 178.059 327.153 
332.193 178.671 326.753 329.936 178.625 326.934 330.209 179.011 326.796 
331.706 179.176 326.657 331.899 178.881 326.807 332.371 179.547 325.9 
331.442 177.709 327.135 331.034 178.614 327.09 331.375 178.465 327.121 

POLYGONS 646 2584
3 1 2 0 
3 0 2 24 
3 5 27 4 
3 27 5 1 
3 8 4 7 
3 4 8 5 
3 5 8 9 
3 2 1 6 
3 6 1 10 
3 30 2 6 
3 30 3 2 
3 9 8 11 
3 5 9 12 
3 1 5 13 
3 13 5 12 
3 10 1 13 
3 6 32 30 
3 11 12 9 
3 6 10 18 
3 14 6 18 
3 15 32 6 
3 14 15 6 
3 33 12 11 
3 13 12 33 
3 16 13 33 
3 16 17 13 
3 13 17 10 
3 17 18 10 
3 14 18 35 
3 15 14 35 
3 20 21 19 
3 22 20 19 
3 22 19 23 
3 19 21 27 
3 24 23 19 
3 23 24 48 
3 27 21 46 
3 19 27 1 
3 24 19 0 
3 0 19 1 
3 24 26 25 
3 48 24 25 
3 50 46 51 
3 24 2 26 
3 2 3 28 
3 2 28 26 
3 7 46 50 
3 27 46 7 
3 4 27 7 
3 3 30 29 
3 30 54 29 
3 8 31 11 
3 8 7 31 
3 7 53 31 
3 33 11 34 
3 15 35 36 
3 15 36 37 
3 15 37 32 
3 38 16 33 
3 17 16 38 
3 17 38 18 
3 18 38 39 
3 35 18 39 
3 36 35 39 
3 43 40 41 
3 40 43 62 
3 41 42 43 
3 62 43 20 
3 43 42 44 
3 43 44 21 
3 20 43 21 
3 20 22 66 
3 47 22 23 
3 44 45 46 
3 44 46 21 
3 47 23 48 
3 49 25 26 
3 46 68 51 
3 26 28 49 
3 28 29 49 
3 3 29 28 
3 53 50 51 
3 50 53 7 
3 52 29 54 
3 54 55 56 
3 55 57 73 
3 55 54 57 
3 54 30 57 
3 56 55 73 
3 30 32 57 
3 53 58 31 
3 11 31 34 
3 39 37 36 
3 39 59 37 
3 59 80 37 
3 57 32 37 
3 80 57 37 
3 33 34 81 
3 38 33 81 
3 38 81 39 
3 42 60 61 
3 42 41 40 
3 42 40 60 
3 60 40 62 
3 64 65 82 
3 63 64 82 
3 61 82 65 
3 42 61 65 
3 20 66 62 
3 44 64 45 
3 44 65 64 
3 42 65 44 
3 22 67 66 
3 67 22 47 
3 46 45 88 
3 68 46 88 
3 49 48 25 
3 52 54 70 
3 52 70 29 
3 29 70 49 
3 70 54 71 
3 51 69 53 
3 69 72 53 
3 54 56 71 
3 71 56 73 
3 57 75 73 
3 53 74 58 
3 74 104 58 
3 80 76 75 
3 80 75 57 
3 31 58 77 
3 34 31 77 
3 78 59 39 
3 78 79 59 
3 79 80 59 
3 34 77 106 
3 81 34 106 
3 39 81 79 
3 79 78 39 
3 82 83 91 
3 82 61 60 
3 82 60 83 
3 83 60 84 
3 85 86 84 
3 85 84 62 
3 62 84 60 
3 91 63 82 
3 66 87 86 
3 66 86 85 
3 66 85 62 
3 64 88 45 
3 67 87 66 
3 47 89 67 
3 48 89 47 
3 48 49 89 
3 68 90 51 
3 90 72 69 
3 51 90 69 
3 110 49 70 
3 70 71 110 
3 103 72 90 
3 71 73 75 
3 110 71 75 
3 72 74 53 
3 72 103 74 
3 103 104 74 
3 104 77 58 
3 80 79 96 
3 96 76 80 
3 81 106 79 
3 83 84 86 
3 91 83 86 
3 63 93 64 
3 63 92 93 
3 91 92 63 
3 86 87 91 
3 93 88 64 
3 94 98 91 
3 87 94 91 
3 87 67 94 
3 89 102 94 
3 89 94 67 
3 89 95 102 
3 68 88 90 
3 89 110 95 
3 110 89 49 
3 75 76 96 
3 93 97 88 
3 98 92 91 
3 100 97 93 
3 88 97 100 
3 98 94 99 
3 94 108 99 
3 108 94 102 
3 101 88 100 
3 88 103 90 
3 103 88 101 
3 103 105 104 
3 105 77 104 
3 96 79 115 
3 79 113 115 
3 115 75 96 
3 113 79 106 
3 92 99 93 
3 92 98 99 
3 99 101 100 
3 93 99 100 
3 107 101 99 
3 99 108 107 
3 101 107 103 
3 95 108 102 
3 109 108 95 
3 109 95 110 
3 103 111 105 
3 105 111 112 
3 77 105 112 
3 114 115 113 
3 77 112 122 
3 106 77 122 
3 113 106 114 
3 106 122 114 
3 107 108 116 
3 108 117 116 
3 118 119 117 
3 118 117 109 
3 109 117 108 
3 116 111 103 
3 107 116 103 
3 109 119 118 
3 109 120 119 
3 110 120 109 
3 110 121 120 
3 110 75 121 
3 114 136 115 
3 116 117 119 
3 123 116 127 
3 123 111 116 
3 119 127 116 
3 124 127 119 
3 120 124 119 
3 120 121 124 
3 111 129 112 
3 115 136 75 
3 112 129 125 
3 122 112 125 
3 114 122 126 
3 122 125 126 
3 136 114 126 
3 127 143 123 
3 123 143 111 
3 128 143 127 
3 124 128 127 
3 143 129 111 
3 121 75 136 
3 130 129 131 
3 130 125 129 
3 139 125 130 
3 139 126 125 
3 130 131 139 
3 141 143 128 
3 124 132 128 
3 128 132 141 
3 121 132 124 
3 132 133 142 
3 121 133 132 
3 136 134 133 
3 133 121 136 
3 129 135 137 
3 137 131 129 
3 126 139 140 
3 140 136 126 
3 131 137 138 
3 139 131 138 
3 141 132 142 
3 141 158 143 
3 141 144 158 
3 142 144 141 
3 146 144 142 
3 133 145 146 
3 133 146 142 
3 133 134 145 
3 143 147 135 
3 129 143 135 
3 148 143 158 
3 147 143 148 
3 145 149 146 
3 149 145 134 
3 149 134 150 
3 150 134 136 
3 135 147 137 
3 147 148 137 
3 148 151 137 
3 152 153 154 
3 152 154 150 
3 152 150 136 
3 137 151 155 
3 138 137 155 
3 139 138 156 
3 138 155 156 
3 153 152 140 
3 153 140 156 
3 156 140 139 
3 136 140 152 
3 144 146 157 
3 158 144 157 
3 157 159 158 
3 146 149 160 
3 146 160 157 
3 157 160 159 
3 149 150 160 
3 158 161 151 
3 148 158 151 
3 159 162 158 
3 162 161 158 
3 154 153 162 
3 154 162 160 
3 160 162 159 
3 150 154 160 
3 151 161 155 
3 156 155 161 
3 162 156 161 
3 153 156 162 
3 166 164 163 
3 166 163 165 
3 165 163 167 
3 165 167 169 
3 170 166 165 
3 169 170 165 
3 167 168 171 
3 169 167 171 
3 172 169 171 
3 170 169 172 
3 164 173 163 
3 163 173 174 
3 164 175 173 
3 167 163 174 
3 164 166 175 
3 166 177 178 
3 174 176 179 
3 179 167 174 
3 179 180 167 
3 180 168 167 
3 177 170 181 
3 166 170 177 
3 188 178 177 
3 181 188 177 
3 172 171 182 
3 171 168 182 
3 181 170 172 
3 181 172 182 
3 188 181 182 
3 173 183 184 
3 173 185 186 
3 173 186 183 
3 174 173 184 
3 173 175 185 
3 175 178 187 
3 175 187 185 
3 174 184 176 
3 175 166 178 
3 176 180 179 
3 189 180 176 
3 168 180 189 
3 168 189 182 
3 183 191 192 
3 184 183 192 
3 191 183 190 
3 183 186 190 
3 185 195 193 
3 185 193 186 
3 186 193 190 
3 193 195 194 
3 192 202 184 
3 185 187 195 
3 195 187 178 
3 201 195 178 
3 184 202 176 
3 201 178 203 
3 176 202 189 
3 196 203 188 
3 178 188 203 
3 196 182 189 
3 188 182 196 
3 197 199 200 
3 190 200 191 
3 190 198 200 
3 198 197 200 
3 191 199 192 
3 191 200 199 
3 190 193 198 
3 194 201 193 
3 193 201 198 
3 206 192 199 
3 206 202 192 
3 194 195 201 
3 196 189 220 
3 189 202 220 
3 198 204 197 
3 197 204 213 
3 199 205 206 
3 198 201 204 
3 201 203 207 
3 218 202 206 
3 220 203 196 
3 208 210 222 
3 222 210 209 
3 232 212 208 
3 210 208 212 
3 223 209 210 
3 211 223 210 
3 210 212 213 
3 211 210 213 
3 225 211 213 
3 214 212 226 
3 228 214 226 
3 197 212 199 
3 197 213 212 
3 213 204 225 
3 215 214 228 
3 212 214 217 
3 217 214 215 
3 199 217 205 
3 212 217 199 
3 228 217 215 
3 201 216 204 
3 228 205 217 
3 228 218 205 
3 218 206 205 
3 216 219 248 
3 216 201 219 
3 201 207 219 
3 203 220 207 
3 220 219 207 
3 218 236 202 
3 221 222 230 
3 221 232 208 
3 222 221 208 
3 222 209 223 
3 212 224 226 
3 232 224 212 
3 224 233 226 
3 204 216 225 
3 226 227 228 
3 228 229 218 
3 202 236 220 
3 230 238 232 
3 230 232 221 
3 230 222 231 
3 222 223 231 
3 232 244 224 
3 223 242 243 
3 211 242 223 
3 224 244 233 
3 225 245 211 
3 226 233 247 
3 234 226 247 
3 226 234 227 
3 249 227 234 
3 229 227 249 
3 229 228 227 
3 229 249 218 
3 218 249 235 
3 236 218 235 
3 219 220 237 
3 220 236 251 
3 231 239 230 
3 230 239 238 
3 232 240 241 
3 252 232 238 
3 240 232 252 
3 239 231 255 
3 223 255 231 
3 243 255 223 
3 242 211 243 
3 211 245 243 
3 225 261 260 
3 245 225 260 
3 233 246 247 
3 244 246 233 
3 225 216 261 
3 261 216 248 
3 266 234 247 
3 234 266 249 
3 248 219 264 
3 250 235 249 
3 235 250 236 
3 236 250 251 
3 220 251 270 
3 270 237 220 
3 252 238 253 
3 271 253 238 
3 271 238 239 
3 240 256 241 
3 240 272 256 
3 252 272 240 
3 254 252 253 
3 271 254 253 
3 271 239 255 
3 255 243 274 
3 232 241 244 
3 241 257 244 
3 244 257 259 
3 243 245 258 
3 245 260 258 
3 244 259 246 
3 246 259 247 
3 259 282 247 
3 248 265 262 
3 261 248 262 
3 263 247 282 
3 265 248 264 
3 247 263 266 
3 265 264 267 
3 266 287 249 
3 219 268 264 
3 268 237 269 
3 268 219 237 
3 269 237 270 
3 252 254 273 
3 272 252 273 
3 271 273 254 
3 255 274 271 
3 256 277 241 
3 272 273 256 
3 274 275 273 
3 243 275 274 
3 276 275 243 
3 241 277 257 
3 243 278 276 
3 278 243 258 
3 277 279 257 
3 257 279 259 
3 260 280 258 
3 258 280 278 
3 259 294 282 
3 259 279 294 
3 281 260 261 
3 281 280 260 
3 262 283 281 
3 262 281 261 
3 282 284 263 
3 286 283 285 
3 262 265 285 
3 283 262 285 
3 287 266 263 
3 267 286 285 
3 267 264 286 
3 265 267 285 
3 268 305 264 
3 264 305 286 
3 249 287 303 
3 249 303 308 
3 250 249 288 
3 249 308 288 
3 268 269 310 
3 305 268 310 
3 251 250 289 
3 250 288 289 
3 251 289 309 
3 251 309 270 
3 269 270 310 
3 271 274 273 
3 273 279 256 
3 273 275 276 
3 273 276 290 
3 256 279 277 
3 290 279 273 
3 290 291 292 
3 290 276 291 
3 276 278 291 
3 293 279 290 
3 278 292 291 
3 295 278 280 
3 295 280 311 
3 311 280 281 
3 294 296 282 
3 296 294 279 
3 297 281 283 
3 297 311 281 
3 284 282 296 
3 284 296 298 
3 298 296 299 
3 300 297 283 
3 300 283 301 
3 301 283 286 
3 284 298 263 
3 299 287 298 
3 299 302 287 
3 263 298 287 
3 301 286 305 
3 302 303 287 
3 302 304 303 
3 305 306 307 
3 303 304 308 
3 306 305 310 
3 309 289 288 
3 270 309 310 
3 290 292 293 
3 293 292 324 
3 279 293 312 
3 324 312 293 
3 278 313 292 
3 313 324 292 
3 278 295 311 
3 278 311 313 
3 296 279 312 
3 296 319 299 
3 324 317 312 
3 314 315 316 
3 314 313 315 
3 313 311 315 
3 297 300 315 
3 297 315 311 
3 300 301 315 
3 299 319 302 
3 312 319 296 
3 319 312 317 
3 318 316 315 
3 307 318 315 
3 301 305 307 
3 315 301 307 
3 304 302 319 
3 318 321 322 
3 319 308 304 
3 288 308 319 
3 319 309 288 
3 309 319 320 
3 318 323 321 
3 306 310 323 
3 306 323 307 
3 307 323 318 
3 310 309 321 
3 323 310 321 
3 313 314 324 
3 324 325 317 
3 314 316 324 
3 324 326 325 
3 322 326 324 
3 316 318 322 
3 324 316 322 
3 320 319 317 
3 320 317 325 
3 322 321 326 
3 320 325 309 
3 321 309 325 
3 326 321 325 

POINT_DATA 327
COLOR_SCALARS scalars 3
1 0.564706 1 1 0.564706 1 1 0.564706 1 
1 0.564706 1 1 0.564706 1 
1 0.564706 1 1 0.564706 1 
1 0.564706 1 1 0.564706 1 
1 0.564706 1 1 0.564706 1 
1 0.564706 1 1 0.564706 1 
1 0.564706 1 1 0.564706 1 
1 0.564706 1 1 0.564706 1 
1 0.564706 1 1 0.564706 1 
1 0.564706 1 1 0.564706 1 
1 0.564706 1 1 0.564706 1 
1 0.564706 1 1 0.564706 1 
1 0.564706 1 1 0.564706 1 
1 0.564706 1 1 0.564706 1 
1 0.564706 1 1 0.564706 1 
1 0.564706 1 1 0.564706 1 
1 0.564706 1 1 0.564706 1 
1 0.564706 1 1 0.564706 1 
1 0.564706 1 1 0.564706 1 
1 0.564706 1 1 0.564706 1 
1 0.564706 1 1 0.564706 1 
1 0.564706 1 1 0.564706 1 
1 0.564706 1 1 0.564706 1 
1 0.564706 1 1 0.564706 1 
1 0.564706 1 1 0.564706 1 
1 0.564706 1 1 0.564706 1 
1 0.564706 1 1 0.564706 1 
1 0.564706 1 1 0.564706 1 
1 0.564706 1 1 0.564706 1 
1 0.564706 1 1 0.564706 1 
1 0.564706 1 1 0.564706 1 
1 0.564706 1 1 0.564706 1 
1 0.564706 1 1 0.564706 1 
1 0.564706 1 1 0.564706 1 
1 0.564706 1 1 0.564706 1 
1 0.564706 1 1 0.564706 1 
1 0.564706 1 1 0.564706 1 
1 0.564706 1 1 0.564706 1 
1 0.564706 1 1 0.564706 1 
1 0.564706 1 1 0.564706 1 
1 0.564706 1 1 0.564706 1 
1 0.564706 1 1 0.564706 1 
1 0.564706 1 1 0.564706 1 
1 0.564706 1 1 0.564706 1 
1 0.564706 1 1 0.564706 1 
1 0.564706 1 1 0.564706 1 
1 0.564706 1 1 0.564706 1 
1 0.564706 1 1 0.564706 1 
1 0.564706 1 1 0.564706 1 
1 0.564706 1 1 0.564706 1 
1 0.564706 1 1 0.564706 1 
1 0.564706 1 1 0.564706 1 
1 0.564706 1 1 0.564706 1 
1 0.564706 1 1 0.564706 1 
1 0.564706 1 1 0.564706 1 
1 0.564706 1 1 0.564706 1 
1 0.564706 1 1 0.564706 1 
1 0.564706 1 1 0.564706 1 
1 0.564706 1 1 0.564706 1 
1 0.564706 1 1 0.564706 1 
1 0.564706 1 1 0.564706 1 
1 0.564706 1 1 0.564706 1 
1 0.564706 1 1 0.564706 1 
1 0.564706 1 1 0.564706 1 
1 0.564706 1 1 0.564706 1 
1 0.564706 1 1 0.564706 1 
1 0.564706 1 1 0.564706 1 
1 0.564706 1 1 0.564706 1 
1 0.564706 1 1 0.564706 1 
1 0.564706 1 1 0.564706 1 
1 0.564706 1 1 0.564706 1 
1 0.564706 1 1 0.564706 1 
1 0.564706 1 1 0.564706 1 
1 0.564706 1 1 0.564706 1 
1 0.564706 1 1 0.564706 1 
1 0.564706 1 1 0.564706 1 
1 0.564706 1 1 0.564706 1 
1 0.564706 1 1 0.564706 1 
1 0.564706 1 1 0.564706 1 
1 0.564706 1 1 0.564706 1 
1 0.564706 1 1 0.564706 1 
1 0.564706 1 1 0.564706 1 
1 0.564706 1 1 0.564706 1 
1 0.564706 1 1 0.564706 1 
1 0.564706 1 1 0.564706 1 
1 0.564706 1 1 0.564706 1 
1 0.564706 1 1 0.564706 1 
1 0.564706 1 1 0.564706 1 
1 0.564706 1 1 0.564706 1 
1 0.564706 1 1 0.564706 1 
1 0.564706 1 1 0.564706 1 
1 0.564706 1 1 0.564706 1 
1 0.564706 1 1 0.564706 1 
1 0.564706 1 1 0.564706 1 
1 0.564706 1 1 0.564706 1 
1 0.564706 1 1 0.564706 1 
1 0.564706 1 1 0.564706 1 
1 0.564706 1 1 0.564706 1 
1 0.564706 1 1 0.564706 1 
1 0.564706 1 1 0.564706 1 
1 0.564706 1 1 0.564706 1 
1 0.564706 1 1 0.564706 1 
1 0.564706 1 1 0.564706 1 
1 0.564706 1 1 0.564706 1 
1 0.564706 1 1 0.564706 1 
1 0.564706 1 1 0.564706 1 
1 0.564706 1 1 0.564706 1 
1 0.564706 1 1 0.564706 1 
1 0.564706 1 1 0.564706 1 
1 0.564706 1 1 0.564706 1 
1 0.564706 1 1 0.564706 1 
1 0.564706 1 1 0.564706 1 
1 0.564706 1 1 0.564706 1 
1 0.564706 1 1 0.564706 1 
1 0.564706 1 1 0.564706 1 
1 0.564706 1 1 0.564706 1 
1 0.564706 1 1 0.564706 1 
1 0.564706 1 1 0.564706 1 
1 0.564706 1 1 0.564706 1 
1 0.564706 1 1 0.564706 1 
1 0.564706 1 1 0.564706 1 
1 0.564706 1 1 0.564706 1 
1 0.564706 1 1 0.564706 1 
1 0.564706 1 1 0.564706 1 
1 0.564706 1 1 0.564706 1 
1 0.564706 1 1 0.564706 1 
1 0.564706 1 1 0.564706 1 
1 0.564706 1 1 0.564706 1 
1 0.564706 1 1 0.564706 1 
1 0.564706 1 1 0.564706 1 
1 0.564706 1 1 0.564706 1 
1 0.564706 1 1 0.564706 1 
1 0.564706 1 1 0.564706 1 
1 0.564706 1 1 0.564706 1 
1 0.564706 1 1 0.564706 1 
1 0.564706 1 1 0.564706 1 
1 0.564706 1 1 0.564706 1 
1 0.564706 1 1 0.564706 1 
1 0.564706 1 1 0.564706 1 
1 0.564706 1 1 0.564706 1 
1 0.564706 1 1 0.564706 1 
1 0.564706 1 1 0.564706 1 
1 0.564706 1 1 0.564706 1 
1 0.564706 1 1 0.564706 1 
1 0.564706 1 1 0.564706 1 
1 0.564706 1 1 0.564706 1 
1 0.564706 1 1 0.564706 1 
1 0.564706 1 1 0.564706 1 
1 0.564706 1 1 0.564706 1 
1 0.564706 1 1 0.564706 1 
1 0.564706 1 1 0.564706 1 
1 0.564706 1 1 0.564706 1 
1 0.564706 1 1 0.564706 1 
1 0.564706 1 1 0.564706 1 
1 0.564706 1 1 0.564706 1 
1 0.564706 1 1 0.564706 1 
1 0.564706 1 1 0.564706 1 
1 0.564706 1 1 0.564706 1 
1 0.564706 1 1 0.564706 1 
1 0.564706 1 1 0.564706 1 
1 0.564706 1 1 0.564706 1 
1 0.564706 1 1 0.564706 1 
1 0.564706 1 1 0.564706 1 

NORMALS Normals float
0.209055 -0.365409 -0.907068 0.052165 -0.0963918 -0.993976 0.502987 -0.294911 -0.812423 
0.664341 -0.282922 -0.691813 -0.298084 0.0814247 -0.951061 -0.0850734 0.125741 -0.988409 
0.420582 0.0789747 -0.903811 -0.699604 0.128559 -0.702871 -0.495843 0.224078 -0.839005 
-0.207197 0.236565 -0.949266 0.0949188 0.295679 -0.95056 -0.406885 0.602332 -0.686761 
-0.123528 0.543772 -0.830092 -0.0353877 0.443799 -0.895427 0.38854 0.317898 -0.864857 
0.58351 0.347592 -0.733959 -0.115216 0.734264 -0.669015 0.0364004 0.661862 -0.748741 
0.131071 0.596827 -0.791592 0.201677 -0.467975 -0.860422 0.250165 -0.74196 -0.622023 
-0.182386 -0.442808 -0.87787 0.446173 -0.836674 -0.317657 0.531136 -0.749996 -0.394209 
0.519528 -0.5713 -0.635379 0.628331 -0.695394 -0.348751 0.683558 -0.589762 -0.430034 
-0.303661 -0.193646 -0.932894 0.691163 -0.559452 -0.457501 0.792319 -0.441054 -0.421546 
0.735911 0.0928636 -0.670679 -0.680425 0.601297 -0.418883 0.715631 0.329745 -0.615744 
-0.173642 0.825676 -0.536757 -0.297462 0.91647 -0.267581 0.348774 0.614899 -0.707287 
0.578184 0.621101 -0.529091 0.707465 0.602567 -0.369332 0.0134938 0.89651 -0.442819 
0.314957 0.864649 -0.391386 -0.113559 -0.861571 -0.494773 -0.138982 -0.765714 -0.627986 
-0.363834 -0.715001 -0.596991 -0.0626655 -0.668674 -0.740911 -0.539059 -0.475357 -0.695306 
-0.815557 -0.371739 -0.443483 -0.72686 -0.266528 -0.63296 0.54801 -0.835011 0.0494193 
0.63792 -0.743595 -0.200311 0.747107 -0.664645 0.00880962 -0.76347 0.00380236 -0.645832 
-0.946067 -0.0694439 -0.31644 0.798464 -0.548095 -0.249094 -0.880609 0.337139 -0.332964 
0.879373 -0.238741 -0.411953 0.903445 0.194558 -0.382015 0.982869 -0.127744 -0.132852 
0.8703 0.364421 -0.331324 -0.710112 0.686283 -0.157342 0.635297 0.743009 -0.210561 
-0.280179 -0.931378 -0.232455 -0.516844 -0.813051 -0.267993 0.121767 -0.940181 -0.31817 
-0.698659 -0.667469 0.257608 -0.816448 -0.560373 -0.139265 -0.650004 -0.691739 -0.31463 
0.435439 -0.898418 -0.0569061 0.515975 -0.851294 0.0952225 -0.967166 -0.233432 -0.100497 
-0.996321 0.0766928 -0.0382386 0.803265 -0.595481 -0.0129822 0.907857 -0.391994 0.148781 
-0.944542 0.283402 0.165902 0.993941 0.098454 0.0488598 -0.860658 0.496896 0.111183 
0.972654 0.165575 0.162875 0.906512 0.421111 -0.0300418 -0.464406 0.885472 0.0163421 
0.50998 0.840923 -0.181024 0.40851 0.91001 -0.0707285 0.769485 0.623345 -0.13905 
0.0422235 0.980438 -0.192246 -0.573709 -0.818939 0.0140635 -0.283413 -0.938039 0.1994 
-0.0972779 -0.995256 -0.00157173 0.242867 -0.968163 0.060628 0.130307 -0.938293 0.320354 
0.337482 -0.844306 0.416236 -0.917573 -0.302993 0.257402 0.619737 -0.726777 0.296179 
-0.976853 -0.023491 0.212619 -0.192986 -0.813191 0.549069 -0.385769 -0.644525 0.660128 
-0.661373 -0.505931 0.553732 0.332747 -0.732381 0.594052 0.573497 -0.609998 0.546812 
0.821133 0.557354 0.122871 -0.782663 -0.291787 0.549817 0.0737503 -0.715756 0.694445 
-0.124822 -0.567797 0.81365 -0.593211 -0.353555 0.723257 -0.6087 -0.332089 0.720556 
0.402997 -0.59474 0.695613 -0.817345 0.0562219 0.573398 -0.72941 0.623347 0.281779 
-0.707682 0.533753 0.462919 -0.0416578 0.999132 0.000748323 -0.380384 -0.384073 0.841306 
0.146201 -0.578928 0.802164 0.423353 -0.687866 0.589587 0.810466 -0.481085 0.334219 
-0.777618 0.110064 0.619028 -0.664623 0.705146 0.247072 0.361971 0.930798 -0.0509154 
0.323753 0.946056 -0.012752 0.768985 0.637818 0.0430264 -0.366178 -0.425112 0.827764 
0.0871221 -0.708799 0.70001 0.29304 -0.731346 0.615842 0.208311 -0.684948 0.698179 
0.635145 -0.524827 0.566699 0.898219 -0.132649 0.419055 -0.235836 0.971626 0.017986 
-0.518666 -0.426915 0.740762 0.458291 -0.624455 0.632475 -0.423646 0.905741 0.0125025 
0.15616 0.986416 -0.050975 -0.0762398 -0.685829 0.723759 0.0664729 -0.7283 0.682027 
-0.8671 0.38413 0.317148 -0.595535 0.802114 0.0441682 -0.668537 0.727223 0.155577 
0.550608 -0.585272 0.595221 0.867327 -0.240468 0.435797 0.959742 0.143604 0.241399 
-0.879673 0.00784148 0.475514 0.828851 0.548124 0.112094 -0.806775 0.38995 0.443907 
-0.477035 0.849174 0.226588 -0.166646 0.985524 0.0311689 0.330669 0.941228 0.0689038 
-0.104603 -0.723649 0.682195 0.358685 -0.658853 0.661254 -0.52575 -0.488647 0.696284 
-0.01872 -0.638754 0.769183 0.811344 -0.240535 0.532788 0.495169 -0.451098 0.742508 
-0.779464 0.0223232 0.62605 -0.587665 -0.240598 0.772504 0.82932 0.0642738 0.555065 
0.839828 0.352773 0.412602 -0.620022 0.120751 0.775237 0.644862 0.731491 0.221527 
0.329141 0.819663 0.468848 0.643413 0.430708 0.632859 -0.512491 0.702601 0.493664 
-0.028099 0.913071 0.406831 0.107201 -0.508617 0.854293 -0.266754 -0.376763 0.887069 
0.1406 -0.243464 0.959665 0.562293 -0.0176223 0.82675 -0.191194 0.474135 0.859442 
0.230657 0.334865 0.913599 -0.235551 -0.405544 -0.883204 0.0168387 -0.54541 -0.838 
-0.0419533 -0.1047 -0.993619 0.44894 -0.173717 -0.876513 -0.621358 0.197844 -0.758137 
-0.584834 0.729262 -0.35517 -0.0945013 0.395669 -0.913518 0.388762 0.379011 -0.839771 
-0.24963 0.779601 -0.574376 0.205587 0.77383 -0.599101 -0.288197 -0.67696 -0.67725 
-0.717292 -0.181657 -0.672676 0.382004 -0.53539 -0.75328 -0.868787 0.4435 -0.220264 
0.760009 0.359691 -0.541303 0.91046 0.226285 -0.346204 -0.802153 0.440106 -0.403556 
-0.747453 0.633419 -0.200237 0.558085 0.711836 -0.426416 0.0590297 0.976112 -0.209095 
-0.389959 -0.638796 -0.663228 -0.834436 -0.188125 -0.518001 0.26384 -0.713848 -0.648698 
-0.0208767 -0.787187 -0.616361 0.823913 -0.268933 -0.498842 0.645703 0.740404 -0.186733 
-0.359659 0.932837 -0.0214332 0.0101401 -0.702795 -0.71132 -0.212153 -0.646788 -0.732568 
-0.801011 -0.0653737 -0.595069 0.411172 -0.725477 -0.551925 0.628898 -0.623574 -0.464374 
0.838266 -0.285424 -0.46459 0.294532 0.95535 0.0235953 -0.0837545 -0.635206 -0.767788 
0.18196 -0.743479 -0.643529 -0.488522 -0.342736 -0.802421 -0.1197 -0.692445 -0.711472 
0.887761 -0.266481 -0.375324 -0.666115 0.711118 -0.224947 0.834344 0.540475 -0.108432 
0.387964 -0.696172 -0.60401 -0.648582 0.351468 -0.675138 -0.747587 0.299109 -0.592999 
0.868894 0.494447 -0.0233602 -0.372419 -0.437522 -0.818461 0.11983 -0.576454 -0.808295 
0.0401152 -0.476009 -0.878525 0.499786 -0.625426 -0.599213 -0.448365 -0.299462 -0.842195 
0.120617 -0.579559 -0.805955 -0.608072 -0.0755761 -0.790276 -0.734979 0.0177333 -0.677858 
0.87923 -0.316149 -0.356377 -0.532935 0.145318 -0.833584 -0.665541 0.606356 -0.435186 
0.89104 0.447752 -0.0746099 0.273873 0.959778 0.0618059 -0.415796 -0.631285 -0.65467 
-0.017983 -0.689836 -0.723742 0.345924 -0.773019 -0.531769 -0.787213 -0.219732 -0.576206 
0.606841 -0.635297 -0.477641 -0.819649 0.0577076 -0.569953 -0.875598 0.380069 -0.298122 
-0.752448 0.383398 -0.535563 -0.805962 0.55052 -0.217606 -0.263753 -0.893728 -0.362883 
0.197269 -0.894682 -0.400785 -0.740226 -0.535353 -0.40677 -0.92109 0.000569749 -0.38935 
-0.886168 0.365006 -0.285442 -0.521816 0.824372 -0.219359 -0.316555 0.938707 -0.136463 
0.486173 0.873841 -0.00617309 -0.30341 -0.951908 0.0425973 0.0937123 -0.994084 -0.0549073 
-0.78045 -0.600992 0.172359 -0.900362 -0.434237 0.0280522 0.607481 -0.74582 -0.27335 
0.583462 -0.812141 0.000488505 -0.944015 -0.261574 -0.201035 0.665465 -0.70763 -0.237521 
-0.998152 0.0366136 -0.0485047 -0.983409 0.170003 -0.0632828 0.979592 -0.0309636 -0.198595 
-0.699427 0.713169 -0.046819 -0.408583 0.90673 0.104408 -0.0406541 0.98653 0.158446 
-0.529709 -0.769416 0.356943 -0.144012 -0.924938 0.351781 -0.142677 -0.774115 0.616757 
0.453978 -0.889966 -0.0431777 -0.698872 -0.456812 0.550365 -0.887584 -0.345338 0.304854 
0.646594 -0.747977 0.149826 -0.918417 -0.167037 0.358621 0.74337 -0.668044 -0.0334326 
0.841752 -0.519671 -0.146273 0.91933 -0.393477 0.00274081 -0.90921 0.267109 0.319358 
0.898351 0.432885 0.0746716 0.998493 -0.0351872 0.0421084 -0.887688 0.459009 -0.0363495 
0.879135 0.393605 0.268694 0.749563 0.642534 0.159075 0.361562 0.923239 0.130008 
0.099151 0.980498 0.169682 0.149011 -0.908118 0.391303 -0.550384 -0.546424 0.631267 
-0.132661 -0.577153 0.805789 0.344169 -0.787503 0.511259 0.372064 -0.744063 0.554922 
0.332801 -0.773218 0.539794 -0.814761 -0.368008 0.448035 0.490258 -0.682834 0.541651 
-0.552818 -0.34125 0.760225 0.749537 -0.572946 0.331552 0.773713 -0.583398 0.247012 
-0.836177 -0.016594 0.548208 0.83909 -0.327624 0.43427 -0.752554 0.103265 0.650384 
0.890069 -0.129817 0.43695 0.807473 0.25608 0.531424 -0.854026 0.422777 0.303149 
-0.381652 0.791631 0.477139 -0.0926996 0.933084 0.347506 -0.0435089 -0.599885 0.798902 
0.249194 -0.682072 0.687517 0.179206 -0.460274 0.869502 -0.151287 -0.346253 0.925862 