# vtk DataFile Version 4.2
vtk output
ASCII
DATASET POLYDATA
POINTS 6730 float
307.805 177.094 126.408 316.632 174.175 127.04 301.353 176.099 126.875 
298.393 177.864 127.514 315.997 179.11 127.316 300.678 172.344 127.881 
296.63 175.699 128.451 297.034 177.048 128.053 318.529 177.019 127.579 
319.884 177.453 128.255 319.326 179.898 128.594 311.019 165.128 129.287 
316.065 166.316 129.559 316.173 165.828 129.923 311.229 167.267 128.298 
305.659 169.133 128.266 318.807 168.775 129.609 299.529 170.871 129.511 
299.544 172.113 128.494 320.484 171.548 129.256 295.913 174.028 129.94 
294.918 175.845 129.951 294.418 179.155 129.699 294.812 181.143 129.634 
295.319 181.632 129.463 297.766 181.611 128.695 296.219 183.191 129.663 
310.642 164.155 130.072 312.496 164.277 130.032 311.896 163.849 130.528 
313.79 164.117 130.536 314.96 164.308 130.68 315.264 164.476 130.653 
315.789 165.321 130.08 315.939 164.926 130.801 316.319 165.211 130.95 
306.218 165.965 130.063 316.378 165.669 130.267 304.642 167.222 129.843 
304.08 167.173 130.314 300.126 169.563 131.054 299.704 170.015 130.578 
321.316 169.857 130.839 322.845 172.741 130.668 323.159 174.944 130.658 
293.865 177.098 130.73 322.661 178.462 130.584 321.342 180.484 130.132 
296.587 184.735 130.473 309.629 163.624 131.157 310.514 163.656 130.744 
311.348 163.483 131.103 307.863 164.383 131.066 307.907 164.144 131.653 
308.802 164.087 130.828 315.169 164.344 130.87 315.608 164.601 131.351 
316.544 165.341 131.485 304.117 166.473 131.489 317.815 166.348 131.356 
298.272 170.826 131.749 323.153 171.673 131.627 322.943 171.266 131.668 
323.204 171.451 131.963 296.232 172.867 131.667 324.032 176.765 131.964 
322.581 179.762 131.099 293.951 183.693 131.108 298.215 186.34 131.286 
309.59 186.399 131.525 310.531 163.493 131.487 307.866 164.115 132.056 
308.44 163.947 131.962 313.459 163.85 131.436 313.926 163.986 131.794 
303.515 166.72 132.402 297.622 171.42 132.511 324.332 173.244 132.942 
319.37 183.819 131.965 296.649 187.025 132.301 309.318 164.08 132.924 
314.101 164.222 132.298 315.938 165.143 132.72 317.366 165.976 132.644 
294.38 175.355 133.309 293.096 177.707 132.665 294.305 186.477 132.818 
314.876 165.023 133.432 301.457 168.56 133.776 322.312 169.77 133.885 
323.218 170.859 133.806 293.16 177.459 133.373 291.188 184.326 134.136 
318.132 167.063 134.978 321.684 169.268 135.232 297.814 171.861 134.313 
324.802 173.45 135.183 325.58 175.289 135.849 293.222 177.494 134.404 
290.175 183.261 135.638 290.557 186.641 135.339 307.325 166.004 135.197 
324.105 172.179 136.423 325.849 177.677 136.211 290.552 182.105 136.501 
288.891 185.316 136.707 307.447 190.165 135.948 318.385 167.993 136.847 
291.906 180.042 136.325 288.821 184.449 137.783 288.528 184.956 137.643 
288.699 185.9 136.852 287.645 186.707 138.034 288.511 187.938 137.565 
323.794 172.045 137.786 290.209 182.536 137.601 287.226 186.823 138.661 
287.603 187.681 138.178 288.964 189.188 138.008 290.599 190.091 137.863 
297.129 191.77 137.848 294.908 177.357 138.347 326.827 178.602 139.765 
288.449 184.742 138.734 286.574 187.267 140.06 286.479 187.674 139.898 
286.624 187.893 139.556 287.512 189.462 139.176 287 186.476 140.381 
286.773 186.819 140.227 286.315 187.719 140.45 286.026 188.682 140.686 
286.228 189.724 140.572 327.394 179.261 141.729 327.264 180.349 141.086 
288.136 185.343 140.597 286.428 187.397 141.461 285.733 190.016 141.33 
326.878 177.827 142.292 327.2 178.459 142.022 327.292 178.791 141.723 
327.696 180.678 142.83 327.48 181.735 142.143 326.818 182.634 141.264 
286.546 187.372 142.034 285.923 188.283 142.048 285.942 191.917 142.224 
314.417 191.973 141.599 294.049 194.692 142.184 287.118 187.062 142.702 
326.185 186.249 144.028 285.437 189.243 143.752 284.639 191.643 143.572 
284.72 191.995 143.587 285.085 192.262 143.328 284.261 191.473 144.517 
284.489 191.911 143.946 328.147 181.334 145.039 285.177 189.684 144.672 
285.835 189.203 145.164 284.402 190.855 144.924 284.42 190.93 145.685 
283.844 193.568 145.607 284.197 194.18 145.474 284.817 194.389 145.108 
286.149 194.889 144.729 328.265 182.466 145.659 286.047 189.241 145.659 
283.153 193.425 146.678 283.757 195.307 146.367 284.265 195.499 146.196 
284.566 195.9 146.347 287.618 196.11 145.447 284.292 201.377 147.233 
285.784 201.181 147.136 287.067 201.387 146.812 289.356 201.073 147.092 
290.606 201.314 146.919 291.434 201.102 147.241 283.256 202.155 147.159 
292.683 201.888 147.07 293.339 201.991 147.192 293.288 201.756 147.383 
284.112 202.329 146.746 291.83 202.059 146.827 324.941 177.057 146.806 
326.878 187.382 147.432 282.809 195.059 147.004 285.295 196.734 146.788 
283.924 201.437 147.419 284.921 201.105 147.549 291.26 200.99 147.43 
281.962 202.472 147.733 283.855 201.404 147.833 281.652 202.685 147.782 
294.519 202.787 147.439 295.254 202.302 148.038 281.593 203.254 147.647 
281.262 203.494 147.855 291.104 203.168 146.72 294.185 203.788 147.336 
295.493 203.564 147.737 327.828 182.31 147.558 281.463 196.788 148.599 
281.561 202.546 148.049 281.663 202.283 148.39 282.111 202.028 148.483 
288.269 200.896 148.36 293.165 201.359 148.304 294.995 202.035 148.101 
280.87 202.859 148.804 280.635 203.298 148.638 280.312 203.89 148.786 
298.123 203.36 148.809 280.219 204.464 148.744 281.141 204.078 147.989 
280.418 204.698 148.551 327.104 187.495 148.816 283.095 193.135 149.597 
280.9 195.227 149.922 280.572 195.735 149.692 280.25 196.046 149.885 
281.055 196.017 148.914 280.233 196.963 149.577 280.02 197.543 149.738 
280.177 198.088 149.76 281.291 202.468 148.714 280.676 202.983 149.3 
281.198 202.58 149.213 299.293 203.128 149.926 279.986 203.818 149.778 
279.747 204.3 149.622 299.057 203.913 149.192 299.987 203.879 149.808 
300.377 203.681 150.202 279.544 204.835 149.756 298.563 204.425 148.867 
300.527 204.413 149.938 301.035 204.479 150.302 298.366 205.001 148.829 
299.903 205.107 149.502 299.149 205.688 149.26 299.646 205.511 149.429 
279.44 206.369 149.87 279.563 206.64 149.822 291.173 208.328 148.819 
278.512 198.34 150.939 278.996 199.171 150.712 279.517 199.355 150.523 
280.388 203.295 149.645 282.723 202.171 150.068 300.646 203.733 150.414 
300.429 203.531 150.48 279.341 205.094 150.249 301.922 205.25 150.912 
301.777 204.837 150.98 301.635 205.582 150.595 302.209 205.512 151.236 
279.062 206.207 150.746 279.126 206.962 150.807 279.865 207.691 150.124 
279.675 207.969 150.47 295.769 208.832 149.712 315.898 175.697 150.362 
277.092 198.529 152.24 276.859 198.953 152.306 276.664 199.417 152.413 
276.879 199.988 152.3 280.85 200.625 150.94 287.275 202.193 151.229 
300.906 203.725 151.237 279.32 205.137 150.923 301.316 204.096 151.326 
301.835 204.631 151.461 302.256 205.101 151.9 278.905 207.052 151.486 
278.982 208.786 152.035 300.962 208.668 151.244 327.356 187.518 151.864 
276.099 199.472 153.065 275.955 199.856 153.174 276.128 200.422 153.004 
282.254 203.463 152.055 279.353 205.577 152.201 278.893 206.721 151.817 
302.853 206.306 152.855 278.827 207.359 152.063 313.575 176.831 152.351 
327.448 186.532 152.515 327.434 187.135 152.354 276.482 198.653 153.31 
275.856 199.535 153.505 277.161 201.837 152.958 280.974 202.761 152.757 
302.404 205.347 153.072 303.39 208.032 153.72 302.816 210.717 153.854 
311.719 177.611 153.565 313.733 177.544 153.534 320.056 178.681 153.419 
323.318 180.636 153.761 323.67 181.016 153.936 325.704 183.797 154.661 
276.745 198.1 154.376 274.877 200.554 154.588 277.151 203.01 153.818 
293.175 202.872 153.258 299.3 203.936 153.814 280.034 205.425 153.214 
290.678 203.741 153.93 291.676 203.438 153.648 292.844 203.326 153.62 
302.317 205.471 153.891 303.461 207.689 154.427 303.664 208.069 154.234 
303.722 208.261 154.237 303.775 208.209 154.336 303.75 208.709 154.579 
279.229 212.635 154.322 327.257 186.915 153.542 315.36 201.094 154.949 
290.742 203.648 153.928 292.043 203.298 153.609 293.487 203.321 153.769 
294.472 203.454 154.063 295.274 203.581 154.375 290.162 204.467 154.901 
294.019 203.379 153.794 288.743 205.122 155.495 302.632 206.273 154.779 
279.088 208.11 154.798 303.732 208.21 154.538 303.675 208.31 155.34 
304.082 209.385 155.692 278.553 210.204 154.967 304.126 209.838 155.722 
303.743 210.766 155.159 304.042 210.374 155.608 303.684 211.508 155.526 
302.32 213.066 155.279 313.178 178.696 156.107 317.508 178.898 155.798 
321.249 180.678 156.795 326.512 188.394 155.012 325.627 190.009 156.046 
273.761 203.116 156.274 294.584 203.492 154.061 295.279 203.652 154.366 
296.195 204.002 155.003 297.019 204.664 156.201 288.531 205.161 155.583 
290.669 205.228 156.027 290.757 205.291 156.088 291.364 205.567 156.586 
291.769 205.743 156.884 292.264 205.926 157.225 311.998 203.93 156.626 
287.557 205.719 156.048 289.829 205.458 156.142 302.176 206.136 155.511 
304.22 210.327 156.305 303.926 212.019 156.404 302.867 212.953 155.638 
303.152 212.947 155.937 258.238 229.778 157.488 259.144 230.194 157.198 
259.269 229.965 157.389 258.418 230.684 156.883 258.211 231.857 156.562 
260.213 231.667 157.072 258.804 232.749 156.556 259.289 232.765 156.617 
309.293 179.485 156.346 322.944 182.348 157.112 274.05 200.407 156.815 
272.892 202.084 157.281 272.714 202.503 157.394 272.586 202.264 157.685 
272.781 202.964 157.358 291.935 205.79 157.005 296.327 205.609 157.584 
295.586 205.942 157.961 296.871 205.366 157.396 296.731 205.343 157.135 
303.913 204.87 156.879 290.827 206.291 157.373 292.642 206.023 157.505 
292.373 206.124 157.449 293.196 206.139 157.702 296.197 205.78 157.666 
300.432 206.047 156.901 283.055 206.832 157.142 287.981 206.575 157.141 
302.719 207.26 156.527 279.773 208.259 156.034 282.697 207.544 156.982 
304.254 210.29 157.072 278.281 211.532 157.469 278.093 211.96 157.256 
278.125 212.059 156.738 255.849 232.363 157.002 258.288 232.898 156.579 
260.895 233.199 156.991 261.565 233.126 157.242 263.055 233.146 157.887 
260.46 234.252 156.906 261.891 235.081 157.315 260.967 235.647 157.234 
324.762 191.235 157.417 324.72 191.029 157.889 319.279 198.989 158.124 
[...]
POINT_DATA 6730
COLOR_SCALARS scalars 3
0.94902 0.282353 0.231373 0.94902 0.282353 0.231373 0.94902 0.282353 0.231373 
0.94902 0.282353 0.231373 0.94902 0.282353 0.231373 
0.94902 0.282353 0.231373 0.94902 0.282353 0.231373 
0.94902 0.282353 0.231373 0.94902 0.282353 0.231373 
0.94902 0.282353 0.231373 0.94902 0.282353 0.231373 
0.94902 0.282353 0.231373 0.94902 0.282353 0.231373 
0.94902 0.282353 0.231373 0.94902 0.282353 0.231373 
0.94902 0.282353 0.231373 0.94902 0.282353 0.231373 
0.94902 0.282353 0.231373 0.94902 0.282353 0.231373 
0.94902 0.282353 0.231373 0.94902 0.282353 0.231373 
0.94902 0.282353 0.231373 0.94902 0.282353 0.231373 
0.94902 0.282353 0.231373 0.94902 0.282353 0.231373 
0.94902 0.282353 0.231373 0.94902 0.282353 0.231373 
0.94902 0.282353 0.231373 0.94902 0.282353 0.231373 
0.94902 0.282353 0.231373 0.94902 0.282353 0.231373 
0.94902 0.282353 0.231373 0.94902 0.282353 0.231373 
0.94902 0.282353 0.231373 0.94902 0.282353 0.231373 
0.94902 0.282353 0.231373 0.94902 0.282353 0.231373 
0.94902 0.282353 0.231373 0.94902 0.282353 0.231373 
0.94902 0.282353 0.231373 0.94902 0.282353 0.231373 
0.94902 0.282353 0.231373 0.94902 0.282353 0.231373 
0.94902 0.282353 0.231373 0.94902 0.282353 0.231373 
0.94902 0.282353 0.231373 0.94902 0.282353 0.231373 
0.94902 0.282353 0.231373 0.94902 0.282353 0.231373 
0.94902 0.282353 0.231373 0.94902 0.282353 0.231373 
0.94902 0.282353 0.231373 0.94902 0.282353 0.231373 
0.94902 0.282353 0.231373 0.94902 0.282353 0.231373 
0.94902 0.282353 0.231373 0.94902 0.282353 0.231373 
0.94902 0.282353 0.231373 0.94902 0.282353 0.231373 
0.94902 0.282353 0.231373 0.94902 0.282353 0.231373 
0.94902 0.282353 0.231373 0.94902 0.282353 0.231373 
0.94902 0.282353 0.231373 0.94902 0.282353 0.231373 
0.94902 0.282353 0.231373 0.94902 0.282353 0.231373 
0.94902 0.282353 0.231373 0.94902 0.282353 0.231373 
0.94902 0.282353 0.231373 0.94902 0.282353 0.231373 
0.94902 0.282353 0.231373 0.94902 0.282353 0.231373 
0.94902 0.282353 0.231373 0.94902 0.282353 0.231373 
0.94902 0.282353 0.231373 0.94902 0.282353 0.231373 
0.94902 0.282353 0.231373 0.94902 0.282353 0.231373 
0.94902 0.282353 0.231373 0.94902 0.282353 0.231373 
0.94902 0.282353 0.231373 0.94902 0.282353 0.231373 
0.94902 0.282353 0.231373 0.94902 0.282353 0.231373 
0.94902 0.282353 0.231373 0.94902 0.282353 0.231373 
0.94902 0.282353 0.231373 0.94902 0.282353 0.231373 
0.94902 0.282353 0.231373 0.94902 0.282353 0.231373 
0.94902 0.282353 0.231373 0.94902 0.282353 0.231373 
0.94902 0.282353 0.231373 0.94902 0.282353 0.231373 
0.94902 0.282353 0.231373 0.94902 0.282353 0.231373 
0.94902 0.282353 0.231373 0.94902 0.282353 0.231373 
0.94902 0.282353 0.231373 0.94902 0.282353 0.231373 
0.94902 0.282353 0.231373 0.94902 0.282353 0.231373 
0.94902 0.282353 0.231373 0.94902 0.282353 0.231373 
0.94902 0.282353 0.231373 0.94902 0.282353 0.231373 
0.94902 0.282353 0.231373 0.94902 0.282353 0.231373 
0.94902 0.282353 0.231373 0.94902 0.282353 0.231373 
0.94902 0.282353 0.231373 0.94902 0.282353 0.231373 
0.94902 0.282353 0.231373 0.94902 0.282353 0.231373 
0.94902 0.282353 0.231373 0.94902 0.282353 0.231373 
0.94902 0.282353 0.231373 0.94902 0.282353 0.231373 
0.94902 0.282353 0.231373 0.94902 0.282353 0.231373 
0.94902 0.282353 0.231373 0.94902 0.282353 0.231373 
0.94902 0.282353 0.231373 0.94902 0.282353 0.231373 
0.94902 0.282353 0.231373 0.94902 0.282353 0.231373 
0.94902 0.282353 0.231373 0.94902 0.282353 0.231373 
0.94902 0.282353 0.231373 0.94902 0.282353 0.231373 
0.94902 0.282353 0.231373 0.94902 0.282353 0.231373 
0.94902 0.282353 0.231373 0.94902 0.282353 0.231373 
0.94902 0.282353 0.231373 0.94902 0.282353 0.231373 
0.94902 0.282353 0.231373 0.94902 0.282353 0.231373 
0.94902 0.282353 0.231373 0.94902 0.282353 0.231373 
0.94902 0.282353 0.231373 0.94902 0.282353 0.231373 
0.94902 0.282353 0.231373 0.94902 0.282353 0.231373 
0.94902 0.282353 0.231373 0.94902 0.282353 0.231373 
0.94902 0.282353 0.231373 0.94902 0.282353 0.231373 
0.94902 0.282353 0.231373 0.94902 0.282353 0.231373 
0.94902 0.282353 0.231373 0.94902 0.282353 0.231373 
0.94902 0.282353 0.231373 0.94902 0.282353 0.231373 
0.94902 0.282353 0.231373 0.94902 0.282353 0.231373 
0.94902 0.282353 0.231373 0.94902 0.282353 0.231373 
0.94902 0.282353 0.231373 0.94902 0.282353 0.231373 
0.94902 0.282353 0.231373 0.94902 0.282353 0.231373 
0.94902 0.282353 0.231373 0.94902 0.282353 0.231373 
0.94902 0.282353 0.231373 0.94902 0.282353 0.231373 
0.94902 0.282353 0.231373 0.94902 0.282353 0.231373 
0.94902 0.282353 0.231373 0.94902 0.282353 0.231373 
0.94902 0.282353 0.231373 0.94902 0.282353 0.231373 
0.94902 0.282353 0.231373 0.94902 0.282353 0.231373 
0.94902 0.282353 0.231373 0.94902 0.282353 0.231373 
0.94902 0.282353 0.231373 0.94902 0.282353 0.231373 
0.94902 0.282353 0.231373 0.94902 0.282353 0.231373 
0.94902 0.282353 0.231373 0.94902 0.282353 0.231373 
0.94902 0.282353 0.231373 0.94902 0.282353 0.231373 
0.94902 0.282353 0.231373 0.94902 0.282353 0.231373 
0.94902 0.282353 0.231373 0.94902 0.282353 0.231373 
0.94902 0.282353 0.231373 0.94902 0.282353 0.231373 
0.94902 0.282353 0.231373 0.94902 0.282353 0.231373 
0.94902 0.282353 0.231373 0.94902 0.282353 0.231373 
0.94902 0.282353 0.231373 0.94902 0.282353 0.231373 
0.94902 0.282353 0.231373 0.94902 0.282353 0.231373 
0.94902 0.282353 0.231373 0.94902 0.282353 0.231373 
0.94902 0.282353 0.231373 0.94902 0.282353 0.231373 
0.94902 0.282353 0.231373 0.94902 0.282353 0.231373 
0.94902 0.282353 0.231373 0.94902 0.282353 0.231373 
0.94902 0.282353 0.231373 0.94902 0.282353 0.231373 
0.94902 0.282353 0.231373 0.94902 0.282353 0.231373 
0.94902 0.282353 0.231373 0.94902 0.282353 0.231373 
0.94902 0.282353 0.231373 0.94902 0.282353 0.231373 
0.94902 0.282353 0.231373 0.94902 0.282353 0.231373 
0.94902 0.282353 0.231373 0.94902 0.282353 0.231373 
0.94902 0.282353 0.231373 0.94902 0.282353 0.231373 
0.94902 0.282353 0.231373 0.94902 0.282353 0.231373 
0.94902 0.282353 0.231373 0.94902 0.282353 0.231373 
0.94902 0.282353 0.231373 0.94902 0.282353 0.231373 
0.94902 0.282353 0.231373 0.94902 0.282353 0.231373 
0.94902 0.282353 0.231373 0.94902 0.282353 0.231373 
0.94902 0.282353 0.231373 0.94902 0.282353 0.231373 
0.94902 0.282353 0.231373 0.94902 0.282353 0.231373 
0.94902 0.282353 0.231373 0.94902 0.282353 0.231373 
0.94902 0.282353 0.231373 0.94902 0.282353 0.231373 
0.94902 0.282353 0.231373 0.94902 0.282353 0.231373 
0.94902 0.282353 0.231373 0.94902 0.282353 0.231373 
0.94902 0.282353 0.231373 0.94902 0.282353 0.231373 
0.94902 0.282353 0.231373 0.94902 0.282353 0.231373 
0.94902 0.282353 0.231373 0.94902 0.282353 0.231373 
0.94902 0.282353 0.231373 0.94902 0.282353 0.231373 
0.94902 0.282353 0.231373 0.94902 0.282353 0.231373 
0.94902 0.282353 0.231373 0.94902 0.282353 0.231373 
0.94902 0.282353 0.231373 0.94902 0.282353 0.231373 
0.94902 0.282353 0.231373 0.94902 0.282353 0.231373 
0.94902 0.282353 0.231373 0.94902 0.282353 0.231373 
0.94902 0.282353 0.231373 0.94902 0.282353 0.231373 
0.94902 0.282353 0.231373 0.94902 0.282353 0.231373 
0.94902 0.282353 0.231373 0.94902 0.282353 0.231373 
0.94902 0.282353 0.231373 0.94902 0.282353 0.231373 
0.94902 0.282353 0.231373 0.94902 0.282353 0.231373 
0.94902 0.282353 0.231373 0.94902 0.282353 0.231373 
0.94902 0.282353 0.231373 0.94902 0.282353 0.231373 
0.94902 0.282353 0.231373 0.94902 0.282353 0.231373 
0.94902 0.282353 0.231373 0.94902 0.282353 0.231373 
0.94902 0.282353 0.231373 0.94902 0.282353 0.231373 
0.94902 0.282353 0.231373 0.94902 0.282353 0.231373 
0.94902 0.282353 0.231373 0.94902 0.282353 0.231373 
0.94902 0.282353 0.231373 0.94902 0.282353 0.231373 
0.94902 0.282353 0.231373 0.94902 0.282353 0.231373 
0.94902 0.282353 0.231373 0.94902 0.282353 0.231373 
0.94902 0.282353 0.231373 0.94902 0.282353 0.231373 
0.94902 0.282353 0.231373 0.94902 0.282353 0.231373 
0.94902 0.282353 0.231373 0.94902 0.282353 0.231373 
0.94902 0.282353 0.231373 0.94902 0.282353 0.231373 
0.94902 0.282353 0.231373 0.94902 0.282353 0.231373 
0.94902 0.282353 0.231373 0.94902 0.282353 0.231373 
0.94902 0.282353 0.231373 0.94902 0.282353 0.231373 
0.94902 0.282353 0.231373 0.94902 0.282353 0.231373 
0.94902 0.282353 0.231373 0.94902 0.282353 0.231373 
0.94902 0.282353 0.231373 0.94902 0.282353 0.231373 
0.94902 0.282353 0.231373 0.94902 0.282353 0.231373 
0.94902 0.282353 0.231373 0.94902 0.282353 0.231373 
0.94902 0.282353 0.231373 0.94902 0.282353 0.231373 
0.94902 0.282353 0.231373 0.94902 0.282353 0.231373 
0.94902 0.282353 0.231373 0.94902 0.282353 0.231373 
0.94902 0.282353 0.231373 0.94902 0.282353 0.231373 
0.94902 0.282353 0.231373 0.94902 0.282353 0.231373 
0.94902 0.282353 0.231373 0.94902 0.282353 0.231373 
0.94902 0.282353 0.231373 0.94902 0.282353 0.231373 
0.94902 0.282353 0.231373 0.94902 0.282353 0.231373 
0.94902 0.282353 0.231373 0.94902 0.282353 0.231373 
0.94902 0.282353 0.231373 0.94902 0.282353 0.231373 
0.94902 0.282353 0.231373 0.94902 0.282353 0.231373 
0.94902 0.282353 0.231373 0.94902 0.282353 0.231373 
0.94902 0.282353 0.231373 0.94902 0.282353 0.231373 
0.94902 0.282353 0.231373 0.94902 0.282353 0.231373 
0.94902 0.282353 0.231373 0.94902 0.282353 0.231373 
0.94902 0.282353 0.231373 0.94902 0.282353 0.231373 
0.94902 0.282353 0.231373 0.94902 0.282353 0.231373 
0.94902 0.282353 0.231373 0.94902 0.282353 0.231373 
0.94902 0.282353 0.231373 0.94902 0.282353 0.231373 
0.94902 0.282353 0.231373 0.94902 0.282353 0.231373 
0.94902 0.282353 0.231373 0.94902 0.282353 0.231373 
0.94902 0.282353 0.231373 0.94902 0.282353 0.231373 
0.94902 0.282353 0.231373 0.94902 0.282353 0.231373 
0.94902 0.282353 0.231373 0.94902 0.282353 0.231373 
0.94902 0.282353 0.231373 0.94902 0.282353 0.231373 
0.94902 0.282353 0.231373 0.94902 0.282353 0.231373 
0.94902 0.282353 0.231373 0.94902 0.282353 0.231373 
0.94902 0.282353 0.231373 0.94902 0.282353 0.231373 
0.94902 0.282353 0.231373 0.94902 0.282353 0.231373 
0.94902 0.282353 0.231373 0.94902 0.282353 0.231373 
0.94902 0.282353 0.231373 0.94902 0.282353 0.231373 
0.94902 0.282353 0.231373 0.94902 0.282353 0.231373 
0.94902 0.282353 0.231373 0.94902 0.282353 0.231373 
0.94902 0.282353 0.231373 0.94902 0.282353 0.231373 
0.94902 0.282353 0.231373 0.94902 0.282353 0.231373 
0.94902 0.282353 0.231373 0.94902 0.282353 0.231373 
0.94902 0.282353 0.231373 0.94902 0.282353 0.231373 
0.94902 0.282353 0.231373 0.94902 0.282353 0.231373 
0.94902 0.282353 0.231373 0.94902 0.282353 0.231373 
0.94902 0.282353 0.231373 0.94902 0.282353 0.231373 
0.94902 0.282353 0.231373 0.94902 0.282353 0.231373 
0.94902 0.282353 0.231373 0.94902 0.282353 0.231373 
0.94902 0.282353 0.231373 0.94902 0.282353 0.231373 
0.94902 0.282353 0.231373 0.94902 0.282353 0.231373 
0.94902 0.282353 0.231373 0.94902 0.282353 0.231373 
0.94902 0.282353 0.231373 0.94902 0.282353 0.231373 
0.94902 0.282353 0.231373 0.94902 0.282353 0.231373 
0.94902 0.282353 0.231373 0.94902 0.282353 0.231373 
0.94902 0.282353 0.231373 0.94902 0.282353 0.231373 
0.94902 0.282353 0.231373 0.94902 0.282353 0.231373 
0.94902 0.282353 0.231373 0.94902 0.282353 0.231373 
0.94902 0.282353 0.231373 0.94902 0.282353 0.231373 
0.94902 0.282353 0.231373 0.94902 0.282353 0.231373 
0.94902 0.282353 0.231373 0.94902 0.282353 0.231373 
0.94902 0.282353 0.231373 0.94902 0.282353 0.231373 
0.94902 0.282353 0.231373 0.94902 0.282353 0.231373 
0.94902 0.282353 0.231373 0.94902 0.282353 0.231373 
0.94902 0.282353 0.231373 0.94902 0.282353 0.231373 
0.94902 0.282353 0.231373 0.94902 0.282353 0.231373 
0.94902 0.282353 0.231373 0.94902 0.282353 0.231373 
0.94902 0.282353 0.231373 0.94902 0.282353 0.231373 
0.94902 0.282353 0.231373 0.94902 0.282353 0.231373 
0.94902 0.282353 0.231373 0.94902 0.282353 0.231373 
0.94902 0.282353 0.231373 0.94902 0.282353 0.231373 
0.94902 0.282353 0.231373 0.94902 0.282353 0.231373 
0.94902 0.282353 0.231373 0.94902 0.282353 0.231373 
0.94902 0.282353 0.231373 0.94902 0.282353 0.231373 
0.94902 0.282353 0.231373 0.94902 0.282353 0.231373 
0.94902 0.282353 0.231373 0.94902 0.282353 0.231373 
0.94902 0.282353 0.231373 0.94902 0.282353 0.231373 
0.94902 0.282353 0.231373 0.94902 0.282353 0.231373 
0.94902 0.282353 0.231373 0.94902 0.282353 0.231373 
0.94902 0.282353 0.231373 0.94902 0.282353 0.231373 
0.94902 0.282353 0.231373 0.94902 0.282353 0.231373 
0.94902 0.282353 0.231373 0.94902 0.282353 0.231373 
0.94902 0.282353 0.231373 0.94902 0.282353 0.231373 
0.94902 0.282353 0.231373 0.94902 0.282353 0.231373 
0.94902 0.282353 0.231373 0.94902 0.282353 0.231373 
0.94902 0.282353 0.231373 0.94902 0.282353 0.231373 
0.94902 0.282353 0.231373 0.94902 0.282353 0.231373 
0.94902 0.282353 0.231373 0.94902 0.282353 0.231373 
0.94902 0.282353 0.231373 0.94902 0.282353 0.231373 
0.94902 0.282353 0.231373 0.94902 0.282353 0.231373 
0.94902 0.282353 0.231373 0.94902 0.282353 0.231373 
0.94902 0.282353 0.231373 0.94902 0.282353 0.231373 
0.94902 0.282353 0.231373 0.94902 0.282353 0.231373 
0.94902 0.282353 0.231373 0.94902 0.282353 0.231373 
0.94902 0.282353 0.231373 0.94902 0.282353 0.231373 
0.94902 0.282353 0.231373 0.94902 0.282353 0.231373 
0.94902 0.282353 0.231373 0.94902 0.282353 0.231373 
0.94902 0.282353 0.231373 0.94902 0.282353 0.231373 
0.94902 0.282353 0.231373 0.94902 0.282353 0.231373 
0.94902 0.282353 0.231373 0.94902 0.282353 0.231373 
0.94902 0.282353 0.231373 0.94902 0.282353 0.231373 
0.94902 0.282353 0.231373 0.94902 0.282353 0.231373 
0.94902 0.282353 0.231373 0.94902 0.282353 0.231373 
0.94902 0.282353 0.231373 0.94902 0.282353 0.231373 
0.94902 0.282353 0.231373 0.94902 0.282353 0.231373 
0.94902 0.282353 0.231373 0.94902 0.282353 0.231373 
0.94902 0.282353 0.231373 0.94902 0.282353 0.231373 
0.94902 0.282353 0.231373 0.94902 0.282353 0.231373 
0.94902 0.282353 0.231373 0.94902 0.282353 0.231373 
0.94902 0.282353 0.231373 0.94902 0.282353 0.231373 
0.94902 0.282353 0.231373 0.94902 0.282353 0.231373 
0.94902 0.282353 0.231373 0.94902 0.282353 0.231373 
0.94902 0.282353 0.231373 0.94902 0.282353 0.231373 
0.94902 0.282353 0.231373 0.94902 0.282353 0.231373 
0.94902 0.282353 0.231373 0.94902 0.282353 0.231373 
0.94902 0.282353 0.231373 0.94902 0.282353 0.231373 
0.94902 0.282353 0.231373 0.94902 0.282353 0.231373 
0.94902 0.282353 0.231373 0.94902 0.282353 0.231373 
0.94902 0.282353 0.231373 0.94902 0.282353 0.231373 
0.94902 0.282353 0.231373 0.94902 0.282353 0.231373 
0.94902 0.282353 0.231373 0.94902 0.282353 0.231373 
0.94902 0.282353 0.231373 0.94902 0.282353 0.231373 
0.94902 0.282353 0.231373 0.94902 0.282353 0.231373 
0.94902 0.282353 0.231373 0.94902 0.282353 0.231373 
0.94902 0.282353 0.231373 0.94902 0.282353 0.231373 
0.94902 0.282353 0.231373 0.94902 0.282353 0.231373 
0.94902 0.282353 0.231373 0.94902 0.282353 0.231373 
0.94902 0.282353 0.231373 0.94902 0.282353 0.231373 
0.94902 0.282353 0.231373 0.94902 0.282353 0.231373 
0.94902 0.282353 0.231373 0.94902 0.282353 0.231373 
0.94902 0.282353 0.231373 0.94902 0.282353 0.231373 
0.94902 0.282353 0.231373 0.94902 0.282353 0.231373 
0.94902 0.282353 0.231373 0.94902 0.282353 0.231373 
0.94902 0.282353 0.231373 0.94902 0.282353 0.231373 
0.94902 0.282353 0.231373 0.94902 0.282353 0.231373 
0.94902 0.282353 0.231373 0.94902 0.282353 0.231373 
0.94902 0.282353 0.231373 0.94902 0.282353 0.231373 
0.94902 0.282353 0.231373 0.94902 0.282353 0.231373 
0.94902 0.282353 0.231373 0.94902 0.282353 0.231373 
0.94902 0.282353 0.231373 0.94902 0.282353 0.231373 
0.94902 0.282353 0.231373 0.94902 0.282353 0.231373 
0.94902 0.282353 0.231373 0.94902 0.282353 0.231373 
0.94902 0.282353 0.231373 0.94902 0.282353 0.231373 
0.94902 0.282353 0.231373 0.94902 0.282353 0.231373 
0.94902 0.282353 0.231373 0.94902 0.282353 0.231373 
0.94902 0.282353 0.231373 0.94902 0.282353 0.231373 
0.94902 0.282353 0.231373 0.94902 0.282353 0.231373 
0.94902 0.282353 0.231373 0.94902 0.282353 0.231373 
0.94902 0.282353 0.231373 0.94902 0.282353 0.231373 
0.94902 0.282353 0.231373 0.94902 0.282353 0.231373 
0.94902 0.282353 0.231373 0.94902 0.282353 0.231373 
0.94902 0.282353 0.231373 0.94902 0.282353 0.231373 
0.94902 0.282353 0.231373 0.94902 0.282353 0.231373 
0.94902 0.282353 0.231373 0.94902 0.282353 0.231373 
0.94902 0.282353 0.231373 0.94902 0.282353 0.231373 
0.94902 0.282353 0.231373 0.94902 0.282353 0.231373 
0.94902 0.282353 0.231373 0.94902 0.282353 0.231373 
0.94902 0.282353 0.231373 0.94902 0.282353 0.231373 
0.94902 0.282353 0.231373 0.94902 0.282353 0.231373 
0.94902 0.282353 0.231373 0.94902 0.282353 0.231373 
0.94902 0.282353 0.231373 0.94902 0.282353 0.231373 
0.94902 0.282353 0.231373 0.94902 0.282353 0.231373 
0.94902 0.282353 0.231373 0.94902 0.282353 0.231373 
0.94902 0.282353 0.231373 0.94902 0.282353 0.231373 
0.94902 0.282353 0.231373 0.94902 0.282353 0.231373 
0.94902 0.282353 0.231373 0.94902 0.282353 0.231373 
0.94902 0.282353 0.231373 0.94902 0.282353 0.231373 
0.94902 0.282353 0.231373 0.94902 0.282353 0.231373 
0.94902 0.282353 0.231373 0.94902 0.282353 0.231373 
0.94902 0.282353 0.231373 0.94902 0.282353 0.231373 
0.94902 0.282353 0.231373 0.94902 0.282353 0.231373 
0.94902 0.282353 0.231373 0.94902 0.282353 0.231373 
0.94902 0.282353 0.231373 0.94902 0.282353 0.231373 
0.94902 0.282353 0.231373 0.94902 0.282353 0.231373 
0.94902 0.282353 0.231373 0.94902 0.282353 0.231373 
0.94902 0.282353 0.231373 0.94902 0.282353 0.231373 
0.94902 0.282353 0.231373 0.94902 0.282353 0.231373 
0.94902 0.282353 0.231373 0.94902 0.282353 0.231373 
0.94902 0.282353 0.231373 0.94902 0.282353 0.231373 
0.94902 0.282353 0.231373 0.94902 0.282353 0.231373 
0.94902 0.282353 0.231373 0.94902 0.282353 0.231373 
0.94902 0.282353 0.231373 0.94902 0.282353 0.231373 
0.94902 0.282353 0.231373 0.94902 0.282353 0.231373 
0.94902 0.282353 0.231373 0.94902 0.282353 0.231373 
0.94902 0.282353 0.231373 0.94902 0.282353 0.231373 
0.94902 0.282353 0.231373 0.94902 0.282353 0.231373 
0.94902 0.282353 0.231373 0.94902 0.282353 0.231373 
0.94902 0.282353 0.231373 0.94902 0.282353 0.231373 
0.94902 0.282353 0.231373 0.94902 0.282353 0.231373 
0.94902 0.282353 0.231373 0.94902 0.282353 0.231373 
0.94902 0.282353 0.231373 0.94902 0.282353 0.231373 
0.94902 0.282353 0.231373 0.94902 0.282353 0.231373 
0.94902 0.282353 0.231373 0.94902 0.282353 0.231373 
0.94902 0.282353 0.231373 0.94902 0.282353 0.231373 
0.94902 0.282353 0.231373 0.94902 0.282353 0.231373 
0.94902 0.282353 0.231373 0.94902 0.282353 0.231373 
0.94902 0.282353 0.231373 0.94902 0.282353 0.231373 
0.94902 0.282353 0.231373 0.94902 0.282353 0.231373 
0.94902 0.282353 0.231373 0.94902 0.282353 0.231373 
0.94902 0.282353 0.231373 0.94902 0.282353 0.231373 
0.94902 0.282353 0.231373 0.94902 0.282353 0.231373 
0.94902 0.282353 0.231373 0.94902 0.282353 0.231373 
0.94902 0.282353 0.231373 0.94902 0.282353 0.231373 
0.94902 0.282353 0.231373 0.94902 0.282353 0.231373 
0.94902 0.282353 0.231373 0.94902 0.282353 0.231373 
0.94902 0.282353 0.231373 0.94902 0.282353 0.231373 
0.94902 0.282353 0.231373 0.94902 0.282353 0.231373 
0.94902 0.282353 0.231373 0.94902 0.282353 0.231373 
0.94902 0.282353 0.231373 0.94902 0.282353 0.231373 
0.94902 0.282353 0.231373 0.94902 0.282353 0.231373 
0.94902 0.282353 0.231373 0.94902 0.282353 0.231373 
0.94902 0.282353 0.231373 0.94902 0.282353 0.231373 
0.94902 0.282353 0.231373 0.94902 0.282353 0.231373 
0.94902 0.282353 0.231373 0.94902 0.282353 0.231373 
0.94902 0.282353 0.231373 0.94902 0.282353 0.231373 
0.94902 0.282353 0.231373 0.94902 0.282353 0.231373 
0.94902 0.282353 0.231373 0.94902 0.282353 0.231373 
0.94902 0.282353 0.231373 0.94902 0.282353 0.231373 
0.94902 0.282353 0.231373 0.94902 0.282353 0.231373 
0.94902 0.282353 0.231373 0.94902 0.282353 0.231373 
0.94902 0.282353 0.231373 0.94902 0.282353 0.231373 
0.94902 0.282353 0.231373 0.94902 0.282353 0.231373 
0.94902 0.282353 0.231373 0.94902 0.282353 0.231373 
0.94902 0.282353 0.231373 0.94902 0.282353 0.231373 
0.94902 0.282353 0.231373 0.94902 0.282353 0.231373 
0.94902 0.282353 0.231373 0.94902 0.282353 0.231373 