# vtk DataFile Version 4.2
vtk output
ASCII
DATASET POLYDATA
POINTS 452 float
344.522 159.439 222.561 344.513 159.431 222.577 344.485 159.466 222.571 
344.528 159.462 222.583 329.987 174.159 221.942 329.852 174.057 222.043 
330.18 174.126 221.913 330.132 173.898 221.988 330.392 174.233 221.941 
344.463 159.464 222.622 344.483 159.618 222.647 344.53 159.456 222.624 
344.513 159.568 222.697 344.024 159.885 222.738 344.474 159.748 222.735 
343.681 160.513 222.767 343.991 160.386 222.789 344.231 160.21 222.845 
344.407 159.934 222.784 343.658 161.068 222.961 343.98 160.605 222.913 
343.262 161.621 222.963 339.842 163.762 223.126 339.537 164.596 222.824 
339.413 165.76 222.665 337.851 167.02 222.576 339.693 166.032 222.749 
333.849 169.983 222.406 333.781 169.603 222.61 337.863 168.33 222.649 
338.397 167.896 222.756 334.312 170.259 222.246 333.43 171.191 222.192 
334.068 170.926 222.187 330.135 172.57 222.773 333.167 171.885 222.147 
334.905 171.801 222.444 328.918 174.325 222.67 328.628 174.094 223.012 
329.531 174.237 222.261 333.944 172.898 222.423 328 175.45 223.043 
329.15 174.952 222.416 329.774 174.782 222.148 327.826 176.578 223.157 
329.186 176.135 222.55 329.83 175.97 222.449 331.959 175.436 222.751 
327.978 177.006 223.245 330.346 176.29 222.65 330.923 176.23 222.746 
328.18 177.164 223.143 328.339 177.31 223.197 328.702 177.344 223.198 
344.463 159.474 222.669 344.512 159.48 222.682 344.462 159.502 222.71 
343.985 159.885 222.848 344.419 159.615 222.768 344.439 159.741 222.796 
342.65 160.969 223.038 342.385 161.169 223.122 344.365 160.028 222.834 
344.409 159.907 222.823 341.962 161.589 223.232 343.848 160.856 223.004 
344.247 160.172 222.914 343.617 161.211 223.151 342.91 162.56 223.306 
342.386 163.552 223.384 342.666 163.111 223.358 342.042 164.065 223.413 
336.574 166.747 223.212 341.217 165.134 223.395 339.94 166.678 223.187 
340.005 166.944 223.478 331.319 171.119 223.355 328.882 173.336 223.558 
336.718 171.321 223.47 337.104 170.858 223.513 334.751 172.517 222.653 
336.273 171.853 223.444 327.948 174.977 223.399 327.687 175.498 223.28 
327.626 175.462 223.445 327.509 175.754 223.369 333.376 174.167 222.697 
334.017 174.02 223.105 334.54 173.685 223.369 335.01 173.228 223.475 
333.71 174.516 223.361 334.144 174.131 223.496 327.465 176.249 223.386 
332.645 175.216 223.004 333.28 174.923 223.449 327.583 176.469 223.324 
327.749 176.742 223.435 331.137 176.311 222.931 328.149 177.255 223.283 
328.047 177.167 223.49 329.613 177.181 223.102 329.906 177.121 223.229 
328.363 177.393 223.393 328.69 177.472 223.428 329.516 177.299 223.317 
344.323 159.616 222.759 343.343 160.388 223.077 344.138 159.864 222.905 
343.183 160.594 223.178 342.316 161.366 223.381 341.093 162.437 223.566 
342.831 162.675 223.533 338.473 164.941 223.606 342.591 163.311 223.454 
338.136 165.4 223.837 337.352 166.055 223.724 341.848 164.387 223.562 
342.451 163.48 223.572 335.818 167.326 223.796 341.37 164.966 223.681 
340.51 166.236 223.723 340.791 165.736 223.842 333.946 168.887 223.763 
339.817 167.286 223.619 337.784 169.746 223.988 336.977 171.101 223.614 
328.461 173.92 223.885 336.039 172.191 223.586 336.793 171.288 223.714 
328.03 174.812 223.81 335.54 172.66 223.662 327.526 175.688 223.524 
327.751 175.406 223.677 327.575 175.82 223.646 327.457 175.99 223.487 
327.484 176.255 223.528 327.54 176.448 223.464 327.675 176.427 223.662 
331.643 176.081 223.494 328.159 177.204 223.762 328.27 177.371 223.599 
328.394 177.38 223.738 328.529 177.461 223.595 328.896 177.449 223.602 
343.869 160.169 223.065 343.737 160.47 223.176 341.464 162.43 223.83 
342.478 162.45 223.883 342.326 162.894 223.948 342.105 163.792 223.792 
336.171 167.081 223.951 337.203 166.456 224.089 341.011 165.238 223.962 
336.775 167.02 224.234 333.829 169.065 223.914 339.702 167.231 223.959 
339.329 167.382 224.192 337.992 169.232 224.154 329.095 173.182 224.217 
335.818 172.106 224.028 335.195 172.37 224.313 328.211 174.715 224.076 
328.529 174.405 224.259 334.918 173.035 224.043 328.372 174.901 224.235 
333.984 173.958 224.049 333.308 174.21 224.325 327.559 176.089 223.645 
333.048 174.81 224.009 332.369 175.045 224.271 328.041 176.874 223.918 
328.048 177.039 223.853 328.217 177.037 223.948 329.848 176.792 224.079 
330.19 176.452 224.211 328.451 177.226 223.902 328.69 177.376 223.788 
329.129 177.28 223.825 341.809 162.698 224.033 341.242 163.266 224.099 
337.922 166.125 224.248 341.172 164.288 224.154 340.152 165.359 224.319 
335.536 168.877 224.544 337.015 168.106 224.58 333.655 170.053 224.453 
334.534 169.841 224.619 338.248 168.008 224.438 333.543 170.776 224.712 
335.648 169.862 224.715 336.991 169.198 224.573 331.095 172.081 224.692 
331.689 172.034 224.802 333.188 171.39 224.813 334.65 170.841 224.793 
330.279 172.691 224.763 332.883 172.074 224.897 335.023 171.201 224.726 
330.322 173.258 224.854 330.388 172.822 224.877 331.848 173.012 224.951 
334.84 171.993 224.602 329.387 173.685 224.686 331.654 173.645 224.927 
333.04 173.098 224.822 328.406 175.472 224.253 330.764 174.513 224.836 
331.449 174.277 224.836 332.91 173.849 224.639 329.865 175.446 224.637 
330.56 175.177 224.688 328.637 176.494 224.237 328.545 176.932 224.081 
330.453 172.668 224.866 329.475 173.46 224.714 339.133 167.526 231.098 
338.275 168.632 231.023 339.033 167.675 231.133 338.488 168.432 231.127 
332.772 170.58 231.034 332.849 170.454 231.092 332.692 170.579 231.107 
337.053 170.229 230.899 336.796 170.119 230.817 338.148 168.821 231.072 
330.478 171.872 231.389 330.179 172.201 231.241 331.097 172.103 230.928 
331.161 171.582 231.237 332.71 170.845 231.008 337.231 170.373 231.071 
330.069 172.59 231.099 329.887 172.418 231.312 331.165 172.524 230.77 
336.141 171.226 230.844 329.814 173.381 230.967 335.285 172.379 230.917 
335.519 172.19 231.005 328.726 173.987 231.326 328.592 174.541 231.257 
329.579 174.254 230.861 334.296 173.465 230.999 334.217 173.63 231.084 
328.653 175.956 231.164 328.473 176.202 231.324 343.235 160.931 232.141 
343.456 160.821 232.165 343.657 160.79 232.188 341.83 162.035 232.08 
342.915 161.732 231.892 343.366 161.634 232.077 339.927 164.272 231.623 
339.824 163.995 231.846 339.741 164.895 231.427 340.31 164.458 231.46 
340.913 164.067 231.494 342.66 162.851 231.872 338.179 166.072 231.466 
341.925 163.856 231.733 338.485 166.526 231.219 339.664 165.88 231.259 
340.628 165.251 231.458 341.118 164.816 231.59 335.229 168.446 231.466 
336.234 167.863 231.359 337.54 167.484 231.142 338.189 167.238 231.111 
339.286 166.813 231.177 340.401 165.847 231.533 340.821 165.349 231.647 
334.094 168.933 231.886 336.514 168.404 231.069 338.601 167.77 231.069 
333.096 170.214 231.289 337.659 168.847 230.978 332.158 170.944 231.243 
333.365 170.826 230.939 335.186 170.114 230.861 336.596 169.656 230.844 
337.886 169.312 231.16 330.06 172.14 231.447 330.215 171.925 231.8 
330.887 171.447 231.65 337.581 169.971 231.267 337.989 169.464 231.45 
331.698 172.791 230.7 336.955 170.979 231.202 328.237 173.935 231.981 
328.668 173.672 231.578 328.588 173.508 231.951 333.037 172.971 230.727 
334.637 172.548 230.877 336.757 171.244 231.384 334.937 172.865 231.097 
330.546 175.128 230.817 332.842 174.727 231.233 331.235 175.672 231.161 
328.01 176.854 231.939 329.072 176.744 231.489 329.567 176.74 231.525 
330.344 176.466 231.484 331.725 175.974 231.657 328.253 176.924 231.806 
328.752 177.291 231.991 329.47 177.103 231.82 329.168 177.307 232.059 
343.79 160.451 232.363 344.126 160.247 232.502 344.108 160.013 232.608 
344.314 160.12 232.614 344.435 159.917 232.734 343.876 160.668 232.313 
343.778 161.074 232.282 340.889 162.735 232.255 343.571 161.508 232.23 
339.445 164.255 231.959 343.22 162.019 232.208 338.995 164.656 232.078 
342.572 163.067 231.904 337.448 166.089 231.949 341.716 164.237 231.778 
342.02 163.835 231.88 341.288 164.775 231.774 334.676 168.33 232.121 
340.388 165.997 231.792 331.349 171.005 231.89 330.216 171.912 232.29 
338.002 169.47 231.711 329.07 172.937 232.353 328.027 174.357 232.146 
336.277 171.775 231.423 327.726 175.057 232.175 327.535 175.489 232.11 
327.51 175.47 232.289 327.423 175.751 232.238 327.42 176.019 232.201 
334.054 174.181 231.768 327.458 176.281 232.281 327.605 176.501 232.175 
332.33 175.741 231.972 328.474 177.306 232.077 328.339 177.33 232.234 
329.628 177.21 232.016 329.938 177.129 232.141 329.149 177.395 232.348 
344.357 159.771 232.746 344.365 159.687 232.836 344.45 159.775 232.764 
344.454 159.694 232.821 344.479 159.767 232.831 343.34 160.392 232.729 
344.351 160.191 232.767 341.951 161.704 232.59 343.712 160.976 232.718 
338.547 165.121 232.216 341.643 163.627 232.528 341.477 164.117 232.366 
340.827 164.732 232.438 336.145 167.029 232.265 336.381 166.909 232.367 
335.078 167.923 232.248 340.169 166.042 232.17 333.892 168.952 232.368 
335.015 168.068 232.447 331.407 170.946 232.227 331.966 170.637 232.489 
329.924 172.19 232.435 330.69 171.62 232.534 336.634 170.701 232.482 
328.964 173.09 232.503 336.412 171.35 232.118 328.167 174.193 232.453 
328.219 174.331 232.674 327.464 175.684 232.403 333.52 174.469 232.472 
327.555 175.802 232.552 327.485 176.305 232.457 332.388 175.65 232.283 
327.59 176.549 232.388 327.803 176.741 232.569 331.715 176.13 232.394 
331.584 176.112 232.645 328.128 177.201 232.309 328.342 177.341 232.447 
328.597 177.403 232.561 328.947 177.391 232.564 329.427 177.28 232.552 
344.331 159.694 232.902 344.191 159.761 232.844 344.435 159.691 232.886 
344.432 159.802 232.906 343.6 160.133 232.83 343.754 160.024 232.873 
343.959 159.896 232.86 344.334 159.868 232.955 343.212 160.601 232.853 
343.845 160.375 232.947 344.061 160.147 232.966 342.169 161.562 232.752 
342.914 161.129 232.852 340.639 163.171 232.54 341.126 162.565 232.602 
342.008 161.965 232.772 341.124 162.7 232.672 340.78 163.743 232.668 
337.659 166.261 232.578 336.281 167.843 232.986 337.133 167.533 233.095 
337.513 167.475 232.987 337.089 167.714 233.139 338.387 166.926 232.788 
[...]
POINT_DATA 452
COLOR_SCALARS scalars 3
1 0.564706 1 1 0.564706 1 1 0.564706 1 
1 0.564706 1 1 0.564706 1 
1 0.564706 1 1 0.564706 1 
1 0.564706 1 1 0.564706 1 
1 0.564706 1 1 0.564706 1 
1 0.564706 1 1 0.564706 1 
1 0.564706 1 1 0.564706 1 
1 0.564706 1 1 0.564706 1 
1 0.564706 1 1 0.564706 1 
1 0.564706 1 1 0.564706 1 
1 0.564706 1 1 0.564706 1 
1 0.564706 1 1 0.564706 1 
1 0.564706 1 1 0.564706 1 
1 0.564706 1 1 0.564706 1 
1 0.564706 1 1 0.564706 1 
1 0.564706 1 1 0.564706 1 
1 0.564706 1 1 0.564706 1 
1 0.564706 1 1 0.564706 1 
1 0.564706 1 1 0.564706 1 
1 0.564706 1 1 0.564706 1 
1 0.564706 1 1 0.564706 1 
1 0.564706 1 1 0.564706 1 
1 0.564706 1 1 0.564706 1 
1 0.564706 1 1 0.564706 1 
1 0.564706 1 1 0.564706 1 
1 0.564706 1 1 0.564706 1 
1 0.564706 1 1 0.564706 1 
1 0.564706 1 1 0.564706 1 
1 0.564706 1 1 0.564706 1 
1 0.564706 1 1 0.564706 1 
1 0.564706 1 1 0.564706 1 
1 0.564706 1 1 0.564706 1 
1 0.564706 1 1 0.564706 1 
1 0.564706 1 1 0.564706 1 
1 0.564706 1 1 0.564706 1 
1 0.564706 1 1 0.564706 1 
1 0.564706 1 1 0.564706 1 
1 0.564706 1 1 0.564706 1 
1 0.564706 1 1 0.564706 1 
1 0.564706 1 1 0.564706 1 
1 0.564706 1 1 0.564706 1 
1 0.564706 1 1 0.564706 1 
1 0.564706 1 1 0.564706 1 
1 0.564706 1 1 0.564706 1 
1 0.564706 1 1 0.564706 1 
1 0.564706 1 1 0.564706 1 
1 0.564706 1 1 0.564706 1 
1 0.564706 1 1 0.564706 1 
1 0.564706 1 1 0.564706 1 
1 0.564706 1 1 0.564706 1 
1 0.564706 1 1 0.564706 1 
1 0.564706 1 1 0.564706 1 
1 0.564706 1 1 0.564706 1 
1 0.564706 1 1 0.564706 1 
1 0.564706 1 1 0.564706 1 
1 0.564706 1 1 0.564706 1 
1 0.564706 1 1 0.564706 1 
1 0.564706 1 1 0.564706 1 
1 0.564706 1 1 0.564706 1 
1 0.564706 1 1 0.564706 1 
1 0.564706 1 1 0.564706 1 
1 0.564706 1 1 0.564706 1 
1 0.564706 1 1 0.564706 1 
1 0.564706 1 1 0.564706 1 
1 0.564706 1 1 0.564706 1 
1 0.564706 1 1 0.564706 1 
1 0.564706 1 1 0.564706 1 
1 0.564706 1 1 0.564706 1 
1 0.564706 1 1 0.564706 1 
1 0.564706 1 1 0.564706 1 
1 0.564706 1 1 0.564706 1 
1 0.564706 1 1 0.564706 1 
1 0.564706 1 1 0.564706 1 
1 0.564706 1 1 0.564706 1 
1 0.564706 1 1 0.564706 1 
1 0.564706 1 1 0.564706 1 
1 0.564706 1 1 0.564706 1 
1 0.564706 1 1 0.564706 1 
1 0.564706 1 1 0.564706 1 
1 0.564706 1 1 0.564706 1 
1 0.564706 1 1 0.564706 1 
1 0.564706 1 1 0.564706 1 
1 0.564706 1 1 0.564706 1 
1 0.564706 1 1 0.564706 1 
1 0.564706 1 1 0.564706 1 
1 0.564706 1 1 0.564706 1 
1 0.564706 1 1 0.564706 1 
1 0.564706 1 1 0.564706 1 
1 0.564706 1 1 0.564706 1 
1 0.564706 1 1 0.564706 1 
1 0.564706 1 1 0.564706 1 
1 0.564706 1 1 0.564706 1 
1 0.564706 1 1 0.564706 1 
1 0.564706 1 1 0.564706 1 
1 0.564706 1 1 0.564706 1 
1 0.564706 1 1 0.564706 1 
1 0.564706 1 1 0.564706 1 
1 0.564706 1 1 0.564706 1 
1 0.564706 1 1 0.564706 1 
1 0.564706 1 1 0.564706 1 
1 0.564706 1 1 0.564706 1 
1 0.564706 1 1 0.564706 1 
1 0.564706 1 1 0.564706 1 
1 0.564706 1 1 0.564706 1 
1 0.564706 1 1 0.564706 1 
1 0.564706 1 1 0.564706 1 
1 0.564706 1 1 0.564706 1 
1 0.564706 1 1 0.564706 1 
1 0.564706 1 1 0.564706 1 
1 0.564706 1 1 0.564706 1 
1 0.564706 1 1 0.564706 1 
1 0.564706 1 1 0.564706 1 
1 0.564706 1 1 0.564706 1 
1 0.564706 1 1 0.564706 1 
1 0.564706 1 1 0.564706 1 
1 0.564706 1 1 0.564706 1 
1 0.564706 1 1 0.564706 1 
1 0.564706 1 1 0.564706 1 
1 0.564706 1 1 0.564706 1 
1 0.564706 1 1 0.564706 1 
1 0.564706 1 1 0.564706 1 
1 0.564706 1 1 0.564706 1 
1 0.564706 1 1 0.564706 1 
1 0.564706 1 1 0.564706 1 
1 0.564706 1 1 0.564706 1 
1 0.564706 1 1 0.564706 1 
1 0.564706 1 1 0.564706 1 
1 0.564706 1 1 0.564706 1 
1 0.564706 1 1 0.564706 1 
1 0.564706 1 1 0.564706 1 
1 0.564706 1 1 0.564706 1 
1 0.564706 1 1 0.564706 1 
1 0.564706 1 1 0.564706 1 
1 0.564706 1 1 0.564706 1 
1 0.564706 1 1 0.564706 1 
1 0.564706 1 1 0.564706 1 
1 0.564706 1 1 0.564706 1 
1 0.564706 1 1 0.564706 1 
1 0.564706 1 1 0.564706 1 
1 0.564706 1 1 0.564706 1 
1 0.564706 1 1 0.564706 1 
1 0.564706 1 1 0.564706 1 
1 0.564706 1 1 0.564706 1 
1 0.564706 1 1 0.564706 1 
1 0.564706 1 1 0.564706 1 
1 0.564706 1 1 0.564706 1 
1 0.564706 1 1 0.564706 1 
1 0.564706 1 1 0.564706 1 
1 0.564706 1 1 0.564706 1 
1 0.564706 1 1 0.564706 1 
1 0.564706 1 1 0.564706 1 
1 0.564706 1 1 0.564706 1 
1 0.564706 1 1 0.564706 1 
1 0.564706 1 1 0.564706 1 
1 0.564706 1 1 0.564706 1 
1 0.564706 1 1 0.564706 1 
1 0.564706 1 1 0.564706 1 
1 0.564706 1 1 0.564706 1 
1 0.564706 1 1 0.564706 1 
1 0.564706 1 1 0.564706 1 
1 0.564706 1 1 0.564706 1 
1 0.564706 1 1 0.564706 1 
1 0.564706 1 1 0.564706 1 
1 0.564706 1 1 0.564706 1 
1 0.564706 1 1 0.564706 1 
1 0.564706 1 1 0.564706 1 
1 0.564706 1 1 0.564706 1 
1 0.564706 1 1 0.564706 1 
1 0.564706 1 1 0.564706 1 
1 0.564706 1 1 0.564706 1 
1 0.564706 1 1 0.564706 1 
1 0.564706 1 1 0.564706 1 
1 0.564706 1 1 0.564706 1 
1 0.564706 1 1 0.564706 1 
1 0.564706 1 1 0.564706 1 
1 0.564706 1 1 0.564706 1 
1 0.564706 1 1 0.564706 1 
1 0.564706 1 1 0.564706 1 
1 0.564706 1 1 0.564706 1 
1 0.564706 1 1 0.564706 1 
1 0.564706 1 1 0.564706 1 
1 0.564706 1 1 0.564706 1 
1 0.564706 1 1 0.564706 1 
1 0.564706 1 1 0.564706 1 
1 0.564706 1 1 0.564706 1 
1 0.564706 1 1 0.564706 1 
1 0.564706 1 1 0.564706 1 
1 0.564706 1 1 0.564706 1 
1 0.564706 1 1 0.564706 1 
1 0.564706 1 1 0.564706 1 
1 0.564706 1 1 0.564706 1 
1 0.564706 1 1 0.564706 1 
1 0.564706 1 1 0.564706 1 
1 0.564706 1 1 0.564706 1 
1 0.564706 1 1 0.564706 1 
1 0.564706 1 1 0.564706 1 
1 0.564706 1 1 0.564706 1 
1 0.564706 1 1 0.564706 1 
1 0.564706 1 1 0.564706 1 
1 0.564706 1 1 0.564706 1 
1 0.564706 1 1 0.564706 1 
1 0.564706 1 1 0.564706 1 
1 0.564706 1 1 0.564706 1 
1 0.564706 1 1 0.564706 1 
1 0.564706 1 1 0.564706 1 
1 0.564706 1 1 0.564706 1 
1 0.564706 1 1 0.564706 1 
1 0.564706 1 1 0.564706 1 
1 0.564706 1 1 0.564706 1 
1 0.564706 1 1 0.564706 1 
1 0.564706 1 1 0.564706 1 
1 0.564706 1 1 0.564706 1 
1 0.564706 1 1 0.564706 1 
1 0.564706 1 1 0.564706 1 
1 0.564706 1 1 0.564706 1 
1 0.564706 1 1 0.564706 1 
1 0.564706 1 1 0.564706 1 
1 0.564706 1 1 0.564706 1 
1 0.564706 1 1 0.564706 1 
1 0.564706 1 1 0.564706 1 
1 0.564706 1 1 0.564706 1 
1 0.564706 1 1 0.564706 1 
1 0.564706 1 1 0.564706 1 
1 0.564706 1 1 0.564706 1 
1 0.564706 1 1 0.564706 1 
1 0.564706 1 
NORMALS Normals float
0.537826 0.103473 -0.836682 0.114657 -0.988791 -0.0956371 -0.499412 -0.328361 -0.801728 
0.986229 -0.0493682 -0.157847 -0.324011 0.0145756 -0.945941 -0.56406 -0.498002 -0.658658 
0.0137029 -0.0903893 -0.995812 -0.262041 -0.466599 -0.84476 0.118447 0.193203 -0.973983 
-0.556652 -0.829695 0.0417691 0.857117 0.357647 -0.370727 0.769156 -0.594971 0.233257 
0.92415 0.0330148 0.3806 -0.644399 -0.579909 -0.498453 0.965171 0.249715 0.078015 
-0.000276491 0.0676845 -0.997707 0.338795 0.391856 -0.855375 0.73971 0.56695 -0.362487 
0.803101 0.450478 -0.389997 0.680212 0.49385 -0.541686 0.728276 0.525742 -0.439555 
0.61873 0.400715 -0.675722 -0.609349 -0.596609 -0.522255 -0.208518 -0.280367 -0.936971 
0.159884 -0.032795 -0.986591 -0.0949206 -0.169199 -0.981 0.390042 0.24325 -0.888086 
-0.227139 -0.300266 -0.926417 -0.448989 -0.548142 -0.705655 0.486155 0.37695 -0.788392 
0.427405 0.346845 -0.834879 0.016236 -0.144246 -0.989409 -0.15718 -0.135238 -0.978266 
0.00854727 -0.0382838 -0.99923 -0.499213 -0.476527 -0.723677 0.0504397 0.00331048 -0.998722 
0.221409 0.160479 -0.961886 -0.620551 -0.238267 -0.747091 -0.738122 -0.376154 -0.560075 
-0.583394 -0.285069 -0.760518 0.344261 0.291105 -0.892604 -0.600067 -0.191118 -0.776784 
-0.454372 0.0369394 -0.890046 -0.198882 0.203436 -0.958676 -0.610506 0.274903 -0.742773 
-0.129223 0.333957 -0.933689 -0.0402294 0.317798 -0.947305 0.393606 0.623401 -0.675607 
-0.76605 0.503174 -0.399979 0.187128 0.515185 -0.836401 0.266647 0.515485 -0.814355 
-0.393 0.41263 -0.821759 -0.25896 0.767644 -0.586227 -0.0426589 0.697838 -0.714984 
-0.268047 -0.884999 0.380694 0.427413 -0.552129 0.715871 -0.0635621 -0.643617 0.762704 
-0.508054 -0.767912 0.390119 0.254923 -0.349236 0.901692 0.531596 -0.114763 0.839187 
-0.562312 -0.535034 -0.630511 -0.663952 -0.744815 0.0664751 0.874936 0.458513 0.155733 
0.829947 0.173865 0.530056 -0.701957 -0.702264 -0.118664 0.810495 0.550595 -0.199855 
0.784772 0.330462 0.524335 0.827451 0.38635 0.407504 0.887014 0.43439 -0.156561 
0.74423 0.543469 -0.388282 0.679583 0.411167 -0.607543 0.629089 0.500352 -0.594891 
-0.65905 -0.709993 -0.248121 0.747019 0.537245 -0.391573 0.593892 0.511423 -0.621079 
0.742573 0.483892 -0.463071 -0.650305 -0.74479 -0.149634 -0.735372 -0.664762 -0.131602 
0.671926 0.555194 -0.490178 0.761968 0.53725 -0.361617 0.418717 0.33803 -0.842859 
0.622042 0.591016 -0.51358 -0.84077 -0.484792 -0.241001 -0.718643 -0.390393 -0.575452 
-0.869694 -0.491026 -0.0502558 -0.877329 -0.234159 -0.418884 0.399301 0.433689 -0.807758 
0.570333 0.509898 -0.643991 0.696732 0.698572 -0.162978 0.698589 0.557609 -0.448382 
0.621157 0.679555 -0.390345 0.654859 0.7395 0.155885 -0.847044 0.123644 -0.516941 
0.484705 0.804667 -0.342888 0.573602 0.79589 -0.19375 -0.776202 0.442981 -0.448641 
-0.829927 0.55637 -0.0409011 0.496685 0.792637 -0.353596 -0.606569 0.734166 -0.305082 
-0.740021 0.671984 0.0283976 0.149212 0.714585 -0.68345 0.332601 0.742869 -0.580966 
-0.349569 0.910117 -0.222462 0.0145365 0.963469 -0.267426 0.42176 0.892768 0.15838 
-0.380359 -0.705853 0.597577 -0.580103 -0.789261 0.201363 -0.0338885 -0.49083 0.870596 
-0.282804 -0.582528 0.762026 -0.398358 -0.625677 0.670701 -0.627709 -0.678089 0.382331 
0.849527 0.348395 0.396138 -0.55859 -0.675204 0.481743 0.880037 0.367891 0.300318 
-0.549185 -0.686374 0.476746 -0.629831 -0.75515 0.181829 0.807607 0.587841 0.0470441 
0.81929 0.393743 0.41681 -0.581702 -0.561769 0.588251 0.784302 0.550652 0.285748 
0.813737 0.535882 0.225084 0.816338 0.548696 0.180348 -0.428828 -0.695226 0.57686 
0.77608 0.603092 -0.184336 0.737134 0.540696 0.405317 0.790176 0.608622 -0.0721203 
-0.843348 -0.444055 0.302619 0.731098 0.681465 -0.0331985 0.679215 0.573681 0.457774 
-0.862 -0.281628 0.421476 0.716736 0.696141 0.0409461 -0.90605 -0.312979 0.284812 
-0.851001 -0.426484 0.306445 -0.680642 -0.0906641 0.726984 -0.963377 -0.0700954 0.258828 
-0.879534 0.207735 0.428095 -0.864194 0.473029 0.171501 -0.679507 0.289115 0.674302 
0.50419 0.77308 0.384889 -0.538732 0.676371 0.502285 -0.519027 0.845633 0.124566 
-0.288638 0.805332 0.517811 -0.15107 0.974454 0.166183 0.229449 0.944605 0.23468 
-0.00539498 -0.418108 0.908381 0.224457 -0.205791 0.952507 -0.35611 -0.474016 0.805292 
0.373162 0.0154176 0.927638 0.539346 0.183448 0.821859 0.600099 0.25875 0.756921 
-0.525727 -0.539617 0.65759 -0.361378 -0.514279 0.777768 0.530885 0.342963 0.774944 
-0.319006 -0.322064 0.891353 -0.367657 -0.625263 0.688386 0.630843 0.480398 0.609307 
0.405835 0.283795 0.868768 0.401506 0.325518 0.856055 -0.672244 -0.596563 0.438406 
0.592866 0.482249 0.644938 0.419103 0.391609 0.819143 -0.769404 -0.207148 0.604241 
-0.558531 -0.215823 0.800914 0.507561 0.542605 0.669299 -0.622956 0.00648732 0.78223 
0.523931 0.507222 0.684268 0.38025 0.455922 0.804702 -0.662561 0.0393123 0.747975 
0.478786 0.680833 0.554283 0.303882 0.442174 0.843883 -0.508727 0.192392 0.839156 
-0.706387 0.501532 0.499483 -0.354486 0.4593 0.814483 0.248241 0.642034 0.725375 
0.476613 0.656474 0.584706 -0.204209 0.599281 0.774055 0.0236492 0.733663 0.679102 
0.266882 0.808029 0.525227 -0.0397069 -0.30072 0.952886 -0.107303 -0.194761 0.974964 
-0.331338 -0.449489 0.829563 0.353711 0.138724 0.92501 0.230279 0.0817709 0.969683 
-0.225666 -0.292348 0.929305 0.0156892 -0.101015 0.994761 -0.251323 -0.426458 0.86889 
-0.119334 -0.290148 0.949512 0.33778 0.311869 0.888056 -0.0647177 -0.124985 0.990046 
0.177919 0.089702 0.979948 0.185981 0.0868149 0.97871 -0.0223971 -0.11993 0.99253 
-0.134296 -0.231341 0.963559 -0.156664 -0.213703 0.964255 0.0605044 -0.00736259 0.998141 
-0.508255 -0.391059 0.7673 -0.171626 -0.152076 0.973354 0.224689 0.0434882 0.97346 
-0.0621147 0.012517 0.997991 -0.310146 -0.0905224 0.94637 -0.0104961 0.0034769 0.999939 
0.310762 0.268492 0.911778 -0.33743 -0.0195392 0.941148 0.0588436 0.107374 0.992476 
0.210269 0.110902 0.971333 -0.461677 0.00592315 0.887028 0.187906 0.265101 0.945734 
0.109365 0.213492 0.970804 0.287709 0.322029 0.901954 -0.116438 0.19792 0.973278 
0.237912 0.27354 0.931973 -0.266267 0.204061 0.942051 -0.116987 0.395441 0.911011 
-0.00879233 -0.172162 0.985029 -0.469377 -0.220817 0.854942 0.383609 0.229219 -0.894596 
0.424227 0.29952 -0.854587 0.616475 0.482219 -0.622433 0.587772 0.384259 -0.711947 
-0.136294 -0.337858 -0.931277 -0.24906 -0.640497 -0.726453 -0.609464 -0.57109 -0.549919 
0.43781 0.184201 -0.879996 -0.0624785 -0.12071 -0.99072 0.461759 0.445081 -0.767256 
-0.418354 -0.66288 -0.620942 -0.396001 -0.54979 -0.735469 -0.134862 -0.463909 -0.875557 
-0.234675 -0.606116 -0.759968 -0.28825 -0.270007 -0.918699 0.814407 0.45431 -0.361031 
-0.269772 -0.305949 -0.913027 -0.699258 -0.56634 -0.436231 -0.00867116 -0.251731 -0.967758 
0.120774 0.171816 -0.977698 -0.32563 -0.277533 -0.903848 0.321717 0.247045 -0.914039 
0.311507 0.248436 -0.917193 -0.583921 -0.307754 -0.751215 -0.643001 -0.143803 -0.752244 
-0.266582 -0.0985126 -0.958764 0.456194 0.448962 -0.768323 0.604165 0.625104 -0.494196 
-0.366921 0.143744 -0.919079 -0.301239 0.345594 -0.888718 -0.255614 -0.525943 -0.8112 
-0.0246169 -0.366219 -0.930203 0.282477 -0.138408 -0.949237 -0.485386 -0.550747 -0.679027 
-0.0106719 -0.200407 -0.979655 0.614511 0.223043 -0.756722 -0.273877 -0.47073 -0.838692 
-0.385861 -0.522918 -0.760045 -0.199778 -0.250389 -0.947309 -0.0857247 -0.305419 -0.948352 
0.081526 -0.100945 -0.991546 0.588447 0.279018 -0.758867 -0.352942 -0.462357 -0.813424 
0.56415 0.343192 -0.750969 -0.031321 -0.276676 -0.960453 0.145252 -0.00976203 -0.989346 
0.290558 0.117218 -0.94965 0.523783 0.304217 -0.795678 -0.272006 -0.424107 -0.863798 
-0.3989 -0.470598 -0.78703 -0.148085 -0.29241 -0.944758 -0.18035 -0.312699 -0.932573 
0.0557743 -0.165053 -0.984707 0.666644 0.40089 -0.628389 0.695213 0.475301 -0.539229 
-0.590896 -0.699891 -0.401241 -0.237973 -0.19377 -0.951747 0.110147 0.0122092 -0.99384 
-0.384868 -0.675846 -0.628577 0.119141 0.0433226 -0.991932 -0.490699 -0.642116 -0.588983 
-0.0403354 -0.251351 -0.967055 -0.0883189 -0.122081 -0.988583 -0.0762616 -0.166669 -0.983059 
0.741852 0.373276 -0.557065 -0.657554 -0.685172 -0.313308 -0.667723 -0.739767 -0.0830178 
-0.563917 -0.779733 -0.272056 0.776294 0.521295 -0.354427 0.951244 0.20683 -0.228813 
-0.0497551 -0.168494 -0.984446 0.747573 0.541861 -0.384085 -0.844235 -0.443389 -0.301119 
-0.642141 -0.534234 -0.549771 -0.749444 -0.656106 -0.0886471 0.0523322 0.0166808 -0.99849 
0.133387 0.0114388 -0.990998 0.795131 0.590058 0.139991 0.546164 0.558474 -0.62435 
0.0133483 0.19561 -0.980591 0.366711 0.539575 -0.75788 0.28865 0.531294 -0.796497 
-0.666237 0.528633 -0.526 -0.0623352 0.584152 -0.809247 0.15045 0.534847 -0.831447 
0.244256 0.629305 -0.737776 0.459571 0.795424 -0.395089 -0.44082 0.489509 -0.752369 
-0.0354254 0.866077 -0.498655 0.196484 0.701908 -0.684631 0.0363555 0.882424 -0.469048 
0.0495284 -0.457866 -0.88764 0.357723 -0.222301 -0.906982 -0.182381 -0.601368 -0.777878 
0.662037 0.0243682 -0.749075 0.9055 0.208425 -0.369633 0.463269 -0.117254 -0.878427 
0.733392 0.212268 -0.645816 -0.684139 -0.660548 -0.309242 0.856243 0.498205 -0.136527 
-0.682475 -0.728992 -0.0529001 0.848941 0.526812 -0.0420448 -0.627611 -0.777859 0.0322507 
0.830592 0.547468 -0.101959 -0.565912 -0.701523 -0.433138 0.73351 0.529577 -0.426041 
0.805438 0.576009 -0.139583 0.735219 0.541344 -0.407921 -0.679791 -0.732031 -0.0448882 
0.807071 0.587675 0.0572321 -0.570886 -0.779423 -0.258046 -0.558557 -0.77825 0.286952 
0.876132 0.45907 0.147128 -0.64743 -0.746222 0.154878 -0.912042 -0.375705 0.164393 
0.719335 0.68184 -0.132863 -0.894687 -0.44653 -0.0121044 -0.849883 -0.261837 -0.457319 
-0.905875 -0.404063 0.126979 -0.97243 -0.0900069 -0.215127 -0.861542 0.0813288 -0.50113 
0.693938 0.690882 -0.202809 -0.932608 0.3378 -0.127021 -0.735597 0.341627 -0.584969 
0.52624 0.846618 -0.0794289 -0.272979 0.797067 -0.538672 -0.362623 0.904453 -0.224655 
0.265895 0.867784 -0.419822 0.433212 0.869333 -0.23788 0.16462 0.984675 -0.0575808 
-0.00254612 -0.608451 -0.793587 -0.189502 -0.848198 -0.494621 0.514519 -0.296469 -0.804597 
0.512791 -0.743401 -0.42942 0.99699 -0.00927879 0.076977 -0.66681 -0.745165 -0.00967084 
0.787332 0.459728 0.410802 -0.692845 -0.713702 0.102936 0.259923 0.337938 0.904565 
-0.49596 -0.629379 0.598252 0.198129 0.237903 0.950866 0.560411 0.472818 0.679987 
0.460173 0.387026 0.799032 -0.619221 -0.771259 0.147391 -0.381205 -0.64619 0.661151 
-0.607219 -0.775875 0.171182 0.562147 0.440128 0.700199 -0.645741 -0.763547 0.00375773 
-0.547892 -0.694955 0.465673 -0.584112 -0.807542 0.0817845 -0.560892 -0.742735 0.36571 
-0.647564 -0.733485 0.206545 -0.59926 -0.7574 0.259291 0.554731 0.400439 0.72933 
-0.63165 -0.636911 0.441998 0.749746 0.561618 0.349952 -0.826693 -0.463437 0.319067 
-0.654661 -0.363581 0.662742 -0.85827 -0.258653 0.44325 0.573384 0.550946 0.606374 
-0.504882 -0.0882503 0.858665 -0.916683 0.146357 0.37185 0.565665 0.797989 0.207933 
-0.827541 0.558736 0.0546832 -0.448901 0.150237 0.880861 0.558808 0.805932 0.195468 
0.48998 0.624187 0.608531 -0.685106 0.725277 -0.0678458 -0.4443 0.888688 0.113271 
-0.087463 0.996112 0.0105648 0.108727 0.850034 0.515384 0.273845 0.836269 0.475041 
-0.225683 -0.859533 0.458552 -0.4775 -0.859312 -0.183242 0.497576 -0.659222 0.563777 
0.658212 0.179809 0.731044 0.0264955 -0.339629 -0.940186 -0.607607 -0.778024 0.159661 
-0.529743 -0.835078 -0.148384 0.364985 0.146094 0.91948 -0.490845 -0.430962 0.757194 
0.0463829 0.142255 0.988743 0.244756 0.234011 0.940922 -0.624786 -0.532098 0.571414 
0.00366418 0.09917 0.995064 -0.581402 -0.484294 0.653782 -0.694802 -0.553763 0.458908 
-0.0826727 0.052628 0.995186 -0.270154 -0.118086 0.955548 0.09184 0.13063 0.987168 
-0.381346 -0.38553 0.840204 -0.246091 -0.368747 0.896362 0.109813 -0.456153 0.8831 
0.327149 -0.0159178 0.944839 0.327299 0.0537139 0.943393 0.048932 -0.0171162 0.998655 
-0.464968 -0.585955 0.663673 0.176907 0.110757 0.977976 -0.491102 -0.601443 0.630147 
-0.161367 -0.25181 0.954229 -0.362847 -0.449767 0.81612 -0.458475 -0.552942 0.695741 
0.348747 0.203574 0.914841 0.166552 0.0945081 0.981493 -0.566811 -0.425013 0.705755 
-0.371935 -0.461652 0.805321 0.254941 0.255573 0.93257 -0.770279 -0.300551 0.56244 
-0.334375 0.0226029 0.942169 -0.674544 0.329087 0.660827 0.368862 0.439188 0.819179 
-0.699673 0.551826 0.453812 0.206639 0.528271 0.823547 0.304472 0.523585 0.795711 
-0.573425 0.620998 0.534365 -0.183884 0.773639 0.606357 0.0135727 0.624711 0.780739 
0.315161 0.734872 0.60053 -0.387334 -0.659904 0.643816 -0.00315043 -0.272972 0.962017 
-0.260496 -0.361062 0.895419 -0.216845 -0.0876366 0.972264 -0.465575 -0.364686 0.806377 
-0.509355 -0.395924 0.764069 -0.058992 -0.244439 0.967868 -0.274744 -0.324122 0.90524 
0.0172065 -0.0497663 0.998613 -0.106645 -0.120146 0.987012 -0.394316 -0.142409 0.907874 
-0.183698 -0.00573096 0.982966 0.205002 0.251628 0.945863 -0.293678 0.184293 0.937971 
-0.0638046 0.269831 0.960791 0.191362 -0.0689184 0.979097 0.0264955 -0.339629 -0.940186 
0.0264955 -0.339629 -0.940186 0.23128 -0.932155 0.278562 
