# vtk DataFile Version 4.2
vtk output
ASCII
DATASET POLYDATA
POINTS 1934 float
296.08 258.781 176.525 296.891 258.938 176.136 297.94 258.877 176.103 
295.584 259.629 176.466 296.62 259.477 175.984 296.943 259.961 175.846 
297.543 259.856 175.857 295.571 261.073 176.373 296.19 260.501 175.948 
295.907 261.171 176.126 296.146 261.44 176.095 296.675 261.141 175.904 
297.665 260.882 175.92 296.454 261.435 176.012 296.799 257.694 177.383 
299.714 257.889 177.236 299.864 258.234 177.046 300.228 258.507 177.111 
295.248 259.415 176.84 294.985 259.582 177.089 300.086 259.886 176.785 
295.054 260.385 176.82 295.403 261.641 176.756 295.836 262.03 176.568 
295.588 262.325 176.924 298.903 262.047 176.542 296.771 257.435 177.886 
300.957 258.004 177.77 301.23 257.777 178.079 301.43 258.139 177.997 
301.882 258.611 178.169 294.881 260.662 177.104 300.904 262.874 177.795 
299.329 256.631 178.851 300.461 256.813 178.773 300.713 257.133 178.493 
295.102 258.647 177.945 303.25 260.127 178.929 294.328 261.772 178.634 
294.321 263.305 179.206 298.438 264.807 177.866 295.557 265.207 178.641 
295.774 265.76 178.916 296.407 265.986 178.836 301.087 256.765 179.353 
301.508 257.105 179.204 303.148 258.396 179.441 294.854 265.834 179.909 
295.112 266.516 180.119 296.364 267.058 179.726 297.169 256.789 179.973 
299.831 256.364 180.072 294.866 258.679 180.061 304.906 259.725 180.805 
305.015 260.259 180.764 304.762 261.128 180.415 304.586 262.7 180.761 
303.097 264.048 180.046 294.039 264.486 180.743 294.924 266.909 180.684 
296.722 267.674 180.178 295.696 267.874 180.751 296.34 268.104 180.642 
314.836 247.536 182.024 314.504 247.785 181.964 313.506 247.832 182.238 
313.046 249.873 181.786 313.604 249.724 181.751 312.716 250.497 181.794 
314.705 250.238 182.026 310.321 251.733 182.229 310.232 252.187 182.243 
310.375 252.391 182.209 298.34 256.415 181.096 301.118 256.552 180.455 
296.077 257.569 181.529 303.424 257.849 180.407 305.838 260.927 181.898 
305.918 261.701 182.079 294.186 267.028 182.261 295.679 268.876 181.663 
315.562 245.457 182.973 314.532 245.709 183.096 316.656 246.005 182.802 
316.542 246.536 182.635 311.864 248.365 182.819 309.583 251.645 182.869 
315.105 252.593 183.116 310.276 253.489 182.861 312.165 254.039 183.155 
301.717 256.65 181.781 304.105 257.747 181.849 304.673 258.066 182.224 
305.103 258.444 182.34 305.375 258.991 182.189 298.755 268.95 181.503 
295.385 269.225 182.224 296.292 270.063 182.433 315.959 243.98 183.902 
317.622 246.403 183.171 310.248 249.644 183.246 308.947 251.643 183.719 
309.184 251.991 183.306 309.236 252.722 183.363 309.148 254.021 184.011 
309.303 254.303 184.024 311.741 254.471 183.457 297.469 256.853 182.177 
309.527 254.636 184.186 310.818 254.916 183.922 296.146 257.876 183.047 
298.558 256.83 183.119 294.403 260.021 182.223 306.044 259.423 183.06 
293.693 264.184 182.911 293.9 267.471 183.673 294.866 269.837 183.427 
296.639 270.56 182.814 294.735 270.736 184.548 295.394 270.846 183.684 
295.821 270.922 183.455 295.233 271.125 184.174 317.565 242.273 185.308 
314.59 244.019 184.435 313.679 245.028 184.215 310.153 248.959 184.037 
315.824 253.13 184.09 309.255 254.785 184.666 309.46 255.093 184.832 
311.147 255.226 184.239 305.167 258.212 183.591 294.845 259.932 183.733 
306.318 259.278 183.995 306.831 259.864 184.216 307.394 260.426 184.985 
293.93 262.049 183.13 298.554 271.298 183.78 295.705 271.753 184.439 
316.741 241.894 185.868 320.297 243.636 185.701 320.573 246.824 185.412 
309.988 248.11 185.392 308.257 250.799 185.582 307.866 252.488 185.889 
308.07 253.069 185.478 304.473 257.774 184.496 310.405 255.878 185.536 
305.838 258.617 185.158 295.974 259.187 185.107 307.124 260.003 184.728 
293.814 263.694 184.324 293.69 267.04 185.04 294.088 270.389 185.878 
294.971 272.031 185.525 295.226 272.965 186.171 295.984 273.05 185.612 
297.833 273.274 185.657 318.866 241.811 186.225 314.921 242.647 185.82 
321.234 244.247 186.423 307.937 251.309 186 307.719 252.461 186.678 
308.047 253.665 186.452 314.944 254.809 185.533 309.768 255.915 186.819 
311.303 256.338 186.508 311.825 256.306 186.344 307.417 260.007 186.111 
307.932 260.559 186.581 308.401 262.331 186.72 301.686 270.929 185.414 
296.817 273.587 185.968 295.751 273.795 186.747 320.553 242.652 186.572 
321.8 248.662 187.328 307.65 251.743 187.215 318.167 252.902 186.471 
308.371 254.388 187.611 313.006 256.211 187.112 299.678 258.192 186.309 
306.941 259.523 186.434 308.048 260.519 187.091 308.746 261.704 187.77 
293.862 270.684 187.429 294.315 272.852 188.147 296.817 274.424 187.113 
295.186 274.054 187.857 298.041 274.784 187.624 319.565 241.165 187.887 
321.339 242.792 187.34 308.857 247.999 187.983 308.831 254.953 188.447 
310.302 256.084 188.338 305.06 258.543 186.794 311.155 256.405 187.867 
307.326 259.995 187.94 308.736 261.623 188.72 295.951 275.369 189.239 
297.4 275.594 188.919 321.244 242.06 188.011 307.782 253.001 189.241 
294.256 265.814 188.067 295.017 274.672 189.34 295.352 275.223 189.829 
320.415 240.685 189.513 307.836 249.2 189.438 307.704 249.65 189.508 
307.606 251.774 189.948 316.694 255.058 189.309 305.537 259.52 188.703 
308.346 261.392 189.583 308.83 262.74 189.75 308.77 263.469 189.279 
307.706 265.727 189.233 293.877 269.612 189.355 305.039 270.404 190 
295.05 275.234 190.573 315.772 239.167 190.797 315.489 238.71 191.409 
307.615 250.354 190.371 320.691 252.771 190.178 308.588 253.517 190.846 
307.937 261.456 190.156 308.32 262.256 190.615 308.528 262.53 190.485 
308.689 263.47 190.376 308.368 264.547 190.685 307.064 267.191 190.657 
296.407 276.642 191.704 307.913 262.307 191.045 308.548 263.675 190.878 
307.283 266.672 191.577 294.518 269.361 191.82 294.336 274.524 192.392 
300.6 275.701 191.078 296.421 276.867 192.521 296.906 277.234 193.072 
297.608 277.216 192.442 305.862 262.214 191.65 307.058 262.9 191.851 
307.821 263.44 191.803 308.062 264.106 191.66 307.483 265.582 192.11 
307.078 266.764 192.209 307.116 266.234 192.485 295.473 268.094 192.592 
306.529 267.851 192.877 294.257 270.801 192.411 305.762 270.399 193.475 
294.04 272.516 192.524 304.96 271.816 192.418 294.073 273.264 192.705 
294.632 275.305 193.194 296.408 277.134 194.059 298.588 277.313 192.697 
299.6 277.118 192.899 313.094 237.976 193.805 308.757 245.963 193.484 
308.235 247.859 193.825 313.483 255.097 193.72 314.607 255.389 193.225 
315.523 255.408 193.26 304.819 263.509 192.755 307.363 263.452 192.05 
305.934 264.611 193.203 302.261 265.223 194.01 307.076 265.778 192.69 
306.526 267.472 193.118 306.282 267.282 193.545 305.843 269.594 194.301 
303.795 273.891 193.136 294.457 274.651 194.112 301.616 275.949 193.019 
295.385 276.229 194.721 297.555 277.691 194.567 308.167 248.239 195.116 
324.899 250.876 194.56 310.741 253.272 194.824 306.643 265.654 193.125 
305.418 266.784 194.33 305.829 268.416 194.354 294.285 273.529 194.118 
296.355 277.166 195.768 300.278 277.372 194.538 296.837 277.503 195.491 
298.102 277.882 195.26 313.564 235.651 195.437 326.849 241.565 195.15 
307.873 246.7 196.42 308.674 250.29 195.51 309.824 252.01 195.919 
312.321 254.123 195.642 313.661 254.786 195.885 316.185 255.51 196.056 
318.554 255.597 196.515 294.694 272.99 195.316 304.94 273.319 195.652 
297.955 277.951 196.184 317.084 232.333 196.956 328.632 243.155 197.134 
308.36 249.575 197.64 304.594 269.05 196.58 295.187 274.718 196.506 
295.76 276.123 197.022 296.089 276.552 197.196 300.895 277.662 196.366 
298.66 278.145 196.778 307.418 245.588 198.575 307.472 247.047 198.941 
304.07 269.297 197.264 304.573 270.251 197.724 304.873 270.638 197.613 
295.875 272.428 197.069 305.208 272.702 197.979 304.921 273.781 197.858 
305.118 273.265 198.048 298.64 278.194 198.207 311.015 235.395 198.406 
328.935 247.022 198.365 318.661 256.599 198.982 303.198 269.316 197.652 
304.273 270.178 197.964 298.161 271.687 198.696 296.257 274.273 198.552 
298.352 277.969 198.982 300.346 278.119 198.039 299.115 278.247 198.678 
311.3 230.037 200.491 311.893 229.805 200.344 324.06 231.485 200.431 
314.05 255.737 200.252 316.92 257.268 200.558 304.808 271.527 198.612 
304.624 271.633 198.929 304.826 271.854 198.815 304.883 272.955 199.073 
296.816 274.704 199.442 304.655 273.797 199.411 296.646 275.429 199.179 
304.118 275.073 199.508 297.729 277.098 199.666 301.845 277.243 199.157 
297.98 277.423 199.547 298.674 278.052 199.236 298.876 277.992 199.544 
299.088 278.145 199.249 307.168 243.886 201.139 330.406 247.135 200.282 
308.467 249.334 200.751 303.488 271.503 199.5 303.686 272.48 200.185 
297.447 273.763 199.725 296.846 275.156 199.494 297.85 276.857 200.01 
302.836 276.335 200.038 298.235 277.065 200.255 299.013 277.746 199.948 
299.209 278.004 199.676 299.477 277.867 199.933 300.48 277.861 199.515 
319.12 257.618 202.02 299.339 273.487 200.709 300.392 273.349 200.968 
301.026 273.133 200.923 302.819 272.937 200.737 303.935 273.247 200.418 
298.275 275.874 200.641 303.419 275.283 200.814 303.616 275.011 200.792 
298.491 276.855 200.561 298.933 276.992 200.682 300.974 277.065 200.631 
308.427 227.977 203.942 314.932 226.362 203.197 308.164 228.233 204.035 
307.63 229.513 203.992 308.295 231.2 202.474 308.071 232.56 202.59 
302.465 273.539 201.124 303.664 273.485 200.687 299.509 274.656 201.173 
300.317 275.008 201.522 301.423 274.77 201.779 301.951 274.622 201.73 
302.874 275.071 201.428 299.648 276.1 201.218 300.876 275.379 201.742 
302.857 275.494 201.179 302.369 275.581 201.529 302.597 275.301 201.558 
300.975 275.743 201.692 301.409 275.793 201.702 301.592 276.064 201.472 
301.918 275.715 201.64 299.933 276.971 200.857 310.716 226.368 204.067 
308.278 227.944 204.252 308.34 227.735 204.772 307.248 229.687 204.619 
307.02 238.602 203.822 334.01 246.424 205.156 332.595 248.243 203.702 
310.404 250.609 204.621 319.568 257.783 203.258 301.349 275.197 201.848 
302.218 274.919 201.769 302.559 274.995 201.646 301.673 275.44 201.819 
310.417 225.627 205.386 314.186 224.673 205.469 307.52 228.723 205.383 
[...]
POINT_DATA 1934
COLOR_SCALARS scalars 3
1 0.298039 0.243137 1 0.298039 0.243137 1 0.298039 0.243137 
1 0.298039 0.243137 1 0.298039 0.243137 
1 0.298039 0.243137 1 0.298039 0.243137 
1 0.298039 0.243137 1 0.298039 0.243137 
1 0.298039 0.243137 1 0.298039 0.243137 
1 0.298039 0.243137 1 0.298039 0.243137 
1 0.298039 0.243137 1 0.298039 0.243137 
1 0.298039 0.243137 1 0.298039 0.243137 
1 0.298039 0.243137 1 0.298039 0.243137 
1 0.298039 0.243137 1 0.298039 0.243137 
1 0.298039 0.243137 1 0.298039 0.243137 
1 0.298039 0.243137 1 0.298039 0.243137 
1 0.298039 0.243137 1 0.298039 0.243137 
1 0.298039 0.243137 1 0.298039 0.243137 
1 0.298039 0.243137 1 0.298039 0.243137 
1 0.298039 0.243137 1 0.298039 0.243137 
1 0.298039 0.243137 1 0.298039 0.243137 
1 0.298039 0.243137 1 0.298039 0.243137 
1 0.298039 0.243137 1 0.298039 0.243137 
1 0.298039 0.243137 1 0.298039 0.243137 
1 0.298039 0.243137 1 0.298039 0.243137 
1 0.298039 0.243137 1 0.298039 0.243137 
1 0.298039 0.243137 1 0.298039 0.243137 
1 0.298039 0.243137 1 0.298039 0.243137 
1 0.298039 0.243137 1 0.298039 0.243137 
1 0.298039 0.243137 1 0.298039 0.243137 
1 0.298039 0.243137 1 0.298039 0.243137 
1 0.298039 0.243137 1 0.298039 0.243137 
1 0.298039 0.243137 1 0.298039 0.243137 
1 0.298039 0.243137 1 0.298039 0.243137 
1 0.298039 0.243137 1 0.298039 0.243137 
1 0.298039 0.243137 1 0.298039 0.243137 
1 0.298039 0.243137 1 0.298039 0.243137 
1 0.298039 0.243137 1 0.298039 0.243137 
1 0.298039 0.243137 1 0.298039 0.243137 
1 0.298039 0.243137 1 0.298039 0.243137 
1 0.298039 0.243137 1 0.298039 0.243137 
1 0.298039 0.243137 1 0.298039 0.243137 
1 0.298039 0.243137 1 0.298039 0.243137 
1 0.298039 0.243137 1 0.298039 0.243137 
1 0.298039 0.243137 1 0.298039 0.243137 
1 0.298039 0.243137 1 0.298039 0.243137 
1 0.298039 0.243137 1 0.298039 0.243137 
1 0.298039 0.243137 1 0.298039 0.243137 
1 0.298039 0.243137 1 0.298039 0.243137 
1 0.298039 0.243137 1 0.298039 0.243137 
1 0.298039 0.243137 1 0.298039 0.243137 
1 0.298039 0.243137 1 0.298039 0.243137 
1 0.298039 0.243137 1 0.298039 0.243137 
1 0.298039 0.243137 1 0.298039 0.243137 
1 0.298039 0.243137 1 0.298039 0.243137 
1 0.298039 0.243137 1 0.298039 0.243137 
1 0.298039 0.243137 1 0.298039 0.243137 
1 0.298039 0.243137 1 0.298039 0.243137 
1 0.298039 0.243137 1 0.298039 0.243137 
1 0.298039 0.243137 1 0.298039 0.243137 
1 0.298039 0.243137 1 0.298039 0.243137 
1 0.298039 0.243137 1 0.298039 0.243137 
1 0.298039 0.243137 1 0.298039 0.243137 
1 0.298039 0.243137 1 0.298039 0.243137 
1 0.298039 0.243137 1 0.298039 0.243137 
1 0.298039 0.243137 1 0.298039 0.243137 
1 0.298039 0.243137 1 0.298039 0.243137 
1 0.298039 0.243137 1 0.298039 0.243137 
1 0.298039 0.243137 1 0.298039 0.243137 
1 0.298039 0.243137 1 0.298039 0.243137 
1 0.298039 0.243137 1 0.298039 0.243137 
1 0.298039 0.243137 1 0.298039 0.243137 
1 0.298039 0.243137 1 0.298039 0.243137 
1 0.298039 0.243137 1 0.298039 0.243137 
1 0.298039 0.243137 1 0.298039 0.243137 
1 0.298039 0.243137 1 0.298039 0.243137 
1 0.298039 0.243137 1 0.298039 0.243137 
1 0.298039 0.243137 1 0.298039 0.243137 
1 0.298039 0.243137 1 0.298039 0.243137 
1 0.298039 0.243137 1 0.298039 0.243137 
1 0.298039 0.243137 1 0.298039 0.243137 
1 0.298039 0.243137 1 0.298039 0.243137 
1 0.298039 0.243137 1 0.298039 0.243137 
1 0.298039 0.243137 1 0.298039 0.243137 
1 0.298039 0.243137 1 0.298039 0.243137 
1 0.298039 0.243137 1 0.298039 0.243137 
1 0.298039 0.243137 1 0.298039 0.243137 
1 0.298039 0.243137 1 0.298039 0.243137 
1 0.298039 0.243137 1 0.298039 0.243137 
1 0.298039 0.243137 1 0.298039 0.243137 
1 0.298039 0.243137 1 0.298039 0.243137 
1 0.298039 0.243137 1 0.298039 0.243137 
1 0.298039 0.243137 1 0.298039 0.243137 
1 0.298039 0.243137 1 0.298039 0.243137 
1 0.298039 0.243137 1 0.298039 0.243137 
1 0.298039 0.243137 1 0.298039 0.243137 
1 0.298039 0.243137 1 0.298039 0.243137 
1 0.298039 0.243137 1 0.298039 0.243137 
1 0.298039 0.243137 1 0.298039 0.243137 
1 0.298039 0.243137 1 0.298039 0.243137 
1 0.298039 0.243137 1 0.298039 0.243137 
1 0.298039 0.243137 1 0.298039 0.243137 
1 0.298039 0.243137 1 0.298039 0.243137 
1 0.298039 0.243137 1 0.298039 0.243137 
1 0.298039 0.243137 1 0.298039 0.243137 
1 0.298039 0.243137 1 0.298039 0.243137 
1 0.298039 0.243137 1 0.298039 0.243137 
1 0.298039 0.243137 1 0.298039 0.243137 
1 0.298039 0.243137 1 0.298039 0.243137 
1 0.298039 0.243137 1 0.298039 0.243137 
1 0.298039 0.243137 1 0.298039 0.243137 
1 0.298039 0.243137 1 0.298039 0.243137 
1 0.298039 0.243137 1 0.298039 0.243137 
1 0.298039 0.243137 1 0.298039 0.243137 
1 0.298039 0.243137 1 0.298039 0.243137 
1 0.298039 0.243137 1 0.298039 0.243137 
1 0.298039 0.243137 1 0.298039 0.243137 
1 0.298039 0.243137 1 0.298039 0.243137 
1 0.298039 0.243137 1 0.298039 0.243137 
1 0.298039 0.243137 1 0.298039 0.243137 
1 0.298039 0.243137 1 0.298039 0.243137 
1 0.298039 0.243137 1 0.298039 0.243137 
1 0.298039 0.243137 1 0.298039 0.243137 
1 0.298039 0.243137 1 0.298039 0.243137 
1 0.298039 0.243137 1 0.298039 0.243137 
1 0.298039 0.243137 1 0.298039 0.243137 
1 0.298039 0.243137 1 0.298039 0.243137 
1 0.298039 0.243137 1 0.298039 0.243137 
1 0.298039 0.243137 1 0.298039 0.243137 
1 0.298039 0.243137 1 0.298039 0.243137 
1 0.298039 0.243137 1 0.298039 0.243137 
1 0.298039 0.243137 1 0.298039 0.243137 
1 0.298039 0.243137 1 0.298039 0.243137 
1 0.298039 0.243137 1 0.298039 0.243137 
1 0.298039 0.243137 1 0.298039 0.243137 
1 0.298039 0.243137 1 0.298039 0.243137 
1 0.298039 0.243137 1 0.298039 0.243137 
1 0.298039 0.243137 1 0.298039 0.243137 
1 0.298039 0.243137 1 0.298039 0.243137 
1 0.298039 0.243137 1 0.298039 0.243137 
1 0.298039 0.243137 1 0.298039 0.243137 
1 0.298039 0.243137 1 0.298039 0.243137 
1 0.298039 0.243137 1 0.298039 0.243137 
1 0.298039 0.243137 1 0.298039 0.243137 
1 0.298039 0.243137 1 0.298039 0.243137 
1 0.298039 0.243137 1 0.298039 0.243137 
1 0.298039 0.243137 1 0.298039 0.243137 
1 0.298039 0.243137 1 0.298039 0.243137 
1 0.298039 0.243137 1 0.298039 0.243137 
1 0.298039 0.243137 1 0.298039 0.243137 
1 0.298039 0.243137 1 0.298039 0.243137 
1 0.298039 0.243137 1 0.298039 0.243137 
1 0.298039 0.243137 1 0.298039 0.243137 
1 0.298039 0.243137 1 0.298039 0.243137 
1 0.298039 0.243137 1 0.298039 0.243137 
1 0.298039 0.243137 1 0.298039 0.243137 
1 0.298039 0.243137 1 0.298039 0.243137 
1 0.298039 0.243137 1 0.298039 0.243137 
1 0.298039 0.243137 1 0.298039 0.243137 
1 0.298039 0.243137 1 0.298039 0.243137 
1 0.298039 0.243137 1 0.298039 0.243137 
1 0.298039 0.243137 1 0.298039 0.243137 
1 0.298039 0.243137 1 0.298039 0.243137 
1 0.298039 0.243137 1 0.298039 0.243137 
1 0.298039 0.243137 1 0.298039 0.243137 
1 0.298039 0.243137 1 0.298039 0.243137 
1 0.298039 0.243137 1 0.298039 0.243137 
1 0.298039 0.243137 1 0.298039 0.243137 
1 0.298039 0.243137 1 0.298039 0.243137 
1 0.298039 0.243137 1 0.298039 0.243137 
1 0.298039 0.243137 1 0.298039 0.243137 
1 0.298039 0.243137 1 0.298039 0.243137 
1 0.298039 0.243137 1 0.298039 0.243137 
1 0.298039 0.243137 1 0.298039 0.243137 
1 0.298039 0.243137 1 0.298039 0.243137 
1 0.298039 0.243137 1 0.298039 0.243137 
1 0.298039 0.243137 1 0.298039 0.243137 
1 0.298039 0.243137 1 0.298039 0.243137 
1 0.298039 0.243137 1 0.298039 0.243137 
1 0.298039 0.243137 1 0.298039 0.243137 
1 0.298039 0.243137 1 0.298039 0.243137 
1 0.298039 0.243137 1 0.298039 0.243137 
1 0.298039 0.243137 1 0.298039 0.243137 
1 0.298039 0.243137 1 0.298039 0.243137 
1 0.298039 0.243137 1 0.298039 0.243137 
1 0.298039 0.243137 1 0.298039 0.243137 
1 0.298039 0.243137 1 0.298039 0.243137 
1 0.298039 0.243137 1 0.298039 0.243137 
1 0.298039 0.243137 1 0.298039 0.243137 
1 0.298039 0.243137 1 0.298039 0.243137 
1 0.298039 0.243137 1 0.298039 0.243137 
1 0.298039 0.243137 1 0.298039 0.243137 
1 0.298039 0.243137 1 0.298039 0.243137 
1 0.298039 0.243137 1 0.298039 0.243137 
1 0.298039 0.243137 1 0.298039 0.243137 
1 0.298039 0.243137 1 0.298039 0.243137 
1 0.298039 0.243137 1 0.298039 0.243137 
1 0.298039 0.243137 1 0.298039 0.243137 
1 0.298039 0.243137 1 0.298039 0.243137 
1 0.298039 0.243137 1 0.298039 0.243137 
1 0.298039 0.243137 1 0.298039 0.243137 
1 0.298039 0.243137 1 0.298039 0.243137 
1 0.298039 0.243137 1 0.298039 0.243137 
1 0.298039 0.243137 1 0.298039 0.243137 
1 0.298039 0.243137 1 0.298039 0.243137 
1 0.298039 0.243137 1 0.298039 0.243137 
1 0.298039 0.243137 1 0.298039 0.243137 
1 0.298039 0.243137 1 0.298039 0.243137 
1 0.298039 0.243137 1 0.298039 0.243137 
1 0.298039 0.243137 1 0.298039 0.243137 
1 0.298039 0.243137 1 0.298039 0.243137 
1 0.298039 0.243137 1 0.298039 0.243137 
1 0.298039 0.243137 1 0.298039 0.243137 
1 0.298039 0.243137 1 0.298039 0.243137 
1 0.298039 0.243137 1 0.298039 0.243137 
1 0.298039 0.243137 1 0.298039 0.243137 
1 0.298039 0.243137 1 0.298039 0.243137 
1 0.298039 0.243137 1 0.298039 0.243137 
1 0.298039 0.243137 1 0.298039 0.243137 
1 0.298039 0.243137 1 0.298039 0.243137 
1 0.298039 0.243137 1 0.298039 0.243137 
1 0.298039 0.243137 1 0.298039 0.243137 
1 0.298039 0.243137 1 0.298039 0.243137 
1 0.298039 0.243137 1 0.298039 0.243137 
1 0.298039 0.243137 1 0.298039 0.243137 
1 0.298039 0.243137 1 0.298039 0.243137 
1 0.298039 0.243137 1 0.298039 0.243137 
1 0.298039 0.243137 1 0.298039 0.243137 
1 0.298039 0.243137 1 0.298039 0.243137 
1 0.298039 0.243137 1 0.298039 0.243137 
1 0.298039 0.243137 1 0.298039 0.243137 
1 0.298039 0.243137 1 0.298039 0.243137 
1 0.298039 0.243137 1 0.298039 0.243137 
1 0.298039 0.243137 1 0.298039 0.243137 
1 0.298039 0.243137 1 0.298039 0.243137 
1 0.298039 0.243137 1 0.298039 0.243137 
1 0.298039 0.243137 1 0.298039 0.243137 
1 0.298039 0.243137 1 0.298039 0.243137 
1 0.298039 0.243137 1 0.298039 0.243137 
1 0.298039 0.243137 1 0.298039 0.243137 
1 0.298039 0.243137 1 0.298039 0.243137 
1 0.298039 0.243137 1 0.298039 0.243137 
1 0.298039 0.243137 1 0.298039 0.243137 
1 0.298039 0.243137 1 0.298039 0.243137 
1 0.298039 0.243137 1 0.298039 0.243137 
1 0.298039 0.243137 1 0.298039 0.243137 
1 0.298039 0.243137 1 0.298039 0.243137 
1 0.298039 0.243137 1 0.298039 0.243137 
1 0.298039 0.243137 1 0.298039 0.243137 
1 0.298039 0.243137 1 0.298039 0.243137 
1 0.298039 0.243137 1 0.298039 0.243137 
1 0.298039 0.243137 1 0.298039 0.243137 
1 0.298039 0.243137 1 0.298039 0.243137 
1 0.298039 0.243137 1 0.298039 0.243137 
1 0.298039 0.243137 1 0.298039 0.243137 
1 0.298039 0.243137 1 0.298039 0.243137 
1 0.298039 0.243137 1 0.298039 0.243137 
1 0.298039 0.243137 1 0.298039 0.243137 
1 0.298039 0.243137 1 0.298039 0.243137 
1 0.298039 0.243137 1 0.298039 0.243137 
1 0.298039 0.243137 1 0.298039 0.243137 
1 0.298039 0.243137 1 0.298039 0.243137 
1 0.298039 0.243137 1 0.298039 0.243137 
1 0.298039 0.243137 1 0.298039 0.243137 
1 0.298039 0.243137 1 0.298039 0.243137 
1 0.298039 0.243137 1 0.298039 0.243137 
1 0.298039 0.243137 1 0.298039 0.243137 
1 0.298039 0.243137 1 0.298039 0.243137 
1 0.298039 0.243137 1 0.298039 0.243137 
1 0.298039 0.243137 1 0.298039 0.243137 
1 0.298039 0.243137 1 0.298039 0.243137 
1 0.298039 0.243137 1 0.298039 0.243137 
1 0.298039 0.243137 1 0.298039 0.243137 
1 0.298039 0.243137 1 0.298039 0.243137 
1 0.298039 0.243137 1 0.298039 0.243137 
1 0.298039 0.243137 1 0.298039 0.243137 
1 0.298039 0.243137 1 0.298039 0.243137 
1 0.298039 0.243137 1 0.298039 0.243137 
1 0.298039 0.243137 1 0.298039 0.243137 
1 0.298039 0.243137 1 0.298039 0.243137 
1 0.298039 0.243137 1 0.298039 0.243137 
1 0.298039 0.243137 1 0.298039 0.243137 
1 0.298039 0.243137 1 0.298039 0.243137 
1 0.298039 0.243137 1 0.298039 0.243137 
1 0.298039 0.243137 1 0.298039 0.243137 
1 0.298039 0.243137 1 0.298039 0.243137 
1 0.298039 0.243137 1 0.298039 0.243137 
1 0.298039 0.243137 1 0.298039 0.243137 
1 0.298039 0.243137 1 0.298039 0.243137 
1 0.298039 0.243137 1 0.298039 0.243137 
1 0.298039 0.243137 1 0.298039 0.243137 
1 0.298039 0.243137 1 0.298039 0.243137 
1 0.298039 0.243137 1 0.298039 0.243137 
1 0.298039 0.243137 1 0.298039 0.243137 
1 0.298039 0.243137 1 0.298039 0.243137 
1 0.298039 0.243137 1 0.298039 0.243137 
1 0.298039 0.243137 1 0.298039 0.243137 
1 0.298039 0.243137 1 0.298039 0.243137 
1 0.298039 0.243137 1 0.298039 0.243137 
1 0.298039 0.243137 1 0.298039 0.243137 
1 0.298039 0.243137 1 0.298039 0.243137 
1 0.298039 0.243137 1 0.298039 0.243137 
1 0.298039 0.243137 1 0.298039 0.243137 
1 0.298039 0.243137 1 0.298039 0.243137 
1 0.298039 0.243137 1 0.298039 0.243137 
1 0.298039 0.243137 1 0.298039 0.243137 
1 0.298039 0.243137 1 0.298039 0.243137 
1 0.298039 0.243137 1 0.298039 0.243137 
1 0.298039 0.243137 1 0.298039 0.243137 
1 0.298039 0.243137 1 0.298039 0.243137 
1 0.298039 0.243137 1 0.298039 0.243137 
1 0.298039 0.243137 1 0.298039 0.243137 
1 0.298039 0.243137 1 0.298039 0.243137 
1 0.298039 0.243137 1 0.298039 0.243137 
1 0.298039 0.243137 1 0.298039 0.243137 
1 0.298039 0.243137 1 0.298039 0.243137 
1 0.298039 0.243137 1 0.298039 0.243137 
1 0.298039 0.243137 1 0.298039 0.243137 
1 0.298039 0.243137 1 0.298039 0.243137 
1 0.298039 0.243137 1 0.298039 0.243137 
1 0.298039 0.243137 1 0.298039 0.243137 
1 0.298039 0.243137 1 0.298039 0.243137 
1 0.298039 0.243137 1 0.298039 0.243137 
1 0.298039 0.243137 1 0.298039 0.243137 
1 0.298039 0.243137 1 0.298039 0.243137 
1 0.298039 0.243137 1 0.298039 0.243137 
1 0.298039 0.243137 1 0.298039 0.243137 
1 0.298039 0.243137 1 0.298039 0.243137 
1 0.298039 0.243137 1 0.298039 0.243137 
1 0.298039 0.243137 1 0.298039 0.243137 
1 0.298039 0.243137 1 0.298039 0.243137 
1 0.298039 0.243137 1 0.298039 0.243137 
1 0.298039 0.243137 1 0.298039 0.243137 
1 0.298039 0.243137 1 0.298039 0.243137 
1 0.298039 0.243137 1 0.298039 0.243137 
1 0.298039 0.243137 1 0.298039 0.243137 
1 0.298039 0.243137 1 0.298039 0.243137 
1 0.298039 0.243137 1 0.298039 0.243137 
1 0.298039 0.243137 1 0.298039 0.243137 
1 0.298039 0.243137 1 0.298039 0.243137 
1 0.298039 0.243137 1 0.298039 0.243137 
1 0.298039 0.243137 1 0.298039 0.243137 
1 0.298039 0.243137 1 0.298039 0.243137 
1 0.298039 0.243137 1 0.298039 0.243137 
1 0.298039 0.243137 1 0.298039 0.243137 
1 0.298039 0.243137 1 0.298039 0.243137 
1 0.298039 0.243137 1 0.298039 0.243137 
1 0.298039 0.243137 1 0.298039 0.243137 
1 0.298039 0.243137 1 0.298039 0.243137 
1 0.298039 0.243137 1 0.298039 0.243137 
1 0.298039 0.243137 1 0.298039 0.243137 
1 0.298039 0.243137 1 0.298039 0.243137 
1 0.298039 0.243137 1 0.298039 0.243137 
1 0.298039 0.243137 1 0.298039 0.243137 
1 0.298039 0.243137 1 0.298039 0.243137 
1 0.298039 0.243137 1 0.298039 0.243137 
1 0.298039 0.243137 1 0.298039 0.243137 
1 0.298039 0.243137 1 0.298039 0.243137 
1 0.298039 0.243137 1 0.298039 0.243137 
1 0.298039 0.243137 1 0.298039 0.243137 
1 0.298039 0.243137 1 0.298039 0.243137 
1 0.298039 0.243137 1 0.298039 0.243137 
1 0.298039 0.243137 1 0.298039 0.243137 
1 0.298039 0.243137 1 0.298039 0.243137 
1 0.298039 0.243137 1 0.298039 0.243137 
1 0.298039 0.243137 1 0.298039 0.243137 
1 0.298039 0.243137 1 0.298039 0.243137 
1 0.298039 0.243137 1 0.298039 0.243137 
1 0.298039 0.243137 1 0.298039 0.243137 
1 0.298039 0.243137 1 0.298039 0.243137 
1 0.298039 0.243137 1 0.298039 0.243137 
1 0.298039 0.243137 1 0.298039 0.243137 
1 0.298039 0.243137 1 0.298039 0.243137 
1 0.298039 0.243137 1 0.298039 0.243137 
1 0.298039 0.243137 1 0.298039 0.243137 
1 0.298039 0.243137 1 0.298039 0.243137 
1 0.298039 0.243137 1 0.298039 0.243137 
1 0.298039 0.243137 1 0.298039 0.243137 
1 0.298039 0.243137 1 0.298039 0.243137 
1 0.298039 0.243137 1 0.298039 0.243137 
1 0.298039 0.243137 1 0.298039 0.243137 
1 0.298039 0.243137 1 0.298039 0.243137 
1 0.298039 0.243137 1 0.298039 0.243137 
1 0.298039 0.243137 1 0.298039 0.243137 
1 0.298039 0.243137 1 0.298039 0.243137 
1 0.298039 0.243137 1 0.298039 0.243137 
1 0.298039 0.243137 1 0.298039 0.243137 
1 0.298039 0.243137 1 0.298039 0.243137 
1 0.298039 0.243137 1 0.298039 0.243137 
1 0.298039 0.243137 1 0.298039 0.243137 
1 0.298039 0.243137 1 0.298039 0.243137 
1 0.298039 0.243137 1 0.298039 0.243137 
1 0.298039 0.243137 1 0.298039 0.243137 
1 0.298039 0.243137 1 0.298039 0.243137 
1 0.298039 0.243137 1 0.298039 0.243137 
1 0.298039 0.243137 1 0.298039 0.243137 
1 0.298039 0.243137 1 0.298039 0.243137 
1 0.298039 0.243137 1 0.298039 0.243137 
1 0.298039 0.243137 1 0.298039 0.243137 
1 0.298039 0.243137 1 0.298039 0.243137 
1 0.298039 0.243137 1 0.298039 0.243137 
1 0.298039 0.243137 1 0.298039 0.243137 
1 0.298039 0.243137 1 0.298039 0.243137 
1 0.298039 0.243137 1 0.298039 0.243137 
1 0.298039 0.243137 1 0.298039 0.243137 
1 0.298039 0.243137 1 0.298039 0.243137 
1 0.298039 0.243137 1 0.298039 0.243137 
1 0.298039 0.243137 1 0.298039 0.243137 
1 0.298039 0.243137 1 0.298039 0.243137 
1 0.298039 0.243137 1 0.298039 0.243137 
1 0.298039 0.243137 1 0.298039 0.243137 
1 0.298039 0.243137 1 0.298039 0.243137 
1 0.298039 0.243137 1 0.298039 0.243137 
1 0.298039 0.243137 1 0.298039 0.243137 
1 0.298039 0.243137 1 0.298039 0.243137 
1 0.298039 0.243137 1 0.298039 0.243137 
1 0.298039 0.243137 1 0.298039 0.243137 
1 0.298039 0.243137 1 0.298039 0.243137 
1 0.298039 0.243137 1 0.298039 0.243137 
1 0.298039 0.243137 1 0.298039 0.243137 
1 0.298039 0.243137 1 0.298039 0.243137 
1 0.298039 0.243137 1 0.298039 0.243137 
1 0.298039 0.243137 1 0.298039 0.243137 
1 0.298039 0.243137 1 0.298039 0.243137 
1 0.298039 0.243137 1 0.298039 0.243137 
1 0.298039 0.243137 1 0.298039 0.243137 
1 0.298039 0.243137 1 0.298039 0.243137 
1 0.298039 0.243137 1 0.298039 0.243137 
1 0.298039 0.243137 1 0.298039 0.243137 
1 0.298039 0.243137 1 0.298039 0.243137 
1 0.298039 0.243137 1 0.298039 0.243137 
1 0.298039 0.243137 1 0.298039 0.243137 
1 0.298039 0.243137 1 0.298039 0.243137 
1 0.298039 0.243137 1 0.298039 0.243137 
1 0.298039 0.243137 1 0.298039 0.243137 
1 0.298039 0.243137 1 0.298039 0.243137 
1 0.298039 0.243137 1 0.298039 0.243137 
1 0.298039 0.243137 1 0.298039 0.243137 
1 0.298039 0.243137 1 0.298039 0.243137 
1 0.298039 0.243137 1 0.298039 0.243137 
1 0.298039 0.243137 1 0.298039 0.243137 
1 0.298039 0.243137 1 0.298039 0.243137 
1 0.298039 0.243137 1 0.298039 0.243137 
1 0.298039 0.243137 1 0.298039 0.243137 
1 0.298039 0.243137 1 0.298039 0.243137 
1 0.298039 0.243137 1 0.298039 0.243137 
1 0.298039 0.243137 1 0.298039 0.243137 
1 0.298039 0.243137 1 0.298039 0.243137 
1 0.298039 0.243137 1 0.298039 0.243137 
1 0.298039 0.243137 1 0.298039 0.243137 
1 0.298039 0.243137 1 0.298039 0.243137 
1 0.298039 0.243137 1 0.298039 0.243137 
1 0.298039 0.243137 1 0.298039 0.243137 
1 0.298039 0.243137 1 0.298039 0.243137 
1 0.298039 0.243137 1 0.298039 0.243137 
1 0.298039 0.243137 1 0.298039 0.243137 
1 0.298039 0.243137 1 0.298039 0.243137 
1 0.298039 0.243137 1 0.298039 0.243137 
1 0.298039 0.243137 1 0.298039 0.243137 
1 0.298039 0.243137 1 0.298039 0.243137 
1 0.298039 0.243137 1 0.298039 0.243137 
1 0.298039 0.243137 1 0.298039 0.243137 
1 0.298039 0.243137 1 0.298039 0.243137 
1 0.298039 0.243137 1 0.298039 0.243137 
1 0.298039 0.243137 1 0.298039 0.243137 
1 0.298039 0.243137 1 0.298039 0.243137 
1 0.298039 0.243137 1 0.298039 0.243137 
1 0.298039 0.243137 1 0.298039 0.243137 
1 0.298039 0.243137 1 0.298039 0.243137 
1 0.298039 0.243137 1 0.298039 0.243137 
1 0.298039 0.243137 1 0.298039 0.243137 
1 0.298039 0.243137 1 0.298039 0.243137 
1 0.298039 0.243137 1 0.298039 0.243137 
1 0.298039 0.243137 1 0.298039 0.243137 
1 0.298039 0.243137 1 0.298039 0.243137 
1 0.298039 0.243137 1 0.298039 0.243137 
1 0.298039 0.243137 1 0.298039 0.243137 
1 0.298039 0.243137 1 0.298039 0.243137 
1 0.298039 0.243137 1 0.298039 0.243137 
1 0.298039 0.243137 1 0.298039 0.243137 
1 0.298039 0.243137 1 0.298039 0.243137 
1 0.298039 0.243137 1 0.298039 0.243137 
1 0.298039 0.243137 1 0.298039 0.243137 
1 0.298039 0.243137 1 0.298039 0.243137 
1 0.298039 0.243137 1 0.298039 0.243137 
1 0.298039 0.243137 1 0.298039 0.243137 
1 0.298039 0.243137 1 0.298039 0.243137 
1 0.298039 0.243137 1 0.298039 0.243137 
1 0.298039 0.243137 1 0.298039 0.243137 
1 0.298039 0.243137 1 0.298039 0.243137 