# vtk DataFile Version 4.2
vtk output
ASCII
DATASET POLYDATA
POINTS 1004 float
267.4 155.14 192.853 269.411 146.41 193.402 263.83 149.546 193.897 
279.502 148.545 193.714 267.849 149.958 193.007 265.339 155.892 193.417 
264.931 158.956 194.171 266.753 141.863 194.941 273.196 141.446 194.926 
281.424 143.648 194.891 286.578 149.483 194.699 279.252 160.372 194.06 
272.265 161.316 193.897 265.486 161.929 195.13 283.766 161.756 194.918 
271.403 140.291 195.45 292.104 146.803 196.548 288.964 151.046 195.114 
292.081 150.168 196.347 291.359 151.46 195.92 292.646 151.78 196.765 
290.476 153.691 195.552 291.848 154.226 196.256 291.219 157.37 196.165 
291.712 156.996 196.397 269.029 165.381 196.015 271.559 165.585 195.664 
266.481 138.778 196.745 276.173 138.507 196.94 291.512 139.484 197.763 
291.943 139.577 197.877 284.658 140.418 196.593 291.365 141.311 197.148 
292.421 140.481 197.741 292.698 140.719 197.878 289.359 142.06 196.569 
293.001 142.529 197.824 259.499 145.012 196.184 293.45 146.723 197.972 
293.621 150.761 197.946 293.158 152.326 197.309 293.524 154.896 197.983 
293.148 156.598 197.592 256.476 157.508 197.24 292.985 158.566 197.602 
291.439 161.715 196.879 292.233 162.652 197.556 286.44 165.373 195.984 
282.59 166.601 195.895 291.247 166.311 197.619 272.435 167.743 196.805 
290.042 167.304 197.225 279.267 169.561 196.931 265.187 137.553 198.158 
269.018 136.906 198.193 277.553 138.119 197.419 281.07 137.868 198.006 
286.213 138.012 198.188 288.699 138.495 197.931 286.516 139.162 197.381 
292.431 139.508 198.205 292.791 138.695 198.856 293.063 140.699 198.303 
293.497 141.086 198.841 293.228 142.191 198.122 293.803 146.058 198.685 
293.958 152.143 198.649 256.719 159.529 197.943 293.46 161.156 198.628 
292.507 164.793 198.228 289.435 169.456 197.667 284.748 170.835 197.393 
281.372 172.077 198.085 289.739 171.015 198.44 277.467 137.221 198.408 
282.626 137.504 198.54 287.607 137.554 198.739 291.135 137.732 198.955 
291.565 137.443 199.459 292.84 138.039 199.424 292.673 137.782 199.547 
293.109 138.322 199.623 257.913 139.628 199.122 293.718 140.527 199.525 
293.922 142.391 199.45 293.992 143.36 199.459 294.12 147.401 199.425 
251.346 148.958 198.422 250.444 150.991 198.75 294.213 151.441 199.413 
294.159 159.149 199.719 263.209 166.194 199.208 268.569 168.959 199.097 
290.886 172.53 199.878 269.662 136.013 199.75 272.795 136.075 199.771 
278.501 136.673 199.621 284.302 136.806 200.168 285.641 136.951 199.637 
286.574 136.953 199.717 286.975 136.813 200.401 288.167 136.822 200.533 
292.384 137.342 199.995 292.592 137.344 200.244 293.066 137.899 200.193 
259.004 138.314 199.868 254.099 139.957 200.462 252.064 141.73 200.186 
253.596 140.944 199.884 294.198 143.614 200.221 250.219 145.253 199.691 
294.233 145.609 200.234 255.759 161.491 199.808 293.852 165.965 200.749 
292.586 169.858 200.073 264.784 136.053 201.068 264.356 136.178 200.889 
265.576 136.044 200.583 266.408 135.991 200.489 269.905 135.841 200.912 
272.928 135.917 200.894 276.062 136.13 200.503 276.273 136.111 200.855 
284.945 136.801 200.717 286.4 136.872 201.251 288.293 136.802 201.105 
292.822 137.512 200.351 287.205 136.933 201.514 253.507 139.491 201.39 
294.128 141.035 200.931 250.721 142.11 200.91 294.274 146.844 201.083 
294.485 151.884 201.09 248.531 156.075 200.799 265.089 168.608 200.759 
293.129 170.25 201.138 280.11 176.021 201.437 285.252 176.453 201.374 
264.984 136.038 201.457 276.324 136.188 201.226 261.566 136.739 201.276 
262.456 136.509 201.988 265.309 136.091 202.008 269.095 135.998 202.097 
271.095 136.035 202.061 277.359 136.623 202.07 281.475 136.826 201.35 
284.584 136.913 201.291 288.692 136.867 201.451 292.142 137.162 201.364 
293.113 137.854 201.434 257.901 137.589 201.951 282.12 137.075 201.887 
285.272 137.136 201.835 287.926 137.113 201.999 254.563 138.586 202.202 
249.513 141.782 202.504 294.254 142.107 201.741 294.273 143.016 201.795 
247.227 144.814 202.479 294.21 144.941 201.899 244.851 154.445 202.203 
294.659 154.914 202.082 258.651 165.496 201.67 294.35 166.952 202.832 
293.894 169.892 202.748 288.733 175.931 201.537 292.804 137.545 201.773 
292.709 137.551 202.139 285.934 137.46 202.368 253.982 138.539 202.985 
288.547 137.797 202.992 289.904 137.768 203.181 293.921 146.125 202.843 
294.085 148.383 202.811 293.119 173.566 203.591 292.507 137.482 202.266 
293.378 138.763 202.746 283.79 138.238 203.251 253.122 138.63 204.579 
277.194 138.377 204.81 290.094 138.71 204.035 294.022 141.512 203.125 
285.463 141.163 205.153 293.918 143.147 203.358 293.513 145.041 203.741 
241.816 152.97 204.37 241.592 152.606 204.681 292.688 175.252 204.337 
278.501 177.934 204.12 292.646 138.058 203.057 293.116 138.748 203.298 
276.06 138.447 205.768 289.573 140.187 204.748 293.785 140.865 203.621 
278.245 139.267 206.113 280.692 139.858 205.614 288.808 141.791 205.219 
293.727 142.313 203.916 286.815 142.198 205.773 290.761 142.682 205.329 
292.099 142.593 205.227 289.55 143.524 205.804 292.332 144.403 204.954 
292.744 143.839 204.776 291.078 145.538 206.117 292.942 145.398 204.472 
292.373 146.483 205.459 292.842 147.136 205.213 293.243 147.582 204.746 
293.622 148.678 204.546 242.612 159 205.047 275.82 177.594 205.25 
291.143 177.496 204.805 281.383 179.922 206.004 287.235 179.421 205.3 
291.06 139.367 204.652 290.389 140.02 204.891 281.036 140.443 206.789 
293.512 141.561 204.317 283.4 141.261 206.318 292.538 142.837 205.086 
292.706 142.441 205.088 293.186 142.925 204.625 292.889 142.773 204.933 
289.693 145.087 206.871 294.178 151.793 205.421 240.825 152.322 205.812 
294.658 155.296 205.804 239.302 155.497 206.412 239 157.093 206.579 
239.359 158.748 206.581 241.299 158.841 205.555 240.483 159.355 206.176 
245.33 160.892 205.405 294.696 168.603 206.295 285.947 179.86 205.744 
263.649 137.523 207.455 275.82 138.665 207.147 292.624 139.553 204.496 
293.058 140.235 204.55 292.128 140.692 205.151 282.376 141.079 207.056 
292.36 141.322 205.208 292.803 141.415 205.057 293.016 141.879 204.922 
289.6 145.395 207.333 293.051 149.559 207.126 238.177 156.615 207.258 
237.819 159.493 207.87 237.708 160.002 208.142 238.825 161.229 208.357 
243.595 161.558 206.585 258.11 168.941 206.81 290.746 178.778 206.262 
277.765 179.92 207.941 292.581 140.513 204.988 292.906 140.939 204.926 
247.806 141.252 207.327 237.842 155.596 207.917 236.564 158.359 208.758 
236.781 160.069 209.333 237.699 161.206 209.548 238.328 161.143 208.662 
239.595 161.897 208.753 241.171 162.241 208.345 252.732 166.129 207.328 
267.356 174.552 207.735 291.36 179.011 207.535 238.176 161.658 209.923 
242.852 162.988 208.639 242.348 163.15 209.23 249.167 165.454 209.076 
293.692 176.538 209.062 272.599 177.977 209.239 292.766 178.191 209.026 
280.01 180.877 208.911 290.605 179.977 208.867 275.397 138.647 209.392 
248.764 139.856 210.218 241.651 146.813 209.794 237.88 152.535 210.016 
294.392 155.683 209.44 235.788 157.448 210.086 236.211 160.196 210.976 
240.234 162.785 210.454 255.843 169.319 210.183 294.596 173.529 210.404 
268.599 176.182 210.153 291.985 179.149 209.265 283.953 181.614 209.99 
251.466 138.626 211.73 235.759 155.365 211.579 236.54 160.699 211.722 
237.878 161.705 211.142 266.223 175.113 211.288 270.017 177.08 211.226 
275.758 179.802 210.856 292.507 179.082 210.744 280.63 181.317 210.997 
287.887 181.583 211.028 285.337 181.829 211.412 261.563 137.593 211.643 
247.387 140.081 212.463 280.598 141.022 211.632 243.818 142.467 212.319 
240.11 147.498 212.384 237.477 151.962 211.769 293.36 153.291 211.688 
235.99 154.405 212.454 234.941 157.805 212.374 234.782 158.372 212.987 
238.106 161.768 212.435 248.829 166.43 212.007 294.325 175.478 212.324 
281.753 181.557 212.016 278.061 139.912 212.991 237.831 151.111 213.115 
236.196 153.945 212.908 293.034 153.725 213.301 234.909 157.192 212.905 
234.654 158.108 213.396 234.663 158.392 213.278 234.628 158.359 213.384 
234.666 158.459 213.363 234.843 158.604 213.294 294.718 161.291 212.724 
279.653 180.909 212.723 291.027 180.522 212.108 291.38 180.304 212.597 
291.979 179.783 212.842 282.811 181.533 213.192 288.838 181.534 212.299 
276.062 139.036 212.91 245.178 141.011 214.246 241.557 144.646 214.331 
238.583 150.116 213.94 234.726 157.626 213.654 234.602 157.924 213.691 
234.604 157.962 213.816 234.734 158.432 213.521 234.621 158.061 213.734 
234.759 158.273 213.787 241.43 163.193 213.65 243.618 164.122 214.071 
245.653 165.138 213.61 252.029 168.001 214.241 265.954 174.896 213.788 
294.149 175.776 214.076 269.803 176.838 213.729 293.704 177.332 214.155 
281.981 181.205 213.691 285.56 181.695 213.478 288.127 181.595 213.367 
263.65 137.339 214.528 266.344 137.399 214.603 244.826 141.315 215.483 
281.492 142.86 214.829 293.194 155.429 215.03 235.572 156.001 214.535 
236.116 155.604 215.305 234.874 157.625 214.131 235.206 157.644 214.673 
237.647 160.87 214.697 260.518 171.759 214.946 294.279 174.148 214.818 
284.453 181.088 214.969 262.038 137.302 215.551 267.803 137.433 215.274 
249.534 139.261 215.791 241.538 145.337 215.809 294.165 159.059 214.944 
236.472 159.117 215.809 239.829 161.645 215.849 249.843 166.871 215.511 
293.878 175.256 215.635 269.548 175.949 215.807 293.06 178.289 215.315 
292.185 179.123 215.411 291.041 180.165 214.877 259.168 137.562 216.355 
262.783 137.429 216.539 263.865 137.449 216.571 268.777 137.736 216.774 
257.19 137.945 216.731 244.75 141.833 216.928 277.87 141.368 216.878 
243.553 142.95 216.872 288.767 149.961 216.676 238.904 151.485 216.444 
235.857 157.234 215.613 236.337 157.798 216.27 235.986 158.228 215.754 
237.276 159.562 216.326 239.377 160.763 216.869 245.229 164.069 216.859 
263.864 172.576 216.866 292.651 177.966 216.469 280.045 179.277 216.667 
288.857 180.554 215.785 254.009 138.505 217.037 256.908 138.225 217.478 
262.229 137.894 217.912 270.502 138.302 217.335 272.13 138.553 216.729 
273.038 139.001 217.085 275.973 140.12 216.787 245.471 141.777 217.519 
293.331 159.173 217.277 237.39 159.285 216.735 237.647 159.134 217.041 
[...]
POINT_DATA 1004
COLOR_SCALARS scalars 3
1 0.564706 0.623529 1 0.564706 0.623529 1 0.564706 0.623529 
1 0.564706 0.623529 1 0.564706 0.623529 
1 0.564706 0.623529 1 0.564706 0.623529 
1 0.564706 0.623529 1 0.564706 0.623529 
1 0.564706 0.623529 1 0.564706 0.623529 
1 0.564706 0.623529 1 0.564706 0.623529 
1 0.564706 0.623529 1 0.564706 0.623529 
1 0.564706 0.623529 1 0.564706 0.623529 
1 0.564706 0.623529 1 0.564706 0.623529 
1 0.564706 0.623529 1 0.564706 0.623529 
1 0.564706 0.623529 1 0.564706 0.623529 
1 0.564706 0.623529 1 0.564706 0.623529 
1 0.564706 0.623529 1 0.564706 0.623529 
1 0.564706 0.623529 1 0.564706 0.623529 
1 0.564706 0.623529 1 0.564706 0.623529 
1 0.564706 0.623529 1 0.564706 0.623529 
1 0.564706 0.623529 1 0.564706 0.623529 
1 0.564706 0.623529 1 0.564706 0.623529 
1 0.564706 0.623529 1 0.564706 0.623529 
1 0.564706 0.623529 1 0.564706 0.623529 
1 0.564706 0.623529 1 0.564706 0.623529 
1 0.564706 0.623529 1 0.564706 0.623529 
1 0.564706 0.623529 1 0.564706 0.623529 
1 0.564706 0.623529 1 0.564706 0.623529 
1 0.564706 0.623529 1 0.564706 0.623529 
1 0.564706 0.623529 1 0.564706 0.623529 
1 0.564706 0.623529 1 0.564706 0.623529 
1 0.564706 0.623529 1 0.564706 0.623529 
1 0.564706 0.623529 1 0.564706 0.623529 
1 0.564706 0.623529 1 0.564706 0.623529 
1 0.564706 0.623529 1 0.564706 0.623529 
1 0.564706 0.623529 1 0.564706 0.623529 
1 0.564706 0.623529 1 0.564706 0.623529 
1 0.564706 0.623529 1 0.564706 0.623529 
1 0.564706 0.623529 1 0.564706 0.623529 
1 0.564706 0.623529 1 0.564706 0.623529 
1 0.564706 0.623529 1 0.564706 0.623529 
1 0.564706 0.623529 1 0.564706 0.623529 
1 0.564706 0.623529 1 0.564706 0.623529 
1 0.564706 0.623529 1 0.564706 0.623529 
1 0.564706 0.623529 1 0.564706 0.623529 
1 0.564706 0.623529 1 0.564706 0.623529 
1 0.564706 0.623529 1 0.564706 0.623529 
1 0.564706 0.623529 1 0.564706 0.623529 
1 0.564706 0.623529 1 0.564706 0.623529 
1 0.564706 0.623529 1 0.564706 0.623529 
1 0.564706 0.623529 1 0.564706 0.623529 
1 0.564706 0.623529 1 0.564706 0.623529 
1 0.564706 0.623529 1 0.564706 0.623529 
1 0.564706 0.623529 1 0.564706 0.623529 
1 0.564706 0.623529 1 0.564706 0.623529 
1 0.564706 0.623529 1 0.564706 0.623529 
1 0.564706 0.623529 1 0.564706 0.623529 
1 0.564706 0.623529 1 0.564706 0.623529 
1 0.564706 0.623529 1 0.564706 0.623529 
1 0.564706 0.623529 1 0.564706 0.623529 
1 0.564706 0.623529 1 0.564706 0.623529 
1 0.564706 0.623529 1 0.564706 0.623529 
1 0.564706 0.623529 1 0.564706 0.623529 
1 0.564706 0.623529 1 0.564706 0.623529 
1 0.564706 0.623529 1 0.564706 0.623529 
1 0.564706 0.623529 1 0.564706 0.623529 
1 0.564706 0.623529 1 0.564706 0.623529 
1 0.564706 0.623529 1 0.564706 0.623529 
1 0.564706 0.623529 1 0.564706 0.623529 
1 0.564706 0.623529 1 0.564706 0.623529 
1 0.564706 0.623529 1 0.564706 0.623529 
1 0.564706 0.623529 1 0.564706 0.623529 
1 0.564706 0.623529 1 0.564706 0.623529 
1 0.564706 0.623529 1 0.564706 0.623529 
1 0.564706 0.623529 1 0.564706 0.623529 
1 0.564706 0.623529 1 0.564706 0.623529 
1 0.564706 0.623529 1 0.564706 0.623529 
1 0.564706 0.623529 1 0.564706 0.623529 
1 0.564706 0.623529 1 0.564706 0.623529 
1 0.564706 0.623529 1 0.564706 0.623529 
1 0.564706 0.623529 1 0.564706 0.623529 
1 0.564706 0.623529 1 0.564706 0.623529 
1 0.564706 0.623529 1 0.564706 0.623529 
1 0.564706 0.623529 1 0.564706 0.623529 
1 0.564706 0.623529 1 0.564706 0.623529 
1 0.564706 0.623529 1 0.564706 0.623529 
1 0.564706 0.623529 1 0.564706 0.623529 
1 0.564706 0.623529 1 0.564706 0.623529 
1 0.564706 0.623529 1 0.564706 0.623529 
1 0.564706 0.623529 1 0.564706 0.623529 
1 0.564706 0.623529 1 0.564706 0.623529 
1 0.564706 0.623529 1 0.564706 0.623529 
1 0.564706 0.623529 1 0.564706 0.623529 
1 0.564706 0.623529 1 0.564706 0.623529 
1 0.564706 0.623529 1 0.564706 0.623529 
1 0.564706 0.623529 1 0.564706 0.623529 
1 0.564706 0.623529 1 0.564706 0.623529 
1 0.564706 0.623529 1 0.564706 0.623529 
1 0.564706 0.623529 1 0.564706 0.623529 
1 0.564706 0.623529 1 0.564706 0.623529 
1 0.564706 0.623529 1 0.564706 0.623529 
1 0.564706 0.623529 1 0.564706 0.623529 
1 0.564706 0.623529 1 0.564706 0.623529 
1 0.564706 0.623529 1 0.564706 0.623529 
1 0.564706 0.623529 1 0.564706 0.623529 
1 0.564706 0.623529 1 0.564706 0.623529 
1 0.564706 0.623529 1 0.564706 0.623529 
1 0.564706 0.623529 1 0.564706 0.623529 
1 0.564706 0.623529 1 0.564706 0.623529 
1 0.564706 0.623529 1 0.564706 0.623529 
1 0.564706 0.623529 1 0.564706 0.623529 
1 0.564706 0.623529 1 0.564706 0.623529 
1 0.564706 0.623529 1 0.564706 0.623529 
1 0.564706 0.623529 1 0.564706 0.623529 
1 0.564706 0.623529 1 0.564706 0.623529 
1 0.564706 0.623529 1 0.564706 0.623529 
1 0.564706 0.623529 1 0.564706 0.623529 
1 0.564706 0.623529 1 0.564706 0.623529 
1 0.564706 0.623529 1 0.564706 0.623529 
1 0.564706 0.623529 1 0.564706 0.623529 
1 0.564706 0.623529 1 0.564706 0.623529 
1 0.564706 0.623529 1 0.564706 0.623529 
1 0.564706 0.623529 1 0.564706 0.623529 
1 0.564706 0.623529 1 0.564706 0.623529 
1 0.564706 0.623529 1 0.564706 0.623529 
1 0.564706 0.623529 1 0.564706 0.623529 
1 0.564706 0.623529 1 0.564706 0.623529 
1 0.564706 0.623529 1 0.564706 0.623529 
1 0.564706 0.623529 1 0.564706 0.623529 
1 0.564706 0.623529 1 0.564706 0.623529 
1 0.564706 0.623529 1 0.564706 0.623529 
1 0.564706 0.623529 1 0.564706 0.623529 
1 0.564706 0.623529 1 0.564706 0.623529 
1 0.564706 0.623529 1 0.564706 0.623529 
1 0.564706 0.623529 1 0.564706 0.623529 
1 0.564706 0.623529 1 0.564706 0.623529 
1 0.564706 0.623529 1 0.564706 0.623529 
1 0.564706 0.623529 1 0.564706 0.623529 
1 0.564706 0.623529 1 0.564706 0.623529 
1 0.564706 0.623529 1 0.564706 0.623529 
1 0.564706 0.623529 1 0.564706 0.623529 
1 0.564706 0.623529 1 0.564706 0.623529 
1 0.564706 0.623529 1 0.564706 0.623529 
1 0.564706 0.623529 1 0.564706 0.623529 
1 0.564706 0.623529 1 0.564706 0.623529 
1 0.564706 0.623529 1 0.564706 0.623529 
1 0.564706 0.623529 1 0.564706 0.623529 
1 0.564706 0.623529 1 0.564706 0.623529 
1 0.564706 0.623529 1 0.564706 0.623529 
1 0.564706 0.623529 1 0.564706 0.623529 
1 0.564706 0.623529 1 0.564706 0.623529 
1 0.564706 0.623529 1 0.564706 0.623529 
1 0.564706 0.623529 1 0.564706 0.623529 
1 0.564706 0.623529 1 0.564706 0.623529 
1 0.564706 0.623529 1 0.564706 0.623529 
1 0.564706 0.623529 1 0.564706 0.623529 
1 0.564706 0.623529 1 0.564706 0.623529 
1 0.564706 0.623529 1 0.564706 0.623529 
1 0.564706 0.623529 1 0.564706 0.623529 
1 0.564706 0.623529 1 0.564706 0.623529 
1 0.564706 0.623529 1 0.564706 0.623529 
1 0.564706 0.623529 1 0.564706 0.623529 
1 0.564706 0.623529 1 0.564706 0.623529 
1 0.564706 0.623529 1 0.564706 0.623529 
1 0.564706 0.623529 1 0.564706 0.623529 
1 0.564706 0.623529 1 0.564706 0.623529 
1 0.564706 0.623529 1 0.564706 0.623529 
1 0.564706 0.623529 1 0.564706 0.623529 
1 0.564706 0.623529 1 0.564706 0.623529 
1 0.564706 0.623529 1 0.564706 0.623529 
1 0.564706 0.623529 1 0.564706 0.623529 
1 0.564706 0.623529 1 0.564706 0.623529 
1 0.564706 0.623529 1 0.564706 0.623529 
1 0.564706 0.623529 1 0.564706 0.623529 
1 0.564706 0.623529 1 0.564706 0.623529 
1 0.564706 0.623529 1 0.564706 0.623529 
1 0.564706 0.623529 1 0.564706 0.623529 
1 0.564706 0.623529 1 0.564706 0.623529 
1 0.564706 0.623529 1 0.564706 0.623529 
1 0.564706 0.623529 1 0.564706 0.623529 
1 0.564706 0.623529 1 0.564706 0.623529 
1 0.564706 0.623529 1 0.564706 0.623529 
1 0.564706 0.623529 1 0.564706 0.623529 
1 0.564706 0.623529 1 0.564706 0.623529 
1 0.564706 0.623529 1 0.564706 0.623529 
1 0.564706 0.623529 1 0.564706 0.623529 
1 0.564706 0.623529 1 0.564706 0.623529 
1 0.564706 0.623529 1 0.564706 0.623529 
1 0.564706 0.623529 1 0.564706 0.623529 
1 0.564706 0.623529 1 0.564706 0.623529 
1 0.564706 0.623529 1 0.564706 0.623529 
1 0.564706 0.623529 1 0.564706 0.623529 
1 0.564706 0.623529 1 0.564706 0.623529 
1 0.564706 0.623529 1 0.564706 0.623529 
1 0.564706 0.623529 1 0.564706 0.623529 
1 0.564706 0.623529 1 0.564706 0.623529 
1 0.564706 0.623529 1 0.564706 0.623529 
1 0.564706 0.623529 1 0.564706 0.623529 
1 0.564706 0.623529 1 0.564706 0.623529 
1 0.564706 0.623529 1 0.564706 0.623529 
1 0.564706 0.623529 1 0.564706 0.623529 
1 0.564706 0.623529 1 0.564706 0.623529 
1 0.564706 0.623529 1 0.564706 0.623529 
1 0.564706 0.623529 1 0.564706 0.623529 
1 0.564706 0.623529 1 0.564706 0.623529 
1 0.564706 0.623529 1 0.564706 0.623529 
1 0.564706 0.623529 1 0.564706 0.623529 
1 0.564706 0.623529 1 0.564706 0.623529 
1 0.564706 0.623529 1 0.564706 0.623529 
1 0.564706 0.623529 1 0.564706 0.623529 
1 0.564706 0.623529 1 0.564706 0.623529 
1 0.564706 0.623529 1 0.564706 0.623529 
1 0.564706 0.623529 1 0.564706 0.623529 
1 0.564706 0.623529 1 0.564706 0.623529 
1 0.564706 0.623529 1 0.564706 0.623529 
1 0.564706 0.623529 1 0.564706 0.623529 
1 0.564706 0.623529 1 0.564706 0.623529 
1 0.564706 0.623529 1 0.564706 0.623529 
1 0.564706 0.623529 1 0.564706 0.623529 
1 0.564706 0.623529 1 0.564706 0.623529 
1 0.564706 0.623529 1 0.564706 0.623529 
1 0.564706 0.623529 1 0.564706 0.623529 
1 0.564706 0.623529 1 0.564706 0.623529 
1 0.564706 0.623529 1 0.564706 0.623529 
1 0.564706 0.623529 1 0.564706 0.623529 
1 0.564706 0.623529 1 0.564706 0.623529 
1 0.564706 0.623529 1 0.564706 0.623529 
1 0.564706 0.623529 1 0.564706 0.623529 
1 0.564706 0.623529 1 0.564706 0.623529 
1 0.564706 0.623529 1 0.564706 0.623529 
1 0.564706 0.623529 1 0.564706 0.623529 
1 0.564706 0.623529 1 0.564706 0.623529 
1 0.564706 0.623529 1 0.564706 0.623529 
1 0.564706 0.623529 1 0.564706 0.623529 
1 0.564706 0.623529 1 0.564706 0.623529 
1 0.564706 0.623529 1 0.564706 0.623529 
1 0.564706 0.623529 1 0.564706 0.623529 
1 0.564706 0.623529 1 0.564706 0.623529 
1 0.564706 0.623529 1 0.564706 0.623529 
1 0.564706 0.623529 1 0.564706 0.623529 
1 0.564706 0.623529 1 0.564706 0.623529 
1 0.564706 0.623529 1 0.564706 0.623529 
1 0.564706 0.623529 1 0.564706 0.623529 
1 0.564706 0.623529 1 0.564706 0.623529 
1 0.564706 0.623529 1 0.564706 0.623529 
1 0.564706 0.623529 1 0.564706 0.623529 
1 0.564706 0.623529 1 0.564706 0.623529 
1 0.564706 0.623529 1 0.564706 0.623529 
1 0.564706 0.623529 1 0.564706 0.623529 
1 0.564706 0.623529 1 0.564706 0.623529 
1 0.564706 0.623529 1 0.564706 0.623529 
1 0.564706 0.623529 1 0.564706 0.623529 
1 0.564706 0.623529 1 0.564706 0.623529 
1 0.564706 0.623529 1 0.564706 0.623529 
1 0.564706 0.623529 1 0.564706 0.623529 
1 0.564706 0.623529 1 0.564706 0.623529 
1 0.564706 0.623529 1 0.564706 0.623529 
1 0.564706 0.623529 1 0.564706 0.623529 
1 0.564706 0.623529 1 0.564706 0.623529 
1 0.564706 0.623529 1 0.564706 0.623529 
1 0.564706 0.623529 1 0.564706 0.623529 
1 0.564706 0.623529 1 0.564706 0.623529 
1 0.564706 0.623529 1 0.564706 0.623529 
1 0.564706 0.623529 1 0.564706 0.623529 
1 0.564706 0.623529 1 0.564706 0.623529 
1 0.564706 0.623529 1 0.564706 0.623529 
1 0.564706 0.623529 1 0.564706 0.623529 
1 0.564706 0.623529 1 0.564706 0.623529 
1 0.564706 0.623529 1 0.564706 0.623529 
1 0.564706 0.623529 1 0.564706 0.623529 
1 0.564706 0.623529 1 0.564706 0.623529 
1 0.564706 0.623529 1 0.564706 0.623529 
1 0.564706 0.623529 1 0.564706 0.623529 
1 0.564706 0.623529 1 0.564706 0.623529 
1 0.564706 0.623529 1 0.564706 0.623529 
1 0.564706 0.623529 1 0.564706 0.623529 
1 0.564706 0.623529 1 0.564706 0.623529 
1 0.564706 0.623529 1 0.564706 0.623529 
1 0.564706 0.623529 1 0.564706 0.623529 
1 0.564706 0.623529 1 0.564706 0.623529 
1 0.564706 0.623529 1 0.564706 0.623529 
1 0.564706 0.623529 1 0.564706 0.623529 
1 0.564706 0.623529 1 0.564706 0.623529 
1 0.564706 0.623529 1 0.564706 0.623529 
1 0.564706 0.623529 1 0.564706 0.623529 
1 0.564706 0.623529 1 0.564706 0.623529 
1 0.564706 0.623529 1 0.564706 0.623529 
1 0.564706 0.623529 1 0.564706 0.623529 
1 0.564706 0.623529 1 0.564706 0.623529 
1 0.564706 0.623529 1 0.564706 0.623529 
1 0.564706 0.623529 1 0.564706 0.623529 
1 0.564706 0.623529 1 0.564706 0.623529 
1 0.564706 0.623529 1 0.564706 0.623529 
1 0.564706 0.623529 1 0.564706 0.623529 
1 0.564706 0.623529 1 0.564706 0.623529 
1 0.564706 0.623529 1 0.564706 0.623529 
1 0.564706 0.623529 1 0.564706 0.623529 
1 0.564706 0.623529 1 0.564706 0.623529 
1 0.564706 0.623529 1 0.564706 0.623529 
1 0.564706 0.623529 1 0.564706 0.623529 
1 0.564706 0.623529 1 0.564706 0.623529 
1 0.564706 0.623529 1 0.564706 0.623529 
1 0.564706 0.623529 1 0.564706 0.623529 
1 0.564706 0.623529 1 0.564706 0.623529 
1 0.564706 0.623529 1 0.564706 0.623529 
1 0.564706 0.623529 1 0.564706 0.623529 
1 0.564706 0.623529 1 0.564706 0.623529 
1 0.564706 0.623529 1 0.564706 0.623529 
1 0.564706 0.623529 1 0.564706 0.623529 
1 0.564706 0.623529 1 0.564706 0.623529 
1 0.564706 0.623529 1 0.564706 0.623529 
1 0.564706 0.623529 1 0.564706 0.623529 
1 0.564706 0.623529 1 0.564706 0.623529 
1 0.564706 0.623529 1 0.564706 0.623529 
1 0.564706 0.623529 1 0.564706 0.623529 
1 0.564706 0.623529 1 0.564706 0.623529 
1 0.564706 0.623529 1 0.564706 0.623529 
1 0.564706 0.623529 1 0.564706 0.623529 
1 0.564706 0.623529 1 0.564706 0.623529 
1 0.564706 0.623529 1 0.564706 0.623529 
1 0.564706 0.623529 1 0.564706 0.623529 
1 0.564706 0.623529 1 0.564706 0.623529 
1 0.564706 0.623529 1 0.564706 0.623529 
1 0.564706 0.623529 1 0.564706 0.623529 
1 0.564706 0.623529 1 0.564706 0.623529 
1 0.564706 0.623529 1 0.564706 0.623529 
1 0.564706 0.623529 1 0.564706 0.623529 
1 0.564706 0.623529 1 0.564706 0.623529 
1 0.564706 0.623529 1 0.564706 0.623529 
1 0.564706 0.623529 1 0.564706 0.623529 
1 0.564706 0.623529 1 0.564706 0.623529 
1 0.564706 0.623529 1 0.564706 0.623529 
1 0.564706 0.623529 1 0.564706 0.623529 
1 0.564706 0.623529 1 0.564706 0.623529 
1 0.564706 0.623529 1 0.564706 0.623529 
1 0.564706 0.623529 1 0.564706 0.623529 
1 0.564706 0.623529 1 0.564706 0.623529 
1 0.564706 0.623529 1 0.564706 0.623529 
1 0.564706 0.623529 1 0.564706 0.623529 
1 0.564706 0.623529 1 0.564706 0.623529 
1 0.564706 0.623529 1 0.564706 0.623529 
1 0.564706 0.623529 1 0.564706 0.623529 
1 0.564706 0.623529 1 0.564706 0.623529 
1 0.564706 0.623529 1 0.564706 0.623529 
1 0.564706 0.623529 1 0.564706 0.623529 
1 0.564706 0.623529 1 0.564706 0.623529 
1 0.564706 0.623529 1 0.564706 0.623529 
1 0.564706 0.623529 1 0.564706 0.623529 
1 0.564706 0.623529 1 0.564706 0.623529 
1 0.564706 0.623529 1 0.564706 0.623529 
1 0.564706 0.623529 1 0.564706 0.623529 
1 0.564706 0.623529 1 0.564706 0.623529 
1 0.564706 0.623529 1 0.564706 0.623529 
1 0.564706 0.623529 1 0.564706 0.623529 
1 0.564706 0.623529 1 0.564706 0.623529 
1 0.564706 0.623529 1 0.564706 0.623529 
1 0.564706 0.623529 1 0.564706 0.623529 
1 0.564706 0.623529 1 0.564706 0.623529 
1 0.564706 0.623529 1 0.564706 0.623529 
1 0.564706 0.623529 1 0.564706 0.623529 
1 0.564706 0.623529 1 0.564706 0.623529 
1 0.564706 0.623529 1 0.564706 0.623529 
1 0.564706 0.623529 1 0.564706 0.623529 
1 0.564706 0.623529 1 0.564706 0.623529 
1 0.564706 0.623529 1 0.564706 0.623529 
1 0.564706 0.623529 1 0.564706 0.623529 
1 0.564706 0.623529 1 0.564706 0.623529 
1 0.564706 0.623529 1 0.564706 0.623529 
1 0.564706 0.623529 1 0.564706 0.623529 
1 0.564706 0.623529 1 0.564706 0.623529 
1 0.564706 0.623529 1 0.564706 0.623529 
1 0.564706 0.623529 1 0.564706 0.623529 
1 0.564706 0.623529 1 0.564706 0.623529 
1 0.564706 0.623529 1 0.564706 0.623529 
1 0.564706 0.623529 1 0.564706 0.623529 
1 0.564706 0.623529 1 0.564706 0.623529 
1 0.564706 0.623529 1 0.564706 0.623529 
1 0.564706 0.623529 1 0.564706 0.623529 
1 0.564706 0.623529 1 0.564706 0.623529 
1 0.564706 0.623529 1 0.564706 0.623529 
1 0.564706 0.623529 1 0.564706 0.623529 
1 0.564706 0.623529 1 0.564706 0.623529 
1 0.564706 0.623529 1 0.564706 0.623529 
1 0.564706 0.623529 1 0.564706 0.623529 
1 0.564706 0.623529 1 0.564706 0.623529 
1 0.564706 0.623529 1 0.564706 0.623529 
1 0.564706 0.623529 1 0.564706 0.623529 
1 0.564706 0.623529 1 0.564706 0.623529 
1 0.564706 0.623529 1 0.564706 0.623529 
1 0.564706 0.623529 1 0.564706 0.623529 
1 0.564706 0.623529 1 0.564706 0.623529 
1 0.564706 0.623529 1 0.564706 0.623529 
1 0.564706 0.623529 1 0.564706 0.623529 
1 0.564706 0.623529 1 0.564706 0.623529 
1 0.564706 0.623529 1 0.564706 0.623529 
1 0.564706 0.623529 1 0.564706 0.623529 
1 0.564706 0.623529 1 0.564706 0.623529 
1 0.564706 0.623529 1 0.564706 0.623529 
1 0.564706 0.623529 1 0.564706 0.623529 
1 0.564706 0.623529 1 0.564706 0.623529 
1 0.564706 0.623529 1 0.564706 0.623529 
1 0.564706 0.623529 1 0.564706 0.623529 
1 0.564706 0.623529 1 0.564706 0.623529 
1 0.564706 0.623529 1 0.564706 0.623529 
1 0.564706 0.623529 1 0.564706 0.623529 
1 0.564706 0.623529 1 0.564706 0.623529 
1 0.564706 0.623529 1 0.564706 0.623529 
1 0.564706 0.623529 1 0.564706 0.623529 
1 0.564706 0.623529 1 0.564706 0.623529 
1 0.564706 0.623529 1 0.564706 0.623529 
1 0.564706 0.623529 1 0.564706 0.623529 
1 0.564706 0.623529 1 0.564706 0.623529 
1 0.564706 0.623529 1 0.564706 0.623529 
1 0.564706 0.623529 1 0.564706 0.623529 
1 0.564706 0.623529 1 0.564706 0.623529 
1 0.564706 0.623529 1 0.564706 0.623529 
1 0.564706 0.623529 1 0.564706 0.623529 
1 0.564706 0.623529 1 0.564706 0.623529 
1 0.564706 0.623529 1 0.564706 0.623529 
1 0.564706 0.623529 1 0.564706 0.623529 
1 0.564706 0.623529 1 0.564706 0.623529 
1 0.564706 0.623529 1 0.564706 0.623529 
1 0.564706 0.623529 1 0.564706 0.623529 
1 0.564706 0.623529 1 0.564706 0.623529 
1 0.564706 0.623529 1 0.564706 0.623529 
1 0.564706 0.623529 1 0.564706 0.623529 
1 0.564706 0.623529 1 0.564706 0.623529 
1 0.564706 0.623529 1 0.564706 0.623529 
1 0.564706 0.623529 1 0.564706 0.623529 
1 0.564706 0.623529 1 0.564706 0.623529 
1 0.564706 0.623529 1 0.564706 0.623529 
1 0.564706 0.623529 1 0.564706 0.623529 
1 0.564706 0.623529 1 0.564706 0.623529 
1 0.564706 0.623529 1 0.564706 0.623529 
1 0.564706 0.623529 1 0.564706 0.623529 
1 0.564706 0.623529 1 0.564706 0.623529 
1 0.564706 0.623529 1 0.564706 0.623529 
1 0.564706 0.623529 1 0.564706 0.623529 
1 0.564706 0.623529 1 0.564706 0.623529 
1 0.564706 0.623529 1 0.564706 0.623529 
1 0.564706 0.623529 1 0.564706 0.623529 
1 0.564706 0.623529 1 0.564706 0.623529 
1 0.564706 0.623529 1 0.564706 0.623529 
1 0.564706 0.623529 1 0.564706 0.623529 
1 0.564706 0.623529 1 0.564706 0.623529 
1 0.564706 0.623529 1 0.564706 0.623529 
1 0.564706 0.623529 1 0.564706 0.623529 
1 0.564706 0.623529 1 0.564706 0.623529 
1 0.564706 0.623529 1 0.564706 0.623529 
1 0.564706 0.623529 1 0.564706 0.623529 
1 0.564706 0.623529 1 0.564706 0.623529 
1 0.564706 0.623529 1 0.564706 0.623529 
1 0.564706 0.623529 1 0.564706 0.623529 
1 0.564706 0.623529 1 0.564706 0.623529 
1 0.564706 0.623529 1 0.564706 0.623529 
1 0.564706 0.623529 1 0.564706 0.623529 
1 0.564706 0.623529 1 0.564706 0.623529 
1 0.564706 0.623529 1 0.564706 0.623529 
1 0.564706 0.623529 1 0.564706 0.623529 
1 0.564706 0.623529 1 0.564706 0.623529 
1 0.564706 0.623529 1 0.564706 0.623529 
1 0.564706 0.623529 1 0.564706 0.623529 
1 0.564706 0.623529 1 0.564706 0.623529 
1 0.564706 0.623529 1 0.564706 0.623529 
1 0.564706 0.623529 1 0.564706 0.623529 
1 0.564706 0.623529 1 0.564706 0.623529 
1 0.564706 0.623529 1 0.564706 0.623529 
1 0.564706 0.623529 1 0.564706 0.623529 
1 0.564706 0.623529 1 0.564706 0.623529 
1 0.564706 0.623529 1 0.564706 0.623529 
1 0.564706 0.623529 1 0.564706 0.623529 
1 0.564706 0.623529 1 0.564706 0.623529 
1 0.564706 0.623529 1 0.564706 0.623529 
1 0.564706 0.623529 1 0.564706 0.623529 
1 0.564706 0.623529 1 0.564706 0.623529 
1 0.564706 0.623529 1 0.564706 0.623529 
1 0.564706 0.623529 1 0.564706 0.623529 
1 0.564706 0.623529 1 0.564706 0.623529 
1 0.564706 0.623529 1 0.564706 0.623529 
1 0.564706 0.623529 1 0.564706 0.623529 
1 0.564706 0.623529 1 0.564706 0.623529 
1 0.564706 0.623529 1 0.564706 0.623529 
1 0.564706 0.623529 1 0.564706 0.623529 
1 0.564706 0.623529 1 0.564706 0.623529 
1 0.564706 0.623529 1 0.564706 0.623529 
1 0.564706 0.623529 1 0.564706 0.623529 
1 0.564706 0.623529 1 0.564706 0.623529 
1 0.564706 0.623529 1 0.564706 0.623529 
1 0.564706 0.623529 1 0.564706 0.623529 
1 0.564706 0.623529 1 0.564706 0.623529 