# vtk DataFile Version 4.2
vtk output
ASCII
DATASET POLYDATA
POINTS 301 float
277.716 290.611 216.383 277.513 290.42 216.541 278.135 290.609 216.37 
278.533 290.499 216.477 277.525 290.832 216.378 277.176 290.986 216.495 
277.942 290.829 216.348 276.049 289.848 217.527 275.543 290.097 217.366 
276.81 289.805 217.404 273.856 290.718 217.578 276.076 290.572 216.891 
279.262 290.613 216.582 282.145 290.408 216.905 282.021 290.097 217.075 
274.122 290.871 217.376 274.184 291.135 217.339 274.693 290.881 217.192 
281.973 290.837 216.809 278.892 291.702 216.704 279.664 291.597 216.705 
281.556 291.388 216.817 282.427 291.298 216.883 280.27 292.042 216.94 
275.887 289.679 217.945 277.421 289.573 217.811 283.622 290.037 217.439 
285.495 289.556 218.041 287.734 289.792 217.769 272.176 290.528 218.802 
274.702 290.008 217.978 287.281 290.325 217.549 288.118 290.235 217.588 
272.602 291.17 218.053 284.087 291.285 217.139 289.201 290.743 217.614 
271.73 291.415 218.472 272.596 291.853 218.167 273.958 291.566 217.55 
274.801 291.754 217.355 285.511 291.64 217.383 275.296 289.752 218.155 
289.697 288.9 218.414 270.986 290.687 219.416 293.183 290.279 218.331 
270.255 291.047 219.684 271.165 291.158 218.881 271.398 291.806 218.744 
270.964 291.951 219.082 271.515 292.212 218.944 286.729 292.687 217.947 
291.551 287.506 220.033 292.836 287.975 219.352 293.854 288.043 219.364 
295.536 287.53 219.935 288.283 288.313 219.413 291.193 288.506 218.829 
292.182 288.503 218.874 296.444 288.739 219.269 297.366 288.693 219.405 
298.333 288.141 219.832 276.047 289.53 218.745 283.984 289.127 219.262 
297.004 289.353 219.159 298.835 288.734 219.67 271.416 290.375 219.749 
298.33 289.852 219.326 269.297 291.073 220.589 269.111 290.981 221.049 
268.941 291.201 220.844 296.519 290.874 219.03 297.387 290.615 219.152 
269.164 291.286 220.52 269.396 291.542 220.237 269.83 291.776 219.866 
269.401 291.904 220.268 298.835 291.073 219.567 269.89 292.187 220.046 
297.234 292.078 219.507 277.717 293.972 218.832 289.095 293.604 218.908 
293.508 293.341 219.417 287.652 294.288 219.4 294.209 287.024 220.454 
297.174 287.115 220.563 301.318 288.332 220.965 272.229 290.128 220.151 
268.716 291.178 221.251 269.477 290.726 221.441 269.001 291.816 220.632 
300.849 291.496 220.614 270.416 292.678 220.09 297.287 292.522 219.736 
294.571 294.158 220.461 292.201 286.636 221.85 293.05 286.72 221.148 
294.657 286.366 221.778 301.828 288.015 221.491 301.754 287.669 221.772 
302.58 289.358 221.719 268.062 291.609 221.864 268.3 291.85 221.491 
301.36 293.026 221.78 298.537 293.875 221.439 277.289 295.443 221.395 
292.084 286.616 222.283 293.526 286.313 222.471 301.693 287.243 222.285 
302.762 287.907 222.496 302.956 288.181 222.522 267.57 292.051 222.682 
302.361 292.433 222.196 271.102 293.984 221.71 301.571 293.149 222.061 
296.571 294.797 221.965 292.325 286.612 223.394 266.991 291.555 224.089 
267.126 291.758 223.533 267.298 291.975 223.137 303.358 291.652 223.186 
297.823 294.835 222.613 301.756 293.602 223.201 302.097 286.566 223.99 
290.996 287.16 223.701 304.089 288.516 224.641 304.248 290.05 224.473 
266.847 292.15 224.357 267.217 292.54 224.097 274.378 295.819 223.879 
291.386 296.324 224.301 299.766 285.821 224.948 302.685 286.741 224.681 
303.479 287.439 225.075 266.386 291.465 226.079 304.552 290.235 225.749 
266.662 291.955 224.799 301.139 294.581 224.823 303.649 287.44 226.058 
304.667 289.645 226.423 265.976 291.336 227.184 266.06 291.497 226.78 
266.18 291.867 226.576 267.097 293.077 226.204 297.97 295.854 225.823 
304.416 288.536 226.76 304.708 290.396 227.282 265.884 291.582 227.387 
266.786 292.858 226.677 303.141 293.29 226.205 273.971 296.26 227.513 
302.607 286.579 226.983 265.749 291.255 228.144 265.667 291.312 228.289 
267.041 290.667 228.649 265.989 291.97 228.428 304.549 291.23 228.229 
267.602 293.554 227.853 302.297 294.121 228.27 303.814 287.751 228.715 
304.636 289.407 228.614 265.68 291.376 228.451 265.778 291.371 228.809 
266.496 290.945 229.505 265.783 291.588 228.601 300.88 286.001 229.087 
302.562 286.724 229.1 304.583 289.579 229.398 265.905 291.489 229.189 
266.555 291.122 230.377 303.299 293.131 229.608 297.845 295.726 230.107 
268.388 290.4 231.075 304.35 290.492 230.729 266.5 291.792 231.064 
266.737 292.027 231.45 304.321 291.259 230.187 267.821 293.201 231.189 
302.272 287.076 231.422 304.142 289.129 230.789 267.01 291.231 232.156 
266.739 291.379 231.691 283.921 289.514 230.926 267.644 292.703 232.26 
303.078 292.829 231.494 274.296 295.87 231.351 296.912 295.457 231.833 
280.897 296.683 231.738 293.553 286.358 232.401 302.706 287.701 232.024 
303.215 288.825 232.276 266.861 291.418 232.083 267.916 290.786 232.877 
267.124 291.79 232.587 267.842 292.516 232.959 302.983 292.364 232.315 
302.088 293.083 232.579 299.816 294.599 231.971 292.784 286.583 234.032 
296.789 286.279 233.291 298.236 286.497 233.471 301.875 287.688 233.09 
302.763 288.549 232.861 267.475 291.321 233.3 302.974 291.286 232.897 
267.834 291.91 233.761 301.594 292.738 233.52 299.36 293.823 233.608 
288.605 295.546 233.972 293.691 286.888 234.881 294.819 286.663 234.393 
295.519 286.977 234.826 299.106 287.182 234.231 300.672 287.499 233.836 
302.187 288.846 233.669 301.633 290.462 234.401 267.651 291.346 233.681 
267.969 291.332 234.177 268.276 291.019 234.374 268.175 291.984 234.201 
268.617 292.208 234.458 293.687 294.556 234.591 281.615 295.472 234.689 
292.549 287.312 235.421 293.613 287.3 235.424 287.733 288.239 235.12 
300.258 288.669 235.044 286.642 288.709 235.495 300.563 288.988 235.011 
268.322 291.186 234.709 269.326 290.669 235.038 270.799 290.195 234.912 
268.382 291.39 234.805 269.143 291.825 235.373 299.827 291.011 235.404 
299.225 291.695 235.431 294.885 293.396 235.601 289.793 287.87 235.74 
295.078 287.937 235.885 297.997 287.86 235.218 287.521 288.51 235.744 
293.433 288.293 236.376 294.473 288.741 236.531 298.812 288.397 235.352 
285.275 289.244 236.453 297.615 289.22 235.952 270.035 290.749 235.928 
269.607 290.753 235.587 298.364 289.803 235.898 268.562 291.202 235.056 
268.84 291.115 235.304 295.217 290.691 236.66 298.937 290.287 235.774 
269.539 291.869 235.668 294.159 291.877 236.613 294.442 291.414 236.692 
296.846 291.731 236.071 273.683 292.84 236.826 295.838 292.609 235.905 
279.67 293.698 237.071 280.181 294.157 236.543 287.222 293.947 236.507 
290.05 293.554 236.38 276.723 289.626 237.972 286.088 289.511 236.973 
288.273 289.187 236.856 290.388 289.045 236.981 270.925 290.865 236.573 
294.188 289.863 236.849 269.734 291.145 236.002 292.517 291.064 237.122 
271.334 291.794 236.801 284.378 293.261 237.389 278.836 289.601 238.055 
283.9 289.784 237.55 284.872 290.067 237.684 285.6 290.595 237.852 
290.466 290.053 237.397 270.789 291.352 236.658 284.653 291.313 238.134 
286.573 291.108 237.834 273.089 291.302 237.702 273.722 291.795 237.76 
282.867 292.051 238.223 283.191 291.669 238.298 289.277 291.355 237.55 
280.051 292.245 238.397 285.656 292.57 237.651 276.053 290.216 238.735 
274.916 290.689 238.469 279.787 290.326 238.861 279.95 290.567 238.936 
283.267 290.516 238.222 273.583 291.111 237.932 275.474 290.783 238.784 
275.744 290.949 238.879 280.339 290.803 238.889 275.791 291.183 238.828 
275.982 290.684 238.935 276.553 290.745 239.043 277.78 290.549 239.071 
277.664 290.939 239.076 
POLYGONS 598 2392
3 0 1 5 
3 1 0 2 
3 4 0 5 
3 2 0 6 
3 6 0 4 
3 6 3 2 
3 6 4 5 
3 11 7 8 
3 7 11 9 
3 9 1 25 
3 1 14 25 
3 17 8 30 
3 10 17 30 
3 9 11 1 
3 3 1 2 
3 3 12 1 
3 12 14 1 
3 13 14 12 
3 14 13 34 
3 17 10 15 
3 15 16 17 
3 11 8 17 
3 1 11 5 
3 5 11 17 
3 12 3 19 
3 13 12 20 
3 20 12 19 
3 18 13 20 
3 39 5 17 
3 5 19 6 
3 6 19 3 
3 18 20 23 
3 21 18 23 
3 22 13 18 
3 21 22 18 
3 7 24 8 
3 9 61 7 
3 7 61 24 
3 9 25 61 
3 26 31 27 
3 31 28 27 
3 33 10 29 
3 34 26 14 
3 31 26 40 
3 40 26 34 
3 32 28 31 
3 15 10 16 
3 44 28 35 
3 35 28 32 
3 38 33 36 
3 33 38 10 
3 16 38 17 
3 16 10 38 
3 38 39 17 
3 13 22 34 
3 32 31 40 
3 35 32 40 
3 79 39 38 
3 39 79 5 
3 20 19 79 
3 19 5 79 
3 20 79 23 
3 21 23 79 
3 22 21 79 
3 50 34 22 
3 40 34 50 
3 8 24 41 
3 14 26 25 
3 28 42 27 
3 43 33 29 
3 43 29 65 
3 10 30 29 
3 41 30 8 
3 43 45 46 
3 43 46 33 
3 48 46 45 
3 36 48 47 
3 36 46 48 
3 36 33 46 
3 38 36 37 
3 47 48 49 
3 36 47 49 
3 37 36 49 
3 38 37 79 
3 79 50 22 
3 40 80 35 
3 50 80 40 
3 55 57 51 
3 57 52 95 
3 51 57 95 
3 95 52 53 
3 53 54 83 
3 59 60 84 
3 57 55 56 
3 56 55 42 
3 53 52 44 
3 44 52 57 
3 54 53 44 
3 59 54 58 
3 24 61 41 
3 27 62 26 
3 26 62 25 
3 27 42 62 
3 56 42 28 
3 44 56 28 
3 57 56 44 
3 58 54 44 
3 59 58 63 
3 60 59 71 
3 71 59 63 
3 64 60 71 
3 61 30 41 
3 58 44 70 
3 63 58 70 
3 64 71 66 
3 67 68 69 
3 73 45 67 
3 65 45 43 
3 71 63 70 
3 67 69 72 
3 73 67 72 
3 74 73 75 
3 45 73 74 
3 45 74 48 
3 71 70 78 
3 66 71 78 
3 74 75 77 
3 48 74 49 
3 49 74 91 
3 92 78 70 
3 66 78 76 
3 79 82 50 
3 50 82 80 
3 44 35 81 
3 70 44 92 
3 81 35 80 
3 53 83 95 
3 59 84 54 
3 84 60 85 
3 64 85 60 
3 55 62 42 
3 66 85 64 
3 65 29 86 
3 61 29 30 
3 69 68 87 
3 67 88 68 
3 68 88 87 
3 67 45 88 
3 86 45 65 
3 85 66 90 
3 72 69 87 
3 89 73 87 
3 73 72 87 
3 73 89 75 
3 76 90 66 
3 75 89 77 
3 74 77 91 
3 78 92 76 
3 49 91 79 
3 49 79 37 
3 81 92 44 
3 90 76 92 
3 93 81 129 
3 92 81 93 
3 51 95 94 
3 95 83 106 
3 94 95 106 
3 106 83 96 
3 54 96 83 
3 84 96 54 
3 85 97 98 
3 90 99 85 
3 29 61 86 
3 119 99 90 
3 111 119 90 
3 101 100 110 
3 87 100 101 
3 87 101 89 
3 101 110 89 
3 102 111 90 
3 91 77 89 
3 79 91 112 
3 92 103 90 
3 111 102 113 
3 128 104 79 
3 80 129 81 
3 92 93 114 
3 102 90 103 
3 80 82 129 
3 105 51 94 
3 105 94 115 
3 94 106 115 
3 105 123 51 
3 85 107 84 
3 98 107 85 
3 97 108 98 
3 98 108 107 
3 108 97 99 
3 109 108 99 
3 62 55 51 
3 97 85 99 
3 119 125 99 
3 86 88 45 
3 86 61 88 
3 25 123 181 
3 100 87 117 
3 117 110 100 
3 91 89 112 
3 79 112 128 
3 103 92 120 
3 92 114 120 
3 102 103 136 
3 79 104 82 
3 130 115 106 
3 96 130 106 
3 115 123 105 
3 122 84 107 
3 109 99 124 
3 62 123 25 
3 62 51 123 
3 99 125 124 
3 25 181 61 
3 117 87 116 
3 117 118 110 
3 110 118 127 
3 89 110 127 
3 89 127 112 
3 113 102 121 
3 102 136 121 
3 121 111 113 
3 114 93 143 
3 93 129 143 
3 120 114 143 
3 103 120 136 
3 107 108 122 
3 108 109 122 
3 87 88 116 
3 117 116 135 
3 135 118 117 
3 126 118 135 
3 118 126 127 
3 120 143 136 
3 82 104 149 
3 84 130 96 
3 122 130 84 
3 123 115 130 
3 122 109 131 
3 131 109 124 
3 132 131 124 
3 124 125 144 
3 88 139 133 
3 116 88 133 
3 119 134 125 
3 125 134 144 
3 135 116 133 
3 134 119 145 
3 126 135 127 
3 112 127 156 
3 121 136 119 
3 119 111 121 
3 112 156 128 
3 104 128 149 
3 82 149 129 
3 122 131 130 
3 131 132 137 
3 132 144 137 
3 124 144 132 
3 88 153 139 
3 88 61 153 
3 144 134 138 
3 140 133 139 
3 140 141 133 
3 141 135 133 
3 134 145 138 
3 127 135 141 
3 142 127 141 
3 127 142 156 
3 148 145 119 
3 148 119 136 
3 128 156 149 
3 149 186 129 
3 131 150 130 
3 131 137 150 
3 137 144 150 
3 139 153 151 
3 144 138 145 
3 139 151 146 
3 140 139 146 
3 146 141 140 
3 141 146 147 
3 141 147 142 
3 142 147 156 
3 148 136 157 
3 136 143 196 
3 150 144 158 
3 153 152 151 
3 61 181 153 
3 144 145 159 
3 151 152 146 
3 146 152 154 
3 159 145 155 
3 146 154 156 
3 147 146 156 
3 145 148 155 
3 136 196 157 
3 148 157 155 
3 149 156 176 
3 143 170 196 
3 143 129 170 
3 150 164 130 
3 150 165 164 
3 158 165 150 
3 130 198 123 
3 144 159 158 
3 161 160 152 
3 152 162 161 
3 153 162 152 
3 160 161 163 
3 160 163 152 
3 152 163 154 
3 167 154 163 
3 159 155 166 
3 176 156 154 
3 155 157 169 
3 129 186 207 
3 165 158 178 
3 166 158 159 
3 167 161 168 
3 168 161 162 
3 162 153 168 
3 181 171 153 
3 161 167 163 
3 174 154 167 
3 154 174 176 
3 196 169 157 
3 196 183 169 
3 149 176 184 
3 185 170 129 
3 149 184 186 
3 164 198 130 
3 164 165 198 
3 187 123 198 
3 178 158 166 
3 178 166 172 
3 167 168 180 
3 153 180 168 
3 153 171 180 
3 155 172 166 
3 173 167 180 
3 172 155 175 
3 173 174 167 
3 155 183 175 
3 183 155 169 
3 198 209 187 
3 165 177 198 
3 177 165 178 
3 188 177 178 
3 180 191 179 
3 180 171 191 
3 180 174 173 
3 192 174 180 
3 192 176 174 
3 182 176 192 
3 175 183 172 
3 176 182 193 
3 183 196 195 
3 185 129 207 
3 197 123 187 
3 198 177 199 
3 197 236 123 
3 188 200 177 
3 200 188 189 
3 189 188 178 
3 172 189 178 
3 123 236 181 
3 179 190 180 
3 192 190 179 
3 192 179 202 
3 202 179 191 
3 171 217 191 
3 189 172 203 
3 180 190 192 
3 203 172 194 
3 192 193 182 
3 183 194 172 
3 183 195 194 
3 196 206 195 
3 170 185 206 
3 206 196 170 
3 221 186 184 
3 187 209 197 
3 177 200 212 
3 200 189 201 
3 191 217 202 
3 181 272 171 
3 171 272 230 
3 192 202 215 
3 215 193 192 
3 204 193 215 
3 193 204 219 
3 193 219 256 
3 203 195 205 
3 203 194 195 
3 193 256 176 
3 205 195 206 
3 220 206 207 
3 185 207 206 
3 207 186 260 
3 209 208 197 
3 198 210 209 
3 177 212 199 
3 199 212 211 
3 181 236 224 
3 227 212 200 
3 200 213 227 
3 200 201 213 
3 214 227 213 
3 201 214 213 
3 201 189 214 
3 181 243 272 
3 214 189 203 
3 216 215 202 
3 216 202 217 
3 217 230 229 
3 171 230 217 
3 215 218 204 
3 215 216 218 
3 205 214 203 
3 218 219 204 
3 234 205 206 
3 176 256 184 
3 206 220 235 
3 221 260 186 
3 220 207 261 
3 197 265 236 
3 223 222 197 
3 208 223 197 
3 208 209 223 
3 210 237 209 
3 198 237 210 
3 198 199 237 
3 211 238 199 
3 239 224 236 
3 212 227 225 
3 212 225 211 
3 181 226 243 
3 239 181 224 
3 239 226 181 
3 230 272 262 
3 217 248 228 
3 216 217 228 
3 217 229 248 
3 233 227 214 
3 216 228 231 
3 218 216 231 
3 219 231 232 
3 219 218 231 
3 214 205 233 
3 219 232 256 
3 233 205 234 
3 221 259 271 
3 271 260 221 
3 207 260 261 
3 197 222 265 
3 222 223 240 
3 265 222 240 
3 223 209 240 
3 240 209 237 
3 237 199 238 
3 240 237 241 
3 238 241 237 
3 211 242 238 
3 242 211 225 
3 243 273 272 
3 226 263 243 
3 239 263 226 
3 244 241 238 
3 242 247 238 
3 247 244 238 
3 230 262 266 
3 244 251 241 
3 247 251 244 
3 242 251 247 
3 225 227 242 
3 227 251 242 
3 249 248 229 
3 246 229 245 
3 246 249 229 
3 266 245 229 
3 230 266 229 
3 241 255 250 
3 251 255 241 
3 227 233 251 
3 228 248 231 
3 248 249 231 
3 232 231 252 
3 231 249 252 
3 250 257 254 
3 255 257 250 
3 233 234 251 
3 252 256 232 
3 254 235 253 
3 257 235 254 
3 296 258 184 
3 258 282 259 
3 260 284 261 
3 261 269 253 
3 284 269 261 
3 255 235 257 
3 206 235 255 
3 234 206 255 
3 251 234 255 
3 258 221 184 
3 259 221 258 
3 220 261 253 
3 235 220 253 
3 243 274 273 
3 243 263 274 
3 239 264 263 
3 236 264 239 
3 265 240 241 
3 245 266 246 
3 276 265 241 
3 267 269 241 
3 250 267 241 
3 249 246 266 
3 249 266 268 
3 268 266 277 
3 269 276 241 
3 267 254 269 
3 250 254 267 
3 268 252 249 
3 252 268 270 
3 254 253 269 
3 252 270 256 
3 285 282 258 
3 256 296 184 
3 285 258 296 
3 259 282 271 
3 260 271 286 
3 262 272 289 
3 272 295 289 
3 272 273 295 
3 274 275 273 
3 274 263 275 
3 275 263 264 
3 264 236 265 
3 279 264 265 
3 287 266 262 
3 264 279 275 
3 265 284 279 
3 266 280 277 
3 280 270 277 
3 280 266 292 
3 284 286 279 
3 270 268 277 
3 280 292 281 
3 283 278 282 
3 275 286 278 
3 279 286 275 
3 276 284 265 
3 280 256 270 
3 281 256 280 
3 296 256 281 
3 278 271 282 
3 286 271 278 
3 276 269 284 
3 284 260 286 
3 262 289 287 
3 295 273 291 
3 273 275 291 
3 266 287 292 
3 292 287 288 
3 293 288 287 
3 289 295 290 
3 288 281 292 
3 293 281 288 
3 291 282 295 
3 275 278 291 
3 278 283 291 
3 296 293 294 
3 296 281 293 
3 295 282 285 
3 283 282 291 
3 287 289 299 
3 287 297 293 
3 297 287 298 
3 299 298 287 
3 289 290 299 
3 294 293 297 
3 294 297 296 
3 296 297 298 
3 299 300 298 
3 285 300 299 
3 290 285 299 
3 295 285 290 
3 300 296 298 
3 285 296 300 

POINT_DATA 301
COLOR_SCALARS scalars 3
0.94902 0.282353 0.231373 0.94902 0.282353 0.231373 0.94902 0.282353 0.231373 
0.94902 0.282353 0.231373 0.94902 0.282353 0.231373 
0.94902 0.282353 0.231373 0.94902 0.282353 0.231373 
0.94902 0.282353 0.231373 0.94902 0.282353 0.231373 
0.94902 0.282353 0.231373 0.94902 0.282353 0.231373 
0.94902 0.282353 0.231373 0.94902 0.282353 0.231373 
0.94902 0.282353 0.231373 0.94902 0.282353 0.231373 
0.94902 0.282353 0.231373 0.94902 0.282353 0.231373 
0.94902 0.282353 0.231373 0.94902 0.282353 0.231373 
0.94902 0.282353 0.231373 0.94902 0.282353 0.231373 
0.94902 0.282353 0.231373 0.94902 0.282353 0.231373 
0.94902 0.282353 0.231373 0.94902 0.282353 0.231373 
0.94902 0.282353 0.231373 0.94902 0.282353 0.231373 
0.94902 0.282353 0.231373 0.94902 0.282353 0.231373 
0.94902 0.282353 0.231373 0.94902 0.282353 0.231373 
0.94902 0.282353 0.231373 0.94902 0.282353 0.231373 
0.94902 0.282353 0.231373 0.94902 0.282353 0.231373 
0.94902 0.282353 0.231373 0.94902 0.282353 0.231373 
0.94902 0.282353 0.231373 0.94902 0.282353 0.231373 
0.94902 0.282353 0.231373 0.94902 0.282353 0.231373 
0.94902 0.282353 0.231373 0.94902 0.282353 0.231373 
0.94902 0.282353 0.231373 0.94902 0.282353 0.231373 
0.94902 0.282353 0.231373 0.94902 0.282353 0.231373 
0.94902 0.282353 0.231373 0.94902 0.282353 0.231373 
0.94902 0.282353 0.231373 0.94902 0.282353 0.231373 
0.94902 0.282353 0.231373 0.94902 0.282353 0.231373 
0.94902 0.282353 0.231373 0.94902 0.282353 0.231373 
0.94902 0.282353 0.231373 0.94902 0.282353 0.231373 
0.94902 0.282353 0.231373 0.94902 0.282353 0.231373 
0.94902 0.282353 0.231373 0.94902 0.282353 0.231373 
0.94902 0.282353 0.231373 0.94902 0.282353 0.231373 
0.94902 0.282353 0.231373 0.94902 0.282353 0.231373 
0.94902 0.282353 0.231373 0.94902 0.282353 0.231373 
0.94902 0.282353 0.231373 0.94902 0.282353 0.231373 
0.94902 0.282353 0.231373 0.94902 0.282353 0.231373 
0.94902 0.282353 0.231373 0.94902 0.282353 0.231373 
0.94902 0.282353 0.231373 0.94902 0.282353 0.231373 
0.94902 0.282353 0.231373 0.94902 0.282353 0.231373 
0.94902 0.282353 0.231373 0.94902 0.282353 0.231373 
0.94902 0.282353 0.231373 0.94902 0.282353 0.231373 
0.94902 0.282353 0.231373 0.94902 0.282353 0.231373 
0.94902 0.282353 0.231373 0.94902 0.282353 0.231373 
0.94902 0.282353 0.231373 0.94902 0.282353 0.231373 
0.94902 0.282353 0.231373 0.94902 0.282353 0.231373 
0.94902 0.282353 0.231373 0.94902 0.282353 0.231373 
0.94902 0.282353 0.231373 0.94902 0.282353 0.231373 
0.94902 0.282353 0.231373 0.94902 0.282353 0.231373 
0.94902 0.282353 0.231373 0.94902 0.282353 0.231373 
0.94902 0.282353 0.231373 0.94902 0.282353 0.231373 
0.94902 0.282353 0.231373 0.94902 0.282353 0.231373 
0.94902 0.282353 0.231373 0.94902 0.282353 0.231373 
0.94902 0.282353 0.231373 0.94902 0.282353 0.231373 
0.94902 0.282353 0.231373 0.94902 0.282353 0.231373 
0.94902 0.282353 0.231373 0.94902 0.282353 0.231373 
0.94902 0.282353 0.231373 0.94902 0.282353 0.231373 
0.94902 0.282353 0.231373 0.94902 0.282353 0.231373 
0.94902 0.282353 0.231373 0.94902 0.282353 0.231373 
0.94902 0.282353 0.231373 0.94902 0.282353 0.231373 
0.94902 0.282353 0.231373 0.94902 0.282353 0.231373 
0.94902 0.282353 0.231373 0.94902 0.282353 0.231373 
0.94902 0.282353 0.231373 0.94902 0.282353 0.231373 
0.94902 0.282353 0.231373 0.94902 0.282353 0.231373 
0.94902 0.282353 0.231373 0.94902 0.282353 0.231373 
0.94902 0.282353 0.231373 0.94902 0.282353 0.231373 
0.94902 0.282353 0.231373 0.94902 0.282353 0.231373 
0.94902 0.282353 0.231373 0.94902 0.282353 0.231373 
0.94902 0.282353 0.231373 0.94902 0.282353 0.231373 
0.94902 0.282353 0.231373 0.94902 0.282353 0.231373 
0.94902 0.282353 0.231373 0.94902 0.282353 0.231373 
0.94902 0.282353 0.231373 0.94902 0.282353 0.231373 
0.94902 0.282353 0.231373 0.94902 0.282353 0.231373 
0.94902 0.282353 0.231373 0.94902 0.282353 0.231373 
0.94902 0.282353 0.231373 0.94902 0.282353 0.231373 
0.94902 0.282353 0.231373 0.94902 0.282353 0.231373 
0.94902 0.282353 0.231373 0.94902 0.282353 0.231373 
0.94902 0.282353 0.231373 0.94902 0.282353 0.231373 
0.94902 0.282353 0.231373 0.94902 0.282353 0.231373 
0.94902 0.282353 0.231373 0.94902 0.282353 0.231373 
0.94902 0.282353 0.231373 0.94902 0.282353 0.231373 
0.94902 0.282353 0.231373 0.94902 0.282353 0.231373 
0.94902 0.282353 0.231373 0.94902 0.282353 0.231373 
0.94902 0.282353 0.231373 0.94902 0.282353 0.231373 
0.94902 0.282353 0.231373 0.94902 0.282353 0.231373 
0.94902 0.282353 0.231373 0.94902 0.282353 0.231373 
0.94902 0.282353 0.231373 0.94902 0.282353 0.231373 
0.94902 0.282353 0.231373 0.94902 0.282353 0.231373 
0.94902 0.282353 0.231373 0.94902 0.282353 0.231373 
0.94902 0.282353 0.231373 0.94902 0.282353 0.231373 
0.94902 0.282353 0.231373 0.94902 0.282353 0.231373 
0.94902 0.282353 0.231373 0.94902 0.282353 0.231373 
0.94902 0.282353 0.231373 0.94902 0.282353 0.231373 
0.94902 0.282353 0.231373 0.94902 0.282353 0.231373 
0.94902 0.282353 0.231373 0.94902 0.282353 0.231373 
0.94902 0.282353 0.231373 0.94902 0.282353 0.231373 
0.94902 0.282353 0.231373 0.94902 0.282353 0.231373 
0.94902 0.282353 0.231373 0.94902 0.282353 0.231373 
0.94902 0.282353 0.231373 0.94902 0.282353 0.231373 
0.94902 0.282353 0.231373 0.94902 0.282353 0.231373 
0.94902 0.282353 0.231373 0.94902 0.282353 0.231373 
0.94902 0.282353 0.231373 0.94902 0.282353 0.231373 
0.94902 0.282353 0.231373 0.94902 0.282353 0.231373 
0.94902 0.282353 0.231373 0.94902 0.282353 0.231373 
0.94902 0.282353 0.231373 0.94902 0.282353 0.231373 
0.94902 0.282353 0.231373 0.94902 0.282353 0.231373 
0.94902 0.282353 0.231373 0.94902 0.282353 0.231373 
0.94902 0.282353 0.231373 0.94902 0.282353 0.231373 
0.94902 0.282353 0.231373 0.94902 0.282353 0.231373 
0.94902 0.282353 0.231373 0.94902 0.282353 0.231373 
0.94902 0.282353 0.231373 0.94902 0.282353 0.231373 
0.94902 0.282353 0.231373 0.94902 0.282353 0.231373 
0.94902 0.282353 0.231373 0.94902 0.282353 0.231373 
0.94902 0.282353 0.231373 0.94902 0.282353 0.231373 
0.94902 0.282353 0.231373 0.94902 0.282353 0.231373 
0.94902 0.282353 0.231373 0.94902 0.282353 0.231373 
0.94902 0.282353 0.231373 0.94902 0.282353 0.231373 
0.94902 0.282353 0.231373 0.94902 0.282353 0.231373 
0.94902 0.282353 0.231373 0.94902 0.282353 0.231373 
0.94902 0.282353 0.231373 0.94902 0.282353 0.231373 
0.94902 0.282353 0.231373 0.94902 0.282353 0.231373 
0.94902 0.282353 0.231373 0.94902 0.282353 0.231373 
0.94902 0.282353 0.231373 0.94902 0.282353 0.231373 
0.94902 0.282353 0.231373 0.94902 0.282353 0.231373 
0.94902 0.282353 0.231373 0.94902 0.282353 0.231373 
0.94902 0.282353 0.231373 0.94902 0.282353 0.231373 
0.94902 0.282353 0.231373 0.94902 0.282353 0.231373 
0.94902 0.282353 0.231373 0.94902 0.282353 0.231373 
0.94902 0.282353 0.231373 0.94902 0.282353 0.231373 
0.94902 0.282353 0.231373 0.94902 0.282353 0.231373 
0.94902 0.282353 0.231373 0.94902 0.282353 0.231373 
0.94902 0.282353 0.231373 0.94902 0.282353 0.231373 
0.94902 0.282353 0.231373 0.94902 0.282353 0.231373 
0.94902 0.282353 0.231373 0.94902 0.282353 0.231373 
0.94902 0.282353 0.231373 0.94902 0.282353 0.231373 
0.94902 0.282353 0.231373 0.94902 0.282353 0.231373 
0.94902 0.282353 0.231373 0.94902 0.282353 0.231373 
0.94902 0.282353 0.231373 0.94902 0.282353 0.231373 
0.94902 0.282353 0.231373 0.94902 0.282353 0.231373 
0.94902 0.282353 0.231373 0.94902 0.282353 0.231373 
0.94902 0.282353 0.231373 0.94902 0.282353 0.231373 
0.94902 0.282353 0.231373 0.94902 0.282353 0.231373 
0.94902 0.282353 0.231373 0.94902 0.282353 0.231373 
0.94902 0.282353 0.231373 0.94902 0.282353 0.231373 
0.94902 0.282353 0.231373 0.94902 0.282353 0.231373 
0.94902 0.282353 0.231373 0.94902 0.282353 0.231373 
0.94902 0.282353 0.231373 0.94902 0.282353 0.231373 
0.94902 0.282353 0.231373 0.94902 0.282353 0.231373 
0.94902 0.282353 0.231373 0.94902 0.282353 0.231373 
0.94902 0.282353 0.231373 0.94902 0.282353 0.231373 
0.94902 0.282353 0.231373 0.94902 0.282353 0.231373 
0.94902 0.282353 0.231373 0.94902 0.282353 0.231373 

NORMALS Normals float
-0.201852 -0.320433 -0.925515 -0.0855263 -0.700201 -0.708805 0.0675786 -0.34324 -0.936813 
0.221024 -0.336272 -0.915461 -0.212556 0.0112692 -0.977084 -0.246427 0.155895 -0.956541 
0.0567442 0.178641 -0.982277 -0.0579639 -0.854195 -0.516712 -0.269996 -0.739732 -0.616359 
-0.12556 -0.843533 -0.522193 -0.438636 -0.374515 -0.816907 -0.218896 -0.502961 -0.836131 
0.103107 -0.332236 -0.937544 0.156489 -0.239429 -0.95822 0.128239 -0.627872 -0.767679 
-0.408423 -0.223073 -0.885115 -0.421062 0.115408 -0.89966 -0.280699 -0.221033 -0.933998 
0.0657811 -0.00996636 -0.997784 0.0440221 0.376221 -0.925483 0.0371115 0.279571 -0.959408 
0.13861 0.458328 -0.877908 0.138895 0.263081 -0.954723 0.0782186 0.47835 -0.874679 
-0.098758 -0.936312 -0.336998 -0.0229161 -0.942422 -0.333641 0.0852247 -0.639532 -0.764026 
-0.0440589 -0.726705 -0.685536 0.0933089 -0.435154 -0.895508 -0.329872 -0.821859 -0.464471 
-0.341114 -0.839841 -0.422266 0.0181458 -0.332341 -0.942985 0.0964719 -0.276332 -0.956208 
-0.440257 -0.313936 -0.841201 0.200736 -0.0950667 -0.975022 0.171355 0.0306661 -0.984732 
-0.456477 0.139752 -0.878691 -0.32804 0.49256 -0.806086 -0.33924 0.322347 -0.883747 
-0.241673 0.475497 -0.84587 0.133683 0.0658874 -0.988832 -0.293828 -0.931666 -0.213692 
-0.0246195 -0.707565 -0.706219 -0.444453 -0.712031 -0.543574 0.148968 -0.183153 -0.971732 
-0.600692 -0.600483 -0.527816 -0.554194 -0.290169 -0.780173 -0.41158 0.350423 -0.841312 
-0.584011 0.212823 -0.78335 -0.364853 0.599283 -0.71256 0.105369 0.469621 -0.876558 
-0.259142 -0.890607 -0.373718 0.0327101 -0.648335 -0.760652 0.0254664 -0.635109 -0.772003 
0.0898748 -0.652023 -0.752854 -0.0799749 -0.859843 -0.504257 0.0695228 -0.602068 -0.795412 
0.0150165 -0.717205 -0.696701 0.0794537 -0.315175 -0.945702 0.193714 -0.389801 -0.900295 
0.203322 -0.467456 -0.860317 -0.118499 -0.991039 -0.061644 -0.0863792 -0.904936 -0.416688 
0.145159 -0.143388 -0.978963 0.181136 -0.303744 -0.935377 -0.381441 -0.918877 -0.100836 
0.310988 -0.00843132 -0.950377 -0.488846 -0.698625 -0.522449 -0.475994 -0.831481 -0.286478 
-0.731531 -0.465078 -0.498563 0.069828 0.136718 -0.988146 0.20042 -0.0570931 -0.978045 
-0.759316 -0.0917401 -0.644223 -0.686825 -0.130754 -0.714965 -0.558912 0.280896 -0.780202 
-0.648595 0.306198 -0.696827 0.312294 0.254122 -0.915366 -0.52868 0.544849 -0.650874 
0.160954 0.314485 -0.935518 -0.0924342 0.754796 -0.649415 0.177014 0.582307 -0.793464 
0.121484 0.595701 -0.793966 0.0561453 0.859049 -0.508805 -0.0339079 -0.858504 -0.511685 
0.147344 -0.802489 -0.578188 0.392491 -0.440896 -0.807193 -0.252386 -0.967181 0.0293494 
-0.783326 -0.412441 -0.465073 -0.375565 -0.914977 -0.147537 -0.670866 0.488863 -0.55763 
0.50499 0.247775 -0.826797 -0.427214 0.678985 -0.597049 0.188593 0.56324 -0.804483 
0.0763202 0.84872 -0.523306 -0.212791 -0.962144 -0.170291 -0.0855584 -0.871261 -0.483306 
0.00512094 -0.924955 -0.380042 0.566271 -0.444442 -0.694124 0.364913 -0.690676 -0.624344 
0.735654 -0.0995108 -0.670008 -0.826136 -0.229616 -0.514563 -0.789221 0.0837836 -0.608367 
0.331558 0.724259 -0.604581 0.265482 0.735694 -0.623116 -0.0545239 0.947911 -0.313833 
-0.377078 -0.922805 -0.0790141 -0.110772 -0.981196 -0.158064 0.313669 -0.781091 -0.539915 
0.641269 -0.551381 -0.533623 0.772215 -0.466264 -0.431603 -0.793042 0.32408 -0.515807 
0.677893 0.460047 -0.573426 -0.406601 0.838861 -0.361924 0.420236 0.758017 -0.498811 
0.141357 0.872157 -0.468359 -0.176505 -0.971602 0.15759 -0.75996 -0.583772 -0.285781 
-0.861378 -0.292563 -0.415253 -0.890509 0.180341 -0.417697 0.837127 0.401168 -0.371865 
0.221014 0.852555 -0.473605 0.509272 0.797146 -0.324346 0.459861 -0.835783 -0.29999 
-0.253221 -0.967392 -0.00561842 0.874552 -0.346038 -0.339731 0.941909 -0.0227283 -0.3351 
-0.858639 0.445951 -0.25272 -0.630764 0.724593 -0.277672 -0.26564 0.920385 -0.286928 
0.0500647 0.977229 -0.206198 0.0630529 -0.997837 -0.0186076 0.593447 -0.780756 -0.195551 
0.783489 -0.586672 -0.204845 -0.844738 -0.421476 -0.329813 0.968236 0.0697591 -0.240108 
-0.95481 0.119304 -0.272221 0.446887 0.864826 -0.228842 0.736222 -0.676425 -0.0206711 
0.977586 -0.152177 -0.145489 -0.751475 -0.602477 -0.2689 -0.933506 -0.104548 -0.342983 
-0.906873 0.327633 -0.265024 -0.620681 0.756764 -0.205094 0.196396 0.967841 -0.157199 
0.916991 -0.391875 -0.0745782 0.983732 0.166766 -0.0667898 -0.954054 0.236557 -0.183908 
-0.773253 0.629715 -0.0744248 0.784677 0.60269 -0.145075 -0.16047 0.985655 -0.0522774 
0.542929 -0.839359 0.0265358 -0.729059 -0.661509 -0.175722 -0.950932 -0.309376 -0.00393818 
-0.279374 -0.959738 0.0292063 -0.808501 0.585255 0.0616687 0.93737 0.34562 0.0434191 
-0.517769 0.852937 -0.0664412 0.605022 0.795735 0.0274553 0.802776 -0.582091 0.129311 
0.980499 -0.181747 0.074763 -0.981574 0.136251 0.133968 -0.908154 -0.30814 0.283383 
-0.482854 -0.859844 0.165891 -0.903672 0.412762 0.114036 0.260995 -0.957063 0.126144 
0.519542 -0.826941 0.215046 0.973595 -0.173427 0.148445 -0.949831 0.130364 0.284299 
-0.562977 -0.78244 0.266166 0.690762 0.712758 0.121752 0.193792 0.959828 0.202916 
-0.232289 -0.9705 0.0645838 0.929593 0.109855 0.351835 -0.920455 0.220844 0.322476 
-0.837806 0.46176 0.291307 0.912442 0.350164 0.211741 -0.535225 0.809345 0.241856 
0.458967 -0.853149 0.247963 0.840318 -0.455719 0.293575 -0.750435 -0.568394 0.337307 
-0.815085 -0.511489 0.272057 -0.175999 -0.984389 0.00177214 -0.686178 0.672287 0.277832 
0.748845 0.601672 0.277888 -0.183116 0.905444 0.382936 0.129588 0.949995 0.284106 
-0.00905358 0.969638 0.244378 -0.0893552 -0.994035 0.0625272 0.714375 -0.587893 0.37954 
0.811141 -0.272127 0.517684 -0.882794 -0.199228 0.42542 -0.464079 -0.872113 0.155078 
-0.878735 0.256661 0.402431 -0.60589 0.693729 0.389407 0.752144 0.425319 0.503371 
0.546166 0.66702 0.506742 0.394236 0.890946 0.225375 -0.170499 -0.925219 0.338969 
0.123348 -0.956908 0.262891 0.170059 -0.876881 0.449621 0.586465 -0.614727 0.527417 
0.78382 -0.304406 0.541261 -0.764783 -0.526785 0.370952 0.748094 0.211994 0.62882 
-0.774638 0.482439 0.408888 0.527195 0.483838 0.698546 0.264489 0.788951 0.554619 
0.0957308 0.914199 0.393796 -0.061237 -0.851221 0.521223 0.044918 -0.868517 0.493621 
0.202002 -0.745456 0.635209 0.247737 -0.708711 0.660571 0.406197 -0.720488 0.56205 
0.670919 -0.279405 0.686878 0.682557 0.0575268 0.728565 -0.876576 0.0455326 0.479105 