# vtk DataFile Version 4.2
vtk output
ASCII
DATASET POLYDATA
POINTS 1634 float
288.906 212.772 121.829 288.534 212.577 121.888 285.459 213.453 121.66 
289.302 212.806 122.028 289.417 213.119 121.843 289.673 213.007 122.058 
285.964 213.764 121.453 288.052 213.458 121.395 290.378 213.802 122.109 
290.347 214.123 121.936 286.953 215.121 121.308 289.838 214.561 121.634 
285.581 212.473 122.514 288.386 212.472 122.101 288.732 212.53 122.295 
283.758 212.924 122.823 289.868 213.07 122.189 289.638 212.909 122.249 
282.951 213.607 122.602 290.028 216.033 121.699 291.718 216.534 122.36 
284.506 212.656 122.75 285.067 212.502 122.832 285.829 212.411 122.829 
287.568 212.398 122.599 286.794 212.456 123.234 288.132 212.532 122.895 
288.879 212.661 122.69 289.601 212.933 122.624 290.27 213.361 122.979 
291.343 214.083 122.979 281 214.752 123.182 292.237 215.821 122.862 
281.786 216.302 122.713 293.022 217.201 123.266 292.42 218.085 122.757 
293.067 218.015 123.17 291.504 219.458 122.534 291.817 221.889 123.054 
280.611 213.072 124.151 280.469 213.152 124.14 280.389 213.399 124.019 
280.215 213.254 124.268 281.441 213.053 124.013 279.357 214.07 124.423 
280.684 213.731 123.686 286.165 212.858 124.196 289.309 213.337 124.088 
290.137 213.415 123.577 292.175 214.663 123.947 292.068 214.593 124.128 
292.894 215.594 124.447 293.531 216.458 124.548 294.661 218.29 124.625 
280.441 213.117 124.342 278.446 213.785 125.282 278.268 213.918 125.293 
280.022 213.301 124.52 278.158 214.239 125.1 277.926 214.121 125.559 
277.633 214.411 125.369 279.469 213.598 125.005 277.38 214.611 125.403 
277.151 214.903 125.449 278.063 214.757 124.852 291.072 214.191 124.461 
277.21 215.58 125.113 290.079 214.205 125.106 292.554 215.248 124.795 
292.414 215.286 125.187 277.451 215.91 124.897 293.408 216.194 125.243 
277.717 217.227 124.676 294.876 218.051 125.156 295.272 218.365 125.681 
294.798 223.413 124.339 296.793 222.575 125.627 296.778 223.352 125.516 
283.265 228.64 124.751 293.93 228.331 124.844 286.708 231.12 124.775 
278.357 213.842 125.423 277.428 214.366 125.98 277.917 214.133 125.985 
278.615 213.867 125.704 280.715 213.649 125.951 276.755 215.076 125.863 
276.353 215.714 125.869 275.858 216.062 126.305 291.388 214.949 125.559 
275.731 216.609 126.122 293.393 216.291 125.854 275.93 216.834 125.858 
296.125 219.456 125.977 297.6 221.706 126.908 297.936 222.662 126.898 
297.669 224.134 126.174 297.251 228.373 125.944 295.715 229.914 125.604 
277.092 214.599 126.303 277.771 214.496 126.801 275.568 215.97 127.337 
275.09 216.459 127.299 274.921 216.935 127.039 291.681 215.848 126.711 
274.587 217.699 127.07 294.482 217.487 126.99 294.905 217.864 126.999 
274.085 219.136 127.226 297.103 220.519 126.887 296.302 232.548 126.171 
281.565 240.542 126.743 287.743 241.826 126.311 290.151 243.281 126.642 
286.019 247.846 126.995 285.075 251.812 127.193 285.689 252.438 127.296 
276.115 215.483 127.181 278.124 214.689 127.268 274.639 216.886 127.981 
298.323 221.927 128.24 299.794 225.216 128.037 301.764 229.9 128.971 
301.366 230.886 128.56 298.708 234.994 127.596 299.074 236.542 128.337 
298.008 239.577 128.848 292.596 246.184 128.216 290.948 249.486 128.418 
288.219 253.506 128.131 286.47 258.238 128.165 283.144 261.272 127.848 
285.343 263.628 128.147 284.427 268.592 128.322 279.729 270.245 128.164 
275.035 216.609 128.269 275.765 216.162 128.272 274.331 217.307 128.492 
274.831 216.968 128.784 273.354 218.331 128.804 275.11 217.07 129.228 
273.089 218.809 128.713 272.625 219.572 128.936 272.444 219.488 129.537 
297.465 220.745 128.9 272.103 221.305 128.986 299.59 223.517 128.978 
302.646 232.432 130.151 300.77 233.95 128.679 301.713 234.451 129.805 
275.231 249.046 128.331 286.836 263.056 128.593 275.431 265.528 128.772 
273.234 218.365 129.452 274.021 217.881 129.624 272.853 218.852 129.644 
272.004 220.148 129.902 271.358 223.316 129.458 270.728 226.496 130.029 
291.466 252.858 130.05 288.724 263.756 129.778 286.683 270.74 129.718 
276.11 275.289 129.902 275.174 217.785 130.187 276.05 217.605 130.203 
273.398 218.763 130.535 271.786 220.302 130.653 272.877 219.292 130.797 
271.267 220.959 130.854 270.973 221.271 131.277 270.064 222.743 131.591 
269.946 223.778 131.207 303.542 230.008 131.732 303.42 230.832 131.164 
270.109 234.112 130.481 302.44 234.628 131.094 302.603 234.888 131.803 
301.032 237.29 131.151 294.092 248.452 130.765 290.995 254.434 130.141 
291.324 254.859 130.621 289.983 259.206 130.282 271.574 266.696 129.987 
271.477 274.587 131.009 270.42 221.938 131.853 289.266 220.265 132.315 
295.171 220.347 131.606 297.738 221.504 131.496 302.786 235.106 132.721 
290.897 261.923 131.676 284.205 277.999 132.059 280.839 279.287 131.828 
271.923 221.088 132.77 274.491 220.703 133.059 288.768 220.764 132.836 
293.313 220.741 132.744 270.204 222.551 132.896 288.274 221.276 133.351 
269.567 223.726 132.62 268.373 226.604 133.362 303.55 228.938 132.907 
303.92 231.529 133.412 303.728 233.092 133.733 294.64 249.837 132.891 
291.682 263.817 132.991 285.458 278.389 132.996 276.259 281.698 133.098 
271.093 221.727 132.985 296.458 222.144 133.876 287.228 222.312 134.332 
269.133 224.773 133.727 302.306 226.58 134.014 303.911 230.15 134.025 
264.738 237.736 133.89 293.117 255.097 133.261 264.32 271.703 133.733 
272.427 281.999 133.897 281.779 281.528 133.75 280.363 282.12 133.868 
282.89 281.55 134.296 271.383 222.531 134.106 270.23 223.693 134.579 
286.285 223.363 135.265 299.819 224.151 134.592 301.263 225.387 134.452 
267.64 227.342 135.263 303.618 228.899 134.743 265.417 232.113 135.282 
304.027 231.78 135.214 291.139 273.623 135.3 270.354 283.549 135.406 
279.373 283.252 134.871 283.454 282.133 135.643 274.895 284.388 135.386 
285.955 223.797 135.637 267.967 226.848 135.512 303.824 229.745 135.487 
302.54 236.722 136.128 289.406 277.697 135.931 270.415 284.806 136.453 
280.417 283.534 136.059 275.732 285.016 136.474 276.409 284.995 136.736 
268.743 226.032 135.987 272.786 225.414 137.106 284.517 225.124 136.643 
303.865 233.483 137.56 257.83 243.45 136.899 293.49 266.589 137.193 
290.337 277.062 137.071 283.373 282.294 136.431 280.462 283.63 137.433 
279.549 284.017 136.922 276.39 285.153 137.763 269.723 285.646 137.741 
272.832 285.584 137.45 268.988 226.715 137.344 270.657 226.177 137.545 
299.095 225.287 137.432 266.497 229.209 138.004 262.08 234.628 137.605 
255.883 244.462 137.806 288.671 279.107 137.671 286.886 280.296 137.479 
285.179 281.191 137.906 266.851 284.707 137.694 267.615 285.325 137.948 
275.808 285.294 137.645 270.201 286.003 138.261 272.627 285.782 138.171 
293.509 225.72 138.963 300.846 226.768 138.545 268.019 228.211 138.635 
268.679 227.91 138.72 271.377 227.977 139.229 263.597 232.018 139.143 
303.837 231.458 138.845 256.635 270.842 139.105 292.957 272.249 138.586 
264.557 285.106 139.46 267.363 285.849 138.912 269.576 286.339 139.258 
269.634 228.766 139.886 303.3 230.236 139.713 303.624 230.958 139.514 
281.096 230.199 140.542 258.686 235.773 140.094 252.726 259.855 140.095 
255.389 269.636 140.043 278.282 283.961 139.655 262.839 284.589 140.134 
264.341 286.131 141.11 268.418 286.424 140.138 265.302 230.69 140.022 
261.191 233.358 141.405 277.012 231.917 141.653 253.621 239.887 141.124 
250.251 252.476 140.833 251.093 257.739 140.977 256.819 275.971 140.942 
261.194 283.81 140.929 271.514 285.869 140.966 289.361 228.801 141.795 
266.319 230.466 140.733 264.648 231.52 141.572 266.359 230.939 141.455 
268.563 230.805 141.741 258.114 234.679 142.344 294.32 269.372 142.512 
291.251 275.46 142.021 263.083 286.142 142.283 262.918 286.215 142.743 
302.455 230.774 142.953 302.939 231.16 142.443 261.612 233.079 143.267 
279.521 233.656 143.331 249.313 243.809 143.609 248.619 258.023 143.362 
254.053 270.919 142.405 293.236 272.51 142.743 257.368 280.198 143.427 
275.31 283.479 143.055 260.446 284.629 143.062 266.45 286.553 142.405 
301.61 230.182 143.264 303.062 232.183 143.476 264.105 232.829 143.855 
303.318 233.935 143.873 251.861 238.586 143.814 248.373 258.443 143.768 
254.158 273.575 143.744 260.622 285.159 144.465 262.604 286.204 144.15 
262.918 286.326 143.786 302.256 231.376 144.25 260.21 233.532 144.394 
260.663 233.472 144.598 258.321 233.955 145.448 265.299 234.069 145.422 
249.881 240.893 144.585 246.963 247.695 145.526 246.218 252.788 144.964 
293.402 271.463 145.114 291.851 273.37 145.242 258.364 282.313 144.284 
260.214 284.804 144.751 261.191 285.538 145.232 302.493 232.458 145.157 
260.963 233.548 144.96 302.616 232.855 145.224 261.011 233.823 145.634 
302.997 233.98 145.102 252.033 236.427 145.95 279.983 236.859 146.339 
278.946 237.368 146.502 277.793 237.772 146.609 246.644 259.46 145.723 
291.577 272.832 146.465 256.549 279.399 145.362 258.159 282.061 145.553 
265.565 285.8 145.356 262.13 285.817 145.53 301.687 232.601 146.126 
254.116 234.691 147.053 259.711 234.171 146.717 289.935 233.341 147.342 
252.246 235.765 146.943 261.204 234.503 146.951 252.618 271.679 146.302 
292.634 271.657 146.882 231.341 277.293 148.82 231.325 277.112 148.88 
231.219 277.301 148.933 231.323 277.499 148.832 231.244 277.709 148.929 
231.405 277.75 148.904 260.786 285.146 146.555 261.296 285.409 146.322 
301.705 233.555 146.929 253.821 234.696 147.533 302.014 233.796 146.734 
302.173 234.32 146.676 252.923 235.129 147.514 262.856 235.71 147.884 
301.498 237.42 148.084 249.093 239.611 147.851 280.073 238.834 148.119 
243.186 254.573 148.191 245.876 260.927 147.057 295.277 265.564 147.185 
294.412 268.299 147.345 231.443 275.707 149.626 253.115 274.354 147.802 
231.367 276.74 149.112 232.1 275.953 149.484 231.019 277.711 149.159 
230.72 277.918 149.523 255.413 277.482 148.475 230.66 278.605 149.696 
231.335 278.262 149.106 232.167 278.236 149.361 230.875 278.924 149.464 
231.566 279.118 149.345 231.145 279.783 149.663 231.379 279.906 149.648 
260.272 284.679 147.308 262.477 285.48 146.888 262.614 285.298 147.329 
250.464 237.041 148.996 301.102 238.753 148.959 242.177 257.656 148.485 
[...]
POINT_DATA 1634
COLOR_SCALARS scalars 3
0.501961 0.752941 0.886275 0.501961 0.752941 0.886275 0.501961 0.752941 0.886275 
0.501961 0.752941 0.886275 0.501961 0.752941 0.886275 
0.501961 0.752941 0.886275 0.501961 0.752941 0.886275 
0.501961 0.752941 0.886275 0.501961 0.752941 0.886275 
0.501961 0.752941 0.886275 0.501961 0.752941 0.886275 
0.501961 0.752941 0.886275 0.501961 0.752941 0.886275 
0.501961 0.752941 0.886275 0.501961 0.752941 0.886275 
0.501961 0.752941 0.886275 0.501961 0.752941 0.886275 
0.501961 0.752941 0.886275 0.501961 0.752941 0.886275 
0.501961 0.752941 0.886275 0.501961 0.752941 0.886275 
0.501961 0.752941 0.886275 0.501961 0.752941 0.886275 
0.501961 0.752941 0.886275 0.501961 0.752941 0.886275 
0.501961 0.752941 0.886275 0.501961 0.752941 0.886275 
0.501961 0.752941 0.886275 0.501961 0.752941 0.886275 
0.501961 0.752941 0.886275 0.501961 0.752941 0.886275 
0.501961 0.752941 0.886275 0.501961 0.752941 0.886275 
0.501961 0.752941 0.886275 0.501961 0.752941 0.886275 
0.501961 0.752941 0.886275 0.501961 0.752941 0.886275 
0.501961 0.752941 0.886275 0.501961 0.752941 0.886275 
0.501961 0.752941 0.886275 0.501961 0.752941 0.886275 
0.501961 0.752941 0.886275 0.501961 0.752941 0.886275 
0.501961 0.752941 0.886275 0.501961 0.752941 0.886275 
0.501961 0.752941 0.886275 0.501961 0.752941 0.886275 
0.501961 0.752941 0.886275 0.501961 0.752941 0.886275 
0.501961 0.752941 0.886275 0.501961 0.752941 0.886275 
0.501961 0.752941 0.886275 0.501961 0.752941 0.886275 
0.501961 0.752941 0.886275 0.501961 0.752941 0.886275 
0.501961 0.752941 0.886275 0.501961 0.752941 0.886275 
0.501961 0.752941 0.886275 0.501961 0.752941 0.886275 
0.501961 0.752941 0.886275 0.501961 0.752941 0.886275 
0.501961 0.752941 0.886275 0.501961 0.752941 0.886275 
0.501961 0.752941 0.886275 0.501961 0.752941 0.886275 
0.501961 0.752941 0.886275 0.501961 0.752941 0.886275 
0.501961 0.752941 0.886275 0.501961 0.752941 0.886275 
0.501961 0.752941 0.886275 0.501961 0.752941 0.886275 
0.501961 0.752941 0.886275 0.501961 0.752941 0.886275 
0.501961 0.752941 0.886275 0.501961 0.752941 0.886275 
0.501961 0.752941 0.886275 0.501961 0.752941 0.886275 
0.501961 0.752941 0.886275 0.501961 0.752941 0.886275 
0.501961 0.752941 0.886275 0.501961 0.752941 0.886275 
0.501961 0.752941 0.886275 0.501961 0.752941 0.886275 
0.501961 0.752941 0.886275 0.501961 0.752941 0.886275 
0.501961 0.752941 0.886275 0.501961 0.752941 0.886275 
0.501961 0.752941 0.886275 0.501961 0.752941 0.886275 
0.501961 0.752941 0.886275 0.501961 0.752941 0.886275 
0.501961 0.752941 0.886275 0.501961 0.752941 0.886275 
0.501961 0.752941 0.886275 0.501961 0.752941 0.886275 
0.501961 0.752941 0.886275 0.501961 0.752941 0.886275 
0.501961 0.752941 0.886275 0.501961 0.752941 0.886275 
0.501961 0.752941 0.886275 0.501961 0.752941 0.886275 
0.501961 0.752941 0.886275 0.501961 0.752941 0.886275 
0.501961 0.752941 0.886275 0.501961 0.752941 0.886275 
0.501961 0.752941 0.886275 0.501961 0.752941 0.886275 
0.501961 0.752941 0.886275 0.501961 0.752941 0.886275 
0.501961 0.752941 0.886275 0.501961 0.752941 0.886275 
0.501961 0.752941 0.886275 0.501961 0.752941 0.886275 
0.501961 0.752941 0.886275 0.501961 0.752941 0.886275 
0.501961 0.752941 0.886275 0.501961 0.752941 0.886275 
0.501961 0.752941 0.886275 0.501961 0.752941 0.886275 
0.501961 0.752941 0.886275 0.501961 0.752941 0.886275 
0.501961 0.752941 0.886275 0.501961 0.752941 0.886275 
0.501961 0.752941 0.886275 0.501961 0.752941 0.886275 
0.501961 0.752941 0.886275 0.501961 0.752941 0.886275 
0.501961 0.752941 0.886275 0.501961 0.752941 0.886275 
0.501961 0.752941 0.886275 0.501961 0.752941 0.886275 
0.501961 0.752941 0.886275 0.501961 0.752941 0.886275 
0.501961 0.752941 0.886275 0.501961 0.752941 0.886275 
0.501961 0.752941 0.886275 0.501961 0.752941 0.886275 
0.501961 0.752941 0.886275 0.501961 0.752941 0.886275 
0.501961 0.752941 0.886275 0.501961 0.752941 0.886275 
0.501961 0.752941 0.886275 0.501961 0.752941 0.886275 
0.501961 0.752941 0.886275 0.501961 0.752941 0.886275 
0.501961 0.752941 0.886275 0.501961 0.752941 0.886275 
0.501961 0.752941 0.886275 0.501961 0.752941 0.886275 
0.501961 0.752941 0.886275 0.501961 0.752941 0.886275 
0.501961 0.752941 0.886275 0.501961 0.752941 0.886275 
0.501961 0.752941 0.886275 0.501961 0.752941 0.886275 
0.501961 0.752941 0.886275 0.501961 0.752941 0.886275 
0.501961 0.752941 0.886275 0.501961 0.752941 0.886275 
0.501961 0.752941 0.886275 0.501961 0.752941 0.886275 
0.501961 0.752941 0.886275 0.501961 0.752941 0.886275 
0.501961 0.752941 0.886275 0.501961 0.752941 0.886275 
0.501961 0.752941 0.886275 0.501961 0.752941 0.886275 
0.501961 0.752941 0.886275 0.501961 0.752941 0.886275 
0.501961 0.752941 0.886275 0.501961 0.752941 0.886275 
0.501961 0.752941 0.886275 0.501961 0.752941 0.886275 
0.501961 0.752941 0.886275 0.501961 0.752941 0.886275 
0.501961 0.752941 0.886275 0.501961 0.752941 0.886275 
0.501961 0.752941 0.886275 0.501961 0.752941 0.886275 
0.501961 0.752941 0.886275 0.501961 0.752941 0.886275 
0.501961 0.752941 0.886275 0.501961 0.752941 0.886275 
0.501961 0.752941 0.886275 0.501961 0.752941 0.886275 
0.501961 0.752941 0.886275 0.501961 0.752941 0.886275 
0.501961 0.752941 0.886275 0.501961 0.752941 0.886275 
0.501961 0.752941 0.886275 0.501961 0.752941 0.886275 
0.501961 0.752941 0.886275 0.501961 0.752941 0.886275 
0.501961 0.752941 0.886275 0.501961 0.752941 0.886275 
0.501961 0.752941 0.886275 0.501961 0.752941 0.886275 
0.501961 0.752941 0.886275 0.501961 0.752941 0.886275 
0.501961 0.752941 0.886275 0.501961 0.752941 0.886275 
0.501961 0.752941 0.886275 0.501961 0.752941 0.886275 
0.501961 0.752941 0.886275 0.501961 0.752941 0.886275 
0.501961 0.752941 0.886275 0.501961 0.752941 0.886275 
0.501961 0.752941 0.886275 0.501961 0.752941 0.886275 
0.501961 0.752941 0.886275 0.501961 0.752941 0.886275 
0.501961 0.752941 0.886275 0.501961 0.752941 0.886275 
0.501961 0.752941 0.886275 0.501961 0.752941 0.886275 
0.501961 0.752941 0.886275 0.501961 0.752941 0.886275 
0.501961 0.752941 0.886275 0.501961 0.752941 0.886275 
0.501961 0.752941 0.886275 0.501961 0.752941 0.886275 
0.501961 0.752941 0.886275 0.501961 0.752941 0.886275 
0.501961 0.752941 0.886275 0.501961 0.752941 0.886275 
0.501961 0.752941 0.886275 0.501961 0.752941 0.886275 
0.501961 0.752941 0.886275 0.501961 0.752941 0.886275 
0.501961 0.752941 0.886275 0.501961 0.752941 0.886275 
0.501961 0.752941 0.886275 0.501961 0.752941 0.886275 
0.501961 0.752941 0.886275 0.501961 0.752941 0.886275 
0.501961 0.752941 0.886275 0.501961 0.752941 0.886275 
0.501961 0.752941 0.886275 0.501961 0.752941 0.886275 
0.501961 0.752941 0.886275 0.501961 0.752941 0.886275 
0.501961 0.752941 0.886275 0.501961 0.752941 0.886275 
0.501961 0.752941 0.886275 0.501961 0.752941 0.886275 
0.501961 0.752941 0.886275 0.501961 0.752941 0.886275 
0.501961 0.752941 0.886275 0.501961 0.752941 0.886275 
0.501961 0.752941 0.886275 0.501961 0.752941 0.886275 
0.501961 0.752941 0.886275 0.501961 0.752941 0.886275 
0.501961 0.752941 0.886275 0.501961 0.752941 0.886275 
0.501961 0.752941 0.886275 0.501961 0.752941 0.886275 
0.501961 0.752941 0.886275 0.501961 0.752941 0.886275 
0.501961 0.752941 0.886275 0.501961 0.752941 0.886275 
0.501961 0.752941 0.886275 0.501961 0.752941 0.886275 
0.501961 0.752941 0.886275 0.501961 0.752941 0.886275 
0.501961 0.752941 0.886275 0.501961 0.752941 0.886275 
0.501961 0.752941 0.886275 0.501961 0.752941 0.886275 
0.501961 0.752941 0.886275 0.501961 0.752941 0.886275 
0.501961 0.752941 0.886275 0.501961 0.752941 0.886275 
0.501961 0.752941 0.886275 0.501961 0.752941 0.886275 
0.501961 0.752941 0.886275 0.501961 0.752941 0.886275 
0.501961 0.752941 0.886275 0.501961 0.752941 0.886275 
0.501961 0.752941 0.886275 0.501961 0.752941 0.886275 
0.501961 0.752941 0.886275 0.501961 0.752941 0.886275 
0.501961 0.752941 0.886275 0.501961 0.752941 0.886275 
0.501961 0.752941 0.886275 0.501961 0.752941 0.886275 
0.501961 0.752941 0.886275 0.501961 0.752941 0.886275 
0.501961 0.752941 0.886275 0.501961 0.752941 0.886275 
0.501961 0.752941 0.886275 0.501961 0.752941 0.886275 
0.501961 0.752941 0.886275 0.501961 0.752941 0.886275 
0.501961 0.752941 0.886275 0.501961 0.752941 0.886275 
0.501961 0.752941 0.886275 0.501961 0.752941 0.886275 
0.501961 0.752941 0.886275 0.501961 0.752941 0.886275 
0.501961 0.752941 0.886275 0.501961 0.752941 0.886275 
0.501961 0.752941 0.886275 0.501961 0.752941 0.886275 
0.501961 0.752941 0.886275 0.501961 0.752941 0.886275 
0.501961 0.752941 0.886275 0.501961 0.752941 0.886275 
0.501961 0.752941 0.886275 0.501961 0.752941 0.886275 
0.501961 0.752941 0.886275 0.501961 0.752941 0.886275 
0.501961 0.752941 0.886275 0.501961 0.752941 0.886275 
0.501961 0.752941 0.886275 0.501961 0.752941 0.886275 
0.501961 0.752941 0.886275 0.501961 0.752941 0.886275 
0.501961 0.752941 0.886275 0.501961 0.752941 0.886275 
0.501961 0.752941 0.886275 0.501961 0.752941 0.886275 
0.501961 0.752941 0.886275 0.501961 0.752941 0.886275 
0.501961 0.752941 0.886275 0.501961 0.752941 0.886275 
0.501961 0.752941 0.886275 0.501961 0.752941 0.886275 
0.501961 0.752941 0.886275 0.501961 0.752941 0.886275 
0.501961 0.752941 0.886275 0.501961 0.752941 0.886275 
0.501961 0.752941 0.886275 0.501961 0.752941 0.886275 
0.501961 0.752941 0.886275 0.501961 0.752941 0.886275 
0.501961 0.752941 0.886275 0.501961 0.752941 0.886275 
0.501961 0.752941 0.886275 0.501961 0.752941 0.886275 
0.501961 0.752941 0.886275 0.501961 0.752941 0.886275 
0.501961 0.752941 0.886275 0.501961 0.752941 0.886275 
0.501961 0.752941 0.886275 0.501961 0.752941 0.886275 
0.501961 0.752941 0.886275 0.501961 0.752941 0.886275 
0.501961 0.752941 0.886275 0.501961 0.752941 0.886275 
0.501961 0.752941 0.886275 0.501961 0.752941 0.886275 
0.501961 0.752941 0.886275 0.501961 0.752941 0.886275 
0.501961 0.752941 0.886275 0.501961 0.752941 0.886275 
0.501961 0.752941 0.886275 0.501961 0.752941 0.886275 
0.501961 0.752941 0.886275 0.501961 0.752941 0.886275 
0.501961 0.752941 0.886275 0.501961 0.752941 0.886275 
0.501961 0.752941 0.886275 0.501961 0.752941 0.886275 
0.501961 0.752941 0.886275 0.501961 0.752941 0.886275 
0.501961 0.752941 0.886275 0.501961 0.752941 0.886275 
0.501961 0.752941 0.886275 0.501961 0.752941 0.886275 
0.501961 0.752941 0.886275 0.501961 0.752941 0.886275 
0.501961 0.752941 0.886275 0.501961 0.752941 0.886275 
0.501961 0.752941 0.886275 0.501961 0.752941 0.886275 
0.501961 0.752941 0.886275 0.501961 0.752941 0.886275 
0.501961 0.752941 0.886275 0.501961 0.752941 0.886275 
0.501961 0.752941 0.886275 0.501961 0.752941 0.886275 
0.501961 0.752941 0.886275 0.501961 0.752941 0.886275 
0.501961 0.752941 0.886275 0.501961 0.752941 0.886275 
0.501961 0.752941 0.886275 0.501961 0.752941 0.886275 
0.501961 0.752941 0.886275 0.501961 0.752941 0.886275 
0.501961 0.752941 0.886275 0.501961 0.752941 0.886275 
0.501961 0.752941 0.886275 0.501961 0.752941 0.886275 
0.501961 0.752941 0.886275 0.501961 0.752941 0.886275 
0.501961 0.752941 0.886275 0.501961 0.752941 0.886275 
0.501961 0.752941 0.886275 0.501961 0.752941 0.886275 
0.501961 0.752941 0.886275 0.501961 0.752941 0.886275 
0.501961 0.752941 0.886275 0.501961 0.752941 0.886275 
0.501961 0.752941 0.886275 0.501961 0.752941 0.886275 
0.501961 0.752941 0.886275 0.501961 0.752941 0.886275 
0.501961 0.752941 0.886275 0.501961 0.752941 0.886275 
0.501961 0.752941 0.886275 0.501961 0.752941 0.886275 
0.501961 0.752941 0.886275 0.501961 0.752941 0.886275 
0.501961 0.752941 0.886275 0.501961 0.752941 0.886275 
0.501961 0.752941 0.886275 0.501961 0.752941 0.886275 
0.501961 0.752941 0.886275 0.501961 0.752941 0.886275 
0.501961 0.752941 0.886275 0.501961 0.752941 0.886275 
0.501961 0.752941 0.886275 0.501961 0.752941 0.886275 
0.501961 0.752941 0.886275 0.501961 0.752941 0.886275 
0.501961 0.752941 0.886275 0.501961 0.752941 0.886275 
0.501961 0.752941 0.886275 0.501961 0.752941 0.886275 
0.501961 0.752941 0.886275 0.501961 0.752941 0.886275 
0.501961 0.752941 0.886275 0.501961 0.752941 0.886275 
0.501961 0.752941 0.886275 0.501961 0.752941 0.886275 
0.501961 0.752941 0.886275 0.501961 0.752941 0.886275 
0.501961 0.752941 0.886275 0.501961 0.752941 0.886275 
0.501961 0.752941 0.886275 0.501961 0.752941 0.886275 
0.501961 0.752941 0.886275 0.501961 0.752941 0.886275 
0.501961 0.752941 0.886275 0.501961 0.752941 0.886275 
0.501961 0.752941 0.886275 0.501961 0.752941 0.886275 
0.501961 0.752941 0.886275 0.501961 0.752941 0.886275 
0.501961 0.752941 0.886275 0.501961 0.752941 0.886275 
0.501961 0.752941 0.886275 0.501961 0.752941 0.886275 
0.501961 0.752941 0.886275 0.501961 0.752941 0.886275 
0.501961 0.752941 0.886275 0.501961 0.752941 0.886275 
0.501961 0.752941 0.886275 0.501961 0.752941 0.886275 
0.501961 0.752941 0.886275 0.501961 0.752941 0.886275 
0.501961 0.752941 0.886275 0.501961 0.752941 0.886275 
0.501961 0.752941 0.886275 0.501961 0.752941 0.886275 
0.501961 0.752941 0.886275 0.501961 0.752941 0.886275 
0.501961 0.752941 0.886275 0.501961 0.752941 0.886275 
0.501961 0.752941 0.886275 0.501961 0.752941 0.886275 
0.501961 0.752941 0.886275 0.501961 0.752941 0.886275 
0.501961 0.752941 0.886275 0.501961 0.752941 0.886275 
0.501961 0.752941 0.886275 0.501961 0.752941 0.886275 
0.501961 0.752941 0.886275 0.501961 0.752941 0.886275 
0.501961 0.752941 0.886275 0.501961 0.752941 0.886275 
0.501961 0.752941 0.886275 0.501961 0.752941 0.886275 
0.501961 0.752941 0.886275 0.501961 0.752941 0.886275 
0.501961 0.752941 0.886275 0.501961 0.752941 0.886275 
0.501961 0.752941 0.886275 0.501961 0.752941 0.886275 
0.501961 0.752941 0.886275 0.501961 0.752941 0.886275 
0.501961 0.752941 0.886275 0.501961 0.752941 0.886275 
0.501961 0.752941 0.886275 0.501961 0.752941 0.886275 
0.501961 0.752941 0.886275 0.501961 0.752941 0.886275 
0.501961 0.752941 0.886275 0.501961 0.752941 0.886275 
0.501961 0.752941 0.886275 0.501961 0.752941 0.886275 
0.501961 0.752941 0.886275 0.501961 0.752941 0.886275 
0.501961 0.752941 0.886275 0.501961 0.752941 0.886275 
0.501961 0.752941 0.886275 0.501961 0.752941 0.886275 
0.501961 0.752941 0.886275 0.501961 0.752941 0.886275 
0.501961 0.752941 0.886275 0.501961 0.752941 0.886275 
0.501961 0.752941 0.886275 0.501961 0.752941 0.886275 
0.501961 0.752941 0.886275 0.501961 0.752941 0.886275 
0.501961 0.752941 0.886275 0.501961 0.752941 0.886275 
0.501961 0.752941 0.886275 0.501961 0.752941 0.886275 
0.501961 0.752941 0.886275 0.501961 0.752941 0.886275 
0.501961 0.752941 0.886275 0.501961 0.752941 0.886275 
0.501961 0.752941 0.886275 0.501961 0.752941 0.886275 
0.501961 0.752941 0.886275 0.501961 0.752941 0.886275 
0.501961 0.752941 0.886275 0.501961 0.752941 0.886275 
0.501961 0.752941 0.886275 0.501961 0.752941 0.886275 
0.501961 0.752941 0.886275 0.501961 0.752941 0.886275 
0.501961 0.752941 0.886275 0.501961 0.752941 0.886275 
0.501961 0.752941 0.886275 0.501961 0.752941 0.886275 
0.501961 0.752941 0.886275 0.501961 0.752941 0.886275 
0.501961 0.752941 0.886275 0.501961 0.752941 0.886275 
0.501961 0.752941 0.886275 0.501961 0.752941 0.886275 
0.501961 0.752941 0.886275 0.501961 0.752941 0.886275 
0.501961 0.752941 0.886275 0.501961 0.752941 0.886275 
0.501961 0.752941 0.886275 0.501961 0.752941 0.886275 
0.501961 0.752941 0.886275 0.501961 0.752941 0.886275 
0.501961 0.752941 0.886275 0.501961 0.752941 0.886275 
0.501961 0.752941 0.886275 0.501961 0.752941 0.886275 
0.501961 0.752941 0.886275 0.501961 0.752941 0.886275 
0.501961 0.752941 0.886275 0.501961 0.752941 0.886275 
0.501961 0.752941 0.886275 0.501961 0.752941 0.886275 
0.501961 0.752941 0.886275 0.501961 0.752941 0.886275 
0.501961 0.752941 0.886275 0.501961 0.752941 0.886275 
0.501961 0.752941 0.886275 0.501961 0.752941 0.886275 
0.501961 0.752941 0.886275 0.501961 0.752941 0.886275 
0.501961 0.752941 0.886275 0.501961 0.752941 0.886275 
0.501961 0.752941 0.886275 0.501961 0.752941 0.886275 
0.501961 0.752941 0.886275 0.501961 0.752941 0.886275 
0.501961 0.752941 0.886275 0.501961 0.752941 0.886275 
0.501961 0.752941 0.886275 0.501961 0.752941 0.886275 
0.501961 0.752941 0.886275 0.501961 0.752941 0.886275 
0.501961 0.752941 0.886275 0.501961 0.752941 0.886275 
0.501961 0.752941 0.886275 0.501961 0.752941 0.886275 
0.501961 0.752941 0.886275 0.501961 0.752941 0.886275 
0.501961 0.752941 0.886275 0.501961 0.752941 0.886275 
0.501961 0.752941 0.886275 0.501961 0.752941 0.886275 
0.501961 0.752941 0.886275 0.501961 0.752941 0.886275 
0.501961 0.752941 0.886275 0.501961 0.752941 0.886275 
0.501961 0.752941 0.886275 0.501961 0.752941 0.886275 
0.501961 0.752941 0.886275 0.501961 0.752941 0.886275 
0.501961 0.752941 0.886275 0.501961 0.752941 0.886275 
0.501961 0.752941 0.886275 0.501961 0.752941 0.886275 
0.501961 0.752941 0.886275 0.501961 0.752941 0.886275 
0.501961 0.752941 0.886275 0.501961 0.752941 0.886275 
0.501961 0.752941 0.886275 0.501961 0.752941 0.886275 
0.501961 0.752941 0.886275 0.501961 0.752941 0.886275 
0.501961 0.752941 0.886275 0.501961 0.752941 0.886275 
0.501961 0.752941 0.886275 0.501961 0.752941 0.886275 
0.501961 0.752941 0.886275 0.501961 0.752941 0.886275 
0.501961 0.752941 0.886275 0.501961 0.752941 0.886275 
0.501961 0.752941 0.886275 0.501961 0.752941 0.886275 
0.501961 0.752941 0.886275 0.501961 0.752941 0.886275 
0.501961 0.752941 0.886275 0.501961 0.752941 0.886275 
0.501961 0.752941 0.886275 0.501961 0.752941 0.886275 
0.501961 0.752941 0.886275 0.501961 0.752941 0.886275 
0.501961 0.752941 0.886275 0.501961 0.752941 0.886275 
0.501961 0.752941 0.886275 0.501961 0.752941 0.886275 
0.501961 0.752941 0.886275 0.501961 0.752941 0.886275 
0.501961 0.752941 0.886275 0.501961 0.752941 0.886275 
0.501961 0.752941 0.886275 0.501961 0.752941 0.886275 
0.501961 0.752941 0.886275 0.501961 0.752941 0.886275 
0.501961 0.752941 0.886275 0.501961 0.752941 0.886275 
0.501961 0.752941 0.886275 0.501961 0.752941 0.886275 
0.501961 0.752941 0.886275 0.501961 0.752941 0.886275 
0.501961 0.752941 0.886275 0.501961 0.752941 0.886275 
0.501961 0.752941 0.886275 0.501961 0.752941 0.886275 
0.501961 0.752941 0.886275 0.501961 0.752941 0.886275 
0.501961 0.752941 0.886275 0.501961 0.752941 0.886275 
0.501961 0.752941 0.886275 0.501961 0.752941 0.886275 
0.501961 0.752941 0.886275 0.501961 0.752941 0.886275 
0.501961 0.752941 0.886275 0.501961 0.752941 0.886275 
0.501961 0.752941 0.886275 0.501961 0.752941 0.886275 
0.501961 0.752941 0.886275 0.501961 0.752941 0.886275 
0.501961 0.752941 0.886275 0.501961 0.752941 0.886275 
0.501961 0.752941 0.886275 0.501961 0.752941 0.886275 
0.501961 0.752941 0.886275 0.501961 0.752941 0.886275 
0.501961 0.752941 0.886275 0.501961 0.752941 0.886275 
0.501961 0.752941 0.886275 0.501961 0.752941 0.886275 
0.501961 0.752941 0.886275 0.501961 0.752941 0.886275 
0.501961 0.752941 0.886275 0.501961 0.752941 0.886275 
0.501961 0.752941 0.886275 0.501961 0.752941 0.886275 
0.501961 0.752941 0.886275 0.501961 0.752941 0.886275 
0.501961 0.752941 0.886275 0.501961 0.752941 0.886275 
0.501961 0.752941 0.886275 0.501961 0.752941 0.886275 
0.501961 0.752941 0.886275 0.501961 0.752941 0.886275 
0.501961 0.752941 0.886275 0.501961 0.752941 0.886275 
0.501961 0.752941 0.886275 0.501961 0.752941 0.886275 
0.501961 0.752941 0.886275 0.501961 0.752941 0.886275 
0.501961 0.752941 0.886275 0.501961 0.752941 0.886275 
0.501961 0.752941 0.886275 0.501961 0.752941 0.886275 
0.501961 0.752941 0.886275 0.501961 0.752941 0.886275 
0.501961 0.752941 0.886275 0.501961 0.752941 0.886275 
0.501961 0.752941 0.886275 0.501961 0.752941 0.886275 
0.501961 0.752941 0.886275 0.501961 0.752941 0.886275 
0.501961 0.752941 0.886275 0.501961 0.752941 0.886275 
0.501961 0.752941 0.886275 0.501961 0.752941 0.886275 
0.501961 0.752941 0.886275 0.501961 0.752941 0.886275 
0.501961 0.752941 0.886275 0.501961 0.752941 0.886275 
0.501961 0.752941 0.886275 0.501961 0.752941 0.886275 
0.501961 0.752941 0.886275 0.501961 0.752941 0.886275 
0.501961 0.752941 0.886275 0.501961 0.752941 0.886275 
0.501961 0.752941 0.886275 0.501961 0.752941 0.886275 