# vtk DataFile Version 4.2
vtk output
ASCII
DATASET POLYDATA
POINTS 5762 float
296.08 258.781 176.525 296.891 258.938 176.136 297.94 258.877 176.103 
295.584 259.629 176.466 296.62 259.477 175.984 296.943 259.961 175.846 
297.543 259.856 175.857 295.571 261.073 176.373 296.19 260.501 175.948 
295.907 261.171 176.126 296.146 261.44 176.095 296.675 261.141 175.904 
297.665 260.882 175.92 296.454 261.435 176.012 296.799 257.694 177.383 
299.714 257.889 177.236 299.864 258.234 177.046 300.228 258.507 177.111 
295.248 259.415 176.84 294.985 259.582 177.089 300.086 259.886 176.785 
295.054 260.385 176.82 295.402 261.641 176.756 295.836 262.03 176.568 
295.588 262.325 176.924 298.903 262.047 176.542 296.771 257.435 177.886 
300.957 258.004 177.77 301.23 257.777 178.079 301.43 258.139 177.997 
301.882 258.611 178.169 294.881 260.662 177.104 300.904 262.874 177.795 
299.328 256.63 178.851 300.46 256.813 178.773 300.713 257.133 178.493 
295.102 258.647 177.945 303.25 260.127 178.929 298.438 264.807 177.866 
295.556 265.207 178.641 295.774 265.76 178.916 296.407 265.986 178.836 
301.508 257.104 179.204 303.147 258.396 179.441 294.853 265.834 179.909 
296.363 267.058 179.726 297.749 256.54 180.534 297.168 256.788 179.973 
299.124 256.337 180.213 295.987 257.52 180.607 294.865 258.677 180.061 
304.906 259.724 180.805 305.015 260.259 180.764 304.762 261.128 180.415 
304.586 262.7 180.761 303.097 264.048 180.046 294.037 264.485 180.744 
296.721 267.674 180.178 295.696 267.874 180.751 314.836 247.536 182.024 
314.504 247.785 181.964 313.506 247.832 182.238 313.046 249.873 181.786 
313.604 249.724 181.751 312.716 250.497 181.794 314.705 250.238 182.026 
310.321 251.733 182.229 310.232 252.187 182.243 310.375 252.391 182.209 
303.424 257.848 180.407 294.583 259.3 181.126 305.838 260.927 181.898 
315.562 245.457 182.973 314.532 245.709 183.096 311.864 248.365 182.819 
309.583 251.645 182.869 315.105 252.593 183.116 310.276 253.489 182.861 
312.165 254.039 183.155 301.715 256.643 181.783 304.673 258.062 182.224 
305.103 258.441 182.34 305.375 258.988 182.189 298.755 268.95 181.503 
296.639 269.661 181.984 315.959 243.98 183.902 310.248 249.644 183.246 
308.947 251.643 183.719 309.184 251.991 183.306 309.236 252.722 183.363 
309.148 254.021 184.011 309.303 254.303 184.024 311.741 254.471 183.457 
309.527 254.636 184.186 310.818 254.916 183.922 296.134 257.854 183.047 
306.044 259.419 183.06 306.741 261.998 183.408 293.71 263.356 182.738 
294.73 270.736 184.548 295.392 270.846 183.684 317.565 242.273 185.308 
314.59 244.019 184.435 313.679 245.028 184.215 319.424 245.572 184.353 
318.828 248.957 184.07 310.153 248.959 184.037 315.824 253.13 184.09 
309.255 254.785 184.666 309.46 255.093 184.832 311.147 255.226 184.239 
300.044 256.803 183.795 305.167 258.197 183.594 306.319 259.267 183.996 
306.832 259.857 184.216 307.135 260.27 184.438 307.296 260.795 184.516 
307.693 261.727 185.167 306.726 263.241 184.02 303.375 267.847 183.763 
295.642 271.249 183.891 296.159 271.452 183.855 297.279 272.233 184.494 
316.741 241.894 185.868 319.959 249.686 185.574 308.257 250.799 185.582 
307.866 252.488 185.889 308.07 253.069 185.478 304.474 257.734 184.504 
310.405 255.878 185.536 306.378 259.058 184.917 307.26 259.965 185.302 
307.661 260.496 185.73 294.07 270.39 185.879 295.426 272.134 185.065 
294.98 272.517 185.999 295.223 272.965 186.171 295.983 273.05 185.612 
316.826 241.307 186.906 318.866 241.811 186.225 314.921 242.647 185.82 
321.234 244.247 186.423 307.937 251.309 186 307.719 252.461 186.678 
308.047 253.665 186.452 314.944 254.809 185.533 309.768 255.915 186.819 
311.303 256.338 186.508 311.825 256.306 186.344 308.391 261.958 186.572 
293.914 270.528 186.658 315.53 241.331 187.415 320.553 242.652 186.572 
307.65 251.743 187.215 308.371 254.388 187.611 297.235 258.844 186.672 
296.707 259.382 187.059 308.195 260.688 186.982 308.78 261.677 187.776 
301.548 271.851 186.362 294.297 272.851 188.145 299.016 273.706 186.574 
295.469 273.968 187.293 295.182 274.054 187.857 261.567 224.026 189.101 
262.736 223.906 189.039 261.951 224.276 188.927 264.493 224.036 189.491 
264.765 224.464 189.479 262.81 225.185 188.847 263.601 224.814 188.935 
264.026 225.336 189.057 264.542 225.277 189.234 318.064 240.696 188.194 
319.565 241.165 187.887 321.339 242.792 187.34 308.857 248 187.983 
308.831 254.953 188.447 310.302 256.084 188.338 299.108 258.37 187.628 
298.792 258.562 188.029 295.31 261.246 187.551 293.684 270.028 188.016 
297.95 275.19 188.212 295.948 275.369 189.238 260.183 223.182 190.103 
262.788 222.959 189.896 263.415 223.184 189.694 259.443 223.945 189.919 
258.929 223.68 190.324 264.409 223.763 189.627 259.063 224.911 189.836 
259.1 225.361 189.842 265.599 225.011 190.133 265.855 225.347 190.328 
259.492 225.636 189.696 265.172 226.154 189.646 260.621 226.827 189.656 
266.102 226.651 190.509 263.954 227.573 189.619 265.977 227.244 190.417 
321.244 242.06 188.011 312.938 256.346 188.25 311.693 256.417 188.424 
299.971 258.359 189.174 297.086 259.608 189.015 308.244 260.746 188.771 
308.764 261.469 189.208 309.006 262.674 188.74 259.863 222.984 190.444 
259.43 223.012 190.629 263.167 222.909 190.204 258.493 223.97 190.476 
264.991 224.068 190.119 259.456 227.395 190.408 262.652 227.757 189.766 
266.042 227.612 190.55 264.515 228.48 190.202 265.493 228.222 190.449 
320.415 240.685 189.513 307.836 249.2 189.437 307.704 249.65 189.507 
307.936 252.659 190.337 302.962 258.41 189.991 305.634 259.001 188.752 
296.816 259.798 190.017 304.233 258.761 190.283 304.831 258.916 189.749 
308.517 261.183 189.696 309.066 262.663 189.803 295.585 275.773 190.671 
259.12 222.94 190.989 258.979 222.761 191.622 259.666 222.522 191.716 
266.011 225.117 191.122 257.944 226.322 191.05 266.806 227.374 191.38 
266.967 227.346 191.709 266.777 227.68 191.36 262.83 228.936 190.59 
263.712 228.925 190.506 266.259 229.05 191.668 246.212 252.228 192.109 
248.163 253.531 192.343 320.691 252.771 190.178 247.268 254.022 191.867 
308.588 253.518 190.844 309.584 254.677 190.825 245.908 255.303 191.447 
311.02 255.433 191.155 242.604 257.181 191.17 308.976 262.362 190.629 
293.888 272.906 191.084 294.587 275.028 191.856 296.052 276.293 191.193 
296.698 276.522 191.147 297.457 276.684 191.241 295.903 276.433 191.869 
261.696 222.41 191.937 257.032 223.872 192.187 256.659 223.922 192.71 
263.684 222.962 191.764 256.399 224.587 192.784 256.235 225.345 192.974 
256.684 225.789 192.367 266.934 227.048 191.912 257.847 227.764 191.921 
267.036 227.871 192.03 258.133 228.672 192.669 259.259 229.304 192.422 
266.607 228.909 191.938 264.511 230.775 192.705 264.282 230.938 193.002 
314.809 237.995 192.404 240.044 244.366 192.962 240.758 245.668 192.648 
238.267 246.741 192.398 237.428 247.827 192.339 241.351 248.048 192.117 
242.941 247.221 192.929 237.661 251.554 191.598 307.773 251.387 191.092 
247.037 251.884 192.668 238.985 253.66 191.192 249.095 255.239 192.605 
311.461 255.53 191.323 247.922 256.484 192.345 299.879 257.67 192.484 
304.238 258.482 192.014 233.316 260.239 192.293 233.933 261.099 192.202 
234.696 261.804 192.2 308.335 261.367 191.546 294.857 262.574 192.692 
295.239 276.081 192.88 296.903 277.233 193.073 298.71 277.1 192.229 
258.894 222.401 193.724 256.456 223.637 193.357 256.115 223.839 193.791 
256.526 226.621 192.947 267.022 227.534 192.499 266.767 228.906 192.497 
266.245 229.651 192.766 263.313 231.038 193.375 265.107 230.711 192.977 
319.541 238.975 191.684 239.496 242.467 193.808 238.723 244.182 193.135 
240.822 243.814 193.331 236.531 245.432 193.484 235.699 246.235 193.727 
234.021 250.159 193.438 235.363 249.954 192.677 247.995 251.146 193.726 
251.585 254.269 194.002 309.147 252.673 192.937 309.65 253.183 193.139 
251.323 255.534 193.922 302.499 257.369 193.678 231.77 259.197 192.963 
295.238 261.295 193.044 308.899 262.127 193.141 309.02 262.892 191.863 
231.445 263.546 193.345 232.855 263.678 193.048 309.084 263.416 192.172 
298.588 277.313 192.697 299.601 277.118 192.899 256.78 223.027 194.234 
256.312 223.279 194.731 265.286 224.352 193.655 255.414 224.875 194.877 
255.678 225.539 194.06 255.693 225.975 194.2 266.907 228.263 192.878 
259.486 230.195 194.218 260.749 230.717 194.541 262.997 231.136 194.51 
265.846 230.219 193.491 264.553 230.977 193.917 238.832 241.637 194.533 
240.664 240.896 194.866 244.401 247.432 193.753 310.032 253.42 193.369 
231.527 253.846 194.135 313.475 255.106 193.706 252.443 256.147 195.023 
315.52 255.411 193.255 298.887 257.515 194.267 300.351 257.066 194.704 
296.929 258.645 194.174 309.165 261.659 194.341 229.083 262.334 194.339 
309.253 262.882 193.711 230.65 265.745 194.407 295.327 276.221 194.729 
296.32 277.156 194.933 256.24 223.194 195.253 256.034 223.283 195.44 
255.908 223.51 195.215 257.038 222.808 194.541 265.039 224.406 194.655 
255.143 225.66 195.761 266.287 226.222 193.935 255.341 226.408 195.635 
266.342 228.956 194.023 265.441 230.305 194.551 315.779 234.409 195.224 
313.69 236.452 194.646 238.603 240.53 195.569 239.661 240.088 195.489 
236.311 242.561 195.6 289.576 245.163 196.347 289.446 245.559 196.514 
290.2 245.625 196.019 308.397 245.72 194.956 233.675 246.894 195.331 
289.848 246.46 196.373 290.768 246.685 196.012 327.042 247.476 195.323 
309.248 251.6 195.206 298.04 257.653 195.337 308.693 260.1 195.379 
295.283 260.539 194.949 309.881 261.5 195.789 247.216 262.317 195.26 
309.606 263.508 194.543 227.785 265.381 195.546 277.934 269.296 195.318 
275.132 270.072 195.213 280.068 270.594 195.221 281.092 270.878 195.385 
281.7 271.716 195.435 274.989 273.024 195.208 294.938 275.633 195.074 
301.316 276.925 194.729 298.098 277.884 195.263 298.812 277.875 195.104 
256.16 223.227 196.514 260.163 222.488 195.998 255.157 224.57 196.111 
254.977 225.232 196.321 265.367 225.233 195.385 265.835 227.183 195.657 
257.715 229.753 196.309 265.368 230.048 195.004 260.637 230.868 196.361 
264.13 230.779 195.233 239.961 239.097 196.371 241.644 239.701 195.925 
[...]
POINT_DATA 5762
COLOR_SCALARS scalars 3
1 0.298039 0.243137 1 0.298039 0.243137 1 0.298039 0.243137 
1 0.298039 0.243137 1 0.298039 0.243137 
1 0.298039 0.243137 1 0.298039 0.243137 
1 0.298039 0.243137 1 0.298039 0.243137 
1 0.298039 0.243137 1 0.298039 0.243137 
1 0.298039 0.243137 1 0.298039 0.243137 
1 0.298039 0.243137 1 0.298039 0.243137 
1 0.298039 0.243137 1 0.298039 0.243137 
1 0.298039 0.243137 1 0.298039 0.243137 
1 0.298039 0.243137 1 0.298039 0.243137 
1 0.298039 0.243137 1 0.298039 0.243137 
1 0.298039 0.243137 1 0.298039 0.243137 
1 0.298039 0.243137 1 0.298039 0.243137 
1 0.298039 0.243137 1 0.298039 0.243137 
1 0.298039 0.243137 1 0.298039 0.243137 
1 0.298039 0.243137 1 0.298039 0.243137 
1 0.298039 0.243137 1 0.298039 0.243137 
1 0.298039 0.243137 1 0.298039 0.243137 
1 0.298039 0.243137 1 0.298039 0.243137 
1 0.298039 0.243137 1 0.298039 0.243137 
1 0.298039 0.243137 1 0.298039 0.243137 
1 0.298039 0.243137 1 0.298039 0.243137 
1 0.298039 0.243137 1 0.298039 0.243137 
1 0.298039 0.243137 1 0.298039 0.243137 
1 0.298039 0.243137 1 0.298039 0.243137 
1 0.298039 0.243137 1 0.298039 0.243137 
1 0.298039 0.243137 1 0.298039 0.243137 
1 0.298039 0.243137 1 0.298039 0.243137 
1 0.298039 0.243137 1 0.298039 0.243137 
1 0.298039 0.243137 1 0.298039 0.243137 
1 0.298039 0.243137 1 0.298039 0.243137 
1 0.298039 0.243137 1 0.298039 0.243137 
1 0.298039 0.243137 1 0.298039 0.243137 
1 0.298039 0.243137 1 0.298039 0.243137 
1 0.298039 0.243137 1 0.298039 0.243137 
1 0.298039 0.243137 1 0.298039 0.243137 
1 0.298039 0.243137 1 0.298039 0.243137 
1 0.298039 0.243137 1 0.298039 0.243137 
1 0.298039 0.243137 1 0.298039 0.243137 
1 0.298039 0.243137 1 0.298039 0.243137 
1 0.298039 0.243137 1 0.298039 0.243137 
1 0.298039 0.243137 1 0.298039 0.243137 
1 0.298039 0.243137 1 0.298039 0.243137 
1 0.298039 0.243137 1 0.298039 0.243137 
1 0.298039 0.243137 1 0.298039 0.243137 
1 0.298039 0.243137 1 0.298039 0.243137 
1 0.298039 0.243137 1 0.298039 0.243137 
1 0.298039 0.243137 1 0.298039 0.243137 
1 0.298039 0.243137 1 0.298039 0.243137 
1 0.298039 0.243137 1 0.298039 0.243137 
1 0.298039 0.243137 1 0.298039 0.243137 
1 0.298039 0.243137 1 0.298039 0.243137 
1 0.298039 0.243137 1 0.298039 0.243137 
1 0.298039 0.243137 1 0.298039 0.243137 
1 0.298039 0.243137 1 0.298039 0.243137 
1 0.298039 0.243137 1 0.298039 0.243137 
1 0.298039 0.243137 1 0.298039 0.243137 
1 0.298039 0.243137 1 0.298039 0.243137 
1 0.298039 0.243137 1 0.298039 0.243137 
1 0.298039 0.243137 1 0.298039 0.243137 
1 0.298039 0.243137 1 0.298039 0.243137 
1 0.298039 0.243137 1 0.298039 0.243137 
1 0.298039 0.243137 1 0.298039 0.243137 
1 0.298039 0.243137 1 0.298039 0.243137 
1 0.298039 0.243137 1 0.298039 0.243137 
1 0.298039 0.243137 1 0.298039 0.243137 
1 0.298039 0.243137 1 0.298039 0.243137 
1 0.298039 0.243137 1 0.298039 0.243137 
1 0.298039 0.243137 1 0.298039 0.243137 
1 0.298039 0.243137 1 0.298039 0.243137 
1 0.298039 0.243137 1 0.298039 0.243137 
1 0.298039 0.243137 1 0.298039 0.243137 
1 0.298039 0.243137 1 0.298039 0.243137 
1 0.298039 0.243137 1 0.298039 0.243137 
1 0.298039 0.243137 1 0.298039 0.243137 
1 0.298039 0.243137 1 0.298039 0.243137 
1 0.298039 0.243137 1 0.298039 0.243137 
1 0.298039 0.243137 1 0.298039 0.243137 
1 0.298039 0.243137 1 0.298039 0.243137 
1 0.298039 0.243137 1 0.298039 0.243137 
1 0.298039 0.243137 1 0.298039 0.243137 
1 0.298039 0.243137 1 0.298039 0.243137 
1 0.298039 0.243137 1 0.298039 0.243137 
1 0.298039 0.243137 1 0.298039 0.243137 
1 0.298039 0.243137 1 0.298039 0.243137 
1 0.298039 0.243137 1 0.298039 0.243137 
1 0.298039 0.243137 1 0.298039 0.243137 
1 0.298039 0.243137 1 0.298039 0.243137 
1 0.298039 0.243137 1 0.298039 0.243137 
1 0.298039 0.243137 1 0.298039 0.243137 
1 0.298039 0.243137 1 0.298039 0.243137 
1 0.298039 0.243137 1 0.298039 0.243137 
1 0.298039 0.243137 1 0.298039 0.243137 
1 0.298039 0.243137 1 0.298039 0.243137 
1 0.298039 0.243137 1 0.298039 0.243137 
1 0.298039 0.243137 1 0.298039 0.243137 
1 0.298039 0.243137 1 0.298039 0.243137 
1 0.298039 0.243137 1 0.298039 0.243137 
1 0.298039 0.243137 1 0.298039 0.243137 
1 0.298039 0.243137 1 0.298039 0.243137 
1 0.298039 0.243137 1 0.298039 0.243137 
1 0.298039 0.243137 1 0.298039 0.243137 
1 0.298039 0.243137 1 0.298039 0.243137 
1 0.298039 0.243137 1 0.298039 0.243137 
1 0.298039 0.243137 1 0.298039 0.243137 
1 0.298039 0.243137 1 0.298039 0.243137 
1 0.298039 0.243137 1 0.298039 0.243137 
1 0.298039 0.243137 1 0.298039 0.243137 
1 0.298039 0.243137 1 0.298039 0.243137 
1 0.298039 0.243137 1 0.298039 0.243137 
1 0.298039 0.243137 1 0.298039 0.243137 
1 0.298039 0.243137 1 0.298039 0.243137 
1 0.298039 0.243137 1 0.298039 0.243137 
1 0.298039 0.243137 1 0.298039 0.243137 
1 0.298039 0.243137 1 0.298039 0.243137 
1 0.298039 0.243137 1 0.298039 0.243137 
1 0.298039 0.243137 1 0.298039 0.243137 
1 0.298039 0.243137 1 0.298039 0.243137 
1 0.298039 0.243137 1 0.298039 0.243137 
1 0.298039 0.243137 1 0.298039 0.243137 
1 0.298039 0.243137 1 0.298039 0.243137 
1 0.298039 0.243137 1 0.298039 0.243137 
1 0.298039 0.243137 1 0.298039 0.243137 
1 0.298039 0.243137 1 0.298039 0.243137 
1 0.298039 0.243137 1 0.298039 0.243137 
1 0.298039 0.243137 1 0.298039 0.243137 
1 0.298039 0.243137 1 0.298039 0.243137 
1 0.298039 0.243137 1 0.298039 0.243137 
1 0.298039 0.243137 1 0.298039 0.243137 
1 0.298039 0.243137 1 0.298039 0.243137 
1 0.298039 0.243137 1 0.298039 0.243137 
1 0.298039 0.243137 1 0.298039 0.243137 
1 0.298039 0.243137 1 0.298039 0.243137 
1 0.298039 0.243137 1 0.298039 0.243137 
1 0.298039 0.243137 1 0.298039 0.243137 
1 0.298039 0.243137 1 0.298039 0.243137 
1 0.298039 0.243137 1 0.298039 0.243137 
1 0.298039 0.243137 1 0.298039 0.243137 
1 0.298039 0.243137 1 0.298039 0.243137 
1 0.298039 0.243137 1 0.298039 0.243137 
1 0.298039 0.243137 1 0.298039 0.243137 
1 0.298039 0.243137 1 0.298039 0.243137 
1 0.298039 0.243137 1 0.298039 0.243137 
1 0.298039 0.243137 1 0.298039 0.243137 
1 0.298039 0.243137 1 0.298039 0.243137 
1 0.298039 0.243137 1 0.298039 0.243137 
1 0.298039 0.243137 1 0.298039 0.243137 
1 0.298039 0.243137 1 0.298039 0.243137 
1 0.298039 0.243137 1 0.298039 0.243137 
1 0.298039 0.243137 1 0.298039 0.243137 
1 0.298039 0.243137 1 0.298039 0.243137 
1 0.298039 0.243137 1 0.298039 0.243137 
1 0.298039 0.243137 1 0.298039 0.243137 
1 0.298039 0.243137 1 0.298039 0.243137 
1 0.298039 0.243137 1 0.298039 0.243137 
1 0.298039 0.243137 1 0.298039 0.243137 
1 0.298039 0.243137 1 0.298039 0.243137 
1 0.298039 0.243137 1 0.298039 0.243137 
1 0.298039 0.243137 1 0.298039 0.243137 
1 0.298039 0.243137 1 0.298039 0.243137 
1 0.298039 0.243137 1 0.298039 0.243137 
1 0.298039 0.243137 1 0.298039 0.243137 
1 0.298039 0.243137 1 0.298039 0.243137 
1 0.298039 0.243137 1 0.298039 0.243137 
1 0.298039 0.243137 1 0.298039 0.243137 
1 0.298039 0.243137 1 0.298039 0.243137 
1 0.298039 0.243137 1 0.298039 0.243137 
1 0.298039 0.243137 1 0.298039 0.243137 
1 0.298039 0.243137 1 0.298039 0.243137 
1 0.298039 0.243137 1 0.298039 0.243137 
1 0.298039 0.243137 1 0.298039 0.243137 
1 0.298039 0.243137 1 0.298039 0.243137 
1 0.298039 0.243137 1 0.298039 0.243137 
1 0.298039 0.243137 1 0.298039 0.243137 
1 0.298039 0.243137 1 0.298039 0.243137 
1 0.298039 0.243137 1 0.298039 0.243137 
1 0.298039 0.243137 1 0.298039 0.243137 
1 0.298039 0.243137 1 0.298039 0.243137 
1 0.298039 0.243137 1 0.298039 0.243137 
1 0.298039 0.243137 1 0.298039 0.243137 
1 0.298039 0.243137 1 0.298039 0.243137 
1 0.298039 0.243137 1 0.298039 0.243137 
1 0.298039 0.243137 1 0.298039 0.243137 
1 0.298039 0.243137 1 0.298039 0.243137 
1 0.298039 0.243137 1 0.298039 0.243137 
1 0.298039 0.243137 1 0.298039 0.243137 
1 0.298039 0.243137 1 0.298039 0.243137 
1 0.298039 0.243137 1 0.298039 0.243137 
1 0.298039 0.243137 1 0.298039 0.243137 
1 0.298039 0.243137 1 0.298039 0.243137 
1 0.298039 0.243137 1 0.298039 0.243137 
1 0.298039 0.243137 1 0.298039 0.243137 
1 0.298039 0.243137 1 0.298039 0.243137 
1 0.298039 0.243137 1 0.298039 0.243137 
1 0.298039 0.243137 1 0.298039 0.243137 
1 0.298039 0.243137 1 0.298039 0.243137 
1 0.298039 0.243137 1 0.298039 0.243137 
1 0.298039 0.243137 1 0.298039 0.243137 
1 0.298039 0.243137 1 0.298039 0.243137 
1 0.298039 0.243137 1 0.298039 0.243137 
1 0.298039 0.243137 1 0.298039 0.243137 
1 0.298039 0.243137 1 0.298039 0.243137 
1 0.298039 0.243137 1 0.298039 0.243137 
1 0.298039 0.243137 1 0.298039 0.243137 
1 0.298039 0.243137 1 0.298039 0.243137 
1 0.298039 0.243137 1 0.298039 0.243137 
1 0.298039 0.243137 1 0.298039 0.243137 
1 0.298039 0.243137 1 0.298039 0.243137 
1 0.298039 0.243137 1 0.298039 0.243137 
1 0.298039 0.243137 1 0.298039 0.243137 
1 0.298039 0.243137 1 0.298039 0.243137 
1 0.298039 0.243137 1 0.298039 0.243137 
1 0.298039 0.243137 1 0.298039 0.243137 
1 0.298039 0.243137 1 0.298039 0.243137 
1 0.298039 0.243137 1 0.298039 0.243137 
1 0.298039 0.243137 1 0.298039 0.243137 
1 0.298039 0.243137 1 0.298039 0.243137 
1 0.298039 0.243137 1 0.298039 0.243137 
1 0.298039 0.243137 1 0.298039 0.243137 
1 0.298039 0.243137 1 0.298039 0.243137 
1 0.298039 0.243137 1 0.298039 0.243137 
1 0.298039 0.243137 1 0.298039 0.243137 
1 0.298039 0.243137 1 0.298039 0.243137 
1 0.298039 0.243137 1 0.298039 0.243137 
1 0.298039 0.243137 1 0.298039 0.243137 
1 0.298039 0.243137 1 0.298039 0.243137 
1 0.298039 0.243137 1 0.298039 0.243137 
1 0.298039 0.243137 1 0.298039 0.243137 
1 0.298039 0.243137 1 0.298039 0.243137 
1 0.298039 0.243137 1 0.298039 0.243137 
1 0.298039 0.243137 1 0.298039 0.243137 
1 0.298039 0.243137 1 0.298039 0.243137 
1 0.298039 0.243137 1 0.298039 0.243137 
1 0.298039 0.243137 1 0.298039 0.243137 
1 0.298039 0.243137 1 0.298039 0.243137 
1 0.298039 0.243137 1 0.298039 0.243137 
1 0.298039 0.243137 1 0.298039 0.243137 
1 0.298039 0.243137 1 0.298039 0.243137 
1 0.298039 0.243137 1 0.298039 0.243137 
1 0.298039 0.243137 1 0.298039 0.243137 
1 0.298039 0.243137 1 0.298039 0.243137 
1 0.298039 0.243137 1 0.298039 0.243137 
1 0.298039 0.243137 1 0.298039 0.243137 
1 0.298039 0.243137 1 0.298039 0.243137 
1 0.298039 0.243137 1 0.298039 0.243137 
1 0.298039 0.243137 1 0.298039 0.243137 
1 0.298039 0.243137 1 0.298039 0.243137 
1 0.298039 0.243137 1 0.298039 0.243137 
1 0.298039 0.243137 1 0.298039 0.243137 
1 0.298039 0.243137 1 0.298039 0.243137 
1 0.298039 0.243137 1 0.298039 0.243137 
1 0.298039 0.243137 1 0.298039 0.243137 
1 0.298039 0.243137 1 0.298039 0.243137 
1 0.298039 0.243137 1 0.298039 0.243137 
1 0.298039 0.243137 1 0.298039 0.243137 
1 0.298039 0.243137 1 0.298039 0.243137 
1 0.298039 0.243137 1 0.298039 0.243137 
1 0.298039 0.243137 1 0.298039 0.243137 
1 0.298039 0.243137 1 0.298039 0.243137 
1 0.298039 0.243137 1 0.298039 0.243137 
1 0.298039 0.243137 1 0.298039 0.243137 
1 0.298039 0.243137 1 0.298039 0.243137 
1 0.298039 0.243137 1 0.298039 0.243137 
1 0.298039 0.243137 1 0.298039 0.243137 
1 0.298039 0.243137 1 0.298039 0.243137 
1 0.298039 0.243137 1 0.298039 0.243137 
1 0.298039 0.243137 1 0.298039 0.243137 
1 0.298039 0.243137 1 0.298039 0.243137 
1 0.298039 0.243137 1 0.298039 0.243137 
1 0.298039 0.243137 1 0.298039 0.243137 
1 0.298039 0.243137 1 0.298039 0.243137 
1 0.298039 0.243137 1 0.298039 0.243137 
1 0.298039 0.243137 1 0.298039 0.243137 
1 0.298039 0.243137 1 0.298039 0.243137 
1 0.298039 0.243137 1 0.298039 0.243137 
1 0.298039 0.243137 1 0.298039 0.243137 
1 0.298039 0.243137 1 0.298039 0.243137 
1 0.298039 0.243137 1 0.298039 0.243137 
1 0.298039 0.243137 1 0.298039 0.243137 
1 0.298039 0.243137 1 0.298039 0.243137 
1 0.298039 0.243137 1 0.298039 0.243137 
1 0.298039 0.243137 1 0.298039 0.243137 
1 0.298039 0.243137 1 0.298039 0.243137 
1 0.298039 0.243137 1 0.298039 0.243137 
1 0.298039 0.243137 1 0.298039 0.243137 
1 0.298039 0.243137 1 0.298039 0.243137 
1 0.298039 0.243137 1 0.298039 0.243137 
1 0.298039 0.243137 1 0.298039 0.243137 
1 0.298039 0.243137 1 0.298039 0.243137 
1 0.298039 0.243137 1 0.298039 0.243137 
1 0.298039 0.243137 1 0.298039 0.243137 
1 0.298039 0.243137 1 0.298039 0.243137 
1 0.298039 0.243137 1 0.298039 0.243137 
1 0.298039 0.243137 1 0.298039 0.243137 
1 0.298039 0.243137 1 0.298039 0.243137 
1 0.298039 0.243137 1 0.298039 0.243137 
1 0.298039 0.243137 1 0.298039 0.243137 
1 0.298039 0.243137 1 0.298039 0.243137 
1 0.298039 0.243137 1 0.298039 0.243137 
1 0.298039 0.243137 1 0.298039 0.243137 
1 0.298039 0.243137 1 0.298039 0.243137 
1 0.298039 0.243137 1 0.298039 0.243137 
1 0.298039 0.243137 1 0.298039 0.243137 
1 0.298039 0.243137 1 0.298039 0.243137 
1 0.298039 0.243137 1 0.298039 0.243137 
1 0.298039 0.243137 1 0.298039 0.243137 
1 0.298039 0.243137 1 0.298039 0.243137 
1 0.298039 0.243137 1 0.298039 0.243137 
1 0.298039 0.243137 1 0.298039 0.243137 
1 0.298039 0.243137 1 0.298039 0.243137 
1 0.298039 0.243137 1 0.298039 0.243137 
1 0.298039 0.243137 1 0.298039 0.243137 
1 0.298039 0.243137 1 0.298039 0.243137 
1 0.298039 0.243137 1 0.298039 0.243137 
1 0.298039 0.243137 1 0.298039 0.243137 
1 0.298039 0.243137 1 0.298039 0.243137 
1 0.298039 0.243137 1 0.298039 0.243137 
1 0.298039 0.243137 1 0.298039 0.243137 
1 0.298039 0.243137 1 0.298039 0.243137 
1 0.298039 0.243137 1 0.298039 0.243137 
1 0.298039 0.243137 1 0.298039 0.243137 
1 0.298039 0.243137 1 0.298039 0.243137 
1 0.298039 0.243137 1 0.298039 0.243137 
1 0.298039 0.243137 1 0.298039 0.243137 
1 0.298039 0.243137 1 0.298039 0.243137 
1 0.298039 0.243137 1 0.298039 0.243137 
1 0.298039 0.243137 1 0.298039 0.243137 
1 0.298039 0.243137 1 0.298039 0.243137 
1 0.298039 0.243137 1 0.298039 0.243137 
1 0.298039 0.243137 1 0.298039 0.243137 
1 0.298039 0.243137 1 0.298039 0.243137 
1 0.298039 0.243137 1 0.298039 0.243137 
1 0.298039 0.243137 1 0.298039 0.243137 
1 0.298039 0.243137 1 0.298039 0.243137 
1 0.298039 0.243137 1 0.298039 0.243137 
1 0.298039 0.243137 1 0.298039 0.243137 
1 0.298039 0.243137 1 0.298039 0.243137 
1 0.298039 0.243137 1 0.298039 0.243137 
1 0.298039 0.243137 1 0.298039 0.243137 
1 0.298039 0.243137 1 0.298039 0.243137 
1 0.298039 0.243137 1 0.298039 0.243137 
1 0.298039 0.243137 1 0.298039 0.243137 
1 0.298039 0.243137 1 0.298039 0.243137 
1 0.298039 0.243137 1 0.298039 0.243137 
1 0.298039 0.243137 1 0.298039 0.243137 
1 0.298039 0.243137 1 0.298039 0.243137 
1 0.298039 0.243137 1 0.298039 0.243137 
1 0.298039 0.243137 1 0.298039 0.243137 
1 0.298039 0.243137 1 0.298039 0.243137 
1 0.298039 0.243137 1 0.298039 0.243137 
1 0.298039 0.243137 1 0.298039 0.243137 
1 0.298039 0.243137 1 0.298039 0.243137 
1 0.298039 0.243137 1 0.298039 0.243137 
1 0.298039 0.243137 1 0.298039 0.243137 
1 0.298039 0.243137 1 0.298039 0.243137 
1 0.298039 0.243137 1 0.298039 0.243137 
1 0.298039 0.243137 1 0.298039 0.243137 
1 0.298039 0.243137 1 0.298039 0.243137 
1 0.298039 0.243137 1 0.298039 0.243137 
1 0.298039 0.243137 1 0.298039 0.243137 
1 0.298039 0.243137 1 0.298039 0.243137 
1 0.298039 0.243137 1 0.298039 0.243137 
1 0.298039 0.243137 1 0.298039 0.243137 
1 0.298039 0.243137 1 0.298039 0.243137 
1 0.298039 0.243137 1 0.298039 0.243137 
1 0.298039 0.243137 1 0.298039 0.243137 
1 0.298039 0.243137 1 0.298039 0.243137 
1 0.298039 0.243137 1 0.298039 0.243137 
1 0.298039 0.243137 1 0.298039 0.243137 
1 0.298039 0.243137 1 0.298039 0.243137 
1 0.298039 0.243137 1 0.298039 0.243137 
1 0.298039 0.243137 1 0.298039 0.243137 
1 0.298039 0.243137 1 0.298039 0.243137 
1 0.298039 0.243137 1 0.298039 0.243137 
1 0.298039 0.243137 1 0.298039 0.243137 
1 0.298039 0.243137 1 0.298039 0.243137 
1 0.298039 0.243137 1 0.298039 0.243137 
1 0.298039 0.243137 1 0.298039 0.243137 
1 0.298039 0.243137 1 0.298039 0.243137 
1 0.298039 0.243137 1 0.298039 0.243137 
1 0.298039 0.243137 1 0.298039 0.243137 
1 0.298039 0.243137 1 0.298039 0.243137 
1 0.298039 0.243137 1 0.298039 0.243137 
1 0.298039 0.243137 1 0.298039 0.243137 
1 0.298039 0.243137 1 0.298039 0.243137 
1 0.298039 0.243137 1 0.298039 0.243137 
1 0.298039 0.243137 1 0.298039 0.243137 
1 0.298039 0.243137 1 0.298039 0.243137 
1 0.298039 0.243137 1 0.298039 0.243137 
1 0.298039 0.243137 1 0.298039 0.243137 
1 0.298039 0.243137 1 0.298039 0.243137 
1 0.298039 0.243137 1 0.298039 0.243137 
1 0.298039 0.243137 1 0.298039 0.243137 
1 0.298039 0.243137 1 0.298039 0.243137 
1 0.298039 0.243137 1 0.298039 0.243137 
1 0.298039 0.243137 1 0.298039 0.243137 
1 0.298039 0.243137 1 0.298039 0.243137 
1 0.298039 0.243137 1 0.298039 0.243137 
1 0.298039 0.243137 1 0.298039 0.243137 
1 0.298039 0.243137 1 0.298039 0.243137 
1 0.298039 0.243137 1 0.298039 0.243137 
1 0.298039 0.243137 1 0.298039 0.243137 
1 0.298039 0.243137 1 0.298039 0.243137 
1 0.298039 0.243137 1 0.298039 0.243137 
1 0.298039 0.243137 1 0.298039 0.243137 
1 0.298039 0.243137 1 0.298039 0.243137 
1 0.298039 0.243137 1 0.298039 0.243137 
1 0.298039 0.243137 1 0.298039 0.243137 
1 0.298039 0.243137 1 0.298039 0.243137 
1 0.298039 0.243137 1 0.298039 0.243137 
1 0.298039 0.243137 1 0.298039 0.243137 
1 0.298039 0.243137 1 0.298039 0.243137 
1 0.298039 0.243137 1 0.298039 0.243137 
1 0.298039 0.243137 1 0.298039 0.243137 
1 0.298039 0.243137 1 0.298039 0.243137 
1 0.298039 0.243137 1 0.298039 0.243137 
1 0.298039 0.243137 1 0.298039 0.243137 
1 0.298039 0.243137 1 0.298039 0.243137 
1 0.298039 0.243137 1 0.298039 0.243137 
1 0.298039 0.243137 1 0.298039 0.243137 
1 0.298039 0.243137 1 0.298039 0.243137 
1 0.298039 0.243137 1 0.298039 0.243137 
1 0.298039 0.243137 1 0.298039 0.243137 
1 0.298039 0.243137 1 0.298039 0.243137 
1 0.298039 0.243137 1 0.298039 0.243137 
1 0.298039 0.243137 1 0.298039 0.243137 
1 0.298039 0.243137 1 0.298039 0.243137 
1 0.298039 0.243137 1 0.298039 0.243137 
1 0.298039 0.243137 1 0.298039 0.243137 
1 0.298039 0.243137 1 0.298039 0.243137 
1 0.298039 0.243137 1 0.298039 0.243137 
1 0.298039 0.243137 1 0.298039 0.243137 
1 0.298039 0.243137 1 0.298039 0.243137 
1 0.298039 0.243137 1 0.298039 0.243137 
1 0.298039 0.243137 1 0.298039 0.243137 
1 0.298039 0.243137 1 0.298039 0.243137 
1 0.298039 0.243137 1 0.298039 0.243137 
1 0.298039 0.243137 1 0.298039 0.243137 
1 0.298039 0.243137 1 0.298039 0.243137 
1 0.298039 0.243137 1 0.298039 0.243137 
1 0.298039 0.243137 1 0.298039 0.243137 
1 0.298039 0.243137 1 0.298039 0.243137 
1 0.298039 0.243137 1 0.298039 0.243137 
1 0.298039 0.243137 1 0.298039 0.243137 
1 0.298039 0.243137 1 0.298039 0.243137 
1 0.298039 0.243137 1 0.298039 0.243137 
1 0.298039 0.243137 1 0.298039 0.243137 
1 0.298039 0.243137 1 0.298039 0.243137 
1 0.298039 0.243137 1 0.298039 0.243137 
1 0.298039 0.243137 1 0.298039 0.243137 
1 0.298039 0.243137 1 0.298039 0.243137 
1 0.298039 0.243137 1 0.298039 0.243137 
1 0.298039 0.243137 1 0.298039 0.243137 
1 0.298039 0.243137 1 0.298039 0.243137 
1 0.298039 0.243137 1 0.298039 0.243137 
1 0.298039 0.243137 1 0.298039 0.243137 
1 0.298039 0.243137 1 0.298039 0.243137 
1 0.298039 0.243137 1 0.298039 0.243137 
1 0.298039 0.243137 1 0.298039 0.243137 
1 0.298039 0.243137 1 0.298039 0.243137 
1 0.298039 0.243137 1 0.298039 0.243137 
1 0.298039 0.243137 1 0.298039 0.243137 
1 0.298039 0.243137 1 0.298039 0.243137 
1 0.298039 0.243137 1 0.298039 0.243137 
1 0.298039 0.243137 1 0.298039 0.243137 
1 0.298039 0.243137 1 0.298039 0.243137 
1 0.298039 0.243137 1 0.298039 0.243137 
1 0.298039 0.243137 1 0.298039 0.243137 
1 0.298039 0.243137 1 0.298039 0.243137 
1 0.298039 0.243137 1 0.298039 0.243137 
1 0.298039 0.243137 1 0.298039 0.243137 
1 0.298039 0.243137 1 0.298039 0.243137 
1 0.298039 0.243137 1 0.298039 0.243137 
1 0.298039 0.243137 1 0.298039 0.243137 
1 0.298039 0.243137 1 0.298039 0.243137 
1 0.298039 0.243137 1 0.298039 0.243137 
1 0.298039 0.243137 1 0.298039 0.243137 
1 0.298039 0.243137 1 0.298039 0.243137 
1 0.298039 0.243137 1 0.298039 0.243137 
1 0.298039 0.243137 1 0.298039 0.243137 
1 0.298039 0.243137 1 0.298039 0.243137 
1 0.298039 0.243137 1 0.298039 0.243137 
1 0.298039 0.243137 1 0.298039 0.243137 
1 0.298039 0.243137 1 0.298039 0.243137 
1 0.298039 0.243137 1 0.298039 0.243137 
1 0.298039 0.243137 1 0.298039 0.243137 