# vtk DataFile Version 4.2
vtk output
ASCII
DATASET POLYDATA
POINTS 588 float
347.216 152.33 124.132 340.095 152.746 124.352 339.591 154.168 124.086 
338.13 155.238 124.171 339.919 155.497 124.036 353.831 149.809 125.297 
357.423 149.724 125.717 359.095 149.885 126.268 344.291 150.03 125.281 
344.458 151.169 124.596 358.771 150.985 125.957 359.18 151.425 126.25 
358.621 152.122 125.935 333.071 154.859 125.269 355.104 153.403 124.947 
333.763 155.475 125.06 346.194 156.349 124.264 354.106 155.397 125.099 
333.789 158.097 125.312 337.762 157.633 124.597 335.313 159.519 125.466 
338.212 159.18 125.043 345.929 158.979 125.154 358.589 148.911 126.624 
358.368 148.581 126.849 358.772 148.791 126.875 343.298 149.34 126.034 
340.199 149.782 126.094 338.118 151.214 125.343 333.145 151.663 126.163 
356.083 156.775 126.293 354.01 158.092 126.237 332.61 159.695 126.318 
348.715 159.424 125.78 337.512 160.505 125.755 344.152 161.035 126.295 
357.302 147.777 127.47 358.96 148.833 127.049 359.146 148.879 127.429 
359.877 150.019 127.194 359.988 150.552 127.173 330.771 151.379 127.032 
360.169 150.737 127.624 328.941 155.573 127.124 357.066 156.904 127.01 
329.564 157.953 127.095 357.213 157.57 127.781 355.157 159.086 127.592 
349.878 160.704 127.03 332.062 161.409 127.595 337.687 161.722 126.659 
350.942 160.93 127.634 338.281 162.29 127.193 342.453 162.23 127.379 
357.847 147.839 127.965 359.18 148.777 128.112 360.125 149.752 127.946 
360.101 149.615 128.044 360.167 150.177 128.022 360.128 149.757 128.146 
328.616 152.181 127.727 360.258 152.19 128.401 359.931 153.257 128.009 
360.134 152.758 128.264 359.147 155.214 128.061 357.774 157.124 128.084 
358.256 156.686 128.213 356.484 158.457 128.042 355.788 159.008 128.084 
353.415 160.333 128.144 349.164 161.43 127.736 333.67 162.82 128.461 
350.236 161.549 128.514 349.492 147.349 128.429 352.016 147.257 129.098 
357.111 147.605 128.35 357.686 147.783 128.406 358.121 148.023 128.665 
342.227 147.967 128.232 360.008 149.558 128.195 359.968 149.796 128.53 
360.258 151.868 128.794 360.098 153.034 128.7 358.938 155.76 128.97 
358.41 156.597 128.621 357.141 158.035 128.621 354.164 160.226 128.711 
345.778 162.599 128.73 348.114 162.291 129.114 337.041 163.541 129.038 
338.974 163.545 129.036 346.239 162.695 129.385 347.784 162.452 129.476 
327.673 148.479 130.36 358.808 148.606 129.058 325.939 150.09 130.099 
360.045 150.817 129.22 360.085 152.637 129.261 359.238 154.856 129.429 
358.564 156.304 129.15 358.268 156.772 129.061 357.389 157.732 129.332 
357.076 157.965 129.622 354.508 160.043 129.452 326.828 160.978 130.292 
352.675 161.01 129.531 348.736 162.237 129.803 350.491 161.674 129.792 
331.621 163.627 130.212 340.87 163.674 129.642 338.292 164.044 130.397 
331.804 147.268 130.959 354.049 147.844 130.661 358.244 148.603 129.857 
357.988 148.713 130.253 358.792 148.858 129.534 359.365 150.139 130.108 
324.189 150.552 131.061 359.54 151.555 130.221 359.219 153.946 130.197 
323.771 157.597 131.223 357 157.334 130.593 354.06 160.047 130.382 
354.605 159.728 130.313 348.392 162.257 130.582 349.785 161.775 130.712 
331.158 164.247 131.55 325.138 147.491 132.713 350.601 147.589 131.181 
324.399 148.642 131.959 355.092 148.444 131.178 354.829 148.727 131.5 
323.687 149.318 131.974 356.603 156.554 131.432 355.906 157.709 131.174 
323.893 159.762 132.163 345.213 162.871 131.566 329.146 164.21 132.677 
338.663 164.225 131.848 322.515 148.664 133.232 356.977 149.533 131.379 
358.258 149.637 130.872 355.879 150.171 131.98 321.949 150.776 132.722 
353.996 152.438 133.055 320.875 153.302 133.291 321.468 156.552 133.211 
348.223 161.407 132.555 343.441 163.05 132.872 322.424 147.728 134.031 
347.791 148.723 133.657 333.543 165.006 133.909 321.754 146.464 135.953 
329.002 145.775 135.276 321.05 147.165 135.387 328.157 164.749 135.652 
335.971 164.519 135.19 324.44 145.567 136.445 325.774 145.532 136.5 
319.582 147.547 136.09 342.513 148.491 135.72 345.386 150.562 135.883 
322.448 145.587 137.207 320.912 145.88 137.456 332.787 146.149 136.868 
342.286 149.255 136.577 317.336 153.499 137.527 320.211 159.008 136.94 
324.384 163.17 137.242 325.862 145.253 138.372 318.063 146.843 138.209 
336.097 147.18 137.518 341.261 150.046 137.717 342.083 150.953 137.671 
342.738 152.173 137.648 326.445 164.263 137.711 329.213 164.873 137.819 
320.529 145.323 139.397 321.996 145.136 139.328 324.632 145.161 138.957 
326.909 145.449 139.135 316.67 147.77 139.445 335.862 147.69 138.699 
315.932 150.955 139.747 326.962 164.321 139.067 321.684 145.111 139.925 
317.308 146.825 139.623 316.831 147.354 139.626 338.351 158.415 140.031 
335.378 162.609 139.492 318.724 145.515 141.338 327.495 145.832 140.375 
334.94 148.715 140.47 330.637 163.576 140.577 317.829 145.788 142.189 
316.738 146.464 142.329 316.054 147.14 142.115 333.578 149.506 141.777 
315.103 150.495 142.663 315.286 151.441 141.787 318.302 158.071 141.847 
319.329 159.094 141.71 331.231 162.58 141.535 331.6 162.177 141.704 
325.449 163.302 141.033 320.373 145.481 142.781 316.274 146.868 142.412 
321.295 145.583 142.878 326.381 146.611 142.716 315.346 148.572 142.911 
315.434 153.04 142.818 320.039 159.457 143.113 322.642 161.554 142.24 
322.801 161.44 142.638 327.106 162.522 142.478 317.068 146.481 143.648 
323.445 146.383 143.762 315.274 148.736 143.732 329.211 148.363 143.357 
315.127 150.053 143.779 330.554 152.131 144.117 321.583 160.551 143.112 
328.228 160.715 143.723 322.776 161.08 143.145 323.416 161.237 143.254 
327.344 161.394 143.443 317.622 146.108 143.62 316.066 147.492 144.165 
318.628 146.096 144.116 315.616 148.132 144.195 324.862 147.566 144.654 
315.295 148.516 144.176 315.352 148.507 144.376 315.242 148.599 144.3 
315.225 148.743 144.185 315.26 149.248 144.243 327.487 157.552 145.133 
319.211 146.639 145.035 316.128 148.042 145.116 315.834 148.165 144.805 
315.283 148.733 144.384 315.559 148.694 144.718 325.316 149.137 145.574 
315.555 150.437 145.133 316.475 154.674 145.311 316.908 155.646 144.998 
317.536 156.264 145.263 325.632 156.864 145.848 317.65 156.584 144.992 
319.851 158.533 144.645 319.145 148.112 146.352 316.475 148.87 145.895 
315.911 149.892 145.606 316.337 150.251 146.164 316.014 152.379 145.851 
323.073 152.158 146.955 324.612 152.825 146.523 317.007 154.817 145.912 
317.847 155.585 146.088 317.882 156.532 145.338 318.475 156.666 145.611 
322.677 158.057 145.741 317.521 149.147 146.597 320.05 149.504 147.032 
317.5 150.534 147.065 319.552 150.66 147.516 316.872 152.386 146.703 
317.881 153.588 147.12 321.713 153.537 147.249 318.717 154.031 147.204 
318.567 150.944 147.511 319.542 151.155 147.589 317.802 148.653 308.996 
319.026 148.609 308.827 318.593 150.542 308.236 320.72 149.982 308.369 
316.695 152.071 308.909 317.692 152.067 308.352 321.294 151.66 308.173 
316.978 152.556 308.736 317.09 153.167 308.793 318.954 152.761 308.084 
317.243 153.793 308.859 317.84 154.619 308.793 318.254 154.883 308.706 
320.78 154.908 308.35 316.761 148.053 309.723 316.531 147.774 310.141 
317.22 147.874 309.674 317.912 148.007 309.422 322.264 147.686 309.839 
316.203 148.59 309.884 316.367 149.059 309.524 315.859 150.855 309.943 
323.792 151.055 308.852 315.799 152.536 310.28 322.675 153.966 308.428 
316.145 153.865 310.239 317.305 154.401 309.12 316.764 154.911 309.975 
320.886 156.597 308.971 322.457 156.447 308.877 318.531 157.075 310.141 
322.881 157.742 309.435 317.786 146.455 311.27 319.697 146.661 310.5 
316.194 148.089 310.273 324.252 147.496 310.611 324.555 147.921 310.364 
325.862 148.464 310.488 315.505 151.751 310.762 316.032 154.354 311.008 
320.986 159.081 310.649 322.406 159.095 310.31 317.148 146.79 311.053 
316.775 146.948 311.169 320.907 146.416 310.93 316.419 147.325 311.059 
316.04 147.933 310.931 315.502 149.382 311.101 315.363 152.528 311.621 
329.522 152.846 310.745 317.062 156.302 311.829 329.344 156.662 310.791 
325.223 160.905 311.551 318.366 145.732 312.541 319.578 145.351 312.996 
320.075 145.334 312.872 317.329 146.243 312.552 328.344 147.622 312.155 
330.932 149.806 312.032 315.207 151.063 312.038 315.418 153.184 312.425 
316.583 155.671 312.223 321.999 160.681 312.309 323.952 161.389 312.225 
320.312 145.188 313.517 315.443 153.216 312.9 316.293 155.149 313.246 
332.287 160.524 313.003 318.173 145.693 314.598 321.661 145.157 313.726 
316.066 147.505 313.293 315.948 147.771 313.683 329.057 146.564 313.908 
315.376 152.535 313.505 336.141 156.702 313.877 322.267 161.654 314.739 
326.145 163.425 314.253 329.85 163.386 314.121 332.542 162.595 314.306 
318.123 145.813 315.137 318.72 145.549 315.33 329.591 146.313 314.664 
333.717 147.551 315.222 337.326 149.671 315.525 316.237 154.293 314.819 
337.087 159.926 315.086 336.154 161.238 315.177 325.251 163.636 315.946 
328.156 164.56 316.118 318.804 145.665 315.985 319.44 145.445 316.128 
316.731 147.344 315.489 315.923 149.494 315.333 316.078 152.985 315.392 
339.323 158.411 315.864 319.586 145.585 316.807 320.228 145.4 316.911 
325.778 145.119 316.828 328.852 145.543 316.915 317.349 147.418 316.8 
335.54 147.425 316.599 316.602 148.521 316.365 340.241 149.355 317.468 
321.242 160.837 316.694 323.827 162.822 317.564 333.07 164.406 316.767 
330.433 164.965 317.414 323.596 145.059 317.61 318.302 146.924 317.551 
336.937 147.169 318.058 317.417 148.129 317.43 339.79 148.27 318.166 
342.811 155.076 317.487 333.047 145.997 319.422 317.771 150.177 318.578 
343.78 153.291 318.141 319.33 157.549 318.613 341.278 162.176 318.985 
327.787 164.797 319.29 322.022 146.356 319.895 323.049 145.893 319.775 
327.8 145.478 319.86 335.925 146.459 320.06 346.571 152.9 319.628 
319.983 157.527 319.791 321.081 159.289 319.814 334.983 146.291 321.18 
341.28 147.363 320.519 349.897 149.558 321.699 349.546 151.909 320.917 
320.109 157.175 320.234 346.35 160.37 320.729 346.534 161.404 321.591 
342.221 163.176 321.139 349.207 148.619 322.124 351.84 150.479 321.981 
320.085 155.276 321.009 349.491 159.975 322.054 342.001 163.592 321.976 
[...]
POINT_DATA 588
COLOR_SCALARS scalars 3
1 0.501961 0.517647 1 0.501961 0.517647 1 0.501961 0.517647 
1 0.501961 0.517647 1 0.501961 0.517647 
1 0.501961 0.517647 1 0.501961 0.517647 
1 0.501961 0.517647 1 0.501961 0.517647 
1 0.501961 0.517647 1 0.501961 0.517647 
1 0.501961 0.517647 1 0.501961 0.517647 
1 0.501961 0.517647 1 0.501961 0.517647 
1 0.501961 0.517647 1 0.501961 0.517647 
1 0.501961 0.517647 1 0.501961 0.517647 
1 0.501961 0.517647 1 0.501961 0.517647 
1 0.501961 0.517647 1 0.501961 0.517647 
1 0.501961 0.517647 1 0.501961 0.517647 
1 0.501961 0.517647 1 0.501961 0.517647 
1 0.501961 0.517647 1 0.501961 0.517647 
1 0.501961 0.517647 1 0.501961 0.517647 
1 0.501961 0.517647 1 0.501961 0.517647 
1 0.501961 0.517647 1 0.501961 0.517647 
1 0.501961 0.517647 1 0.501961 0.517647 
1 0.501961 0.517647 1 0.501961 0.517647 
1 0.501961 0.517647 1 0.501961 0.517647 
1 0.501961 0.517647 1 0.501961 0.517647 
1 0.501961 0.517647 1 0.501961 0.517647 
1 0.501961 0.517647 1 0.501961 0.517647 
1 0.501961 0.517647 1 0.501961 0.517647 
1 0.501961 0.517647 1 0.501961 0.517647 
1 0.501961 0.517647 1 0.501961 0.517647 
1 0.501961 0.517647 1 0.501961 0.517647 
1 0.501961 0.517647 1 0.501961 0.517647 
1 0.501961 0.517647 1 0.501961 0.517647 
1 0.501961 0.517647 1 0.501961 0.517647 
1 0.501961 0.517647 1 0.501961 0.517647 
1 0.501961 0.517647 1 0.501961 0.517647 
1 0.501961 0.517647 1 0.501961 0.517647 
1 0.501961 0.517647 1 0.501961 0.517647 
1 0.501961 0.517647 1 0.501961 0.517647 
1 0.501961 0.517647 1 0.501961 0.517647 
1 0.501961 0.517647 1 0.501961 0.517647 
1 0.501961 0.517647 1 0.501961 0.517647 
1 0.501961 0.517647 1 0.501961 0.517647 
1 0.501961 0.517647 1 0.501961 0.517647 
1 0.501961 0.517647 1 0.501961 0.517647 
1 0.501961 0.517647 1 0.501961 0.517647 
1 0.501961 0.517647 1 0.501961 0.517647 
1 0.501961 0.517647 1 0.501961 0.517647 
1 0.501961 0.517647 1 0.501961 0.517647 
1 0.501961 0.517647 1 0.501961 0.517647 
1 0.501961 0.517647 1 0.501961 0.517647 
1 0.501961 0.517647 1 0.501961 0.517647 
1 0.501961 0.517647 1 0.501961 0.517647 
1 0.501961 0.517647 1 0.501961 0.517647 
1 0.501961 0.517647 1 0.501961 0.517647 
1 0.501961 0.517647 1 0.501961 0.517647 
1 0.501961 0.517647 1 0.501961 0.517647 
1 0.501961 0.517647 1 0.501961 0.517647 
1 0.501961 0.517647 1 0.501961 0.517647 
1 0.501961 0.517647 1 0.501961 0.517647 
1 0.501961 0.517647 1 0.501961 0.517647 
1 0.501961 0.517647 1 0.501961 0.517647 
1 0.501961 0.517647 1 0.501961 0.517647 
1 0.501961 0.517647 1 0.501961 0.517647 
1 0.501961 0.517647 1 0.501961 0.517647 
1 0.501961 0.517647 1 0.501961 0.517647 
1 0.501961 0.517647 1 0.501961 0.517647 
1 0.501961 0.517647 1 0.501961 0.517647 
1 0.501961 0.517647 1 0.501961 0.517647 
1 0.501961 0.517647 1 0.501961 0.517647 
1 0.501961 0.517647 1 0.501961 0.517647 
1 0.501961 0.517647 1 0.501961 0.517647 
1 0.501961 0.517647 1 0.501961 0.517647 
1 0.501961 0.517647 1 0.501961 0.517647 
1 0.501961 0.517647 1 0.501961 0.517647 
1 0.501961 0.517647 1 0.501961 0.517647 
1 0.501961 0.517647 1 0.501961 0.517647 
1 0.501961 0.517647 1 0.501961 0.517647 
1 0.501961 0.517647 1 0.501961 0.517647 
1 0.501961 0.517647 1 0.501961 0.517647 
1 0.501961 0.517647 1 0.501961 0.517647 
1 0.501961 0.517647 1 0.501961 0.517647 
1 0.501961 0.517647 1 0.501961 0.517647 
1 0.501961 0.517647 1 0.501961 0.517647 
1 0.501961 0.517647 1 0.501961 0.517647 
1 0.501961 0.517647 1 0.501961 0.517647 
1 0.501961 0.517647 1 0.501961 0.517647 
1 0.501961 0.517647 1 0.501961 0.517647 
1 0.501961 0.517647 1 0.501961 0.517647 
1 0.501961 0.517647 1 0.501961 0.517647 
1 0.501961 0.517647 1 0.501961 0.517647 
1 0.501961 0.517647 1 0.501961 0.517647 
1 0.501961 0.517647 1 0.501961 0.517647 
1 0.501961 0.517647 1 0.501961 0.517647 
1 0.501961 0.517647 1 0.501961 0.517647 
1 0.501961 0.517647 1 0.501961 0.517647 
1 0.501961 0.517647 1 0.501961 0.517647 
1 0.501961 0.517647 1 0.501961 0.517647 
1 0.501961 0.517647 1 0.501961 0.517647 
1 0.501961 0.517647 1 0.501961 0.517647 
1 0.501961 0.517647 1 0.501961 0.517647 
1 0.501961 0.517647 1 0.501961 0.517647 
1 0.501961 0.517647 1 0.501961 0.517647 
1 0.501961 0.517647 1 0.501961 0.517647 
1 0.501961 0.517647 1 0.501961 0.517647 
1 0.501961 0.517647 1 0.501961 0.517647 
1 0.501961 0.517647 1 0.501961 0.517647 
1 0.501961 0.517647 1 0.501961 0.517647 
1 0.501961 0.517647 1 0.501961 0.517647 
1 0.501961 0.517647 1 0.501961 0.517647 
1 0.501961 0.517647 1 0.501961 0.517647 
1 0.501961 0.517647 1 0.501961 0.517647 
1 0.501961 0.517647 1 0.501961 0.517647 
1 0.501961 0.517647 1 0.501961 0.517647 
1 0.501961 0.517647 1 0.501961 0.517647 
1 0.501961 0.517647 1 0.501961 0.517647 
1 0.501961 0.517647 1 0.501961 0.517647 
1 0.501961 0.517647 1 0.501961 0.517647 
1 0.501961 0.517647 1 0.501961 0.517647 
1 0.501961 0.517647 1 0.501961 0.517647 
1 0.501961 0.517647 1 0.501961 0.517647 
1 0.501961 0.517647 1 0.501961 0.517647 
1 0.501961 0.517647 1 0.501961 0.517647 
1 0.501961 0.517647 1 0.501961 0.517647 
1 0.501961 0.517647 1 0.501961 0.517647 
1 0.501961 0.517647 1 0.501961 0.517647 
1 0.501961 0.517647 1 0.501961 0.517647 
1 0.501961 0.517647 1 0.501961 0.517647 
1 0.501961 0.517647 1 0.501961 0.517647 
1 0.501961 0.517647 1 0.501961 0.517647 
1 0.501961 0.517647 1 0.501961 0.517647 
1 0.501961 0.517647 1 0.501961 0.517647 
1 0.501961 0.517647 1 0.501961 0.517647 
1 0.501961 0.517647 1 0.501961 0.517647 
1 0.501961 0.517647 1 0.501961 0.517647 
1 0.501961 0.517647 1 0.501961 0.517647 
1 0.501961 0.517647 1 0.501961 0.517647 
1 0.501961 0.517647 1 0.501961 0.517647 
1 0.501961 0.517647 1 0.501961 0.517647 
1 0.501961 0.517647 1 0.501961 0.517647 
1 0.501961 0.517647 1 0.501961 0.517647 
1 0.501961 0.517647 1 0.501961 0.517647 
1 0.501961 0.517647 1 0.501961 0.517647 
1 0.501961 0.517647 1 0.501961 0.517647 
1 0.501961 0.517647 1 0.501961 0.517647 
1 0.501961 0.517647 1 0.501961 0.517647 
1 0.501961 0.517647 1 0.501961 0.517647 
1 0.501961 0.517647 1 0.501961 0.517647 
1 0.501961 0.517647 1 0.501961 0.517647 
1 0.501961 0.517647 1 0.501961 0.517647 
1 0.501961 0.517647 1 0.501961 0.517647 
1 0.501961 0.517647 1 0.501961 0.517647 
1 0.501961 0.517647 1 0.501961 0.517647 
1 0.501961 0.517647 1 0.501961 0.517647 
1 0.501961 0.517647 1 0.501961 0.517647 
1 0.501961 0.517647 1 0.501961 0.517647 
1 0.501961 0.517647 1 0.501961 0.517647 
1 0.501961 0.517647 1 0.501961 0.517647 
1 0.501961 0.517647 1 0.501961 0.517647 
1 0.501961 0.517647 1 0.501961 0.517647 
1 0.501961 0.517647 1 0.501961 0.517647 
1 0.501961 0.517647 1 0.501961 0.517647 
1 0.501961 0.517647 1 0.501961 0.517647 
1 0.501961 0.517647 1 0.501961 0.517647 
1 0.501961 0.517647 1 0.501961 0.517647 
1 0.501961 0.517647 1 0.501961 0.517647 
1 0.501961 0.517647 1 0.501961 0.517647 
1 0.501961 0.517647 1 0.501961 0.517647 
1 0.501961 0.517647 1 0.501961 0.517647 
1 0.501961 0.517647 1 0.501961 0.517647 
1 0.501961 0.517647 1 0.501961 0.517647 
1 0.501961 0.517647 1 0.501961 0.517647 
1 0.501961 0.517647 1 0.501961 0.517647 
1 0.501961 0.517647 1 0.501961 0.517647 
1 0.501961 0.517647 1 0.501961 0.517647 
1 0.501961 0.517647 1 0.501961 0.517647 
1 0.501961 0.517647 1 0.501961 0.517647 
1 0.501961 0.517647 1 0.501961 0.517647 
1 0.501961 0.517647 1 0.501961 0.517647 
1 0.501961 0.517647 1 0.501961 0.517647 
1 0.501961 0.517647 1 0.501961 0.517647 
1 0.501961 0.517647 1 0.501961 0.517647 
1 0.501961 0.517647 1 0.501961 0.517647 
1 0.501961 0.517647 1 0.501961 0.517647 
1 0.501961 0.517647 1 0.501961 0.517647 
1 0.501961 0.517647 1 0.501961 0.517647 
1 0.501961 0.517647 1 0.501961 0.517647 
1 0.501961 0.517647 1 0.501961 0.517647 
1 0.501961 0.517647 1 0.501961 0.517647 
1 0.501961 0.517647 1 0.501961 0.517647 
1 0.501961 0.517647 1 0.501961 0.517647 
1 0.501961 0.517647 1 0.501961 0.517647 
1 0.501961 0.517647 1 0.501961 0.517647 
1 0.501961 0.517647 1 0.501961 0.517647 
1 0.501961 0.517647 1 0.501961 0.517647 
1 0.501961 0.517647 1 0.501961 0.517647 
1 0.501961 0.517647 1 0.501961 0.517647 
1 0.501961 0.517647 1 0.501961 0.517647 
1 0.501961 0.517647 1 0.501961 0.517647 
1 0.501961 0.517647 1 0.501961 0.517647 
1 0.501961 0.517647 1 0.501961 0.517647 
1 0.501961 0.517647 1 0.501961 0.517647 
1 0.501961 0.517647 1 0.501961 0.517647 
1 0.501961 0.517647 1 0.501961 0.517647 
1 0.501961 0.517647 1 0.501961 0.517647 
1 0.501961 0.517647 1 0.501961 0.517647 
1 0.501961 0.517647 1 0.501961 0.517647 
1 0.501961 0.517647 1 0.501961 0.517647 
1 0.501961 0.517647 1 0.501961 0.517647 
1 0.501961 0.517647 1 0.501961 0.517647 
1 0.501961 0.517647 1 0.501961 0.517647 
1 0.501961 0.517647 1 0.501961 0.517647 
1 0.501961 0.517647 1 0.501961 0.517647 
1 0.501961 0.517647 1 0.501961 0.517647 
1 0.501961 0.517647 1 0.501961 0.517647 
1 0.501961 0.517647 1 0.501961 0.517647 
1 0.501961 0.517647 1 0.501961 0.517647 
1 0.501961 0.517647 1 0.501961 0.517647 
1 0.501961 0.517647 1 0.501961 0.517647 
1 0.501961 0.517647 1 0.501961 0.517647 
1 0.501961 0.517647 1 0.501961 0.517647 
1 0.501961 0.517647 1 0.501961 0.517647 
1 0.501961 0.517647 1 0.501961 0.517647 
1 0.501961 0.517647 1 0.501961 0.517647 
1 0.501961 0.517647 1 0.501961 0.517647 
1 0.501961 0.517647 1 0.501961 0.517647 
1 0.501961 0.517647 1 0.501961 0.517647 
1 0.501961 0.517647 1 0.501961 0.517647 
1 0.501961 0.517647 1 0.501961 0.517647 
1 0.501961 0.517647 1 0.501961 0.517647 
1 0.501961 0.517647 1 0.501961 0.517647 
1 0.501961 0.517647 1 0.501961 0.517647 
1 0.501961 0.517647 1 0.501961 0.517647 
1 0.501961 0.517647 1 0.501961 0.517647 
1 0.501961 0.517647 1 0.501961 0.517647 
1 0.501961 0.517647 1 0.501961 0.517647 
1 0.501961 0.517647 1 0.501961 0.517647 
1 0.501961 0.517647 1 0.501961 0.517647 
1 0.501961 0.517647 1 0.501961 0.517647 
1 0.501961 0.517647 1 0.501961 0.517647 
1 0.501961 0.517647 1 0.501961 0.517647 
1 0.501961 0.517647 1 0.501961 0.517647 
1 0.501961 0.517647 1 0.501961 0.517647 
1 0.501961 0.517647 1 0.501961 0.517647 
1 0.501961 0.517647 1 0.501961 0.517647 
1 0.501961 0.517647 1 0.501961 0.517647 
1 0.501961 0.517647 1 0.501961 0.517647 
1 0.501961 0.517647 1 0.501961 0.517647 
1 0.501961 0.517647 1 0.501961 0.517647 
1 0.501961 0.517647 1 0.501961 0.517647 
1 0.501961 0.517647 1 0.501961 0.517647 
1 0.501961 0.517647 1 0.501961 0.517647 
1 0.501961 0.517647 1 0.501961 0.517647 
1 0.501961 0.517647 1 0.501961 0.517647 
1 0.501961 0.517647 1 0.501961 0.517647 
1 0.501961 0.517647 1 0.501961 0.517647 
1 0.501961 0.517647 1 0.501961 0.517647 
1 0.501961 0.517647 1 0.501961 0.517647 
1 0.501961 0.517647 1 0.501961 0.517647 
1 0.501961 0.517647 1 0.501961 0.517647 
1 0.501961 0.517647 1 0.501961 0.517647 
1 0.501961 0.517647 1 0.501961 0.517647 
1 0.501961 0.517647 1 0.501961 0.517647 
1 0.501961 0.517647 1 0.501961 0.517647 
1 0.501961 0.517647 1 0.501961 0.517647 
1 0.501961 0.517647 1 0.501961 0.517647 
1 0.501961 0.517647 1 0.501961 0.517647 
1 0.501961 0.517647 1 0.501961 0.517647 
1 0.501961 0.517647 1 0.501961 0.517647 
1 0.501961 0.517647 1 0.501961 0.517647 
1 0.501961 0.517647 1 0.501961 0.517647 
1 0.501961 0.517647 1 0.501961 0.517647 
1 0.501961 0.517647 1 0.501961 0.517647 
1 0.501961 0.517647 1 0.501961 0.517647 
1 0.501961 0.517647 1 0.501961 0.517647 
1 0.501961 0.517647 1 0.501961 0.517647 
1 0.501961 0.517647 1 0.501961 0.517647 
1 0.501961 0.517647 1 0.501961 0.517647 
1 0.501961 0.517647 1 0.501961 0.517647 
1 0.501961 0.517647 1 0.501961 0.517647 
1 0.501961 0.517647 1 0.501961 0.517647 
1 0.501961 0.517647 1 0.501961 0.517647 
1 0.501961 0.517647 1 0.501961 0.517647 
1 0.501961 0.517647 1 0.501961 0.517647 
1 0.501961 0.517647 1 0.501961 0.517647 
1 0.501961 0.517647 1 0.501961 0.517647 
1 0.501961 0.517647 1 0.501961 0.517647 
1 0.501961 0.517647 1 0.501961 0.517647 
1 0.501961 0.517647 1 0.501961 0.517647 
1 0.501961 0.517647 1 0.501961 0.517647 
1 0.501961 0.517647 1 0.501961 0.517647 
1 0.501961 0.517647 1 0.501961 0.517647 
1 0.501961 0.517647 1 0.501961 0.517647 
1 0.501961 0.517647 1 0.501961 0.517647 
1 0.501961 0.517647 1 0.501961 0.517647 
1 0.501961 0.517647 1 0.501961 0.517647 
1 0.501961 0.517647 1 0.501961 0.517647 
1 0.501961 0.517647 
NORMALS Normals float
0.136769 -0.203415 -0.969493 -0.0584614 -0.29451 -0.953858 -0.0687369 -0.0715096 -0.995069 
-0.108009 0.0425694 -0.993238 0.0157193 0.0717415 -0.997299 -0.0277591 -0.393546 -0.918886 
0.222515 -0.248528 -0.94272 0.614327 -0.368938 -0.697486 0.0178655 -0.666372 -0.745406 
-0.111046 -0.458626 -0.881664 0.499413 -0.0507129 -0.864879 0.747176 0.177847 -0.64039 
0.574946 0.276424 -0.770082 -0.287569 -0.149408 -0.946034 0.217354 0.0690537 -0.973647 
-0.259284 -0.0161471 -0.965666 0.202845 0.163665 -0.965437 0.154668 0.292078 -0.943805 
-0.286785 0.1916 -0.938639 -0.123063 0.218634 -0.968016 -0.153863 0.415356 -0.896552 
0.0149461 0.420621 -0.907113 0.130279 0.425303 -0.895625 0.346386 -0.558847 -0.753463 
0.306296 -0.757996 -0.575869 0.490016 -0.777701 -0.393784 -0.0800689 -0.674291 -0.734112 
-0.197075 -0.709881 -0.676188 -0.208363 -0.543285 -0.813281 -0.269031 -0.427643 -0.862985 
0.440334 0.345252 -0.828798 0.306535 0.518904 -0.797982 -0.34457 0.353601 -0.869619 
0.118082 0.481007 -0.868728 -0.0627858 0.480365 -0.874819 -0.0249829 0.610869 -0.791337 
0.0493948 -0.876195 -0.479419 0.636132 -0.636047 -0.436784 0.593266 -0.772472 -0.226546 
0.874058 -0.265712 -0.406719 0.852685 0.0738821 -0.517175 -0.341333 -0.432855 -0.834343 
0.98256 -0.0611259 -0.175611 -0.467123 0.0549999 -0.88248 0.650595 0.328317 -0.684787 
-0.478078 0.225006 -0.849007 0.596406 0.623391 -0.505651 0.450191 0.664726 -0.596211 
0.208485 0.699916 -0.683119 -0.402404 0.615652 -0.677527 -0.0321221 0.657493 -0.752776 
0.268546 0.814489 -0.514287 -0.014296 0.81265 -0.582577 -0.0153763 0.662826 -0.748616 
0.494414 -0.85802 -0.13913 0.649829 -0.752404 0.107752 0.867677 -0.386413 -0.312766 
0.833733 -0.551079 -0.0346674 0.996539 -0.0827277 0.00810352 0.947496 -0.221715 0.230419 
-0.496873 -0.239741 -0.834051 0.978046 0.0515804 -0.201902 0.895819 0.273012 -0.350675 
0.974847 0.165462 -0.149319 0.857306 0.415522 -0.303922 0.723228 0.632233 -0.277889 
0.769524 0.46081 -0.442138 0.576412 0.747597 -0.329922 0.599021 0.732792 -0.322784 
0.324434 0.794666 -0.513077 0.171204 0.810253 -0.560517 -0.129222 0.755514 -0.642262 
0.25462 0.923039 -0.288389 0.0236715 -0.979785 -0.198649 0.000295485 -0.997367 0.0725251 
0.178317 -0.954981 0.237096 0.298839 -0.951196 0.0769495 0.414871 -0.861808 0.291836 
-0.0745432 -0.878559 -0.47178 0.742124 -0.56307 0.363598 0.796486 -0.439912 0.414833 
0.977348 -0.0521388 0.205117 0.947515 0.302702 0.10289 0.882328 0.470341 0.0166132 
0.81152 0.582146 -0.05041 0.682323 0.724972 -0.0940754 0.411103 0.895187 -0.172146 
0.127699 0.920665 -0.368876 0.230975 0.949316 -0.21319 -0.0598523 0.930959 -0.360185 
0.0373214 0.922297 -0.384675 0.125973 0.986149 -0.10789 0.239016 0.967807 -0.0788703 
-0.301072 -0.643338 -0.703897 0.647765 -0.736279 0.195687 -0.457496 -0.469753 -0.755003 
0.957237 -0.185419 0.222074 0.952199 0.1458 0.268437 0.89321 0.397391 0.210372 
0.793356 0.476441 0.378932 0.749622 0.654311 0.0997208 0.754025 0.638781 0.152988 
0.618093 0.745655 0.248917 0.531343 0.838979 0.117424 -0.531557 0.464286 -0.708439 
0.273115 0.923281 0.270113 0.270091 0.957543 -0.100809 0.469219 0.877256 0.101267 
-0.261543 0.814242 -0.518272 0.129907 0.954141 -0.269701 -0.0478678 0.950673 -0.306478 
-0.117828 -0.829374 -0.546127 0.103262 -0.921226 0.375073 0.516531 -0.712729 0.474566 
0.25063 -0.789877 0.559714 0.630212 -0.634717 0.447177 0.753196 -0.35641 0.552873 
-0.535884 -0.339094 -0.773203 0.76564 -0.0987093 0.635651 0.733025 0.265171 0.626385 
-0.669787 0.205679 -0.713499 0.680995 0.523493 0.512056 0.292102 0.801315 0.522083 
0.589746 0.725385 0.354987 0.245639 0.958929 0.141834 0.434302 0.865626 0.249146 
-0.32909 0.828797 -0.452544 -0.322585 -0.755964 -0.569611 -0.106095 -0.974109 0.199637 
-0.484036 -0.59955 -0.637377 0.254502 -0.721322 0.644145 0.205613 -0.55492 0.806094 
-0.521618 -0.471471 -0.711076 0.504521 0.267033 0.821068 0.366142 0.535211 0.761242 
-0.618141 0.55803 -0.553629 0.255781 0.940716 0.222775 -0.365736 0.836633 -0.407777 
0.0534701 0.994196 -0.0933514 -0.567807 -0.473867 -0.673087 0.150766 -0.636153 0.756689 
0.543845 -0.302503 0.782767 0.223277 -0.473082 0.852256 -0.668561 -0.231351 -0.706755 
0.330914 -0.230209 0.91515 -0.733678 0.0619388 -0.676668 -0.729899 0.16891 -0.662357 
0.436169 0.653528 0.618593 0.320435 0.904372 0.281837 -0.479632 -0.61832 -0.622603 
0.168852 -0.740085 0.650971 0.0325842 0.990825 -0.131162 -0.293438 -0.80646 -0.513338 
0.125484 -0.987169 -0.0987459 -0.365629 -0.647914 -0.668224 -0.332919 0.922444 -0.195607 
0.173811 0.972634 0.154182 -0.131934 -0.886417 -0.443687 6.78759e-05 -0.957359 -0.288902 
-0.496975 -0.634438 -0.592034 0.431203 -0.532049 0.728689 0.429385 -0.195996 0.881597 
-0.235531 -0.910542 -0.339762 -0.235195 -0.908648 -0.345024 0.160547 -0.980323 0.114851 
0.608293 -0.452449 0.652127 -0.834448 0.0860939 -0.544321 -0.790008 0.479012 -0.382669 
-0.557601 0.822625 -0.111219 0.100287 -0.993928 0.045285 -0.678144 -0.476168 -0.559808 
0.26452 -0.842672 0.46897 0.364169 -0.535925 0.761685 0.505559 -0.289496 0.812774 
0.423927 -0.124971 0.897033 -0.344936 0.938359 0.0224086 -0.0480117 0.985543 0.162483 
-0.404226 -0.862768 -0.3037 -0.114803 -0.973335 -0.198593 -0.00754055 -0.998394 -0.0561416 
0.167073 -0.984234 0.0580568 -0.81799 -0.393528 -0.419556 0.27083 -0.821345 0.502039 
-0.930659 -0.0711559 -0.358902 -0.242734 0.939141 0.243093 -0.0122 -0.999208 0.0378703 
-0.593931 -0.725593 -0.347507 -0.857512 -0.440184 -0.266293 0.462207 0.206118 0.862485 
0.401513 0.622425 0.671844 -0.212498 -0.970066 -0.117542 0.109717 -0.960777 0.254694 
0.464175 -0.417507 0.781172 0.186971 0.869442 0.457288 -0.476003 -0.854739 -0.206985 
-0.594395 -0.801634 -0.0638507 -0.779053 -0.605942 -0.160968 0.41571 -0.474762 0.775749 
-0.996043 0.00826702 -0.0884916 -0.979536 0.0908199 -0.179615 -0.769615 0.63784 0.0292052 
-0.657551 0.751484 0.0538405 0.326586 0.683972 0.652322 0.37297 0.538956 0.755262 
-0.317081 0.865403 0.387991 -0.0383818 -0.970041 0.239891 -0.784852 -0.592459 0.181658 
0.10126 -0.965014 0.241856 0.252752 -0.817176 0.518015 -0.957385 -0.263331 -0.118621 
-0.92114 0.372546 -0.112742 -0.642928 0.726056 0.243897 -0.425233 0.856803 0.291658 
-0.294839 0.851131 0.434334 0.0691044 0.686852 0.723505 -0.597533 -0.689113 0.409974 
0.154772 -0.797886 0.582601 -0.957623 -0.262192 -0.119219 0.357228 -0.631092 0.688557 
-0.982766 0.0411339 0.180217 0.484932 -0.0489708 0.873179 -0.464922 0.772054 0.433336 
0.22462 0.509713 0.830505 -0.394698 0.718267 0.572979 -0.182897 0.758513 0.625465 
0.0191412 0.565245 0.824701 -0.362084 -0.882022 0.30155 -0.746369 -0.631844 0.209059 
-0.229059 -0.804959 0.547332 -0.768192 -0.610148 0.193907 0.0642029 -0.779849 0.622666 
-0.84886 -0.526423 -0.0481178 -0.708482 -0.516006 0.481447 -0.91377 -0.309512 0.26311 
-0.996949 -0.0721523 0.0297849 -0.970995 0.0261173 0.237669 0.330592 0.237878 0.913303 
-0.0335067 -0.793312 0.607893 -0.542536 -0.586919 0.600984 -0.761653 -0.504792 0.406288 
-0.85267 -0.0418637 0.52077 -0.773958 -0.262283 0.576365 0.210193 -0.445342 0.870339 
-0.920756 0.0217936 0.389529 -0.881866 0.283361 0.376855 -0.770769 0.538116 0.341096 
-0.601573 0.524845 0.602203 0.177688 0.26859 0.946724 -0.667311 0.688639 0.283675 
-0.464059 0.688718 0.557061 -0.0276273 -0.569032 0.821851 -0.599924 -0.313804 0.735947 
-0.827666 -0.141794 0.543014 -0.674486 -0.118318 0.728745 -0.776552 0.126958 0.617129 
0.113174 -0.119165 0.986403 0.290592 -0.0388438 0.956058 -0.601196 0.407241 0.687545 
-0.503274 0.484706 0.715385 -0.493557 0.643426 0.585153 -0.363872 0.598298 0.713889 
0.0402723 0.401821 0.914832 -0.353657 -0.405582 0.84287 0.1604 -0.355957 0.920634 
-0.518636 -0.127494 0.845436 0.131368 -0.243766 0.960896 -0.560515 0.0774117 0.824518 
-0.467384 0.222352 0.855635 0.0456058 -0.0274292 0.998583 -0.186816 0.374032 0.908405 