# vtk DataFile Version 4.2
vtk output
ASCII
DATASET POLYDATA
POINTS 574 float
314.655 244.187 195.433 314.902 246.078 195.007 312.582 248.546 195.17 
316.876 248.314 195.167 310.725 249.134 195.765 310.464 243.155 196.507 
308.727 245.91 196.676 308.362 246.102 196.993 308.557 247.845 197.023 
309.331 249.243 196.749 310.515 249.727 196.107 313.976 250.384 195.412 
313.455 250.981 195.642 312.417 251.353 196.113 314.944 252.331 195.858 
314.623 253.096 196.249 314.202 253.194 196.452 316.681 252.793 195.999 
318.401 252.542 196.102 320.734 252.887 196.805 315.972 254.19 196.666 
316.512 254.11 196.593 316.985 254.61 196.962 317.821 254.61 197.031 
310.62 241.934 197.2 315.362 241.45 197.232 309.771 242.368 197.451 
320.826 243.759 197.131 321.178 243.197 197.531 308.01 244.882 197.671 
307.851 244.637 198.041 308.355 244.893 197.304 320.28 245.301 196.357 
307.787 245.631 197.993 324.314 247.544 197.296 310.568 251.431 197.367 
313.679 254.505 198.027 315.521 254.983 197.529 311.404 240.7 198.024 
308.061 243.609 198.262 308.102 248.468 198.595 325.282 249.699 197.891 
308.937 249.931 198.364 315.768 256.26 199.142 310.573 239.997 199.092 
313.235 240.07 198.383 312.074 253.711 199.697 324.12 253.257 198.976 
317.109 256.915 199.891 318.71 256.682 199.652 308.584 241.316 199.546 
308.146 242.01 199.443 307.681 242.013 200.407 326.837 243.652 199.813 
307.969 248.431 199.895 329.152 248.328 200.435 309.682 251.206 200.227 
314.98 256.38 200.927 316.098 257.107 201.047 316.915 257.182 200.54 
317.919 257.392 200.932 313.477 237.857 201.059 307.796 241.327 200.82 
307.631 241.064 201.466 307.253 243.911 201.156 329.07 246.29 200.399 
329.891 249.178 201.403 310.101 251.564 200.86 311.255 252.899 200.64 
323.107 255.025 200.644 307.887 239.915 202.095 307.606 240.279 202.369 
307.475 240.991 202.152 307.329 245.308 201.752 311.448 252.871 201.609 
315.391 256.862 202.829 318.601 257.5 201.628 308.718 237.9 203.213 
307.242 241.981 203.087 307.976 245.81 203.601 316.806 257.845 203.286 
316.613 257.837 203.566 307.791 238.781 204.003 307.261 241.78 203.817 
332.98 244.263 204.234 333.388 245.415 204.501 332.398 248.239 203.742 
314.769 255.872 203.856 319.246 257.498 203.091 315.997 257.395 203.76 
309.834 235.949 205.45 308.02 238.065 205.017 307.754 238.741 204.578 
311.87 252.187 204.127 324.76 255.033 204.292 315.546 256.577 204.615 
317.375 257.927 204.146 318.058 257.573 204.626 316.566 257.786 204.341 
317.201 257.873 204.415 309.256 245.975 205.913 333.586 248.243 205.691 
316.388 257.327 205.049 316.507 257.234 205.185 317.289 257.208 205.342 
316.669 257.734 204.594 317.422 257.689 204.729 311.424 234.878 207.209 
308.347 237.411 206.82 308.078 237.928 206.292 334.32 242.661 206.897 
310.623 248.186 206.247 316.057 256.445 205.371 323.264 255.564 206.21 
316.479 256.859 205.397 318.796 255.914 206.67 319.235 256.108 206.571 
320.794 256.233 206.257 321.344 255.801 206.957 319.538 256.389 206.226 
331.023 238.072 207.358 333.857 239.813 208.334 315.49 250.621 208.12 
321.422 255.688 207.273 321.266 255.581 207.355 321.54 255.627 207.307 
321.868 255.486 207.289 321.454 255.603 207.385 320.202 233.242 209.316 
310.984 235.292 208.499 312.129 234.928 209.07 313.393 234.332 208.731 
309.244 236.847 208.04 329.636 235.741 209.374 308.769 237.563 207.856 
309.392 240.296 208.281 311.996 243.486 208.957 335.757 243.426 208.967 
310.038 244.86 207.343 323.509 253.989 208.574 321.329 254.958 207.811 
321.508 255.383 207.521 317.317 233.465 209.984 317.982 233.315 209.828 
323.958 233.52 209.739 311.168 235.408 208.892 312.415 235.223 209.636 
314.336 234.218 209.25 310.735 236.149 209.129 311.941 235.61 209.638 
329.936 235.566 209.979 310.013 236.806 208.854 310.362 237.046 209.246 
309.405 238.23 208.552 310.456 237.539 209.378 311.317 239.542 209.665 
335.179 240.195 209.864 320.34 248.864 210.312 321.856 251.037 209.97 
331.675 251.925 209.271 322.486 253.289 208.996 325.22 252.727 209.943 
327.278 253.211 209.551 319.545 233.205 211.183 322.535 233.085 210.893 
317.381 233.602 210.63 328.68 234.805 210.496 328.928 234.835 210.847 
311.181 236.439 209.551 312.623 236.203 210.268 313.181 240.184 210.324 
318.502 233.367 211.529 318.727 233.291 211.113 319.052 233.368 211.533 
323.331 233.283 211.351 323.803 233.449 211.507 318.393 233.399 211.462 
318.122 233.554 211.251 325.473 233.82 211.255 326.976 234.129 210.888 
327.152 234.197 211.287 327.61 234.385 211.479 328.144 234.563 211.297 
328.857 234.816 211.21 329.367 235.091 211.443 330.879 235.869 210.775 
315.488 236.157 211.424 335.677 249.035 211.631 334.928 249.933 211.893 
327.431 252.632 210.58 320.962 233.542 211.938 322.602 233.467 211.808 
318.431 233.874 211.751 319.072 234.106 212.153 326.279 234.18 211.787 
327.124 234.326 211.673 319.155 234.365 212.403 319.578 234.59 212.54 
322.354 234.34 212.693 321.264 235.018 213.005 326.806 234.952 212.824 
332.363 237.001 212.227 334.069 238.038 211.832 319.447 237.201 213.046 
321.619 241.143 213.505 336.581 241.065 212.63 336.704 247.715 212.634 
328.898 251.029 212.863 332.588 251.627 211.981 319.065 234.424 212.426 
321.155 236.301 213.427 321.175 239.943 213.575 336.339 240.45 213.321 
328.713 249.648 213.727 334.256 250.642 213.44 329.548 251.569 212.552 
327.543 238.363 215.233 332.396 238.052 214.386 335.167 239.276 213.709 
337.532 242.834 214.521 337.685 244.74 215.249 337.554 246.066 215.513 
337.267 247.209 214.889 334.786 250.231 214.337 335.222 249.782 214.558 
333.239 251.195 213.521 331.004 253.013 215.009 331.004 253.013 215.009 
331.004 253.013 215.009 331.004 253.013 215.009 331.004 253.013 215.009 
327.067 239.26 215.521 331.692 238.936 215.562 332.612 239.037 215.495 
334.84 239.616 215.345 335.324 239.793 215.135 326.564 239.976 215.541 
334.605 239.766 215.712 336.844 241.325 215.191 337.146 241.779 215.231 
337.441 242.733 215.524 337.583 244.146 215.731 336.963 247.606 215.859 
334.777 250.112 214.711 334.97 249.789 215.088 331.004 253.013 215.009 
331.969 250.842 214.57 332.936 250.856 214.531 329.058 240.322 216.29 
331.898 240.073 216.407 335.938 240.644 215.97 337.186 242.287 215.908 
337.039 246.958 216.497 336.701 247.89 216.045 334.343 248.818 216.442 
334.723 248.872 216.363 336.596 247.83 216.384 335.022 249.085 216.025 
328.57 240.254 216.254 331.176 241.327 216.943 332.978 241.368 217.158 
336.892 241.964 216.192 331.872 241.954 217.241 332.062 243.527 217.447 
337.055 245.199 216.815 333.688 245.896 217.523 333.317 247.842 216.761 
335.349 247 217.395 335.87 247.899 216.791 336.667 247.539 216.639 
335.157 248.631 216.448 336.36 247.773 216.665 335.235 242.072 217.371 
336.702 242.053 216.508 333.986 242.757 217.724 334.63 242.501 217.687 
334.261 243.178 217.869 334.866 243.246 217.762 334.865 242.737 217.769 
336.207 243.278 217.305 336.698 243.15 216.937 335.644 244.091 217.639 
335.636 244.886 217.639 334.9 245.908 217.623 336.598 246.095 217.15 
336.097 247.036 217.209 334.893 242.563 217.737 334.503 243.29 237.284 
334.465 243.175 237.318 334.379 243.335 237.344 334.59 243.441 237.32 
336.761 241.877 238.299 336.592 241.602 238.363 336.826 241.688 238.495 
332.262 241.811 237.972 334.396 242.868 237.484 336.39 242.438 237.961 
333.362 242.976 237.607 335.002 243.419 237.438 337.062 242.555 238.453 
336.691 244.232 238.062 335.318 245.25 237.585 335.768 245.321 237.68 
336.04 245.632 237.861 336.822 245.407 238.373 336.3 240.962 238.728 
336.195 240.713 238.899 331.91 240.851 238.42 334.971 241.516 237.962 
336.625 241.322 238.698 337.194 242.229 238.84 334.006 247.228 238.23 
334.251 247.632 238.373 336.494 246.804 238.676 334.744 247.773 238.428 
335.656 247.772 238.659 336.639 247.748 239.347 335.699 240.012 239.627 
330.894 240.129 238.907 337.391 242.469 239.339 337.573 243.867 239.366 
334.908 248.214 238.687 336.903 247.543 239.583 334.841 248.694 239.059 
336.324 248.534 239.951 332.298 250.298 240.115 333.146 249.727 239.623 
334.79 249.425 239.72 335.16 249.623 240.103 332.411 250.573 240.392 
333.713 250.264 240.104 326.657 238.699 240.09 325.246 239.672 240.301 
332.298 239.156 239.539 334.671 239.615 239.584 325.779 240.787 240.104 
335.247 249.746 240.383 335.013 250.025 240.689 331.712 250.581 240.73 
331 253.009 240.017 331 253.009 240.017 331 253.009 240.017 
331 253.009 240.017 332.803 250.873 240.868 333.296 250.794 240.792 
331 253.009 240.017 332.909 238.279 240.586 334.56 238.879 240.824 
335.822 239.799 240.852 337.554 242.765 240.654 337.142 247.619 241.231 
329.924 249.789 241.064 336.345 248.88 241.193 336.434 248.754 241.705 
330.64 250.91 241.776 333.799 250.719 240.948 331 253.009 240.017 
332.185 251.175 241.714 332.842 251.03 241.362 322.18 236.302 241.759 
326.886 236.078 241.383 337.575 243.082 241.088 337.659 244.463 241.392 
337.288 247.245 241.455 323.525 233.343 243.615 318.87 233.84 243.651 
327.281 234.373 243.04 328.169 234.337 243.491 329.111 234.63 243.64 
326.632 235.103 242.116 317.626 236.097 243.125 319.331 236.254 242.551 
318.553 237.096 242.717 316.88 237.802 243.282 337.521 245.518 241.9 
327.661 251.023 243.216 332.675 251.339 242.968 333.973 250.656 243.411 
318.389 233.522 244.247 318.21 233.42 244.546 323.553 233.214 243.959 
326.987 233.919 244.202 318.222 234.467 243.481 329.868 234.877 243.956 
314.616 235.618 244.458 314.384 235.374 244.708 331.139 235.612 244.088 
314.569 236.459 244.263 335.172 239.351 243.891 336.574 242.228 243.988 
316.812 233.71 245.302 316.058 234.015 245.14 314.615 234.563 245.478 
316.442 234.296 244.474 331.76 236.322 244.87 312.159 237.113 245.332 
334.137 250.137 245.003 326.555 252.502 245.003 329.587 252.513 245.116 
315.576 233.96 245.806 316.712 233.617 245.984 312.016 234.985 246.984 
313.913 234.44 246.534 310.395 236.095 247.211 310.201 236.563 246.991 
335.7 247.242 245.932 317.028 233.585 246.468 320.543 233.316 246.329 
311.473 235.001 247.544 312.041 234.776 247.53 315.541 233.961 246.854 
309.201 236.814 248.282 331.476 237.219 246.686 308.591 238.433 247.907 
[...]
POINT_DATA 574
COLOR_SCALARS scalars 3
1 0.298039 0.243137 1 0.298039 0.243137 1 0.298039 0.243137 
1 0.298039 0.243137 1 0.298039 0.243137 
1 0.298039 0.243137 1 0.298039 0.243137 
1 0.298039 0.243137 1 0.298039 0.243137 
1 0.298039 0.243137 1 0.298039 0.243137 
1 0.298039 0.243137 1 0.298039 0.243137 
1 0.298039 0.243137 1 0.298039 0.243137 
1 0.298039 0.243137 1 0.298039 0.243137 
1 0.298039 0.243137 1 0.298039 0.243137 
1 0.298039 0.243137 1 0.298039 0.243137 
1 0.298039 0.243137 1 0.298039 0.243137 
1 0.298039 0.243137 1 0.298039 0.243137 
1 0.298039 0.243137 1 0.298039 0.243137 
1 0.298039 0.243137 1 0.298039 0.243137 
1 0.298039 0.243137 1 0.298039 0.243137 
1 0.298039 0.243137 1 0.298039 0.243137 
1 0.298039 0.243137 1 0.298039 0.243137 
1 0.298039 0.243137 1 0.298039 0.243137 
1 0.298039 0.243137 1 0.298039 0.243137 
1 0.298039 0.243137 1 0.298039 0.243137 
1 0.298039 0.243137 1 0.298039 0.243137 
1 0.298039 0.243137 1 0.298039 0.243137 
1 0.298039 0.243137 1 0.298039 0.243137 
1 0.298039 0.243137 1 0.298039 0.243137 
1 0.298039 0.243137 1 0.298039 0.243137 
1 0.298039 0.243137 1 0.298039 0.243137 
1 0.298039 0.243137 1 0.298039 0.243137 
1 0.298039 0.243137 1 0.298039 0.243137 
1 0.298039 0.243137 1 0.298039 0.243137 
1 0.298039 0.243137 1 0.298039 0.243137 
1 0.298039 0.243137 1 0.298039 0.243137 
1 0.298039 0.243137 1 0.298039 0.243137 
1 0.298039 0.243137 1 0.298039 0.243137 
1 0.298039 0.243137 1 0.298039 0.243137 
1 0.298039 0.243137 1 0.298039 0.243137 
1 0.298039 0.243137 1 0.298039 0.243137 
1 0.298039 0.243137 1 0.298039 0.243137 
1 0.298039 0.243137 1 0.298039 0.243137 
1 0.298039 0.243137 1 0.298039 0.243137 
1 0.298039 0.243137 1 0.298039 0.243137 
1 0.298039 0.243137 1 0.298039 0.243137 
1 0.298039 0.243137 1 0.298039 0.243137 
1 0.298039 0.243137 1 0.298039 0.243137 
1 0.298039 0.243137 1 0.298039 0.243137 
1 0.298039 0.243137 1 0.298039 0.243137 
1 0.298039 0.243137 1 0.298039 0.243137 
1 0.298039 0.243137 1 0.298039 0.243137 
1 0.298039 0.243137 1 0.298039 0.243137 
1 0.298039 0.243137 1 0.298039 0.243137 
1 0.298039 0.243137 1 0.298039 0.243137 
1 0.298039 0.243137 1 0.298039 0.243137 
1 0.298039 0.243137 1 0.298039 0.243137 
1 0.298039 0.243137 1 0.298039 0.243137 
1 0.298039 0.243137 1 0.298039 0.243137 
1 0.298039 0.243137 1 0.298039 0.243137 
1 0.298039 0.243137 1 0.298039 0.243137 
1 0.298039 0.243137 1 0.298039 0.243137 
1 0.298039 0.243137 1 0.298039 0.243137 
1 0.298039 0.243137 1 0.298039 0.243137 
1 0.298039 0.243137 1 0.298039 0.243137 
1 0.298039 0.243137 1 0.298039 0.243137 
1 0.298039 0.243137 1 0.298039 0.243137 
1 0.298039 0.243137 1 0.298039 0.243137 
1 0.298039 0.243137 1 0.298039 0.243137 
1 0.298039 0.243137 1 0.298039 0.243137 
1 0.298039 0.243137 1 0.298039 0.243137 
1 0.298039 0.243137 1 0.298039 0.243137 
1 0.298039 0.243137 1 0.298039 0.243137 
1 0.298039 0.243137 1 0.298039 0.243137 
1 0.298039 0.243137 1 0.298039 0.243137 
1 0.298039 0.243137 1 0.298039 0.243137 
1 0.298039 0.243137 1 0.298039 0.243137 
1 0.298039 0.243137 1 0.298039 0.243137 
1 0.298039 0.243137 1 0.298039 0.243137 
1 0.298039 0.243137 1 0.298039 0.243137 
1 0.298039 0.243137 1 0.298039 0.243137 
1 0.298039 0.243137 1 0.298039 0.243137 
1 0.298039 0.243137 1 0.298039 0.243137 
1 0.298039 0.243137 1 0.298039 0.243137 
1 0.298039 0.243137 1 0.298039 0.243137 
1 0.298039 0.243137 1 0.298039 0.243137 
1 0.298039 0.243137 1 0.298039 0.243137 
1 0.298039 0.243137 1 0.298039 0.243137 
1 0.298039 0.243137 1 0.298039 0.243137 
1 0.298039 0.243137 1 0.298039 0.243137 
1 0.298039 0.243137 1 0.298039 0.243137 
1 0.298039 0.243137 1 0.298039 0.243137 
1 0.298039 0.243137 1 0.298039 0.243137 
1 0.298039 0.243137 1 0.298039 0.243137 
1 0.298039 0.243137 1 0.298039 0.243137 
1 0.298039 0.243137 1 0.298039 0.243137 
1 0.298039 0.243137 1 0.298039 0.243137 
1 0.298039 0.243137 1 0.298039 0.243137 
1 0.298039 0.243137 1 0.298039 0.243137 
1 0.298039 0.243137 1 0.298039 0.243137 
1 0.298039 0.243137 1 0.298039 0.243137 
1 0.298039 0.243137 1 0.298039 0.243137 
1 0.298039 0.243137 1 0.298039 0.243137 
1 0.298039 0.243137 1 0.298039 0.243137 
1 0.298039 0.243137 1 0.298039 0.243137 
1 0.298039 0.243137 1 0.298039 0.243137 
1 0.298039 0.243137 1 0.298039 0.243137 
1 0.298039 0.243137 1 0.298039 0.243137 
1 0.298039 0.243137 1 0.298039 0.243137 
1 0.298039 0.243137 1 0.298039 0.243137 
1 0.298039 0.243137 1 0.298039 0.243137 
1 0.298039 0.243137 1 0.298039 0.243137 
1 0.298039 0.243137 1 0.298039 0.243137 
1 0.298039 0.243137 1 0.298039 0.243137 
1 0.298039 0.243137 1 0.298039 0.243137 
1 0.298039 0.243137 1 0.298039 0.243137 
1 0.298039 0.243137 1 0.298039 0.243137 
1 0.298039 0.243137 1 0.298039 0.243137 
1 0.298039 0.243137 1 0.298039 0.243137 
1 0.298039 0.243137 1 0.298039 0.243137 
1 0.298039 0.243137 1 0.298039 0.243137 
1 0.298039 0.243137 1 0.298039 0.243137 
1 0.298039 0.243137 1 0.298039 0.243137 
1 0.298039 0.243137 1 0.298039 0.243137 
1 0.298039 0.243137 1 0.298039 0.243137 
1 0.298039 0.243137 1 0.298039 0.243137 
1 0.298039 0.243137 1 0.298039 0.243137 
1 0.298039 0.243137 1 0.298039 0.243137 
1 0.298039 0.243137 1 0.298039 0.243137 
1 0.298039 0.243137 1 0.298039 0.243137 
1 0.298039 0.243137 1 0.298039 0.243137 
1 0.298039 0.243137 1 0.298039 0.243137 
1 0.298039 0.243137 1 0.298039 0.243137 
1 0.298039 0.243137 1 0.298039 0.243137 
1 0.298039 0.243137 1 0.298039 0.243137 
1 0.298039 0.243137 1 0.298039 0.243137 
1 0.298039 0.243137 1 0.298039 0.243137 
1 0.298039 0.243137 1 0.298039 0.243137 
1 0.298039 0.243137 1 0.298039 0.243137 
1 0.298039 0.243137 1 0.298039 0.243137 
1 0.298039 0.243137 1 0.298039 0.243137 
1 0.298039 0.243137 1 0.298039 0.243137 
1 0.298039 0.243137 1 0.298039 0.243137 
1 0.298039 0.243137 1 0.298039 0.243137 
1 0.298039 0.243137 1 0.298039 0.243137 
1 0.298039 0.243137 1 0.298039 0.243137 
1 0.298039 0.243137 1 0.298039 0.243137 
1 0.298039 0.243137 1 0.298039 0.243137 
1 0.298039 0.243137 1 0.298039 0.243137 
1 0.298039 0.243137 1 0.298039 0.243137 
1 0.298039 0.243137 1 0.298039 0.243137 
1 0.298039 0.243137 1 0.298039 0.243137 
1 0.298039 0.243137 1 0.298039 0.243137 
1 0.298039 0.243137 1 0.298039 0.243137 
1 0.298039 0.243137 1 0.298039 0.243137 
1 0.298039 0.243137 1 0.298039 0.243137 
1 0.298039 0.243137 1 0.298039 0.243137 
1 0.298039 0.243137 1 0.298039 0.243137 
1 0.298039 0.243137 1 0.298039 0.243137 
1 0.298039 0.243137 1 0.298039 0.243137 
1 0.298039 0.243137 1 0.298039 0.243137 
1 0.298039 0.243137 1 0.298039 0.243137 
1 0.298039 0.243137 1 0.298039 0.243137 
1 0.298039 0.243137 1 0.298039 0.243137 
1 0.298039 0.243137 1 0.298039 0.243137 
1 0.298039 0.243137 1 0.298039 0.243137 
1 0.298039 0.243137 1 0.298039 0.243137 
1 0.298039 0.243137 1 0.298039 0.243137 
1 0.298039 0.243137 1 0.298039 0.243137 
1 0.298039 0.243137 1 0.298039 0.243137 
1 0.298039 0.243137 1 0.298039 0.243137 
1 0.298039 0.243137 1 0.298039 0.243137 
1 0.298039 0.243137 1 0.298039 0.243137 
1 0.298039 0.243137 1 0.298039 0.243137 
1 0.298039 0.243137 1 0.298039 0.243137 
1 0.298039 0.243137 1 0.298039 0.243137 
1 0.298039 0.243137 1 0.298039 0.243137 
1 0.298039 0.243137 1 0.298039 0.243137 
1 0.298039 0.243137 1 0.298039 0.243137 
1 0.298039 0.243137 1 0.298039 0.243137 
1 0.298039 0.243137 1 0.298039 0.243137 
1 0.298039 0.243137 1 0.298039 0.243137 
1 0.298039 0.243137 1 0.298039 0.243137 
1 0.298039 0.243137 1 0.298039 0.243137 
1 0.298039 0.243137 1 0.298039 0.243137 
1 0.298039 0.243137 1 0.298039 0.243137 
1 0.298039 0.243137 1 0.298039 0.243137 
1 0.298039 0.243137 1 0.298039 0.243137 
1 0.298039 0.243137 1 0.298039 0.243137 
1 0.298039 0.243137 1 0.298039 0.243137 
1 0.298039 0.243137 1 0.298039 0.243137 
1 0.298039 0.243137 1 0.298039 0.243137 
1 0.298039 0.243137 1 0.298039 0.243137 
1 0.298039 0.243137 1 0.298039 0.243137 
1 0.298039 0.243137 1 0.298039 0.243137 
1 0.298039 0.243137 1 0.298039 0.243137 
1 0.298039 0.243137 1 0.298039 0.243137 
1 0.298039 0.243137 1 0.298039 0.243137 
1 0.298039 0.243137 1 0.298039 0.243137 
1 0.298039 0.243137 1 0.298039 0.243137 
1 0.298039 0.243137 1 0.298039 0.243137 
1 0.298039 0.243137 1 0.298039 0.243137 
1 0.298039 0.243137 1 0.298039 0.243137 
1 0.298039 0.243137 1 0.298039 0.243137 
1 0.298039 0.243137 1 0.298039 0.243137 
1 0.298039 0.243137 1 0.298039 0.243137 
1 0.298039 0.243137 1 0.298039 0.243137 
1 0.298039 0.243137 1 0.298039 0.243137 
1 0.298039 0.243137 1 0.298039 0.243137 
1 0.298039 0.243137 1 0.298039 0.243137 
1 0.298039 0.243137 1 0.298039 0.243137 
1 0.298039 0.243137 1 0.298039 0.243137 
1 0.298039 0.243137 1 0.298039 0.243137 
1 0.298039 0.243137 1 0.298039 0.243137 
1 0.298039 0.243137 1 0.298039 0.243137 
1 0.298039 0.243137 1 0.298039 0.243137 
1 0.298039 0.243137 1 0.298039 0.243137 
1 0.298039 0.243137 1 0.298039 0.243137 
1 0.298039 0.243137 1 0.298039 0.243137 
1 0.298039 0.243137 1 0.298039 0.243137 
1 0.298039 0.243137 1 0.298039 0.243137 
1 0.298039 0.243137 1 0.298039 0.243137 
1 0.298039 0.243137 1 0.298039 0.243137 
1 0.298039 0.243137 1 0.298039 0.243137 
1 0.298039 0.243137 1 0.298039 0.243137 
1 0.298039 0.243137 1 0.298039 0.243137 
1 0.298039 0.243137 1 0.298039 0.243137 
1 0.298039 0.243137 1 0.298039 0.243137 
1 0.298039 0.243137 1 0.298039 0.243137 
1 0.298039 0.243137 1 0.298039 0.243137 
1 0.298039 0.243137 1 0.298039 0.243137 
1 0.298039 0.243137 1 0.298039 0.243137 
1 0.298039 0.243137 1 0.298039 0.243137 
1 0.298039 0.243137 1 0.298039 0.243137 
1 0.298039 0.243137 1 0.298039 0.243137 
1 0.298039 0.243137 1 0.298039 0.243137 
1 0.298039 0.243137 1 0.298039 0.243137 
1 0.298039 0.243137 1 0.298039 0.243137 
1 0.298039 0.243137 1 0.298039 0.243137 
1 0.298039 0.243137 1 0.298039 0.243137 
1 0.298039 0.243137 1 0.298039 0.243137 
1 0.298039 0.243137 1 0.298039 0.243137 
1 0.298039 0.243137 1 0.298039 0.243137 
1 0.298039 0.243137 1 0.298039 0.243137 
1 0.298039 0.243137 1 0.298039 0.243137 
1 0.298039 0.243137 1 0.298039 0.243137 
1 0.298039 0.243137 1 0.298039 0.243137 
1 0.298039 0.243137 1 0.298039 0.243137 
1 0.298039 0.243137 1 0.298039 0.243137 
1 0.298039 0.243137 1 0.298039 0.243137 
1 0.298039 0.243137 1 0.298039 0.243137 
1 0.298039 0.243137 1 0.298039 0.243137 
1 0.298039 0.243137 1 0.298039 0.243137 
1 0.298039 0.243137 1 0.298039 0.243137 
1 0.298039 0.243137 1 0.298039 0.243137 
1 0.298039 0.243137 1 0.298039 0.243137 
1 0.298039 0.243137 1 0.298039 0.243137 
1 0.298039 0.243137 1 0.298039 0.243137 
1 0.298039 0.243137 1 0.298039 0.243137 
1 0.298039 0.243137 1 0.298039 0.243137 
1 0.298039 0.243137 1 0.298039 0.243137 
1 0.298039 0.243137 1 0.298039 0.243137 
1 0.298039 0.243137 1 0.298039 0.243137 
1 0.298039 0.243137 1 0.298039 0.243137 
1 0.298039 0.243137 1 0.298039 0.243137 
1 0.298039 0.243137 1 0.298039 0.243137 
1 0.298039 0.243137 1 0.298039 0.243137 
1 0.298039 0.243137 1 0.298039 0.243137 
1 0.298039 0.243137 1 0.298039 0.243137 
1 0.298039 0.243137 1 0.298039 0.243137 
1 0.298039 0.243137 1 0.298039 0.243137 
1 0.298039 0.243137 1 0.298039 0.243137 
1 0.298039 0.243137 1 0.298039 0.243137 
1 0.298039 0.243137 1 0.298039 0.243137 
1 0.298039 0.243137 1 0.298039 0.243137 
1 0.298039 0.243137 1 0.298039 0.243137 
1 0.298039 0.243137 1 0.298039 0.243137 
1 0.298039 0.243137 1 0.298039 0.243137 
1 0.298039 0.243137 1 0.298039 0.243137 
1 0.298039 0.243137 1 0.298039 0.243137 
1 0.298039 0.243137 1 0.298039 0.243137 
1 0.298039 0.243137 1 0.298039 0.243137 
1 0.298039 0.243137 1 0.298039 0.243137 
1 0.298039 0.243137 1 0.298039 0.243137 
1 0.298039 0.243137 1 0.298039 0.243137 
1 0.298039 0.243137 1 0.298039 0.243137 
1 0.298039 0.243137 1 0.298039 0.243137 
1 0.298039 0.243137 1 0.298039 0.243137 
1 0.298039 0.243137 1 0.298039 0.243137 
1 0.298039 0.243137 1 0.298039 0.243137 
1 0.298039 0.243137 1 0.298039 0.243137 
1 0.298039 0.243137 
NORMALS Normals float
-0.0336462 -0.371039 -0.928007 0.00470851 -0.09985 -0.994991 -0.198815 0.157185 -0.96735 
0.178638 0.0500877 -0.982639 -0.434932 0.188773 -0.880454 -0.339849 -0.398039 -0.852096 
-0.497749 -0.123339 -0.858506 -0.772326 -0.0656027 -0.63183 -0.776113 0.211199 -0.594175 
-0.673345 0.383636 -0.632005 -0.399288 0.423508 -0.813148 -0.0575445 0.228119 -0.971931 
-0.0274319 0.243145 -0.969602 -0.356606 0.399926 -0.844329 -0.17101 0.338108 -0.925439 
-0.277319 0.573712 -0.77068 -0.316178 0.521289 -0.792647 0.0495848 0.348225 -0.936099 
0.138543 0.259308 -0.955806 0.330176 0.375725 -0.865918 -0.0974873 0.558195 -0.823963 
0.0179599 0.571561 -0.820363 0.0593803 0.629535 -0.7747 0.112769 0.660102 -0.742663 
-0.285146 -0.579944 -0.763123 0.149638 -0.614054 -0.774949 -0.584066 -0.495414 -0.642987 
0.238111 -0.35657 -0.903416 0.350095 -0.549816 -0.758377 -0.781686 -0.174832 -0.598666 
-0.911334 -0.192625 -0.363821 -0.618233 -0.319703 -0.718038 0.295652 -0.278156 -0.913903 
-0.901214 -0.0141208 -0.433143 0.386685 -0.0979236 -0.916998 -0.636357 0.653788 -0.409402 
-0.456155 0.72696 -0.513276 -0.19026 0.752406 -0.630624 -0.238948 -0.654115 -0.717661 
-0.641999 -0.42684 -0.636903 -0.930597 0.322916 -0.172378 0.524296 0.146293 -0.838875 
-0.815055 0.510405 -0.274176 -0.293933 0.808877 -0.509235 -0.428423 -0.699679 -0.571755 
0.0321675 -0.685758 -0.727118 -0.698445 0.714522 -0.040408 0.556755 0.604375 -0.569873 
-0.114597 0.873901 -0.472402 0.275992 0.810061 -0.517329 -0.630423 -0.569112 -0.5279 
-0.756402 -0.362401 -0.544538 -0.886809 -0.306584 -0.345798 0.47531 -0.409123 -0.778909 
-0.878219 0.428655 0.212099 0.58351 0.123115 -0.80272 -0.785367 0.618902 -0.0125994 
-0.663014 0.739093 -0.118969 -0.389303 0.892854 -0.226396 -0.187885 0.927708 -0.32258 
-0.0162005 0.974234 -0.224956 0.0597503 -0.788189 -0.612526 -0.883738 -0.332743 -0.329073 
-0.779102 -0.358309 -0.514408 -0.994234 -0.0678089 -0.0830666 0.524099 -0.112872 -0.844144 
0.688602 0.408289 -0.599273 -0.778947 0.612274 0.135506 -0.803298 0.58142 0.129082 
0.484443 0.808003 -0.33533 -0.727432 -0.450552 -0.517537 -0.911368 -0.337187 -0.236039 
-0.964755 -0.160958 -0.208182 -0.995314 0.0953362 0.0161582 -0.783158 0.572088 0.243677 
-0.740092 0.672113 0.022982 0.209594 0.959471 -0.188378 -0.623952 -0.642803 -0.444397 
-0.998976 -0.00886508 -0.0443684 -0.918326 0.189528 0.347501 -0.235597 0.960451 -0.148419 
-0.411418 0.904094 -0.115539 -0.904306 -0.398589 -0.152831 -0.986208 -0.0607424 0.153959 
0.783544 -0.17902 -0.594988 0.955783 -0.109 -0.273125 0.700721 0.39592 -0.593496 
-0.770342 0.551358 0.320278 0.297903 0.953867 0.0372958 -0.649212 0.759925 -0.0322108 
-0.507088 -0.813749 -0.284031 -0.898601 -0.438766 -0.000200097 -0.926943 -0.374856 0.016117 
-0.803908 0.486795 0.341706 0.558984 0.790327 -0.25084 -0.783163 0.55865 0.273067 
0.107791 0.988049 0.110179 0.21797 0.858575 0.464045 -0.38873 0.903948 0.178235 
-0.024152 0.947189 0.319766 -0.808749 0.340999 0.479212 0.940857 0.178248 -0.288124 
-0.470126 0.658103 0.588117 -0.257942 0.595749 0.760624 -0.0193642 0.632045 0.774689 
-0.18229 0.85044 0.49348 0.12477 0.854792 0.503749 -0.318021 -0.942404 -0.103623 
-0.788252 -0.594345 0.159413 -0.939908 -0.315926 0.129473 0.763658 -0.291726 -0.575953 
-0.644259 0.394348 0.655302 -0.526957 0.423613 0.736796 0.262291 0.900622 0.346531 
-0.270394 0.324374 0.906459 -0.18178 0.616597 0.766006 -0.0501316 0.810481 0.583616 
0.186791 0.894612 0.405929 0.151831 0.918529 0.365036 0.0462488 0.86861 0.493333 
0.401123 -0.702473 -0.587904 0.670199 -0.510211 -0.538997 -0.383006 0.311533 0.869629 
0.0278776 0.879869 0.474398 -0.156 0.700827 0.696065 0.38314 0.77696 0.499537 
0.319172 0.772562 0.548887 0.0965304 0.686758 0.720448 -0.063655 -0.918853 -0.389431 
-0.558261 -0.743363 0.368451 -0.414138 -0.804861 0.425075 -0.215112 -0.961867 0.168935 
-0.73191 -0.32828 0.597109 0.367318 -0.784211 -0.500091 -0.866958 -0.00435212 0.498361 
-0.64513 0.211086 0.734337 -0.312066 0.31379 0.896744 0.910303 -0.0530449 -0.41053 
-0.755105 0.226628 0.615189 0.0700934 0.654116 0.75314 -0.00162915 0.555354 0.831612 
0.194448 0.542656 0.817138 -0.272245 -0.919014 -0.285126 -0.250204 -0.963341 -0.0968086 
0.235576 -0.911285 -0.337734 -0.508927 -0.538902 0.671251 -0.366311 -0.691156 0.622993 
-0.200868 -0.979484 0.0162272 -0.546806 -0.415823 0.726701 -0.468096 -0.580194 0.666529 
0.479879 -0.833005 -0.275354 -0.674346 -0.381986 0.631937 -0.586446 -0.171389 0.791648 
-0.646923 -0.0177397 0.762349 -0.521884 -0.103146 0.846757 -0.440599 0.107034 0.8913 
0.795007 -0.506105 -0.334397 -0.343217 0.346732 0.872914 -0.214351 0.413383 0.884968 
0.522006 0.840932 -0.142629 -0.181211 0.459565 0.869461 -0.201552 0.611076 0.765482 
0.0308458 0.906106 0.421925 -0.00798987 -0.926764 0.375559 0.0886968 -0.995639 0.0289132 
-0.424436 -0.697072 0.57788 0.316302 -0.929764 -0.188394 0.399619 -0.905228 -0.144451 
-0.443586 -0.258747 0.858068 -0.434386 -0.231757 0.870401 -0.245231 0.251353 0.936314 
-0.332726 -0.767979 0.547267 -0.153864 -0.987482 0.0347115 0.0490209 -0.853704 0.518447 
0.214227 -0.894629 0.392104 0.23611 -0.943895 0.230898 0.35086 -0.481224 -0.803319 
-0.488006 -0.796451 0.357094 0.178308 -0.911896 0.369664 0.22803 -0.95997 -0.162662 
0.117553 -0.970681 0.209666 0.378995 -0.855091 0.35381 0.39109 -0.853972 0.343191 
0.307611 -0.908131 0.284031 0.392009 -0.883796 0.255408 0.559244 -0.801815 -0.210567 
-0.295107 -0.0752163 0.952499 0.727692 0.605496 -0.322241 0.625712 0.769907 -0.125412 
-0.225445 0.74334 0.629778 -0.0579192 -0.762527 0.644359 0.078235 -0.822639 0.563155 
-0.538626 -0.395577 0.743909 -0.0778581 -0.634481 0.769007 0.155442 -0.90114 0.404702 
0.202043 -0.8436 0.497511 -0.0439521 -0.609255 0.791755 -0.0721913 -0.436708 0.896702 
0.0631109 -0.598926 0.798313 -0.132088 -0.431392 0.892443 0.161448 -0.736357 0.657049 
0.543146 -0.795261 0.269355 0.64745 -0.742149 -0.173269 -0.351415 -0.0751671 0.933197 
-0.366906 0.258977 0.893482 0.840509 -0.464754 -0.278474 0.873702 0.480404 -0.0765252 
-0.283804 0.59473 0.752165 0.323048 0.941728 0.0937495 -0.333442 -0.397502 0.854873 
-0.139087 -0.277183 0.950697 -0.374254 0.0163371 0.927182 0.805535 -0.582954 -0.106196 
-0.362934 0.480843 0.798166 0.593921 0.801145 0.0736464 -0.21127 0.701816 0.680308 
-0.2284 -0.443967 0.866445 0.427973 -0.747173 0.508499 0.662434 -0.746699 0.0601794 
0.944268 -0.321318 -0.0715044 0.998491 0.0546972 -0.00491053 0.969563 0.147034 0.195775 
0.938369 0.337529 -0.0744177 0.557691 0.817159 0.145715 0.761714 0.631925 0.143044 
0.382636 0.914888 0.128723 0.170517 -0.837181 -0.519665 -0.650108 0.393343 -0.650108 
0.465829 0.606501 -0.644329 0.650108 -0.393343 0.650108 -0.170517 0.837181 0.519665 
-0.311482 -0.474673 0.823204 0.0565397 -0.656702 0.752028 0.268093 -0.662425 0.699513 
0.394512 -0.81147 0.431134 0.52556 -0.759517 0.383303 -0.451788 -0.282625 0.846174 
0.307092 -0.673919 0.671958 0.797373 -0.594445 0.104078 0.897765 -0.42954 0.0975349 
0.934651 -0.214822 0.283335 0.947215 -0.0775145 0.311086 0.842095 0.497393 0.208509 
0.328954 0.797987 0.504981 0.562423 0.700883 0.438684 -0.465829 -0.606501 0.644329 
-0.296983 0.515776 0.803602 0.168363 0.869245 0.464831 -0.0706957 -0.410724 0.909015 
-0.0447458 -0.517023 0.854801 0.474552 -0.64539 0.598558 0.868325 -0.374511 0.325196 
0.828701 0.259472 0.495912 0.601825 0.757666 0.252485 -0.02047 0.689314 0.724173 
0.119452 0.657127 0.744255 0.476736 0.78434 0.396905 0.265781 0.772182 0.577144 
-0.364931 0.063296 0.92888 -0.194755 -0.338631 0.920543 0.0201862 -0.441872 0.896851 
0.803494 -0.492668 0.33418 -0.125792 -0.261061 0.957091 -0.177949 0.0348007 0.983424 
0.840524 0.0314675 0.54086 -0.383853 0.195199 0.902527 -0.287546 0.350821 0.891203 
0.0882209 0.393046 0.915277 0.323611 0.657695 0.68023 0.61705 0.501523 0.606402 
0.373986 0.645327 0.666099 0.322564 0.717834 0.616982 0.139513 -0.576054 0.805418 
0.6053 -0.361749 0.709048 -0.0828695 -0.37987 0.921321 -0.165848 -0.365901 0.915757 
0.00186098 0.0739454 0.997261 0.175521 0.0468377 0.983361 0.115987 -0.0692305 0.990835 
0.457844 -0.150478 0.876205 0.698478 -0.0986904 0.708794 0.287145 0.0361721 0.957204 