# vtk DataFile Version 4.2
vtk output
ASCII
DATASET POLYDATA
POINTS 247 float
331.365 252.337 218.488 331.349 252.302 218.554 331.363 252.341 218.573 
331.397 252.28 218.517 331.411 252.319 218.535 334.306 248.969 218.117 
334.497 249.27 218.112 334.774 249.376 218.208 332.424 250.172 218.323 
333.354 250.465 218.206 334.233 250.303 218.25 332.628 250.899 218.394 
333.123 250.871 218.371 335.04 250.258 218.62 331.401 252.13 218.645 
331.292 252.289 218.816 331.529 252.185 218.625 333.474 251.215 218.644 
334.056 251.054 218.624 331.468 252.326 218.732 335.586 248.922 218.707 
335.358 250.094 218.871 331.792 251.703 218.714 331.127 251.877 218.936 
334.727 250.877 218.826 330.918 252.409 219.378 332.43 252.011 219.107 
331.779 252.201 218.903 334.433 251.145 218.931 336.797 242.536 220.326 
337.045 242.4 220.422 336.943 242.255 220.504 337.087 242.241 220.592 
336.373 243.046 220.115 336.844 242.942 220.158 337.071 242.691 220.333 
335.59 243.395 220.028 337.097 243.149 220.235 334.82 243.995 219.986 
337.054 244.438 220.036 337.361 244.821 220.393 332.874 247.626 218.859 
336.881 246.074 219.84 337.084 247.401 220.289 331.219 250.906 218.83 
335.632 250.187 219.38 336.148 249.676 219.843 330.161 252.092 219.58 
331.221 252.864 219.997 330.76 253.032 220.161 336.717 241.961 220.968 
336.954 242.088 220.774 335.395 243.104 220.328 337.354 242.521 220.929 
337.494 243.012 220.937 337.584 243.638 220.931 337.627 244.369 220.919 
337.575 246.026 220.901 334.553 251.636 220.172 328.017 253.967 221.73 
328.016 253.766 221.667 328.085 254.068 221.86 336.48 241.517 221.916 
336.269 241.571 221.764 336.104 241.788 221.442 336.956 241.912 221.296 
337.279 242.188 221.39 334.746 242.724 221.207 326.942 250.886 222.092 
327.915 251.592 221.161 327.154 252.982 222.148 328.468 253.238 221.351 
329.273 253.893 221.921 326.839 254.106 223.222 327.481 254.139 222.38 
328.014 254.318 222.311 327.668 254.426 222.502 327.49 254.472 222.699 
336.877 241.588 222.516 337.965 245.771 222.27 327.022 246.33 222.988 
328.507 246.502 221.819 328.012 245.975 222.348 326.634 247.735 223.014 
327.677 247.48 222.007 336.545 250.293 221.525 326.487 253.683 223.624 
336.187 241.356 222.829 337.507 242.309 222.714 327.447 243.12 224.624 
327.404 243.416 224.323 327.742 242.904 224.781 337.897 243.542 222.89 
326.98 244.354 224.048 331.539 244.116 222.077 337.87 247.573 223.162 
336.736 250.21 222.496 333.203 253.09 223.012 326.567 254.259 224.665 
328.432 254.86 223.789 326.971 254.584 224.197 336.995 241.636 224.18 
337.291 241.938 223.375 327.355 242.838 225.156 326.379 245.212 224.468 
336.789 250.158 224.274 325.87 252.427 224.766 329.37 254.797 224.223 
327.853 254.932 224.177 327.359 254.865 224.57 336.115 241.251 224.433 
335.564 241.235 225.025 327.977 242.469 225.514 338.043 244.8 225.625 
337.713 248.328 224.73 326.459 254.346 226.424 326.866 242.28 226.7 
327.12 242.13 226.68 335.704 241.195 225.812 328.493 242.19 226.467 
338.08 245.622 225.298 335.654 251.57 225.506 326.117 253.856 227.027 
327.313 254.98 226.304 326.739 242.213 227.178 327.245 242.048 226.817 
328.398 242.039 227.476 332.509 241.959 226.563 338.014 244.858 227.182 
325.404 249.947 227.1 326.452 254.384 228.301 327.833 255.13 226.746 
326.597 242.168 227.546 326.67 242.117 227.603 326.895 242.111 227.662 
327.328 255.005 228.21 326.617 242.259 227.683 336.546 241.457 228.348 
327.437 242.094 228.103 327.256 242.343 228.721 333.502 241.686 229.001 
337.874 243.576 228.859 326.195 253.925 229.8 326.507 254.4 230.124 
328.375 255.149 229.37 326.858 254.752 229.626 337.052 241.822 229.643 
327.975 242.6 229.996 330.606 242.493 230.209 337.609 242.319 231.075 
327.645 242.806 230.179 326.294 244.168 229.71 325.813 247.518 230.371 
337.42 248.944 232.656 336.795 241.586 232.168 327.193 243.748 231.208 
326.867 243.973 230.917 327.445 243.845 231.529 326.715 244.594 231.15 
329.043 243.513 231.916 337.575 248.326 233.321 326.442 252.978 232.453 
329.445 254.405 232.9 336.861 241.647 232.666 336.529 241.657 232.772 
336.996 241.785 232.861 337.259 242.067 232.772 328.306 244.057 232.144 
334.17 242.928 233.658 337.847 244.51 233.386 328.466 245.967 233.332 
337.416 248.43 234.1 337.135 249.072 234.305 336.484 250.254 234.051 
335.548 251.476 233.375 335.201 251.705 233.708 326.806 253.739 233.034 
330.774 253.877 233.463 326.925 254.427 232.999 328.288 254.385 233.254 
326.95 254.546 232.86 336.828 241.722 232.945 335.909 241.909 233.363 
336.322 241.905 233.404 336.869 242.005 233.33 337.266 242.308 233.291 
337.433 242.715 233.491 335.648 242.523 234.134 336.327 250.13 234.867 
327.507 252.29 233.957 327.92 252.829 234.252 333.825 252.2 234.853 
327.121 253.893 233.352 328.017 253.395 234.172 327.096 254.297 233.189 
327.948 253.811 233.897 328.686 254.021 233.848 327.054 254.5 233.027 
336.85 242.359 233.928 336.486 242.243 233.893 337.276 242.88 233.976 
335.809 242.886 234.544 337.339 243.432 234.2 337.242 246.617 235.121 
337.163 247.937 235.222 336.704 249 235.569 335.246 250.913 235.52 
329.083 252.536 235.128 331.56 252.725 235.353 328.262 253.925 233.928 
337.011 242.641 234.113 336.257 243.158 234.733 336.624 243.719 234.939 
337.036 243.592 234.623 335.32 245.31 236.042 335.137 245.765 236.266 
335.987 245.905 236.193 336.345 245.809 235.955 336.214 246.259 236.193 
333.309 246.965 236.404 336.897 246.621 235.666 336.333 249.356 235.819 
331.009 250.626 236.368 330.258 252.717 235.419 330.692 252.202 235.91 
331.597 252.25 235.981 329.416 252.998 235.141 335.018 247.119 236.708 
336.681 246.936 235.945 334.59 248.181 237.045 332.662 249.682 236.986 
331.441 251.742 236.345 331.816 251.011 236.762 334.68 250.509 236.52 
331.201 252.038 236.261 329.595 253.111 235.138 334.112 248.299 237.05 
333.394 249.305 237.097 335.103 248.736 236.943 334.162 249.991 236.992 
332.21 250.944 237.024 332.561 251.099 237.008 331.116 252.132 236.206 
332.389 250.789 237.109 332.412 250.986 237.079 331.441 251.742 236.345 
331.116 252.132 236.206 
POLYGONS 486 1944
3 0 1 2 
3 1 0 3 
3 0 2 4 
3 3 0 4 
3 8 6 5 
3 6 8 9 
3 6 13 7 
3 13 6 10 
3 10 6 9 
3 9 8 12 
3 12 8 11 
3 18 10 9 
3 13 10 18 
3 1 14 15 
3 2 1 15 
3 14 1 3 
3 14 3 16 
3 17 12 11 
3 9 12 17 
3 18 9 17 
3 2 15 19 
3 4 2 19 
3 16 3 4 
3 19 16 4 
3 5 41 8 
3 37 41 5 
3 5 20 43 
3 7 5 6 
3 20 5 7 
3 11 8 44 
3 20 7 13 
3 20 13 21 
3 22 44 23 
3 22 11 44 
3 24 13 18 
3 14 22 23 
3 14 23 15 
3 15 23 25 
3 11 22 26 
3 26 22 27 
3 14 16 22 
3 27 22 16 
3 11 26 17 
3 24 18 28 
3 15 25 19 
3 27 16 19 
3 29 30 31 
3 31 30 32 
3 29 33 34 
3 30 29 35 
3 35 29 34 
3 35 32 30 
3 33 36 37 
3 34 33 37 
3 35 34 37 
3 54 32 35 
3 37 54 35 
3 36 38 37 
3 39 56 37 
3 40 56 39 
3 37 38 41 
3 39 37 42 
3 42 37 5 
3 57 40 39 
3 42 57 39 
3 43 42 5 
3 20 45 46 
3 21 45 20 
3 46 43 20 
3 23 44 47 
3 45 21 13 
3 24 45 13 
3 25 23 47 
3 27 97 26 
3 97 17 26 
3 17 97 18 
3 25 47 49 
3 25 49 48 
3 25 48 19 
3 27 19 48 
3 29 31 50 
3 31 51 50 
3 51 31 32 
3 52 36 33 
3 52 33 67 
3 67 33 64 
3 50 33 29 
3 64 33 50 
3 36 67 38 
3 52 67 36 
3 32 54 53 
3 54 37 55 
3 37 56 55 
3 41 44 8 
3 45 24 46 
3 28 18 58 
3 18 97 58 
3 58 24 28 
3 48 97 27 
3 64 62 63 
3 64 65 62 
3 64 50 65 
3 50 51 65 
3 65 51 32 
3 66 65 32 
3 32 53 66 
3 53 54 66 
3 66 54 55 
3 56 40 79 
3 38 81 41 
3 40 57 79 
3 81 69 41 
3 57 42 43 
3 41 69 44 
3 46 96 43 
3 96 95 43 
3 44 69 47 
3 24 85 46 
3 85 96 46 
3 58 85 24 
3 70 69 68 
3 69 70 71 
3 69 71 47 
3 49 97 48 
3 60 70 73 
3 71 70 60 
3 49 71 72 
3 49 47 71 
3 72 71 61 
3 60 59 71 
3 61 71 59 
3 60 73 74 
3 59 60 74 
3 59 74 75 
3 59 75 61 
3 75 74 76 
3 74 73 77 
3 76 74 77 
3 87 63 62 
3 62 66 78 
3 65 66 62 
3 63 67 64 
3 66 55 88 
3 94 38 67 
3 88 55 92 
3 81 38 94 
3 55 56 92 
3 56 79 92 
3 83 81 82 
3 80 83 82 
3 94 82 81 
3 81 83 84 
3 69 81 84 
3 57 43 79 
3 79 43 95 
3 69 84 83 
3 68 69 83 
3 70 86 73 
3 72 75 99 
3 61 75 72 
3 72 99 49 
3 86 100 73 
3 76 77 75 
3 77 73 100 
3 87 62 78 
3 88 78 66 
3 89 90 91 
3 87 67 63 
3 127 67 87 
3 91 90 82 
3 127 94 67 
3 82 90 93 
3 94 91 82 
3 95 96 105 
3 68 83 70 
3 83 86 70 
3 85 58 96 
3 58 97 96 
3 49 99 97 
3 99 107 97 
3 86 98 100 
3 99 75 77 
3 87 110 127 
3 87 102 101 
3 78 102 87 
3 102 78 88 
3 103 89 91 
3 112 103 91 
3 91 94 112 
3 88 92 102 
3 90 89 93 
3 93 104 82 
3 92 79 95 
3 82 104 80 
3 80 104 83 
3 95 105 114 
3 83 106 86 
3 96 97 121 
3 106 98 86 
3 77 108 99 
3 107 99 108 
3 100 98 109 
3 108 77 100 
3 109 108 100 
3 87 137 110 
3 137 87 101 
3 110 111 127 
3 92 101 102 
3 103 132 89 
3 89 132 93 
3 93 132 104 
3 92 95 113 
3 120 113 95 
3 96 121 105 
3 121 114 105 
3 106 115 98 
3 98 115 123 
3 108 123 107 
3 98 123 109 
3 116 103 117 
3 127 111 118 
3 137 111 110 
3 118 111 137 
3 103 125 117 
3 103 112 125 
3 126 125 112 
3 137 101 146 
3 112 119 126 
3 94 119 112 
3 101 92 146 
3 92 113 146 
3 114 113 120 
3 95 114 120 
3 106 122 115 
3 97 107 144 
3 122 135 115 
3 107 123 131 
3 123 108 109 
3 117 125 116 
3 116 125 124 
3 103 116 132 
3 119 148 126 
3 94 127 119 
3 119 127 148 
3 132 152 104 
3 146 113 128 
3 113 114 128 
3 104 129 83 
3 129 106 83 
3 131 144 107 
3 122 130 135 
3 115 131 123 
3 124 133 132 
3 124 132 116 
3 133 124 134 
3 124 125 134 
3 118 140 127 
3 126 148 147 
3 146 128 141 
3 128 114 141 
3 104 152 129 
3 106 129 122 
3 129 130 122 
3 121 97 144 
3 135 144 131 
3 135 130 145 
3 135 131 115 
3 132 133 136 
3 134 136 133 
3 134 125 138 
3 136 134 138 
3 138 139 136 
3 126 147 139 
3 126 139 138 
3 126 138 125 
3 118 154 140 
3 140 148 127 
3 132 151 152 
3 141 114 169 
3 169 114 153 
3 129 142 130 
3 130 142 145 
3 142 143 145 
3 136 151 132 
3 139 147 136 
3 148 140 159 
3 153 114 121 
3 142 180 143 
3 144 145 180 
3 135 145 144 
3 143 180 145 
3 118 137 154 
3 154 137 146 
3 163 154 146 
3 149 163 146 
3 136 150 151 
3 147 150 136 
3 146 141 149 
3 147 157 150 
3 159 157 148 
3 148 157 147 
3 140 168 159 
3 149 141 169 
3 152 142 129 
3 121 175 174 
3 175 121 144 
3 150 156 151 
3 150 157 155 
3 182 140 154 
3 168 140 182 
3 151 156 152 
3 152 161 142 
3 161 178 142 
3 177 175 144 
3 142 178 180 
3 177 144 162 
3 144 180 162 
3 166 163 149 
3 150 155 156 
3 166 149 169 
3 156 158 152 
3 169 153 160 
3 173 160 153 
3 152 189 161 
3 121 174 153 
3 161 176 178 
3 154 163 164 
3 164 182 154 
3 163 166 165 
3 155 157 156 
3 185 166 169 
3 156 157 158 
3 157 159 167 
3 157 170 158 
3 167 170 157 
3 167 159 170 
3 214 159 168 
3 219 159 214 
3 219 170 159 
3 203 169 204 
3 169 160 204 
3 204 160 171 
3 171 160 173 
3 172 171 173 
3 153 174 173 
3 189 192 161 
3 161 192 176 
3 162 179 196 
3 162 196 177 
3 162 197 179 
3 180 197 162 
3 163 181 164 
3 163 165 181 
3 164 183 182 
3 164 184 183 
3 164 181 184 
3 165 184 181 
3 165 166 184 
3 166 185 184 
3 168 182 187 
3 199 187 182 
3 183 199 182 
3 185 169 186 
3 186 169 200 
3 158 170 222 
3 219 222 170 
3 222 189 158 
3 204 171 172 
3 205 204 172 
3 158 189 152 
3 173 191 188 
3 174 191 173 
3 188 172 173 
3 222 207 189 
3 191 174 175 
3 207 190 189 
3 189 195 192 
3 193 190 226 
3 193 195 190 
3 195 189 190 
3 207 226 190 
3 177 208 175 
3 192 194 178 
3 176 192 178 
3 195 194 192 
3 177 196 235 
3 194 197 178 
3 197 194 179 
3 195 179 194 
3 178 197 180 
3 184 198 199 
3 183 184 199 
3 185 198 184 
3 198 185 186 
3 200 198 186 
3 187 201 168 
3 200 169 202 
3 202 169 213 
3 213 169 203 
3 172 221 205 
3 221 172 188 
3 222 224 207 
3 206 188 191 
3 235 207 224 
3 191 208 225 
3 175 208 191 
3 191 225 233 
3 193 209 195 
3 196 193 235 
3 196 209 193 
3 226 235 193 
3 208 177 235 
3 195 209 179 
3 196 179 209 
3 198 210 199 
3 198 200 210 
3 201 187 211 
3 187 199 210 
3 187 210 211 
3 211 210 212 
3 200 202 212 
3 210 200 212 
3 201 214 168 
3 211 212 201 
3 212 214 201 
3 212 202 213 
3 212 217 214 
3 213 217 212 
3 214 216 215 
3 216 217 218 
3 216 214 217 
3 213 203 217 
3 220 218 217 
3 220 217 203 
3 220 203 228 
3 228 203 204 
3 228 204 205 
3 188 233 221 
3 191 233 206 
3 233 188 206 
3 224 223 235 
3 235 226 207 
3 235 223 208 
3 224 242 223 
3 225 208 242 
3 242 208 223 
3 215 227 219 
3 214 215 219 
3 215 216 218 
3 215 218 227 
3 219 227 236 
3 218 228 227 
3 218 220 228 
3 236 227 229 
3 238 229 227 
3 228 238 227 
3 219 236 222 
3 236 237 222 
3 205 238 228 
3 222 237 230 
3 233 238 205 
3 221 233 205 
3 222 231 224 
3 222 232 231 
3 222 230 232 
3 246 234 245 
3 231 242 224 
3 242 231 225 
3 246 234 245 
3 225 231 244 
3 232 244 231 
3 225 244 241 
3 229 238 236 
3 237 239 230 
3 236 239 237 
3 238 239 236 
3 230 239 243 
3 244 243 239 
3 238 233 239 
3 230 243 232 
3 243 240 232 
3 241 244 239 
3 233 241 239 
3 232 240 244 
3 233 225 241 
3 243 244 240 

POINT_DATA 247
COLOR_SCALARS scalars 3
1 0.298039 0.243137 1 0.298039 0.243137 1 0.298039 0.243137 
1 0.298039 0.243137 1 0.298039 0.243137 
1 0.298039 0.243137 1 0.298039 0.243137 
1 0.298039 0.243137 1 0.298039 0.243137 
1 0.298039 0.243137 1 0.298039 0.243137 
1 0.298039 0.243137 1 0.298039 0.243137 
1 0.298039 0.243137 1 0.298039 0.243137 
1 0.298039 0.243137 1 0.298039 0.243137 
1 0.298039 0.243137 1 0.298039 0.243137 
1 0.298039 0.243137 1 0.298039 0.243137 
1 0.298039 0.243137 1 0.298039 0.243137 
1 0.298039 0.243137 1 0.298039 0.243137 
1 0.298039 0.243137 1 0.298039 0.243137 
1 0.298039 0.243137 1 0.298039 0.243137 
1 0.298039 0.243137 1 0.298039 0.243137 
1 0.298039 0.243137 1 0.298039 0.243137 
1 0.298039 0.243137 1 0.298039 0.243137 
1 0.298039 0.243137 1 0.298039 0.243137 
1 0.298039 0.243137 1 0.298039 0.243137 
1 0.298039 0.243137 1 0.298039 0.243137 
1 0.298039 0.243137 1 0.298039 0.243137 
1 0.298039 0.243137 1 0.298039 0.243137 
1 0.298039 0.243137 1 0.298039 0.243137 
1 0.298039 0.243137 1 0.298039 0.243137 
1 0.298039 0.243137 1 0.298039 0.243137 
1 0.298039 0.243137 1 0.298039 0.243137 
1 0.298039 0.243137 1 0.298039 0.243137 
1 0.298039 0.243137 1 0.298039 0.243137 
1 0.298039 0.243137 1 0.298039 0.243137 
1 0.298039 0.243137 1 0.298039 0.243137 
1 0.298039 0.243137 1 0.298039 0.243137 
1 0.298039 0.243137 1 0.298039 0.243137 
1 0.298039 0.243137 1 0.298039 0.243137 
1 0.298039 0.243137 1 0.298039 0.243137 
1 0.298039 0.243137 1 0.298039 0.243137 
1 0.298039 0.243137 1 0.298039 0.243137 
1 0.298039 0.243137 1 0.298039 0.243137 
1 0.298039 0.243137 1 0.298039 0.243137 
1 0.298039 0.243137 1 0.298039 0.243137 
1 0.298039 0.243137 1 0.298039 0.243137 
1 0.298039 0.243137 1 0.298039 0.243137 
1 0.298039 0.243137 1 0.298039 0.243137 
1 0.298039 0.243137 1 0.298039 0.243137 
1 0.298039 0.243137 1 0.298039 0.243137 
1 0.298039 0.243137 1 0.298039 0.243137 
1 0.298039 0.243137 1 0.298039 0.243137 
1 0.298039 0.243137 1 0.298039 0.243137 
1 0.298039 0.243137 1 0.298039 0.243137 
1 0.298039 0.243137 1 0.298039 0.243137 
1 0.298039 0.243137 1 0.298039 0.243137 
1 0.298039 0.243137 1 0.298039 0.243137 
1 0.298039 0.243137 1 0.298039 0.243137 
1 0.298039 0.243137 1 0.298039 0.243137 
1 0.298039 0.243137 1 0.298039 0.243137 
1 0.298039 0.243137 1 0.298039 0.243137 
1 0.298039 0.243137 1 0.298039 0.243137 
1 0.298039 0.243137 1 0.298039 0.243137 
1 0.298039 0.243137 1 0.298039 0.243137 
1 0.298039 0.243137 1 0.298039 0.243137 
1 0.298039 0.243137 1 0.298039 0.243137 
1 0.298039 0.243137 1 0.298039 0.243137 
1 0.298039 0.243137 1 0.298039 0.243137 
1 0.298039 0.243137 1 0.298039 0.243137 
1 0.298039 0.243137 1 0.298039 0.243137 
1 0.298039 0.243137 1 0.298039 0.243137 
1 0.298039 0.243137 1 0.298039 0.243137 
1 0.298039 0.243137 1 0.298039 0.243137 
1 0.298039 0.243137 1 0.298039 0.243137 
1 0.298039 0.243137 1 0.298039 0.243137 
1 0.298039 0.243137 1 0.298039 0.243137 
1 0.298039 0.243137 1 0.298039 0.243137 
1 0.298039 0.243137 1 0.298039 0.243137 
1 0.298039 0.243137 1 0.298039 0.243137 
1 0.298039 0.243137 1 0.298039 0.243137 
1 0.298039 0.243137 1 0.298039 0.243137 
1 0.298039 0.243137 1 0.298039 0.243137 
1 0.298039 0.243137 1 0.298039 0.243137 
1 0.298039 0.243137 1 0.298039 0.243137 
1 0.298039 0.243137 1 0.298039 0.243137 
1 0.298039 0.243137 1 0.298039 0.243137 
1 0.298039 0.243137 1 0.298039 0.243137 
1 0.298039 0.243137 1 0.298039 0.243137 
1 0.298039 0.243137 1 0.298039 0.243137 
1 0.298039 0.243137 1 0.298039 0.243137 
1 0.298039 0.243137 1 0.298039 0.243137 
1 0.298039 0.243137 1 0.298039 0.243137 
1 0.298039 0.243137 1 0.298039 0.243137 
1 0.298039 0.243137 1 0.298039 0.243137 
1 0.298039 0.243137 1 0.298039 0.243137 
1 0.298039 0.243137 1 0.298039 0.243137 
1 0.298039 0.243137 1 0.298039 0.243137 
1 0.298039 0.243137 1 0.298039 0.243137 
1 0.298039 0.243137 1 0.298039 0.243137 
1 0.298039 0.243137 1 0.298039 0.243137 
1 0.298039 0.243137 1 0.298039 0.243137 
1 0.298039 0.243137 1 0.298039 0.243137 
1 0.298039 0.243137 1 0.298039 0.243137 
1 0.298039 0.243137 1 0.298039 0.243137 
1 0.298039 0.243137 1 0.298039 0.243137 
1 0.298039 0.243137 1 0.298039 0.243137 
1 0.298039 0.243137 1 0.298039 0.243137 
1 0.298039 0.243137 1 0.298039 0.243137 
1 0.298039 0.243137 1 0.298039 0.243137 
1 0.298039 0.243137 1 0.298039 0.243137 
1 0.298039 0.243137 1 0.298039 0.243137 
1 0.298039 0.243137 1 0.298039 0.243137 
1 0.298039 0.243137 1 0.298039 0.243137 
1 0.298039 0.243137 1 0.298039 0.243137 
1 0.298039 0.243137 1 0.298039 0.243137 
1 0.298039 0.243137 1 0.298039 0.243137 
1 0.298039 0.243137 1 0.298039 0.243137 
1 0.298039 0.243137 1 0.298039 0.243137 
1 0.298039 0.243137 1 0.298039 0.243137 
1 0.298039 0.243137 1 0.298039 0.243137 
1 0.298039 0.243137 1 0.298039 0.243137 
1 0.298039 0.243137 1 0.298039 0.243137 
1 0.298039 0.243137 1 0.298039 0.243137 
1 0.298039 0.243137 1 0.298039 0.243137 
1 0.298039 0.243137 1 0.298039 0.243137 
1 0.298039 0.243137 1 0.298039 0.243137 
1 0.298039 0.243137 1 0.298039 0.243137 
1 0.298039 0.243137 1 0.298039 0.243137 
1 0.298039 0.243137 1 0.298039 0.243137 

NORMALS Normals float
-0.308396 0.490644 -0.81496 -0.926898 -0.167437 -0.335895 -0.3263 0.943895 -0.0509069 
0.069555 -0.436231 -0.897142 0.680491 0.598113 -0.423311 0.249777 -0.208379 -0.945616 
0.152775 0.0840158 -0.984683 0.41371 0.00806622 -0.910373 -0.220453 0.0070639 -0.975372 
0.0353611 0.310934 -0.949773 0.258565 0.339693 -0.904297 -0.062545 0.363409 -0.929528 
-0.00881164 0.378788 -0.925442 0.516244 0.396735 -0.759008 -0.511081 -0.405075 -0.758097 
-0.811597 0.440968 -0.383221 0.582005 0.144299 -0.80028 0.189576 0.676431 -0.71169 
0.24102 0.696438 -0.675932 0.214153 0.927253 -0.307149 0.678966 0.0619674 -0.73155 
0.743441 0.355123 -0.566731 0.0434531 0.10193 -0.993842 -0.578868 0.0720501 -0.812232 
0.585979 0.712243 -0.386442 -0.418632 0.670137 -0.612915 0.315731 0.67047 -0.671404 
0.508463 0.681969 -0.525722 0.349427 0.807005 -0.476072 -0.0748714 -0.507586 -0.858342 
0.408208 -0.456656 -0.790463 0.0428081 -0.733114 -0.678757 0.702972 -0.559012 -0.439699 
-0.168494 -0.491979 -0.854147 0.214399 -0.205249 -0.954938 0.624 -0.270792 -0.733004 
-0.256354 -0.2677 -0.928773 0.39982 -0.10541 -0.910512 -0.285879 -0.447251 -0.84749 
0.632619 -0.0302368 -0.773873 0.862755 0.0338585 -0.504487 -0.353935 -0.313046 -0.881324 
0.554777 -0.00128333 -0.831998 0.858823 0.136133 -0.493853 -0.455224 -0.0296686 -0.889883 
0.756906 0.561217 -0.334856 0.873899 0.406353 -0.266792 -0.500688 0.366798 -0.784073 
0.174389 0.901963 -0.395033 -0.0633187 0.845803 -0.529724 -0.159834 -0.830589 -0.533456 
0.266933 -0.868688 -0.417286 -0.415465 -0.598872 -0.684647 0.901894 -0.347021 -0.257223 
0.927751 -0.203658 -0.312731 0.961078 -0.157094 -0.227268 0.917181 -0.0472361 -0.395661 
0.867881 0.0980862 -0.486992 0.461963 0.844197 -0.271886 -0.278612 0.61923 -0.734118 
-0.630151 0.197518 -0.75093 0.108309 0.753767 -0.648155 0.295738 -0.907936 -0.296972 
-0.239378 -0.901893 -0.359566 -0.138796 -0.831037 -0.538622 0.39233 -0.880458 -0.266215 
0.834643 -0.542295 -0.0963722 -0.480116 -0.723512 -0.496003 -0.850234 0.00974279 -0.526315 
-0.59981 -0.0287959 -0.799624 -0.792861 0.176434 -0.583303 -0.270084 0.477893 -0.835867 
0.0355232 0.82605 -0.562477 -0.781322 0.421142 -0.460625 -0.593919 0.472405 -0.651225 
-0.0287303 0.894421 -0.446303 -0.183883 0.826337 -0.53231 -0.305812 0.889417 -0.339729 
0.565063 -0.822307 -0.0671838 0.976537 0.070796 -0.203381 -0.679678 -0.294596 -0.671752 
-0.496433 -0.377629 -0.781633 -0.472811 -0.416298 -0.776624 -0.838535 -0.119962 -0.531476 
-0.60982 -0.249814 -0.752138 0.805956 0.536005 -0.251262 -0.894551 0.302509 -0.329039 
0.098282 -0.98971 -0.103996 0.897187 -0.435521 -0.0733312 -0.613463 -0.623848 -0.484228 
-0.375648 -0.615337 -0.693 -0.185264 -0.762776 -0.619556 0.98197 -0.189034 -0.00125141 
-0.757759 -0.413078 -0.505141 -0.264606 -0.769238 -0.581598 0.979551 0.172972 -0.102761 
0.839281 0.526011 -0.137548 0.387505 0.89045 -0.238618 -0.768799 0.631857 -0.0985183 
0.103661 0.939692 -0.325935 -0.611919 0.765833 -0.197625 0.695399 -0.71807 0.0282267 
0.76195 -0.64416 0.0670079 -0.505416 -0.733509 -0.454445 -0.891865 -0.255845 -0.372987 
0.872074 0.488842 0.0228107 -0.958766 0.21578 -0.184951 0.150801 0.981466 -0.118252 
-0.136789 0.978834 -0.15223 -0.452234 0.885859 -0.103625 0.0146924 -0.992306 -0.122936 
0.0412363 -0.988543 -0.1452 -0.0995935 -0.929576 -0.354922 0.994406 -0.0544121 0.0905294 
0.952745 0.2729 0.133427 -0.732787 0.680367 0.0111219 -0.568349 -0.777677 -0.268695 
-0.382065 -0.868522 -0.315746 0.0808783 -0.996555 -0.0183743 0.0244331 -0.981381 -0.19051 
0.978934 0.0920189 0.182267 0.690275 0.723096 0.0255332 -0.881338 0.472352 -0.0112875 
-0.345126 0.938501 -0.0102345 -0.268261 -0.942825 -0.19778 -0.217882 -0.959137 -0.18051 
0.0517499 -0.997138 0.0551108 -0.270971 -0.948927 -0.161591 0.993639 -0.112591 0.0024131 
-0.997634 0.055686 -0.0403294 -0.822534 0.568511 -0.015271 -0.239069 0.970932 0.0117068 
-0.835095 -0.538879 -0.110573 -0.399384 -0.885435 0.237692 -0.227317 -0.947385 0.225364 
-0.479492 0.877447 -0.0131785 -0.538769 -0.682082 0.494461 0.459155 -0.888184 -0.0174746 
-0.123151 -0.958535 0.256993 -0.258949 -0.87843 0.40163 -0.214278 -0.959206 0.184415 
0.983441 -0.177539 -0.0363809 -0.932384 0.353553 0.0752335 -0.780946 0.62435 0.0175829 
0.173082 0.983164 0.0585749 -0.568789 0.822244 0.0198481 0.809157 -0.585795 -0.0459385 
-0.267505 -0.85484 0.444622 -0.0666582 -0.967912 0.242286 0.873728 -0.486205 0.0142986 
-0.529076 -0.740288 0.414792 -0.824588 -0.461485 0.327241 -0.971758 -0.115635 0.205708 
0.916175 0.400734 0.00607454 0.128549 -0.990938 0.0389607 -0.637763 -0.575894 0.511473 
-0.821555 -0.415319 0.390586 -0.443419 -0.627483 0.640035 -0.7916 -0.214698 0.572079 
-0.255348 -0.732792 0.630725 0.971906 0.203426 0.118388 -0.897929 0.0246881 0.439448 
0.127989 0.950601 0.282802 0.502851 -0.857924 0.105389 -0.0680445 -0.95445 0.290509 
0.624053 -0.719162 0.305555 0.81352 -0.551339 0.184961 -0.294271 -0.559356 0.774936 
-0.369784 -0.742566 0.55844 0.982369 -0.0878461 0.165025 -0.497932 -0.354045 0.791654 
0.946586 0.298651 0.121586 0.870064 0.435562 0.230812 0.810434 0.568838 0.140071 
0.781769 0.558744 0.276844 0.517927 0.832052 0.198598 -0.793866 0.0230934 0.607654 
0.271281 0.904635 0.328697 -0.779497 0.36887 0.506279 -0.0724704 0.833659 0.547504 
-0.496262 0.841217 0.214659 0.2233 -0.875758 0.428 -0.245385 -0.902316 0.354419 
0.0829909 -0.878256 0.470934 0.376696 -0.789359 0.484781 0.814689 -0.532191 0.230334 
0.869448 -0.417045 0.264826 -0.0876907 -0.730175 0.67761 0.719777 0.603212 0.343592 
-0.713142 -0.00391801 0.701009 -0.652296 0.210102 0.728262 0.521855 0.733663 0.435208 
-0.655046 0.111988 0.747244 -0.38313 0.452773 0.805113 -0.367392 0.509555 0.77806 
-0.505233 0.458599 0.731045 0.0228917 0.780858 0.624289 -0.203595 0.815819 0.541284 
0.523435 -0.674738 0.520331 0.0759161 -0.752146 0.654609 0.777704 -0.397391 0.48709 
-0.170009 -0.549157 0.818244 0.691833 -0.443561 0.569755 0.855341 -0.0857658 0.510916 
0.918956 0.110862 0.378457 0.695767 0.151319 0.702147 0.597532 0.678862 0.426733 
-0.417452 0.123949 0.900206 0.172588 0.861059 0.478321 -0.1551 0.65324 0.741095 
0.340783 -0.581838 0.738466 0.0786708 -0.573878 0.815153 0.287291 -0.47826 0.829898 
0.673474 -0.349525 0.651357 -0.0632119 -0.533573 0.843389 0.0046297 -0.324075 0.94602 
0.271831 -0.343782 0.898845 0.558861 -0.338632 0.75697 0.433329 -0.171771 0.884715 
-0.302943 -0.406976 0.86174 0.7551 -0.161804 0.63533 0.700346 0.327113 0.634438 
-0.551553 -0.155119 0.81959 -0.0687236 0.669478 0.739646 -0.374982 0.280972 0.883427 
0.158374 0.706834 0.689422 -0.350228 0.280564 0.893658 0.15189 -0.232237 0.960727 
0.668175 0.00812242 0.743959 0.111138 -0.117455 0.98684 -0.363012 -0.285935 0.886828 
-0.328432 0.28205 0.901432 -0.498649 0.107992 0.860051 0.457786 0.475472 0.751238 
0.786422 0.577812 -0.218342 -0.0637442 0.625534 0.777589 -0.115039 -0.159888 0.980409 
-0.280676 -0.350722 0.893429 0.382296 0.0932717 0.919321 0.165338 0.172639 0.971009 
-0.430504 0.232829 0.872042 0.20245 0.555827 0.806269 -0.166736 0.525302 0.834421 
-0.274227 -0.0526797 0.960221 -0.141988 0.418859 0.896882 0.786422 0.577812 -0.218342 
0.786422 0.577812 -0.218342 
