# vtk DataFile Version 4.2
vtk output
ASCII
DATASET POLYDATA
POINTS 6156 float
56.7659 149.577 142.893 55.286 150.442 142.825 52.9945 150.959 142.935 
54.5388 142.675 143.625 59.5327 142.698 143.845 56.1299 145.247 143.272 
49.7675 147.487 143.486 51.9938 149.633 143.067 59.0406 153.275 143.176 
62.4998 152.675 143.72 48.7166 154.527 143.863 51.0202 156.682 143.716 
55.5817 157.473 143.537 58.5046 138.458 144.69 51.5924 139.683 144.421 
62.9074 141.112 144.758 48.0962 143.75 144.223 62.1723 145.153 143.94 
66.2471 146.404 144.958 64.7706 148.867 144.322 46.2279 151.058 144.335 
64.7989 154.929 144.357 63.7246 157.875 144.342 47.3327 159.127 144.924 
49.9435 161.884 144.842 63.0622 162.203 144.862 53.5065 163.459 144.689 
53.72 134.837 145.794 49.8593 135.944 145.836 58.9554 135.443 145.731 
47.3698 139.141 145.372 44.9305 140.544 145.815 65.6513 140.951 145.633 
43.6561 143.28 145.771 69.1528 153.674 145.793 43.8464 156.16 145.731 
45.3627 159.727 145.837 67.4689 160.829 145.727 58.1394 132.548 146.853 
62.9955 134.451 146.899 68.8903 143.965 146.386 41.3772 146.098 146.512 
70.7302 148.85 146.647 40.5431 151.374 146.865 44.0639 160.606 146.747 
49.7334 165.93 146.128 60.1608 169.156 146.052 55.8313 169.877 146.349 
65.7476 169.82 146.953 50.3999 131.398 147.752 56.7011 130.636 147.72 
46.3767 133.467 147.802 43.6252 136.083 147.798 68.2749 137.432 147.769 
42.2891 138.916 147.459 39.8155 142.551 147.917 71.7399 144.587 147.78 
71.7411 161.05 147.43 50.7302 171.196 147.925 53.3347 172.528 147.812 
61.0043 172.853 147.205 64.6544 172.469 147.419 51.1917 129.004 148.923 
56.7555 128.597 148.858 65.5274 131.48 149.016 66.2136 133.987 148.144 
67.7746 133.153 149.18 71.5688 139.317 149.052 74.0868 154.264 148.184 
75.1582 158.45 148.987 74.1813 163.477 148.997 72.5513 167.735 148.872 
47.0805 169.698 148.844 71.2238 170.696 148.903 63.6679 176.329 148.6 
57.9566 127.225 149.756 62.5682 129.125 149.352 44.2918 131.323 149.634 
37.875 141.099 149.549 36.2646 148.377 149.56 75.8939 148.338 149.842 
75.9437 152.055 149.462 37.2235 155.052 149.4 75.017 166.572 150.261 
52.7182 175.655 149.544 68.8116 176.888 149.655 70.1587 176.245 149.899 
61.1716 178.776 149.594 53.1112 126.056 150.539 48.3504 127.294 150.497 
65.7911 127.748 151.321 71.8164 134.742 151.102 35.5882 142.845 150.827 
77.1886 155.332 150.387 77.3941 159.994 151.006 76.675 161.107 150.47 
37.7337 161.959 150.992 42.1581 168.087 150.924 74.524 171.985 151.383 
73.3285 174.993 151.218 71.6653 175.941 150.449 50.5122 124.644 151.786 
39.5619 131.995 151.853 37.3482 135.938 151.713 75.0667 139.481 151.695 
76.9284 144.872 151.574 78.5246 150.649 152.096 79.068 155.806 152.544 
35.2003 158.628 151.661 78.1799 160.731 152.244 77.5166 163.87 152.583 
76.2139 168.219 152.538 47.147 175.094 151.532 74.0969 175.705 152.239 
73.5314 178.714 152.621 72.3838 180.091 152.094 70.0208 127.668 154.007 
72.1576 131.867 152.97 73.8021 133.909 153.326 77.7367 143.081 153.106 
32.3796 146.287 152.904 78.852 148.259 152.999 79.1991 154.085 152.733 
79.4644 153.333 153.239 79.7193 154.186 153.855 78.788 160.374 153.341 
75.4557 173.04 153.323 74.6096 175.031 152.685 74.4707 176.861 153.203 
74.4501 177.456 153.382 50.9266 181.224 153.065 72.3681 182.152 152.709 
70.0672 184.136 152.288 72.6434 183.524 153.336 50.5666 122.078 153.686 
54.343 122.008 153.438 59.661 121.684 154.029 62.4567 123.163 153.47 
44.1817 124.389 153.699 65.7602 124.656 153.633 76.856 140.066 153.307 
30.8318 149.383 153.944 79.8759 153.349 154.446 79.4135 158.58 154.157 
75.7838 172.936 154.414 74.449 179.898 154.225 73.2346 184.457 154.145 
72.6784 185.222 153.918 70.1314 189.119 153.922 47.2151 121.518 154.801 
63.076 120.929 155.599 39.7134 125.951 155.006 79.1482 142.604 155.525 
80.0464 150.525 155.396 30.0647 153.526 154.695 79.99 154.635 155.348 
77.9285 164.172 155.404 35.3688 168.034 155.06 75.3011 177.322 155.453 
51.0714 183.117 153.996 74.4461 182.792 155.183 73.6061 187.882 155.691 
71.7847 190.393 155.087 72.9252 129.331 155.527 33.3854 133.868 155.831 
77.3847 136.903 155.807 79.8299 146.096 155.622 30.7807 162.11 155.844 
78.7767 161.567 155.407 77.4373 165.611 155.892 75.2904 180.312 156.503 
74.4093 186.706 156.391 67.2056 196.503 155.911 43.0659 120.765 156.891 
69.5393 123.737 157.135 37.3174 125.054 157.334 30.9538 136.228 157.114 
80.1088 144.701 157.25 79.9538 154.187 156.903 79.5762 158.133 157.042 
76.6676 168.06 156.902 50.741 187.105 155.9 73.3792 191.75 156.809 
73.0839 193.407 157.084 71.1357 194.438 156.2 71.8407 194.308 156.501 
69.0045 196.848 156.296 62.5193 199.723 157.031 67.9845 199.391 156.978 
60.9778 117.952 157.913 69.9412 123.322 157.956 34.1174 129.177 157.534 
75.8579 132.025 157.185 79.5596 139.93 158.31 27.7274 142.398 157.962 
80.0532 150.11 157.924 79.8904 152.321 157.815 79.4521 157.183 157.884 
75.0836 189.049 158.843 74.4537 191.779 158.294 74.6381 192.114 158.776 
72.7565 195.472 157.548 73.9681 194.862 158.652 69.2784 201.088 157.874 
50.2069 116.94 158.376 44.0797 117.901 158.957 65.7218 119.11 158.864 
39.3321 121.019 158.806 68.412 120.845 159.049 71.6827 124.5 158.697 
75.0563 128.643 159.045 77.4239 133.043 158.845 80.1059 142.067 158.926 
80.0817 148.118 158.857 25.3905 148.854 158.736 79.9476 149.201 158.822 
26.0782 156.765 158.356 77.9783 162.189 159.034 43.7476 185.195 158.268 
74.6281 195.125 159.862 72.8472 200.122 159.338 58.9799 200.859 157.922 
72.5495 200.669 159.294 65.517 204.164 158.363 61.957 205.442 158.756 
48.8354 115.549 159.981 54.8262 115.323 159.928 59.0364 115.879 159.802 
77.2201 131.425 160.059 77.9139 133.062 159.973 78.9095 135.604 160.186 
79.0692 151.386 159.906 28.9821 168.297 159.392 31.2681 171.766 159.501 
33.9454 174.981 159.501 75.5624 185.822 160.13 74.6461 197.189 160.726 
73.3102 201.923 160.491 53.364 203.736 159.644 71.9882 203.742 160.1 
66.2156 207.983 159.801 39.5108 118.435 160.992 37.2716 120.347 161.061 
35.0644 122.728 161.199 29.2798 132.389 160.753 79.8928 138.939 160.888 
25.865 139.249 160.974 23.9803 144.296 161.03 77.1623 149.33 162.075 
79.219 149.038 160.502 78.965 148.689 160.979 23.1699 154.799 160.736 
78.2328 157.444 160.714 74.5011 198.982 161.157 74.6145 200.194 161.869 
49.2977 203.352 160.644 71.4783 205.985 160.697 50.4615 207.59 160.803 
53.9229 211.749 160.714 58.2395 213.203 160.767 43.17 115.341 161.975 
62.0351 114.997 161.965 68.8437 119.276 161.436 70.9654 121.177 161.784 
31.4528 126.619 162.194 77.0106 129.523 161.808 79.6721 137.334 161.974 
80.0466 142.375 161.584 79.7469 145.395 161.44 76.3543 146.865 162.878 
77.567 146.492 162.732 75.7742 147.761 163.007 76.9817 147.709 162.462 
78.7889 147.805 161.539 75.9268 148.61 162.963 21.792 153.018 162.101 
77.1512 152.855 162.463 22.7678 160.047 161.79 76.05 167.951 161.727 
75.8848 169.381 161.877 75.7287 173.681 161.268 75.4618 191.867 162.123 
75.0739 199.19 162.841 47.815 202.943 161.131 73.4014 206.813 162.582 
52.515 215.809 161.896 57.8909 112.85 163.383 40.7424 115.81 162.924 
65.6157 115.605 163.506 79.064 134.492 162.288 79.7299 137.545 163.089 
72.6979 141.075 164.798 23.0712 140.863 163.58 73.1293 142.427 164.36 
73.5013 141.886 164.478 73.6453 142.438 164.302 72.7385 142.846 164.454 
74.0862 142.545 164.301 74.2551 143.106 164.135 79.7394 143.609 162.28 
73.6154 143.888 164.096 75.1471 143.345 164.211 79.1418 145.646 162.433 
78.1274 146.634 162.483 79.0716 146.844 161.748 74.7736 147.293 163.616 
21.0128 150.134 163.447 76.5807 165.688 162.614 24.7515 169.919 163.028 
75.2609 197.691 163.293 45.1139 203.336 162.523 74.5438 203.886 163.253 
74.6704 204.269 163.73 47.7253 209.967 161.998 46.6143 213.474 162.863 
70.2757 212.566 162.835 49.0306 215.001 162.387 61.6196 216.749 162.233 
64.362 216.762 162.788 48.6627 217.957 163.14 47.2144 112.841 163.462 
70.6888 119.509 163.757 73.9274 123.564 163.6 79.6591 137.813 163.596 
79.6955 138.708 163.483 71.7257 139.821 165.304 71.3853 139.327 165.565 
71.7695 139.31 165.488 72.0749 139.837 165.244 72.5782 140.212 165.138 
72.0814 141.047 164.954 74.2781 141.618 164.916 79.5068 142.86 163.06 
79.2668 144.654 162.769 73.2953 145.055 164.387 76.6936 143.907 164.233 
78.8245 145.008 163.125 74.353 147.466 164.117 77.3307 159.267 164.523 
77.4634 161.03 164.166 21.4153 164.352 163.963 75.8406 171.324 163.458 
75.6139 185.728 163.355 75.4026 193.263 163.86 74.7131 206.217 164.603 
74.3711 207.591 164.315 44.6984 214.491 163.801 52.639 220.632 163.461 
56.3639 221.37 163.701 53.1986 111.689 164.341 34.9723 118.929 165.163 
28.9047 126.966 165.382 78.9898 133.872 164.627 70.4441 137.056 166.58 
71.4553 137.922 166.148 72.0388 138.06 166.172 72.145 137.686 166.436 
72.6084 138.701 166.008 79.2096 138.366 164.87 70.884 139.12 165.866 
70.4967 139.921 166.119 71.3996 141.419 165.409 78.9436 141.457 164.534 
21.8793 141.127 165.321 78.7866 142.395 164.337 76.1995 142.435 165.341 
78.6344 143.063 164.2 76.6738 142.924 165.018 77.0727 143.334 164.686 
21.2284 144.3 164.91 78.6421 144.562 163.441 74.4962 148.871 164.773 
20.0365 151.501 164.77 20.0165 158.537 164.552 77.3805 160.158 165.077 
76.3606 168.485 165.294 22.6652 170.948 164.984 39.3201 193.134 164.623 
75.2452 199.014 164.915 75.0795 203.569 165.322 74.5277 209.418 165.256 
73.5852 214.432 165.48 42.9795 217.901 165.22 64.3865 220.894 164.755 
62.5101 221.727 164.697 56.2 110.55 166.371 60.3323 111.766 165.866 
39.3407 114.487 165.737 31.0149 123.172 166.148 77.5358 128.235 165.949 
27.1319 129.529 165.649 78.4057 131.251 166.072 24.8153 133.162 166.124 
70.0563 135.988 167.088 69.6475 135.939 167.302 70.0345 135.657 167.264 
70.5642 135.906 167.112 71.1438 135.963 167.235 70.5466 136.4 166.846 
71.3604 136.579 166.864 72.1957 137.319 166.757 78.8925 137.7 165.567 
78.8108 139.603 165.381 78.3435 140.43 165.705 71.3029 141.922 165.581 
78.6307 140.921 165.178 77.9417 141.989 165.323 77.6895 142.57 165.122 
76.8218 142.417 165.541 77.6495 143.135 164.72 73.6104 147.356 165.085 
[...]
POINT_DATA 6156
COLOR_SCALARS scalars 3
0.603922 0.823529 0.741176 0.603922 0.823529 0.741176 0.603922 0.823529 0.741176 
0.603922 0.823529 0.741176 0.603922 0.823529 0.741176 
0.603922 0.823529 0.741176 0.603922 0.823529 0.741176 
0.603922 0.823529 0.741176 0.603922 0.823529 0.741176 
0.603922 0.823529 0.741176 0.603922 0.823529 0.741176 
0.603922 0.823529 0.741176 0.603922 0.823529 0.741176 
0.603922 0.823529 0.741176 0.603922 0.823529 0.741176 
0.603922 0.823529 0.741176 0.603922 0.823529 0.741176 
0.603922 0.823529 0.741176 0.603922 0.823529 0.741176 
0.603922 0.823529 0.741176 0.603922 0.823529 0.741176 
0.603922 0.823529 0.741176 0.603922 0.823529 0.741176 
0.603922 0.823529 0.741176 0.603922 0.823529 0.741176 
0.603922 0.823529 0.741176 0.603922 0.823529 0.741176 
0.603922 0.823529 0.741176 0.603922 0.823529 0.741176 
0.603922 0.823529 0.741176 0.603922 0.823529 0.741176 
0.603922 0.823529 0.741176 0.603922 0.823529 0.741176 
0.603922 0.823529 0.741176 0.603922 0.823529 0.741176 
0.603922 0.823529 0.741176 0.603922 0.823529 0.741176 
0.603922 0.823529 0.741176 0.603922 0.823529 0.741176 
0.603922 0.823529 0.741176 0.603922 0.823529 0.741176 
0.603922 0.823529 0.741176 0.603922 0.823529 0.741176 
0.603922 0.823529 0.741176 0.603922 0.823529 0.741176 
0.603922 0.823529 0.741176 0.603922 0.823529 0.741176 
0.603922 0.823529 0.741176 0.603922 0.823529 0.741176 
0.603922 0.823529 0.741176 0.603922 0.823529 0.741176 
0.603922 0.823529 0.741176 0.603922 0.823529 0.741176 
0.603922 0.823529 0.741176 0.603922 0.823529 0.741176 
0.603922 0.823529 0.741176 0.603922 0.823529 0.741176 
0.603922 0.823529 0.741176 0.603922 0.823529 0.741176 
0.603922 0.823529 0.741176 0.603922 0.823529 0.741176 
0.603922 0.823529 0.741176 0.603922 0.823529 0.741176 
0.603922 0.823529 0.741176 0.603922 0.823529 0.741176 
0.603922 0.823529 0.741176 0.603922 0.823529 0.741176 
0.603922 0.823529 0.741176 0.603922 0.823529 0.741176 
0.603922 0.823529 0.741176 0.603922 0.823529 0.741176 
0.603922 0.823529 0.741176 0.603922 0.823529 0.741176 
0.603922 0.823529 0.741176 0.603922 0.823529 0.741176 
0.603922 0.823529 0.741176 0.603922 0.823529 0.741176 
0.603922 0.823529 0.741176 0.603922 0.823529 0.741176 
0.603922 0.823529 0.741176 0.603922 0.823529 0.741176 
0.603922 0.823529 0.741176 0.603922 0.823529 0.741176 
0.603922 0.823529 0.741176 0.603922 0.823529 0.741176 
0.603922 0.823529 0.741176 0.603922 0.823529 0.741176 
0.603922 0.823529 0.741176 0.603922 0.823529 0.741176 
0.603922 0.823529 0.741176 0.603922 0.823529 0.741176 
0.603922 0.823529 0.741176 0.603922 0.823529 0.741176 
0.603922 0.823529 0.741176 0.603922 0.823529 0.741176 
0.603922 0.823529 0.741176 0.603922 0.823529 0.741176 
0.603922 0.823529 0.741176 0.603922 0.823529 0.741176 
0.603922 0.823529 0.741176 0.603922 0.823529 0.741176 
0.603922 0.823529 0.741176 0.603922 0.823529 0.741176 
0.603922 0.823529 0.741176 0.603922 0.823529 0.741176 
0.603922 0.823529 0.741176 0.603922 0.823529 0.741176 
0.603922 0.823529 0.741176 0.603922 0.823529 0.741176 
0.603922 0.823529 0.741176 0.603922 0.823529 0.741176 
0.603922 0.823529 0.741176 0.603922 0.823529 0.741176 
0.603922 0.823529 0.741176 0.603922 0.823529 0.741176 
0.603922 0.823529 0.741176 0.603922 0.823529 0.741176 
0.603922 0.823529 0.741176 0.603922 0.823529 0.741176 
0.603922 0.823529 0.741176 0.603922 0.823529 0.741176 
0.603922 0.823529 0.741176 0.603922 0.823529 0.741176 
0.603922 0.823529 0.741176 0.603922 0.823529 0.741176 
0.603922 0.823529 0.741176 0.603922 0.823529 0.741176 
0.603922 0.823529 0.741176 0.603922 0.823529 0.741176 
0.603922 0.823529 0.741176 0.603922 0.823529 0.741176 
0.603922 0.823529 0.741176 0.603922 0.823529 0.741176 
0.603922 0.823529 0.741176 0.603922 0.823529 0.741176 
0.603922 0.823529 0.741176 0.603922 0.823529 0.741176 
0.603922 0.823529 0.741176 0.603922 0.823529 0.741176 
0.603922 0.823529 0.741176 0.603922 0.823529 0.741176 
0.603922 0.823529 0.741176 0.603922 0.823529 0.741176 
0.603922 0.823529 0.741176 0.603922 0.823529 0.741176 
0.603922 0.823529 0.741176 0.603922 0.823529 0.741176 
0.603922 0.823529 0.741176 0.603922 0.823529 0.741176 
0.603922 0.823529 0.741176 0.603922 0.823529 0.741176 
0.603922 0.823529 0.741176 0.603922 0.823529 0.741176 
0.603922 0.823529 0.741176 0.603922 0.823529 0.741176 
0.603922 0.823529 0.741176 0.603922 0.823529 0.741176 
0.603922 0.823529 0.741176 0.603922 0.823529 0.741176 
0.603922 0.823529 0.741176 0.603922 0.823529 0.741176 
0.603922 0.823529 0.741176 0.603922 0.823529 0.741176 
0.603922 0.823529 0.741176 0.603922 0.823529 0.741176 
0.603922 0.823529 0.741176 0.603922 0.823529 0.741176 
0.603922 0.823529 0.741176 0.603922 0.823529 0.741176 
0.603922 0.823529 0.741176 0.603922 0.823529 0.741176 
0.603922 0.823529 0.741176 0.603922 0.823529 0.741176 
0.603922 0.823529 0.741176 0.603922 0.823529 0.741176 
0.603922 0.823529 0.741176 0.603922 0.823529 0.741176 
0.603922 0.823529 0.741176 0.603922 0.823529 0.741176 
0.603922 0.823529 0.741176 0.603922 0.823529 0.741176 
0.603922 0.823529 0.741176 0.603922 0.823529 0.741176 
0.603922 0.823529 0.741176 0.603922 0.823529 0.741176 
0.603922 0.823529 0.741176 0.603922 0.823529 0.741176 
0.603922 0.823529 0.741176 0.603922 0.823529 0.741176 
0.603922 0.823529 0.741176 0.603922 0.823529 0.741176 
0.603922 0.823529 0.741176 0.603922 0.823529 0.741176 
0.603922 0.823529 0.741176 0.603922 0.823529 0.741176 
0.603922 0.823529 0.741176 0.603922 0.823529 0.741176 
0.603922 0.823529 0.741176 0.603922 0.823529 0.741176 
0.603922 0.823529 0.741176 0.603922 0.823529 0.741176 
0.603922 0.823529 0.741176 0.603922 0.823529 0.741176 
0.603922 0.823529 0.741176 0.603922 0.823529 0.741176 
0.603922 0.823529 0.741176 0.603922 0.823529 0.741176 
0.603922 0.823529 0.741176 0.603922 0.823529 0.741176 
0.603922 0.823529 0.741176 0.603922 0.823529 0.741176 
0.603922 0.823529 0.741176 0.603922 0.823529 0.741176 
0.603922 0.823529 0.741176 0.603922 0.823529 0.741176 
0.603922 0.823529 0.741176 0.603922 0.823529 0.741176 
0.603922 0.823529 0.741176 0.603922 0.823529 0.741176 
0.603922 0.823529 0.741176 0.603922 0.823529 0.741176 
0.603922 0.823529 0.741176 0.603922 0.823529 0.741176 
0.603922 0.823529 0.741176 0.603922 0.823529 0.741176 
0.603922 0.823529 0.741176 0.603922 0.823529 0.741176 
0.603922 0.823529 0.741176 0.603922 0.823529 0.741176 
0.603922 0.823529 0.741176 0.603922 0.823529 0.741176 
0.603922 0.823529 0.741176 0.603922 0.823529 0.741176 
0.603922 0.823529 0.741176 0.603922 0.823529 0.741176 
0.603922 0.823529 0.741176 0.603922 0.823529 0.741176 
0.603922 0.823529 0.741176 0.603922 0.823529 0.741176 
0.603922 0.823529 0.741176 0.603922 0.823529 0.741176 
0.603922 0.823529 0.741176 0.603922 0.823529 0.741176 
0.603922 0.823529 0.741176 0.603922 0.823529 0.741176 
0.603922 0.823529 0.741176 0.603922 0.823529 0.741176 
0.603922 0.823529 0.741176 0.603922 0.823529 0.741176 
0.603922 0.823529 0.741176 0.603922 0.823529 0.741176 
0.603922 0.823529 0.741176 0.603922 0.823529 0.741176 
0.603922 0.823529 0.741176 0.603922 0.823529 0.741176 
0.603922 0.823529 0.741176 0.603922 0.823529 0.741176 
0.603922 0.823529 0.741176 0.603922 0.823529 0.741176 
0.603922 0.823529 0.741176 0.603922 0.823529 0.741176 
0.603922 0.823529 0.741176 0.603922 0.823529 0.741176 
0.603922 0.823529 0.741176 0.603922 0.823529 0.741176 
0.603922 0.823529 0.741176 0.603922 0.823529 0.741176 
0.603922 0.823529 0.741176 0.603922 0.823529 0.741176 
0.603922 0.823529 0.741176 0.603922 0.823529 0.741176 
0.603922 0.823529 0.741176 0.603922 0.823529 0.741176 
0.603922 0.823529 0.741176 0.603922 0.823529 0.741176 
0.603922 0.823529 0.741176 0.603922 0.823529 0.741176 
0.603922 0.823529 0.741176 0.603922 0.823529 0.741176 
0.603922 0.823529 0.741176 0.603922 0.823529 0.741176 
0.603922 0.823529 0.741176 0.603922 0.823529 0.741176 
0.603922 0.823529 0.741176 0.603922 0.823529 0.741176 
0.603922 0.823529 0.741176 0.603922 0.823529 0.741176 
0.603922 0.823529 0.741176 0.603922 0.823529 0.741176 
0.603922 0.823529 0.741176 0.603922 0.823529 0.741176 
0.603922 0.823529 0.741176 0.603922 0.823529 0.741176 
0.603922 0.823529 0.741176 0.603922 0.823529 0.741176 
0.603922 0.823529 0.741176 0.603922 0.823529 0.741176 
0.603922 0.823529 0.741176 0.603922 0.823529 0.741176 
0.603922 0.823529 0.741176 0.603922 0.823529 0.741176 
0.603922 0.823529 0.741176 0.603922 0.823529 0.741176 
0.603922 0.823529 0.741176 0.603922 0.823529 0.741176 
0.603922 0.823529 0.741176 0.603922 0.823529 0.741176 
0.603922 0.823529 0.741176 0.603922 0.823529 0.741176 
0.603922 0.823529 0.741176 0.603922 0.823529 0.741176 
0.603922 0.823529 0.741176 0.603922 0.823529 0.741176 
0.603922 0.823529 0.741176 0.603922 0.823529 0.741176 
0.603922 0.823529 0.741176 0.603922 0.823529 0.741176 
0.603922 0.823529 0.741176 0.603922 0.823529 0.741176 
0.603922 0.823529 0.741176 0.603922 0.823529 0.741176 
0.603922 0.823529 0.741176 0.603922 0.823529 0.741176 
0.603922 0.823529 0.741176 0.603922 0.823529 0.741176 
0.603922 0.823529 0.741176 0.603922 0.823529 0.741176 
0.603922 0.823529 0.741176 0.603922 0.823529 0.741176 
0.603922 0.823529 0.741176 0.603922 0.823529 0.741176 
0.603922 0.823529 0.741176 0.603922 0.823529 0.741176 
0.603922 0.823529 0.741176 0.603922 0.823529 0.741176 
0.603922 0.823529 0.741176 0.603922 0.823529 0.741176 
0.603922 0.823529 0.741176 0.603922 0.823529 0.741176 
0.603922 0.823529 0.741176 0.603922 0.823529 0.741176 
0.603922 0.823529 0.741176 0.603922 0.823529 0.741176 
0.603922 0.823529 0.741176 0.603922 0.823529 0.741176 
0.603922 0.823529 0.741176 0.603922 0.823529 0.741176 
0.603922 0.823529 0.741176 0.603922 0.823529 0.741176 
0.603922 0.823529 0.741176 0.603922 0.823529 0.741176 
0.603922 0.823529 0.741176 0.603922 0.823529 0.741176 
0.603922 0.823529 0.741176 0.603922 0.823529 0.741176 
0.603922 0.823529 0.741176 0.603922 0.823529 0.741176 
0.603922 0.823529 0.741176 0.603922 0.823529 0.741176 
0.603922 0.823529 0.741176 0.603922 0.823529 0.741176 
0.603922 0.823529 0.741176 0.603922 0.823529 0.741176 
0.603922 0.823529 0.741176 0.603922 0.823529 0.741176 
0.603922 0.823529 0.741176 0.603922 0.823529 0.741176 
0.603922 0.823529 0.741176 0.603922 0.823529 0.741176 
0.603922 0.823529 0.741176 0.603922 0.823529 0.741176 
0.603922 0.823529 0.741176 0.603922 0.823529 0.741176 
0.603922 0.823529 0.741176 0.603922 0.823529 0.741176 
0.603922 0.823529 0.741176 0.603922 0.823529 0.741176 
0.603922 0.823529 0.741176 0.603922 0.823529 0.741176 
0.603922 0.823529 0.741176 0.603922 0.823529 0.741176 
0.603922 0.823529 0.741176 0.603922 0.823529 0.741176 
0.603922 0.823529 0.741176 0.603922 0.823529 0.741176 
0.603922 0.823529 0.741176 0.603922 0.823529 0.741176 
0.603922 0.823529 0.741176 0.603922 0.823529 0.741176 
0.603922 0.823529 0.741176 0.603922 0.823529 0.741176 
0.603922 0.823529 0.741176 0.603922 0.823529 0.741176 
0.603922 0.823529 0.741176 0.603922 0.823529 0.741176 
0.603922 0.823529 0.741176 0.603922 0.823529 0.741176 
0.603922 0.823529 0.741176 0.603922 0.823529 0.741176 
0.603922 0.823529 0.741176 0.603922 0.823529 0.741176 
0.603922 0.823529 0.741176 0.603922 0.823529 0.741176 
0.603922 0.823529 0.741176 0.603922 0.823529 0.741176 
0.603922 0.823529 0.741176 0.603922 0.823529 0.741176 
0.603922 0.823529 0.741176 0.603922 0.823529 0.741176 
0.603922 0.823529 0.741176 0.603922 0.823529 0.741176 
0.603922 0.823529 0.741176 0.603922 0.823529 0.741176 
0.603922 0.823529 0.741176 0.603922 0.823529 0.741176 
0.603922 0.823529 0.741176 0.603922 0.823529 0.741176 
0.603922 0.823529 0.741176 0.603922 0.823529 0.741176 
0.603922 0.823529 0.741176 0.603922 0.823529 0.741176 
0.603922 0.823529 0.741176 0.603922 0.823529 0.741176 
0.603922 0.823529 0.741176 0.603922 0.823529 0.741176 
0.603922 0.823529 0.741176 0.603922 0.823529 0.741176 
0.603922 0.823529 0.741176 0.603922 0.823529 0.741176 
0.603922 0.823529 0.741176 0.603922 0.823529 0.741176 
0.603922 0.823529 0.741176 0.603922 0.823529 0.741176 
0.603922 0.823529 0.741176 0.603922 0.823529 0.741176 
0.603922 0.823529 0.741176 0.603922 0.823529 0.741176 
0.603922 0.823529 0.741176 0.603922 0.823529 0.741176 
0.603922 0.823529 0.741176 0.603922 0.823529 0.741176 
0.603922 0.823529 0.741176 0.603922 0.823529 0.741176 
0.603922 0.823529 0.741176 0.603922 0.823529 0.741176 
0.603922 0.823529 0.741176 0.603922 0.823529 0.741176 
0.603922 0.823529 0.741176 0.603922 0.823529 0.741176 
0.603922 0.823529 0.741176 0.603922 0.823529 0.741176 
0.603922 0.823529 0.741176 0.603922 0.823529 0.741176 
0.603922 0.823529 0.741176 0.603922 0.823529 0.741176 
0.603922 0.823529 0.741176 0.603922 0.823529 0.741176 
0.603922 0.823529 0.741176 0.603922 0.823529 0.741176 
0.603922 0.823529 0.741176 0.603922 0.823529 0.741176 
0.603922 0.823529 0.741176 0.603922 0.823529 0.741176 
0.603922 0.823529 0.741176 0.603922 0.823529 0.741176 
0.603922 0.823529 0.741176 0.603922 0.823529 0.741176 
0.603922 0.823529 0.741176 0.603922 0.823529 0.741176 
0.603922 0.823529 0.741176 0.603922 0.823529 0.741176 
0.603922 0.823529 0.741176 0.603922 0.823529 0.741176 
0.603922 0.823529 0.741176 0.603922 0.823529 0.741176 
0.603922 0.823529 0.741176 0.603922 0.823529 0.741176 
0.603922 0.823529 0.741176 0.603922 0.823529 0.741176 
0.603922 0.823529 0.741176 0.603922 0.823529 0.741176 
0.603922 0.823529 0.741176 0.603922 0.823529 0.741176 
0.603922 0.823529 0.741176 0.603922 0.823529 0.741176 
0.603922 0.823529 0.741176 0.603922 0.823529 0.741176 
0.603922 0.823529 0.741176 0.603922 0.823529 0.741176 
0.603922 0.823529 0.741176 0.603922 0.823529 0.741176 
0.603922 0.823529 0.741176 0.603922 0.823529 0.741176 
0.603922 0.823529 0.741176 0.603922 0.823529 0.741176 
0.603922 0.823529 0.741176 0.603922 0.823529 0.741176 
0.603922 0.823529 0.741176 0.603922 0.823529 0.741176 
0.603922 0.823529 0.741176 0.603922 0.823529 0.741176 
0.603922 0.823529 0.741176 0.603922 0.823529 0.741176 
0.603922 0.823529 0.741176 0.603922 0.823529 0.741176 
0.603922 0.823529 0.741176 0.603922 0.823529 0.741176 
0.603922 0.823529 0.741176 0.603922 0.823529 0.741176 
0.603922 0.823529 0.741176 0.603922 0.823529 0.741176 
0.603922 0.823529 0.741176 0.603922 0.823529 0.741176 
0.603922 0.823529 0.741176 0.603922 0.823529 0.741176 
0.603922 0.823529 0.741176 0.603922 0.823529 0.741176 
0.603922 0.823529 0.741176 0.603922 0.823529 0.741176 
0.603922 0.823529 0.741176 0.603922 0.823529 0.741176 
0.603922 0.823529 0.741176 0.603922 0.823529 0.741176 
0.603922 0.823529 0.741176 0.603922 0.823529 0.741176 
0.603922 0.823529 0.741176 0.603922 0.823529 0.741176 
0.603922 0.823529 0.741176 0.603922 0.823529 0.741176 
0.603922 0.823529 0.741176 0.603922 0.823529 0.741176 
0.603922 0.823529 0.741176 0.603922 0.823529 0.741176 
0.603922 0.823529 0.741176 0.603922 0.823529 0.741176 
0.603922 0.823529 0.741176 0.603922 0.823529 0.741176 
0.603922 0.823529 0.741176 0.603922 0.823529 0.741176 
0.603922 0.823529 0.741176 0.603922 0.823529 0.741176 
0.603922 0.823529 0.741176 0.603922 0.823529 0.741176 
0.603922 0.823529 0.741176 0.603922 0.823529 0.741176 
0.603922 0.823529 0.741176 0.603922 0.823529 0.741176 
0.603922 0.823529 0.741176 0.603922 0.823529 0.741176 
0.603922 0.823529 0.741176 0.603922 0.823529 0.741176 
0.603922 0.823529 0.741176 0.603922 0.823529 0.741176 
0.603922 0.823529 0.741176 0.603922 0.823529 0.741176 
0.603922 0.823529 0.741176 0.603922 0.823529 0.741176 
0.603922 0.823529 0.741176 0.603922 0.823529 0.741176 
0.603922 0.823529 0.741176 0.603922 0.823529 0.741176 
0.603922 0.823529 0.741176 0.603922 0.823529 0.741176 
0.603922 0.823529 0.741176 0.603922 0.823529 0.741176 
0.603922 0.823529 0.741176 0.603922 0.823529 0.741176 
0.603922 0.823529 0.741176 0.603922 0.823529 0.741176 
0.603922 0.823529 0.741176 0.603922 0.823529 0.741176 
0.603922 0.823529 0.741176 0.603922 0.823529 0.741176 
0.603922 0.823529 0.741176 0.603922 0.823529 0.741176 
0.603922 0.823529 0.741176 0.603922 0.823529 0.741176 
0.603922 0.823529 0.741176 0.603922 0.823529 0.741176 
0.603922 0.823529 0.741176 0.603922 0.823529 0.741176 
0.603922 0.823529 0.741176 0.603922 0.823529 0.741176 
0.603922 0.823529 0.741176 0.603922 0.823529 0.741176 
0.603922 0.823529 0.741176 0.603922 0.823529 0.741176 
0.603922 0.823529 0.741176 0.603922 0.823529 0.741176 
0.603922 0.823529 0.741176 0.603922 0.823529 0.741176 
0.603922 0.823529 0.741176 0.603922 0.823529 0.741176 
0.603922 0.823529 0.741176 0.603922 0.823529 0.741176 
0.603922 0.823529 0.741176 0.603922 0.823529 0.741176 
0.603922 0.823529 0.741176 0.603922 0.823529 0.741176 
0.603922 0.823529 0.741176 0.603922 0.823529 0.741176 
0.603922 0.823529 0.741176 0.603922 0.823529 0.741176 
0.603922 0.823529 0.741176 0.603922 0.823529 0.741176 
0.603922 0.823529 0.741176 0.603922 0.823529 0.741176 
0.603922 0.823529 0.741176 0.603922 0.823529 0.741176 
0.603922 0.823529 0.741176 0.603922 0.823529 0.741176 
0.603922 0.823529 0.741176 0.603922 0.823529 0.741176 
0.603922 0.823529 0.741176 0.603922 0.823529 0.741176 
0.603922 0.823529 0.741176 0.603922 0.823529 0.741176 
0.603922 0.823529 0.741176 0.603922 0.823529 0.741176 
0.603922 0.823529 0.741176 0.603922 0.823529 0.741176 
0.603922 0.823529 0.741176 0.603922 0.823529 0.741176 
0.603922 0.823529 0.741176 0.603922 0.823529 0.741176 
0.603922 0.823529 0.741176 0.603922 0.823529 0.741176 
0.603922 0.823529 0.741176 0.603922 0.823529 0.741176 
0.603922 0.823529 0.741176 0.603922 0.823529 0.741176 
0.603922 0.823529 0.741176 0.603922 0.823529 0.741176 
0.603922 0.823529 0.741176 0.603922 0.823529 0.741176 
0.603922 0.823529 0.741176 0.603922 0.823529 0.741176 
0.603922 0.823529 0.741176 0.603922 0.823529 0.741176 
0.603922 0.823529 0.741176 0.603922 0.823529 0.741176 
0.603922 0.823529 0.741176 0.603922 0.823529 0.741176 
0.603922 0.823529 0.741176 0.603922 0.823529 0.741176 
0.603922 0.823529 0.741176 0.603922 0.823529 0.741176 
0.603922 0.823529 0.741176 0.603922 0.823529 0.741176 
0.603922 0.823529 0.741176 0.603922 0.823529 0.741176 
0.603922 0.823529 0.741176 0.603922 0.823529 0.741176 
0.603922 0.823529 0.741176 0.603922 0.823529 0.741176 
0.603922 0.823529 0.741176 0.603922 0.823529 0.741176 
0.603922 0.823529 0.741176 0.603922 0.823529 0.741176 
0.603922 0.823529 0.741176 0.603922 0.823529 0.741176 
0.603922 0.823529 0.741176 0.603922 0.823529 0.741176 
0.603922 0.823529 0.741176 0.603922 0.823529 0.741176 
0.603922 0.823529 0.741176 0.603922 0.823529 0.741176 
0.603922 0.823529 0.741176 0.603922 0.823529 0.741176 
0.603922 0.823529 0.741176 0.603922 0.823529 0.741176 
0.603922 0.823529 0.741176 0.603922 0.823529 0.741176 
0.603922 0.823529 0.741176 0.603922 0.823529 0.741176 
0.603922 0.823529 0.741176 0.603922 0.823529 0.741176 
0.603922 0.823529 0.741176 0.603922 0.823529 0.741176 
0.603922 0.823529 0.741176 0.603922 0.823529 0.741176 
0.603922 0.823529 0.741176 0.603922 0.823529 0.741176 
0.603922 0.823529 0.741176 0.603922 0.823529 0.741176 
0.603922 0.823529 0.741176 0.603922 0.823529 0.741176 
0.603922 0.823529 0.741176 0.603922 0.823529 0.741176 
0.603922 0.823529 0.741176 0.603922 0.823529 0.741176 
0.603922 0.823529 0.741176 0.603922 0.823529 0.741176 
0.603922 0.823529 0.741176 0.603922 0.823529 0.741176 
0.603922 0.823529 0.741176 0.603922 0.823529 0.741176 
0.603922 0.823529 0.741176 0.603922 0.823529 0.741176 
0.603922 0.823529 0.741176 0.603922 0.823529 0.741176 
0.603922 0.823529 0.741176 0.603922 0.823529 0.741176 
0.603922 0.823529 0.741176 0.603922 0.823529 0.741176 
0.603922 0.823529 0.741176 0.603922 0.823529 0.741176 
0.603922 0.823529 0.741176 0.603922 0.823529 0.741176 
0.603922 0.823529 0.741176 0.603922 0.823529 0.741176 
0.603922 0.823529 0.741176 0.603922 0.823529 0.741176 
0.603922 0.823529 0.741176 0.603922 0.823529 0.741176 
0.603922 0.823529 0.741176 0.603922 0.823529 0.741176 
0.603922 0.823529 0.741176 0.603922 0.823529 0.741176 
0.603922 0.823529 0.741176 0.603922 0.823529 0.741176 
0.603922 0.823529 0.741176 0.603922 0.823529 0.741176 
0.603922 0.823529 0.741176 0.603922 0.823529 0.741176 