# vtk DataFile Version 4.2
vtk output
ASCII
DATASET POLYDATA
POINTS 3437 float
141.546 135.463 84.363 141.307 135.691 84.2668 141.394 136.044 84.2393 
141.575 136.248 84.315 141.327 137.344 84.1153 140.59 138.842 83.9684 
141.692 138.944 84.1676 140.37 142.624 83.7978 140.839 143.134 83.8087 
140.77 145.04 83.8201 140.204 146.357 83.8322 141.178 145.637 83.9675 
140.663 152.307 84.4004 140.736 152.795 84.5303 141.89 129.863 85.0643 
141.43 133.55 84.6527 140.372 136.065 84.2906 142.166 135.916 84.8678 
139.641 137.551 84.3265 141.589 136.903 84.269 141.844 137.249 84.3925 
139.19 142.257 84.0996 139.041 147.566 84.1462 139.736 150.719 84.2374 
139.328 152.26 84.5705 141.277 152.279 84.8184 140.5 153.432 84.6491 
139.951 155.454 84.99 142.615 124.622 86.1046 142.575 126.595 85.8044 
141.417 128.294 85.4212 140.77 128.682 85.4223 142.532 128.325 85.6576 
140.16 129.836 85.3487 142.368 129.957 85.3072 142.682 131.677 85.7321 
142.412 136.594 85.3327 138.307 138.413 84.8458 142.063 137.55 84.678 
142.088 138.57 84.716 142.125 140.406 84.8021 142.222 139.888 85.2226 
142.002 146.174 84.868 142.089 145.784 85.2646 141.945 147.55 85.0419 
141.6 151.735 85.5164 139.152 156.947 85.4096 139.577 158.685 85.686 
140.17 158.757 85.7683 139.676 160.929 85.9961 139.244 161.319 86.0655 
140.128 161.527 86.1795 139.656 163.026 86.3542 143.594 122.207 86.7666 
141.804 123.487 86.4883 143.402 124.343 86.4211 140.705 125.26 86.2757 
143.726 125.211 86.6292 140.958 127.184 85.7068 143.369 126.436 86.3431 
143.277 127.604 86.3311 139.583 128.771 85.8033 142.917 131.366 86.0795 
142.867 132.096 86.4397 142.673 135.389 86.043 142.666 135.689 85.9812 
142.225 138.097 85.0736 142.292 138.131 85.6448 136.562 139.273 85.9218 
142.231 139.328 85.716 142.087 144.822 85.8318 141.818 147.909 85.809 
137.065 148.875 85.4636 141.621 152.156 85.9803 141.652 152.683 86.0037 
141.634 152.989 85.9957 141.654 152.87 86.108 140.989 157.758 86.2003 
140.485 161.712 86.3821 138.965 162.551 86.352 139.773 164.703 87.0029 
144.845 117.869 87.9041 144.751 117.525 87.9724 144.119 118.733 87.6386 
145.238 118.351 87.9579 145.031 119.363 87.7694 144.36 121.994 87.1727 
144.396 123.099 87.2296 144.179 123.73 87.044 144.444 123.466 87.4051 
144.229 124.573 87.3966 143.708 125.872 86.7364 143.806 126.24 87.2237 
143.002 130.991 86.2709 142.94 131.623 86.693 142.678 133.003 86.6003 
141.65 140.545 87.1645 141.274 149.19 87.0035 141.426 152.631 86.7083 
141.587 152.668 86.2853 141.014 160.864 87.3027 140.85 162.125 86.9488 
140.976 162.557 87.4969 140.862 163.571 87.3979 140.955 163.253 87.5179 
138.207 164.836 87.2866 140.524 164.177 87.2518 138.719 165.784 87.3939 
140.042 165.179 87.3092 139.376 166.552 87.5491 139.678 168.15 87.9676 
139.124 169.646 88.3156 139.445 169.785 88.3333 139.561 170.089 88.4921 
145.528 116.071 88.5741 144.09 116.76 88.2582 145.313 120.192 87.9454 
144.509 123.709 87.8937 143.985 125.698 87.6527 143.032 130.029 87.4913 
142.856 131.48 87.148 140.909 164.076 87.8009 137.413 166.624 88.1279 
140.663 165.225 88.0965 138.498 170.302 88.988 140.062 169.864 88.6076 
138.647 170.669 89.2361 139.377 170.996 89.2356 139.563 170.91 89.0681 
147.732 110.891 90.1459 147.864 112.099 90.091 146.709 113.719 89.4947 
147.776 112.759 90.0829 145.055 114.854 88.9202 147.325 114.606 89.9508 
146.727 116.018 89.4849 145.944 119.036 89.0768 145.694 120.246 88.7302 
145.15 121.921 88.59 144.824 122.702 88.9412 143.791 125.586 88.7339 
142.345 129.661 88.9273 141.449 132.124 89.1084 140.336 139.7 88.7801 
140.747 163.936 88.8414 140.678 165.94 88.7933 140.693 167.228 89.1862 
140.612 168.997 89.0598 140.307 169.695 88.7646 137.733 170.344 89.6254 
140.166 170.15 88.8349 140.1 170.501 89.0743 140.263 170.522 89.3016 
140.402 170.36 89.3874 139.15 171.009 89.5685 139.492 171.046 89.4264 
139.795 170.792 89.1043 139.985 170.776 89.4769 139.607 170.998 89.2266 
149.103 107.31 91.21 149.112 107.178 91.2538 148.968 107.391 91.2218 
147.791 110.336 90.3647 145.917 110.806 90.2874 144.131 112.54 90.1362 
148.018 113.637 90.5692 146.86 116.862 89.8232 146.82 117.195 89.8649 
146.11 118.692 89.9005 143.842 124.35 89.6077 140.54 164.524 89.3505 
140.47 166.578 89.8588 140.291 166.555 90.2459 135.457 167.558 90.1139 
140.439 168.041 90.1852 140.638 169.031 89.7521 140.538 169.303 90.0576 
140.599 169.512 89.8209 137.489 170.606 90.4245 140.271 170.57 89.5308 
137.927 170.77 90.1493 138.27 170.933 90.3995 139.519 170.967 89.7888 
139.858 170.832 89.8457 140.115 170.625 89.8646 149.426 105.963 91.7371 
149.16 106.833 91.4363 149.685 106.813 91.6145 148.287 106.801 91.4593 
149.397 107.432 91.4095 146.692 108.291 91.2468 147.934 108.628 90.9083 
149.234 110.1 91.1162 149.378 109.984 91.1932 149.382 109.817 91.2319 
148.857 111.89 91.2468 148.693 112.735 91.083 140.628 115.013 90.9519 
147.937 114.126 90.9793 146.866 116.672 90.5865 146.285 117.745 90.9231 
145.235 119.086 91.4243 142.391 124.837 90.995 141.388 125.427 91.5747 
131.905 157.359 90.9446 139.636 165.977 91.0778 140.284 169.303 90.4652 
136.255 169.812 90.9523 135.977 169.854 91.4675 137.264 170.545 90.8949 
138.193 170.928 90.824 140.103 170.334 90.3888 140.056 170.538 90.2174 
138.652 170.92 90.6653 150.813 106.17 92.4438 147.423 106.759 91.6962 
146.6 107.302 91.7647 150.224 107.765 92.1281 149.918 108.669 92.0386 
149.433 109.943 91.2993 149.087 111.451 91.5719 148.724 112.432 91.7219 
145.547 117.993 91.9151 131.457 127.935 91.699 139.106 168.853 91.7834 
139.466 169.677 91.3206 137.24 170.474 91.5478 137.604 170.75 90.9949 
138.254 170.56 91.4752 139.891 170.506 90.477 138.603 170.762 91.0827 
150.942 101.132 93.4934 152.075 100.492 93.9539 150.633 101.389 93.3856 
149.763 102.031 93.2122 148.874 102.791 93.0977 151.279 105.079 92.8724 
150.685 107.69 92.888 151.012 107.144 93.2724 147.04 114.776 92.7002 
138.027 127.001 93.4187 137.665 166.097 93.0914 136.281 170.045 92.6302 
135.872 169.815 93.0849 137.908 169.982 92.1842 135.743 169.921 92.4546 
136.811 170.143 92.3458 139.082 170.336 91.2291 152.456 99.1397 94.5208 
153.024 100.164 94.5882 151.642 105.409 93.6516 151.318 106.455 93.7059 
150.879 107.56 93.7833 131.664 166.731 94.1275 133.635 168.795 93.6258 
134.284 169.208 94.0305 153.261 96.0423 95.8419 152.398 96.5323 95.7267 
154.186 96.1467 95.9659 151.42 97.5985 95.3487 151.16 98.5767 94.8773 
153.407 100.53 94.9442 153.891 100.033 95.526 153.269 101.43 94.8391 
152.288 104.633 94.8248 150.699 107.657 94.277 128.953 161.673 94.7932 
135.684 167.341 94.7906 135.753 168.738 94.2774 133.198 168.67 94.6631 
134.197 169.119 94.519 135.772 169.156 93.9869 135.357 169.307 93.9767 
154.832 93.7867 97.0169 149.98 98.0542 95.6845 154.64 99.2997 96.4064 
153.525 102.17 95.585 153.588 102.105 95.7047 153.258 102.681 95.5435 
144.414 103.631 95.6002 152.27 104.588 95.2858 134.655 167.877 95.4017 
132.591 168.315 95.6454 134.046 168.662 95.2676 134.784 168.914 94.6692 
155.566 92.2803 97.9185 148.855 97.7262 96.729 129.256 165.771 96.4678 
129.075 166.31 97.5906 133.472 166.798 96.5813 129.521 166.698 97.5843 
134.149 168.266 95.5587 132.329 168.064 96.1657 133.367 168.433 95.7667 
156.361 91.6546 98.3084 157.841 91.1556 99.0594 157.145 92.9048 98.4376 
156.551 95.542 98.2814 156.177 96.6263 98.3207 155.111 98.9378 97.4536 
153.795 101.075 97.3259 153.112 102.041 97.4071 150.275 104.61 98.2417 
126.561 163.342 97.9557 127.699 165.442 98.3842 128.64 166.195 98.4148 
132.838 167.326 96.7927 129.734 166.827 97.7588 130.237 166.995 97.6708 
132.427 167.775 96.6178 132.869 167.896 96.4913 133.177 168.2 96.1731 
158.863 88.8391 100.127 156.989 90.1217 99.1364 157.737 90.3781 99.1925 
157.446 93.2482 98.7985 157.327 94.3518 99.1462 156.785 95.575 99.404 
155.034 98.6241 98.633 131.115 164.411 98.8742 131.638 166.491 97.9715 
130.596 166.924 97.953 131.206 166.977 97.7686 158.805 88.2208 100.409 
157.449 88.3954 100.182 159.063 90.0311 100.061 158.069 93.2253 100.008 
157.885 93.611 99.9562 157.128 94.9908 99.6246 157.175 94.841 99.9542 
126.238 164.869 99.9404 125.977 164.849 100.446 130.697 165.312 99.0148 
127.249 165.544 99.9123 130.562 166.097 98.7347 129.958 165.878 99.2215 
128.232 165.963 99.5363 160.584 85.3904 102.229 160.584 85.2999 102.278 
160.752 85.3768 102.372 160.475 85.5802 102.182 159.77 86.5702 101.578 
160.134 88.7987 101.086 157.956 93.45 100.367 128.92 163.475 100.796 
125.078 164.3 101.13 125.96 164.884 100.878 126.439 165.066 100.968 
127.146 165.351 100.54 128.108 165.761 100.015 160.481 85.126 102.422 
159.914 85.6319 102.138 160.585 86.2072 102.102 161.528 85.8759 102.891 
156.904 86.7014 101.767 160.934 87.5417 102.234 160.916 88.2033 102.451 
160.397 88.9903 101.452 160.559 89.1484 101.733 160.624 89.1415 101.931 
160.533 89.3533 101.821 124.083 131.27 102.457 116.578 136.306 101.845 
123.341 162.553 101.37 128.505 164.311 100.907 124.82 164.189 102.226 
126.309 164.907 101.413 126.449 164.777 101.634 128.363 165.011 100.652 
127.842 164.848 101.056 127.566 165.113 100.906 160.057 83.8929 103.431 
161.578 83.9123 103.576 161.93 84.5108 103.472 162.291 84.7902 103.689 
160.292 89.6682 102.313 160.53 89.3692 102.021 124.771 125.959 103.305 
162.734 82.0787 104.754 161.56 82.2613 104.613 163.223 82.4742 104.817 
162.281 85.3214 103.691 161.659 87.0768 103.788 125.757 162.914 103.268 
122.859 162.895 103.41 124.56 163.482 103.388 160.667 81.7936 105.183 
162.71 85.4299 104.639 119.085 160.032 105.24 124.097 162.187 104.437 
120.239 161.115 105.325 123.489 162.861 104.25 124.207 163.031 103.95 
161.106 80.8517 105.945 119.77 148.293 106.362 121.831 157.014 106.297 
116.595 157.476 106.17 122.743 160.26 105.638 120.029 160.976 105.7 
121.029 161.403 105.56 122.929 162.153 104.905 123.903 162.653 104.367 
165.037 78.2099 107.772 164.408 78.4393 107.616 165.483 78.7289 107.681 
163.936 83.7719 106.484 125.521 116.34 107.197 115.736 155.823 106.22 
115.985 157.51 107.099 117.352 158.919 106.81 117.137 158.921 107.312 
120.259 160.644 106.469 120.773 160.948 106.262 165.453 77.447 108.482 
[...]
POINT_DATA 3437
COLOR_SCALARS scalars 3
0.121569 0.615686 0.352941 0.121569 0.615686 0.352941 0.121569 0.615686 0.352941 
0.121569 0.615686 0.352941 0.121569 0.615686 0.352941 
0.121569 0.615686 0.352941 0.121569 0.615686 0.352941 
0.121569 0.615686 0.352941 0.121569 0.615686 0.352941 
0.121569 0.615686 0.352941 0.121569 0.615686 0.352941 
0.121569 0.615686 0.352941 0.121569 0.615686 0.352941 
0.121569 0.615686 0.352941 0.121569 0.615686 0.352941 
0.121569 0.615686 0.352941 0.121569 0.615686 0.352941 
0.121569 0.615686 0.352941 0.121569 0.615686 0.352941 
0.121569 0.615686 0.352941 0.121569 0.615686 0.352941 
0.121569 0.615686 0.352941 0.121569 0.615686 0.352941 
0.121569 0.615686 0.352941 0.121569 0.615686 0.352941 
0.121569 0.615686 0.352941 0.121569 0.615686 0.352941 
0.121569 0.615686 0.352941 0.121569 0.615686 0.352941 
0.121569 0.615686 0.352941 0.121569 0.615686 0.352941 
0.121569 0.615686 0.352941 0.121569 0.615686 0.352941 
0.121569 0.615686 0.352941 0.121569 0.615686 0.352941 
0.121569 0.615686 0.352941 0.121569 0.615686 0.352941 
0.121569 0.615686 0.352941 0.121569 0.615686 0.352941 
0.121569 0.615686 0.352941 0.121569 0.615686 0.352941 
0.121569 0.615686 0.352941 0.121569 0.615686 0.352941 
0.121569 0.615686 0.352941 0.121569 0.615686 0.352941 
0.121569 0.615686 0.352941 0.121569 0.615686 0.352941 
0.121569 0.615686 0.352941 0.121569 0.615686 0.352941 
0.121569 0.615686 0.352941 0.121569 0.615686 0.352941 
0.121569 0.615686 0.352941 0.121569 0.615686 0.352941 
0.121569 0.615686 0.352941 0.121569 0.615686 0.352941 
0.121569 0.615686 0.352941 0.121569 0.615686 0.352941 
0.121569 0.615686 0.352941 0.121569 0.615686 0.352941 
0.121569 0.615686 0.352941 0.121569 0.615686 0.352941 
0.121569 0.615686 0.352941 0.121569 0.615686 0.352941 
0.121569 0.615686 0.352941 0.121569 0.615686 0.352941 
0.121569 0.615686 0.352941 0.121569 0.615686 0.352941 
0.121569 0.615686 0.352941 0.121569 0.615686 0.352941 
0.121569 0.615686 0.352941 0.121569 0.615686 0.352941 
0.121569 0.615686 0.352941 0.121569 0.615686 0.352941 
0.121569 0.615686 0.352941 0.121569 0.615686 0.352941 
0.121569 0.615686 0.352941 0.121569 0.615686 0.352941 
0.121569 0.615686 0.352941 0.121569 0.615686 0.352941 
0.121569 0.615686 0.352941 0.121569 0.615686 0.352941 
0.121569 0.615686 0.352941 0.121569 0.615686 0.352941 
0.121569 0.615686 0.352941 0.121569 0.615686 0.352941 
0.121569 0.615686 0.352941 0.121569 0.615686 0.352941 
0.121569 0.615686 0.352941 0.121569 0.615686 0.352941 
0.121569 0.615686 0.352941 0.121569 0.615686 0.352941 
0.121569 0.615686 0.352941 0.121569 0.615686 0.352941 
0.121569 0.615686 0.352941 0.121569 0.615686 0.352941 
0.121569 0.615686 0.352941 0.121569 0.615686 0.352941 
0.121569 0.615686 0.352941 0.121569 0.615686 0.352941 
0.121569 0.615686 0.352941 0.121569 0.615686 0.352941 
0.121569 0.615686 0.352941 0.121569 0.615686 0.352941 
0.121569 0.615686 0.352941 0.121569 0.615686 0.352941 
0.121569 0.615686 0.352941 0.121569 0.615686 0.352941 
0.121569 0.615686 0.352941 0.121569 0.615686 0.352941 
0.121569 0.615686 0.352941 0.121569 0.615686 0.352941 
0.121569 0.615686 0.352941 0.121569 0.615686 0.352941 
0.121569 0.615686 0.352941 0.121569 0.615686 0.352941 
0.121569 0.615686 0.352941 0.121569 0.615686 0.352941 
0.121569 0.615686 0.352941 0.121569 0.615686 0.352941 
0.121569 0.615686 0.352941 0.121569 0.615686 0.352941 
0.121569 0.615686 0.352941 0.121569 0.615686 0.352941 
0.121569 0.615686 0.352941 0.121569 0.615686 0.352941 
0.121569 0.615686 0.352941 0.121569 0.615686 0.352941 
0.121569 0.615686 0.352941 0.121569 0.615686 0.352941 
0.121569 0.615686 0.352941 0.121569 0.615686 0.352941 
0.121569 0.615686 0.352941 0.121569 0.615686 0.352941 
0.121569 0.615686 0.352941 0.121569 0.615686 0.352941 
0.121569 0.615686 0.352941 0.121569 0.615686 0.352941 
0.121569 0.615686 0.352941 0.121569 0.615686 0.352941 
0.121569 0.615686 0.352941 0.121569 0.615686 0.352941 
0.121569 0.615686 0.352941 0.121569 0.615686 0.352941 
0.121569 0.615686 0.352941 0.121569 0.615686 0.352941 
0.121569 0.615686 0.352941 0.121569 0.615686 0.352941 
0.121569 0.615686 0.352941 0.121569 0.615686 0.352941 
0.121569 0.615686 0.352941 0.121569 0.615686 0.352941 
0.121569 0.615686 0.352941 0.121569 0.615686 0.352941 
0.121569 0.615686 0.352941 0.121569 0.615686 0.352941 
0.121569 0.615686 0.352941 0.121569 0.615686 0.352941 
0.121569 0.615686 0.352941 0.121569 0.615686 0.352941 
0.121569 0.615686 0.352941 0.121569 0.615686 0.352941 
0.121569 0.615686 0.352941 0.121569 0.615686 0.352941 
0.121569 0.615686 0.352941 0.121569 0.615686 0.352941 
0.121569 0.615686 0.352941 0.121569 0.615686 0.352941 
0.121569 0.615686 0.352941 0.121569 0.615686 0.352941 
0.121569 0.615686 0.352941 0.121569 0.615686 0.352941 
0.121569 0.615686 0.352941 0.121569 0.615686 0.352941 
0.121569 0.615686 0.352941 0.121569 0.615686 0.352941 
0.121569 0.615686 0.352941 0.121569 0.615686 0.352941 
0.121569 0.615686 0.352941 0.121569 0.615686 0.352941 
0.121569 0.615686 0.352941 0.121569 0.615686 0.352941 
0.121569 0.615686 0.352941 0.121569 0.615686 0.352941 
0.121569 0.615686 0.352941 0.121569 0.615686 0.352941 
0.121569 0.615686 0.352941 0.121569 0.615686 0.352941 
0.121569 0.615686 0.352941 0.121569 0.615686 0.352941 
0.121569 0.615686 0.352941 0.121569 0.615686 0.352941 
0.121569 0.615686 0.352941 0.121569 0.615686 0.352941 
0.121569 0.615686 0.352941 0.121569 0.615686 0.352941 
0.121569 0.615686 0.352941 0.121569 0.615686 0.352941 
0.121569 0.615686 0.352941 0.121569 0.615686 0.352941 
0.121569 0.615686 0.352941 0.121569 0.615686 0.352941 
0.121569 0.615686 0.352941 0.121569 0.615686 0.352941 
0.121569 0.615686 0.352941 0.121569 0.615686 0.352941 
0.121569 0.615686 0.352941 0.121569 0.615686 0.352941 
0.121569 0.615686 0.352941 0.121569 0.615686 0.352941 
0.121569 0.615686 0.352941 0.121569 0.615686 0.352941 
0.121569 0.615686 0.352941 0.121569 0.615686 0.352941 
0.121569 0.615686 0.352941 0.121569 0.615686 0.352941 
0.121569 0.615686 0.352941 0.121569 0.615686 0.352941 
0.121569 0.615686 0.352941 0.121569 0.615686 0.352941 
0.121569 0.615686 0.352941 0.121569 0.615686 0.352941 
0.121569 0.615686 0.352941 0.121569 0.615686 0.352941 
0.121569 0.615686 0.352941 0.121569 0.615686 0.352941 
0.121569 0.615686 0.352941 0.121569 0.615686 0.352941 
0.121569 0.615686 0.352941 0.121569 0.615686 0.352941 
0.121569 0.615686 0.352941 0.121569 0.615686 0.352941 
0.121569 0.615686 0.352941 0.121569 0.615686 0.352941 
0.121569 0.615686 0.352941 0.121569 0.615686 0.352941 
0.121569 0.615686 0.352941 0.121569 0.615686 0.352941 
0.121569 0.615686 0.352941 0.121569 0.615686 0.352941 
0.121569 0.615686 0.352941 0.121569 0.615686 0.352941 
0.121569 0.615686 0.352941 0.121569 0.615686 0.352941 
0.121569 0.615686 0.352941 0.121569 0.615686 0.352941 
0.121569 0.615686 0.352941 0.121569 0.615686 0.352941 
0.121569 0.615686 0.352941 0.121569 0.615686 0.352941 
0.121569 0.615686 0.352941 0.121569 0.615686 0.352941 
0.121569 0.615686 0.352941 0.121569 0.615686 0.352941 
0.121569 0.615686 0.352941 0.121569 0.615686 0.352941 
0.121569 0.615686 0.352941 0.121569 0.615686 0.352941 
0.121569 0.615686 0.352941 0.121569 0.615686 0.352941 
0.121569 0.615686 0.352941 0.121569 0.615686 0.352941 
0.121569 0.615686 0.352941 0.121569 0.615686 0.352941 
0.121569 0.615686 0.352941 0.121569 0.615686 0.352941 
0.121569 0.615686 0.352941 0.121569 0.615686 0.352941 
0.121569 0.615686 0.352941 0.121569 0.615686 0.352941 
0.121569 0.615686 0.352941 0.121569 0.615686 0.352941 
0.121569 0.615686 0.352941 0.121569 0.615686 0.352941 
0.121569 0.615686 0.352941 0.121569 0.615686 0.352941 
0.121569 0.615686 0.352941 0.121569 0.615686 0.352941 
0.121569 0.615686 0.352941 0.121569 0.615686 0.352941 
0.121569 0.615686 0.352941 0.121569 0.615686 0.352941 
0.121569 0.615686 0.352941 0.121569 0.615686 0.352941 
0.121569 0.615686 0.352941 0.121569 0.615686 0.352941 
0.121569 0.615686 0.352941 0.121569 0.615686 0.352941 
0.121569 0.615686 0.352941 0.121569 0.615686 0.352941 
0.121569 0.615686 0.352941 0.121569 0.615686 0.352941 
0.121569 0.615686 0.352941 0.121569 0.615686 0.352941 
0.121569 0.615686 0.352941 0.121569 0.615686 0.352941 
0.121569 0.615686 0.352941 0.121569 0.615686 0.352941 
0.121569 0.615686 0.352941 0.121569 0.615686 0.352941 
0.121569 0.615686 0.352941 0.121569 0.615686 0.352941 
0.121569 0.615686 0.352941 0.121569 0.615686 0.352941 
0.121569 0.615686 0.352941 0.121569 0.615686 0.352941 
0.121569 0.615686 0.352941 0.121569 0.615686 0.352941 
0.121569 0.615686 0.352941 0.121569 0.615686 0.352941 
0.121569 0.615686 0.352941 0.121569 0.615686 0.352941 
0.121569 0.615686 0.352941 0.121569 0.615686 0.352941 
0.121569 0.615686 0.352941 0.121569 0.615686 0.352941 
0.121569 0.615686 0.352941 0.121569 0.615686 0.352941 
0.121569 0.615686 0.352941 0.121569 0.615686 0.352941 
0.121569 0.615686 0.352941 0.121569 0.615686 0.352941 
0.121569 0.615686 0.352941 0.121569 0.615686 0.352941 
0.121569 0.615686 0.352941 0.121569 0.615686 0.352941 
0.121569 0.615686 0.352941 0.121569 0.615686 0.352941 
0.121569 0.615686 0.352941 0.121569 0.615686 0.352941 
0.121569 0.615686 0.352941 0.121569 0.615686 0.352941 
0.121569 0.615686 0.352941 0.121569 0.615686 0.352941 
0.121569 0.615686 0.352941 0.121569 0.615686 0.352941 
0.121569 0.615686 0.352941 0.121569 0.615686 0.352941 
0.121569 0.615686 0.352941 0.121569 0.615686 0.352941 
0.121569 0.615686 0.352941 0.121569 0.615686 0.352941 
0.121569 0.615686 0.352941 0.121569 0.615686 0.352941 
0.121569 0.615686 0.352941 0.121569 0.615686 0.352941 
0.121569 0.615686 0.352941 0.121569 0.615686 0.352941 
0.121569 0.615686 0.352941 0.121569 0.615686 0.352941 
0.121569 0.615686 0.352941 0.121569 0.615686 0.352941 
0.121569 0.615686 0.352941 0.121569 0.615686 0.352941 
0.121569 0.615686 0.352941 0.121569 0.615686 0.352941 
0.121569 0.615686 0.352941 0.121569 0.615686 0.352941 
0.121569 0.615686 0.352941 0.121569 0.615686 0.352941 
0.121569 0.615686 0.352941 0.121569 0.615686 0.352941 
0.121569 0.615686 0.352941 0.121569 0.615686 0.352941 
0.121569 0.615686 0.352941 0.121569 0.615686 0.352941 
0.121569 0.615686 0.352941 0.121569 0.615686 0.352941 
0.121569 0.615686 0.352941 0.121569 0.615686 0.352941 
0.121569 0.615686 0.352941 0.121569 0.615686 0.352941 
0.121569 0.615686 0.352941 0.121569 0.615686 0.352941 
0.121569 0.615686 0.352941 0.121569 0.615686 0.352941 
0.121569 0.615686 0.352941 0.121569 0.615686 0.352941 
0.121569 0.615686 0.352941 0.121569 0.615686 0.352941 
0.121569 0.615686 0.352941 0.121569 0.615686 0.352941 
0.121569 0.615686 0.352941 0.121569 0.615686 0.352941 
0.121569 0.615686 0.352941 0.121569 0.615686 0.352941 
0.121569 0.615686 0.352941 0.121569 0.615686 0.352941 
0.121569 0.615686 0.352941 0.121569 0.615686 0.352941 
0.121569 0.615686 0.352941 0.121569 0.615686 0.352941 
0.121569 0.615686 0.352941 0.121569 0.615686 0.352941 
0.121569 0.615686 0.352941 0.121569 0.615686 0.352941 
0.121569 0.615686 0.352941 0.121569 0.615686 0.352941 
0.121569 0.615686 0.352941 0.121569 0.615686 0.352941 
0.121569 0.615686 0.352941 0.121569 0.615686 0.352941 
0.121569 0.615686 0.352941 0.121569 0.615686 0.352941 
0.121569 0.615686 0.352941 0.121569 0.615686 0.352941 
0.121569 0.615686 0.352941 0.121569 0.615686 0.352941 
0.121569 0.615686 0.352941 0.121569 0.615686 0.352941 
0.121569 0.615686 0.352941 0.121569 0.615686 0.352941 
0.121569 0.615686 0.352941 0.121569 0.615686 0.352941 
0.121569 0.615686 0.352941 0.121569 0.615686 0.352941 
0.121569 0.615686 0.352941 0.121569 0.615686 0.352941 
0.121569 0.615686 0.352941 0.121569 0.615686 0.352941 
0.121569 0.615686 0.352941 0.121569 0.615686 0.352941 
0.121569 0.615686 0.352941 0.121569 0.615686 0.352941 
0.121569 0.615686 0.352941 0.121569 0.615686 0.352941 
0.121569 0.615686 0.352941 0.121569 0.615686 0.352941 
0.121569 0.615686 0.352941 0.121569 0.615686 0.352941 
0.121569 0.615686 0.352941 0.121569 0.615686 0.352941 
0.121569 0.615686 0.352941 0.121569 0.615686 0.352941 
0.121569 0.615686 0.352941 0.121569 0.615686 0.352941 
0.121569 0.615686 0.352941 0.121569 0.615686 0.352941 
0.121569 0.615686 0.352941 0.121569 0.615686 0.352941 
0.121569 0.615686 0.352941 0.121569 0.615686 0.352941 
0.121569 0.615686 0.352941 0.121569 0.615686 0.352941 
0.121569 0.615686 0.352941 0.121569 0.615686 0.352941 
0.121569 0.615686 0.352941 0.121569 0.615686 0.352941 
0.121569 0.615686 0.352941 0.121569 0.615686 0.352941 
0.121569 0.615686 0.352941 0.121569 0.615686 0.352941 
0.121569 0.615686 0.352941 0.121569 0.615686 0.352941 
0.121569 0.615686 0.352941 0.121569 0.615686 0.352941 
0.121569 0.615686 0.352941 0.121569 0.615686 0.352941 
0.121569 0.615686 0.352941 0.121569 0.615686 0.352941 
0.121569 0.615686 0.352941 0.121569 0.615686 0.352941 
0.121569 0.615686 0.352941 0.121569 0.615686 0.352941 
0.121569 0.615686 0.352941 0.121569 0.615686 0.352941 
0.121569 0.615686 0.352941 0.121569 0.615686 0.352941 
0.121569 0.615686 0.352941 0.121569 0.615686 0.352941 
0.121569 0.615686 0.352941 0.121569 0.615686 0.352941 
0.121569 0.615686 0.352941 0.121569 0.615686 0.352941 
0.121569 0.615686 0.352941 0.121569 0.615686 0.352941 
0.121569 0.615686 0.352941 0.121569 0.615686 0.352941 
0.121569 0.615686 0.352941 0.121569 0.615686 0.352941 
0.121569 0.615686 0.352941 0.121569 0.615686 0.352941 
0.121569 0.615686 0.352941 0.121569 0.615686 0.352941 
0.121569 0.615686 0.352941 0.121569 0.615686 0.352941 
0.121569 0.615686 0.352941 0.121569 0.615686 0.352941 
0.121569 0.615686 0.352941 0.121569 0.615686 0.352941 
0.121569 0.615686 0.352941 0.121569 0.615686 0.352941 
0.121569 0.615686 0.352941 0.121569 0.615686 0.352941 
0.121569 0.615686 0.352941 0.121569 0.615686 0.352941 
0.121569 0.615686 0.352941 0.121569 0.615686 0.352941 
0.121569 0.615686 0.352941 0.121569 0.615686 0.352941 
0.121569 0.615686 0.352941 0.121569 0.615686 0.352941 
0.121569 0.615686 0.352941 0.121569 0.615686 0.352941 
0.121569 0.615686 0.352941 0.121569 0.615686 0.352941 
0.121569 0.615686 0.352941 0.121569 0.615686 0.352941 
0.121569 0.615686 0.352941 0.121569 0.615686 0.352941 
0.121569 0.615686 0.352941 0.121569 0.615686 0.352941 
0.121569 0.615686 0.352941 0.121569 0.615686 0.352941 
0.121569 0.615686 0.352941 0.121569 0.615686 0.352941 
0.121569 0.615686 0.352941 0.121569 0.615686 0.352941 
0.121569 0.615686 0.352941 0.121569 0.615686 0.352941 
0.121569 0.615686 0.352941 0.121569 0.615686 0.352941 
0.121569 0.615686 0.352941 0.121569 0.615686 0.352941 
0.121569 0.615686 0.352941 0.121569 0.615686 0.352941 
0.121569 0.615686 0.352941 0.121569 0.615686 0.352941 
0.121569 0.615686 0.352941 0.121569 0.615686 0.352941 
0.121569 0.615686 0.352941 0.121569 0.615686 0.352941 
0.121569 0.615686 0.352941 0.121569 0.615686 0.352941 
0.121569 0.615686 0.352941 0.121569 0.615686 0.352941 
0.121569 0.615686 0.352941 0.121569 0.615686 0.352941 
0.121569 0.615686 0.352941 0.121569 0.615686 0.352941 
0.121569 0.615686 0.352941 0.121569 0.615686 0.352941 
0.121569 0.615686 0.352941 0.121569 0.615686 0.352941 
0.121569 0.615686 0.352941 0.121569 0.615686 0.352941 
0.121569 0.615686 0.352941 0.121569 0.615686 0.352941 
0.121569 0.615686 0.352941 0.121569 0.615686 0.352941 
0.121569 0.615686 0.352941 0.121569 0.615686 0.352941 
0.121569 0.615686 0.352941 0.121569 0.615686 0.352941 
0.121569 0.615686 0.352941 0.121569 0.615686 0.352941 
0.121569 0.615686 0.352941 0.121569 0.615686 0.352941 
0.121569 0.615686 0.352941 0.121569 0.615686 0.352941 
0.121569 0.615686 0.352941 0.121569 0.615686 0.352941 
0.121569 0.615686 0.352941 0.121569 0.615686 0.352941 
0.121569 0.615686 0.352941 0.121569 0.615686 0.352941 
0.121569 0.615686 0.352941 0.121569 0.615686 0.352941 
0.121569 0.615686 0.352941 0.121569 0.615686 0.352941 
0.121569 0.615686 0.352941 0.121569 0.615686 0.352941 
0.121569 0.615686 0.352941 0.121569 0.615686 0.352941 
0.121569 0.615686 0.352941 0.121569 0.615686 0.352941 
0.121569 0.615686 0.352941 0.121569 0.615686 0.352941 
0.121569 0.615686 0.352941 0.121569 0.615686 0.352941 
0.121569 0.615686 0.352941 0.121569 0.615686 0.352941 
0.121569 0.615686 0.352941 0.121569 0.615686 0.352941 
0.121569 0.615686 0.352941 0.121569 0.615686 0.352941 
0.121569 0.615686 0.352941 0.121569 0.615686 0.352941 
0.121569 0.615686 0.352941 0.121569 0.615686 0.352941 
0.121569 0.615686 0.352941 0.121569 0.615686 0.352941 
0.121569 0.615686 0.352941 0.121569 0.615686 0.352941 
0.121569 0.615686 0.352941 0.121569 0.615686 0.352941 
0.121569 0.615686 0.352941 0.121569 0.615686 0.352941 
0.121569 0.615686 0.352941 0.121569 0.615686 0.352941 
0.121569 0.615686 0.352941 0.121569 0.615686 0.352941 
0.121569 0.615686 0.352941 0.121569 0.615686 0.352941 
0.121569 0.615686 0.352941 0.121569 0.615686 0.352941 
0.121569 0.615686 0.352941 0.121569 0.615686 0.352941 
0.121569 0.615686 0.352941 0.121569 0.615686 0.352941 
0.121569 0.615686 0.352941 0.121569 0.615686 0.352941 
0.121569 0.615686 0.352941 0.121569 0.615686 0.352941 
0.121569 0.615686 0.352941 0.121569 0.615686 0.352941 
0.121569 0.615686 0.352941 0.121569 0.615686 0.352941 
0.121569 0.615686 0.352941 0.121569 0.615686 0.352941 
0.121569 0.615686 0.352941 0.121569 0.615686 0.352941 
0.121569 0.615686 0.352941 0.121569 0.615686 0.352941 
0.121569 0.615686 0.352941 0.121569 0.615686 0.352941 
0.121569 0.615686 0.352941 0.121569 0.615686 0.352941 
0.121569 0.615686 0.352941 0.121569 0.615686 0.352941 
0.121569 0.615686 0.352941 0.121569 0.615686 0.352941 
0.121569 0.615686 0.352941 0.121569 0.615686 0.352941 
0.121569 0.615686 0.352941 0.121569 0.615686 0.352941 
0.121569 0.615686 0.352941 0.121569 0.615686 0.352941 
0.121569 0.615686 0.352941 0.121569 0.615686 0.352941 
0.121569 0.615686 0.352941 0.121569 0.615686 0.352941 
0.121569 0.615686 0.352941 0.121569 0.615686 0.352941 
0.121569 0.615686 0.352941 0.121569 0.615686 0.352941 
0.121569 0.615686 0.352941 0.121569 0.615686 0.352941 
0.121569 0.615686 0.352941 0.121569 0.615686 0.352941 
0.121569 0.615686 0.352941 0.121569 0.615686 0.352941 
0.121569 0.615686 0.352941 0.121569 0.615686 0.352941 
0.121569 0.615686 0.352941 0.121569 0.615686 0.352941 
0.121569 0.615686 0.352941 0.121569 0.615686 0.352941 
0.121569 0.615686 0.352941 0.121569 0.615686 0.352941 
0.121569 0.615686 0.352941 0.121569 0.615686 0.352941 
0.121569 0.615686 0.352941 0.121569 0.615686 0.352941 
0.121569 0.615686 0.352941 0.121569 0.615686 0.352941 
0.121569 0.615686 0.352941 0.121569 0.615686 0.352941 
0.121569 0.615686 0.352941 0.121569 0.615686 0.352941 
0.121569 0.615686 0.352941 0.121569 0.615686 0.352941 
0.121569 0.615686 0.352941 0.121569 0.615686 0.352941 
0.121569 0.615686 0.352941 0.121569 0.615686 0.352941 
0.121569 0.615686 0.352941 0.121569 0.615686 0.352941 
0.121569 0.615686 0.352941 0.121569 0.615686 0.352941 
0.121569 0.615686 0.352941 0.121569 0.615686 0.352941 
0.121569 0.615686 0.352941 0.121569 0.615686 0.352941 
0.121569 0.615686 0.352941 0.121569 0.615686 0.352941 
0.121569 0.615686 0.352941 0.121569 0.615686 0.352941 
0.121569 0.615686 0.352941 0.121569 0.615686 0.352941 
0.121569 0.615686 0.352941 0.121569 0.615686 0.352941 
0.121569 0.615686 0.352941 0.121569 0.615686 0.352941 
0.121569 0.615686 0.352941 0.121569 0.615686 0.352941 
0.121569 0.615686 0.352941 0.121569 0.615686 0.352941 
0.121569 0.615686 0.352941 0.121569 0.615686 0.352941 
0.121569 0.615686 0.352941 0.121569 0.615686 0.352941 
0.121569 0.615686 0.352941 0.121569 0.615686 0.352941 
0.121569 0.615686 0.352941 0.121569 0.615686 0.352941 
0.121569 0.615686 0.352941 0.121569 0.615686 0.352941 
0.121569 0.615686 0.352941 0.121569 0.615686 0.352941 
0.121569 0.615686 0.352941 0.121569 0.615686 0.352941 
0.121569 0.615686 0.352941 0.121569 0.615686 0.352941 
0.121569 0.615686 0.352941 0.121569 0.615686 0.352941 
0.121569 0.615686 0.352941 0.121569 0.615686 0.352941 
0.121569 0.615686 0.352941 0.121569 0.615686 0.352941 
0.121569 0.615686 0.352941 0.121569 0.615686 0.352941 
0.121569 0.615686 0.352941 0.121569 0.615686 0.352941 
0.121569 0.615686 0.352941 0.121569 0.615686 0.352941 