# vtk DataFile Version 4.2
vtk output
ASCII
DATASET POLYDATA
POINTS 3799 float
119.015 131.941 123.141 118.172 137.548 123.087 119.909 126.007 123.915 
119.825 125.54 124.027 120.166 125.606 124.055 119.896 127.138 123.768 
119.055 128.311 123.61 117.507 134.338 123.365 118.833 133.575 123.256 
119.984 134.182 123.494 118.84 135.883 123.264 116.738 138.602 123.493 
118.991 137.602 123.232 117.283 142.099 123.597 116.644 143.467 123.852 
117.908 142.689 123.629 116.595 145.144 124.059 117.76 144.678 123.896 
117 145.532 124.033 117.538 146.195 124.136 117.329 146.499 124.238 
120.153 124.057 124.519 119.917 123.473 124.714 120.462 123.335 124.778 
120.686 125.459 124.268 117.301 128.383 124.001 120.969 132.108 123.922 
116.154 135.046 123.768 119.906 142.813 124.112 119.024 145.459 124.318 
116.154 145.93 124.414 117.717 147.228 124.572 117.694 147.601 124.796 
118.029 147.494 124.779 117.462 147.772 124.976 121.697 119.909 125.934 
121.67 122.141 125.415 119.24 123.421 124.862 117.012 125.634 124.974 
115.149 144.668 124.763 118.824 146.797 124.704 116.528 147.64 125.241 
116.135 147.905 125.683 116.372 148.24 125.945 117.293 148.097 125.433 
118.638 148.407 125.742 120.928 119.387 126.121 119.475 120.599 125.905 
123.718 126.559 126.041 114.019 131.082 125.514 122.394 143.602 125.779 
115.39 147.234 125.676 115.059 147.3 126.165 119.526 148.548 126.345 
116.331 148.404 126.344 119.871 148.676 126.814 122.869 116.23 127.544 
123.039 116.844 127.389 123.962 117.789 127.529 123.453 122.694 126.264 
113.52 146.256 127.117 114.706 147.654 127.584 121.228 148.079 126.975 
115.702 148.252 127.281 116.945 148.797 127.029 123.73 113.779 128.666 
123.262 114.016 128.55 124.37 116.147 128.153 118.773 117.636 127.866 
110.476 138.304 127.859 111.76 144.687 128.082 122.683 147.34 127.63 
123.813 147.066 128.42 116.878 148.642 128.434 122.084 147.916 127.672 
119.516 148.996 128.142 120.42 148.872 127.829 125.772 110.568 130.149 
124.792 111.682 129.626 124.338 111.877 129.528 124.772 112.865 129.247 
124.85 114.613 128.787 110.589 142.986 128.563 126.734 142.902 128.883 
111.397 145.408 129.408 123.473 147.514 128.579 113.254 146.889 129.02 
113.707 147.167 129.193 118.993 148.687 129.251 118.852 149.012 128.192 
120.719 148.778 128.707 122.632 148.19 128.973 123.215 147.999 129.147 
125.745 109.768 130.57 125.297 109.933 130.477 125.667 111.619 129.913 
125.849 112.552 129.759 126.04 114.386 129.524 108.432 133.164 129.639 
128.238 137.766 129.691 127.719 143.958 129.828 126.926 145.3 129.7 
110.813 145.256 130.748 124.196 147.695 129.918 125.986 147.23 130.712 
125.245 147.533 130.331 126.309 108.002 131.568 126.774 108.909 131.257 
127.603 110.493 131.196 121.983 111.776 130.024 127.743 113.026 130.941 
110.084 125.79 129.954 128.751 145.29 131.186 110.261 144.901 131.08 
111.288 145.517 131.158 126.935 146.253 130.333 127.398 146.717 131.17 
126.976 147.045 131.412 126.413 106.655 132.359 130.195 138.782 131.612 
130.389 141.977 131.971 107.278 142.177 132.296 129.557 144.5 131.578 
110.483 144.847 132.231 112.254 145.768 131.822 128.343 146.349 131.621 
120.78 147.572 131.999 123.753 147.743 131.687 125.84 147.461 132.015 
126.821 147.254 132.074 128.496 146.734 132.464 128.701 105.228 133.46 
129.577 108.846 133.004 130.315 126.712 132.159 130.829 130.197 132.477 
131.351 130.572 133.362 130.785 132.169 132.438 130.983 137.683 133.391 
130.478 140.449 132.081 105.56 140.203 133.125 130.154 143.981 132.222 
108.199 143.321 133.323 111.457 144.992 132.93 130.473 143.966 132.985 
130.369 144.372 133.173 127.488 147.13 132.78 128.194 146.918 132.763 
130.139 104.162 134.499 130.47 106.805 134.028 109.524 117.906 133.722 
107.237 121.133 133.816 131.101 124.161 133.358 131.882 127.005 134.253 
103.86 129.58 134.05 131.231 132.916 133.381 131.337 132.866 134.014 
103.82 136.841 134.003 131.041 137.009 133.867 131.004 137.733 133.923 
130.9 138.113 134.301 130.846 140.361 133.645 130.716 140.944 134.119 
105.615 141.106 134.126 130.708 142.26 133.518 106.532 142.002 133.929 
109.948 143.708 134.414 130.616 143.12 133.455 124.344 147.07 133.526 
126.702 147.09 133.535 127.903 146.911 133.62 129.177 146.537 133.539 
129.172 146.459 133.748 129.609 146.252 133.354 129.913 102.012 135.503 
131.512 104.085 135.254 121.833 105.733 134.769 131.495 106.241 134.895 
132.347 121.447 135.106 131.89 124.997 134.297 132.096 125.613 134.639 
103.347 127.71 135.005 131.953 128.301 134.63 131.903 129.497 134.96 
131.445 132.052 134.616 131.084 135.638 134.322 130.771 136.554 134.998 
103.717 139.029 135.434 130.292 140.113 135.194 104.752 140.37 135.327 
105.098 140.781 135.493 130.383 142.445 134.489 129.633 145.833 133.863 
129.421 145.854 134.16 129.156 146.195 134.025 129.599 146.195 133.568 
131.101 100.777 136.372 132.196 101.473 136.396 127.581 101.666 135.969 
132.271 126.046 135.087 132.264 127.114 135.887 131.818 129.161 136.042 
131.542 130.675 135.578 131.082 132.025 135.929 130.09 136.992 135.999 
102.706 137.881 136.185 103.623 139.156 135.924 104.663 140.264 136.049 
105.839 141.33 135.718 106.036 141.31 136.077 129.178 143.04 135.8 
125.297 145.517 135.823 134.013 98.5404 138.256 131.505 99.3137 137.542 
133.417 99.7924 137.589 133.384 101.416 137.077 133.608 104.715 136.812 
133.82 116.479 136.759 105.096 118.222 137.127 103.818 121.649 136.705 
132.786 124.92 136.545 132.003 127.319 137.017 131.3 129.18 137.112 
130.798 130.1 137.291 131.479 129.853 136.384 100.974 133.952 137.384 
129.366 135.653 137.057 102.167 137.626 137.225 102.485 138.157 137.214 
102.777 138.536 137.437 103.321 139.042 137.054 105.223 140.607 136.502 
105.987 141.01 136.615 106.733 141.212 136.875 127.729 144.443 136.126 
126.79 145.32 135.738 133.342 98.0792 138.48 134.685 98.3909 138.622 
125.484 100.868 137.711 111.238 109.609 137.821 134.467 109.39 137.644 
134.77 116.016 137.847 133.579 122.345 137.526 132.696 125.141 137.214 
132.734 124.718 137.718 132.268 126.183 137.356 131.972 126.314 137.896 
131.393 127.21 138.127 100.921 129.469 137.541 129.318 133.572 137.592 
100.73 135.06 138.279 101.345 136.561 138.47 102.427 138.138 138.262 
105.065 139.751 138.264 103.713 139.291 137.586 127.809 141.6 137.342 
126.952 142.869 137.391 124.144 143.609 137.818 131.104 97.5627 139.083 
135.89 101.484 138.894 132.655 123.929 138.739 131.291 125.447 139.383 
131.861 125.888 138.374 129.224 130.863 138.544 99.9052 133.772 139.356 
101.189 136.477 139.468 125.038 142.796 138.219 133.866 96.2291 139.865 
130.187 97.118 139.871 132.55 122.589 140.296 99.9796 134.801 140.189 
102.109 137.443 139.626 110.25 139.947 140.058 125.218 142.094 138.574 
136.793 94.4432 141.643 137.431 95.0057 141.515 137.695 96.5892 141.051 
137.391 102.288 140.256 137.586 109.732 140.704 104.453 112.647 141.049 
137.366 114.181 140.985 136.462 116.081 140.409 134.898 119.2 140.697 
134.396 119.782 141.003 98.6637 127.871 141.215 99.4469 134.383 141.565 
138.457 93.9641 142.541 138.187 93.3891 142.818 137.204 115.738 142.107 
136.082 117.271 142.213 133.853 120.027 141.599 133.425 120.245 141.879 
99.5823 121.008 141.945 99.3723 134.44 142.225 100.034 135.172 142.151 
122.304 138.076 141.789 137.948 92.7253 143.259 137.301 92.5883 143.311 
139.893 92.5061 143.9 140.36 94.0289 143.492 139.511 109.685 142.841 
138.597 113.752 143.618 132.841 120.398 142.319 97.9137 130.612 142.497 
97.773 131.85 143.318 98.0433 132.702 143.478 121.883 134.271 143.279 
98.8568 134.042 144.042 100.567 135.256 143.315 101.215 135.554 143.273 
118.74 138.898 142.59 139.017 91.6831 144.269 141.051 91.3385 144.938 
137.066 92.258 143.632 137.223 91.9199 143.983 136.585 92.0254 143.983 
141.346 92.8466 144.427 140.982 94.0105 143.862 107.172 106.307 143.742 
140.052 110.569 144.02 139.112 112.581 143.343 138.106 114.476 143.475 
138.665 113.628 144.169 135.718 117.073 143.403 125.231 125.989 143.73 
120.971 135.552 143.483 115.899 137.919 143.626 120.45 138.138 142.641 
141.875 90.4568 145.639 141.385 90.0828 145.778 142.959 90.3857 146.06 
139.447 90.5715 145.312 142.619 91.2434 145.556 136.015 91.6874 144.556 
112.144 101.486 144.854 140.19 111.242 145.377 138.421 113.575 145.212 
137.544 114.609 144.771 134.967 116.266 145.248 132.498 117.289 145.919 
97.7271 133.083 145.164 100.057 134.725 144.723 111.939 136.206 145.214 
117.939 137.347 143.885 141.576 89.6675 146.132 134.204 91.7047 145.259 
143.252 93.2988 145.535 119.06 97.5661 145.313 142.249 104.163 144.932 
122.113 124.588 146.476 96.0989 130.474 145.936 99.3825 134.283 146.234 
117.623 136.351 144.64 144.381 87.564 148.216 142.764 88.4913 147.282 
143.77 88.4482 147.529 139.264 89.0375 147.043 143.355 106.788 146.895 
142.423 108.942 147.538 140.897 110.536 147.164 139.202 112.102 146.969 
136.452 113.805 147.379 95.6292 131.616 147.539 96.648 132.782 147.171 
106.021 134.362 147.626 116.165 133.965 146.621 113.607 134.981 146.619 
143.239 87.617 148.124 144.713 88.2427 147.977 145.626 89.1101 147.99 
146.041 94.5915 147.727 105.429 103.997 147.588 144.212 106.764 148.19 
115.765 132.894 147.484 108.036 133.985 148.46 114.892 133.702 147.376 
96.4689 133.307 148.796 98.4682 134.054 148.116 114.159 134.035 147.365 
147.355 85.6409 150.388 146.168 86.1049 149.876 145.547 105.026 148.932 
145.274 105.933 149.469 144.289 107.122 149.026 143.134 108.39 148.58 
141.593 109.57 149.084 124.546 119.649 148.97 116.86 127.105 149.523 
115.067 131.509 148.783 147.787 102.142 150.133 146.387 104.437 149.856 
145.205 106.189 150.107 95.7927 116.881 149.315 104.833 133.755 150.187 
109.267 133.356 149.685 111.543 132.595 150.1 95.1056 133.257 150.702 
112.905 132.635 149.347 147.899 84.5437 151.538 145.917 85.2673 150.637 
143.016 85.9106 150.272 148.634 86.4574 150.819 148.75 87.3521 150.618 
149.471 89.7348 150.813 148.476 102.802 151.443 146.354 104.977 150.844 
143.896 107.232 151.106 145.865 105.507 151.321 97.9525 109.137 151.28 
94.0681 131.441 150.619 110.521 132.451 150.954 103.147 134 151.046 
[...]
POINT_DATA 3799
COLOR_SCALARS scalars 3
0.121569 0.615686 0.352941 0.121569 0.615686 0.352941 0.121569 0.615686 0.352941 
0.121569 0.615686 0.352941 0.121569 0.615686 0.352941 
0.121569 0.615686 0.352941 0.121569 0.615686 0.352941 
0.121569 0.615686 0.352941 0.121569 0.615686 0.352941 
0.121569 0.615686 0.352941 0.121569 0.615686 0.352941 
0.121569 0.615686 0.352941 0.121569 0.615686 0.352941 
0.121569 0.615686 0.352941 0.121569 0.615686 0.352941 
0.121569 0.615686 0.352941 0.121569 0.615686 0.352941 
0.121569 0.615686 0.352941 0.121569 0.615686 0.352941 
0.121569 0.615686 0.352941 0.121569 0.615686 0.352941 
0.121569 0.615686 0.352941 0.121569 0.615686 0.352941 
0.121569 0.615686 0.352941 0.121569 0.615686 0.352941 
0.121569 0.615686 0.352941 0.121569 0.615686 0.352941 
0.121569 0.615686 0.352941 0.121569 0.615686 0.352941 
0.121569 0.615686 0.352941 0.121569 0.615686 0.352941 
0.121569 0.615686 0.352941 0.121569 0.615686 0.352941 
0.121569 0.615686 0.352941 0.121569 0.615686 0.352941 
0.121569 0.615686 0.352941 0.121569 0.615686 0.352941 
0.121569 0.615686 0.352941 0.121569 0.615686 0.352941 
0.121569 0.615686 0.352941 0.121569 0.615686 0.352941 
0.121569 0.615686 0.352941 0.121569 0.615686 0.352941 
0.121569 0.615686 0.352941 0.121569 0.615686 0.352941 
0.121569 0.615686 0.352941 0.121569 0.615686 0.352941 
0.121569 0.615686 0.352941 0.121569 0.615686 0.352941 
0.121569 0.615686 0.352941 0.121569 0.615686 0.352941 
0.121569 0.615686 0.352941 0.121569 0.615686 0.352941 
0.121569 0.615686 0.352941 0.121569 0.615686 0.352941 
0.121569 0.615686 0.352941 0.121569 0.615686 0.352941 
0.121569 0.615686 0.352941 0.121569 0.615686 0.352941 
0.121569 0.615686 0.352941 0.121569 0.615686 0.352941 
0.121569 0.615686 0.352941 0.121569 0.615686 0.352941 
0.121569 0.615686 0.352941 0.121569 0.615686 0.352941 
0.121569 0.615686 0.352941 0.121569 0.615686 0.352941 
0.121569 0.615686 0.352941 0.121569 0.615686 0.352941 
0.121569 0.615686 0.352941 0.121569 0.615686 0.352941 
0.121569 0.615686 0.352941 0.121569 0.615686 0.352941 
0.121569 0.615686 0.352941 0.121569 0.615686 0.352941 
0.121569 0.615686 0.352941 0.121569 0.615686 0.352941 
0.121569 0.615686 0.352941 0.121569 0.615686 0.352941 
0.121569 0.615686 0.352941 0.121569 0.615686 0.352941 
0.121569 0.615686 0.352941 0.121569 0.615686 0.352941 
0.121569 0.615686 0.352941 0.121569 0.615686 0.352941 
0.121569 0.615686 0.352941 0.121569 0.615686 0.352941 
0.121569 0.615686 0.352941 0.121569 0.615686 0.352941 
0.121569 0.615686 0.352941 0.121569 0.615686 0.352941 
0.121569 0.615686 0.352941 0.121569 0.615686 0.352941 
0.121569 0.615686 0.352941 0.121569 0.615686 0.352941 
0.121569 0.615686 0.352941 0.121569 0.615686 0.352941 
0.121569 0.615686 0.352941 0.121569 0.615686 0.352941 
0.121569 0.615686 0.352941 0.121569 0.615686 0.352941 
0.121569 0.615686 0.352941 0.121569 0.615686 0.352941 
0.121569 0.615686 0.352941 0.121569 0.615686 0.352941 
0.121569 0.615686 0.352941 0.121569 0.615686 0.352941 
0.121569 0.615686 0.352941 0.121569 0.615686 0.352941 
0.121569 0.615686 0.352941 0.121569 0.615686 0.352941 
0.121569 0.615686 0.352941 0.121569 0.615686 0.352941 
0.121569 0.615686 0.352941 0.121569 0.615686 0.352941 
0.121569 0.615686 0.352941 0.121569 0.615686 0.352941 
0.121569 0.615686 0.352941 0.121569 0.615686 0.352941 
0.121569 0.615686 0.352941 0.121569 0.615686 0.352941 
0.121569 0.615686 0.352941 0.121569 0.615686 0.352941 
0.121569 0.615686 0.352941 0.121569 0.615686 0.352941 
0.121569 0.615686 0.352941 0.121569 0.615686 0.352941 
0.121569 0.615686 0.352941 0.121569 0.615686 0.352941 
0.121569 0.615686 0.352941 0.121569 0.615686 0.352941 
0.121569 0.615686 0.352941 0.121569 0.615686 0.352941 
0.121569 0.615686 0.352941 0.121569 0.615686 0.352941 
0.121569 0.615686 0.352941 0.121569 0.615686 0.352941 
0.121569 0.615686 0.352941 0.121569 0.615686 0.352941 
0.121569 0.615686 0.352941 0.121569 0.615686 0.352941 
0.121569 0.615686 0.352941 0.121569 0.615686 0.352941 
0.121569 0.615686 0.352941 0.121569 0.615686 0.352941 
0.121569 0.615686 0.352941 0.121569 0.615686 0.352941 
0.121569 0.615686 0.352941 0.121569 0.615686 0.352941 
0.121569 0.615686 0.352941 0.121569 0.615686 0.352941 
0.121569 0.615686 0.352941 0.121569 0.615686 0.352941 
0.121569 0.615686 0.352941 0.121569 0.615686 0.352941 
0.121569 0.615686 0.352941 0.121569 0.615686 0.352941 
0.121569 0.615686 0.352941 0.121569 0.615686 0.352941 
0.121569 0.615686 0.352941 0.121569 0.615686 0.352941 
0.121569 0.615686 0.352941 0.121569 0.615686 0.352941 
0.121569 0.615686 0.352941 0.121569 0.615686 0.352941 
0.121569 0.615686 0.352941 0.121569 0.615686 0.352941 
0.121569 0.615686 0.352941 0.121569 0.615686 0.352941 
0.121569 0.615686 0.352941 0.121569 0.615686 0.352941 
0.121569 0.615686 0.352941 0.121569 0.615686 0.352941 
0.121569 0.615686 0.352941 0.121569 0.615686 0.352941 
0.121569 0.615686 0.352941 0.121569 0.615686 0.352941 
0.121569 0.615686 0.352941 0.121569 0.615686 0.352941 
0.121569 0.615686 0.352941 0.121569 0.615686 0.352941 
0.121569 0.615686 0.352941 0.121569 0.615686 0.352941 
0.121569 0.615686 0.352941 0.121569 0.615686 0.352941 
0.121569 0.615686 0.352941 0.121569 0.615686 0.352941 
0.121569 0.615686 0.352941 0.121569 0.615686 0.352941 
0.121569 0.615686 0.352941 0.121569 0.615686 0.352941 
0.121569 0.615686 0.352941 0.121569 0.615686 0.352941 
0.121569 0.615686 0.352941 0.121569 0.615686 0.352941 
0.121569 0.615686 0.352941 0.121569 0.615686 0.352941 
0.121569 0.615686 0.352941 0.121569 0.615686 0.352941 
0.121569 0.615686 0.352941 0.121569 0.615686 0.352941 
0.121569 0.615686 0.352941 0.121569 0.615686 0.352941 
0.121569 0.615686 0.352941 0.121569 0.615686 0.352941 
0.121569 0.615686 0.352941 0.121569 0.615686 0.352941 
0.121569 0.615686 0.352941 0.121569 0.615686 0.352941 
0.121569 0.615686 0.352941 0.121569 0.615686 0.352941 
0.121569 0.615686 0.352941 0.121569 0.615686 0.352941 
0.121569 0.615686 0.352941 0.121569 0.615686 0.352941 
0.121569 0.615686 0.352941 0.121569 0.615686 0.352941 
0.121569 0.615686 0.352941 0.121569 0.615686 0.352941 
0.121569 0.615686 0.352941 0.121569 0.615686 0.352941 
0.121569 0.615686 0.352941 0.121569 0.615686 0.352941 
0.121569 0.615686 0.352941 0.121569 0.615686 0.352941 
0.121569 0.615686 0.352941 0.121569 0.615686 0.352941 
0.121569 0.615686 0.352941 0.121569 0.615686 0.352941 
0.121569 0.615686 0.352941 0.121569 0.615686 0.352941 
0.121569 0.615686 0.352941 0.121569 0.615686 0.352941 
0.121569 0.615686 0.352941 0.121569 0.615686 0.352941 
0.121569 0.615686 0.352941 0.121569 0.615686 0.352941 
0.121569 0.615686 0.352941 0.121569 0.615686 0.352941 
0.121569 0.615686 0.352941 0.121569 0.615686 0.352941 
0.121569 0.615686 0.352941 0.121569 0.615686 0.352941 
0.121569 0.615686 0.352941 0.121569 0.615686 0.352941 
0.121569 0.615686 0.352941 0.121569 0.615686 0.352941 
0.121569 0.615686 0.352941 0.121569 0.615686 0.352941 
0.121569 0.615686 0.352941 0.121569 0.615686 0.352941 
0.121569 0.615686 0.352941 0.121569 0.615686 0.352941 
0.121569 0.615686 0.352941 0.121569 0.615686 0.352941 
0.121569 0.615686 0.352941 0.121569 0.615686 0.352941 
0.121569 0.615686 0.352941 0.121569 0.615686 0.352941 
0.121569 0.615686 0.352941 0.121569 0.615686 0.352941 
0.121569 0.615686 0.352941 0.121569 0.615686 0.352941 
0.121569 0.615686 0.352941 0.121569 0.615686 0.352941 
0.121569 0.615686 0.352941 0.121569 0.615686 0.352941 
0.121569 0.615686 0.352941 0.121569 0.615686 0.352941 
0.121569 0.615686 0.352941 0.121569 0.615686 0.352941 
0.121569 0.615686 0.352941 0.121569 0.615686 0.352941 
0.121569 0.615686 0.352941 0.121569 0.615686 0.352941 
0.121569 0.615686 0.352941 0.121569 0.615686 0.352941 
0.121569 0.615686 0.352941 0.121569 0.615686 0.352941 
0.121569 0.615686 0.352941 0.121569 0.615686 0.352941 
0.121569 0.615686 0.352941 0.121569 0.615686 0.352941 
0.121569 0.615686 0.352941 0.121569 0.615686 0.352941 
0.121569 0.615686 0.352941 0.121569 0.615686 0.352941 
0.121569 0.615686 0.352941 0.121569 0.615686 0.352941 
0.121569 0.615686 0.352941 0.121569 0.615686 0.352941 
0.121569 0.615686 0.352941 0.121569 0.615686 0.352941 
0.121569 0.615686 0.352941 0.121569 0.615686 0.352941 
0.121569 0.615686 0.352941 0.121569 0.615686 0.352941 
0.121569 0.615686 0.352941 0.121569 0.615686 0.352941 
0.121569 0.615686 0.352941 0.121569 0.615686 0.352941 
0.121569 0.615686 0.352941 0.121569 0.615686 0.352941 
0.121569 0.615686 0.352941 0.121569 0.615686 0.352941 
0.121569 0.615686 0.352941 0.121569 0.615686 0.352941 
0.121569 0.615686 0.352941 0.121569 0.615686 0.352941 
0.121569 0.615686 0.352941 0.121569 0.615686 0.352941 
0.121569 0.615686 0.352941 0.121569 0.615686 0.352941 
0.121569 0.615686 0.352941 0.121569 0.615686 0.352941 
0.121569 0.615686 0.352941 0.121569 0.615686 0.352941 
0.121569 0.615686 0.352941 0.121569 0.615686 0.352941 
0.121569 0.615686 0.352941 0.121569 0.615686 0.352941 
0.121569 0.615686 0.352941 0.121569 0.615686 0.352941 
0.121569 0.615686 0.352941 0.121569 0.615686 0.352941 
0.121569 0.615686 0.352941 0.121569 0.615686 0.352941 
0.121569 0.615686 0.352941 0.121569 0.615686 0.352941 
0.121569 0.615686 0.352941 0.121569 0.615686 0.352941 
0.121569 0.615686 0.352941 0.121569 0.615686 0.352941 
0.121569 0.615686 0.352941 0.121569 0.615686 0.352941 
0.121569 0.615686 0.352941 0.121569 0.615686 0.352941 
0.121569 0.615686 0.352941 0.121569 0.615686 0.352941 
0.121569 0.615686 0.352941 0.121569 0.615686 0.352941 
0.121569 0.615686 0.352941 0.121569 0.615686 0.352941 
0.121569 0.615686 0.352941 0.121569 0.615686 0.352941 
0.121569 0.615686 0.352941 0.121569 0.615686 0.352941 
0.121569 0.615686 0.352941 0.121569 0.615686 0.352941 
0.121569 0.615686 0.352941 0.121569 0.615686 0.352941 
0.121569 0.615686 0.352941 0.121569 0.615686 0.352941 
0.121569 0.615686 0.352941 0.121569 0.615686 0.352941 
0.121569 0.615686 0.352941 0.121569 0.615686 0.352941 
0.121569 0.615686 0.352941 0.121569 0.615686 0.352941 
0.121569 0.615686 0.352941 0.121569 0.615686 0.352941 
0.121569 0.615686 0.352941 0.121569 0.615686 0.352941 
0.121569 0.615686 0.352941 0.121569 0.615686 0.352941 
0.121569 0.615686 0.352941 0.121569 0.615686 0.352941 
0.121569 0.615686 0.352941 0.121569 0.615686 0.352941 
0.121569 0.615686 0.352941 0.121569 0.615686 0.352941 
0.121569 0.615686 0.352941 0.121569 0.615686 0.352941 
0.121569 0.615686 0.352941 0.121569 0.615686 0.352941 
0.121569 0.615686 0.352941 0.121569 0.615686 0.352941 
0.121569 0.615686 0.352941 0.121569 0.615686 0.352941 
0.121569 0.615686 0.352941 0.121569 0.615686 0.352941 
0.121569 0.615686 0.352941 0.121569 0.615686 0.352941 
0.121569 0.615686 0.352941 0.121569 0.615686 0.352941 
0.121569 0.615686 0.352941 0.121569 0.615686 0.352941 
0.121569 0.615686 0.352941 0.121569 0.615686 0.352941 
0.121569 0.615686 0.352941 0.121569 0.615686 0.352941 
0.121569 0.615686 0.352941 0.121569 0.615686 0.352941 
0.121569 0.615686 0.352941 0.121569 0.615686 0.352941 
0.121569 0.615686 0.352941 0.121569 0.615686 0.352941 
0.121569 0.615686 0.352941 0.121569 0.615686 0.352941 
0.121569 0.615686 0.352941 0.121569 0.615686 0.352941 
0.121569 0.615686 0.352941 0.121569 0.615686 0.352941 
0.121569 0.615686 0.352941 0.121569 0.615686 0.352941 
0.121569 0.615686 0.352941 0.121569 0.615686 0.352941 
0.121569 0.615686 0.352941 0.121569 0.615686 0.352941 
0.121569 0.615686 0.352941 0.121569 0.615686 0.352941 
0.121569 0.615686 0.352941 0.121569 0.615686 0.352941 
0.121569 0.615686 0.352941 0.121569 0.615686 0.352941 
0.121569 0.615686 0.352941 0.121569 0.615686 0.352941 
0.121569 0.615686 0.352941 0.121569 0.615686 0.352941 
0.121569 0.615686 0.352941 0.121569 0.615686 0.352941 
0.121569 0.615686 0.352941 0.121569 0.615686 0.352941 
0.121569 0.615686 0.352941 0.121569 0.615686 0.352941 
0.121569 0.615686 0.352941 0.121569 0.615686 0.352941 
0.121569 0.615686 0.352941 0.121569 0.615686 0.352941 
0.121569 0.615686 0.352941 0.121569 0.615686 0.352941 
0.121569 0.615686 0.352941 0.121569 0.615686 0.352941 
0.121569 0.615686 0.352941 0.121569 0.615686 0.352941 
0.121569 0.615686 0.352941 0.121569 0.615686 0.352941 
0.121569 0.615686 0.352941 0.121569 0.615686 0.352941 
0.121569 0.615686 0.352941 0.121569 0.615686 0.352941 
0.121569 0.615686 0.352941 0.121569 0.615686 0.352941 
0.121569 0.615686 0.352941 0.121569 0.615686 0.352941 
0.121569 0.615686 0.352941 0.121569 0.615686 0.352941 
0.121569 0.615686 0.352941 0.121569 0.615686 0.352941 
0.121569 0.615686 0.352941 0.121569 0.615686 0.352941 
0.121569 0.615686 0.352941 0.121569 0.615686 0.352941 
0.121569 0.615686 0.352941 0.121569 0.615686 0.352941 
0.121569 0.615686 0.352941 0.121569 0.615686 0.352941 
0.121569 0.615686 0.352941 0.121569 0.615686 0.352941 
0.121569 0.615686 0.352941 0.121569 0.615686 0.352941 
0.121569 0.615686 0.352941 0.121569 0.615686 0.352941 
0.121569 0.615686 0.352941 0.121569 0.615686 0.352941 
0.121569 0.615686 0.352941 0.121569 0.615686 0.352941 
0.121569 0.615686 0.352941 0.121569 0.615686 0.352941 
0.121569 0.615686 0.352941 0.121569 0.615686 0.352941 
0.121569 0.615686 0.352941 0.121569 0.615686 0.352941 
0.121569 0.615686 0.352941 0.121569 0.615686 0.352941 
0.121569 0.615686 0.352941 0.121569 0.615686 0.352941 
0.121569 0.615686 0.352941 0.121569 0.615686 0.352941 
0.121569 0.615686 0.352941 0.121569 0.615686 0.352941 
0.121569 0.615686 0.352941 0.121569 0.615686 0.352941 
0.121569 0.615686 0.352941 0.121569 0.615686 0.352941 
0.121569 0.615686 0.352941 0.121569 0.615686 0.352941 
0.121569 0.615686 0.352941 0.121569 0.615686 0.352941 
0.121569 0.615686 0.352941 0.121569 0.615686 0.352941 
0.121569 0.615686 0.352941 0.121569 0.615686 0.352941 
0.121569 0.615686 0.352941 0.121569 0.615686 0.352941 
0.121569 0.615686 0.352941 0.121569 0.615686 0.352941 
0.121569 0.615686 0.352941 0.121569 0.615686 0.352941 
0.121569 0.615686 0.352941 0.121569 0.615686 0.352941 
0.121569 0.615686 0.352941 0.121569 0.615686 0.352941 
0.121569 0.615686 0.352941 0.121569 0.615686 0.352941 
0.121569 0.615686 0.352941 0.121569 0.615686 0.352941 
0.121569 0.615686 0.352941 0.121569 0.615686 0.352941 
0.121569 0.615686 0.352941 0.121569 0.615686 0.352941 
0.121569 0.615686 0.352941 0.121569 0.615686 0.352941 
0.121569 0.615686 0.352941 0.121569 0.615686 0.352941 
0.121569 0.615686 0.352941 0.121569 0.615686 0.352941 
0.121569 0.615686 0.352941 0.121569 0.615686 0.352941 
0.121569 0.615686 0.352941 0.121569 0.615686 0.352941 
0.121569 0.615686 0.352941 0.121569 0.615686 0.352941 
0.121569 0.615686 0.352941 0.121569 0.615686 0.352941 
0.121569 0.615686 0.352941 0.121569 0.615686 0.352941 
0.121569 0.615686 0.352941 0.121569 0.615686 0.352941 
0.121569 0.615686 0.352941 0.121569 0.615686 0.352941 
0.121569 0.615686 0.352941 0.121569 0.615686 0.352941 
0.121569 0.615686 0.352941 0.121569 0.615686 0.352941 
0.121569 0.615686 0.352941 0.121569 0.615686 0.352941 
0.121569 0.615686 0.352941 0.121569 0.615686 0.352941 
0.121569 0.615686 0.352941 0.121569 0.615686 0.352941 
0.121569 0.615686 0.352941 0.121569 0.615686 0.352941 
0.121569 0.615686 0.352941 0.121569 0.615686 0.352941 
0.121569 0.615686 0.352941 0.121569 0.615686 0.352941 
0.121569 0.615686 0.352941 0.121569 0.615686 0.352941 
0.121569 0.615686 0.352941 0.121569 0.615686 0.352941 
0.121569 0.615686 0.352941 0.121569 0.615686 0.352941 
0.121569 0.615686 0.352941 0.121569 0.615686 0.352941 
0.121569 0.615686 0.352941 0.121569 0.615686 0.352941 
0.121569 0.615686 0.352941 0.121569 0.615686 0.352941 
0.121569 0.615686 0.352941 0.121569 0.615686 0.352941 
0.121569 0.615686 0.352941 0.121569 0.615686 0.352941 
0.121569 0.615686 0.352941 0.121569 0.615686 0.352941 
0.121569 0.615686 0.352941 0.121569 0.615686 0.352941 
0.121569 0.615686 0.352941 0.121569 0.615686 0.352941 
0.121569 0.615686 0.352941 0.121569 0.615686 0.352941 
0.121569 0.615686 0.352941 0.121569 0.615686 0.352941 
0.121569 0.615686 0.352941 0.121569 0.615686 0.352941 
0.121569 0.615686 0.352941 0.121569 0.615686 0.352941 
0.121569 0.615686 0.352941 0.121569 0.615686 0.352941 
0.121569 0.615686 0.352941 0.121569 0.615686 0.352941 
0.121569 0.615686 0.352941 0.121569 0.615686 0.352941 
0.121569 0.615686 0.352941 0.121569 0.615686 0.352941 
0.121569 0.615686 0.352941 0.121569 0.615686 0.352941 
0.121569 0.615686 0.352941 0.121569 0.615686 0.352941 
0.121569 0.615686 0.352941 0.121569 0.615686 0.352941 
0.121569 0.615686 0.352941 0.121569 0.615686 0.352941 
0.121569 0.615686 0.352941 0.121569 0.615686 0.352941 
0.121569 0.615686 0.352941 0.121569 0.615686 0.352941 
0.121569 0.615686 0.352941 0.121569 0.615686 0.352941 
0.121569 0.615686 0.352941 0.121569 0.615686 0.352941 
0.121569 0.615686 0.352941 0.121569 0.615686 0.352941 
0.121569 0.615686 0.352941 0.121569 0.615686 0.352941 
0.121569 0.615686 0.352941 0.121569 0.615686 0.352941 
0.121569 0.615686 0.352941 0.121569 0.615686 0.352941 
0.121569 0.615686 0.352941 0.121569 0.615686 0.352941 
0.121569 0.615686 0.352941 0.121569 0.615686 0.352941 
0.121569 0.615686 0.352941 0.121569 0.615686 0.352941 
0.121569 0.615686 0.352941 0.121569 0.615686 0.352941 
0.121569 0.615686 0.352941 0.121569 0.615686 0.352941 
0.121569 0.615686 0.352941 0.121569 0.615686 0.352941 
0.121569 0.615686 0.352941 0.121569 0.615686 0.352941 
0.121569 0.615686 0.352941 0.121569 0.615686 0.352941 
0.121569 0.615686 0.352941 0.121569 0.615686 0.352941 
0.121569 0.615686 0.352941 0.121569 0.615686 0.352941 
0.121569 0.615686 0.352941 0.121569 0.615686 0.352941 
0.121569 0.615686 0.352941 0.121569 0.615686 0.352941 
0.121569 0.615686 0.352941 0.121569 0.615686 0.352941 
0.121569 0.615686 0.352941 0.121569 0.615686 0.352941 
0.121569 0.615686 0.352941 0.121569 0.615686 0.352941 
0.121569 0.615686 0.352941 0.121569 0.615686 0.352941 
0.121569 0.615686 0.352941 0.121569 0.615686 0.352941 
0.121569 0.615686 0.352941 0.121569 0.615686 0.352941 
0.121569 0.615686 0.352941 0.121569 0.615686 0.352941 
0.121569 0.615686 0.352941 0.121569 0.615686 0.352941 
0.121569 0.615686 0.352941 0.121569 0.615686 0.352941 
0.121569 0.615686 0.352941 0.121569 0.615686 0.352941 
0.121569 0.615686 0.352941 0.121569 0.615686 0.352941 
0.121569 0.615686 0.352941 0.121569 0.615686 0.352941 
0.121569 0.615686 0.352941 0.121569 0.615686 0.352941 
0.121569 0.615686 0.352941 0.121569 0.615686 0.352941 
0.121569 0.615686 0.352941 0.121569 0.615686 0.352941 
0.121569 0.615686 0.352941 0.121569 0.615686 0.352941 
0.121569 0.615686 0.352941 0.121569 0.615686 0.352941 
0.121569 0.615686 0.352941 0.121569 0.615686 0.352941 
0.121569 0.615686 0.352941 0.121569 0.615686 0.352941 
0.121569 0.615686 0.352941 0.121569 0.615686 0.352941 
0.121569 0.615686 0.352941 0.121569 0.615686 0.352941 
0.121569 0.615686 0.352941 0.121569 0.615686 0.352941 
0.121569 0.615686 0.352941 0.121569 0.615686 0.352941 
0.121569 0.615686 0.352941 0.121569 0.615686 0.352941 
0.121569 0.615686 0.352941 0.121569 0.615686 0.352941 
0.121569 0.615686 0.352941 0.121569 0.615686 0.352941 
0.121569 0.615686 0.352941 0.121569 0.615686 0.352941 
0.121569 0.615686 0.352941 0.121569 0.615686 0.352941 
0.121569 0.615686 0.352941 0.121569 0.615686 0.352941 
0.121569 0.615686 0.352941 0.121569 0.615686 0.352941 
0.121569 0.615686 0.352941 0.121569 0.615686 0.352941 
0.121569 0.615686 0.352941 0.121569 0.615686 0.352941 
0.121569 0.615686 0.352941 0.121569 0.615686 0.352941 
0.121569 0.615686 0.352941 0.121569 0.615686 0.352941 
0.121569 0.615686 0.352941 0.121569 0.615686 0.352941 
0.121569 0.615686 0.352941 0.121569 0.615686 0.352941 
0.121569 0.615686 0.352941 0.121569 0.615686 0.352941 
0.121569 0.615686 0.352941 0.121569 0.615686 0.352941 
0.121569 0.615686 0.352941 0.121569 0.615686 0.352941 
0.121569 0.615686 0.352941 0.121569 0.615686 0.352941 
0.121569 0.615686 0.352941 0.121569 0.615686 0.352941 
0.121569 0.615686 0.352941 0.121569 0.615686 0.352941 
0.121569 0.615686 0.352941 0.121569 0.615686 0.352941 
0.121569 0.615686 0.352941 0.121569 0.615686 0.352941 
0.121569 0.615686 0.352941 0.121569 0.615686 0.352941 
0.121569 0.615686 0.352941 0.121569 0.615686 0.352941 