# vtk DataFile Version 4.2
vtk output
ASCII
DATASET POLYDATA
POINTS 2478 float
133.432 141.278 134.259 132.946 134.474 135.034 133.517 135.109 134.947 
133.601 136.868 134.734 131.961 137.645 134.754 133.063 138.287 134.526 
133.561 138.587 134.515 133.21 139.499 134.402 133.514 140.094 134.365 
133.18 142.823 134.51 132.473 144.011 134.758 133.706 144.388 134.785 
132.93 145.975 135.179 133.95 145.647 135.132 132.473 146.069 135.163 
132.518 146.172 135.198 133.887 129.838 136.149 131.215 136.755 135.143 
135.285 137.967 135.101 131.274 138.833 134.954 134.924 142.087 134.736 
135.692 143.486 135.172 131.527 144.505 135.309 131.575 145.414 136.009 
135 145.121 135.261 132.166 145.842 135.538 132.014 145.877 135.978 
132.831 146.259 135.559 133.402 146.548 135.797 133.402 146.47 135.567 
133.773 146.479 135.545 133.683 146.609 135.728 134.42 146.628 135.838 
135.816 131.265 136.441 132.022 132.288 135.759 129.743 136.612 136.043 
130.076 139.774 135.623 130.262 142.643 135.791 130.729 144.929 136.871 
136.706 145.28 136.229 135.414 145.942 135.868 135.245 146.376 136.204 
134.715 146.607 136.012 134.394 127.079 137.458 135.686 127.861 137.473 
131.447 129.91 136.796 130.23 131.375 136.952 137.285 137.368 136.305 
129.147 141.591 136.605 129.31 142.48 136.723 129.303 143.56 137.456 
129.828 144.071 137.143 129.808 144.398 137.503 130.339 144.708 137.52 
129.914 144.557 137.565 129.776 144.477 137.609 134.125 146.605 137.024 
138.184 145.862 137.503 135.083 146.608 136.835 136.164 146.418 136.995 
136.795 146.283 136.972 136.893 146.453 137.315 137.166 146.409 137.281 
137.453 146.394 137.425 135.199 125.257 138.345 136.075 126.67 138.086 
131.528 127.279 137.959 136.653 127.885 137.962 137.719 129.566 138.17 
127.943 135.995 137.555 128.459 142.289 137.809 128.252 142.593 138.602 
129.127 143.746 138.661 139.669 144.822 137.835 129.794 144.361 138.137 
129.863 144.513 137.698 133.981 146.226 138.151 138.181 146.364 138.178 
138.918 146.402 138.467 139.05 146.373 138.437 135.929 122.076 139.908 
134.811 122.596 139.525 134.804 124.078 138.826 126.449 138.913 138.82 
126.904 141.302 139.354 142.197 142.149 139.058 131.65 144.948 139.288 
139.997 146.073 138.772 142.224 145.92 139.736 139.338 146.381 138.915 
141.261 146.238 139.657 133.179 122.479 140.013 129.008 143.455 139.728 
139.774 146.44 140.171 143.031 146.124 140.166 143.582 146.305 140.659 
141.103 146.43 140.162 142.118 146.357 140.206 142.709 146.341 140.178 
142.809 146.484 140.442 143.229 146.414 140.358 143.051 146.442 140.275 
143.177 146.51 140.341 142.976 146.501 140.342 143.13 146.53 140.368 
134.705 120.383 141.137 138.478 122.739 140.865 125.931 129.013 141.022 
124.049 136.399 140.971 125.407 140.763 141.415 125.703 141.002 141.112 
145.568 144.638 141.15 139.956 146.316 140.992 141.766 146.486 141.303 
144.59 146.271 141.178 143.063 146.524 141.029 143.26 146.491 140.435 
145.125 146.477 141.513 145.485 146.487 141.649 145.359 146.632 141.766 
145.652 146.616 141.857 137.064 118.152 142.516 129.97 122.652 141.798 
122.888 136.226 142.131 124.039 139.193 142.16 124.085 139.601 142.501 
124.617 139.973 142.43 124.205 139.787 142.527 124.076 139.699 142.589 
125.692 141.02 141.5 126.071 141.21 141.824 141.98 146.363 142.095 
143.26 146.577 141.81 143.718 146.58 142.313 144.976 146.662 142.258 
145.299 146.694 141.98 146.392 146.406 142.345 145.623 146.689 142.018 
138.467 116.59 143.609 139.341 116.332 143.836 139.135 117.668 143.177 
140.472 117.645 143.752 122.575 137.142 142.838 122.798 137.865 143.065 
125.369 140.321 143.171 144.869 146.536 143.209 146.038 146.622 142.782 
145.913 146.644 142.279 147.55 146.505 143.367 148.232 146.156 143.524 
147.635 146.482 143.272 137.463 116.094 144.026 141.606 118.164 144.303 
146.075 135.493 143.277 121.487 136.151 143.813 122.142 137.51 143.945 
148.664 140.92 143.776 149.092 144.635 143.772 149.23 145.767 144.102 
149.213 146.037 144.092 149.305 145.969 144.175 147.743 146.407 143.887 
149.057 146.161 144.064 149.232 146.096 144.225 149.305 146.035 144.2 
148.907 146.251 144.123 149.093 146.19 144.24 140.069 114.781 145.016 
120.46 128.345 145.067 119.609 133.549 144.999 147.947 135.228 145.084 
119.979 135.639 145.499 119.932 135.779 145.779 120.242 135.973 145.557 
120.827 136.446 145.603 122.254 137.71 144.917 149.362 142.955 144.221 
149.79 143.718 145.107 144.275 145.985 144.492 149.736 144.073 145.243 
147.617 146.362 144.396 148.004 146.244 144.662 149.309 145.858 144.328 
148.995 145.953 144.735 137.684 113.723 146.137 121.439 124.643 146.101 
148.348 133.571 146.239 118.835 134.148 146.119 119.106 134.824 146.234 
119.029 134.945 146.667 119.816 135.73 146.157 120.443 136.258 146.084 
121.1 136.584 146.309 149.062 136.482 145.756 121.667 137.025 145.879 
149.707 138.013 146.072 150.058 139.878 146.304 150.049 142.481 146.341 
150.139 141.951 146.314 149.87 143.248 146.164 144.016 145.272 145.785 
148.573 145.858 145.338 149.09 145.59 145.204 143.892 110.815 148.132 
117.259 130.815 147.357 118.904 134.829 147.142 150.252 137.075 147.484 
150.284 138.421 147.277 150.21 139.377 146.792 150.163 141.35 146.399 
145.11 145.148 146.474 149.296 144.554 146.132 147.521 145.544 146.156 
147.854 145.245 146.525 149.049 145.236 145.727 148.846 145.657 145.441 
144.786 109.508 149.08 144.582 109.398 149.157 144.98 109.354 149.275 
143.258 110.37 148.356 144.892 109.75 149.004 144.71 110.971 148.324 
144.79 111.387 148.186 116.89 131.884 148.008 116.677 132.092 148.496 
149.771 133.426 148.061 150.421 138.018 148.207 148.418 144.949 146.601 
145.381 108.967 149.665 145.105 108.668 149.784 137.683 111.697 148.761 
115.804 129.706 149.175 116.406 132.404 149.936 150.235 138.857 149 
149.41 141.687 149.013 143.736 143.381 148.805 148.991 142.709 148.642 
147.025 144.191 148.187 144.969 108.47 149.94 139.212 110.419 149.637 
150.528 132.682 149.621 150.643 135.318 149.882 149.692 139.936 149.983 
148.238 142.468 149.763 146.26 143.204 149.715 114.747 127 151.034 
114.239 128.38 151.199 114.514 129.42 150.908 114.456 131.135 152.164 
150.766 132.247 150.257 150.982 131.885 150.852 116.993 132.804 151.03 
117.575 133.069 151.12 148.98 140.232 151.117 148.263 141.684 150.569 
149.21 105.398 152.871 146.948 106.298 152.028 142.799 107.65 151.524 
113.65 130.035 152.342 151.196 131.773 151.909 150.111 136.842 151.409 
150.396 104.414 153.829 150.995 104.607 153.906 151.101 105.294 153.609 
151.001 125.198 152.062 151.817 126.576 153.23 112.585 129.281 153.521 
112.347 128.866 153.845 151.11 131.97 153.171 113.747 131.259 153.776 
116.068 132.225 153.387 122.982 133.719 153.129 147.962 140.082 152.518 
145.624 141.52 152.194 149.654 103.907 154.133 113.786 123.309 154.246 
151.803 125.87 153.137 112.361 127.228 154.061 112.046 129.45 154.72 
112.16 129.986 154.924 151.374 130.602 153.682 112.801 130.582 154.232 
114.489 131.833 154.475 149.685 135.09 153.865 147.141 139.821 153.644 
146.517 140.997 152.662 147.164 103.819 154.899 153.035 120.301 154.426 
153.08 123.839 154.857 152.838 125.362 155.034 152.646 126.203 155.188 
111.436 127.024 155.869 111.402 127.563 155.923 152.409 126.905 155.167 
111.548 129.035 156.023 111.756 129.73 156.138 112.132 130.199 155.513 
114.598 131.963 155.766 112.652 130.844 155.6 153.649 101.863 156.593 
151.465 101.764 156.55 154.436 117.138 155.7 152.353 127.066 155.749 
151.777 128.445 155.608 112.032 130.436 157.121 114.754 132.003 156.33 
112.535 130.898 156.592 145.865 139.352 155.042 154.607 100.273 157.931 
155.609 100.812 157.756 155.068 120.613 156.987 111.847 124.021 156.964 
154.289 123.093 157.058 111.168 126.882 157.311 151.171 128.594 157.027 
112.001 130.476 157.852 114.95 131.991 156.777 146.479 137.079 156.896 
155.17 99.2862 158.974 153.735 100.022 158.244 155.505 121.251 158.405 
111.893 123.108 157.85 155.035 122.061 158.554 111.341 124.449 158.181 
111.207 127.796 158.189 111.556 129.377 158.314 115.11 131.95 157.241 
112.766 131.117 157.878 141.942 137.812 157.299 157.511 98.8836 159.708 
156.788 117.221 158.081 157.013 118.458 158.914 154.373 123.093 158.369 
111.326 124.335 158.847 152.888 124.908 158.869 112.003 130.2 158.933 
112.15 130.607 158.746 112.237 130.78 158.496 115.777 131.693 158.454 
133.691 134.168 159.057 145.867 135.975 158.368 143.292 137.278 158.26 
155.034 98.3557 160.162 158.606 115.855 159.747 115.251 116.607 159.595 
158.412 116.836 160.136 157.443 118.412 159.842 111.635 122.837 159.84 
111.319 125.364 159.649 148.449 129.353 159.994 112.424 130.384 159.452 
112.36 130.791 158.75 112.731 130.87 158.934 137.945 135.318 159.616 
138.67 135.452 159.744 142.238 136.481 159.164 144.388 137.113 158.27 
161.554 104.81 160.792 160.528 114.431 161.575 114.306 117.064 160.553 
112.051 121.709 160.405 155.617 120.985 160.521 155.1 121.356 160.938 
111.578 126.35 160.401 112.485 128.98 160.595 141.134 135.505 160.353 
162.357 97.2624 162.2 162.138 100.235 161.459 113.831 117.227 161.594 
159.032 116.877 161.863 112.875 119.636 161.345 158.241 117.671 162.088 
112.106 121.806 160.945 112.298 121.794 161.386 154.106 121.834 161.658 
111.839 123.897 161.051 111.975 126.38 161.137 112.118 127.254 161.066 
129.695 132.415 162.098 144.167 133.075 161.675 142.955 134.523 161.167 
142.254 134.735 161.148 163.676 93.6909 164.405 163.724 93.8556 164.334 
162.862 94.7007 163.677 163.117 95.1705 163.499 162.468 113.01 163.364 
160.672 115.003 163.075 113.433 120.86 162.749 153.052 122.064 162.535 
112.49 123.492 162.042 112.325 126.061 161.708 112.627 126.185 161.983 
112.884 126.553 162.055 113.436 126.594 162.345 164.603 93.5951 164.908 
161.933 94.3877 163.83 163.415 94.3319 164.062 162.573 113.319 164.228 
160.913 114.878 164.224 113.191 125.19 162.537 114.631 125.278 163.283 
141.025 133.274 163.275 165.91 92.6533 165.955 162.72 93.5199 164.681 
165.379 93.6734 165.162 117.024 111.716 164.6 115.395 112.824 165.208 
115.08 113.325 165.132 160.127 115.356 164.962 159.625 115.589 165.315 
[...]
POINT_DATA 2478
COLOR_SCALARS scalars 3
0.121569 0.615686 0.352941 0.121569 0.615686 0.352941 0.121569 0.615686 0.352941 
0.121569 0.615686 0.352941 0.121569 0.615686 0.352941 
0.121569 0.615686 0.352941 0.121569 0.615686 0.352941 
0.121569 0.615686 0.352941 0.121569 0.615686 0.352941 
0.121569 0.615686 0.352941 0.121569 0.615686 0.352941 
0.121569 0.615686 0.352941 0.121569 0.615686 0.352941 
0.121569 0.615686 0.352941 0.121569 0.615686 0.352941 
0.121569 0.615686 0.352941 0.121569 0.615686 0.352941 
0.121569 0.615686 0.352941 0.121569 0.615686 0.352941 
0.121569 0.615686 0.352941 0.121569 0.615686 0.352941 
0.121569 0.615686 0.352941 0.121569 0.615686 0.352941 
0.121569 0.615686 0.352941 0.121569 0.615686 0.352941 
0.121569 0.615686 0.352941 0.121569 0.615686 0.352941 
0.121569 0.615686 0.352941 0.121569 0.615686 0.352941 
0.121569 0.615686 0.352941 0.121569 0.615686 0.352941 
0.121569 0.615686 0.352941 0.121569 0.615686 0.352941 
0.121569 0.615686 0.352941 0.121569 0.615686 0.352941 
0.121569 0.615686 0.352941 0.121569 0.615686 0.352941 
0.121569 0.615686 0.352941 0.121569 0.615686 0.352941 
0.121569 0.615686 0.352941 0.121569 0.615686 0.352941 
0.121569 0.615686 0.352941 0.121569 0.615686 0.352941 
0.121569 0.615686 0.352941 0.121569 0.615686 0.352941 
0.121569 0.615686 0.352941 0.121569 0.615686 0.352941 
0.121569 0.615686 0.352941 0.121569 0.615686 0.352941 
0.121569 0.615686 0.352941 0.121569 0.615686 0.352941 
0.121569 0.615686 0.352941 0.121569 0.615686 0.352941 
0.121569 0.615686 0.352941 0.121569 0.615686 0.352941 
0.121569 0.615686 0.352941 0.121569 0.615686 0.352941 
0.121569 0.615686 0.352941 0.121569 0.615686 0.352941 
0.121569 0.615686 0.352941 0.121569 0.615686 0.352941 
0.121569 0.615686 0.352941 0.121569 0.615686 0.352941 
0.121569 0.615686 0.352941 0.121569 0.615686 0.352941 
0.121569 0.615686 0.352941 0.121569 0.615686 0.352941 
0.121569 0.615686 0.352941 0.121569 0.615686 0.352941 
0.121569 0.615686 0.352941 0.121569 0.615686 0.352941 
0.121569 0.615686 0.352941 0.121569 0.615686 0.352941 
0.121569 0.615686 0.352941 0.121569 0.615686 0.352941 
0.121569 0.615686 0.352941 0.121569 0.615686 0.352941 
0.121569 0.615686 0.352941 0.121569 0.615686 0.352941 
0.121569 0.615686 0.352941 0.121569 0.615686 0.352941 
0.121569 0.615686 0.352941 0.121569 0.615686 0.352941 
0.121569 0.615686 0.352941 0.121569 0.615686 0.352941 
0.121569 0.615686 0.352941 0.121569 0.615686 0.352941 
0.121569 0.615686 0.352941 0.121569 0.615686 0.352941 
0.121569 0.615686 0.352941 0.121569 0.615686 0.352941 
0.121569 0.615686 0.352941 0.121569 0.615686 0.352941 
0.121569 0.615686 0.352941 0.121569 0.615686 0.352941 
0.121569 0.615686 0.352941 0.121569 0.615686 0.352941 
0.121569 0.615686 0.352941 0.121569 0.615686 0.352941 
0.121569 0.615686 0.352941 0.121569 0.615686 0.352941 
0.121569 0.615686 0.352941 0.121569 0.615686 0.352941 
0.121569 0.615686 0.352941 0.121569 0.615686 0.352941 
0.121569 0.615686 0.352941 0.121569 0.615686 0.352941 
0.121569 0.615686 0.352941 0.121569 0.615686 0.352941 
0.121569 0.615686 0.352941 0.121569 0.615686 0.352941 
0.121569 0.615686 0.352941 0.121569 0.615686 0.352941 
0.121569 0.615686 0.352941 0.121569 0.615686 0.352941 
0.121569 0.615686 0.352941 0.121569 0.615686 0.352941 
0.121569 0.615686 0.352941 0.121569 0.615686 0.352941 
0.121569 0.615686 0.352941 0.121569 0.615686 0.352941 
0.121569 0.615686 0.352941 0.121569 0.615686 0.352941 
0.121569 0.615686 0.352941 0.121569 0.615686 0.352941 
0.121569 0.615686 0.352941 0.121569 0.615686 0.352941 
0.121569 0.615686 0.352941 0.121569 0.615686 0.352941 
0.121569 0.615686 0.352941 0.121569 0.615686 0.352941 
0.121569 0.615686 0.352941 0.121569 0.615686 0.352941 
0.121569 0.615686 0.352941 0.121569 0.615686 0.352941 
0.121569 0.615686 0.352941 0.121569 0.615686 0.352941 
0.121569 0.615686 0.352941 0.121569 0.615686 0.352941 
0.121569 0.615686 0.352941 0.121569 0.615686 0.352941 
0.121569 0.615686 0.352941 0.121569 0.615686 0.352941 
0.121569 0.615686 0.352941 0.121569 0.615686 0.352941 
0.121569 0.615686 0.352941 0.121569 0.615686 0.352941 
0.121569 0.615686 0.352941 0.121569 0.615686 0.352941 
0.121569 0.615686 0.352941 0.121569 0.615686 0.352941 
0.121569 0.615686 0.352941 0.121569 0.615686 0.352941 
0.121569 0.615686 0.352941 0.121569 0.615686 0.352941 
0.121569 0.615686 0.352941 0.121569 0.615686 0.352941 
0.121569 0.615686 0.352941 0.121569 0.615686 0.352941 
0.121569 0.615686 0.352941 0.121569 0.615686 0.352941 
0.121569 0.615686 0.352941 0.121569 0.615686 0.352941 
0.121569 0.615686 0.352941 0.121569 0.615686 0.352941 
0.121569 0.615686 0.352941 0.121569 0.615686 0.352941 
0.121569 0.615686 0.352941 0.121569 0.615686 0.352941 
0.121569 0.615686 0.352941 0.121569 0.615686 0.352941 
0.121569 0.615686 0.352941 0.121569 0.615686 0.352941 
0.121569 0.615686 0.352941 0.121569 0.615686 0.352941 
0.121569 0.615686 0.352941 0.121569 0.615686 0.352941 
0.121569 0.615686 0.352941 0.121569 0.615686 0.352941 
0.121569 0.615686 0.352941 0.121569 0.615686 0.352941 
0.121569 0.615686 0.352941 0.121569 0.615686 0.352941 
0.121569 0.615686 0.352941 0.121569 0.615686 0.352941 
0.121569 0.615686 0.352941 0.121569 0.615686 0.352941 
0.121569 0.615686 0.352941 0.121569 0.615686 0.352941 
0.121569 0.615686 0.352941 0.121569 0.615686 0.352941 
0.121569 0.615686 0.352941 0.121569 0.615686 0.352941 
0.121569 0.615686 0.352941 0.121569 0.615686 0.352941 
0.121569 0.615686 0.352941 0.121569 0.615686 0.352941 
0.121569 0.615686 0.352941 0.121569 0.615686 0.352941 
0.121569 0.615686 0.352941 0.121569 0.615686 0.352941 
0.121569 0.615686 0.352941 0.121569 0.615686 0.352941 
0.121569 0.615686 0.352941 0.121569 0.615686 0.352941 
0.121569 0.615686 0.352941 0.121569 0.615686 0.352941 
0.121569 0.615686 0.352941 0.121569 0.615686 0.352941 
0.121569 0.615686 0.352941 0.121569 0.615686 0.352941 
0.121569 0.615686 0.352941 0.121569 0.615686 0.352941 
0.121569 0.615686 0.352941 0.121569 0.615686 0.352941 
0.121569 0.615686 0.352941 0.121569 0.615686 0.352941 
0.121569 0.615686 0.352941 0.121569 0.615686 0.352941 
0.121569 0.615686 0.352941 0.121569 0.615686 0.352941 
0.121569 0.615686 0.352941 0.121569 0.615686 0.352941 
0.121569 0.615686 0.352941 0.121569 0.615686 0.352941 
0.121569 0.615686 0.352941 0.121569 0.615686 0.352941 
0.121569 0.615686 0.352941 0.121569 0.615686 0.352941 
0.121569 0.615686 0.352941 0.121569 0.615686 0.352941 
0.121569 0.615686 0.352941 0.121569 0.615686 0.352941 
0.121569 0.615686 0.352941 0.121569 0.615686 0.352941 
0.121569 0.615686 0.352941 0.121569 0.615686 0.352941 
0.121569 0.615686 0.352941 0.121569 0.615686 0.352941 
0.121569 0.615686 0.352941 0.121569 0.615686 0.352941 
0.121569 0.615686 0.352941 0.121569 0.615686 0.352941 
0.121569 0.615686 0.352941 0.121569 0.615686 0.352941 
0.121569 0.615686 0.352941 0.121569 0.615686 0.352941 
0.121569 0.615686 0.352941 0.121569 0.615686 0.352941 
0.121569 0.615686 0.352941 0.121569 0.615686 0.352941 
0.121569 0.615686 0.352941 0.121569 0.615686 0.352941 
0.121569 0.615686 0.352941 0.121569 0.615686 0.352941 
0.121569 0.615686 0.352941 0.121569 0.615686 0.352941 
0.121569 0.615686 0.352941 0.121569 0.615686 0.352941 
0.121569 0.615686 0.352941 0.121569 0.615686 0.352941 
0.121569 0.615686 0.352941 0.121569 0.615686 0.352941 
0.121569 0.615686 0.352941 0.121569 0.615686 0.352941 
0.121569 0.615686 0.352941 0.121569 0.615686 0.352941 
0.121569 0.615686 0.352941 0.121569 0.615686 0.352941 
0.121569 0.615686 0.352941 0.121569 0.615686 0.352941 
0.121569 0.615686 0.352941 0.121569 0.615686 0.352941 
0.121569 0.615686 0.352941 0.121569 0.615686 0.352941 
0.121569 0.615686 0.352941 0.121569 0.615686 0.352941 
0.121569 0.615686 0.352941 0.121569 0.615686 0.352941 
0.121569 0.615686 0.352941 0.121569 0.615686 0.352941 
0.121569 0.615686 0.352941 0.121569 0.615686 0.352941 
0.121569 0.615686 0.352941 0.121569 0.615686 0.352941 
0.121569 0.615686 0.352941 0.121569 0.615686 0.352941 
0.121569 0.615686 0.352941 0.121569 0.615686 0.352941 
0.121569 0.615686 0.352941 0.121569 0.615686 0.352941 
0.121569 0.615686 0.352941 0.121569 0.615686 0.352941 
0.121569 0.615686 0.352941 0.121569 0.615686 0.352941 
0.121569 0.615686 0.352941 0.121569 0.615686 0.352941 
0.121569 0.615686 0.352941 0.121569 0.615686 0.352941 
0.121569 0.615686 0.352941 0.121569 0.615686 0.352941 
0.121569 0.615686 0.352941 0.121569 0.615686 0.352941 
0.121569 0.615686 0.352941 0.121569 0.615686 0.352941 
0.121569 0.615686 0.352941 0.121569 0.615686 0.352941 
0.121569 0.615686 0.352941 0.121569 0.615686 0.352941 
0.121569 0.615686 0.352941 0.121569 0.615686 0.352941 
0.121569 0.615686 0.352941 0.121569 0.615686 0.352941 
0.121569 0.615686 0.352941 0.121569 0.615686 0.352941 
0.121569 0.615686 0.352941 0.121569 0.615686 0.352941 
0.121569 0.615686 0.352941 0.121569 0.615686 0.352941 
0.121569 0.615686 0.352941 0.121569 0.615686 0.352941 
0.121569 0.615686 0.352941 0.121569 0.615686 0.352941 
0.121569 0.615686 0.352941 0.121569 0.615686 0.352941 
0.121569 0.615686 0.352941 0.121569 0.615686 0.352941 
0.121569 0.615686 0.352941 0.121569 0.615686 0.352941 
0.121569 0.615686 0.352941 0.121569 0.615686 0.352941 
0.121569 0.615686 0.352941 0.121569 0.615686 0.352941 
0.121569 0.615686 0.352941 0.121569 0.615686 0.352941 
0.121569 0.615686 0.352941 0.121569 0.615686 0.352941 
0.121569 0.615686 0.352941 0.121569 0.615686 0.352941 
0.121569 0.615686 0.352941 0.121569 0.615686 0.352941 
0.121569 0.615686 0.352941 0.121569 0.615686 0.352941 
0.121569 0.615686 0.352941 0.121569 0.615686 0.352941 
0.121569 0.615686 0.352941 0.121569 0.615686 0.352941 
0.121569 0.615686 0.352941 0.121569 0.615686 0.352941 
0.121569 0.615686 0.352941 0.121569 0.615686 0.352941 
0.121569 0.615686 0.352941 0.121569 0.615686 0.352941 
0.121569 0.615686 0.352941 0.121569 0.615686 0.352941 
0.121569 0.615686 0.352941 0.121569 0.615686 0.352941 
0.121569 0.615686 0.352941 0.121569 0.615686 0.352941 
0.121569 0.615686 0.352941 0.121569 0.615686 0.352941 
0.121569 0.615686 0.352941 0.121569 0.615686 0.352941 
0.121569 0.615686 0.352941 0.121569 0.615686 0.352941 
0.121569 0.615686 0.352941 0.121569 0.615686 0.352941 
0.121569 0.615686 0.352941 0.121569 0.615686 0.352941 
0.121569 0.615686 0.352941 0.121569 0.615686 0.352941 
0.121569 0.615686 0.352941 0.121569 0.615686 0.352941 
0.121569 0.615686 0.352941 0.121569 0.615686 0.352941 
0.121569 0.615686 0.352941 0.121569 0.615686 0.352941 
0.121569 0.615686 0.352941 0.121569 0.615686 0.352941 
0.121569 0.615686 0.352941 0.121569 0.615686 0.352941 
0.121569 0.615686 0.352941 0.121569 0.615686 0.352941 
0.121569 0.615686 0.352941 0.121569 0.615686 0.352941 
0.121569 0.615686 0.352941 0.121569 0.615686 0.352941 
0.121569 0.615686 0.352941 0.121569 0.615686 0.352941 
0.121569 0.615686 0.352941 0.121569 0.615686 0.352941 
0.121569 0.615686 0.352941 0.121569 0.615686 0.352941 
0.121569 0.615686 0.352941 0.121569 0.615686 0.352941 
0.121569 0.615686 0.352941 0.121569 0.615686 0.352941 
0.121569 0.615686 0.352941 0.121569 0.615686 0.352941 
0.121569 0.615686 0.352941 0.121569 0.615686 0.352941 
0.121569 0.615686 0.352941 0.121569 0.615686 0.352941 
0.121569 0.615686 0.352941 0.121569 0.615686 0.352941 
0.121569 0.615686 0.352941 0.121569 0.615686 0.352941 
0.121569 0.615686 0.352941 0.121569 0.615686 0.352941 
0.121569 0.615686 0.352941 0.121569 0.615686 0.352941 
0.121569 0.615686 0.352941 0.121569 0.615686 0.352941 
0.121569 0.615686 0.352941 0.121569 0.615686 0.352941 
0.121569 0.615686 0.352941 0.121569 0.615686 0.352941 
0.121569 0.615686 0.352941 0.121569 0.615686 0.352941 
0.121569 0.615686 0.352941 0.121569 0.615686 0.352941 
0.121569 0.615686 0.352941 0.121569 0.615686 0.352941 
0.121569 0.615686 0.352941 0.121569 0.615686 0.352941 
0.121569 0.615686 0.352941 0.121569 0.615686 0.352941 
0.121569 0.615686 0.352941 0.121569 0.615686 0.352941 
0.121569 0.615686 0.352941 0.121569 0.615686 0.352941 
0.121569 0.615686 0.352941 0.121569 0.615686 0.352941 
0.121569 0.615686 0.352941 0.121569 0.615686 0.352941 
0.121569 0.615686 0.352941 0.121569 0.615686 0.352941 
0.121569 0.615686 0.352941 0.121569 0.615686 0.352941 
0.121569 0.615686 0.352941 0.121569 0.615686 0.352941 
0.121569 0.615686 0.352941 0.121569 0.615686 0.352941 
0.121569 0.615686 0.352941 0.121569 0.615686 0.352941 
0.121569 0.615686 0.352941 0.121569 0.615686 0.352941 
0.121569 0.615686 0.352941 0.121569 0.615686 0.352941 
0.121569 0.615686 0.352941 0.121569 0.615686 0.352941 
0.121569 0.615686 0.352941 0.121569 0.615686 0.352941 
0.121569 0.615686 0.352941 0.121569 0.615686 0.352941 
0.121569 0.615686 0.352941 0.121569 0.615686 0.352941 
0.121569 0.615686 0.352941 0.121569 0.615686 0.352941 
0.121569 0.615686 0.352941 0.121569 0.615686 0.352941 
0.121569 0.615686 0.352941 0.121569 0.615686 0.352941 
0.121569 0.615686 0.352941 0.121569 0.615686 0.352941 
0.121569 0.615686 0.352941 0.121569 0.615686 0.352941 
0.121569 0.615686 0.352941 0.121569 0.615686 0.352941 
0.121569 0.615686 0.352941 0.121569 0.615686 0.352941 
0.121569 0.615686 0.352941 0.121569 0.615686 0.352941 
0.121569 0.615686 0.352941 0.121569 0.615686 0.352941 
0.121569 0.615686 0.352941 0.121569 0.615686 0.352941 
0.121569 0.615686 0.352941 0.121569 0.615686 0.352941 
0.121569 0.615686 0.352941 0.121569 0.615686 0.352941 
0.121569 0.615686 0.352941 0.121569 0.615686 0.352941 
0.121569 0.615686 0.352941 0.121569 0.615686 0.352941 
0.121569 0.615686 0.352941 0.121569 0.615686 0.352941 
0.121569 0.615686 0.352941 0.121569 0.615686 0.352941 
0.121569 0.615686 0.352941 0.121569 0.615686 0.352941 
0.121569 0.615686 0.352941 0.121569 0.615686 0.352941 
0.121569 0.615686 0.352941 0.121569 0.615686 0.352941 
0.121569 0.615686 0.352941 0.121569 0.615686 0.352941 
0.121569 0.615686 0.352941 0.121569 0.615686 0.352941 
0.121569 0.615686 0.352941 0.121569 0.615686 0.352941 
0.121569 0.615686 0.352941 0.121569 0.615686 0.352941 
0.121569 0.615686 0.352941 0.121569 0.615686 0.352941 
0.121569 0.615686 0.352941 0.121569 0.615686 0.352941 
0.121569 0.615686 0.352941 0.121569 0.615686 0.352941 
0.121569 0.615686 0.352941 0.121569 0.615686 0.352941 
0.121569 0.615686 0.352941 0.121569 0.615686 0.352941 
0.121569 0.615686 0.352941 0.121569 0.615686 0.352941 
0.121569 0.615686 0.352941 0.121569 0.615686 0.352941 
0.121569 0.615686 0.352941 0.121569 0.615686 0.352941 
0.121569 0.615686 0.352941 0.121569 0.615686 0.352941 
0.121569 0.615686 0.352941 0.121569 0.615686 0.352941 
0.121569 0.615686 0.352941 0.121569 0.615686 0.352941 
0.121569 0.615686 0.352941 0.121569 0.615686 0.352941 
0.121569 0.615686 0.352941 0.121569 0.615686 0.352941 
0.121569 0.615686 0.352941 0.121569 0.615686 0.352941 
0.121569 0.615686 0.352941 0.121569 0.615686 0.352941 
0.121569 0.615686 0.352941 0.121569 0.615686 0.352941 
0.121569 0.615686 0.352941 0.121569 0.615686 0.352941 
0.121569 0.615686 0.352941 0.121569 0.615686 0.352941 
0.121569 0.615686 0.352941 0.121569 0.615686 0.352941 
0.121569 0.615686 0.352941 0.121569 0.615686 0.352941 
0.121569 0.615686 0.352941 0.121569 0.615686 0.352941 
0.121569 0.615686 0.352941 0.121569 0.615686 0.352941 
0.121569 0.615686 0.352941 0.121569 0.615686 0.352941 
0.121569 0.615686 0.352941 0.121569 0.615686 0.352941 
0.121569 0.615686 0.352941 0.121569 0.615686 0.352941 
0.121569 0.615686 0.352941 0.121569 0.615686 0.352941 
0.121569 0.615686 0.352941 0.121569 0.615686 0.352941 
0.121569 0.615686 0.352941 0.121569 0.615686 0.352941 
0.121569 0.615686 0.352941 0.121569 0.615686 0.352941 
0.121569 0.615686 0.352941 0.121569 0.615686 0.352941 
0.121569 0.615686 0.352941 0.121569 0.615686 0.352941 
0.121569 0.615686 0.352941 0.121569 0.615686 0.352941 
0.121569 0.615686 0.352941 0.121569 0.615686 0.352941 
0.121569 0.615686 0.352941 0.121569 0.615686 0.352941 
0.121569 0.615686 0.352941 0.121569 0.615686 0.352941 
0.121569 0.615686 0.352941 0.121569 0.615686 0.352941 
0.121569 0.615686 0.352941 0.121569 0.615686 0.352941 
0.121569 0.615686 0.352941 0.121569 0.615686 0.352941 
0.121569 0.615686 0.352941 0.121569 0.615686 0.352941 
0.121569 0.615686 0.352941 0.121569 0.615686 0.352941 
0.121569 0.615686 0.352941 0.121569 0.615686 0.352941 
0.121569 0.615686 0.352941 0.121569 0.615686 0.352941 
0.121569 0.615686 0.352941 0.121569 0.615686 0.352941 
0.121569 0.615686 0.352941 0.121569 0.615686 0.352941 
0.121569 0.615686 0.352941 0.121569 0.615686 0.352941 
0.121569 0.615686 0.352941 0.121569 0.615686 0.352941 
0.121569 0.615686 0.352941 0.121569 0.615686 0.352941 
0.121569 0.615686 0.352941 0.121569 0.615686 0.352941 
0.121569 0.615686 0.352941 0.121569 0.615686 0.352941 
0.121569 0.615686 0.352941 0.121569 0.615686 0.352941 
0.121569 0.615686 0.352941 0.121569 0.615686 0.352941 
0.121569 0.615686 0.352941 0.121569 0.615686 0.352941 
0.121569 0.615686 0.352941 0.121569 0.615686 0.352941 
0.121569 0.615686 0.352941 0.121569 0.615686 0.352941 
0.121569 0.615686 0.352941 0.121569 0.615686 0.352941 
0.121569 0.615686 0.352941 0.121569 0.615686 0.352941 
0.121569 0.615686 0.352941 0.121569 0.615686 0.352941 
0.121569 0.615686 0.352941 0.121569 0.615686 0.352941 
0.121569 0.615686 0.352941 0.121569 0.615686 0.352941 
0.121569 0.615686 0.352941 0.121569 0.615686 0.352941 
0.121569 0.615686 0.352941 0.121569 0.615686 0.352941 
0.121569 0.615686 0.352941 0.121569 0.615686 0.352941 
0.121569 0.615686 0.352941 0.121569 0.615686 0.352941 
0.121569 0.615686 0.352941 0.121569 0.615686 0.352941 
0.121569 0.615686 0.352941 0.121569 0.615686 0.352941 
0.121569 0.615686 0.352941 0.121569 0.615686 0.352941 
0.121569 0.615686 0.352941 0.121569 0.615686 0.352941 
0.121569 0.615686 0.352941 0.121569 0.615686 0.352941 
0.121569 0.615686 0.352941 0.121569 0.615686 0.352941 
0.121569 0.615686 0.352941 0.121569 0.615686 0.352941 
0.121569 0.615686 0.352941 0.121569 0.615686 0.352941 
0.121569 0.615686 0.352941 0.121569 0.615686 0.352941 
0.121569 0.615686 0.352941 0.121569 0.615686 0.352941 
0.121569 0.615686 0.352941 0.121569 0.615686 0.352941 
0.121569 0.615686 0.352941 0.121569 0.615686 0.352941 
0.121569 0.615686 0.352941 0.121569 0.615686 0.352941 
0.121569 0.615686 0.352941 0.121569 0.615686 0.352941 
0.121569 0.615686 0.352941 0.121569 0.615686 0.352941 
0.121569 0.615686 0.352941 0.121569 0.615686 0.352941 
0.121569 0.615686 0.352941 0.121569 0.615686 0.352941 
0.121569 0.615686 0.352941 0.121569 0.615686 0.352941 
0.121569 0.615686 0.352941 0.121569 0.615686 0.352941 
0.121569 0.615686 0.352941 0.121569 0.615686 0.352941 
0.121569 0.615686 0.352941 0.121569 0.615686 0.352941 
0.121569 0.615686 0.352941 0.121569 0.615686 0.352941 
0.121569 0.615686 0.352941 0.121569 0.615686 0.352941 
0.121569 0.615686 0.352941 0.121569 0.615686 0.352941 
0.121569 0.615686 0.352941 0.121569 0.615686 0.352941 
0.121569 0.615686 0.352941 0.121569 0.615686 0.352941 
0.121569 0.615686 0.352941 0.121569 0.615686 0.352941 
0.121569 0.615686 0.352941 0.121569 0.615686 0.352941 
0.121569 0.615686 0.352941 0.121569 0.615686 0.352941 
0.121569 0.615686 0.352941 0.121569 0.615686 0.352941 
0.121569 0.615686 0.352941 0.121569 0.615686 0.352941 
0.121569 0.615686 0.352941 0.121569 0.615686 0.352941 
0.121569 0.615686 0.352941 0.121569 0.615686 0.352941 
0.121569 0.615686 0.352941 0.121569 0.615686 0.352941 
0.121569 0.615686 0.352941 0.121569 0.615686 0.352941 
0.121569 0.615686 0.352941 0.121569 0.615686 0.352941 
0.121569 0.615686 0.352941 0.121569 0.615686 0.352941 
0.121569 0.615686 0.352941 0.121569 0.615686 0.352941 
0.121569 0.615686 0.352941 0.121569 0.615686 0.352941 
0.121569 0.615686 0.352941 0.121569 0.615686 0.352941 
0.121569 0.615686 0.352941 0.121569 0.615686 0.352941 
0.121569 0.615686 0.352941 0.121569 0.615686 0.352941 
0.121569 0.615686 0.352941 0.121569 0.615686 0.352941 
0.121569 0.615686 0.352941 0.121569 0.615686 0.352941 
0.121569 0.615686 0.352941 0.121569 0.615686 0.352941 
0.121569 0.615686 0.352941 0.121569 0.615686 0.352941 
0.121569 0.615686 0.352941 0.121569 0.615686 0.352941 
0.121569 0.615686 0.352941 0.121569 0.615686 0.352941 