# vtk DataFile Version 4.2
vtk output
ASCII
DATASET POLYDATA
POINTS 599 float
343.287 216.92 195.286 343.222 216.963 195.317 343.336 216.936 195.386 
343.295 216.96 195.304 342.976 217.028 195.461 343.004 216.893 195.621 
342.695 217.007 195.643 343.417 216.91 195.619 342.107 217.27 195.848 
341.944 217.204 196.045 343.244 217.099 195.443 343.471 217.023 195.544 
343.473 217.156 195.577 341.924 217.57 195.98 343.546 217.265 195.742 
342.927 216.834 196.027 343.572 217.005 195.792 343.67 217.127 195.966 
340.549 218.076 196.701 340.312 217.994 196.955 341.124 217.957 196.416 
341.641 218.006 196.233 342.734 217.731 195.953 343.483 217.451 195.932 
343.653 217.305 196.018 341.837 218.267 196.408 342.442 218.106 196.321 
343.594 217.529 196.228 342.055 216.956 196.661 339.248 218.769 197.581 
339.909 218.945 197.091 338.274 220.168 198.062 338.309 220.009 198.073 
338.127 220.234 198.189 338.523 220.125 198.062 339.926 219.199 197.233 
338.277 220.266 198.129 342.822 216.822 197.142 343.185 216.866 196.778 
343.725 217.362 196.787 340.352 219.234 197.253 341.824 218.945 197.23 
342.477 218.701 197.225 343.002 218.44 197.24 338.89 219.662 197.852 
339.748 219.601 197.653 338.165 220.386 198.297 339.123 220.216 198.271 
338.207 220.586 198.576 322 233.009 197.017 322 233.009 197.017 
322 233.009 197.017 322 233.009 197.017 322 233.009 197.017 
343.63 217.261 197.183 343.693 217.761 197.378 343.491 218.225 197.982 
337.456 220.612 199.12 329.101 226.451 200.06 329.083 226.365 200.046 
328.826 226.589 200.157 329.246 226.307 200.07 329.227 226.485 200.191 
323.918 230.315 199.368 324.421 229.869 199.642 323.256 230.917 199.08 
323.775 230.561 199.233 324.026 230.335 199.387 323.139 231.069 198.948 
323.245 231.03 198.962 323.585 230.781 199.119 323.169 231.068 198.951 
323.258 231.039 199.009 322 233.009 197.017 323.291 231.052 198.945 
323.28 231.071 198.958 323.397 230.984 199.01 323.296 231.077 198.941 
343.215 217.212 198.541 341.454 217.028 199.424 343.486 218.02 198.83 
343.481 218.524 198.695 339.811 220.812 199.405 336.643 221.402 200.011 
336.036 221.916 200.464 337.332 221.199 199.637 330.46 225.263 200.268 
330.603 224.94 200.316 330.839 224.937 200.382 329.138 226.062 200.116 
329.078 225.661 200.2 325.527 227.958 200.344 327.427 226.993 200.254 
329.649 226.106 200.203 325.52 228.388 200.135 326.844 227.825 200.275 
324.836 229.106 199.973 324.036 229.867 199.906 323.654 230.392 199.525 
325.977 228.94 200.316 323.352 230.789 199.225 323.859 230.571 199.297 
324.798 229.783 199.848 323.38 230.836 199.232 323.441 230.955 199.101 
323.327 231.056 198.973 323.707 230.768 199.304 342.548 217.055 199.351 
343.266 217.53 199.247 334.324 222.115 200.864 331.893 223.557 200.863 
334.95 222.721 200.906 335.53 223.009 201.233 337.365 222.081 200.807 
332.302 224.435 200.919 326.224 226.727 200.785 328.185 225.65 200.506 
331.923 225.038 201.095 325.859 227.143 200.751 329.031 227.135 201.049 
326.872 228.485 200.748 326.227 228.966 200.657 323.433 230.713 199.335 
323.674 230.487 199.607 342.897 217.314 199.858 335.764 219.618 201.686 
339.255 221.616 201.001 334.676 223.55 201.425 326.983 225.404 201.644 
332.549 224.993 201.932 330.147 226.468 201.255 329.593 226.878 201.398 
327.938 227.935 201.502 324.129 230.011 200.241 324.466 229.425 200.852 
323.987 230.34 199.909 341.727 217.149 201.713 343.265 218.216 201.472 
331.943 221.607 202.476 337.119 222.741 202.081 335.402 223.455 201.86 
333.204 224.683 202.383 335.336 223.593 202.354 325.193 227.817 202.136 
325.008 228.405 201.965 324.737 229.159 201.413 325.22 229.563 201.389 
343.148 219.364 202.886 340.978 220.942 202.554 337.59 222.598 202.781 
325.678 226.669 202.588 325.363 228.119 202.732 327.664 227.966 202.908 
324.894 229.202 201.605 325.431 228.647 202.533 337.939 217.709 203.758 
343.36 219.036 203.738 343.279 219.363 203.461 343.223 219.472 203.552 
335.965 223.301 203.557 325.724 226.592 203.409 325.584 227.096 203.401 
325.68 227.423 203.682 343.287 218.594 204.378 343.435 218.925 204.203 
343.475 219.009 204.108 343.462 218.998 204.243 343.17 219.284 204.097 
343.408 219.065 204.144 339.354 221.448 204.554 328.116 223.024 205.041 
336.545 222.872 204.236 336.382 222.584 205.18 335.379 223.234 204.898 
335.677 223.286 204.307 326.003 226.225 204.684 327.985 227.387 204.27 
341.244 217.305 205.089 343.158 218.229 204.678 343.009 218.138 205.001 
337.221 217.578 205.482 343.254 218.382 204.762 343.157 218.292 204.957 
343.292 218.979 204.409 343.009 218.755 204.943 343.177 218.459 204.895 
340.592 220.269 205.555 330.156 220.924 205.86 327.597 223.354 206.069 
326.621 225.062 205.955 326.221 226.635 205.346 327.446 227.252 205.05 
326.471 227.231 205.049 336.66 217.491 206.978 342.745 218.016 205.213 
342.51 218.065 205.593 335.165 217.795 206.592 342.537 218.327 205.691 
332.916 218.423 207.16 340.73 219.374 206.437 341.499 218.644 206.33 
342.58 218.654 205.515 335.887 221.777 206.849 326.715 225.12 206.538 
326.155 226.372 205.353 326.873 226.677 206.078 327.292 226.953 205.69 
326.872 226.994 205.636 335.881 217.543 206.962 339.369 217.655 206.774 
340.881 217.566 206.197 342.058 217.929 205.908 341.656 217.889 206.221 
341.4 218.01 206.451 342.265 218.18 205.917 338.956 219.366 207.348 
339.249 219.055 207.307 335.693 220.883 207.852 328.331 222.068 207.502 
329.771 224.987 207.181 326.675 225.552 206.562 327.002 225.661 207.08 
334.959 217.36 208.241 336.366 217.514 208.128 337.113 217.744 207.896 
332.036 218.225 208.492 336.865 218.728 208.443 329.868 220.097 208.236 
327.384 225.354 207.854 327.42 225.757 207.422 327.73 225.33 208.071 
333.433 217.158 209.416 332.749 217.326 209.512 331.275 218.589 209.272 
336.106 218.508 208.819 330.344 219.414 209.303 327.637 223.287 208.67 
327.509 223.808 208.671 328.029 225.051 208.42 327.849 224.934 208.618 
333.156 217.15 209.986 332.963 217.211 209.946 333.663 217.215 209.762 
333.358 217.14 209.936 333.466 217.242 209.973 332.731 217.33 209.754 
332.727 217.364 209.994 332.474 217.526 209.931 333.78 217.519 209.873 
332.181 217.811 209.929 331.797 218.124 209.711 331.29 218.673 209.773 
333.015 218.498 210.145 334.812 218.267 209.534 330.861 219.16 209.856 
328.852 221.531 209.719 328.519 221.884 209.528 328.262 222.497 209.535 
327.974 222.975 209.349 327.687 224.192 209.074 327.883 224.422 209.122 
327.735 224.425 209.064 327.756 224.678 208.867 332.973 217.313 210.078 
333.245 217.197 210.044 331.914 218.256 210.019 332.375 218.102 210.173 
332.749 217.824 210.187 333.187 217.758 210.128 330.72 219.577 209.993 
329.068 221.549 209.882 328.555 222.256 209.823 328.074 223.23 209.441 
327.896 223.819 209.302 327.899 224.139 209.245 328.806 221.974 209.912 
328.742 222.263 209.886 328.361 222.409 245.213 328.381 222.311 245.263 
328.283 222.424 245.223 328.489 222.313 245.296 328.285 222.548 245.241 
328.208 222.571 245.305 328.477 222.564 245.352 328.204 222.866 245.411 
333.598 217.308 245.547 333.409 217.43 245.571 333.707 217.315 245.535 
333.759 217.27 245.637 332.237 218.125 245.428 332.019 218.285 245.557 
332.435 218.047 245.359 332.542 217.926 245.484 333.54 217.447 245.506 
333.729 217.405 245.533 332.048 218.368 245.438 331.804 218.645 245.611 
332.266 218.268 245.361 330.331 220.257 245.772 332.027 218.66 245.457 
328.597 222.136 245.496 328.736 222.248 245.443 328.089 222.722 245.553 
327.936 223.205 245.592 327.835 223.104 245.799 327.736 223.461 245.773 
327.604 223.806 245.947 327.997 223.87 245.796 327.634 224.038 245.932 
327.5 224.208 246.208 327.611 224.283 246.079 333.269 217.484 245.783 
333.978 217.275 245.924 332.724 217.772 245.815 333.076 217.816 245.518 
331.514 218.899 245.909 330.975 219.431 246.116 331.487 219.438 245.685 
329.895 220.431 246.267 329.426 221.096 246.052 331.577 220.016 245.719 
328.824 221.769 245.927 329.304 221.776 245.711 330.591 222.044 246.196 
327.985 224.313 246.132 327.546 224.477 246.314 327.417 224.609 246.706 
327.715 224.48 246.248 327.599 224.71 246.568 334.823 217.557 246.216 
334.579 217.325 246.384 331.934 218.261 246.167 335.187 218.007 246.296 
336.502 217.632 247.399 336.236 218.06 246.885 336.495 218.497 246.903 
335.864 219.096 246.699 328.513 221.971 246.243 327.529 223.562 246.546 
329.465 223.433 246.401 327.378 224.027 246.685 327.291 224.43 247.038 
327.246 225.034 247.517 336.024 217.409 247.734 338.963 217.766 248.339 
340.089 218.065 248.313 340.674 217.882 248.607 337.171 218.798 247.236 
341.117 218.253 248.524 337.166 219.285 247.323 340.102 218.796 248.23 
336.407 219.959 247.313 328.37 222.109 246.912 327.536 223.49 247.631 
328.15 225.004 246.982 327.414 225.399 247.637 327.7 225.357 247.431 
339.838 217.507 248.967 342.898 218.184 249.316 343.103 218.105 249.504 
342.739 218.389 249.231 339.896 219.126 248.274 342.927 218.59 249.431 
338.801 220.005 248.461 327.247 224.112 248.103 326.579 225.537 249.22 
336.227 217.505 249.183 343.415 218.285 249.751 343.507 218.247 249.977 
333.769 218.499 249.305 341.615 219.583 249.558 342.592 219.171 249.728 
337.246 221.005 248.536 330.097 224.797 248.386 326.457 225.698 249.674 
326.285 226.532 250.265 326.969 226.96 249.834 326.793 227.112 250.086 
342.788 217.698 250.009 343.238 217.86 250.11 336.412 217.649 250.023 
343.438 217.951 250.333 343.461 218.581 250.015 343.556 218.461 250.258 
341.911 219.66 249.923 343.199 218.972 250.184 339.694 220.729 249.875 
341.981 219.87 250.576 343.099 219.187 250.633 336.911 221.767 249.346 
329.772 225.918 249.947 326.143 226.105 250.815 326.359 226.947 250.492 
326.744 227.614 251.008 327.038 227.671 250.893 327.251 227.453 250.572 
327.101 227.621 250.726 339.195 217.141 251.654 343.496 217.984 250.663 
343.586 218.14 250.844 343.312 219.005 251.196 326.537 225.202 250.837 
326.016 226.266 251.411 330.245 226.115 251.182 325.821 227.37 252.018 
326.207 227.733 251.711 326.613 228.039 251.969 327.243 227.721 251.314 
340.721 217.02 252.172 343.578 218.262 251.21 333.845 219.859 252.029 
[...]
POINT_DATA 599
COLOR_SCALARS scalars 3
0.8 0.8 0.8 0.8 0.8 0.8 0.8 0.8 0.8 
0.8 0.8 0.8 0.8 0.8 0.8 
0.8 0.8 0.8 0.8 0.8 0.8 
0.8 0.8 0.8 0.8 0.8 0.8 
0.8 0.8 0.8 0.8 0.8 0.8 
0.8 0.8 0.8 0.8 0.8 0.8 
0.8 0.8 0.8 0.8 0.8 0.8 
0.8 0.8 0.8 0.8 0.8 0.8 
0.8 0.8 0.8 0.8 0.8 0.8 
0.8 0.8 0.8 0.8 0.8 0.8 
0.8 0.8 0.8 0.8 0.8 0.8 
0.8 0.8 0.8 0.8 0.8 0.8 
0.8 0.8 0.8 0.8 0.8 0.8 
0.8 0.8 0.8 0.8 0.8 0.8 
0.8 0.8 0.8 0.8 0.8 0.8 
0.8 0.8 0.8 0.8 0.8 0.8 
0.8 0.8 0.8 0.8 0.8 0.8 
0.8 0.8 0.8 0.8 0.8 0.8 
0.8 0.8 0.8 0.8 0.8 0.8 
0.8 0.8 0.8 0.8 0.8 0.8 
0.8 0.8 0.8 0.8 0.8 0.8 
0.8 0.8 0.8 0.8 0.8 0.8 
0.8 0.8 0.8 0.8 0.8 0.8 
0.8 0.8 0.8 0.8 0.8 0.8 
0.8 0.8 0.8 0.8 0.8 0.8 
0.8 0.8 0.8 0.8 0.8 0.8 
0.8 0.8 0.8 0.8 0.8 0.8 
0.8 0.8 0.8 0.8 0.8 0.8 
0.8 0.8 0.8 0.8 0.8 0.8 
0.8 0.8 0.8 0.8 0.8 0.8 
0.8 0.8 0.8 0.8 0.8 0.8 
0.8 0.8 0.8 0.8 0.8 0.8 
0.8 0.8 0.8 0.8 0.8 0.8 
0.8 0.8 0.8 0.8 0.8 0.8 
0.8 0.8 0.8 0.8 0.8 0.8 
0.8 0.8 0.8 0.8 0.8 0.8 
0.8 0.8 0.8 0.8 0.8 0.8 
0.8 0.8 0.8 0.8 0.8 0.8 
0.8 0.8 0.8 0.8 0.8 0.8 
0.8 0.8 0.8 0.8 0.8 0.8 
0.8 0.8 0.8 0.8 0.8 0.8 
0.8 0.8 0.8 0.8 0.8 0.8 
0.8 0.8 0.8 0.8 0.8 0.8 
0.8 0.8 0.8 0.8 0.8 0.8 
0.8 0.8 0.8 0.8 0.8 0.8 
0.8 0.8 0.8 0.8 0.8 0.8 
0.8 0.8 0.8 0.8 0.8 0.8 
0.8 0.8 0.8 0.8 0.8 0.8 
0.8 0.8 0.8 0.8 0.8 0.8 
0.8 0.8 0.8 0.8 0.8 0.8 
0.8 0.8 0.8 0.8 0.8 0.8 
0.8 0.8 0.8 0.8 0.8 0.8 
0.8 0.8 0.8 0.8 0.8 0.8 
0.8 0.8 0.8 0.8 0.8 0.8 
0.8 0.8 0.8 0.8 0.8 0.8 
0.8 0.8 0.8 0.8 0.8 0.8 
0.8 0.8 0.8 0.8 0.8 0.8 
0.8 0.8 0.8 0.8 0.8 0.8 
0.8 0.8 0.8 0.8 0.8 0.8 
0.8 0.8 0.8 0.8 0.8 0.8 
0.8 0.8 0.8 0.8 0.8 0.8 
0.8 0.8 0.8 0.8 0.8 0.8 
0.8 0.8 0.8 0.8 0.8 0.8 
0.8 0.8 0.8 0.8 0.8 0.8 
0.8 0.8 0.8 0.8 0.8 0.8 
0.8 0.8 0.8 0.8 0.8 0.8 
0.8 0.8 0.8 0.8 0.8 0.8 
0.8 0.8 0.8 0.8 0.8 0.8 
0.8 0.8 0.8 0.8 0.8 0.8 
0.8 0.8 0.8 0.8 0.8 0.8 
0.8 0.8 0.8 0.8 0.8 0.8 
0.8 0.8 0.8 0.8 0.8 0.8 
0.8 0.8 0.8 0.8 0.8 0.8 
0.8 0.8 0.8 0.8 0.8 0.8 
0.8 0.8 0.8 0.8 0.8 0.8 
0.8 0.8 0.8 0.8 0.8 0.8 
0.8 0.8 0.8 0.8 0.8 0.8 
0.8 0.8 0.8 0.8 0.8 0.8 
0.8 0.8 0.8 0.8 0.8 0.8 
0.8 0.8 0.8 0.8 0.8 0.8 
0.8 0.8 0.8 0.8 0.8 0.8 
0.8 0.8 0.8 0.8 0.8 0.8 
0.8 0.8 0.8 0.8 0.8 0.8 
0.8 0.8 0.8 0.8 0.8 0.8 
0.8 0.8 0.8 0.8 0.8 0.8 
0.8 0.8 0.8 0.8 0.8 0.8 
0.8 0.8 0.8 0.8 0.8 0.8 
0.8 0.8 0.8 0.8 0.8 0.8 
0.8 0.8 0.8 0.8 0.8 0.8 
0.8 0.8 0.8 0.8 0.8 0.8 
0.8 0.8 0.8 0.8 0.8 0.8 
0.8 0.8 0.8 0.8 0.8 0.8 
0.8 0.8 0.8 0.8 0.8 0.8 
0.8 0.8 0.8 0.8 0.8 0.8 
0.8 0.8 0.8 0.8 0.8 0.8 
0.8 0.8 0.8 0.8 0.8 0.8 
0.8 0.8 0.8 0.8 0.8 0.8 
0.8 0.8 0.8 0.8 0.8 0.8 
0.8 0.8 0.8 0.8 0.8 0.8 
0.8 0.8 0.8 0.8 0.8 0.8 
0.8 0.8 0.8 0.8 0.8 0.8 
0.8 0.8 0.8 0.8 0.8 0.8 
0.8 0.8 0.8 0.8 0.8 0.8 
0.8 0.8 0.8 0.8 0.8 0.8 
0.8 0.8 0.8 0.8 0.8 0.8 
0.8 0.8 0.8 0.8 0.8 0.8 
0.8 0.8 0.8 0.8 0.8 0.8 
0.8 0.8 0.8 0.8 0.8 0.8 
0.8 0.8 0.8 0.8 0.8 0.8 
0.8 0.8 0.8 0.8 0.8 0.8 
0.8 0.8 0.8 0.8 0.8 0.8 
0.8 0.8 0.8 0.8 0.8 0.8 
0.8 0.8 0.8 0.8 0.8 0.8 
0.8 0.8 0.8 0.8 0.8 0.8 
0.8 0.8 0.8 0.8 0.8 0.8 
0.8 0.8 0.8 0.8 0.8 0.8 
0.8 0.8 0.8 0.8 0.8 0.8 
0.8 0.8 0.8 0.8 0.8 0.8 
0.8 0.8 0.8 0.8 0.8 0.8 
0.8 0.8 0.8 0.8 0.8 0.8 
0.8 0.8 0.8 0.8 0.8 0.8 
0.8 0.8 0.8 0.8 0.8 0.8 
0.8 0.8 0.8 0.8 0.8 0.8 
0.8 0.8 0.8 0.8 0.8 0.8 
0.8 0.8 0.8 0.8 0.8 0.8 
0.8 0.8 0.8 0.8 0.8 0.8 
0.8 0.8 0.8 0.8 0.8 0.8 
0.8 0.8 0.8 0.8 0.8 0.8 
0.8 0.8 0.8 0.8 0.8 0.8 
0.8 0.8 0.8 0.8 0.8 0.8 
0.8 0.8 0.8 0.8 0.8 0.8 
0.8 0.8 0.8 0.8 0.8 0.8 
0.8 0.8 0.8 0.8 0.8 0.8 
0.8 0.8 0.8 0.8 0.8 0.8 
0.8 0.8 0.8 0.8 0.8 0.8 
0.8 0.8 0.8 0.8 0.8 0.8 
0.8 0.8 0.8 0.8 0.8 0.8 
0.8 0.8 0.8 0.8 0.8 0.8 
0.8 0.8 0.8 0.8 0.8 0.8 
0.8 0.8 0.8 0.8 0.8 0.8 
0.8 0.8 0.8 0.8 0.8 0.8 
0.8 0.8 0.8 0.8 0.8 0.8 
0.8 0.8 0.8 0.8 0.8 0.8 
0.8 0.8 0.8 0.8 0.8 0.8 
0.8 0.8 0.8 0.8 0.8 0.8 
0.8 0.8 0.8 0.8 0.8 0.8 
0.8 0.8 0.8 0.8 0.8 0.8 
0.8 0.8 0.8 0.8 0.8 0.8 
0.8 0.8 0.8 0.8 0.8 0.8 
0.8 0.8 0.8 0.8 0.8 0.8 
0.8 0.8 0.8 0.8 0.8 0.8 
0.8 0.8 0.8 0.8 0.8 0.8 
0.8 0.8 0.8 0.8 0.8 0.8 
0.8 0.8 0.8 0.8 0.8 0.8 
0.8 0.8 0.8 0.8 0.8 0.8 
0.8 0.8 0.8 0.8 0.8 0.8 
0.8 0.8 0.8 0.8 0.8 0.8 
0.8 0.8 0.8 0.8 0.8 0.8 
0.8 0.8 0.8 0.8 0.8 0.8 
0.8 0.8 0.8 0.8 0.8 0.8 
0.8 0.8 0.8 0.8 0.8 0.8 
0.8 0.8 0.8 0.8 0.8 0.8 
0.8 0.8 0.8 0.8 0.8 0.8 
0.8 0.8 0.8 0.8 0.8 0.8 
0.8 0.8 0.8 0.8 0.8 0.8 
0.8 0.8 0.8 0.8 0.8 0.8 
0.8 0.8 0.8 0.8 0.8 0.8 
0.8 0.8 0.8 0.8 0.8 0.8 
0.8 0.8 0.8 0.8 0.8 0.8 
0.8 0.8 0.8 0.8 0.8 0.8 
0.8 0.8 0.8 0.8 0.8 0.8 
0.8 0.8 0.8 0.8 0.8 0.8 
0.8 0.8 0.8 0.8 0.8 0.8 
0.8 0.8 0.8 0.8 0.8 0.8 
0.8 0.8 0.8 0.8 0.8 0.8 
0.8 0.8 0.8 0.8 0.8 0.8 
0.8 0.8 0.8 0.8 0.8 0.8 
0.8 0.8 0.8 0.8 0.8 0.8 
0.8 0.8 0.8 0.8 0.8 0.8 
0.8 0.8 0.8 0.8 0.8 0.8 
0.8 0.8 0.8 0.8 0.8 0.8 
0.8 0.8 0.8 0.8 0.8 0.8 
0.8 0.8 0.8 0.8 0.8 0.8 
0.8 0.8 0.8 0.8 0.8 0.8 
0.8 0.8 0.8 0.8 0.8 0.8 
0.8 0.8 0.8 0.8 0.8 0.8 
0.8 0.8 0.8 0.8 0.8 0.8 
0.8 0.8 0.8 0.8 0.8 0.8 
0.8 0.8 0.8 0.8 0.8 0.8 
0.8 0.8 0.8 0.8 0.8 0.8 
0.8 0.8 0.8 0.8 0.8 0.8 
0.8 0.8 0.8 0.8 0.8 0.8 
0.8 0.8 0.8 0.8 0.8 0.8 
0.8 0.8 0.8 0.8 0.8 0.8 
0.8 0.8 0.8 0.8 0.8 0.8 
0.8 0.8 0.8 0.8 0.8 0.8 
0.8 0.8 0.8 0.8 0.8 0.8 
0.8 0.8 0.8 0.8 0.8 0.8 
0.8 0.8 0.8 0.8 0.8 0.8 
0.8 0.8 0.8 0.8 0.8 0.8 
0.8 0.8 0.8 0.8 0.8 0.8 
0.8 0.8 0.8 0.8 0.8 0.8 
0.8 0.8 0.8 0.8 0.8 0.8 
0.8 0.8 0.8 0.8 0.8 0.8 
0.8 0.8 0.8 0.8 0.8 0.8 
0.8 0.8 0.8 0.8 0.8 0.8 
0.8 0.8 0.8 0.8 0.8 0.8 
0.8 0.8 0.8 0.8 0.8 0.8 
0.8 0.8 0.8 0.8 0.8 0.8 
0.8 0.8 0.8 0.8 0.8 0.8 
0.8 0.8 0.8 0.8 0.8 0.8 
0.8 0.8 0.8 0.8 0.8 0.8 
0.8 0.8 0.8 0.8 0.8 0.8 
0.8 0.8 0.8 0.8 0.8 0.8 
0.8 0.8 0.8 0.8 0.8 0.8 
0.8 0.8 0.8 0.8 0.8 0.8 
0.8 0.8 0.8 0.8 0.8 0.8 
0.8 0.8 0.8 0.8 0.8 0.8 
0.8 0.8 0.8 0.8 0.8 0.8 
0.8 0.8 0.8 0.8 0.8 0.8 
0.8 0.8 0.8 0.8 0.8 0.8 
0.8 0.8 0.8 0.8 0.8 0.8 
0.8 0.8 0.8 0.8 0.8 0.8 
0.8 0.8 0.8 0.8 0.8 0.8 
0.8 0.8 0.8 0.8 0.8 0.8 
0.8 0.8 0.8 0.8 0.8 0.8 
0.8 0.8 0.8 0.8 0.8 0.8 
0.8 0.8 0.8 0.8 0.8 0.8 
0.8 0.8 0.8 0.8 0.8 0.8 
0.8 0.8 0.8 0.8 0.8 0.8 
0.8 0.8 0.8 0.8 0.8 0.8 
0.8 0.8 0.8 0.8 0.8 0.8 
0.8 0.8 0.8 0.8 0.8 0.8 
0.8 0.8 0.8 0.8 0.8 0.8 
0.8 0.8 0.8 0.8 0.8 0.8 
0.8 0.8 0.8 0.8 0.8 0.8 
0.8 0.8 0.8 0.8 0.8 0.8 
0.8 0.8 0.8 0.8 0.8 0.8 
0.8 0.8 0.8 0.8 0.8 0.8 
0.8 0.8 0.8 0.8 0.8 0.8 
0.8 0.8 0.8 0.8 0.8 0.8 
0.8 0.8 0.8 0.8 0.8 0.8 
0.8 0.8 0.8 0.8 0.8 0.8 
0.8 0.8 0.8 0.8 0.8 0.8 
0.8 0.8 0.8 0.8 0.8 0.8 
0.8 0.8 0.8 0.8 0.8 0.8 
0.8 0.8 0.8 0.8 0.8 0.8 
0.8 0.8 0.8 0.8 0.8 0.8 
0.8 0.8 0.8 0.8 0.8 0.8 
0.8 0.8 0.8 0.8 0.8 0.8 
0.8 0.8 0.8 0.8 0.8 0.8 
0.8 0.8 0.8 0.8 0.8 0.8 
0.8 0.8 0.8 0.8 0.8 0.8 
0.8 0.8 0.8 0.8 0.8 0.8 
0.8 0.8 0.8 0.8 0.8 0.8 
0.8 0.8 0.8 0.8 0.8 0.8 
0.8 0.8 0.8 0.8 0.8 0.8 
0.8 0.8 0.8 0.8 0.8 0.8 
0.8 0.8 0.8 0.8 0.8 0.8 
0.8 0.8 0.8 0.8 0.8 0.8 
0.8 0.8 0.8 0.8 0.8 0.8 
0.8 0.8 0.8 0.8 0.8 0.8 
0.8 0.8 0.8 0.8 0.8 0.8 
0.8 0.8 0.8 0.8 0.8 0.8 
0.8 0.8 0.8 0.8 0.8 0.8 
0.8 0.8 0.8 0.8 0.8 0.8 
0.8 0.8 0.8 0.8 0.8 0.8 
0.8 0.8 0.8 0.8 0.8 0.8 
0.8 0.8 0.8 0.8 0.8 0.8 
0.8 0.8 0.8 0.8 0.8 0.8 
0.8 0.8 0.8 0.8 0.8 0.8 
0.8 0.8 0.8 0.8 0.8 0.8 
0.8 0.8 0.8 0.8 0.8 0.8 
0.8 0.8 0.8 0.8 0.8 0.8 
0.8 0.8 0.8 0.8 0.8 0.8 
0.8 0.8 0.8 0.8 0.8 0.8 
0.8 0.8 0.8 0.8 0.8 0.8 
0.8 0.8 0.8 0.8 0.8 0.8 
0.8 0.8 0.8 0.8 0.8 0.8 
0.8 0.8 0.8 0.8 0.8 0.8 
0.8 0.8 0.8 0.8 0.8 0.8 
0.8 0.8 0.8 0.8 0.8 0.8 
0.8 0.8 0.8 0.8 0.8 0.8 
0.8 0.8 0.8 0.8 0.8 0.8 
0.8 0.8 0.8 0.8 0.8 0.8 
0.8 0.8 0.8 0.8 0.8 0.8 
0.8 0.8 0.8 0.8 0.8 0.8 
0.8 0.8 0.8 0.8 0.8 0.8 
0.8 0.8 0.8 0.8 0.8 0.8 
0.8 0.8 0.8 0.8 0.8 0.8 
0.8 0.8 0.8 0.8 0.8 0.8 
0.8 0.8 0.8 0.8 0.8 0.8 
0.8 0.8 0.8 0.8 0.8 0.8 
0.8 0.8 0.8 0.8 0.8 0.8 
0.8 0.8 0.8 0.8 0.8 0.8 
0.8 0.8 0.8 0.8 0.8 0.8 
0.8 0.8 0.8 0.8 0.8 0.8 
0.8 0.8 0.8 0.8 0.8 0.8 
0.8 0.8 0.8 0.8 0.8 0.8 

NORMALS Normals float
0.124115 -0.76737 -0.629077 -0.277525 0.426156 -0.861029 0.878187 0.0134367 -0.478128 
0.455187 0.521606 -0.721617 -0.471292 -0.183889 -0.862594 -0.333121 -0.866528 -0.371699 
-0.414472 -0.763169 -0.495768 0.611032 -0.76239 -0.213077 -0.499067 -0.0974946 -0.861062 
-0.557613 -0.596504 -0.577278 0.142011 0.624108 -0.768324 0.806002 -0.0998442 -0.583431 
0.673147 0.33065 -0.661471 -0.289471 0.330772 -0.898218 0.644134 0.540703 -0.541047 
-0.144605 -0.980437 -0.133538 0.744859 -0.664996 -0.0544552 0.963961 -0.0244528 -0.264917 
-0.552486 -0.26562 -0.790067 -0.622884 -0.544237 -0.56198 -0.46798 -0.0766038 -0.880413 
-0.175344 0.528374 -0.830708 0.173753 0.759815 -0.626491 0.459237 0.732953 -0.501877 
0.874245 0.39145 -0.287162 0.0158313 0.694415 -0.719401 0.159235 0.732238 -0.662173 
0.62857 0.69781 -0.343454 -0.347663 -0.933432 -0.0885177 -0.709273 -0.3926 -0.585488 
-0.418113 0.251672 -0.872836 -0.291228 0.227448 -0.929222 -0.444951 -0.0658477 -0.893131 
-0.774876 0.171616 -0.60837 0.0534346 0.405603 -0.912486 -0.231292 0.57092 -0.787753 
-0.00819493 0.72433 -0.689404 0.137499 -0.984018 0.113152 0.315041 -0.945758 0.0793134 
0.940454 -0.331374 0.0757418 0.0351768 0.678654 -0.733615 0.194831 0.901589 -0.386236 
0.270454 0.781776 -0.561854 0.544369 0.809601 -0.219562 -0.195751 0.400235 -0.895262 
-0.0591315 0.727067 -0.684016 -0.538861 0.661548 -0.521521 0.0991574 0.750676 -0.653187 
-0.227541 0.785758 -0.575161 0 -0.159641 -0.987175 0 -1 0 
-0.963361 -0.268207 4.13429e-08 0.963361 -0.268207 4.13429e-08 0 0.5547 -0.83205 
0.755657 -0.629821 0.179743 0.95921 0.277322 -0.0548593 0.891214 0.437514 -0.119664 
-0.491026 0.358797 -0.793825 0.212822 0.470005 -0.856623 -0.150103 -0.0452582 -0.987634 
-0.0844617 0.222365 -0.971298 0.323168 0.149214 -0.934504 0.456182 0.681113 -0.572698 
0.267411 -0.286907 -0.919878 0.339238 -0.0708067 -0.938032 -0.870166 -0.453497 0.192745 
0.361638 -0.1812 -0.914541 0.481099 -0.072611 -0.873654 -0.986824 0.100154 -0.127074 
-0.196249 0.177789 -0.964302 0.417467 -0.110985 -0.901889 0.282577 0.867429 -0.409533 
-0.106008 0.87419 0.473871 0 -0.159641 0.987175 0.0970518 -0.108693 -0.989326 
-0.425119 0.904616 0.0307152 0.715078 0.351496 -0.604246 0.268851 0.587841 -0.762995 
0.558781 -0.805084 0.199009 -0.0126963 -0.993985 0.108775 0.991262 -0.0722596 0.110358 
0.801884 0.58374 -0.127391 0.315458 0.861386 -0.39812 0.0262072 0.726607 -0.686553 
0.0259363 0.620563 -0.783727 -0.248359 0.694025 -0.675756 0.237511 0.0656238 -0.969166 
0.0685285 -0.292426 -0.953829 0.435462 0.168091 -0.884374 -0.0939929 -0.179066 -0.979337 
-0.171471 -0.263269 -0.949361 -0.488432 -0.543676 -0.682533 -0.325233 -0.254599 -0.910716 
0.502318 0.502706 -0.703536 -0.165402 -0.396353 -0.903076 0.117782 0.0980175 -0.98819 
-0.21076 -0.528953 -0.822064 -0.849439 -0.522059 -0.0768667 -0.880582 -0.335439 0.334746 
0.579418 0.500773 -0.643041 -0.862171 -0.235507 0.448551 0.690987 0.32797 -0.644184 
0.607492 0.321662 -0.726283 -0.549227 0.381254 0.743636 0.364676 0.88403 0.292409 
0.500947 0.854069 0.140061 0.676593 0.663988 -0.318344 0.260909 -0.951318 0.164077 
0.830821 -0.513107 0.215541 -0.265427 -0.101992 -0.958721 -0.111263 -0.386838 -0.915411 
0.108085 0.432968 -0.894906 0.334681 0.71381 -0.615194 0.209039 0.8437 -0.494443 
0.302336 0.215175 -0.928597 -0.599079 -0.601004 -0.529054 -0.343649 -0.509421 -0.78892 
0.510998 0.701909 -0.496191 -0.509529 -0.535355 -0.673628 0.546 0.795212 -0.263671 
0.504604 0.722037 -0.473326 0.626955 0.714919 -0.309546 -0.770694 0.0152534 0.637023 
-0.765879 0.0276635 0.642389 0.499752 -0.806156 0.316799 -0.59026 -0.643167 -0.48778 
0.311596 0.901082 -0.301594 0.351508 0.718817 -0.599787 -0.600575 -0.72249 -0.342517 
0.502393 0.857441 -0.111339 0.554473 0.811031 -0.186517 0.549433 0.814264 -0.187345 
0.516321 0.841345 -0.159847 -0.693214 0.309139 0.651067 -0.89315 -0.0272174 0.448936 
-0.412269 0.551281 0.725343 0.328902 -0.92768 0.176732 0.995784 -0.0867119 0.029931 
-0.473219 -0.74266 -0.473835 0.439522 0.851993 -0.284479 0.636043 0.733113 -0.240822 
0.448227 0.89329 -0.0335638 0.475973 0.872381 -0.11136 -0.945793 -0.201487 0.254713 
-0.919924 -0.0589772 0.387634 -0.900964 0.040353 0.432012 -0.0629671 0.851446 0.520649 
0.885402 0.4439 -0.137898 0.519223 0.854057 -0.0315135 0.477318 0.878649 0.0119713 
-0.826111 -0.553797 -0.10416 -0.900563 0.0821347 0.426897 0.511489 0.847605 0.141222 
-0.719986 0.354101 0.596853 -0.698054 0.448077 0.558522 -0.214134 -0.969257 -0.121192 
0.981405 0.164442 -0.0990121 0.936714 0.338692 -0.0886293 0.740205 0.664797 0.100701 
0.218445 0.973265 0.0709742 -0.9407 -0.282184 0.1883 -0.949995 -0.178095 0.256498 
-0.914874 0.0223573 0.40312 0.980667 -0.0972847 0.169787 0.867315 -0.473945 0.15212 
0.983089 0.169163 -0.0701406 0.882492 0.230144 0.410174 0.663421 0.692257 0.283993 
0.588249 0.793132 0.157811 0.435806 0.85798 0.271926 -0.752919 -0.626756 -0.200723 
0.270504 0.922431 0.275587 0.396171 0.82822 0.396358 0.305431 0.902984 0.302212 
0.280992 0.930012 0.236898 -0.970439 -0.205767 0.126126 0.472967 0.809844 0.347067 
0.198213 -0.968405 0.151342 0.723199 -0.68981 0.033846 0.6299 -0.745245 0.218713 
-0.100503 -0.977701 -0.18439 0.96571 -0.164708 0.20069 0.808587 -0.222931 0.544508 
0.714717 0.375523 0.590053 0.733506 0.378986 0.564215 0.832745 0.2855 0.474368 
0.497367 0.682023 0.536163 -0.596254 -0.743742 -0.302207 -0.821105 -0.565343 -0.0785729 
-0.9304 -0.35592 0.0876123 -0.860944 0.285484 0.42104 0.217898 0.87726 0.427709 
-0.33504 0.774986 0.535859 0.0668009 -0.997766 -7.66652e-05 0.469731 -0.850973 0.234941 
0.654149 -0.495906 0.57111 -0.209254 -0.913246 -0.349564 0.700107 -0.0031385 0.714031 
-0.466482 -0.780286 -0.416591 0.423373 0.441173 0.791279 0.54404 0.375691 0.750251 
0.594612 0.404756 0.6947 0.23541 0.832492 0.501537 -0.939528 -0.221406 0.261278 
-0.936364 0.0468182 0.347894 -0.401989 0.691424 0.600281 0.149255 0.854746 0.497124 
-0.102459 0.857662 0.503903 -0.051837 -0.975338 -0.214544 0.19698 -0.800587 0.565914 
0.220339 -0.864676 0.451427 0.515261 -0.657785 0.549386 0.341874 -0.798532 0.495448 
0.442432 -0.192201 0.875964 0.608284 0.0335523 0.79301 0.346674 0.54404 0.764092 
0.424056 0.354427 0.833402 0.387265 0.607077 0.69389 -0.802885 -0.593333 -0.0577262 
0.456459 0.765797 0.452991 -0.924337 -0.0596567 0.376884 -0.800136 0.288718 0.52576 
-0.0383365 -0.982494 -0.182306 0.250382 -0.935094 0.250814 0.405243 -0.668107 0.624028 
-0.621367 -0.704862 -0.34216 0.379571 -0.0156252 0.925031 -0.643943 -0.730095 -0.228689 
-0.539648 0.604918 0.585538 -0.335535 0.723864 0.602857 -0.0522314 0.814013 0.578494 
-0.0296062 -0.99037 -0.135243 -0.425554 -0.878903 -0.215484 -0.677953 -0.714746 -0.171808 
0.42632 0.139019 0.893826 -0.723214 -0.675541 0.143549 -0.910883 -0.312036 0.270048 
-0.93151 -0.0111975 0.363543 0.302833 0.753311 0.583794 -5.81895e-05 0.751947 0.659224 
-0.175068 -0.895337 0.409539 -0.357511 -0.928938 0.0962302 0.389031 -0.847555 0.360979 
0.0412551 -0.991758 0.1213 0.463371 -0.47692 0.746883 -0.499291 -0.863783 -0.0677369 
-0.496868 -0.722064 0.481399 -0.509256 -0.535997 0.673324 0.455256 -0.269377 0.848633 
-0.680257 -0.692575 0.23998 -0.680003 -0.720406 0.136424 -0.619882 -0.634698 0.461416 
0.116806 0.135147 0.983916 0.396285 0.195583 0.897054 -0.578138 -0.535598 0.615541 
-0.725311 -0.534222 0.434201 -0.830982 -0.468816 0.299468 -0.844973 -0.332922 0.418548 
-0.830275 -0.117833 0.544756 -0.807441 0.00441347 0.589932 0.213185 0.577281 0.788225 
-0.686477 0.357125 0.633412 -0.338327 0.666806 0.664007 -0.27802 -0.494159 0.823718 
0.16878 -0.389227 0.905547 -0.471927 -0.34435 0.811608 -0.155418 -0.0434397 0.986893 
-0.0887932 -0.17469 0.980612 0.226849 0.0210694 0.973702 -0.36911 -0.31659 0.873801 
-0.301938 -0.208466 0.930256 -0.619623 -0.180049 0.76397 -0.687721 -0.00298658 0.725968 
-0.567848 0.0714176 0.820029 -0.348193 0.223304 0.910438 -0.267084 -0.119252 0.956266 
0.0304856 0.200899 0.979138 0.235803 -0.0304449 -0.971324 -0.158213 -0.693388 -0.702981 
-0.744122 -0.394022 -0.539471 0.42428 -0.292967 -0.856829 -0.0986546 0.33352 -0.937567 
-0.782541 0.0660366 -0.619087 0.607525 0.433893 -0.66532 -0.0445282 0.437523 -0.898104 
-0.364811 -0.8963 -0.252108 -0.535796 -0.620586 -0.572534 0.333673 -0.517155 -0.788171 
0.160535 -0.945406 -0.283612 -0.576748 -0.681756 -0.450078 -0.76364 -0.559768 -0.321735 
0.0632445 -0.193357 -0.979088 -0.329152 -0.864954 -0.378833 -0.105044 -0.198513 -0.974453 
0.340193 0.0648403 -0.938118 -0.593315 -0.247405 -0.766008 -0.771241 -0.336253 -0.540482 
-0.152024 -0.013239 -0.988288 -0.562775 -0.53453 -0.630525 -0.0788849 0.189861 -0.978637 
-0.558492 -0.756523 -0.340236 0.49825 0.0797199 -0.863361 -0.890738 -0.347329 -0.293169 
-0.510138 0.109509 -0.853092 -0.873615 -0.440498 -0.206782 -0.920903 -0.233728 -0.311944 
-0.869176 -0.0449859 -0.492452 0.0857818 0.46307 -0.882161 -0.579528 0.268602 -0.769415 
-0.954588 0.0209231 -0.297194 -0.255896 0.5427 -0.799996 -0.516671 -0.851684 -0.0876672 
0.171159 -0.974272 -0.146625 -0.43971 -0.895284 -0.07156 -0.165966 -0.429685 -0.887596 
-0.746997 -0.46687 -0.473315 -0.619264 -0.55475 -0.555665 -0.443179 -0.216305 -0.869945 
-0.689047 -0.695671 -0.203117 -0.546899 -0.531308 -0.647003 0.155154 0.265206 -0.951626 
-0.543398 -0.727397 -0.419061 -0.0976751 -0.28863 -0.952445 0.392415 0.42746 -0.814425 
0.245713 0.685811 -0.685046 -0.608544 0.57165 -0.550354 -0.878883 0.312485 -0.360441 
-0.0433199 0.751746 -0.658029 -0.302684 0.761664 -0.572932 0.419909 -0.438501 -0.794603 
0.239455 -0.942626 -0.23263 -0.661921 -0.745792 0.075193 0.163996 0.151347 -0.974782 
0.445705 -0.648848 -0.61672 0.492207 -0.247992 -0.834405 0.485421 -0.0728674 -0.871239 
0.273496 0.239556 -0.931565 -0.761624 -0.638245 -0.112126 -0.938485 -0.331132 -0.097967 
0.442136 0.567197 -0.694841 -0.978584 -0.105994 -0.176463 -0.985801 -0.129013 -0.107476 
-0.897968 0.265398 -0.351023 0.205873 -0.971821 -0.114802 0.179985 -0.715069 -0.675486 
0.0694884 -0.421087 -0.904355 0.233465 -0.726349 -0.646461 0.386887 0.0097212 -0.922076 
0.31419 -0.367942 -0.875159 0.363966 0.256233 -0.895474 0.280276 0.2096 -0.936757 
0.312853 0.444914 -0.839151 -0.789558 -0.611644 0.0499018 -0.843916 -0.519114 0.135374 
0.290019 0.767932 -0.571112 -0.612834 0.588536 -0.527314 0.00403401 0.838435 -0.544987 
0.0862494 -0.911889 -0.401273 0.491252 -0.128292 -0.861517 0.449726 -0.657937 -0.604041 
0.502678 0.170894 -0.847414 0.239025 0.29607 -0.924776 0.491024 0.52699 -0.693669 
0.399546 0.51349 -0.759402 -0.955873 -0.258089 -0.140348 -0.951654 -0.00834587 -0.307057 
-0.167649 -0.959816 0.225051 0.805188 -0.101938 -0.584193 0.963096 -0.187026 -0.193568 
-0.468249 -0.810864 0.351059 0.372987 0.748198 -0.548708 0.448717 0.721751 -0.527 
0.308569 0.776869 -0.548871 0.429687 0.723776 -0.539923 -0.933948 0.00902906 -0.357295 
-0.921941 0.0559383 -0.383271 -0.0949331 0.792924 -0.60188 -0.371411 0.724174 -0.581056 
0.258126 -0.939787 -0.22399 0.519896 -0.821506 -0.234172 -0.137364 -0.954719 0.263898 
0.712284 -0.663841 -0.227959 0.796762 0.461714 -0.389861 0.932919 0.334375 -0.133625 
0.326052 0.780622 -0.533217 0.660422 0.687003 -0.303101 0.367363 0.798712 -0.476554 
0.467301 0.858837 -0.209833 0.684765 0.721358 -0.103629 0.365447 0.776171 -0.513816 
0.37534 0.814288 -0.442781 -0.893995 -0.408233 -0.184713 -0.794127 0.365855 -0.485296 
-0.278147 0.888879 -0.364044 -0.109711 0.971342 -0.21085 0.322576 0.805474 -0.497148 
0.0510462 0.901071 -0.430658 -0.147444 -0.988995 0.012189 0.710046 -0.704063 0.0114201 
0.953418 -0.301027 0.0194091 0.817661 0.575561 -0.0126359 -0.894757 -0.441307 -0.0682483 
-0.977924 -0.125412 -0.167143 0.472921 0.818942 -0.325083 -0.927849 0.0711725 -0.366102 
-0.552967 0.657152 -0.51223 0.093004 0.904743 -0.41568 0.300809 0.931139 -0.206141 
0.028894 -0.998971 -0.0349623 0.99702 -0.0643284 0.0425791 -0.491608 -0.766542 0.413201 
0.455301 0.865406 -0.209223 0.417886 0.89849 -0.134487 -0.536928 0.558061 -0.632674 
-0.00527175 -0.997274 -0.0735999 0.509215 0.860029 -0.0324038 -0.858581 -0.511687 0.0318656 
-0.905767 -0.423375 -0.018446 0.499501 0.863942 -0.0640524 0.394322 0.848256 -0.353514 
-0.220461 0.772823 -0.595099 0.784652 0.60983 -0.111486 -0.481356 -0.680424 0.552557 
0.515368 0.851717 0.0947337 0.344579 0.930413 0.124888 -0.440995 -0.727217 0.526002 
-0.913814 -0.404418 -0.037284 0.51754 0.855514 0.0157604 -0.878233 -0.478214 -0.00440211 