# vtk DataFile Version 4.2
vtk output
ASCII
DATASET POLYDATA
POINTS 347 float
319.306 97.9863 206.471 319.254 97.7478 206.522 319.502 97.8018 206.471 
319.861 97.9015 206.525 318.954 98.2617 206.652 319.76 98.2853 206.537 
319.351 97.1895 206.704 320.337 97.8097 206.662 318.492 98.4357 207.027 
319.809 98.4941 206.612 323.1 94.4959 207.327 324.377 94.1762 207.694 
321.56 95.6381 207.044 318.358 96.6156 207.555 318.143 97.0062 207.595 
322.17 99.0666 207.673 318.714 99.9052 207.732 319.595 100.672 208.036 
320.052 100.797 208.058 324.099 91.357 208.441 325.089 90.6893 208.949 
322.896 91.4041 208.503 325.339 91.0363 208.836 325.705 91.2652 208.935 
320.325 93.6715 207.986 325.168 93.423 208.217 318.492 94.8234 208.51 
324.714 95.4207 207.997 325.635 96.731 208.965 317.945 99.7957 208.181 
318.625 100.943 208.636 321.212 100.431 207.968 323.179 89.5595 210.229 
325.8 89.2263 210.156 325.906 88.9282 210.497 323.404 90.1369 209.41 
321.105 91.0204 210.028 323.12 90.7172 208.984 326.591 89.7722 210.182 
320.767 91.7113 209.469 321.48 91.4782 209.086 326.863 90.9349 209.897 
326.506 93.2364 209.2 317.857 94.4295 210.199 318.046 94.9566 209.016 
316.749 96.94 209.455 316.555 97.9799 209.552 323.903 99.9083 209.218 
324.291 99.7862 209.515 324.755 99.3065 209.535 317.454 101.269 209.996 
322.325 101.201 209.378 325.605 88.5785 210.978 322.032 89.9951 210.72 
326.648 89.0996 210.752 319.964 91.7658 210.658 327.763 91.7073 210.794 
327.506 94.0074 210.343 316.907 95.9877 210.178 316.587 96.4162 210.526 
316.195 97.2815 210.266 326.589 96.8688 210.113 316.244 97.44 210.213 
316.304 98.0144 210.136 322.969 101.098 209.84 317.929 102.135 210.846 
325.693 88.2627 211.425 325.963 88.2904 211.521 320.413 91.2115 211.813 
328.059 94.4875 211.505 327.55 95.651 210.992 316.166 97.3653 210.391 
316.182 97.5536 210.748 316.095 98.4194 210.818 326.616 97.6536 210.778 
316.071 99.5883 211.173 316.226 100.071 211.211 325.777 98.8232 210.634 
323.687 100.885 210.607 317.573 102.091 211.727 319.009 102.958 211.708 
325.327 88.175 211.802 325.491 88.0946 212.278 325.882 88.0832 212.208 
326.24 88.3168 211.709 317.398 94.9812 211.914 316.42 96.826 211.703 
316.434 97.0071 212.134 327.743 96.1363 212.355 315.89 99.3165 211.971 
316.294 100.646 212.094 318.019 102.438 212.127 318.95 102.965 212.176 
320.146 103.006 211.589 319.645 103.124 211.884 325.059 88.2291 212.627 
326.192 88.1854 212.414 326.535 88.4192 212.728 326.937 88.8154 212.486 
322.305 89.6623 212.735 328.086 90.2457 212.505 321.334 90.4752 212.723 
328.571 93.3598 213.351 316.633 97.0217 212.704 316.022 99 212.72 
326.082 98.9582 212.566 323.863 100.957 212.456 320.062 103.034 212.36 
319.281 103.057 212.348 325.542 88.1998 213.278 325.865 88.1695 213.122 
324.163 89.0377 214.063 327.247 89.3433 213.874 327.758 89.9944 213.803 
328.556 92.931 213.751 326.801 98.1253 213.075 326.779 98.0494 213.658 
316.194 100.127 213.368 316.13 100.243 213.12 317.604 101.893 213.547 
321.116 102.385 213.422 317.941 102.197 213.37 326.23 88.4017 213.458 
326.991 89.2874 214.466 323.395 90.0705 215.005 328.076 90.5685 213.903 
328.183 91.0055 214.106 319.778 93.5331 214.739 328.263 93.3446 214.695 
327.486 96.5304 214.461 316.239 100.355 213.349 316.9 101.114 213.672 
323.357 100.701 214.665 325.445 88.918 214.793 326.63 89.227 214.838 
322.046 91.4159 215.207 321.241 92.6402 215.543 327.754 94.2881 215.289 
319.308 95.3204 215.434 327.193 96.3846 215.252 317.527 98.644 214.75 
317.729 101.268 214.358 325.635 89.5942 215.654 326.952 89.9527 215.402 
326.712 90.1052 215.738 324.217 90.6451 216.063 327.481 92.7463 215.811 
327.031 94.913 216.138 324.957 97.7192 216.552 319.358 98.7139 216.165 
323.276 99.1936 216.436 319.515 99.8239 216.053 319.878 100.008 216.145 
320.551 100.318 216.105 321.68 99.8941 216.308 318.569 101.085 214.907 
320.295 100.795 215.641 325.873 89.9958 215.942 326.333 89.9236 215.781 
326.945 91.5885 216.215 323.486 92.5419 216.8 322.923 92.799 216.691 
326.436 93.4978 216.767 326.251 94.2168 216.863 321.174 95.7002 216.873 
325.138 96.8701 216.844 323.667 97.5648 217.198 321.551 98.155 217.148 
322.237 98.36 217.147 322.536 97.9943 217.261 326.237 91.5534 216.632 
324.804 93.1903 217.221 323.735 94.9376 217.431 324.137 95.4422 217.442 
324.801 95.5161 217.301 321.98 97.3985 217.318 326.494 91.785 238.266 
326.728 91.5486 238.479 326.396 92.3116 238.149 324.451 92.9014 237.857 
323.583 93.5815 237.955 326.666 93.3304 238.33 323.642 94.9635 237.779 
324.805 94.6762 237.743 325.284 95.5842 238.024 322.776 97.0151 238.03 
323.233 97.2633 238.066 325.332 91.2118 238.372 325.634 90.6117 238.748 
326.266 90.8448 238.582 327.527 94.2499 239.399 321.403 95.6706 238.42 
322.357 95.9221 238.021 320.944 97.89 238.519 325.295 97.6729 238.999 
321.346 98.5137 238.546 322.678 98.4513 238.524 321.297 99.7049 239.039 
324.988 89.7957 239.708 326.973 90.185 239.514 327.097 89.9495 239.876 
326.936 90.6114 239.177 327.827 92.0019 239.765 320.879 94.0725 239.308 
319.76 96.6544 239.145 320.321 96.8819 238.798 326.819 96.2759 239.544 
318.988 97.8248 239.481 318.684 99.563 239.738 323.327 99.3603 239.165 
317.728 99.6869 240.335 318.57 100.847 240.203 326.145 89.2051 240.244 
326.49 89.0079 240.619 326.793 89.2008 240.488 319.404 95.0063 240.006 
317.495 97.8776 240.718 325.354 98.6837 239.972 317.222 100.28 240.972 
321.47 101.171 240.204 319.409 101.854 240.922 325.724 88.6786 241.148 
326.828 89.0429 240.942 321.384 91.3386 240.968 328.394 92.419 240.935 
328.401 93.7423 241.2 328.442 93.9447 241.57 317.494 96.1054 241.574 
326.749 97.4068 240.619 316.238 99.6965 242.152 322.479 101.16 240.623 
326.411 88.5104 241.734 326.118 88.3076 242.033 326.513 88.4624 242.215 
328.055 90.2596 241.485 322.197 89.9882 241.945 328.346 90.8803 241.814 
328.572 93.2876 242.217 318.231 94.3866 241.952 328.368 94.3276 242.213 
316.358 98.8173 241.918 316.105 100.081 242.914 324.666 100.24 241.58 
316.503 100.725 242.319 321.327 102.248 241.827 318.07 102.271 242.703 
319.853 102.735 242.416 325.286 88.161 242.503 325.093 88.1723 242.798 
325.885 88.0975 242.793 326.489 88.4042 242.796 328.059 90.2559 242.478 
319.767 91.8072 243.302 318.25 93.6712 243.168 316.251 97.1978 243.295 
327.333 96.9803 242.672 315.918 98.2525 243.431 326.517 98.4239 242.534 
326.509 98.4463 243.053 316.289 100.752 243.32 316.518 101.035 243.11 
316.501 101.01 243.673 319.097 102.814 243.529 321.132 102.601 243.097 
319.954 102.981 243.305 320.33 102.945 243.28 325.466 88.1133 243.256 
326.378 88.3596 243.154 325.15 88.297 243.581 326.675 88.7145 243.315 
322.371 89.5297 244.161 318.914 92.6561 243.96 328.157 92.0546 243.722 
328.392 93.2544 243.106 315.937 97.7654 244.045 316.123 100.334 243.864 
316.222 100.631 243.653 316.558 100.948 244.212 317.48 101.828 244.292 
319.197 102.755 243.996 320.68 102.822 243.507 319.445 102.907 243.751 
325.648 88.2035 243.491 326.099 88.3354 243.456 325.012 88.5846 244.279 
326.701 88.9646 243.943 326.519 88.952 244.257 316.899 95.5362 244.939 
326.071 98.5782 244.459 324.745 100.322 243.908 317.795 101.94 244.648 
321.796 102.221 244.32 320.148 102.805 244.131 320.586 102.765 243.989 
324.184 88.9958 245.124 325.961 89.084 244.91 322.424 89.8307 245.399 
321.437 90.4317 245.326 326.961 90.615 245.248 318.093 93.8981 245.425 
316.652 96.1337 245.068 327.017 94.8408 245.508 316.06 97.8718 244.841 
326.143 97.159 245.735 317.33 100.952 245.738 323.15 101.148 245.221 
323.856 89.4474 245.808 326.258 90.016 245.555 321.724 90.9146 246.286 
322.115 91.0162 246.641 325.991 91.8587 246.442 321.494 91.7197 246.864 
318.818 93.355 245.974 326.024 93.5996 246.658 317.6 94.6684 245.728 
316.69 96.814 245.744 317.662 101.133 245.981 321.826 100.882 246.672 
319.558 101.464 246.623 324.205 89.6622 246.04 325.406 89.9856 246.036 
323.497 91.5846 247.273 322.753 92.1968 247.499 320.163 93.9237 247.522 
324.805 94.429 247.432 318.854 95.125 247.465 323.227 98.4275 247.616 
322.212 99.7239 247.495 318.132 100.153 247.393 318.508 100.124 247.668 
318.654 101.475 246.411 323.01 93.6735 247.913 323.688 93.3803 247.764 
317.819 98.5752 247.623 318.144 99.359 247.796 319.362 100.172 247.965 
321.052 96.4861 248.717 319.361 97.2152 248.724 318.702 98.041 248.508 
318.988 97.808 248.651 318.896 98.2269 248.614 319.87 98.59 248.778 
318.906 99.3294 248.338 319.991 99.4774 248.421 319.528 99.3954 248.506 
319.222 99.5181 248.392 319.295 99.1111 248.571 
POLYGONS 686 2744
3 1 0 2 
3 2 0 3 
3 9 5 0 
3 9 0 4 
3 3 0 5 
3 6 1 7 
3 0 1 4 
3 1 2 3 
3 1 3 7 
3 5 9 3 
3 3 9 7 
3 6 12 10 
3 27 10 12 
3 27 11 10 
3 6 13 14 
3 6 14 1 
3 7 12 6 
3 15 12 7 
3 27 12 15 
3 1 8 4 
3 14 8 1 
3 8 14 29 
3 15 7 9 
3 4 31 9 
3 31 15 9 
3 8 29 16 
3 4 8 16 
3 16 31 4 
3 18 31 17 
3 17 31 16 
3 19 20 21 
3 19 22 20 
3 19 21 10 
3 21 24 10 
3 11 19 10 
3 11 25 19 
3 25 22 19 
3 42 23 22 
3 25 42 22 
3 24 26 6 
3 24 6 10 
3 25 11 27 
3 26 13 6 
3 28 25 27 
3 13 26 45 
3 46 13 45 
3 14 13 46 
3 14 46 29 
3 15 28 27 
3 28 15 47 
3 29 17 16 
3 30 17 29 
3 17 30 18 
3 30 50 18 
3 32 33 81 
3 33 32 35 
3 20 33 35 
3 38 34 33 
3 37 32 36 
3 32 37 35 
3 20 37 21 
3 20 35 37 
3 38 33 41 
3 41 33 20 
3 39 36 55 
3 36 39 37 
3 37 39 40 
3 21 37 40 
3 23 20 22 
3 23 41 20 
3 39 55 24 
3 40 39 21 
3 21 39 24 
3 56 41 23 
3 57 56 23 
3 42 57 23 
3 55 43 24 
3 42 25 57 
3 58 44 43 
3 26 24 44 
3 24 43 44 
3 26 44 58 
3 26 58 45 
3 25 28 57 
3 28 77 61 
3 28 61 57 
3 28 47 48 
3 28 48 49 
3 29 46 50 
3 29 50 30 
3 31 51 15 
3 15 51 64 
3 47 15 64 
3 18 51 31 
3 34 52 33 
3 54 52 34 
3 54 34 38 
3 32 53 36 
3 41 56 38 
3 57 102 56 
3 43 85 58 
3 45 58 59 
3 60 45 59 
3 62 45 60 
3 62 63 45 
3 63 46 45 
3 61 77 74 
3 28 49 77 
3 47 64 78 
3 48 47 78 
3 18 50 80 
3 50 65 80 
3 93 18 80 
3 51 18 93 
3 66 81 52 
3 81 33 52 
3 52 54 84 
3 52 84 67 
3 52 67 66 
3 36 53 68 
3 54 38 100 
3 36 68 55 
3 38 56 100 
3 100 56 102 
3 68 43 55 
3 102 57 69 
3 58 86 59 
3 59 86 60 
3 57 70 69 
3 60 72 71 
3 60 86 72 
3 57 61 70 
3 71 62 60 
3 73 63 72 
3 71 72 62 
3 62 72 63 
3 61 74 88 
3 61 88 70 
3 63 73 46 
3 46 89 75 
3 75 76 46 
3 46 76 50 
3 49 48 77 
3 50 76 90 
3 79 50 90 
3 65 50 79 
3 78 64 51 
3 93 80 94 
3 81 66 82 
3 82 66 83 
3 67 84 66 
3 66 84 83 
3 81 95 32 
3 32 95 99 
3 53 32 99 
3 68 99 101 
3 99 68 53 
3 85 43 68 
3 58 85 86 
3 86 87 73 
3 86 73 72 
3 73 104 89 
3 46 73 89 
3 74 115 88 
3 118 75 89 
3 76 75 90 
3 77 48 105 
3 105 74 77 
3 75 118 90 
3 48 78 106 
3 78 51 106 
3 79 119 91 
3 65 79 91 
3 65 91 80 
3 80 92 94 
3 82 83 95 
3 81 82 95 
3 84 96 83 
3 97 96 84 
3 84 98 97 
3 54 98 84 
3 98 54 100 
3 69 70 102 
3 87 86 103 
3 86 85 103 
3 70 88 102 
3 73 103 104 
3 73 87 103 
3 115 116 88 
3 74 105 115 
3 89 117 118 
3 48 106 105 
3 90 119 79 
3 91 119 121 
3 80 91 121 
3 121 92 80 
3 108 92 121 
3 107 120 93 
3 106 51 93 
3 120 106 93 
3 94 92 108 
3 107 94 108 
3 93 94 107 
3 83 109 95 
3 109 83 110 
3 83 96 110 
3 99 95 111 
3 109 111 95 
3 97 122 96 
3 98 122 97 
3 112 122 98 
3 125 98 100 
3 125 113 98 
3 113 112 98 
3 99 111 101 
3 68 101 135 
3 85 140 103 
3 102 88 129 
3 103 140 104 
3 88 116 129 
3 104 117 89 
3 105 116 115 
3 116 105 106 
3 130 90 118 
3 131 90 130 
3 131 119 90 
3 108 120 107 
3 110 96 122 
3 109 110 122 
3 133 111 109 
3 122 133 109 
3 122 112 134 
3 123 134 112 
3 123 112 143 
3 143 112 113 
3 111 124 101 
3 125 126 113 
3 126 143 113 
3 135 101 124 
3 126 125 100 
3 126 100 102 
3 127 68 135 
3 102 114 126 
3 126 114 128 
3 68 127 85 
3 102 128 114 
3 85 138 140 
3 85 127 138 
3 129 139 102 
3 104 140 117 
3 117 130 118 
3 120 132 106 
3 131 141 119 
3 156 150 120 
3 108 121 156 
3 120 108 156 
3 133 122 134 
3 133 142 111 
3 123 143 134 
3 135 136 127 
3 128 146 126 
3 128 102 137 
3 137 102 147 
3 102 139 147 
3 129 116 139 
3 117 141 130 
3 117 140 141 
3 120 150 132 
3 116 132 150 
3 116 106 132 
3 130 141 131 
3 119 141 121 
3 121 155 156 
3 142 133 134 
3 134 143 142 
3 111 145 124 
3 111 142 145 
3 159 144 143 
3 143 126 159 
3 124 160 135 
3 124 145 160 
3 135 160 136 
3 126 146 159 
3 161 136 160 
3 146 128 162 
3 136 161 127 
3 128 137 162 
3 162 137 147 
3 127 164 138 
3 127 161 164 
3 138 164 140 
3 140 164 149 
3 149 164 167 
3 139 148 165 
3 148 139 116 
3 140 149 155 
3 155 149 151 
3 148 116 150 
3 140 155 141 
3 153 154 150 
3 151 156 155 
3 152 156 151 
3 153 156 152 
3 153 150 156 
3 155 121 141 
3 142 143 158 
3 157 142 158 
3 143 144 158 
3 158 159 157 
3 158 144 159 
3 142 157 145 
3 159 170 157 
3 145 170 160 
3 159 146 170 
3 162 172 170 
3 170 146 162 
3 163 162 147 
3 174 163 139 
3 163 147 139 
3 139 165 174 
3 165 148 166 
3 149 167 152 
3 166 148 169 
3 149 152 151 
3 154 152 167 
3 168 154 167 
3 168 169 154 
3 169 150 154 
3 148 150 169 
3 154 153 152 
3 157 170 145 
3 160 171 161 
3 170 171 160 
3 172 171 170 
3 171 164 161 
3 172 164 171 
3 162 163 172 
3 172 173 164 
3 173 175 164 
3 163 174 172 
3 174 173 172 
3 165 175 173 
3 174 165 173 
3 164 175 167 
3 165 166 175 
3 168 167 175 
3 169 168 175 
3 166 169 175 
3 178 176 189 
3 189 176 177 
3 178 177 176 
3 183 180 182 
3 179 180 183 
3 178 179 181 
3 181 179 183 
3 184 183 182 
3 181 183 184 
3 186 182 192 
3 185 186 192 
3 184 182 186 
3 184 186 209 
3 187 189 188 
3 189 187 178 
3 189 177 202 
3 180 179 187 
3 187 179 178 
3 177 178 181 
3 181 202 177 
3 182 180 203 
3 190 202 181 
3 192 182 203 
3 205 193 191 
3 192 191 185 
3 185 191 193 
3 185 193 186 
3 186 193 196 
3 209 186 196 
3 194 184 209 
3 209 196 195 
3 195 196 193 
3 209 195 197 
3 188 189 198 
3 198 189 212 
3 189 199 200 
3 212 189 200 
3 188 198 187 
3 201 199 189 
3 201 189 202 
3 201 202 199 
3 203 180 187 
3 215 191 203 
3 192 203 191 
3 181 184 206 
3 190 181 206 
3 215 204 205 
3 215 205 191 
3 184 194 206 
3 207 193 204 
3 205 204 193 
3 193 207 195 
3 194 209 217 
3 195 207 211 
3 211 207 208 
3 208 210 211 
3 195 211 197 
3 209 197 230 
3 210 218 211 
3 212 213 198 
3 212 214 213 
3 212 200 214 
3 234 214 200 
3 200 199 234 
3 199 202 234 
3 202 190 224 
3 225 190 206 
3 227 204 215 
3 216 207 227 
3 227 207 204 
3 194 228 206 
3 207 216 208 
3 217 228 194 
3 216 210 208 
3 242 217 209 
3 230 242 209 
3 197 211 220 
3 219 197 220 
3 197 219 230 
3 232 221 231 
3 232 247 198 
3 221 232 198 
3 221 198 213 
3 221 213 231 
3 214 222 213 
3 213 222 231 
3 198 247 235 
3 214 234 222 
3 198 235 187 
3 187 235 223 
3 202 236 234 
3 187 223 203 
3 224 236 202 
3 224 190 225 
3 237 224 225 
3 223 238 227 
3 223 227 215 
3 203 223 215 
3 225 206 226 
3 237 225 226 
3 228 217 242 
3 229 210 240 
3 210 216 240 
3 229 218 210 
3 229 243 218 
3 218 243 211 
3 245 211 243 
3 245 220 211 
3 220 244 219 
3 244 230 219 
3 220 245 246 
3 244 220 246 
3 232 231 233 
3 235 247 248 
3 251 231 222 
3 251 222 234 
3 236 224 237 
3 226 273 237 
3 273 226 239 
3 226 206 255 
3 227 254 216 
3 254 240 216 
3 206 228 255 
3 242 257 228 
3 229 240 241 
3 243 229 259 
3 259 229 241 
3 247 249 248 
3 232 249 247 
3 249 232 233 
3 250 249 233 
3 233 231 251 
3 269 233 251 
3 235 248 252 
3 285 269 251 
3 251 234 236 
3 235 252 223 
3 223 252 271 
3 238 271 253 
3 271 238 223 
3 238 253 227 
3 226 255 239 
3 254 227 253 
3 274 240 254 
3 240 274 256 
3 258 228 257 
3 258 255 228 
3 240 256 241 
3 289 257 242 
3 276 259 241 
3 259 261 260 
3 230 289 242 
3 259 260 243 
3 243 260 245 
3 244 289 230 
3 246 245 262 
3 265 263 246 
3 263 244 246 
3 263 291 244 
3 246 262 281 
3 264 246 281 
3 265 246 264 
3 249 266 248 
3 249 267 266 
3 267 249 250 
3 248 284 296 
3 266 268 248 
3 268 284 248 
3 250 269 267 
3 233 269 250 
3 248 270 252 
3 272 285 251 
3 251 236 272 
3 273 272 236 
3 236 237 273 
3 239 255 288 
3 256 274 302 
3 255 258 288 
3 256 302 241 
3 302 275 241 
3 257 288 258 
3 275 276 241 
3 288 257 289 
3 276 261 259 
3 276 275 261 
3 275 277 261 
3 260 261 277 
3 277 245 260 
3 278 245 277 
3 291 289 244 
3 245 278 290 
3 262 245 279 
3 245 290 279 
3 263 280 293 
3 265 280 263 
3 293 291 263 
3 262 279 281 
3 264 281 265 
3 266 267 283 
3 282 266 283 
3 284 294 296 
3 282 268 266 
3 282 284 268 
3 286 282 283 
3 269 285 286 
3 269 286 283 
3 269 283 267 
3 252 270 296 
3 296 270 248 
3 297 252 296 
3 271 299 314 
3 253 271 314 
3 272 273 301 
3 253 314 287 
3 273 239 301 
3 254 253 300 
3 239 288 301 
3 302 274 300 
3 274 254 300 
3 277 275 302 
3 304 277 302 
3 277 290 278 
3 277 304 290 
3 305 289 291 
3 279 292 281 
3 292 291 293 
3 265 281 292 
3 293 265 292 
3 280 265 293 
3 294 306 296 
3 282 295 284 
3 284 295 294 
3 286 295 282 
3 286 298 295 
3 286 285 298 
3 285 272 298 
3 252 297 312 
3 271 252 312 
3 298 272 301 
3 312 299 271 
3 253 287 300 
3 301 288 303 
3 300 315 302 
3 303 288 289 
3 334 304 302 
3 304 330 290 
3 316 330 304 
3 279 290 330 
3 279 330 292 
3 294 320 306 
3 320 294 295 
3 307 320 295 
3 295 298 307 
3 309 297 296 
3 308 297 309 
3 298 320 307 
3 310 320 298 
3 311 308 309 
3 311 297 308 
3 312 297 311 
3 298 301 310 
3 301 313 310 
3 303 313 301 
3 300 287 315 
3 333 302 315 
3 333 334 302 
3 334 316 304 
3 316 334 328 
3 289 305 303 
3 330 316 328 
3 303 305 317 
3 317 291 318 
3 305 291 317 
3 292 330 318 
3 291 292 318 
3 306 320 319 
3 296 306 319 
3 319 309 296 
3 319 321 309 
3 320 321 319 
3 311 309 322 
3 322 309 321 
3 310 313 320 
3 324 320 313 
3 299 312 323 
3 299 323 314 
3 314 323 325 
3 313 303 324 
3 314 325 315 
3 287 314 315 
3 325 333 315 
3 326 324 303 
3 326 303 327 
3 330 328 329 
3 327 317 335 
3 303 317 327 
3 329 318 330 
3 317 318 335 
3 322 321 332 
3 320 332 321 
3 311 323 312 
3 311 322 331 
3 323 311 331 
3 332 331 322 
3 320 324 332 
3 331 336 323 
3 325 323 337 
3 337 323 336 
3 332 324 331 
3 324 336 331 
3 333 325 337 
3 337 339 333 
3 324 326 336 
3 326 341 336 
3 334 342 329 
3 343 341 327 
3 326 327 341 
3 334 329 328 
3 342 335 329 
3 327 335 343 
3 329 335 318 
3 337 336 341 
3 339 338 333 
3 338 340 333 
3 339 340 338 
3 333 340 342 
3 334 333 342 
3 343 346 341 
3 344 346 343 
3 345 335 342 
3 343 345 344 
3 343 335 345 
3 339 337 341 
3 340 339 341 
3 342 340 346 
3 346 340 341 
3 342 346 345 
3 344 345 346 

POINT_DATA 347
COLOR_SCALARS scalars 3
1 0.564706 1 1 0.564706 1 1 0.564706 1 
1 0.564706 1 1 0.564706 1 
1 0.564706 1 1 0.564706 1 
1 0.564706 1 1 0.564706 1 
1 0.564706 1 1 0.564706 1 
1 0.564706 1 1 0.564706 1 
1 0.564706 1 1 0.564706 1 
1 0.564706 1 1 0.564706 1 
1 0.564706 1 1 0.564706 1 
1 0.564706 1 1 0.564706 1 
1 0.564706 1 1 0.564706 1 
1 0.564706 1 1 0.564706 1 
1 0.564706 1 1 0.564706 1 
1 0.564706 1 1 0.564706 1 
1 0.564706 1 1 0.564706 1 
1 0.564706 1 1 0.564706 1 
1 0.564706 1 1 0.564706 1 
1 0.564706 1 1 0.564706 1 
1 0.564706 1 1 0.564706 1 
1 0.564706 1 1 0.564706 1 
1 0.564706 1 1 0.564706 1 
1 0.564706 1 1 0.564706 1 
1 0.564706 1 1 0.564706 1 
1 0.564706 1 1 0.564706 1 
1 0.564706 1 1 0.564706 1 
1 0.564706 1 1 0.564706 1 
1 0.564706 1 1 0.564706 1 
1 0.564706 1 1 0.564706 1 
1 0.564706 1 1 0.564706 1 
1 0.564706 1 1 0.564706 1 
1 0.564706 1 1 0.564706 1 
1 0.564706 1 1 0.564706 1 
1 0.564706 1 1 0.564706 1 
1 0.564706 1 1 0.564706 1 
1 0.564706 1 1 0.564706 1 
1 0.564706 1 1 0.564706 1 
1 0.564706 1 1 0.564706 1 
1 0.564706 1 1 0.564706 1 
1 0.564706 1 1 0.564706 1 
1 0.564706 1 1 0.564706 1 
1 0.564706 1 1 0.564706 1 
1 0.564706 1 1 0.564706 1 
1 0.564706 1 1 0.564706 1 
1 0.564706 1 1 0.564706 1 
1 0.564706 1 1 0.564706 1 
1 0.564706 1 1 0.564706 1 
1 0.564706 1 1 0.564706 1 
1 0.564706 1 1 0.564706 1 
1 0.564706 1 1 0.564706 1 
1 0.564706 1 1 0.564706 1 
1 0.564706 1 1 0.564706 1 
1 0.564706 1 1 0.564706 1 
1 0.564706 1 1 0.564706 1 
1 0.564706 1 1 0.564706 1 
1 0.564706 1 1 0.564706 1 
1 0.564706 1 1 0.564706 1 
1 0.564706 1 1 0.564706 1 
1 0.564706 1 1 0.564706 1 
1 0.564706 1 1 0.564706 1 
1 0.564706 1 1 0.564706 1 
1 0.564706 1 1 0.564706 1 
1 0.564706 1 1 0.564706 1 
1 0.564706 1 1 0.564706 1 
1 0.564706 1 1 0.564706 1 
1 0.564706 1 1 0.564706 1 
1 0.564706 1 1 0.564706 1 
1 0.564706 1 1 0.564706 1 
1 0.564706 1 1 0.564706 1 
1 0.564706 1 1 0.564706 1 
1 0.564706 1 1 0.564706 1 
1 0.564706 1 1 0.564706 1 
1 0.564706 1 1 0.564706 1 
1 0.564706 1 1 0.564706 1 
1 0.564706 1 1 0.564706 1 
1 0.564706 1 1 0.564706 1 
1 0.564706 1 1 0.564706 1 
1 0.564706 1 1 0.564706 1 
1 0.564706 1 1 0.564706 1 
1 0.564706 1 1 0.564706 1 
1 0.564706 1 1 0.564706 1 
1 0.564706 1 1 0.564706 1 
1 0.564706 1 1 0.564706 1 
1 0.564706 1 1 0.564706 1 
1 0.564706 1 1 0.564706 1 
1 0.564706 1 1 0.564706 1 
1 0.564706 1 1 0.564706 1 
1 0.564706 1 1 0.564706 1 
1 0.564706 1 1 0.564706 1 
1 0.564706 1 1 0.564706 1 
1 0.564706 1 1 0.564706 1 
1 0.564706 1 1 0.564706 1 
1 0.564706 1 1 0.564706 1 
1 0.564706 1 1 0.564706 1 
1 0.564706 1 1 0.564706 1 
1 0.564706 1 1 0.564706 1 
1 0.564706 1 1 0.564706 1 
1 0.564706 1 1 0.564706 1 
1 0.564706 1 1 0.564706 1 
1 0.564706 1 1 0.564706 1 
1 0.564706 1 1 0.564706 1 
1 0.564706 1 1 0.564706 1 
1 0.564706 1 1 0.564706 1 
1 0.564706 1 1 0.564706 1 
1 0.564706 1 1 0.564706 1 
1 0.564706 1 1 0.564706 1 
1 0.564706 1 1 0.564706 1 
1 0.564706 1 1 0.564706 1 
1 0.564706 1 1 0.564706 1 
1 0.564706 1 1 0.564706 1 
1 0.564706 1 1 0.564706 1 
1 0.564706 1 1 0.564706 1 
1 0.564706 1 1 0.564706 1 
1 0.564706 1 1 0.564706 1 
1 0.564706 1 1 0.564706 1 
1 0.564706 1 1 0.564706 1 
1 0.564706 1 1 0.564706 1 
1 0.564706 1 1 0.564706 1 
1 0.564706 1 1 0.564706 1 
1 0.564706 1 1 0.564706 1 
1 0.564706 1 1 0.564706 1 
1 0.564706 1 1 0.564706 1 
1 0.564706 1 1 0.564706 1 
1 0.564706 1 1 0.564706 1 
1 0.564706 1 1 0.564706 1 
1 0.564706 1 1 0.564706 1 
1 0.564706 1 1 0.564706 1 
1 0.564706 1 1 0.564706 1 
1 0.564706 1 1 0.564706 1 
1 0.564706 1 1 0.564706 1 
1 0.564706 1 1 0.564706 1 
1 0.564706 1 1 0.564706 1 
1 0.564706 1 1 0.564706 1 
1 0.564706 1 1 0.564706 1 
1 0.564706 1 1 0.564706 1 
1 0.564706 1 1 0.564706 1 
1 0.564706 1 1 0.564706 1 
1 0.564706 1 1 0.564706 1 
1 0.564706 1 1 0.564706 1 
1 0.564706 1 1 0.564706 1 
1 0.564706 1 1 0.564706 1 
1 0.564706 1 1 0.564706 1 
1 0.564706 1 1 0.564706 1 
1 0.564706 1 1 0.564706 1 
1 0.564706 1 1 0.564706 1 
1 0.564706 1 1 0.564706 1 
1 0.564706 1 1 0.564706 1 
1 0.564706 1 1 0.564706 1 
1 0.564706 1 1 0.564706 1 
1 0.564706 1 1 0.564706 1 
1 0.564706 1 1 0.564706 1 
1 0.564706 1 1 0.564706 1 
1 0.564706 1 1 0.564706 1 
1 0.564706 1 1 0.564706 1 
1 0.564706 1 1 0.564706 1 
1 0.564706 1 1 0.564706 1 
1 0.564706 1 1 0.564706 1 
1 0.564706 1 1 0.564706 1 
1 0.564706 1 1 0.564706 1 
1 0.564706 1 1 0.564706 1 
1 0.564706 1 1 0.564706 1 
1 0.564706 1 1 0.564706 1 
1 0.564706 1 1 0.564706 1 
1 0.564706 1 1 0.564706 1 
1 0.564706 1 1 0.564706 1 
1 0.564706 1 1 0.564706 1 
1 0.564706 1 1 0.564706 1 
1 0.564706 1 1 0.564706 1 
1 0.564706 1 1 0.564706 1 
1 0.564706 1 1 0.564706 1 
1 0.564706 1 1 0.564706 1 
1 0.564706 1 1 0.564706 1 
1 0.564706 1 1 0.564706 1 
1 0.564706 1 1 0.564706 1 

NORMALS Normals float
-0.121105 0.120271 -0.985327 -0.296661 -0.409816 -0.862579 0.0938814 -0.487146 -0.86826 
0.303961 -0.2051 -0.930345 -0.367342 0.319946 -0.873324 0.191552 0.203681 -0.960116 
-0.286131 -0.367812 -0.884784 0.248378 -0.0873633 -0.964715 -0.668032 0.118075 -0.734705 
0.156029 0.355596 -0.921524 0.0344666 -0.243605 -0.969262 0.366595 -0.0912263 -0.925897 
0.170164 -0.0758579 -0.982492 -0.675652 -0.310898 -0.668459 -0.717874 -0.171268 -0.674777 
0.43286 0.3488 -0.831246 -0.293955 0.518521 -0.802948 -0.198825 0.53771 -0.819351 
-0.0264437 0.790986 -0.611263 0.141972 -0.376181 -0.915605 0.198207 -0.570639 -0.796922 
-0.205236 -0.427821 -0.880254 0.368891 -0.286154 -0.884328 0.598838 -0.226702 -0.768114 
-0.480613 -0.573539 -0.663374 0.539555 -0.021819 -0.841668 -0.654218 -0.447629 -0.609613 
0.447407 0.138102 -0.883603 0.625582 0.281618 -0.727556 -0.649723 0.398968 -0.647058 
-0.282616 0.74926 -0.598947 0.115679 0.520931 -0.845724 -0.382175 -0.828684 -0.408931 
-0.0109417 -0.65177 -0.758338 0.269342 -0.727888 -0.630582 -0.154702 -0.690186 -0.706902 
-0.549363 -0.72799 -0.41016 -0.309021 -0.694217 -0.650053 0.612738 -0.431813 -0.661884 
-0.555753 -0.555619 -0.618406 -0.452893 -0.456198 -0.76601 0.548387 -0.296268 -0.781982 
0.586825 -0.0166058 -0.809543 -0.760308 -0.608906 -0.226199 -0.710276 -0.546737 -0.44338 
-0.838477 -0.23399 -0.492144 -0.86795 0.0893801 -0.488543 0.547107 0.573422 -0.609804 
0.657485 0.627279 -0.417414 0.631592 0.469567 -0.616926 -0.573942 0.664415 -0.478688 
0.339103 0.860869 -0.379359 0.0152646 -0.792751 -0.609354 -0.550927 -0.809978 -0.201034 
0.583638 -0.672574 -0.454985 -0.694862 -0.64833 -0.311183 0.841755 -0.115191 -0.527427 
0.804429 0.058244 -0.591186 -0.849653 -0.462708 -0.252964 -0.857721 -0.495142 -0.13838 
-0.93719 -0.319581 -0.139794 0.787443 0.341515 -0.513128 -0.914456 0.160059 -0.371688 
-0.935934 0.0188459 -0.35167 0.412011 0.81106 -0.415246 -0.453659 0.816802 -0.356409 
0.0496061 -0.949588 -0.309552 0.315818 -0.837279 -0.446344 -0.719213 -0.689631 0.0845109 
0.944591 0.134836 -0.299276 0.899293 0.296325 -0.321657 -0.995997 -0.0802012 -0.0394553 
-0.991857 -0.125616 0.0210005 -0.998004 -0.0361863 -0.0517537 0.830131 0.474912 -0.29213 
-0.946597 0.239672 -0.215665 -0.851259 0.365718 -0.37631 0.726798 0.554991 -0.404659 
0.485097 0.863737 -0.136524 -0.689707 0.717403 -0.09817 -0.298576 0.894946 -0.331549 
-0.378996 -0.863073 -0.333866 -0.0786525 -0.996879 -0.00675979 0.0995518 -0.995015 0.00585568 
0.46301 -0.84407 -0.270495 -0.82299 -0.500027 0.269556 -0.912009 -0.389538 0.128449 
-0.940088 -0.236595 0.245475 0.919663 0.372614 -0.124008 -0.996479 0.0673605 -0.0499286 
-0.836037 0.54702 -0.042546 -0.553627 0.832751 0.00475312 -0.396153 0.918057 0.0152874 
0.258002 0.931542 -0.256252 -0.0674954 0.993441 -0.0923027 -0.32774 -0.93961 0.0985883 
0.433561 -0.900315 0.0381805 0.639482 -0.766121 0.0641967 0.764527 -0.644559 -0.00643572 
-0.537195 -0.839894 0.0774549 0.915344 -0.362535 -0.175254 -0.643658 -0.681153 0.348906 
0.985413 0.168766 -0.0218998 -0.861696 -0.346131 0.371043 -0.934282 -0.205438 0.291397 
0.721742 0.689119 -0.0648311 0.587574 0.808961 0.0184159 0.202576 0.962753 0.179079 
-0.120506 0.92795 0.352687 -0.104158 -0.950875 0.291527 0.194188 -0.958337 0.209479 
-0.421134 -0.788222 0.448722 0.662117 -0.72186 0.201294 0.801202 -0.529581 0.278604 
0.990355 -0.0578107 0.125915 0.838026 0.544364 -0.0371443 0.73079 0.621008 0.283365 
-0.863968 0.0639854 0.499464 -0.953154 0.28255 0.107993 -0.635096 0.725474 0.265219 
0.289115 0.870396 0.398527 -0.383886 0.841956 0.379133 0.433407 -0.844976 0.313326 
0.585664 -0.758701 0.285255 -0.488502 -0.650506 0.581556 0.855747 -0.479 0.195589 
0.9037 -0.267872 0.334023 -0.656653 -0.466877 0.592312 0.890607 0.0800989 0.447665 
0.900963 0.37691 0.214954 -0.808207 0.398136 0.433923 -0.721565 0.572423 0.389454 
0.508531 0.752361 0.418748 -0.0371997 -0.854241 0.518545 0.355017 -0.830124 0.42995 
-0.605663 -0.575766 0.549241 -0.521271 -0.466612 0.714528 0.85422 0.340145 0.393204 
-0.690481 -0.334744 0.641235 0.700207 0.362112 0.615293 -0.687286 -0.121944 0.716078 
-0.533317 0.423587 0.732221 0.00773896 -0.731748 0.681531 0.642507 -0.562124 0.52077 
0.472755 -0.466403 0.747643 -0.256212 -0.560154 0.787771 0.728848 -0.0369855 0.683676 
0.739881 0.348104 0.575673 0.482397 0.533256 0.694933 -0.503981 0.0785137 0.860139 
0.376123 0.727912 0.573302 -0.44479 0.389518 0.806497 -0.262892 0.39298 0.881167 
0.0999202 0.788092 0.607393 0.135762 0.605896 0.783874 -0.427907 0.459019 0.778587 
-0.0963134 0.735221 0.67095 0.138782 -0.481337 0.865479 0.292293 -0.589932 0.752692 
0.572414 -0.273146 0.773132 -0.328523 -0.446002 0.832559 -0.408938 -0.302506 0.860965 
0.582685 -0.00570981 0.812678 0.40424 0.137739 0.904222 -0.407285 -0.177471 0.895892 
0.366774 0.19568 0.909498 0.223872 0.206823 0.952421 -0.249459 0.198986 0.947721 
0.0221073 0.359356 0.932939 0.185672 0.404988 0.895271 0.297159 -0.199626 0.933727 
-0.045818 -0.157088 0.986521 0.149371 -0.0533068 0.987343 0.0427753 0.062365 0.997136 
0.365662 0.0833946 0.927004 -0.0660311 0.0319692 0.997305 0.286116 -0.248245 -0.92548 
0.663504 -0.215626 -0.716427 0.252139 -0.137993 -0.957802 -0.0243475 -0.158082 -0.987126 
-0.328041 -0.248467 -0.911402 0.549374 0.0772896 -0.831995 -0.153516 0.00109858 -0.988146 
0.087925 0.0219958 -0.995884 0.338004 0.289422 -0.895538 -0.176937 0.115393 -0.977434 
0.0655899 0.253123 -0.965208 -0.296154 -0.504331 -0.811137 -0.0653745 -0.669518 -0.739913 
0.230445 -0.565442 -0.791941 0.837371 0.14944 -0.525812 -0.411321 -0.135027 -0.901434 
-0.226536 -0.0954817 -0.969311 -0.291714 0.13397 -0.947077 0.54887 0.484478 -0.681192 
-0.163662 0.319328 -0.933405 0.0342361 0.35596 -0.933874 0.0395707 0.551888 -0.832979 
-0.346751 -0.789995 -0.505641 0.632025 -0.508609 -0.584689 0.446982 -0.673905 -0.588268 
0.659638 -0.32228 -0.678979 0.830408 -0.196779 -0.521249 -0.466412 -0.370196 -0.803377 
-0.563786 -0.152337 -0.811751 -0.473329 -0.134251 -0.870595 0.789735 0.361508 -0.495612 
-0.403614 0.0103119 -0.914871 -0.258153 0.124714 -0.958021 0.293519 0.561823 -0.773435 
-0.662067 0.0880903 -0.744249 -0.316076 0.522679 -0.791772 0.0666037 -0.803087 -0.592127 
0.120167 -0.900093 -0.418798 0.496034 -0.730756 -0.468984 -0.590958 -0.354545 -0.724615 
-0.714554 -0.185015 -0.674672 0.590874 0.622691 -0.512955 -0.701984 0.333146 -0.629469 
0.146252 0.729388 -0.668284 -0.123791 0.780135 -0.613241 -0.23252 -0.904821 -0.356699 
0.616526 -0.759212 -0.20855 -0.63629 -0.5535 -0.537377 0.954159 -0.0326889 -0.297509 
0.946208 0.17345 -0.273139 0.954688 0.283669 -0.0900092 -0.750374 -0.364853 -0.5512 
0.827527 0.481883 -0.288075 -0.884757 0.173261 -0.43265 0.386035 0.782324 -0.488821 
0.457672 -0.841117 -0.288199 -0.00578489 -0.970684 -0.240291 0.63309 -0.767802 -0.0983672 
0.840369 -0.465577 -0.277519 -0.53607 -0.7533 -0.381009 0.977671 -0.207455 -0.0334941 
0.998642 0.0520578 0.0021512 -0.715979 -0.558949 -0.41827 0.940808 0.275338 0.197658 
-0.887537 -0.170626 -0.427977 -0.980084 0.1652 -0.110199 0.610113 0.736973 -0.290918 
-0.74818 0.542955 -0.381348 0.35048 0.876254 -0.330671 -0.523373 0.837087 -0.159268 