# vtk DataFile Version 4.2
vtk output
ASCII
DATASET POLYDATA
POINTS 1257 float
230.168 263.481 166.775 229.667 263.763 166.564 230.227 264.198 166.77 
229.365 264.644 166.41 229.05 264.529 166.392 227.186 267.225 166.318 
230.022 262.869 167.078 229.748 263.366 166.707 229.027 264.155 166.481 
228.047 265.471 166.424 229.462 265.966 166.65 230.02 265.686 166.908 
228.637 266.985 166.554 225.86 267.58 166.547 226.171 268.967 166.578 
227.256 268.559 166.581 223.681 269.835 166.989 225.787 270.067 166.874 
227.816 264.267 166.788 228.59 268.271 166.972 227.168 269.807 167.024 
228.768 269.325 167.61 227.743 270.216 167.487 221.805 271.524 168.093 
223.763 271.994 168.075 229.384 261.057 168.467 231.239 263.229 168.705 
231.315 263.776 168.595 228.295 271.012 168.613 221.106 272.252 168.733 
224.144 272.96 169.012 228.072 259.497 169.766 228.944 259.993 169.368 
228.978 259.743 169.824 227.403 259.868 169.292 228.456 260.36 168.825 
229.291 260.111 169.577 229.309 260.534 169.014 230.251 261.268 169.515 
226.511 261.918 168.225 231.172 262.608 169.381 231.484 265.116 169.134 
231.032 267.4 169.475 221.365 273.285 169.668 228.055 259.281 170.169 
228.932 259.6 170.144 223.325 260.177 169.833 222.338 260.879 169.716 
221.303 262.015 169.583 230.322 269.507 170.19 217.581 271.09 170.055 
228.471 271.453 169.524 218.089 272.032 170.071 218.218 272.627 170.321 
227.175 272.579 169.988 219.39 273.322 170.336 225.436 273.421 170.153 
221.033 258.293 171.451 220.564 257.955 171.983 223.366 258.161 171.406 
218.068 258.789 171.732 228.431 259.29 171.021 220.486 259.359 170.733 
229.55 260.077 170.79 231.195 262.546 170.68 231.734 264.903 171.24 
222.638 257.725 172.161 223.699 257.828 172.358 226.412 258.632 171.589 
215.813 259.109 172.518 229.156 259.841 171.852 229.44 260.143 171.871 
231.672 266.647 172.159 214.958 270.574 171.582 219.245 274.762 172.243 
222.492 274.852 172.372 219.933 257.485 173.186 227.111 259.119 173.25 
228.76 259.617 172.005 228.364 259.77 172.986 229.521 260.975 173.237 
211.284 261.499 174.155 211.356 264.302 173.716 231.532 267.363 174.142 
214.687 257.722 175.518 215.455 257.562 175.499 213.002 258.47 175.373 
221.804 257.684 174.613 210.598 260.368 175.267 210.189 273.698 175.276 
210.906 274.644 175.374 211.63 275.488 175.763 222.208 275.798 175.161 
214.507 257.662 176.095 222.651 258.104 175.235 230.009 263.801 176.11 
231.427 266.988 175.347 230.194 270.513 175.936 212.148 276.444 176.754 
214.775 257.684 176.945 215.403 257.709 177.155 231.189 266.425 176.102 
212.847 276.896 177.243 214.305 257.748 176.871 218.402 258.095 177.569 
230.629 268.844 177.565 230.531 269.412 177.475 229.673 270.882 178.053 
216.966 277.134 177.473 206.264 260.832 179.556 205.874 261.105 179.697 
207.525 276.818 179.658 211.039 258.872 179.797 206.021 260.772 179.982 
204.124 263.384 180.069 225.554 262.929 180.005 228.263 265.084 180.143 
229.337 265.892 179.515 230.018 268.557 179.357 216.474 277.855 179.846 
211.86 278.297 181.001 206.501 260.069 181.181 204.157 261.386 181.753 
203.763 262.341 181.058 203.902 263.958 180.126 203.525 267.61 179.995 
223.228 275.964 180.576 207.687 278.056 181.857 210.095 259.31 181.878 
204.895 260.773 182.018 202.165 263.214 182.092 228.717 270.033 181.324 
227.74 271.749 181.715 228.414 269.039 181.986 200.09 271.7 182.348 
224.742 274.707 182.408 218.159 277.744 182.325 226.909 267.665 183.556 
225.159 273.606 184.071 204.405 260.668 184.955 199.729 262.784 185.055 
197.143 265.344 185.381 224.119 265.921 184.597 196.502 269.053 184.53 
225.96 271.979 184.49 196.024 274.412 185.88 214.002 261.758 185.587 
216.083 277.898 185.219 210.525 278.932 185.922 200.377 261.45 187.56 
195.156 264.794 187.76 193.316 267.464 187.561 192.855 269.535 187.149 
192.679 273.388 187.75 193.887 273.364 186.745 195.049 275.042 187.269 
220.169 275.779 186.389 217.639 277.109 186.331 211.815 278.485 187.103 
206.786 279.002 187.466 201.699 261.127 187.836 197.365 262.506 188.322 
195.888 263.628 188.288 214.552 263.556 187.677 221.365 267.297 187.304 
222.635 269.669 187.531 193.606 274.809 188.261 219.244 275.571 187.291 
217.126 276.752 187.237 202.828 278.426 188.538 209.441 278.875 187.482 
198.56 261.753 188.753 216.582 266.201 189.04 221.274 271.461 188.229 
219.022 274.037 188.502 194.96 275.974 188.832 214.979 276.412 188.869 
211.755 277.993 188.535 199.848 261.279 189.649 215.385 266.169 189.576 
193.168 275.406 189.874 212.467 266.39 191.094 216.093 267.436 189.899 
216.506 269.006 190.167 211.695 276.589 190.386 205.387 278.611 190.103 
195.84 262.479 192.031 206.443 263.9 192.531 189.404 272.804 191.774 
191.226 274.675 191.365 208.633 277.278 191.355 206.922 278.259 190.581 
193.455 263.462 192.881 187.941 271.876 193.472 192.887 263.414 193.761 
187.72 268.092 193.738 187.246 268.431 194.247 188.149 272.863 194.08 
191.234 275.708 194.679 195.093 262.089 195.5 203.767 264.139 194.766 
189.178 265.336 194.684 207.575 269.725 194.868 204.885 275.225 194.992 
197.583 277.636 194.317 199.504 262.506 195.566 205.579 267.61 195.753 
185.812 270.323 196.197 205.891 272.013 195.697 189.248 274.641 195.688 
202.225 276.318 195.501 184.826 267.243 197.506 203.41 273.028 197.113 
201.739 275.088 197.057 192.405 276.208 197.018 194.812 261.744 198.052 
194.298 261.688 197.997 199.599 263.591 197.626 184.157 266.815 198.292 
183.997 268.278 198.305 203.463 270.283 197.669 202.935 271.203 197.963 
185.496 271.768 198.005 187.143 273.477 198.31 188.565 274.503 197.906 
200.402 275.348 197.603 198.693 275.701 197.943 192.171 261.399 199.097 
195.247 261.85 199.419 199.885 265.28 199.05 201.274 268.18 199.164 
183.808 268.921 198.626 183.553 269.578 199.193 201.274 272.005 198.964 
199.792 274.225 198.945 190.253 275.383 198.629 199.091 274.862 198.789 
197.214 263.372 200.1 199.991 266.49 199.683 199.315 273.604 199.656 
191.319 275.597 199.288 195.841 262.386 200.621 183.238 263.958 200.902 
199.167 268.937 201.047 186.952 273.647 201.553 181.799 264.308 201.732 
189.291 274.374 201.621 195.969 263.621 202.794 196.661 265.27 202.825 
179.257 267.132 203.483 196.9 270.879 202.851 196.116 271.689 203.157 
195.445 272.717 202.93 188.988 274.06 202.537 191.68 274.226 202.477 
196.766 269.68 203.297 182.068 271.509 204.222 187.674 258.639 204.888 
193.705 260.876 204.828 181.44 271.449 205.252 181.294 271.507 205.934 
195.012 264.659 205.375 177.569 266.926 205.7 179.807 270.519 205.861 
193.45 261.012 206.325 176.423 265.681 207.12 177.786 268.791 207.105 
180.299 271.037 207.082 180.83 271.376 207.29 190.343 257.867 208.106 
192.751 260.539 207.652 175.606 261.445 208.377 193.837 264.754 207.397 
181.121 271.487 207.555 190.425 270.759 207.943 186.123 256.049 208.818 
187.722 256.337 209.049 192.109 259.593 207.886 175.369 266 209.365 
192.825 266.656 208.527 192.26 267.09 209.063 176.548 267.75 208.926 
177.785 269.127 208.468 187.516 271.072 208.985 179.941 270.711 208.847 
180.684 256.146 209.089 176.779 257.039 209.918 175.048 258.57 210.045 
173.979 261.113 210.235 191.084 268.051 209.914 186.015 270.686 210.129 
184.165 253.592 211.257 185.315 253.764 211.383 191.281 259.516 210.056 
173.23 262.99 211.569 191.832 262.951 210.345 187.169 254.497 211.885 
189.749 257.711 211.676 172.136 259.448 212.473 186.719 252.719 213.482 
171.511 260.433 213.399 171.751 261.896 213.735 173.481 264.564 212.739 
178.313 268.88 212.43 188.574 255.457 214.507 171.557 256.547 213.549 
171.456 261.946 214.422 172.489 263.343 213.696 182.433 248.449 214.867 
186.255 251.266 214.362 170.577 260.986 215.543 171.426 262.172 214.92 
180.225 247.357 215.417 184.689 247.2 216.001 185.44 247.15 216.377 
185.849 248.055 216.167 174.418 265.343 215.796 174.956 265.696 215.955 
175.321 266.029 215.604 186.791 247.659 217.195 173.459 264.293 216.84 
183.115 241.587 217.729 186.305 244.191 218.134 186.513 246.9 217.268 
187.311 247.9 217.763 187.705 249.877 217.424 167.64 250.293 217.935 
188.143 252.019 217.93 188.193 253.104 217.946 169.561 260.315 217.896 
176.052 265.789 217.035 176.378 265.645 217.514 203.844 173.497 219.658 
204.259 173.306 219.841 204.642 173.446 220.088 204.332 176.477 219.741 
204.644 176.006 219.961 204.187 178.14 219.715 203.49 179.552 219.445 
202.64 180.85 219.205 201.59 184.585 219.017 202.549 185.506 219.316 
199.35 196.432 219.07 196.82 204.491 219.265 195.975 208.058 219.458 
182.239 236.326 218.553 187.663 258.043 218.235 173.432 263.741 218.338 
182.457 264.984 218.889 204.255 168.632 220.684 204.596 168.74 220.844 
204.309 172.02 220.159 205.163 174.662 220.513 205.261 178.448 220.663 
204.65 179.663 220.148 204.262 184.458 220.312 202.574 191.05 219.622 
203.737 192.341 220.533 200.612 196.819 219.466 202.166 196.526 220.197 
198.741 202.955 219.605 194.571 204.418 219.232 198.611 207.577 220.323 
193.919 211.829 219.603 196.816 212.069 220.34 194.493 215.638 219.913 
184.105 231.048 219.208 188.335 230.258 219.547 188.008 239.564 220.03 
187.937 241.316 220.013 164.602 251.802 220.299 165.681 254.901 220.293 
204.3 164.529 221.687 203.979 165.635 221.333 204.991 167.491 221.513 
205.159 169.351 221.178 205.974 175.243 221.813 205.145 184.592 221.353 
204.348 192.238 221.126 204.704 194.523 222.037 200.984 202.214 220.761 
178.833 211.835 220.44 198.323 210.855 220.975 196.631 216.757 221.018 
170.494 223.721 220.645 194.893 226.647 221.54 192.589 230.96 221.025 
168.793 235.666 220.155 188.452 242.851 220.665 163.676 252.064 221.599 
164.1 253.08 221.654 164.387 253.598 221.764 168.534 258.945 220.238 
175.976 263.518 220.635 202.956 162.035 222.108 204.159 161.591 222.538 
204.752 162.081 222.731 205.151 162.191 223.096 204.886 163.785 222.324 
201.12 165.018 221.415 205.675 165.218 222.844 206.019 180.397 222.621 
205.8 184.154 222.619 205.448 191.751 222.559 205.606 192.142 222.967 
203.712 197.943 222.045 202.903 200.294 222.092 183.869 200.894 220.949 
198.228 214.49 221.855 193.717 231.83 222.09 192.731 233.731 221.851 
[...]
POINT_DATA 1257
COLOR_SCALARS scalars 3
0.588235 0.654902 0.827451 0.588235 0.654902 0.827451 0.588235 0.654902 0.827451 
0.588235 0.654902 0.827451 0.588235 0.654902 0.827451 
0.588235 0.654902 0.827451 0.588235 0.654902 0.827451 
0.588235 0.654902 0.827451 0.588235 0.654902 0.827451 
0.588235 0.654902 0.827451 0.588235 0.654902 0.827451 
0.588235 0.654902 0.827451 0.588235 0.654902 0.827451 
0.588235 0.654902 0.827451 0.588235 0.654902 0.827451 
0.588235 0.654902 0.827451 0.588235 0.654902 0.827451 
0.588235 0.654902 0.827451 0.588235 0.654902 0.827451 
0.588235 0.654902 0.827451 0.588235 0.654902 0.827451 
0.588235 0.654902 0.827451 0.588235 0.654902 0.827451 
0.588235 0.654902 0.827451 0.588235 0.654902 0.827451 
0.588235 0.654902 0.827451 0.588235 0.654902 0.827451 
0.588235 0.654902 0.827451 0.588235 0.654902 0.827451 
0.588235 0.654902 0.827451 0.588235 0.654902 0.827451 
0.588235 0.654902 0.827451 0.588235 0.654902 0.827451 
0.588235 0.654902 0.827451 0.588235 0.654902 0.827451 
0.588235 0.654902 0.827451 0.588235 0.654902 0.827451 
0.588235 0.654902 0.827451 0.588235 0.654902 0.827451 
0.588235 0.654902 0.827451 0.588235 0.654902 0.827451 
0.588235 0.654902 0.827451 0.588235 0.654902 0.827451 
0.588235 0.654902 0.827451 0.588235 0.654902 0.827451 
0.588235 0.654902 0.827451 0.588235 0.654902 0.827451 
0.588235 0.654902 0.827451 0.588235 0.654902 0.827451 
0.588235 0.654902 0.827451 0.588235 0.654902 0.827451 
0.588235 0.654902 0.827451 0.588235 0.654902 0.827451 
0.588235 0.654902 0.827451 0.588235 0.654902 0.827451 
0.588235 0.654902 0.827451 0.588235 0.654902 0.827451 
0.588235 0.654902 0.827451 0.588235 0.654902 0.827451 
0.588235 0.654902 0.827451 0.588235 0.654902 0.827451 
0.588235 0.654902 0.827451 0.588235 0.654902 0.827451 
0.588235 0.654902 0.827451 0.588235 0.654902 0.827451 
0.588235 0.654902 0.827451 0.588235 0.654902 0.827451 
0.588235 0.654902 0.827451 0.588235 0.654902 0.827451 
0.588235 0.654902 0.827451 0.588235 0.654902 0.827451 
0.588235 0.654902 0.827451 0.588235 0.654902 0.827451 
0.588235 0.654902 0.827451 0.588235 0.654902 0.827451 
0.588235 0.654902 0.827451 0.588235 0.654902 0.827451 
0.588235 0.654902 0.827451 0.588235 0.654902 0.827451 
0.588235 0.654902 0.827451 0.588235 0.654902 0.827451 
0.588235 0.654902 0.827451 0.588235 0.654902 0.827451 
0.588235 0.654902 0.827451 0.588235 0.654902 0.827451 
0.588235 0.654902 0.827451 0.588235 0.654902 0.827451 
0.588235 0.654902 0.827451 0.588235 0.654902 0.827451 
0.588235 0.654902 0.827451 0.588235 0.654902 0.827451 
0.588235 0.654902 0.827451 0.588235 0.654902 0.827451 
0.588235 0.654902 0.827451 0.588235 0.654902 0.827451 
0.588235 0.654902 0.827451 0.588235 0.654902 0.827451 
0.588235 0.654902 0.827451 0.588235 0.654902 0.827451 
0.588235 0.654902 0.827451 0.588235 0.654902 0.827451 
0.588235 0.654902 0.827451 0.588235 0.654902 0.827451 
0.588235 0.654902 0.827451 0.588235 0.654902 0.827451 
0.588235 0.654902 0.827451 0.588235 0.654902 0.827451 
0.588235 0.654902 0.827451 0.588235 0.654902 0.827451 
0.588235 0.654902 0.827451 0.588235 0.654902 0.827451 
0.588235 0.654902 0.827451 0.588235 0.654902 0.827451 
0.588235 0.654902 0.827451 0.588235 0.654902 0.827451 
0.588235 0.654902 0.827451 0.588235 0.654902 0.827451 
0.588235 0.654902 0.827451 0.588235 0.654902 0.827451 
0.588235 0.654902 0.827451 0.588235 0.654902 0.827451 
0.588235 0.654902 0.827451 0.588235 0.654902 0.827451 
0.588235 0.654902 0.827451 0.588235 0.654902 0.827451 
0.588235 0.654902 0.827451 0.588235 0.654902 0.827451 
0.588235 0.654902 0.827451 0.588235 0.654902 0.827451 
0.588235 0.654902 0.827451 0.588235 0.654902 0.827451 
0.588235 0.654902 0.827451 0.588235 0.654902 0.827451 
0.588235 0.654902 0.827451 0.588235 0.654902 0.827451 
0.588235 0.654902 0.827451 0.588235 0.654902 0.827451 
0.588235 0.654902 0.827451 0.588235 0.654902 0.827451 
0.588235 0.654902 0.827451 0.588235 0.654902 0.827451 
0.588235 0.654902 0.827451 0.588235 0.654902 0.827451 
0.588235 0.654902 0.827451 0.588235 0.654902 0.827451 
0.588235 0.654902 0.827451 0.588235 0.654902 0.827451 
0.588235 0.654902 0.827451 0.588235 0.654902 0.827451 
0.588235 0.654902 0.827451 0.588235 0.654902 0.827451 
0.588235 0.654902 0.827451 0.588235 0.654902 0.827451 
0.588235 0.654902 0.827451 0.588235 0.654902 0.827451 
0.588235 0.654902 0.827451 0.588235 0.654902 0.827451 
0.588235 0.654902 0.827451 0.588235 0.654902 0.827451 
0.588235 0.654902 0.827451 0.588235 0.654902 0.827451 
0.588235 0.654902 0.827451 0.588235 0.654902 0.827451 
0.588235 0.654902 0.827451 0.588235 0.654902 0.827451 
0.588235 0.654902 0.827451 0.588235 0.654902 0.827451 
0.588235 0.654902 0.827451 0.588235 0.654902 0.827451 
0.588235 0.654902 0.827451 0.588235 0.654902 0.827451 
0.588235 0.654902 0.827451 0.588235 0.654902 0.827451 
0.588235 0.654902 0.827451 0.588235 0.654902 0.827451 
0.588235 0.654902 0.827451 0.588235 0.654902 0.827451 
0.588235 0.654902 0.827451 0.588235 0.654902 0.827451 
0.588235 0.654902 0.827451 0.588235 0.654902 0.827451 
0.588235 0.654902 0.827451 0.588235 0.654902 0.827451 
0.588235 0.654902 0.827451 0.588235 0.654902 0.827451 
0.588235 0.654902 0.827451 0.588235 0.654902 0.827451 
0.588235 0.654902 0.827451 0.588235 0.654902 0.827451 
0.588235 0.654902 0.827451 0.588235 0.654902 0.827451 
0.588235 0.654902 0.827451 0.588235 0.654902 0.827451 
0.588235 0.654902 0.827451 0.588235 0.654902 0.827451 
0.588235 0.654902 0.827451 0.588235 0.654902 0.827451 
0.588235 0.654902 0.827451 0.588235 0.654902 0.827451 
0.588235 0.654902 0.827451 0.588235 0.654902 0.827451 
0.588235 0.654902 0.827451 0.588235 0.654902 0.827451 
0.588235 0.654902 0.827451 0.588235 0.654902 0.827451 
0.588235 0.654902 0.827451 0.588235 0.654902 0.827451 
0.588235 0.654902 0.827451 0.588235 0.654902 0.827451 
0.588235 0.654902 0.827451 0.588235 0.654902 0.827451 
0.588235 0.654902 0.827451 0.588235 0.654902 0.827451 
0.588235 0.654902 0.827451 0.588235 0.654902 0.827451 
0.588235 0.654902 0.827451 0.588235 0.654902 0.827451 
0.588235 0.654902 0.827451 0.588235 0.654902 0.827451 
0.588235 0.654902 0.827451 0.588235 0.654902 0.827451 
0.588235 0.654902 0.827451 0.588235 0.654902 0.827451 
0.588235 0.654902 0.827451 0.588235 0.654902 0.827451 
0.588235 0.654902 0.827451 0.588235 0.654902 0.827451 
0.588235 0.654902 0.827451 0.588235 0.654902 0.827451 
0.588235 0.654902 0.827451 0.588235 0.654902 0.827451 
0.588235 0.654902 0.827451 0.588235 0.654902 0.827451 
0.588235 0.654902 0.827451 0.588235 0.654902 0.827451 
0.588235 0.654902 0.827451 0.588235 0.654902 0.827451 
0.588235 0.654902 0.827451 0.588235 0.654902 0.827451 
0.588235 0.654902 0.827451 0.588235 0.654902 0.827451 
0.588235 0.654902 0.827451 0.588235 0.654902 0.827451 
0.588235 0.654902 0.827451 0.588235 0.654902 0.827451 
0.588235 0.654902 0.827451 0.588235 0.654902 0.827451 
0.588235 0.654902 0.827451 0.588235 0.654902 0.827451 
0.588235 0.654902 0.827451 0.588235 0.654902 0.827451 
0.588235 0.654902 0.827451 0.588235 0.654902 0.827451 
0.588235 0.654902 0.827451 0.588235 0.654902 0.827451 
0.588235 0.654902 0.827451 0.588235 0.654902 0.827451 
0.588235 0.654902 0.827451 0.588235 0.654902 0.827451 
0.588235 0.654902 0.827451 0.588235 0.654902 0.827451 
0.588235 0.654902 0.827451 0.588235 0.654902 0.827451 
0.588235 0.654902 0.827451 0.588235 0.654902 0.827451 
0.588235 0.654902 0.827451 0.588235 0.654902 0.827451 
0.588235 0.654902 0.827451 0.588235 0.654902 0.827451 
0.588235 0.654902 0.827451 0.588235 0.654902 0.827451 
0.588235 0.654902 0.827451 0.588235 0.654902 0.827451 
0.588235 0.654902 0.827451 0.588235 0.654902 0.827451 
0.588235 0.654902 0.827451 0.588235 0.654902 0.827451 
0.588235 0.654902 0.827451 0.588235 0.654902 0.827451 
0.588235 0.654902 0.827451 0.588235 0.654902 0.827451 
0.588235 0.654902 0.827451 0.588235 0.654902 0.827451 
0.588235 0.654902 0.827451 0.588235 0.654902 0.827451 
0.588235 0.654902 0.827451 0.588235 0.654902 0.827451 
0.588235 0.654902 0.827451 0.588235 0.654902 0.827451 
0.588235 0.654902 0.827451 0.588235 0.654902 0.827451 
0.588235 0.654902 0.827451 0.588235 0.654902 0.827451 
0.588235 0.654902 0.827451 0.588235 0.654902 0.827451 
0.588235 0.654902 0.827451 0.588235 0.654902 0.827451 
0.588235 0.654902 0.827451 0.588235 0.654902 0.827451 
0.588235 0.654902 0.827451 0.588235 0.654902 0.827451 
0.588235 0.654902 0.827451 0.588235 0.654902 0.827451 
0.588235 0.654902 0.827451 0.588235 0.654902 0.827451 
0.588235 0.654902 0.827451 0.588235 0.654902 0.827451 
0.588235 0.654902 0.827451 0.588235 0.654902 0.827451 
0.588235 0.654902 0.827451 0.588235 0.654902 0.827451 
0.588235 0.654902 0.827451 0.588235 0.654902 0.827451 
0.588235 0.654902 0.827451 0.588235 0.654902 0.827451 
0.588235 0.654902 0.827451 0.588235 0.654902 0.827451 
0.588235 0.654902 0.827451 0.588235 0.654902 0.827451 
0.588235 0.654902 0.827451 0.588235 0.654902 0.827451 
0.588235 0.654902 0.827451 0.588235 0.654902 0.827451 
0.588235 0.654902 0.827451 0.588235 0.654902 0.827451 
0.588235 0.654902 0.827451 0.588235 0.654902 0.827451 
0.588235 0.654902 0.827451 0.588235 0.654902 0.827451 
0.588235 0.654902 0.827451 0.588235 0.654902 0.827451 
0.588235 0.654902 0.827451 0.588235 0.654902 0.827451 
0.588235 0.654902 0.827451 0.588235 0.654902 0.827451 
0.588235 0.654902 0.827451 0.588235 0.654902 0.827451 
0.588235 0.654902 0.827451 0.588235 0.654902 0.827451 
0.588235 0.654902 0.827451 0.588235 0.654902 0.827451 
0.588235 0.654902 0.827451 0.588235 0.654902 0.827451 
0.588235 0.654902 0.827451 0.588235 0.654902 0.827451 
0.588235 0.654902 0.827451 0.588235 0.654902 0.827451 
0.588235 0.654902 0.827451 0.588235 0.654902 0.827451 
0.588235 0.654902 0.827451 0.588235 0.654902 0.827451 
0.588235 0.654902 0.827451 0.588235 0.654902 0.827451 
0.588235 0.654902 0.827451 0.588235 0.654902 0.827451 
0.588235 0.654902 0.827451 0.588235 0.654902 0.827451 
0.588235 0.654902 0.827451 0.588235 0.654902 0.827451 
0.588235 0.654902 0.827451 0.588235 0.654902 0.827451 
0.588235 0.654902 0.827451 0.588235 0.654902 0.827451 
0.588235 0.654902 0.827451 0.588235 0.654902 0.827451 
0.588235 0.654902 0.827451 0.588235 0.654902 0.827451 
0.588235 0.654902 0.827451 0.588235 0.654902 0.827451 
0.588235 0.654902 0.827451 0.588235 0.654902 0.827451 
0.588235 0.654902 0.827451 0.588235 0.654902 0.827451 
0.588235 0.654902 0.827451 0.588235 0.654902 0.827451 
0.588235 0.654902 0.827451 0.588235 0.654902 0.827451 
0.588235 0.654902 0.827451 0.588235 0.654902 0.827451 
0.588235 0.654902 0.827451 0.588235 0.654902 0.827451 
0.588235 0.654902 0.827451 0.588235 0.654902 0.827451 
0.588235 0.654902 0.827451 0.588235 0.654902 0.827451 
0.588235 0.654902 0.827451 0.588235 0.654902 0.827451 
0.588235 0.654902 0.827451 0.588235 0.654902 0.827451 
0.588235 0.654902 0.827451 0.588235 0.654902 0.827451 
0.588235 0.654902 0.827451 0.588235 0.654902 0.827451 
0.588235 0.654902 0.827451 0.588235 0.654902 0.827451 
0.588235 0.654902 0.827451 0.588235 0.654902 0.827451 
0.588235 0.654902 0.827451 0.588235 0.654902 0.827451 
0.588235 0.654902 0.827451 0.588235 0.654902 0.827451 
0.588235 0.654902 0.827451 0.588235 0.654902 0.827451 
0.588235 0.654902 0.827451 0.588235 0.654902 0.827451 
0.588235 0.654902 0.827451 0.588235 0.654902 0.827451 
0.588235 0.654902 0.827451 0.588235 0.654902 0.827451 
0.588235 0.654902 0.827451 0.588235 0.654902 0.827451 
0.588235 0.654902 0.827451 0.588235 0.654902 0.827451 
0.588235 0.654902 0.827451 0.588235 0.654902 0.827451 
0.588235 0.654902 0.827451 0.588235 0.654902 0.827451 
0.588235 0.654902 0.827451 0.588235 0.654902 0.827451 
0.588235 0.654902 0.827451 0.588235 0.654902 0.827451 
0.588235 0.654902 0.827451 0.588235 0.654902 0.827451 
0.588235 0.654902 0.827451 0.588235 0.654902 0.827451 
0.588235 0.654902 0.827451 0.588235 0.654902 0.827451 
0.588235 0.654902 0.827451 0.588235 0.654902 0.827451 
0.588235 0.654902 0.827451 0.588235 0.654902 0.827451 
0.588235 0.654902 0.827451 0.588235 0.654902 0.827451 
0.588235 0.654902 0.827451 0.588235 0.654902 0.827451 
0.588235 0.654902 0.827451 0.588235 0.654902 0.827451 
0.588235 0.654902 0.827451 0.588235 0.654902 0.827451 
0.588235 0.654902 0.827451 0.588235 0.654902 0.827451 
0.588235 0.654902 0.827451 0.588235 0.654902 0.827451 
0.588235 0.654902 0.827451 0.588235 0.654902 0.827451 
0.588235 0.654902 0.827451 0.588235 0.654902 0.827451 
0.588235 0.654902 0.827451 0.588235 0.654902 0.827451 
0.588235 0.654902 0.827451 0.588235 0.654902 0.827451 
0.588235 0.654902 0.827451 0.588235 0.654902 0.827451 
0.588235 0.654902 0.827451 0.588235 0.654902 0.827451 
0.588235 0.654902 0.827451 0.588235 0.654902 0.827451 
0.588235 0.654902 0.827451 0.588235 0.654902 0.827451 
0.588235 0.654902 0.827451 0.588235 0.654902 0.827451 
0.588235 0.654902 0.827451 0.588235 0.654902 0.827451 
0.588235 0.654902 0.827451 0.588235 0.654902 0.827451 
0.588235 0.654902 0.827451 0.588235 0.654902 0.827451 
0.588235 0.654902 0.827451 0.588235 0.654902 0.827451 
0.588235 0.654902 0.827451 0.588235 0.654902 0.827451 
0.588235 0.654902 0.827451 0.588235 0.654902 0.827451 
0.588235 0.654902 0.827451 0.588235 0.654902 0.827451 
0.588235 0.654902 0.827451 0.588235 0.654902 0.827451 
0.588235 0.654902 0.827451 0.588235 0.654902 0.827451 
0.588235 0.654902 0.827451 0.588235 0.654902 0.827451 
0.588235 0.654902 0.827451 0.588235 0.654902 0.827451 
0.588235 0.654902 0.827451 0.588235 0.654902 0.827451 
0.588235 0.654902 0.827451 0.588235 0.654902 0.827451 
0.588235 0.654902 0.827451 0.588235 0.654902 0.827451 
0.588235 0.654902 0.827451 0.588235 0.654902 0.827451 
0.588235 0.654902 0.827451 0.588235 0.654902 0.827451 
0.588235 0.654902 0.827451 0.588235 0.654902 0.827451 
0.588235 0.654902 0.827451 0.588235 0.654902 0.827451 
0.588235 0.654902 0.827451 0.588235 0.654902 0.827451 
0.588235 0.654902 0.827451 0.588235 0.654902 0.827451 
0.588235 0.654902 0.827451 0.588235 0.654902 0.827451 
0.588235 0.654902 0.827451 0.588235 0.654902 0.827451 
0.588235 0.654902 0.827451 0.588235 0.654902 0.827451 
0.588235 0.654902 0.827451 0.588235 0.654902 0.827451 
0.588235 0.654902 0.827451 0.588235 0.654902 0.827451 
0.588235 0.654902 0.827451 0.588235 0.654902 0.827451 
0.588235 0.654902 0.827451 0.588235 0.654902 0.827451 
0.588235 0.654902 0.827451 0.588235 0.654902 0.827451 
0.588235 0.654902 0.827451 0.588235 0.654902 0.827451 
0.588235 0.654902 0.827451 0.588235 0.654902 0.827451 
0.588235 0.654902 0.827451 0.588235 0.654902 0.827451 
0.588235 0.654902 0.827451 0.588235 0.654902 0.827451 
0.588235 0.654902 0.827451 0.588235 0.654902 0.827451 
0.588235 0.654902 0.827451 0.588235 0.654902 0.827451 
0.588235 0.654902 0.827451 0.588235 0.654902 0.827451 
0.588235 0.654902 0.827451 0.588235 0.654902 0.827451 
0.588235 0.654902 0.827451 0.588235 0.654902 0.827451 
0.588235 0.654902 0.827451 0.588235 0.654902 0.827451 
0.588235 0.654902 0.827451 0.588235 0.654902 0.827451 
0.588235 0.654902 0.827451 0.588235 0.654902 0.827451 
0.588235 0.654902 0.827451 0.588235 0.654902 0.827451 
0.588235 0.654902 0.827451 0.588235 0.654902 0.827451 
0.588235 0.654902 0.827451 0.588235 0.654902 0.827451 
0.588235 0.654902 0.827451 0.588235 0.654902 0.827451 
0.588235 0.654902 0.827451 0.588235 0.654902 0.827451 
0.588235 0.654902 0.827451 0.588235 0.654902 0.827451 
0.588235 0.654902 0.827451 0.588235 0.654902 0.827451 
0.588235 0.654902 0.827451 0.588235 0.654902 0.827451 
0.588235 0.654902 0.827451 0.588235 0.654902 0.827451 
0.588235 0.654902 0.827451 0.588235 0.654902 0.827451 
0.588235 0.654902 0.827451 0.588235 0.654902 0.827451 
0.588235 0.654902 0.827451 0.588235 0.654902 0.827451 
0.588235 0.654902 0.827451 0.588235 0.654902 0.827451 
0.588235 0.654902 0.827451 0.588235 0.654902 0.827451 
0.588235 0.654902 0.827451 0.588235 0.654902 0.827451 
0.588235 0.654902 0.827451 0.588235 0.654902 0.827451 
0.588235 0.654902 0.827451 0.588235 0.654902 0.827451 
0.588235 0.654902 0.827451 0.588235 0.654902 0.827451 
0.588235 0.654902 0.827451 0.588235 0.654902 0.827451 
0.588235 0.654902 0.827451 0.588235 0.654902 0.827451 
0.588235 0.654902 0.827451 0.588235 0.654902 0.827451 
0.588235 0.654902 0.827451 0.588235 0.654902 0.827451 
0.588235 0.654902 0.827451 0.588235 0.654902 0.827451 
0.588235 0.654902 0.827451 0.588235 0.654902 0.827451 
0.588235 0.654902 0.827451 0.588235 0.654902 0.827451 
0.588235 0.654902 0.827451 0.588235 0.654902 0.827451 
0.588235 0.654902 0.827451 0.588235 0.654902 0.827451 
0.588235 0.654902 0.827451 0.588235 0.654902 0.827451 
0.588235 0.654902 0.827451 0.588235 0.654902 0.827451 
0.588235 0.654902 0.827451 0.588235 0.654902 0.827451 
0.588235 0.654902 0.827451 0.588235 0.654902 0.827451 
0.588235 0.654902 0.827451 0.588235 0.654902 0.827451 
0.588235 0.654902 0.827451 0.588235 0.654902 0.827451 
0.588235 0.654902 0.827451 0.588235 0.654902 0.827451 
0.588235 0.654902 0.827451 0.588235 0.654902 0.827451 
0.588235 0.654902 0.827451 0.588235 0.654902 0.827451 
0.588235 0.654902 0.827451 0.588235 0.654902 0.827451 
0.588235 0.654902 0.827451 0.588235 0.654902 0.827451 
0.588235 0.654902 0.827451 0.588235 0.654902 0.827451 
0.588235 0.654902 0.827451 0.588235 0.654902 0.827451 
0.588235 0.654902 0.827451 0.588235 0.654902 0.827451 
0.588235 0.654902 0.827451 0.588235 0.654902 0.827451 
0.588235 0.654902 0.827451 0.588235 0.654902 0.827451 
0.588235 0.654902 0.827451 0.588235 0.654902 0.827451 
0.588235 0.654902 0.827451 0.588235 0.654902 0.827451 
0.588235 0.654902 0.827451 0.588235 0.654902 0.827451 
0.588235 0.654902 0.827451 0.588235 0.654902 0.827451 
0.588235 0.654902 0.827451 0.588235 0.654902 0.827451 
0.588235 0.654902 0.827451 0.588235 0.654902 0.827451 
0.588235 0.654902 0.827451 0.588235 0.654902 0.827451 
0.588235 0.654902 0.827451 0.588235 0.654902 0.827451 
0.588235 0.654902 0.827451 0.588235 0.654902 0.827451 
0.588235 0.654902 0.827451 0.588235 0.654902 0.827451 
0.588235 0.654902 0.827451 0.588235 0.654902 0.827451 
0.588235 0.654902 0.827451 0.588235 0.654902 0.827451 
0.588235 0.654902 0.827451 0.588235 0.654902 0.827451 
0.588235 0.654902 0.827451 0.588235 0.654902 0.827451 
0.588235 0.654902 0.827451 0.588235 0.654902 0.827451 
0.588235 0.654902 0.827451 0.588235 0.654902 0.827451 
0.588235 0.654902 0.827451 0.588235 0.654902 0.827451 
0.588235 0.654902 0.827451 0.588235 0.654902 0.827451 
0.588235 0.654902 0.827451 0.588235 0.654902 0.827451 
0.588235 0.654902 0.827451 0.588235 0.654902 0.827451 
0.588235 0.654902 0.827451 0.588235 0.654902 0.827451 
0.588235 0.654902 0.827451 0.588235 0.654902 0.827451 
0.588235 0.654902 0.827451 0.588235 0.654902 0.827451 
0.588235 0.654902 0.827451 0.588235 0.654902 0.827451 
0.588235 0.654902 0.827451 0.588235 0.654902 0.827451 
0.588235 0.654902 0.827451 0.588235 0.654902 0.827451 
0.588235 0.654902 0.827451 0.588235 0.654902 0.827451 
0.588235 0.654902 0.827451 0.588235 0.654902 0.827451 
0.588235 0.654902 0.827451 0.588235 0.654902 0.827451 
0.588235 0.654902 0.827451 0.588235 0.654902 0.827451 
0.588235 0.654902 0.827451 0.588235 0.654902 0.827451 
0.588235 0.654902 0.827451 0.588235 0.654902 0.827451 
0.588235 0.654902 0.827451 0.588235 0.654902 0.827451 
0.588235 0.654902 0.827451 0.588235 0.654902 0.827451 
0.588235 0.654902 0.827451 0.588235 0.654902 0.827451 
0.588235 0.654902 0.827451 0.588235 0.654902 0.827451 
0.588235 0.654902 0.827451 0.588235 0.654902 0.827451 
0.588235 0.654902 0.827451 0.588235 0.654902 0.827451 
0.588235 0.654902 0.827451 0.588235 0.654902 0.827451 
0.588235 0.654902 0.827451 0.588235 0.654902 0.827451 
0.588235 0.654902 0.827451 0.588235 0.654902 0.827451 
0.588235 0.654902 0.827451 0.588235 0.654902 0.827451 
0.588235 0.654902 0.827451 0.588235 0.654902 0.827451 
0.588235 0.654902 0.827451 0.588235 0.654902 0.827451 
0.588235 0.654902 0.827451 0.588235 0.654902 0.827451 
0.588235 0.654902 0.827451 0.588235 0.654902 0.827451 
0.588235 0.654902 0.827451 0.588235 0.654902 0.827451 
0.588235 0.654902 0.827451 0.588235 0.654902 0.827451 
0.588235 0.654902 0.827451 0.588235 0.654902 0.827451 