# vtk DataFile Version 4.2
vtk output
ASCII
DATASET POLYDATA
POINTS 907 float
271.224 208.907 200.569 272.665 208.922 200.514 275.375 210.237 200.389 
276.966 210.224 200.523 278.182 211.133 200.461 278.684 210.6 200.652 
279.935 211.419 200.562 280.328 211.094 200.727 275.294 212.287 200.528 
278.385 212.494 200.471 265.944 204.685 201.618 279.864 209.657 201.414 
268.874 209.631 201.076 283.605 210.699 201.604 285.981 211.73 201.489 
287.163 211.404 201.901 267.557 210.915 202.221 284.458 212.316 201.08 
270.402 212.269 201.683 277.022 213.137 200.677 284.119 213.133 200.902 
286.313 213.196 201.052 271.069 213.292 202.229 274.424 213.482 201.227 
284.918 213.946 200.912 291.507 214.271 201.248 293.602 213.737 201.685 
286.407 215.526 201.121 294.181 218.735 201.565 252.569 192.879 203.459 
253.218 192.552 203.473 252.158 193.554 203.561 254.411 192.854 203.485 
253.891 194.318 202.91 255.334 193.982 203.077 252.405 194.526 203.471 
252.963 194.881 203.175 254.588 195.119 202.746 255.508 194.575 202.845 
255.514 195.211 202.683 253.037 195.443 203.228 253.245 195.773 203.188 
254.423 195.862 202.784 256.234 195.441 202.675 256.309 196.094 202.567 
257.061 196.311 202.59 257.178 197 202.502 257.971 197.213 202.546 
258.109 197.929 202.46 256.601 199.685 203.198 261.754 200.341 202.47 
258.994 202.286 203.176 260.944 202.669 202.368 264.211 202.781 202.116 
266.95 202.877 202.771 262.786 203.462 201.994 262.114 204.557 202.329 
270.476 205.756 201.783 272.247 206.019 202.094 276.186 207.319 202.272 
278.113 207.755 202.695 264.33 208.149 202.69 282.304 209.543 202.248 
285.443 210.491 202.259 266.704 210.665 202.743 289.752 211.545 202.563 
267.69 211.537 202.871 290.327 211.922 202.282 270.606 213.481 202.866 
297.803 214.213 202.702 272.927 214.361 202.562 274.662 214.65 202.178 
299.735 215.332 202.912 276.61 215.328 202.27 300.285 216.824 202.659 
285.249 217.599 202.439 287.441 217.604 201.997 299.389 217.84 202.137 
290.821 218.614 201.985 295.558 219.614 201.97 299.003 219.455 202.201 
299.796 219.306 202.397 298.189 220.311 202.378 297.008 220.672 202.571 
251.621 191.735 204.491 251.516 192.055 204.349 252.983 192.028 203.866 
252.691 191.393 204.466 253.702 191.881 203.971 253.87 191.561 204.278 
251.437 192.691 204.203 251.752 193.99 204.163 252.111 194.523 203.832 
252.23 194.989 204.092 256.695 195.164 202.906 257.533 194.574 203.59 
253.004 195.727 203.437 257.51 195.989 202.826 258.296 195.316 203.502 
258.429 196.861 202.797 255.247 198.808 204.09 255.818 199.3 203.782 
263.835 199.684 203.683 258.057 201.907 203.991 266.505 201.889 203.435 
273.533 205.635 203.223 274.159 205.702 203.583 262.363 206.734 203.902 
275.79 206.584 203.276 278.261 207.493 203.319 280.452 208.234 203.535 
264.619 208.765 203.092 284.213 209.608 202.972 265.597 209.782 203.102 
288.014 210.616 203.276 291.815 211.721 203.151 267.405 211.459 203.214 
294.375 212.6 203.094 269.109 212.779 203.498 298.234 213.482 203.81 
299.24 213.861 203.822 270.845 213.748 203.308 301.062 215.735 203.516 
300.877 215.098 203.826 286.775 218.528 203.174 301.294 219.019 203.01 
291.41 219.497 202.654 301.061 219.808 202.969 290.275 219.764 203.491 
293.728 220.626 203.143 295.587 220.733 202.76 300.419 220.668 202.969 
294.766 221.321 203.612 251.908 191.208 204.939 252.998 190.816 205.204 
251.153 192.139 204.843 254.995 191.854 204.533 251.431 193.504 204.597 
259.662 194.863 204.967 251.982 194.776 204.544 261.698 196.911 204.781 
257.548 201.447 204.28 258.745 202.892 204.702 269.943 203.384 204.376 
275.887 206.242 204.485 278.779 207.445 204.368 263.801 208.285 204.183 
283.582 209.164 203.911 285.644 209.714 203.885 288.217 210.38 204.319 
292.754 211.68 204.481 296.044 212.683 204.105 300.355 214.535 203.894 
271.72 214.391 204.327 301.832 216.189 203.85 302.236 216.949 203.92 
302.285 217.823 203.699 283.467 217.928 204.231 302.633 219.765 204.425 
289.627 219.918 204.373 291.694 220.606 204.406 292.667 220.668 203.739 
302.455 220.564 204.254 301.793 221.365 203.762 302.14 221.349 203.98 
297.525 222.48 204.5 300.569 222.08 204.067 301.345 221.789 203.865 
301.754 221.746 203.921 302.002 221.697 204.03 300.949 222.327 204.657 
301.405 222.219 204.434 301.979 221.905 204.197 302.131 221.735 204.223 
301.612 222.134 204.319 301.829 222.037 204.31 251.707 191.209 205.203 
252.139 190.835 205.913 251.177 191.86 205.117 251.052 192.603 205.344 
251.361 193.578 205.22 260.21 195.092 205.366 251.954 194.771 205.113 
263.395 198.077 205.308 266.962 201.352 204.539 257.409 201.361 205.441 
270.058 203.262 204.974 273.333 205.042 204.817 280.857 208.181 204.809 
281.519 208.426 205.122 284.141 209.234 204.455 265.22 209.679 205.309 
288.611 210.492 205.134 289.366 210.739 204.983 296.97 212.731 205.326 
300.318 213.689 205.111 302.932 217.43 205.147 302.697 218.238 204.336 
287.33 219.285 205.329 302.741 219.806 204.884 291.198 220.488 204.697 
302.508 220.644 205.149 292.849 221.17 204.991 302.429 220.986 204.472 
302.044 221.699 204.737 301.757 221.896 205.036 298.166 222.96 205.499 
297.946 223.065 205.931 300.839 222.443 205.204 299.221 222.933 205.691 
251.407 191.395 205.762 253.049 190.505 206.494 254.184 190.641 206.24 
251.362 191.536 206.131 255.85 191.611 205.749 251.052 192.22 205.707 
251.151 193.047 205.561 252.302 195.171 206.102 257.598 201.449 206.072 
270.423 203.398 205.601 271.716 204.239 205.925 272.505 204.671 205.827 
280.275 208.034 205.453 280.977 208.362 205.864 291.86 211.527 205.759 
293.672 212.059 206.081 295.951 212.523 206.065 268.955 212.493 205.779 
300.833 213.864 205.364 301.051 213.834 205.829 302.358 215.215 205.554 
273.783 215.218 205.464 285.397 218.537 205.632 291.679 220.713 205.952 
295.427 222.412 206.415 300.501 222.484 206.153 298.637 223.095 206.582 
253.331 190.345 207.005 253.348 190.342 207.306 253.54 190.299 207.213 
255.827 191.436 206.293 251.106 192.322 206.15 251.134 192.66 206.209 
258.653 193.369 206.393 252.388 194.959 206.878 262.345 196.768 206.658 
256.266 199.441 207.17 266.286 200.458 206.616 259.864 203.805 206.547 
275.965 206.427 206.367 280.356 208.404 206.556 284.215 209.455 205.957 
265.461 209.701 206.081 286.888 210.357 206.371 288.224 210.741 206.349 
290.297 211.364 206.511 293.082 212.078 206.53 294.458 212.353 206.513 
297.754 212.995 206.783 301.711 214.04 206.671 274.015 214.95 206.247 
283.331 217.433 206.688 286.037 218.51 206.404 286.325 218.435 206.757 
288.445 219.296 206.644 302.081 220.168 207.404 288.854 219.574 206.315 
290.915 220.213 206.726 253.434 190.383 207.537 253.16 190.584 207.481 
253.598 190.323 207.451 253.863 190.421 207.547 252.007 191.257 207.123 
254.222 190.564 207.361 252.046 193.743 207.454 259.265 193.8 207.28 
259.783 194.274 207.609 252.764 194.867 207.566 253.607 195.863 207.648 
261.931 196.395 207.57 265.163 199.704 207.419 257.553 200.869 207.148 
258.402 201.96 206.904 269.964 203.326 206.641 260.438 203.983 207.022 
273.122 205.4 207.044 274.361 206.092 207.125 264.944 208.911 206.563 
280.562 208.855 207.116 282.222 209.384 207.095 265.974 209.848 206.562 
267.501 210.53 207.11 286.762 210.95 207.258 296.87 213.128 207.491 
298.454 213.276 207.377 300.952 213.766 207.168 303.065 214.966 207.898 
273.518 214.144 207.025 303.478 215.551 207.956 303.479 215.414 208.265 
287.114 218.257 207.33 288.466 219.008 207.072 292.07 220.472 207.348 
295.722 222.436 207.441 295.785 222.326 207.864 298.105 223.016 207.7 
253.452 190.484 207.664 252.69 191.134 207.713 254.073 190.678 207.822 
254.55 190.808 207.808 254.957 191.069 207.986 256.62 191.837 207.771 
252.617 192.746 208.162 258.731 193.419 207.987 253.297 194.897 208.114 
260.905 195.373 207.832 260.772 195.324 208.125 261.691 196.257 207.947 
255.388 197.297 208.353 262.965 197.914 208.165 255.297 197.81 207.85 
263.448 198.584 208.26 264.098 199.105 208.032 264.767 200.52 208.551 
259.535 201.587 208.242 260.649 201.937 208.627 261.301 203.275 208.14 
266.859 203.251 208.735 267.956 203.003 208.07 263.647 203.781 208.806 
264.374 204.069 208.887 272.192 205.399 207.627 265.953 206.265 208.646 
266.328 205.855 208.853 272.042 206.038 208.211 272.334 206.775 208.551 
281.288 209.549 207.598 266.88 209.829 207.238 278.838 210.233 208.65 
279.943 209.906 208.258 270.679 211.877 207.656 287.167 212.219 208.178 
275.367 212.344 208.636 285.51 212.701 208.582 292.086 213.148 208.146 
293.062 213.269 208.146 274.548 213.644 207.791 275.671 213.9 207.904 
289.752 213.605 208.607 297.415 213.939 208.618 281.991 215.094 208.275 
283.403 214.532 208.613 291.405 214.356 208.864 296.208 214.665 209.23 
303.309 215.199 208.371 280.515 215.489 207.803 282.705 215.971 207.896 
287.867 216.99 208.413 303.013 217.122 208.924 303.447 216.19 208.724 
289.592 217.177 208.776 292.271 219.499 208.562 300.43 221.546 208.563 
295.649 221.944 208.393 297.388 222.854 208.174 297.495 222.741 208.471 
299.013 222.674 208.138 299.272 222.293 208.643 298.433 222.821 208.185 
253.653 191.051 208.117 252.685 191.939 208.098 253.197 191.736 208.261 
256.516 192.167 208.459 257.052 192.41 208.365 257.493 192.886 208.584 
253.183 193.081 208.532 253.298 193.747 208.539 258.058 193.195 208.474 
258.481 193.713 208.674 253.755 194.328 208.669 259.062 194.066 208.54 
254.318 194.965 208.724 260.045 194.995 208.574 254.577 195.78 208.568 
255.132 196.29 208.678 260.936 195.933 208.623 261.232 196.48 208.773 
256.135 197.225 208.848 262.382 197.587 208.496 256.437 197.892 208.704 
258.499 199.841 208.814 264.922 201.21 208.747 264.998 202.134 208.921 
265.083 203.126 208.98 266.039 203.013 208.855 267.078 205.012 208.937 
268.08 206.967 208.894 275.663 211.689 208.831 286.15 213.448 208.733 
302.949 214.967 208.767 287.031 215.079 208.825 290.187 215.018 209.005 
301.291 214.986 209.524 303.396 215.636 208.971 289.985 215.819 209.041 
295.452 215.849 209.781 303.434 215.935 208.991 293.675 216.616 209.632 
301.613 219.198 209.588 295.049 221.503 208.583 295.461 221.12 209.143 
[...]
POINT_DATA 907
COLOR_SCALARS scalars 3
0.8 0.8 0.8 0.8 0.8 0.8 0.8 0.8 0.8 
0.8 0.8 0.8 0.8 0.8 0.8 
0.8 0.8 0.8 0.8 0.8 0.8 
0.8 0.8 0.8 0.8 0.8 0.8 
0.8 0.8 0.8 0.8 0.8 0.8 
0.8 0.8 0.8 0.8 0.8 0.8 
0.8 0.8 0.8 0.8 0.8 0.8 
0.8 0.8 0.8 0.8 0.8 0.8 
0.8 0.8 0.8 0.8 0.8 0.8 
0.8 0.8 0.8 0.8 0.8 0.8 
0.8 0.8 0.8 0.8 0.8 0.8 
0.8 0.8 0.8 0.8 0.8 0.8 
0.8 0.8 0.8 0.8 0.8 0.8 
0.8 0.8 0.8 0.8 0.8 0.8 
0.8 0.8 0.8 0.8 0.8 0.8 
0.8 0.8 0.8 0.8 0.8 0.8 
0.8 0.8 0.8 0.8 0.8 0.8 
0.8 0.8 0.8 0.8 0.8 0.8 
0.8 0.8 0.8 0.8 0.8 0.8 
0.8 0.8 0.8 0.8 0.8 0.8 
0.8 0.8 0.8 0.8 0.8 0.8 
0.8 0.8 0.8 0.8 0.8 0.8 
0.8 0.8 0.8 0.8 0.8 0.8 
0.8 0.8 0.8 0.8 0.8 0.8 
0.8 0.8 0.8 0.8 0.8 0.8 
0.8 0.8 0.8 0.8 0.8 0.8 
0.8 0.8 0.8 0.8 0.8 0.8 
0.8 0.8 0.8 0.8 0.8 0.8 
0.8 0.8 0.8 0.8 0.8 0.8 
0.8 0.8 0.8 0.8 0.8 0.8 
0.8 0.8 0.8 0.8 0.8 0.8 
0.8 0.8 0.8 0.8 0.8 0.8 
0.8 0.8 0.8 0.8 0.8 0.8 
0.8 0.8 0.8 0.8 0.8 0.8 
0.8 0.8 0.8 0.8 0.8 0.8 
0.8 0.8 0.8 0.8 0.8 0.8 
0.8 0.8 0.8 0.8 0.8 0.8 
0.8 0.8 0.8 0.8 0.8 0.8 
0.8 0.8 0.8 0.8 0.8 0.8 
0.8 0.8 0.8 0.8 0.8 0.8 
0.8 0.8 0.8 0.8 0.8 0.8 
0.8 0.8 0.8 0.8 0.8 0.8 
0.8 0.8 0.8 0.8 0.8 0.8 
0.8 0.8 0.8 0.8 0.8 0.8 
0.8 0.8 0.8 0.8 0.8 0.8 
0.8 0.8 0.8 0.8 0.8 0.8 
0.8 0.8 0.8 0.8 0.8 0.8 
0.8 0.8 0.8 0.8 0.8 0.8 
0.8 0.8 0.8 0.8 0.8 0.8 
0.8 0.8 0.8 0.8 0.8 0.8 
0.8 0.8 0.8 0.8 0.8 0.8 
0.8 0.8 0.8 0.8 0.8 0.8 
0.8 0.8 0.8 0.8 0.8 0.8 
0.8 0.8 0.8 0.8 0.8 0.8 
0.8 0.8 0.8 0.8 0.8 0.8 
0.8 0.8 0.8 0.8 0.8 0.8 
0.8 0.8 0.8 0.8 0.8 0.8 
0.8 0.8 0.8 0.8 0.8 0.8 
0.8 0.8 0.8 0.8 0.8 0.8 
0.8 0.8 0.8 0.8 0.8 0.8 
0.8 0.8 0.8 0.8 0.8 0.8 
0.8 0.8 0.8 0.8 0.8 0.8 
0.8 0.8 0.8 0.8 0.8 0.8 
0.8 0.8 0.8 0.8 0.8 0.8 
0.8 0.8 0.8 0.8 0.8 0.8 
0.8 0.8 0.8 0.8 0.8 0.8 
0.8 0.8 0.8 0.8 0.8 0.8 
0.8 0.8 0.8 0.8 0.8 0.8 
0.8 0.8 0.8 0.8 0.8 0.8 
0.8 0.8 0.8 0.8 0.8 0.8 
0.8 0.8 0.8 0.8 0.8 0.8 
0.8 0.8 0.8 0.8 0.8 0.8 
0.8 0.8 0.8 0.8 0.8 0.8 
0.8 0.8 0.8 0.8 0.8 0.8 
0.8 0.8 0.8 0.8 0.8 0.8 
0.8 0.8 0.8 0.8 0.8 0.8 
0.8 0.8 0.8 0.8 0.8 0.8 
0.8 0.8 0.8 0.8 0.8 0.8 
0.8 0.8 0.8 0.8 0.8 0.8 
0.8 0.8 0.8 0.8 0.8 0.8 
0.8 0.8 0.8 0.8 0.8 0.8 
0.8 0.8 0.8 0.8 0.8 0.8 
0.8 0.8 0.8 0.8 0.8 0.8 
0.8 0.8 0.8 0.8 0.8 0.8 
0.8 0.8 0.8 0.8 0.8 0.8 
0.8 0.8 0.8 0.8 0.8 0.8 
0.8 0.8 0.8 0.8 0.8 0.8 
0.8 0.8 0.8 0.8 0.8 0.8 
0.8 0.8 0.8 0.8 0.8 0.8 
0.8 0.8 0.8 0.8 0.8 0.8 
0.8 0.8 0.8 0.8 0.8 0.8 
0.8 0.8 0.8 0.8 0.8 0.8 
0.8 0.8 0.8 0.8 0.8 0.8 
0.8 0.8 0.8 0.8 0.8 0.8 
0.8 0.8 0.8 0.8 0.8 0.8 
0.8 0.8 0.8 0.8 0.8 0.8 
0.8 0.8 0.8 0.8 0.8 0.8 
0.8 0.8 0.8 0.8 0.8 0.8 
0.8 0.8 0.8 0.8 0.8 0.8 
0.8 0.8 0.8 0.8 0.8 0.8 
0.8 0.8 0.8 0.8 0.8 0.8 
0.8 0.8 0.8 0.8 0.8 0.8 
0.8 0.8 0.8 0.8 0.8 0.8 
0.8 0.8 0.8 0.8 0.8 0.8 
0.8 0.8 0.8 0.8 0.8 0.8 
0.8 0.8 0.8 0.8 0.8 0.8 
0.8 0.8 0.8 0.8 0.8 0.8 
0.8 0.8 0.8 0.8 0.8 0.8 
0.8 0.8 0.8 0.8 0.8 0.8 
0.8 0.8 0.8 0.8 0.8 0.8 
0.8 0.8 0.8 0.8 0.8 0.8 
0.8 0.8 0.8 0.8 0.8 0.8 
0.8 0.8 0.8 0.8 0.8 0.8 
0.8 0.8 0.8 0.8 0.8 0.8 
0.8 0.8 0.8 0.8 0.8 0.8 
0.8 0.8 0.8 0.8 0.8 0.8 
0.8 0.8 0.8 0.8 0.8 0.8 
0.8 0.8 0.8 0.8 0.8 0.8 
0.8 0.8 0.8 0.8 0.8 0.8 
0.8 0.8 0.8 0.8 0.8 0.8 
0.8 0.8 0.8 0.8 0.8 0.8 
0.8 0.8 0.8 0.8 0.8 0.8 
0.8 0.8 0.8 0.8 0.8 0.8 
0.8 0.8 0.8 0.8 0.8 0.8 
0.8 0.8 0.8 0.8 0.8 0.8 
0.8 0.8 0.8 0.8 0.8 0.8 
0.8 0.8 0.8 0.8 0.8 0.8 
0.8 0.8 0.8 0.8 0.8 0.8 
0.8 0.8 0.8 0.8 0.8 0.8 
0.8 0.8 0.8 0.8 0.8 0.8 
0.8 0.8 0.8 0.8 0.8 0.8 
0.8 0.8 0.8 0.8 0.8 0.8 
0.8 0.8 0.8 0.8 0.8 0.8 
0.8 0.8 0.8 0.8 0.8 0.8 
0.8 0.8 0.8 0.8 0.8 0.8 
0.8 0.8 0.8 0.8 0.8 0.8 
0.8 0.8 0.8 0.8 0.8 0.8 
0.8 0.8 0.8 0.8 0.8 0.8 
0.8 0.8 0.8 0.8 0.8 0.8 
0.8 0.8 0.8 0.8 0.8 0.8 
0.8 0.8 0.8 0.8 0.8 0.8 
0.8 0.8 0.8 0.8 0.8 0.8 
0.8 0.8 0.8 0.8 0.8 0.8 
0.8 0.8 0.8 0.8 0.8 0.8 
0.8 0.8 0.8 0.8 0.8 0.8 
0.8 0.8 0.8 0.8 0.8 0.8 
0.8 0.8 0.8 0.8 0.8 0.8 
0.8 0.8 0.8 0.8 0.8 0.8 
0.8 0.8 0.8 0.8 0.8 0.8 
0.8 0.8 0.8 0.8 0.8 0.8 
0.8 0.8 0.8 0.8 0.8 0.8 
0.8 0.8 0.8 0.8 0.8 0.8 
0.8 0.8 0.8 0.8 0.8 0.8 
0.8 0.8 0.8 0.8 0.8 0.8 
0.8 0.8 0.8 0.8 0.8 0.8 
0.8 0.8 0.8 0.8 0.8 0.8 
0.8 0.8 0.8 0.8 0.8 0.8 
0.8 0.8 0.8 0.8 0.8 0.8 
0.8 0.8 0.8 0.8 0.8 0.8 
0.8 0.8 0.8 0.8 0.8 0.8 
0.8 0.8 0.8 0.8 0.8 0.8 
0.8 0.8 0.8 0.8 0.8 0.8 
0.8 0.8 0.8 0.8 0.8 0.8 
0.8 0.8 0.8 0.8 0.8 0.8 
0.8 0.8 0.8 0.8 0.8 0.8 
0.8 0.8 0.8 0.8 0.8 0.8 
0.8 0.8 0.8 0.8 0.8 0.8 
0.8 0.8 0.8 0.8 0.8 0.8 
0.8 0.8 0.8 0.8 0.8 0.8 
0.8 0.8 0.8 0.8 0.8 0.8 
0.8 0.8 0.8 0.8 0.8 0.8 
0.8 0.8 0.8 0.8 0.8 0.8 
0.8 0.8 0.8 0.8 0.8 0.8 
0.8 0.8 0.8 0.8 0.8 0.8 
0.8 0.8 0.8 0.8 0.8 0.8 
0.8 0.8 0.8 0.8 0.8 0.8 
0.8 0.8 0.8 0.8 0.8 0.8 
0.8 0.8 0.8 0.8 0.8 0.8 
0.8 0.8 0.8 0.8 0.8 0.8 
0.8 0.8 0.8 0.8 0.8 0.8 
0.8 0.8 0.8 0.8 0.8 0.8 
0.8 0.8 0.8 0.8 0.8 0.8 
0.8 0.8 0.8 0.8 0.8 0.8 
0.8 0.8 0.8 0.8 0.8 0.8 
0.8 0.8 0.8 0.8 0.8 0.8 
0.8 0.8 0.8 0.8 0.8 0.8 
0.8 0.8 0.8 0.8 0.8 0.8 
0.8 0.8 0.8 0.8 0.8 0.8 
0.8 0.8 0.8 0.8 0.8 0.8 
0.8 0.8 0.8 0.8 0.8 0.8 
0.8 0.8 0.8 0.8 0.8 0.8 
0.8 0.8 0.8 0.8 0.8 0.8 
0.8 0.8 0.8 0.8 0.8 0.8 
0.8 0.8 0.8 0.8 0.8 0.8 
0.8 0.8 0.8 0.8 0.8 0.8 
0.8 0.8 0.8 0.8 0.8 0.8 
0.8 0.8 0.8 0.8 0.8 0.8 
0.8 0.8 0.8 0.8 0.8 0.8 
0.8 0.8 0.8 0.8 0.8 0.8 
0.8 0.8 0.8 0.8 0.8 0.8 
0.8 0.8 0.8 0.8 0.8 0.8 
0.8 0.8 0.8 0.8 0.8 0.8 
0.8 0.8 0.8 0.8 0.8 0.8 
0.8 0.8 0.8 0.8 0.8 0.8 
0.8 0.8 0.8 0.8 0.8 0.8 
0.8 0.8 0.8 0.8 0.8 0.8 
0.8 0.8 0.8 0.8 0.8 0.8 
0.8 0.8 0.8 0.8 0.8 0.8 
0.8 0.8 0.8 0.8 0.8 0.8 
0.8 0.8 0.8 0.8 0.8 0.8 
0.8 0.8 0.8 0.8 0.8 0.8 
0.8 0.8 0.8 0.8 0.8 0.8 
0.8 0.8 0.8 0.8 0.8 0.8 
0.8 0.8 0.8 0.8 0.8 0.8 
0.8 0.8 0.8 0.8 0.8 0.8 
0.8 0.8 0.8 0.8 0.8 0.8 
0.8 0.8 0.8 0.8 0.8 0.8 
0.8 0.8 0.8 0.8 0.8 0.8 
0.8 0.8 0.8 0.8 0.8 0.8 
0.8 0.8 0.8 0.8 0.8 0.8 
0.8 0.8 0.8 0.8 0.8 0.8 
0.8 0.8 0.8 0.8 0.8 0.8 
0.8 0.8 0.8 0.8 0.8 0.8 
0.8 0.8 0.8 0.8 0.8 0.8 
0.8 0.8 0.8 0.8 0.8 0.8 
0.8 0.8 0.8 0.8 0.8 0.8 
0.8 0.8 0.8 0.8 0.8 0.8 
0.8 0.8 0.8 0.8 0.8 0.8 
0.8 0.8 0.8 0.8 0.8 0.8 
0.8 0.8 0.8 0.8 0.8 0.8 
0.8 0.8 0.8 0.8 0.8 0.8 
0.8 0.8 0.8 0.8 0.8 0.8 
0.8 0.8 0.8 0.8 0.8 0.8 
0.8 0.8 0.8 0.8 0.8 0.8 
0.8 0.8 0.8 0.8 0.8 0.8 
0.8 0.8 0.8 0.8 0.8 0.8 
0.8 0.8 0.8 0.8 0.8 0.8 
0.8 0.8 0.8 0.8 0.8 0.8 
0.8 0.8 0.8 0.8 0.8 0.8 
0.8 0.8 0.8 0.8 0.8 0.8 
0.8 0.8 0.8 0.8 0.8 0.8 
0.8 0.8 0.8 0.8 0.8 0.8 
0.8 0.8 0.8 0.8 0.8 0.8 
0.8 0.8 0.8 0.8 0.8 0.8 
0.8 0.8 0.8 0.8 0.8 0.8 
0.8 0.8 0.8 0.8 0.8 0.8 
0.8 0.8 0.8 0.8 0.8 0.8 
0.8 0.8 0.8 0.8 0.8 0.8 
0.8 0.8 0.8 0.8 0.8 0.8 
0.8 0.8 0.8 0.8 0.8 0.8 
0.8 0.8 0.8 0.8 0.8 0.8 
0.8 0.8 0.8 0.8 0.8 0.8 
0.8 0.8 0.8 0.8 0.8 0.8 
0.8 0.8 0.8 0.8 0.8 0.8 
0.8 0.8 0.8 0.8 0.8 0.8 
0.8 0.8 0.8 0.8 0.8 0.8 
0.8 0.8 0.8 0.8 0.8 0.8 
0.8 0.8 0.8 0.8 0.8 0.8 
0.8 0.8 0.8 0.8 0.8 0.8 
0.8 0.8 0.8 0.8 0.8 0.8 
0.8 0.8 0.8 0.8 0.8 0.8 
0.8 0.8 0.8 0.8 0.8 0.8 
0.8 0.8 0.8 0.8 0.8 0.8 
0.8 0.8 0.8 0.8 0.8 0.8 
0.8 0.8 0.8 0.8 0.8 0.8 
0.8 0.8 0.8 0.8 0.8 0.8 
0.8 0.8 0.8 0.8 0.8 0.8 
0.8 0.8 0.8 0.8 0.8 0.8 
0.8 0.8 0.8 0.8 0.8 0.8 
0.8 0.8 0.8 0.8 0.8 0.8 
0.8 0.8 0.8 0.8 0.8 0.8 
0.8 0.8 0.8 0.8 0.8 0.8 
0.8 0.8 0.8 0.8 0.8 0.8 
0.8 0.8 0.8 0.8 0.8 0.8 
0.8 0.8 0.8 0.8 0.8 0.8 
0.8 0.8 0.8 0.8 0.8 0.8 
0.8 0.8 0.8 0.8 0.8 0.8 
0.8 0.8 0.8 0.8 0.8 0.8 
0.8 0.8 0.8 0.8 0.8 0.8 
0.8 0.8 0.8 0.8 0.8 0.8 
0.8 0.8 0.8 0.8 0.8 0.8 
0.8 0.8 0.8 0.8 0.8 0.8 
0.8 0.8 0.8 0.8 0.8 0.8 
0.8 0.8 0.8 0.8 0.8 0.8 
0.8 0.8 0.8 0.8 0.8 0.8 
0.8 0.8 0.8 0.8 0.8 0.8 
0.8 0.8 0.8 0.8 0.8 0.8 
0.8 0.8 0.8 0.8 0.8 0.8 
0.8 0.8 0.8 0.8 0.8 0.8 
0.8 0.8 0.8 0.8 0.8 0.8 
0.8 0.8 0.8 0.8 0.8 0.8 
0.8 0.8 0.8 0.8 0.8 0.8 
0.8 0.8 0.8 0.8 0.8 0.8 
0.8 0.8 0.8 0.8 0.8 0.8 
0.8 0.8 0.8 0.8 0.8 0.8 
0.8 0.8 0.8 0.8 0.8 0.8 
0.8 0.8 0.8 0.8 0.8 0.8 
0.8 0.8 0.8 0.8 0.8 0.8 
0.8 0.8 0.8 0.8 0.8 0.8 
0.8 0.8 0.8 0.8 0.8 0.8 
0.8 0.8 0.8 0.8 0.8 0.8 
0.8 0.8 0.8 0.8 0.8 0.8 
0.8 0.8 0.8 0.8 0.8 0.8 
0.8 0.8 0.8 0.8 0.8 0.8 
0.8 0.8 0.8 0.8 0.8 0.8 
0.8 0.8 0.8 0.8 0.8 0.8 
0.8 0.8 0.8 0.8 0.8 0.8 
0.8 0.8 0.8 0.8 0.8 0.8 
0.8 0.8 0.8 0.8 0.8 0.8 
0.8 0.8 0.8 0.8 0.8 0.8 
0.8 0.8 0.8 0.8 0.8 0.8 
0.8 0.8 0.8 0.8 0.8 0.8 
0.8 0.8 0.8 0.8 0.8 0.8 
0.8 0.8 0.8 0.8 0.8 0.8 
0.8 0.8 0.8 0.8 0.8 0.8 
0.8 0.8 0.8 0.8 0.8 0.8 
0.8 0.8 0.8 0.8 0.8 0.8 
0.8 0.8 0.8 0.8 0.8 0.8 
0.8 0.8 0.8 0.8 0.8 0.8 
0.8 0.8 0.8 0.8 0.8 0.8 
0.8 0.8 0.8 0.8 0.8 0.8 
0.8 0.8 0.8 0.8 0.8 0.8 
0.8 0.8 0.8 0.8 0.8 0.8 
0.8 0.8 0.8 0.8 0.8 0.8 
0.8 0.8 0.8 0.8 0.8 0.8 
0.8 0.8 0.8 0.8 0.8 0.8 
0.8 0.8 0.8 0.8 0.8 0.8 
0.8 0.8 0.8 0.8 0.8 0.8 
0.8 0.8 0.8 0.8 0.8 0.8 
0.8 0.8 0.8 0.8 0.8 0.8 
0.8 0.8 0.8 0.8 0.8 0.8 
0.8 0.8 0.8 0.8 0.8 0.8 
0.8 0.8 0.8 0.8 0.8 0.8 
0.8 0.8 0.8 0.8 0.8 0.8 
0.8 0.8 0.8 0.8 0.8 0.8 
0.8 0.8 0.8 0.8 0.8 0.8 
0.8 0.8 0.8 0.8 0.8 0.8 
0.8 0.8 0.8 0.8 0.8 0.8 
0.8 0.8 0.8 0.8 0.8 0.8 
0.8 0.8 0.8 0.8 0.8 0.8 
0.8 0.8 0.8 0.8 0.8 0.8 
0.8 0.8 0.8 0.8 0.8 0.8 
0.8 0.8 0.8 0.8 0.8 0.8 
0.8 0.8 0.8 0.8 0.8 0.8 
0.8 0.8 0.8 0.8 0.8 0.8 
0.8 0.8 0.8 0.8 0.8 0.8 
0.8 0.8 0.8 0.8 0.8 0.8 
0.8 0.8 0.8 0.8 0.8 0.8 
0.8 0.8 0.8 0.8 0.8 0.8 
0.8 0.8 0.8 0.8 0.8 0.8 
0.8 0.8 0.8 0.8 0.8 0.8 
0.8 0.8 0.8 0.8 0.8 0.8 
0.8 0.8 0.8 0.8 0.8 0.8 
0.8 0.8 0.8 0.8 0.8 0.8 
0.8 0.8 0.8 0.8 0.8 0.8 
0.8 0.8 0.8 0.8 0.8 0.8 
0.8 0.8 0.8 0.8 0.8 0.8 
0.8 0.8 0.8 0.8 0.8 0.8 
0.8 0.8 0.8 0.8 0.8 0.8 
0.8 0.8 0.8 0.8 0.8 0.8 
0.8 0.8 0.8 0.8 0.8 0.8 
0.8 0.8 0.8 0.8 0.8 0.8 
0.8 0.8 0.8 0.8 0.8 0.8 
0.8 0.8 0.8 0.8 0.8 0.8 
0.8 0.8 0.8 0.8 0.8 0.8 
0.8 0.8 0.8 0.8 0.8 0.8 
0.8 0.8 0.8 0.8 0.8 0.8 
0.8 0.8 0.8 0.8 0.8 0.8 
0.8 0.8 0.8 0.8 0.8 0.8 
0.8 0.8 0.8 0.8 0.8 0.8 
0.8 0.8 0.8 0.8 0.8 0.8 
0.8 0.8 0.8 0.8 0.8 0.8 
0.8 0.8 0.8 0.8 0.8 0.8 
0.8 0.8 0.8 0.8 0.8 0.8 
0.8 0.8 0.8 0.8 0.8 0.8 
0.8 0.8 0.8 0.8 0.8 0.8 
0.8 0.8 0.8 0.8 0.8 0.8 
0.8 0.8 0.8 0.8 0.8 0.8 
0.8 0.8 0.8 0.8 0.8 0.8 
0.8 0.8 0.8 0.8 0.8 0.8 
0.8 0.8 0.8 0.8 0.8 0.8 
0.8 0.8 0.8 0.8 0.8 0.8 
0.8 0.8 0.8 0.8 0.8 0.8 
0.8 0.8 0.8 0.8 0.8 0.8 
0.8 0.8 0.8 0.8 0.8 0.8 
0.8 0.8 0.8 0.8 0.8 0.8 
0.8 0.8 0.8 0.8 0.8 0.8 
0.8 0.8 0.8 0.8 0.8 0.8 
0.8 0.8 0.8 0.8 0.8 0.8 
0.8 0.8 0.8 0.8 0.8 0.8 
0.8 0.8 0.8 0.8 0.8 0.8 
0.8 0.8 0.8 0.8 0.8 0.8 
0.8 0.8 0.8 0.8 0.8 0.8 
0.8 0.8 0.8 0.8 0.8 0.8 
0.8 0.8 0.8 0.8 0.8 0.8 
0.8 0.8 0.8 0.8 0.8 0.8 
0.8 0.8 0.8 0.8 0.8 0.8 
0.8 0.8 0.8 0.8 0.8 0.8 
0.8 0.8 0.8 0.8 0.8 0.8 
0.8 0.8 0.8 0.8 0.8 0.8 
0.8 0.8 0.8 0.8 0.8 0.8 
0.8 0.8 0.8 0.8 0.8 0.8 
0.8 0.8 0.8 0.8 0.8 0.8 
0.8 0.8 0.8 0.8 0.8 0.8 
0.8 0.8 0.8 0.8 0.8 0.8 
0.8 0.8 0.8 0.8 0.8 0.8 
0.8 0.8 0.8 0.8 0.8 0.8 
0.8 0.8 0.8 0.8 0.8 0.8 
0.8 0.8 0.8 0.8 0.8 0.8 
0.8 0.8 0.8 0.8 0.8 0.8 
0.8 0.8 0.8 0.8 0.8 0.8 
0.8 0.8 0.8 0.8 0.8 0.8 
0.8 0.8 0.8 0.8 0.8 0.8 
0.8 0.8 0.8 0.8 0.8 0.8 
0.8 0.8 0.8 0.8 0.8 0.8 
0.8 0.8 0.8 0.8 0.8 0.8 
0.8 0.8 0.8 0.8 0.8 0.8 
0.8 0.8 0.8 0.8 0.8 0.8 
0.8 0.8 0.8 0.8 0.8 0.8 
0.8 0.8 0.8 0.8 0.8 0.8 
0.8 0.8 0.8 0.8 0.8 0.8 
0.8 0.8 0.8 0.8 0.8 0.8 
0.8 0.8 0.8 0.8 0.8 0.8 
0.8 0.8 0.8 0.8 0.8 0.8 
0.8 0.8 0.8 0.8 0.8 0.8 
0.8 0.8 0.8 0.8 0.8 0.8 
0.8 0.8 0.8 0.8 0.8 0.8 
0.8 0.8 0.8 0.8 0.8 0.8 
0.8 0.8 0.8 0.8 0.8 0.8 
0.8 0.8 0.8 0.8 0.8 0.8 
0.8 0.8 0.8 0.8 0.8 0.8 
0.8 0.8 0.8 0.8 0.8 0.8 
0.8 0.8 0.8 0.8 0.8 0.8 
0.8 0.8 0.8 0.8 0.8 0.8 
0.8 0.8 0.8 0.8 0.8 0.8 
0.8 0.8 0.8 0.8 0.8 0.8 
0.8 0.8 0.8 0.8 0.8 0.8 
0.8 0.8 0.8 0.8 0.8 0.8 
0.8 0.8 0.8 0.8 0.8 0.8 
0.8 0.8 0.8 0.8 0.8 0.8 
0.8 0.8 0.8 0.8 0.8 0.8 
0.8 0.8 0.8 0.8 0.8 0.8 
0.8 0.8 0.8 0.8 0.8 0.8 
0.8 0.8 0.8 0.8 0.8 0.8 
0.8 0.8 0.8 0.8 0.8 0.8 
0.8 0.8 0.8 0.8 0.8 0.8 
0.8 0.8 0.8 0.8 0.8 0.8 
0.8 0.8 0.8 0.8 0.8 0.8 
0.8 0.8 0.8 0.8 0.8 0.8 
0.8 0.8 0.8 0.8 0.8 0.8 
0.8 0.8 0.8 0.8 0.8 0.8 
0.8 0.8 0.8 0.8 0.8 0.8 
0.8 0.8 0.8 0.8 0.8 0.8 

NORMALS Normals float
-0.0412821 -0.0631938 -0.997147 0.0396412 -0.166905 -0.985176 0.0568609 -0.279603 -0.958431 
0.0702217 -0.230991 -0.970419 0.0539694 -0.0480537 -0.997386 0.167848 -0.26198 -0.950365 
0.0991665 -0.24563 -0.964278 0.154075 -0.365441 -0.917995 -0.0577601 0.304854 -0.950646 
0.0609122 0.178194 -0.982108 -0.0185569 -0.306878 -0.951568 0.181827 -0.561594 -0.807187 
-0.243132 0.243203 -0.93901 0.160552 -0.518555 -0.839836 0.107817 -0.378341 -0.919366 
0.206716 -0.575709 -0.791093 -0.505242 0.559156 -0.657324 0.109545 -0.309032 -0.944722 
-0.369497 0.553223 -0.746603 -0.0427257 0.270131 -0.961875 0.0878607 -0.198192 -0.976217 
0.105503 -0.23117 -0.967176 -0.372269 0.716865 -0.589508 -0.174171 0.541981 -0.822144 
-0.0022249 0.093723 -0.995596 0.136182 -0.273099 -0.952298 0.234576 -0.529011 -0.81555 
-0.0648816 0.224342 -0.972348 -0.0973121 0.490889 -0.86577 -0.336543 -0.305792 -0.890635 
-0.0225567 -0.449836 -0.892826 -0.643054 0.0479852 -0.764316 0.187129 -0.514615 -0.836752 
-0.151608 -0.163338 -0.974852 0.140281 -0.486803 -0.862174 -0.517279 0.104347 -0.849432 
-0.613545 0.231285 -0.755029 -0.135357 -0.0984061 -0.985898 0.0931308 -0.371111 -0.923907 
-0.0421526 -0.208097 -0.977199 -0.71399 0.232623 -0.660382 -0.477793 0.275016 -0.834314 
-0.201863 0.0971684 -0.974582 0.181397 -0.286164 -0.940854 0.0823695 -0.17486 -0.981142 
0.196288 -0.25559 -0.946649 0.0907187 -0.143131 -0.985537 0.209047 -0.249889 -0.945439 
0.0669043 -0.0774734 -0.994747 -0.56304 0.470098 -0.679702 0.171296 -0.333234 -0.927153 
-0.624416 0.528394 -0.575243 -0.346292 0.244236 -0.905776 0.0598863 -0.0984775 -0.993336 
0.312758 -0.652709 -0.690038 -0.0522302 0.104155 -0.993189 -0.324928 0.259632 -0.909403 
0.168593 -0.540753 -0.824113 0.27934 -0.67001 -0.68779 0.337943 -0.828633 -0.446276 
0.375127 -0.782948 -0.496258 -0.669262 0.550941 -0.49855 0.258853 -0.78731 -0.559588 
0.211009 -0.73732 -0.641744 -0.590113 0.638278 -0.494336 0.190132 -0.836322 -0.514213 
-0.541546 0.709841 -0.450393 0.179836 -0.593169 -0.784735 -0.424789 0.801519 -0.420858 
0.290773 -0.574801 -0.764889 -0.301963 0.830117 -0.468748 -0.158811 0.784233 -0.599798 
0.378608 -0.462772 -0.80156 -0.135692 0.688047 -0.712866 0.453105 -0.220586 -0.863734 
-0.220477 0.741712 -0.633446 -0.230927 0.57575 -0.784337 0.186275 -0.0229862 -0.982229 
-0.262672 0.621104 -0.738399 -0.0707837 0.471622 -0.878955 0.0591187 0.162099 -0.985002 
0.373133 0.120882 -0.919869 0.111503 0.472451 -0.874275 -0.0410495 0.489078 -0.871273 
-0.509561 -0.599442 -0.617265 -0.520425 -0.410833 -0.748582 -0.0415627 -0.622911 -0.781188 
-0.161615 -0.648658 -0.743723 0.0366195 -0.640801 -0.766833 0.220118 -0.740428 -0.635071 
-0.862386 0.0499394 -0.503782 -0.886964 0.306796 -0.34521 -0.78407 0.363762 -0.502902 
-0.768985 0.573299 -0.282826 0.253476 -0.361323 -0.897327 0.365451 -0.572306 -0.734106 
-0.819023 0.492207 -0.294846 0.281445 -0.349507 -0.893663 0.478621 -0.469003 -0.742266 
0.318387 -0.349795 -0.881064 -0.744666 0.58474 -0.321794 -0.720704 0.600253 -0.346816 
0.383268 -0.653362 -0.652858 -0.716627 0.631617 -0.295813 0.340515 -0.558123 -0.756669 
0.364958 -0.841402 -0.398557 0.387159 -0.802252 -0.454423 -0.715654 0.696954 -0.0457511 
0.427666 -0.829672 -0.358813 0.422959 -0.841791 -0.3354 0.344249 -0.916236 -0.204947 
-0.67627 0.655921 -0.3353 0.251396 -0.864404 -0.435438 -0.630647 0.766712 -0.120155 
0.240033 -0.839987 -0.486628 0.233139 -0.812585 -0.534184 -0.64959 0.743213 -0.16021 
0.318264 -0.801129 -0.506853 -0.559385 0.793735 -0.2389 0.321683 -0.807431 -0.494545 
0.351947 -0.776826 -0.522182 -0.380814 0.890701 -0.248258 0.469512 -0.355946 -0.807998 
0.573127 -0.549925 -0.607543 -0.259515 0.866934 -0.425532 0.348002 -0.0482598 -0.936251 
-0.204868 0.768946 -0.6056 0.421564 0.122959 -0.898424 -0.360827 0.767667 -0.529614 
-0.25971 0.759236 -0.596751 -0.176901 0.653822 -0.735678 0.176206 0.376333 -0.909574 
-0.224192 0.777317 -0.587807 -0.43566 -0.769971 -0.466203 -0.0627389 -0.883158 -0.464861 
-0.832527 -0.376027 -0.40682 0.393317 -0.738299 -0.54792 -0.941461 0.238606 -0.238156 
0.54399 -0.692942 -0.473187 -0.867284 0.467338 -0.171507 0.565663 -0.586569 -0.579623 
-0.717059 0.617595 -0.323113 -0.733045 0.676379 -0.0718068 0.515886 -0.77929 -0.355763 
0.453592 -0.877399 -0.156287 0.379352 -0.920065 -0.0978417 -0.73567 0.672991 -0.0766394 
0.197691 -0.969523 -0.144717 0.296753 -0.934882 -0.194766 0.240533 -0.966634 -0.0881016 
0.235351 -0.971402 -0.0314428 0.279214 -0.883022 -0.377242 0.585636 -0.66146 -0.46851 
-0.403533 0.909762 -0.0974421 0.749598 -0.474864 -0.461093 0.640383 -0.222312 -0.735178 
0.71588 0.0136947 -0.698089 -0.3027 0.942382 -0.14244 0.92596 0.147452 -0.347644 
-0.360342 0.904551 -0.227907 -0.399763 0.858751 -0.320524 -0.319186 0.754534 -0.57341 
0.881211 0.131476 -0.454071 0.459258 0.254007 -0.851212 0.705764 0.223822 -0.672161 
-0.0266438 0.805918 -0.591428 0.071398 0.766205 -0.638618 0.108946 0.598951 -0.79334 
0.300807 0.580902 -0.756352 0.474574 0.509286 -0.717918 0.160304 0.980552 -0.113224 
0.277024 0.958979 -0.0601476 0.531659 0.712793 -0.457454 0.853428 0.481147 -0.200395 
0.24851 0.841787 -0.479204 0.462352 0.859217 -0.219036 -0.553958 -0.771595 -0.312685 
-0.474282 -0.880341 -0.00749749 -0.899566 -0.395988 -0.184325 -0.991505 0.0774272 -0.104509 
-0.935342 0.346662 -0.0704289 0.655608 -0.706399 -0.266791 -0.842902 0.537242 -0.0297725 
0.509194 -0.70228 -0.497518 0.575624 -0.755128 -0.313748 -0.760901 0.642778 0.0886918 
0.546072 -0.828595 -0.123433 0.337141 -0.92576 -0.171183 0.307844 -0.951433 -0.00250045 
0.34685 -0.93787 0.00975161 0.222927 -0.97375 -0.0459866 -0.634863 0.771346 0.0444358 
0.196922 -0.96812 0.154806 0.311923 -0.949348 -0.0379763 0.25959 -0.965167 -0.0326552 
0.448226 -0.798759 -0.401345 0.980516 0.00981799 -0.196196 0.919364 -0.0338254 -0.391951 
-0.36111 0.911136 0.198572 0.981136 0.185701 -0.0537237 -0.370372 0.882073 -0.291157 
0.916325 0.379337 0.128263 -0.337484 0.929696 -0.147546 0.950945 0.30758 -0.0331362 
0.804635 0.551936 0.218926 0.632116 0.737661 0.237244 0.0240304 0.95739 -0.287797 
-0.190328 0.97681 -0.0980693 0.352237 0.934387 0.0533922 0.18036 0.960587 -0.211523 
-0.823203 -0.566555 0.0367797 -0.125955 -0.969505 -0.210227 0.279535 -0.915818 -0.288335 
-0.799611 -0.554138 0.231414 0.428691 -0.829214 -0.358647 -0.986234 -0.153159 0.0623342 
-0.93693 0.347781 0.0347967 -0.811036 0.569651 0.133112 -0.742011 0.64164 0.194212 
0.528904 -0.847991 0.0342283 0.460482 -0.864849 0.199982 0.374763 -0.926775 0.025318 
0.270447 -0.955796 0.115376 0.350271 -0.878053 0.326086 0.199588 -0.933928 0.296553 
0.196517 -0.895922 0.398379 0.214985 -0.952278 0.216673 -0.548246 0.788581 0.278508 
0.372759 -0.896373 -0.239929 0.424999 -0.881977 -0.203696 0.705781 -0.555205 -0.440023 
-0.348758 0.936286 0.0416586 -0.447634 0.87098 0.202529 -0.35124 0.933127 0.0768411 
-0.346027 0.937513 -0.0365469 0.310018 0.945775 0.0969402 0.174273 0.984517 0.01886 
-0.197648 -0.971817 -0.128481 -0.441847 -0.879051 0.178999 0.141383 -0.985425 -0.0945972 
0.447156 -0.883004 -0.142672 -0.906954 -0.161418 0.389075 -0.959816 0.15262 0.235501 
0.612659 -0.76357 -0.203984 -0.715764 0.589558 0.374304 0.660352 -0.734341 -0.157094 
-0.674482 0.56355 0.476954 0.605182 -0.783444 0.141319 -0.66981 0.685719 0.284856 
0.41534 -0.836503 0.357428 0.325748 -0.882261 0.339858 0.246852 -0.938351 0.241996 
-0.564661 0.795837 0.218637 0.351638 -0.779047 0.519072 0.210165 -0.890231 0.404128 
0.235594 -0.92034 0.312202 0.253716 -0.877044 0.407949 0.171759 -0.855166 0.48907 
0.166805 -0.94669 0.275598 0.611115 -0.76863 -0.189066 -0.283639 0.769161 0.57266 
-0.281803 0.792709 0.540554 -0.319532 0.846203 0.426428 -0.381161 0.695243 0.609388 
-0.356283 0.814811 0.457324 0.816517 0.46294 0.344945 -0.277929 0.915011 0.292422 
-0.389494 0.872647 0.294589 -0.353681 -0.807795 0.471569 -0.581756 -0.619812 0.526681 
0.0163962 -0.937551 0.347461 0.285325 -0.892872 0.348382 -0.729376 -0.468929 0.498114 
0.429948 -0.89738 0.0992677 -0.832129 0.276215 0.480902 0.670685 -0.736852 0.085035 
0.662464 -0.747999 0.0404899 -0.668708 0.357142 0.652134 -0.654531 0.536554 0.532634 
0.6971 -0.678713 0.231084 0.666876 -0.673926 0.317964 -0.681301 0.572269 0.45644 
-0.629923 0.664967 0.401268 0.499225 -0.766024 0.404946 -0.582937 0.608994 0.537877 
0.410193 -0.731711 0.544371 0.396016 -0.594841 0.699525 -0.588076 0.592336 0.550731 
0.290945 -0.732511 0.61545 0.329566 -0.683244 0.651586 -0.531906 0.561419 0.633943 
-0.452355 0.574577 0.682083 0.27781 -0.702136 0.655611 0.0952502 -0.894991 0.435796 