# vtk DataFile Version 4.2
vtk output
ASCII
DATASET POLYDATA
POINTS 933 float
393.846 241.989 225.805 395.073 241.811 225.834 392.747 242.599 225.825 
396.634 243.163 225.429 395.947 244.132 225.021 392.121 245.522 225.057 
390.266 245.873 225.914 393.349 247.119 224.643 389.377 249.779 225.729 
392.161 251.008 224.67 389.901 252.277 225.254 393.794 251.798 224.547 
391.208 252.965 224.886 391.736 255.828 225.212 418.211 277.144 225.558 
417.871 279.321 225.765 424.677 279.784 225.185 456.552 280.171 224.999 
458.633 280.206 225.089 418.704 279.95 225.728 461.211 282.113 225.074 
435.518 284.048 225.442 454.922 284.889 224.939 459.604 284.388 225.014 
484.417 285.381 224.996 488.43 285.453 224.963 445.774 285.51 225.311 
447.642 285.534 225.254 477.291 285.556 225.472 477.241 285.972 225.554 
444.57 285.889 225.547 454.19 286.235 225.315 458.143 286.02 225.28 
459.958 285.881 225.411 477.797 286.651 225.691 479.023 286.652 225.494 
484.897 286.888 225.11 458.783 286.567 225.583 479.008 287.137 225.708 
479.331 287.457 225.873 484.871 288.268 225.637 495.5 290.494 225.416 
498.443 290.51 225.29 499.931 290.142 225.281 495.749 291.115 225.661 
496.325 291.084 225.587 499.934 291.102 225.496 496.794 291.734 225.965 
498.942 291.728 225.789 393.261 241.24 226.702 392.172 242.049 226.565 
391.969 241.916 226.939 398.302 242.131 226.675 390.927 243.164 226.755 
399.305 243.593 226.128 402.676 244.563 226.944 403.913 245.231 226.967 
404.737 245.646 226.933 403.368 246.379 225.975 407.271 247.02 226.781 
388.814 248.01 226.647 388.633 248.645 226.697 400.247 248.233 225.033 
403.204 248.156 225.376 388.9 249.19 226.213 411.518 248.989 226.599 
388.419 250.581 226.447 419.125 250.763 226.469 427.42 252.823 226.16 
427.662 253.498 225.886 388.483 253.951 226.479 432.043 253.981 225.984 
388.111 254.761 227.163 388.387 255.889 227.081 388.513 256.191 227.071 
389.347 256.24 226.494 390.123 256.416 226.154 431.179 257.118 225.255 
388.735 256.549 227.141 395.316 258.096 225.261 390.465 257.719 226.794 
392.606 259.283 226.947 393.894 259.471 226.307 510.69 261.059 226.626 
395.725 261.573 226.809 396.001 261.433 226.496 510.996 261.255 226.823 
397.001 262.393 226.534 397.735 263.509 226.84 508.454 262.878 226.767 
509.407 262.83 226.659 398.714 264.487 226.832 398.969 264.338 226.554 
399.687 265.459 226.834 400.66 266.421 226.845 400.91 266.263 226.58 
404.765 266.712 225.546 415.848 266.936 225.192 401.634 267.35 226.869 
404.656 269.455 226.689 406.477 269.13 226.017 406.505 269.771 226.311 
410.145 270.076 226.08 456.749 270.781 225.371 459.323 271.376 225.754 
462.973 271.074 226.258 460.255 273.227 226.647 460.808 272.591 226.489 
459.628 273.954 226.579 458.042 275.025 225.937 416.242 278.062 226.958 
467.898 278.987 226.435 470.786 278.85 226.61 416.218 278.822 227.144 
460.45 279.515 225.529 471.1 279.094 226.458 471.095 279.539 226.246 
416.875 279.49 226.513 472.952 280.11 226.221 416.869 280.121 226.74 
416.61 280.105 226.945 417.116 280.847 227.102 417.26 280.612 226.792 
424.896 281.829 225.67 425.937 281.829 225.621 429.478 282.188 225.482 
486.242 282.377 225.548 421.492 282.444 226.569 426.696 282.513 225.871 
423.727 282.898 226.436 424.134 283.15 226.627 425.272 282.982 226.304 
429.736 283.55 226.031 482.032 283.893 225.218 504.263 284.174 225.835 
506.693 284.229 226.118 507.281 284.027 226.312 425.888 283.518 226.746 
429.165 283.925 226.432 430.604 284.076 226.215 441.754 284.535 225.404 
471.359 285.096 225.904 473.397 284.919 225.818 442.908 285.339 225.557 
472.123 285.698 226.046 474.192 285.591 225.913 493.072 285.798 225.129 
438.145 286.157 226.525 446.955 286.702 225.777 460.493 286.597 225.808 
477.062 286.422 225.775 504.892 286.908 225.716 438.764 286.412 226.758 
441.728 286.756 226.571 444.513 286.887 226.238 452.48 287.306 225.993 
460.453 287.202 226.188 475.636 286.818 226.301 478.684 287.379 225.977 
443.172 287.17 226.863 450.108 287.696 226.459 451.097 287.709 226.436 
459.999 287.55 226.47 460.888 287.532 226.569 467.253 287.003 227.015 
476.234 287.258 226.566 505.107 288.986 225.981 485.324 289.341 226.936 
505.979 289.693 226.476 495.702 291.519 226 504.812 290.648 226.46 
499.7 292.179 226.103 500.645 292.008 226.036 501.339 292.015 226.12 
505.137 291.031 226.794 498.484 292.946 227.012 393.901 240.425 227.6 
393.452 240.644 227.485 395.521 240.472 227.142 395.328 240.353 227.292 
393.097 240.972 227.212 392.642 241.19 227.445 396.922 240.966 227.122 
397.013 240.881 227.366 391.504 242.281 227.137 398.463 241.773 227.177 
391.06 242.668 227.486 390.006 244.409 227.496 403.574 244.866 227.207 
403.852 244.966 227.468 405.28 245.805 227.072 405.381 245.74 227.335 
405.929 246.012 227.442 388.837 247.189 227.246 412.65 248.85 227.383 
413.208 249.009 227.613 388.157 249.613 227.135 416.456 249.894 227.356 
388.132 250.203 226.921 421.635 250.859 226.823 425.61 251.81 226.622 
428 252.147 226.847 429.717 252.22 227.325 431.338 252.641 226.916 
434.044 252.629 227.358 440.164 252.797 227.372 444.65 253.031 227.084 
459.673 252.957 227.064 459.251 252.777 227.348 462.041 252.567 227.242 
503.858 252.688 227.338 506.764 252.963 227.407 388.12 251.79 226.727 
468.027 253.05 226.791 472.008 253.112 226.807 473.936 253.106 226.821 
432.599 253.6 226.223 509.288 254.267 227.427 509.683 254.464 227.534 
456.577 254.605 226.436 491.638 254.025 226.809 510.414 255.002 227.479 
472.335 255.3 226.313 504.416 255.414 226.395 510.561 255.221 227.452 
510.615 255.567 227.384 510.741 255.467 227.547 388 255.364 227.79 
509.522 256.25 226.795 510.945 255.986 227.537 472.133 257.103 226.14 
490.072 257.045 226.325 496.194 257.086 226.417 511.236 256.848 227.628 
388.832 257.013 227.851 483.047 258.026 226.179 504.045 257.961 226.196 
507.68 257.887 226.239 389.313 257.449 227.642 389.66 257.841 227.875 
390.291 258.005 227.27 491.565 259.543 226.439 495.518 259.516 226.542 
509.02 259.761 226.291 393.772 260.185 227.195 473.953 260.959 226.075 
501.651 260.469 226.539 511.367 260.151 227.417 394.944 261.147 227.3 
484.518 261.524 226.398 491.076 260.947 226.71 497.978 260.882 226.902 
502.484 261.173 226.681 396.016 262.109 227.322 485.209 262.211 226.576 
492.801 261.26 227.006 493.687 261.301 227.106 498.52 261.361 227.143 
499.692 261.739 227.256 397.487 263.578 227.507 490.677 261.914 227.125 
491.473 261.908 227.259 492.255 261.733 227.314 500.791 262.112 227.492 
502.971 262.167 227.148 511.27 262.578 227.238 511.366 262.437 227.391 
398.028 264.07 227.292 483.934 263.599 226.877 484.696 263.388 226.891 
486.517 263.346 227.232 490.125 262.307 227.412 504.558 262.64 227.329 
505.954 263.132 227.539 509.406 263.485 227.168 510.029 263.463 227.103 
510.495 263.456 227.227 510.903 263.172 227.285 511.205 262.843 227.379 
398.985 265.039 227.259 479.982 264.85 226.82 509.554 263.713 227.485 
509.942 263.803 227.624 510.468 263.677 227.451 510.745 263.491 227.471 
399.966 266.012 227.275 400.401 266.502 227.455 471.307 266.696 226.321 
481.557 265.206 227.311 483.278 264.614 227.422 484.896 264.137 227.459 
510.287 263.785 227.56 400.935 266.964 227.275 474.824 267.349 227.085 
478.234 266.551 227.481 404.196 269.431 226.957 469.407 269.272 226.712 
473.637 268.172 227.32 408.838 270.689 226.55 412.096 270.799 226.232 
469.253 269.778 227.076 404.749 270.226 227.616 406.719 270.597 226.926 
407.928 270.903 226.901 468.737 270.153 227.344 470.24 269.613 227.447 
407.93 271.292 227.382 408.428 271.521 227.534 413.448 272.215 226.89 
416.899 273.01 225.976 466.695 270.912 227.38 411.929 272.028 227.462 
414.032 272.818 227.279 414.939 273.463 227.121 415.496 274.33 227.258 
415.842 273.952 226.626 461.652 272.793 227.063 416.247 275.315 226.7 
415.838 275.294 227.374 459.579 274.961 226.805 460.066 274.212 227.093 
460.801 273.477 227.375 457.285 276.258 225.663 459.604 276.174 226.638 
460.001 275.904 227.362 459.934 275.074 227.484 460.546 276.768 227.272 
460.592 277.343 226.638 461.842 277.845 226.813 461.444 277.395 227.276 
463.467 277.944 227.392 464.963 278.263 227.032 469.753 278.471 226.994 
470.39 278.33 227.398 473.07 278.566 227.423 471.445 278.878 226.689 
473.489 278.74 227.279 473.631 279.141 226.928 475.531 279.14 227.433 
477.777 279.38 227.453 484.864 279.366 227.227 506.146 279.659 227.288 
506.953 279.705 227.496 507.251 279.773 227.594 416.08 278.687 227.591 
485.855 279.963 226.599 504.772 279.562 227.098 507.652 280.146 227.631 
476.244 280.491 226.377 480.375 280.43 226.408 488.511 280.506 226.333 
506.626 280.784 226.873 474.865 281.156 226.062 508.192 281.411 227.664 
416.58 280.484 227.39 416.757 280.799 227.5 473.868 281.937 225.857 
417.77 281.393 227.364 503.455 282.449 226.07 420.86 282.762 227.671 
420.891 282.646 227.237 422.708 282.953 226.867 508.081 284.263 226.783 
508.468 283.527 227.479 424.215 283.363 227.009 425.932 283.837 227.192 
425.638 283.884 227.443 429.801 284.366 226.718 426.305 284.018 227.545 
429.75 284.612 227.175 435.139 285.819 227.163 436.733 286.056 226.875 
507.834 286.817 226.715 438.916 286.769 227.273 439.351 286.972 227.632 
442.313 287.249 227.324 448.691 287.953 226.945 463.48 287.498 227.508 
476.312 287.616 227.084 507.91 288.123 227.311 448.238 288.103 227.43 
453.134 288.184 227.32 458.087 288.072 227.334 462.23 287.835 227.484 
482.846 289.095 227.647 506.938 289.165 226.766 507.362 289.21 227.174 
485.38 289.488 227.534 506.443 289.821 226.765 507.267 289.651 227.397 
507.524 289.299 227.509 506.425 290.253 227.045 506.664 290.292 227.318 
506.999 290.036 227.487 504.916 291.451 227.006 506.149 290.687 227.302 
496.752 292.707 227.365 497.202 292.912 227.729 497.915 292.942 227.163 
502.461 292.532 226.839 502.997 292.416 226.97 505.139 291.495 227.325 
499.334 293.123 227.572 502.519 292.66 227.248 393.982 240.361 227.994 
394.772 240.248 227.617 395.276 240.282 227.608 393.229 240.847 228.232 
396.214 240.571 227.843 397.299 240.977 227.551 396.895 240.794 227.642 
[...]
POINT_DATA 933
COLOR_SCALARS scalars 3
1 0.776471 0.886275 1 0.776471 0.886275 1 0.776471 0.886275 
1 0.776471 0.886275 1 0.776471 0.886275 
1 0.776471 0.886275 1 0.776471 0.886275 
1 0.776471 0.886275 1 0.776471 0.886275 
1 0.776471 0.886275 1 0.776471 0.886275 
1 0.776471 0.886275 1 0.776471 0.886275 
1 0.776471 0.886275 1 0.776471 0.886275 
1 0.776471 0.886275 1 0.776471 0.886275 
1 0.776471 0.886275 1 0.776471 0.886275 
1 0.776471 0.886275 1 0.776471 0.886275 
1 0.776471 0.886275 1 0.776471 0.886275 
1 0.776471 0.886275 1 0.776471 0.886275 
1 0.776471 0.886275 1 0.776471 0.886275 
1 0.776471 0.886275 1 0.776471 0.886275 
1 0.776471 0.886275 1 0.776471 0.886275 
1 0.776471 0.886275 1 0.776471 0.886275 
1 0.776471 0.886275 1 0.776471 0.886275 
1 0.776471 0.886275 1 0.776471 0.886275 
1 0.776471 0.886275 1 0.776471 0.886275 
1 0.776471 0.886275 1 0.776471 0.886275 
1 0.776471 0.886275 1 0.776471 0.886275 
1 0.776471 0.886275 1 0.776471 0.886275 
1 0.776471 0.886275 1 0.776471 0.886275 
1 0.776471 0.886275 1 0.776471 0.886275 
1 0.776471 0.886275 1 0.776471 0.886275 
1 0.776471 0.886275 1 0.776471 0.886275 
1 0.776471 0.886275 1 0.776471 0.886275 
1 0.776471 0.886275 1 0.776471 0.886275 
1 0.776471 0.886275 1 0.776471 0.886275 
1 0.776471 0.886275 1 0.776471 0.886275 
1 0.776471 0.886275 1 0.776471 0.886275 
1 0.776471 0.886275 1 0.776471 0.886275 
1 0.776471 0.886275 1 0.776471 0.886275 
1 0.776471 0.886275 1 0.776471 0.886275 
1 0.776471 0.886275 1 0.776471 0.886275 
1 0.776471 0.886275 1 0.776471 0.886275 
1 0.776471 0.886275 1 0.776471 0.886275 
1 0.776471 0.886275 1 0.776471 0.886275 
1 0.776471 0.886275 1 0.776471 0.886275 
1 0.776471 0.886275 1 0.776471 0.886275 
1 0.776471 0.886275 1 0.776471 0.886275 
1 0.776471 0.886275 1 0.776471 0.886275 
1 0.776471 0.886275 1 0.776471 0.886275 
1 0.776471 0.886275 1 0.776471 0.886275 
1 0.776471 0.886275 1 0.776471 0.886275 
1 0.776471 0.886275 1 0.776471 0.886275 
1 0.776471 0.886275 1 0.776471 0.886275 
1 0.776471 0.886275 1 0.776471 0.886275 
1 0.776471 0.886275 1 0.776471 0.886275 
1 0.776471 0.886275 1 0.776471 0.886275 
1 0.776471 0.886275 1 0.776471 0.886275 
1 0.776471 0.886275 1 0.776471 0.886275 
1 0.776471 0.886275 1 0.776471 0.886275 
1 0.776471 0.886275 1 0.776471 0.886275 
1 0.776471 0.886275 1 0.776471 0.886275 
1 0.776471 0.886275 1 0.776471 0.886275 
1 0.776471 0.886275 1 0.776471 0.886275 
1 0.776471 0.886275 1 0.776471 0.886275 
1 0.776471 0.886275 1 0.776471 0.886275 
1 0.776471 0.886275 1 0.776471 0.886275 
1 0.776471 0.886275 1 0.776471 0.886275 
1 0.776471 0.886275 1 0.776471 0.886275 
1 0.776471 0.886275 1 0.776471 0.886275 
1 0.776471 0.886275 1 0.776471 0.886275 
1 0.776471 0.886275 1 0.776471 0.886275 
1 0.776471 0.886275 1 0.776471 0.886275 
1 0.776471 0.886275 1 0.776471 0.886275 
1 0.776471 0.886275 1 0.776471 0.886275 
1 0.776471 0.886275 1 0.776471 0.886275 
1 0.776471 0.886275 1 0.776471 0.886275 
1 0.776471 0.886275 1 0.776471 0.886275 
1 0.776471 0.886275 1 0.776471 0.886275 
1 0.776471 0.886275 1 0.776471 0.886275 
1 0.776471 0.886275 1 0.776471 0.886275 
1 0.776471 0.886275 1 0.776471 0.886275 
1 0.776471 0.886275 1 0.776471 0.886275 
1 0.776471 0.886275 1 0.776471 0.886275 
1 0.776471 0.886275 1 0.776471 0.886275 
1 0.776471 0.886275 1 0.776471 0.886275 
1 0.776471 0.886275 1 0.776471 0.886275 
1 0.776471 0.886275 1 0.776471 0.886275 
1 0.776471 0.886275 1 0.776471 0.886275 
1 0.776471 0.886275 1 0.776471 0.886275 
1 0.776471 0.886275 1 0.776471 0.886275 
1 0.776471 0.886275 1 0.776471 0.886275 
1 0.776471 0.886275 1 0.776471 0.886275 
1 0.776471 0.886275 1 0.776471 0.886275 
1 0.776471 0.886275 1 0.776471 0.886275 
1 0.776471 0.886275 1 0.776471 0.886275 
1 0.776471 0.886275 1 0.776471 0.886275 
1 0.776471 0.886275 1 0.776471 0.886275 
1 0.776471 0.886275 1 0.776471 0.886275 
1 0.776471 0.886275 1 0.776471 0.886275 
1 0.776471 0.886275 1 0.776471 0.886275 
1 0.776471 0.886275 1 0.776471 0.886275 
1 0.776471 0.886275 1 0.776471 0.886275 
1 0.776471 0.886275 1 0.776471 0.886275 
1 0.776471 0.886275 1 0.776471 0.886275 
1 0.776471 0.886275 1 0.776471 0.886275 
1 0.776471 0.886275 1 0.776471 0.886275 
1 0.776471 0.886275 1 0.776471 0.886275 
1 0.776471 0.886275 1 0.776471 0.886275 
1 0.776471 0.886275 1 0.776471 0.886275 
1 0.776471 0.886275 1 0.776471 0.886275 
1 0.776471 0.886275 1 0.776471 0.886275 
1 0.776471 0.886275 1 0.776471 0.886275 
1 0.776471 0.886275 1 0.776471 0.886275 
1 0.776471 0.886275 1 0.776471 0.886275 
1 0.776471 0.886275 1 0.776471 0.886275 
1 0.776471 0.886275 1 0.776471 0.886275 
1 0.776471 0.886275 1 0.776471 0.886275 
1 0.776471 0.886275 1 0.776471 0.886275 
1 0.776471 0.886275 1 0.776471 0.886275 
1 0.776471 0.886275 1 0.776471 0.886275 
1 0.776471 0.886275 1 0.776471 0.886275 
1 0.776471 0.886275 1 0.776471 0.886275 
1 0.776471 0.886275 1 0.776471 0.886275 
1 0.776471 0.886275 1 0.776471 0.886275 
1 0.776471 0.886275 1 0.776471 0.886275 
1 0.776471 0.886275 1 0.776471 0.886275 
1 0.776471 0.886275 1 0.776471 0.886275 
1 0.776471 0.886275 1 0.776471 0.886275 
1 0.776471 0.886275 1 0.776471 0.886275 
1 0.776471 0.886275 1 0.776471 0.886275 
1 0.776471 0.886275 1 0.776471 0.886275 
1 0.776471 0.886275 1 0.776471 0.886275 
1 0.776471 0.886275 1 0.776471 0.886275 
1 0.776471 0.886275 1 0.776471 0.886275 
1 0.776471 0.886275 1 0.776471 0.886275 
1 0.776471 0.886275 1 0.776471 0.886275 
1 0.776471 0.886275 1 0.776471 0.886275 
1 0.776471 0.886275 1 0.776471 0.886275 
1 0.776471 0.886275 1 0.776471 0.886275 
1 0.776471 0.886275 1 0.776471 0.886275 
1 0.776471 0.886275 1 0.776471 0.886275 
1 0.776471 0.886275 1 0.776471 0.886275 
1 0.776471 0.886275 1 0.776471 0.886275 
1 0.776471 0.886275 1 0.776471 0.886275 
1 0.776471 0.886275 1 0.776471 0.886275 
1 0.776471 0.886275 1 0.776471 0.886275 
1 0.776471 0.886275 1 0.776471 0.886275 
1 0.776471 0.886275 1 0.776471 0.886275 
1 0.776471 0.886275 1 0.776471 0.886275 
1 0.776471 0.886275 1 0.776471 0.886275 
1 0.776471 0.886275 1 0.776471 0.886275 
1 0.776471 0.886275 1 0.776471 0.886275 
1 0.776471 0.886275 1 0.776471 0.886275 
1 0.776471 0.886275 1 0.776471 0.886275 
1 0.776471 0.886275 1 0.776471 0.886275 
1 0.776471 0.886275 1 0.776471 0.886275 
1 0.776471 0.886275 1 0.776471 0.886275 
1 0.776471 0.886275 1 0.776471 0.886275 
1 0.776471 0.886275 1 0.776471 0.886275 
1 0.776471 0.886275 1 0.776471 0.886275 
1 0.776471 0.886275 1 0.776471 0.886275 
1 0.776471 0.886275 1 0.776471 0.886275 
1 0.776471 0.886275 1 0.776471 0.886275 
1 0.776471 0.886275 1 0.776471 0.886275 
1 0.776471 0.886275 1 0.776471 0.886275 
1 0.776471 0.886275 1 0.776471 0.886275 
1 0.776471 0.886275 1 0.776471 0.886275 
1 0.776471 0.886275 1 0.776471 0.886275 
1 0.776471 0.886275 1 0.776471 0.886275 
1 0.776471 0.886275 1 0.776471 0.886275 
1 0.776471 0.886275 1 0.776471 0.886275 
1 0.776471 0.886275 1 0.776471 0.886275 
1 0.776471 0.886275 1 0.776471 0.886275 
1 0.776471 0.886275 1 0.776471 0.886275 
1 0.776471 0.886275 1 0.776471 0.886275 
1 0.776471 0.886275 1 0.776471 0.886275 
1 0.776471 0.886275 1 0.776471 0.886275 
1 0.776471 0.886275 1 0.776471 0.886275 
1 0.776471 0.886275 1 0.776471 0.886275 
1 0.776471 0.886275 1 0.776471 0.886275 
1 0.776471 0.886275 1 0.776471 0.886275 
1 0.776471 0.886275 1 0.776471 0.886275 
1 0.776471 0.886275 1 0.776471 0.886275 
1 0.776471 0.886275 1 0.776471 0.886275 
1 0.776471 0.886275 1 0.776471 0.886275 
1 0.776471 0.886275 1 0.776471 0.886275 
1 0.776471 0.886275 1 0.776471 0.886275 
1 0.776471 0.886275 1 0.776471 0.886275 
1 0.776471 0.886275 1 0.776471 0.886275 
1 0.776471 0.886275 1 0.776471 0.886275 
1 0.776471 0.886275 1 0.776471 0.886275 
1 0.776471 0.886275 1 0.776471 0.886275 
1 0.776471 0.886275 1 0.776471 0.886275 
1 0.776471 0.886275 1 0.776471 0.886275 
1 0.776471 0.886275 1 0.776471 0.886275 
1 0.776471 0.886275 1 0.776471 0.886275 
1 0.776471 0.886275 1 0.776471 0.886275 
1 0.776471 0.886275 1 0.776471 0.886275 
1 0.776471 0.886275 1 0.776471 0.886275 
1 0.776471 0.886275 1 0.776471 0.886275 
1 0.776471 0.886275 1 0.776471 0.886275 
1 0.776471 0.886275 1 0.776471 0.886275 
1 0.776471 0.886275 1 0.776471 0.886275 
1 0.776471 0.886275 1 0.776471 0.886275 
1 0.776471 0.886275 1 0.776471 0.886275 
1 0.776471 0.886275 1 0.776471 0.886275 
1 0.776471 0.886275 1 0.776471 0.886275 
1 0.776471 0.886275 1 0.776471 0.886275 
1 0.776471 0.886275 1 0.776471 0.886275 
1 0.776471 0.886275 1 0.776471 0.886275 
1 0.776471 0.886275 1 0.776471 0.886275 
1 0.776471 0.886275 1 0.776471 0.886275 
1 0.776471 0.886275 1 0.776471 0.886275 
1 0.776471 0.886275 1 0.776471 0.886275 
1 0.776471 0.886275 1 0.776471 0.886275 
1 0.776471 0.886275 1 0.776471 0.886275 
1 0.776471 0.886275 1 0.776471 0.886275 
1 0.776471 0.886275 1 0.776471 0.886275 
1 0.776471 0.886275 1 0.776471 0.886275 
1 0.776471 0.886275 1 0.776471 0.886275 
1 0.776471 0.886275 1 0.776471 0.886275 
1 0.776471 0.886275 1 0.776471 0.886275 
1 0.776471 0.886275 1 0.776471 0.886275 
1 0.776471 0.886275 1 0.776471 0.886275 
1 0.776471 0.886275 1 0.776471 0.886275 
1 0.776471 0.886275 1 0.776471 0.886275 
1 0.776471 0.886275 1 0.776471 0.886275 
1 0.776471 0.886275 1 0.776471 0.886275 
1 0.776471 0.886275 1 0.776471 0.886275 
1 0.776471 0.886275 1 0.776471 0.886275 
1 0.776471 0.886275 1 0.776471 0.886275 
1 0.776471 0.886275 1 0.776471 0.886275 
1 0.776471 0.886275 1 0.776471 0.886275 
1 0.776471 0.886275 1 0.776471 0.886275 
1 0.776471 0.886275 1 0.776471 0.886275 
1 0.776471 0.886275 1 0.776471 0.886275 
1 0.776471 0.886275 1 0.776471 0.886275 
1 0.776471 0.886275 1 0.776471 0.886275 
1 0.776471 0.886275 1 0.776471 0.886275 
1 0.776471 0.886275 1 0.776471 0.886275 
1 0.776471 0.886275 1 0.776471 0.886275 
1 0.776471 0.886275 1 0.776471 0.886275 
1 0.776471 0.886275 1 0.776471 0.886275 
1 0.776471 0.886275 1 0.776471 0.886275 
1 0.776471 0.886275 1 0.776471 0.886275 
1 0.776471 0.886275 1 0.776471 0.886275 
1 0.776471 0.886275 1 0.776471 0.886275 
1 0.776471 0.886275 1 0.776471 0.886275 
1 0.776471 0.886275 1 0.776471 0.886275 
1 0.776471 0.886275 1 0.776471 0.886275 
1 0.776471 0.886275 1 0.776471 0.886275 
1 0.776471 0.886275 1 0.776471 0.886275 
1 0.776471 0.886275 1 0.776471 0.886275 
1 0.776471 0.886275 1 0.776471 0.886275 
1 0.776471 0.886275 1 0.776471 0.886275 
1 0.776471 0.886275 1 0.776471 0.886275 
1 0.776471 0.886275 1 0.776471 0.886275 
1 0.776471 0.886275 1 0.776471 0.886275 
1 0.776471 0.886275 1 0.776471 0.886275 
1 0.776471 0.886275 1 0.776471 0.886275 
1 0.776471 0.886275 1 0.776471 0.886275 
1 0.776471 0.886275 1 0.776471 0.886275 
1 0.776471 0.886275 1 0.776471 0.886275 
1 0.776471 0.886275 1 0.776471 0.886275 
1 0.776471 0.886275 1 0.776471 0.886275 
1 0.776471 0.886275 1 0.776471 0.886275 
1 0.776471 0.886275 1 0.776471 0.886275 
1 0.776471 0.886275 1 0.776471 0.886275 
1 0.776471 0.886275 1 0.776471 0.886275 
1 0.776471 0.886275 1 0.776471 0.886275 
1 0.776471 0.886275 1 0.776471 0.886275 
1 0.776471 0.886275 1 0.776471 0.886275 
1 0.776471 0.886275 1 0.776471 0.886275 
1 0.776471 0.886275 1 0.776471 0.886275 
1 0.776471 0.886275 1 0.776471 0.886275 
1 0.776471 0.886275 1 0.776471 0.886275 
1 0.776471 0.886275 1 0.776471 0.886275 
1 0.776471 0.886275 1 0.776471 0.886275 
1 0.776471 0.886275 1 0.776471 0.886275 
1 0.776471 0.886275 1 0.776471 0.886275 
1 0.776471 0.886275 1 0.776471 0.886275 
1 0.776471 0.886275 1 0.776471 0.886275 
1 0.776471 0.886275 1 0.776471 0.886275 
1 0.776471 0.886275 1 0.776471 0.886275 
1 0.776471 0.886275 1 0.776471 0.886275 
1 0.776471 0.886275 1 0.776471 0.886275 
1 0.776471 0.886275 1 0.776471 0.886275 
1 0.776471 0.886275 1 0.776471 0.886275 
1 0.776471 0.886275 1 0.776471 0.886275 
1 0.776471 0.886275 1 0.776471 0.886275 
1 0.776471 0.886275 1 0.776471 0.886275 
1 0.776471 0.886275 1 0.776471 0.886275 
1 0.776471 0.886275 1 0.776471 0.886275 
1 0.776471 0.886275 1 0.776471 0.886275 
1 0.776471 0.886275 1 0.776471 0.886275 
1 0.776471 0.886275 1 0.776471 0.886275 
1 0.776471 0.886275 1 0.776471 0.886275 
1 0.776471 0.886275 1 0.776471 0.886275 
1 0.776471 0.886275 1 0.776471 0.886275 
1 0.776471 0.886275 1 0.776471 0.886275 
1 0.776471 0.886275 1 0.776471 0.886275 
1 0.776471 0.886275 1 0.776471 0.886275 
1 0.776471 0.886275 1 0.776471 0.886275 
1 0.776471 0.886275 1 0.776471 0.886275 
1 0.776471 0.886275 1 0.776471 0.886275 
1 0.776471 0.886275 1 0.776471 0.886275 
1 0.776471 0.886275 1 0.776471 0.886275 
1 0.776471 0.886275 1 0.776471 0.886275 
1 0.776471 0.886275 1 0.776471 0.886275 
1 0.776471 0.886275 1 0.776471 0.886275 
1 0.776471 0.886275 1 0.776471 0.886275 
1 0.776471 0.886275 1 0.776471 0.886275 
1 0.776471 0.886275 1 0.776471 0.886275 
1 0.776471 0.886275 1 0.776471 0.886275 
1 0.776471 0.886275 1 0.776471 0.886275 
1 0.776471 0.886275 1 0.776471 0.886275 
1 0.776471 0.886275 1 0.776471 0.886275 
1 0.776471 0.886275 1 0.776471 0.886275 
1 0.776471 0.886275 1 0.776471 0.886275 
1 0.776471 0.886275 1 0.776471 0.886275 
1 0.776471 0.886275 1 0.776471 0.886275 
1 0.776471 0.886275 1 0.776471 0.886275 
1 0.776471 0.886275 1 0.776471 0.886275 
1 0.776471 0.886275 1 0.776471 0.886275 
1 0.776471 0.886275 1 0.776471 0.886275 
1 0.776471 0.886275 1 0.776471 0.886275 
1 0.776471 0.886275 1 0.776471 0.886275 
1 0.776471 0.886275 1 0.776471 0.886275 
1 0.776471 0.886275 1 0.776471 0.886275 
1 0.776471 0.886275 1 0.776471 0.886275 
1 0.776471 0.886275 1 0.776471 0.886275 
1 0.776471 0.886275 1 0.776471 0.886275 
1 0.776471 0.886275 1 0.776471 0.886275 
1 0.776471 0.886275 1 0.776471 0.886275 
1 0.776471 0.886275 1 0.776471 0.886275 
1 0.776471 0.886275 1 0.776471 0.886275 
1 0.776471 0.886275 1 0.776471 0.886275 
1 0.776471 0.886275 1 0.776471 0.886275 
1 0.776471 0.886275 1 0.776471 0.886275 
1 0.776471 0.886275 1 0.776471 0.886275 
1 0.776471 0.886275 1 0.776471 0.886275 
1 0.776471 0.886275 1 0.776471 0.886275 
1 0.776471 0.886275 1 0.776471 0.886275 
1 0.776471 0.886275 1 0.776471 0.886275 
1 0.776471 0.886275 1 0.776471 0.886275 
1 0.776471 0.886275 1 0.776471 0.886275 
1 0.776471 0.886275 1 0.776471 0.886275 
1 0.776471 0.886275 1 0.776471 0.886275 
1 0.776471 0.886275 1 0.776471 0.886275 
1 0.776471 0.886275 1 0.776471 0.886275 
1 0.776471 0.886275 1 0.776471 0.886275 
1 0.776471 0.886275 1 0.776471 0.886275 
1 0.776471 0.886275 1 0.776471 0.886275 
1 0.776471 0.886275 1 0.776471 0.886275 
1 0.776471 0.886275 1 0.776471 0.886275 
1 0.776471 0.886275 1 0.776471 0.886275 
1 0.776471 0.886275 1 0.776471 0.886275 
1 0.776471 0.886275 1 0.776471 0.886275 
1 0.776471 0.886275 1 0.776471 0.886275 
1 0.776471 0.886275 1 0.776471 0.886275 
1 0.776471 0.886275 1 0.776471 0.886275 
1 0.776471 0.886275 1 0.776471 0.886275 
1 0.776471 0.886275 1 0.776471 0.886275 
1 0.776471 0.886275 1 0.776471 0.886275 
1 0.776471 0.886275 1 0.776471 0.886275 
1 0.776471 0.886275 1 0.776471 0.886275 
1 0.776471 0.886275 1 0.776471 0.886275 
1 0.776471 0.886275 1 0.776471 0.886275 
1 0.776471 0.886275 1 0.776471 0.886275 
1 0.776471 0.886275 1 0.776471 0.886275 
1 0.776471 0.886275 1 0.776471 0.886275 
1 0.776471 0.886275 1 0.776471 0.886275 
1 0.776471 0.886275 1 0.776471 0.886275 
1 0.776471 0.886275 1 0.776471 0.886275 
1 0.776471 0.886275 1 0.776471 0.886275 
1 0.776471 0.886275 1 0.776471 0.886275 
1 0.776471 0.886275 1 0.776471 0.886275 
1 0.776471 0.886275 1 0.776471 0.886275 
1 0.776471 0.886275 1 0.776471 0.886275 
1 0.776471 0.886275 1 0.776471 0.886275 
1 0.776471 0.886275 1 0.776471 0.886275 
1 0.776471 0.886275 1 0.776471 0.886275 
1 0.776471 0.886275 1 0.776471 0.886275 
1 0.776471 0.886275 1 0.776471 0.886275 
1 0.776471 0.886275 1 0.776471 0.886275 
1 0.776471 0.886275 1 0.776471 0.886275 
1 0.776471 0.886275 1 0.776471 0.886275 
1 0.776471 0.886275 1 0.776471 0.886275 
1 0.776471 0.886275 1 0.776471 0.886275 
1 0.776471 0.886275 1 0.776471 0.886275 
1 0.776471 0.886275 1 0.776471 0.886275 
1 0.776471 0.886275 1 0.776471 0.886275 
1 0.776471 0.886275 1 0.776471 0.886275 
1 0.776471 0.886275 1 0.776471 0.886275 
1 0.776471 0.886275 1 0.776471 0.886275 
1 0.776471 0.886275 1 0.776471 0.886275 
1 0.776471 0.886275 1 0.776471 0.886275 
1 0.776471 0.886275 1 0.776471 0.886275 
1 0.776471 0.886275 1 0.776471 0.886275 
1 0.776471 0.886275 1 0.776471 0.886275 
1 0.776471 0.886275 1 0.776471 0.886275 
1 0.776471 0.886275 1 0.776471 0.886275 
1 0.776471 0.886275 1 0.776471 0.886275 
1 0.776471 0.886275 1 0.776471 0.886275 
1 0.776471 0.886275 1 0.776471 0.886275 
1 0.776471 0.886275 1 0.776471 0.886275 
1 0.776471 0.886275 1 0.776471 0.886275 
1 0.776471 0.886275 1 0.776471 0.886275 
1 0.776471 0.886275 1 0.776471 0.886275 
1 0.776471 0.886275 1 0.776471 0.886275 
1 0.776471 0.886275 1 0.776471 0.886275 
1 0.776471 0.886275 1 0.776471 0.886275 
1 0.776471 0.886275 1 0.776471 0.886275 
1 0.776471 0.886275 1 0.776471 0.886275 
1 0.776471 0.886275 1 0.776471 0.886275 
1 0.776471 0.886275 1 0.776471 0.886275 
1 0.776471 0.886275 1 0.776471 0.886275 
1 0.776471 0.886275 1 0.776471 0.886275 
1 0.776471 0.886275 1 0.776471 0.886275 
1 0.776471 0.886275 1 0.776471 0.886275 
1 0.776471 0.886275 1 0.776471 0.886275 
1 0.776471 0.886275 1 0.776471 0.886275 
1 0.776471 0.886275 1 0.776471 0.886275 
1 0.776471 0.886275 1 0.776471 0.886275 
1 0.776471 0.886275 1 0.776471 0.886275 
1 0.776471 0.886275 1 0.776471 0.886275 
1 0.776471 0.886275 1 0.776471 0.886275 
1 0.776471 0.886275 1 0.776471 0.886275 
1 0.776471 0.886275 1 0.776471 0.886275 
1 0.776471 0.886275 1 0.776471 0.886275 
1 0.776471 0.886275 1 0.776471 0.886275 
1 0.776471 0.886275 1 0.776471 0.886275 
1 0.776471 0.886275 1 0.776471 0.886275 
1 0.776471 0.886275 1 0.776471 0.886275 
1 0.776471 0.886275 1 0.776471 0.886275 
1 0.776471 0.886275 1 0.776471 0.886275 
1 0.776471 0.886275 1 0.776471 0.886275 
1 0.776471 0.886275 1 0.776471 0.886275 
1 0.776471 0.886275 1 0.776471 0.886275 
1 0.776471 0.886275 1 0.776471 0.886275 
1 0.776471 0.886275 1 0.776471 0.886275 
1 0.776471 0.886275 1 0.776471 0.886275 
1 0.776471 0.886275 1 0.776471 0.886275 
1 0.776471 0.886275 1 0.776471 0.886275 
1 0.776471 0.886275 1 0.776471 0.886275 
1 0.776471 0.886275 1 0.776471 0.886275 
1 0.776471 0.886275 1 0.776471 0.886275 
1 0.776471 0.886275 1 0.776471 0.886275 
1 0.776471 0.886275 1 0.776471 0.886275 
1 0.776471 0.886275 1 0.776471 0.886275 
1 0.776471 0.886275 1 0.776471 0.886275 
1 0.776471 0.886275 1 0.776471 0.886275 
1 0.776471 0.886275 1 0.776471 0.886275 
1 0.776471 0.886275 1 0.776471 0.886275 
1 0.776471 0.886275 1 0.776471 0.886275 
1 0.776471 0.886275 1 0.776471 0.886275 
1 0.776471 0.886275 1 0.776471 0.886275 
1 0.776471 0.886275 1 0.776471 0.886275 
1 0.776471 0.886275 1 0.776471 0.886275 
1 0.776471 0.886275 1 0.776471 0.886275 
1 0.776471 0.886275 1 0.776471 0.886275 
1 0.776471 0.886275 1 0.776471 0.886275 
1 0.776471 0.886275 1 0.776471 0.886275 
1 0.776471 0.886275 1 0.776471 0.886275 
1 0.776471 0.886275 1 0.776471 0.886275 
1 0.776471 0.886275 1 0.776471 0.886275 
1 0.776471 0.886275 1 0.776471 0.886275 
1 0.776471 0.886275 1 0.776471 0.886275 
1 0.776471 0.886275 1 0.776471 0.886275 
1 0.776471 0.886275 1 0.776471 0.886275 
1 0.776471 0.886275 1 0.776471 0.886275 
1 0.776471 0.886275 1 0.776471 0.886275 

NORMALS Normals float
-0.203728 -0.496751 -0.843643 0.0235754 -0.475807 -0.879234 -0.328878 -0.334877 -0.883004 
0.227272 -0.405267 -0.885498 0.118571 -0.178162 -0.976831 -0.250832 -0.190429 -0.949115 
-0.55725 -0.210351 -0.803259 -0.150147 -0.0918096 -0.984392 -0.400911 -0.201661 -0.893646 
-0.0891158 -0.0173482 -0.99587 -0.489843 0.0906567 -0.867085 0.117802 0.322509 -0.939207 
-0.100893 0.173398 -0.97967 -0.297294 0.33461 -0.894233 -0.395269 0.0511332 -0.917141 
-0.418897 0.231684 -0.87798 -0.00416622 0.12918 -0.991612 0.0533944 -0.0165215 -0.998437 
0.141343 -0.195052 -0.970555 -0.205091 0.392338 -0.896665 0.0899408 0.00764488 -0.995918 
-0.110363 0.45685 -0.882671 -0.0651588 0.231183 -0.970726 0.132283 0.0963594 -0.986517 
-0.117267 -0.0252931 -0.992778 0.0731112 -0.106424 -0.991629 -0.0583724 0.219713 -0.973817 