# vtk DataFile Version 4.2
vtk output
ASCII
DATASET POLYDATA
POINTS 585 float
357.479 145.611 137.725 356.936 146.314 138.055 357.965 146.001 137.672 
358.726 145.958 137.705 356.96 146.973 138.187 359.27 147.071 138.144 
357.175 147.843 138.38 357.734 147.682 138.078 358.487 148.033 138.282 
358.07 148.344 138.541 356.722 141.245 138.465 358.866 143.09 137.983 
359.719 143.186 138.118 360.017 142.449 138.228 356.531 144.082 138.208 
356.014 144.991 138.596 361.194 144.398 138.884 359.941 145.619 138.271 
356.189 146.756 138.888 359.932 146.401 138.395 356.444 147.374 139.078 
360.066 146.676 138.626 356.798 147.885 139.068 359.124 147.662 138.32 
357.459 148.34 138.734 358.395 148.24 138.439 359.144 147.807 138.568 
358.151 148.476 138.851 358.454 148.336 138.715 356.708 136.334 139.466 
356.053 136.772 139.702 357.499 136.715 139.133 357.797 137.46 138.936 
358.957 136.677 138.956 356.918 138.4 138.983 365.303 137.712 139.495 
355.897 139.248 139.28 358.357 139.197 138.563 366.006 138.764 140.076 
359.934 139.99 138.456 364.01 139.432 139.324 355.172 141.449 139.471 
364.319 140.967 139.968 355.086 144.034 139.686 355.267 144.88 139.625 
361.806 144.193 139.38 359.972 147.001 138.751 356.189 147.231 139.607 
360.01 147.092 138.966 357.696 148.51 139.243 358.018 148.526 139.103 
368.729 125.057 141.169 369.07 126.117 141.197 368.69 127.216 140.785 
369.355 126.311 141.52 368.991 128.455 140.925 366.574 130.492 139.881 
367.874 130.004 140.211 368.446 129.703 140.491 368.857 130.262 140.802 
369.191 130.795 141.223 369.033 132.867 141.275 365.593 134.755 139.499 
368.561 134.104 140.866 354.804 137.207 140.717 367.236 137.682 140.494 
354.906 138.512 140.263 354.542 139.559 140.746 366.073 139.381 140.451 
354.574 141.622 140.684 364.237 141.449 140.183 364.333 141.692 140.607 
363.079 143.101 140.081 355.005 144.629 140.246 361.732 144.9 139.928 
361.094 145.823 140.18 355.869 146.729 140.544 360.033 147.12 139.349 
359.833 147.314 139.899 356.608 147.754 140.057 359.382 147.775 139.379 
359.035 148.069 139.696 358.81 148.237 139.67 357.649 148.469 139.568 
358.048 148.469 139.495 368.382 122.573 141.831 368.037 122.828 141.669 
368.875 122.785 141.991 368.267 124.226 141.206 369.241 123.873 142.048 
369.536 129.397 141.771 369.486 130.329 141.734 357.815 132.308 140.472 
355.327 133.666 141.323 369.314 133.005 141.844 369.023 134.697 141.762 
354.53 136.781 141.414 368.838 135.422 141.8 367.887 136.994 141.012 
367.232 138.301 140.909 354.56 142.588 141.398 363.43 143.029 140.852 
354.824 144.103 141.232 362.169 144.557 140.533 355.31 145.331 141.021 
355.68 146.163 141.024 356.781 147.86 140.21 359.235 147.531 140.525 
368.557 121.356 142.578 367.157 121.942 142.111 369.599 130.758 142.284 
355.189 132.306 142.037 354.927 131.896 142.545 369.453 132.603 142.308 
369.204 134.302 142.253 368.215 136.925 141.891 354.287 138.861 142.241 
366.834 139.144 141.618 364.858 141.274 141.648 364.082 141.999 142.042 
363.363 143.185 141.268 363.387 143.092 141.535 354.949 144.219 141.622 
362.681 143.897 141.328 361.492 145.219 141.14 361.41 145.059 141.534 
356.09 146.754 141.293 356.154 146.986 141.081 356.293 146.941 141.285 
357.692 147.377 141.156 369.395 120.353 143.806 369.849 125.13 143.461 
359.16 125.757 143.1 356.546 127.985 143.19 357.362 128.09 142.587 
355.928 128.64 143.281 354.652 131.751 143.178 369.492 132.119 142.877 
354.238 134.855 143.125 368.748 135.825 142.724 367.838 137.724 142.372 
354.506 140.021 142.921 367.202 138.646 142.322 354.779 142.086 142.635 
365.451 140.532 142.429 355.204 142.98 142.846 362.49 143.75 141.956 
360.715 144.793 142.456 359.518 145.017 142.826 356.649 146.962 141.396 
368.344 118.281 144.348 368.178 117.794 144.644 368.795 118.129 144.633 
368.954 117.653 145.098 367.52 118.303 144.345 369.189 118.468 144.782 
369.587 119.439 144.638 365.769 119.681 144.026 369.714 120.009 144.283 
369.748 120.305 144.191 369.819 120.104 144.34 369.757 120.911 144.179 
369.835 120.235 144.428 361.003 123.275 144.069 358.659 125.355 143.855 
369.774 125.061 144.68 355.818 127.864 144.172 368.96 134.893 143.252 
354.35 136.976 143.961 366.564 138.78 143.332 355.048 141.666 143.242 
364.885 140.38 143.461 364.082 141.127 143.387 356.206 143.934 143.252 
360.538 143.932 143.232 356.488 144.244 143.224 358.178 144.583 143.323 
358.815 144.368 143.413 356.655 145.493 142.567 368.04 116.635 145.629 
368.602 116.483 145.829 368.725 116.746 145.625 367.15 117.134 145.6 
366.3 117.792 145.631 369.801 119.939 144.52 369.833 120 144.977 
362.441 121.287 145.342 361.855 121.586 145.69 358.739 124.42 145.213 
357.794 125.312 145.111 369.535 125.26 145.372 355.54 127.694 145.346 
355.354 128.164 144.834 354.742 129.567 144.761 354.252 134.031 144.755 
367.516 135.856 144.481 365.189 137.954 144.922 355.038 140.063 143.969 
365.463 139.254 143.952 356.869 140.895 144.762 358.449 142.145 144.495 
359.612 142.426 144.313 368.067 116.185 146.269 367.693 116.284 146.416 
368.358 116.087 146.367 369.017 116.526 146.304 366.31 117.231 146.963 
369.529 117.767 146.022 361.829 121.493 146.619 358.103 124.652 146.178 
355.067 128.561 145.87 354.382 131.364 145.332 354.381 133.145 145.503 
366.866 135.011 145.302 368.232 115.775 147.279 367.927 115.875 147.184 
368.55 115.974 146.668 368.46 115.834 147.03 368.738 115.946 146.999 
361.71 121.687 147.151 358.152 124.627 146.677 356.846 126.184 146.903 
354.931 129.01 146.052 354.68 133.205 146.294 355 135.455 146.031 
368.271 115.736 147.668 368.855 116.006 147.289 369.022 116.232 147.357 
366.815 116.784 147.91 369.479 117.364 147.021 369.567 117.941 147.106 
369.557 120.146 147.381 361.334 122.277 147.712 368.448 123.704 147.89 
356.122 127.624 147.305 355.734 127.9 146.956 354.947 129.684 146.593 
354.952 132.322 146.839 354.975 134.033 146.604 368.059 115.794 147.861 
368.25 115.772 147.946 368.478 115.827 147.835 367.326 116.39 148.115 
368.057 115.931 148.146 369.039 116.384 147.607 369.312 117.289 147.555 
366.319 117.382 148.167 369.131 119.783 148.105 362.323 121.637 148.055 
361.204 122.523 147.873 361.169 122.846 148.111 356.448 127.827 147.694 
355.689 128.798 147.392 355.867 131.073 147.962 356.116 130.652 148.135 
356.22 131.68 148.14 368.338 115.877 148.089 367.449 116.508 148.467 
367.741 116.381 148.539 367.996 116.193 148.439 368.286 116.081 148.299 
368.492 116.402 148.336 367.278 116.854 148.611 369.043 116.956 147.96 
367.375 117.14 148.754 366.929 117.315 148.611 366.618 117.959 148.747 
367.886 120.856 148.947 356.775 131.054 148.452 368.204 116.348 148.497 
367.887 117.76 148.869 368.287 117.399 148.68 367.225 118.7 149.077 
365.761 119.599 149.027 366.427 119.618 149.203 366.775 120.121 149.289 
367.32 119.858 149.195 365.79 121.133 149.402 366.171 121.638 149.451 
366.837 121.736 149.307 366.085 122.526 149.459 362.389 125.686 149.563 
368.283 117.215 306.333 368.262 116.825 306.422 368.431 116.781 306.471 
367.594 117.237 306.413 368.565 117.633 306.392 368.87 117.426 306.613 
368.366 118.39 306.264 368.684 118.769 306.473 365.473 119.916 305.893 
366.33 120.377 305.65 368.175 119.891 306.256 365 121.11 305.679 
364.69 120.783 305.883 365.543 121.162 305.554 366.531 120.84 305.633 
367.061 120.979 305.805 366.954 121.76 305.838 364.012 122.736 305.625 
364.548 122.697 305.519 365.478 123.137 305.58 368.275 116.118 306.92 
368.624 116.325 306.786 368.537 116.035 307.031 368.782 116.209 306.981 
367.633 116.52 306.897 368.586 116.587 306.617 369.17 117.902 306.95 
369.05 119.805 307.1 363.479 120.882 306.676 362.56 123.133 306.164 
367.467 123.824 306.7 362.778 125.518 305.917 357.651 128.346 306.687 
359.023 129.413 306.353 358.089 129.781 306.571 368.229 115.913 307.215 
367.965 115.902 307.466 368.488 115.815 307.261 368.661 115.819 307.375 
367.34 116.572 307.196 368.826 116.028 307.25 369.013 116.167 307.516 
369.065 116.695 307.056 365.877 118.083 306.964 366.028 117.57 307.586 
365.072 118.798 307.024 365.077 118.409 307.674 369.471 118.442 307.741 
362.811 120.787 307.695 369.351 119.581 307.542 360.258 124.113 307.149 
360.083 123.76 307.572 357.77 125.929 307.555 358.378 126.198 307.001 
356.904 126.823 307.58 356.235 127.588 307.889 355.304 131.332 308.021 
355.682 132.118 307.864 356.95 132.05 307.368 358.623 132.177 307.109 
355.802 132.765 308.046 368.235 115.719 307.969 367.935 115.854 307.802 
368.44 115.668 307.783 368.68 115.751 307.753 367.569 116.127 308.07 
367.125 116.558 307.703 366.074 117.379 308.16 365.144 118.215 308.238 
363.306 120.05 308.479 359.538 123.673 308.406 358.922 124.234 308.451 
357.39 125.644 308.53 356.675 126.348 308.275 356.114 127.007 308.514 
355.191 129.162 308.412 355.075 128.962 308.711 355.099 131.621 308.286 
360.779 133.591 307.751 368.251 115.862 308.363 368.747 115.816 308.087 
368.651 115.841 308.316 368.828 116.041 308.334 366.519 117.004 308.391 
369.475 117.781 308.816 365.262 118.152 308.791 369.629 118.486 308.997 
369.614 121.288 308.856 360.594 122.695 309.015 369.349 123.009 308.89 
358.328 124.64 309.254 356.483 126.31 309.116 355.905 127.194 308.963 
355.145 128.627 308.953 354.917 129.107 309.094 368.33 128.973 309.474 
354.63 130.402 309.217 367.213 131.047 309.138 354.541 132.627 309.707 
355.029 133.517 309.042 364.74 133.719 308.777 354.746 134.666 310.049 
368.508 115.823 308.367 367.246 116.513 308.734 367.624 116.321 308.801 
368.058 116.191 308.788 368.533 116.105 308.649 365.794 117.773 309.018 
369.628 118.844 309.708 369.809 119.623 310.032 361.42 122.032 309.905 
358.821 124.222 309.921 356.869 125.996 309.88 356.18 126.709 309.792 
368.679 130.165 310.284 367.17 134.758 310.294 354.895 136.124 310.328 
355.812 138.346 310.322 357.547 139.946 310.207 368.241 116.634 309.236 
366.866 117.36 309.554 369.259 118.389 310.103 367.516 118.223 310.752 
369.605 119.284 310.419 366.107 118.818 310.828 369.819 119.581 310.445 
369.86 119.773 310.466 369.85 119.689 310.575 369.81 120.237 310.522 
369.796 119.841 310.669 362.253 121.34 310.013 361.309 122.436 310.423 
[...]
POINT_DATA 585
COLOR_SCALARS scalars 3
1 0.478431 1 1 0.478431 1 1 0.478431 1 
1 0.478431 1 1 0.478431 1 
1 0.478431 1 1 0.478431 1 
1 0.478431 1 1 0.478431 1 
1 0.478431 1 1 0.478431 1 
1 0.478431 1 1 0.478431 1 
1 0.478431 1 1 0.478431 1 
1 0.478431 1 1 0.478431 1 
1 0.478431 1 1 0.478431 1 
1 0.478431 1 1 0.478431 1 
1 0.478431 1 1 0.478431 1 
1 0.478431 1 1 0.478431 1 
1 0.478431 1 1 0.478431 1 
1 0.478431 1 1 0.478431 1 
1 0.478431 1 1 0.478431 1 
1 0.478431 1 1 0.478431 1 
1 0.478431 1 1 0.478431 1 
1 0.478431 1 1 0.478431 1 
1 0.478431 1 1 0.478431 1 
1 0.478431 1 1 0.478431 1 
1 0.478431 1 1 0.478431 1 
1 0.478431 1 1 0.478431 1 
1 0.478431 1 1 0.478431 1 
1 0.478431 1 1 0.478431 1 
1 0.478431 1 1 0.478431 1 
1 0.478431 1 1 0.478431 1 
1 0.478431 1 1 0.478431 1 
1 0.478431 1 1 0.478431 1 
1 0.478431 1 1 0.478431 1 
1 0.478431 1 1 0.478431 1 
1 0.478431 1 1 0.478431 1 
1 0.478431 1 1 0.478431 1 
1 0.478431 1 1 0.478431 1 
1 0.478431 1 1 0.478431 1 
1 0.478431 1 1 0.478431 1 
1 0.478431 1 1 0.478431 1 
1 0.478431 1 1 0.478431 1 
1 0.478431 1 1 0.478431 1 
1 0.478431 1 1 0.478431 1 
1 0.478431 1 1 0.478431 1 
1 0.478431 1 1 0.478431 1 
1 0.478431 1 1 0.478431 1 
1 0.478431 1 1 0.478431 1 
1 0.478431 1 1 0.478431 1 
1 0.478431 1 1 0.478431 1 
1 0.478431 1 1 0.478431 1 
1 0.478431 1 1 0.478431 1 
1 0.478431 1 1 0.478431 1 
1 0.478431 1 1 0.478431 1 
1 0.478431 1 1 0.478431 1 
1 0.478431 1 1 0.478431 1 
1 0.478431 1 1 0.478431 1 
1 0.478431 1 1 0.478431 1 
1 0.478431 1 1 0.478431 1 
1 0.478431 1 1 0.478431 1 
1 0.478431 1 1 0.478431 1 
1 0.478431 1 1 0.478431 1 
1 0.478431 1 1 0.478431 1 
1 0.478431 1 1 0.478431 1 
1 0.478431 1 1 0.478431 1 
1 0.478431 1 1 0.478431 1 
1 0.478431 1 1 0.478431 1 
1 0.478431 1 1 0.478431 1 
1 0.478431 1 1 0.478431 1 
1 0.478431 1 1 0.478431 1 
1 0.478431 1 1 0.478431 1 
1 0.478431 1 1 0.478431 1 
1 0.478431 1 1 0.478431 1 
1 0.478431 1 1 0.478431 1 
1 0.478431 1 1 0.478431 1 
1 0.478431 1 1 0.478431 1 
1 0.478431 1 1 0.478431 1 
1 0.478431 1 1 0.478431 1 
1 0.478431 1 1 0.478431 1 
1 0.478431 1 1 0.478431 1 
1 0.478431 1 1 0.478431 1 
1 0.478431 1 1 0.478431 1 
1 0.478431 1 1 0.478431 1 
1 0.478431 1 1 0.478431 1 
1 0.478431 1 1 0.478431 1 
1 0.478431 1 1 0.478431 1 
1 0.478431 1 1 0.478431 1 
1 0.478431 1 1 0.478431 1 
1 0.478431 1 1 0.478431 1 
1 0.478431 1 1 0.478431 1 
1 0.478431 1 1 0.478431 1 
1 0.478431 1 1 0.478431 1 
1 0.478431 1 1 0.478431 1 
1 0.478431 1 1 0.478431 1 
1 0.478431 1 1 0.478431 1 
1 0.478431 1 1 0.478431 1 
1 0.478431 1 1 0.478431 1 
1 0.478431 1 1 0.478431 1 
1 0.478431 1 1 0.478431 1 
1 0.478431 1 1 0.478431 1 
1 0.478431 1 1 0.478431 1 
1 0.478431 1 1 0.478431 1 
1 0.478431 1 1 0.478431 1 
1 0.478431 1 1 0.478431 1 
1 0.478431 1 1 0.478431 1 
1 0.478431 1 1 0.478431 1 
1 0.478431 1 1 0.478431 1 
1 0.478431 1 1 0.478431 1 
1 0.478431 1 1 0.478431 1 
1 0.478431 1 1 0.478431 1 
1 0.478431 1 1 0.478431 1 
1 0.478431 1 1 0.478431 1 
1 0.478431 1 1 0.478431 1 
1 0.478431 1 1 0.478431 1 
1 0.478431 1 1 0.478431 1 
1 0.478431 1 1 0.478431 1 
1 0.478431 1 1 0.478431 1 
1 0.478431 1 1 0.478431 1 
1 0.478431 1 1 0.478431 1 
1 0.478431 1 1 0.478431 1 
1 0.478431 1 1 0.478431 1 
1 0.478431 1 1 0.478431 1 
1 0.478431 1 1 0.478431 1 
1 0.478431 1 1 0.478431 1 
1 0.478431 1 1 0.478431 1 
1 0.478431 1 1 0.478431 1 
1 0.478431 1 1 0.478431 1 
1 0.478431 1 1 0.478431 1 
1 0.478431 1 1 0.478431 1 
1 0.478431 1 1 0.478431 1 
1 0.478431 1 1 0.478431 1 
1 0.478431 1 1 0.478431 1 
1 0.478431 1 1 0.478431 1 
1 0.478431 1 1 0.478431 1 
1 0.478431 1 1 0.478431 1 
1 0.478431 1 1 0.478431 1 
1 0.478431 1 1 0.478431 1 
1 0.478431 1 1 0.478431 1 
1 0.478431 1 1 0.478431 1 
1 0.478431 1 1 0.478431 1 
1 0.478431 1 1 0.478431 1 
1 0.478431 1 1 0.478431 1 
1 0.478431 1 1 0.478431 1 
1 0.478431 1 1 0.478431 1 
1 0.478431 1 1 0.478431 1 
1 0.478431 1 1 0.478431 1 
1 0.478431 1 1 0.478431 1 
1 0.478431 1 1 0.478431 1 
1 0.478431 1 1 0.478431 1 
1 0.478431 1 1 0.478431 1 
1 0.478431 1 1 0.478431 1 
1 0.478431 1 1 0.478431 1 
1 0.478431 1 1 0.478431 1 
1 0.478431 1 1 0.478431 1 
1 0.478431 1 1 0.478431 1 
1 0.478431 1 1 0.478431 1 
1 0.478431 1 1 0.478431 1 
1 0.478431 1 1 0.478431 1 
1 0.478431 1 1 0.478431 1 
1 0.478431 1 1 0.478431 1 
1 0.478431 1 1 0.478431 1 
1 0.478431 1 1 0.478431 1 
1 0.478431 1 1 0.478431 1 
1 0.478431 1 1 0.478431 1 
1 0.478431 1 1 0.478431 1 
1 0.478431 1 1 0.478431 1 
1 0.478431 1 1 0.478431 1 
1 0.478431 1 1 0.478431 1 
1 0.478431 1 1 0.478431 1 
1 0.478431 1 1 0.478431 1 
1 0.478431 1 1 0.478431 1 
1 0.478431 1 1 0.478431 1 
1 0.478431 1 1 0.478431 1 
1 0.478431 1 1 0.478431 1 
1 0.478431 1 1 0.478431 1 
1 0.478431 1 1 0.478431 1 
1 0.478431 1 1 0.478431 1 
1 0.478431 1 1 0.478431 1 
1 0.478431 1 1 0.478431 1 
1 0.478431 1 1 0.478431 1 
1 0.478431 1 1 0.478431 1 
1 0.478431 1 1 0.478431 1 
1 0.478431 1 1 0.478431 1 
1 0.478431 1 1 0.478431 1 
1 0.478431 1 1 0.478431 1 
1 0.478431 1 1 0.478431 1 
1 0.478431 1 1 0.478431 1 
1 0.478431 1 1 0.478431 1 
1 0.478431 1 1 0.478431 1 
1 0.478431 1 1 0.478431 1 
1 0.478431 1 1 0.478431 1 
1 0.478431 1 1 0.478431 1 
1 0.478431 1 1 0.478431 1 
1 0.478431 1 1 0.478431 1 
1 0.478431 1 1 0.478431 1 
1 0.478431 1 1 0.478431 1 
1 0.478431 1 1 0.478431 1 
1 0.478431 1 1 0.478431 1 
1 0.478431 1 1 0.478431 1 
1 0.478431 1 1 0.478431 1 
1 0.478431 1 1 0.478431 1 
1 0.478431 1 1 0.478431 1 
1 0.478431 1 1 0.478431 1 
1 0.478431 1 1 0.478431 1 
1 0.478431 1 1 0.478431 1 
1 0.478431 1 1 0.478431 1 
1 0.478431 1 1 0.478431 1 
1 0.478431 1 1 0.478431 1 
1 0.478431 1 1 0.478431 1 
1 0.478431 1 1 0.478431 1 
1 0.478431 1 1 0.478431 1 
1 0.478431 1 1 0.478431 1 
1 0.478431 1 1 0.478431 1 
1 0.478431 1 1 0.478431 1 
1 0.478431 1 1 0.478431 1 
1 0.478431 1 1 0.478431 1 
1 0.478431 1 1 0.478431 1 
1 0.478431 1 1 0.478431 1 
1 0.478431 1 1 0.478431 1 
1 0.478431 1 1 0.478431 1 
1 0.478431 1 1 0.478431 1 
1 0.478431 1 1 0.478431 1 
1 0.478431 1 1 0.478431 1 
1 0.478431 1 1 0.478431 1 
1 0.478431 1 1 0.478431 1 
1 0.478431 1 1 0.478431 1 
1 0.478431 1 1 0.478431 1 
1 0.478431 1 1 0.478431 1 
1 0.478431 1 1 0.478431 1 
1 0.478431 1 1 0.478431 1 
1 0.478431 1 1 0.478431 1 
1 0.478431 1 1 0.478431 1 
1 0.478431 1 1 0.478431 1 
1 0.478431 1 1 0.478431 1 
1 0.478431 1 1 0.478431 1 
1 0.478431 1 1 0.478431 1 
1 0.478431 1 1 0.478431 1 
1 0.478431 1 1 0.478431 1 
1 0.478431 1 1 0.478431 1 
1 0.478431 1 1 0.478431 1 
1 0.478431 1 1 0.478431 1 
1 0.478431 1 1 0.478431 1 
1 0.478431 1 1 0.478431 1 
1 0.478431 1 1 0.478431 1 
1 0.478431 1 1 0.478431 1 
1 0.478431 1 1 0.478431 1 
1 0.478431 1 1 0.478431 1 
1 0.478431 1 1 0.478431 1 
1 0.478431 1 1 0.478431 1 
1 0.478431 1 1 0.478431 1 
1 0.478431 1 1 0.478431 1 
1 0.478431 1 1 0.478431 1 
1 0.478431 1 1 0.478431 1 
1 0.478431 1 1 0.478431 1 
1 0.478431 1 1 0.478431 1 
1 0.478431 1 1 0.478431 1 
1 0.478431 1 1 0.478431 1 
1 0.478431 1 1 0.478431 1 
1 0.478431 1 1 0.478431 1 
1 0.478431 1 1 0.478431 1 
1 0.478431 1 1 0.478431 1 
1 0.478431 1 1 0.478431 1 
1 0.478431 1 1 0.478431 1 
1 0.478431 1 1 0.478431 1 
1 0.478431 1 1 0.478431 1 
1 0.478431 1 1 0.478431 1 
1 0.478431 1 1 0.478431 1 
1 0.478431 1 1 0.478431 1 
1 0.478431 1 1 0.478431 1 
1 0.478431 1 1 0.478431 1 
1 0.478431 1 1 0.478431 1 
1 0.478431 1 1 0.478431 1 
1 0.478431 1 1 0.478431 1 
1 0.478431 1 1 0.478431 1 
1 0.478431 1 1 0.478431 1 
1 0.478431 1 1 0.478431 1 
1 0.478431 1 1 0.478431 1 
1 0.478431 1 1 0.478431 1 
1 0.478431 1 1 0.478431 1 
1 0.478431 1 1 0.478431 1 
1 0.478431 1 1 0.478431 1 
1 0.478431 1 1 0.478431 1 
1 0.478431 1 1 0.478431 1 
1 0.478431 1 1 0.478431 1 
1 0.478431 1 1 0.478431 1 
1 0.478431 1 1 0.478431 1 
1 0.478431 1 1 0.478431 1 
1 0.478431 1 1 0.478431 1 
1 0.478431 1 1 0.478431 1 
1 0.478431 1 1 0.478431 1 
1 0.478431 1 1 0.478431 1 
1 0.478431 1 1 0.478431 1 
1 0.478431 1 1 0.478431 1 
1 0.478431 1 1 0.478431 1 
1 0.478431 1 1 0.478431 1 
1 0.478431 1 1 0.478431 1 
1 0.478431 1 1 0.478431 1 

NORMALS Normals float
-0.252176 -0.0305873 -0.967198 -0.472524 0.164551 -0.86582 -0.124903 0.122532 -0.984574 
0.24232 0.0860955 -0.966369 -0.580054 0.293824 -0.75974 0.47683 0.299838 -0.826275 
-0.579332 0.508173 -0.637287 -0.121649 0.357253 -0.926052 0.0259351 0.524702 -0.850891 
-0.0167054 0.789686 -0.613283 -0.248862 -0.165356 -0.954319 0.0654243 -0.0805941 -0.994597 
0.187493 -0.029016 -0.981837 0.272538 -0.0359779 -0.961472 -0.488332 -0.0723272 -0.869656 
-0.687686 0.0766786 -0.721947 0.470894 0.109086 -0.875419 0.575702 0.105655 -0.810805 
-0.850796 0.295359 -0.434636 0.574497 0.239368 -0.782723 -0.77825 0.510676 -0.365427 
0.794196 0.360079 -0.489485 -0.668305 0.727771 -0.154009 0.455834 0.509441 -0.729853 
-0.347376 0.828269 -0.439659 0.324367 0.767757 -0.552572 0.617842 0.76904 -0.163858 
0.28551 0.956024 -0.0671061 0.419452 0.896179 -0.14465 -0.331808 -0.307841 -0.891705 
-0.529914 -0.214713 -0.820421 -0.26014 -0.252081 -0.932085 -0.171213 -0.0958918 -0.980556 
0.172778 -0.178472 -0.968656 -0.198829 -0.250028 -0.947604 0.302168 0.215039 -0.928684 
-0.459903 -0.158357 -0.873735 -0.0475097 -0.366711 -0.929121 0.422062 0.398766 -0.814156 
0.231666 -0.263772 -0.936352 0.341818 0.193118 -0.91971 -0.797572 0.00145252 -0.603222 
0.520458 0.40808 -0.750063 -0.899221 0.0596387 -0.43341 -0.896976 0.312897 -0.312297 
0.658233 0.268448 -0.703324 0.675129 0.444811 -0.58851 -0.879601 0.470829 0.0679864 
0.793355 0.555442 -0.249144 -0.188812 0.981965 0.00973264 0.0551939 0.995679 -0.0746779 
0.57894 -0.219879 -0.785164 0.712857 -0.0921672 -0.695227 0.379052 -0.126161 -0.916735 
0.902444 -0.102933 -0.418329 0.779116 -0.0266834 -0.626312 0.0271759 -0.279107 -0.959875 
0.421836 -0.0162949 -0.906526 0.513913 -0.199051 -0.834429 0.671351 0.040346 -0.74004 
0.848512 0.126461 -0.513844 0.82834 0.0704116 -0.555784 0.197111 -0.0327324 -0.979835 
0.773408 0.111358 -0.624051 -0.764602 -0.271074 -0.584725 0.589631 0.174405 -0.788618 
-0.726103 -0.133246 -0.674552 -0.965394 -0.028118 -0.259275 0.490576 0.436308 -0.754301 
-0.985573 0.077711 -0.150357 0.612625 0.463139 -0.640463 0.779013 0.586302 -0.222237 
0.702476 0.519856 -0.486083 -0.940641 0.326227 -0.0936493 0.808667 0.517656 -0.279445 
0.729092 0.677326 0.0982578 -0.90682 0.41954 0.0407908 0.819593 0.5675 -0.0788139 
0.679859 0.711025 0.179543 -0.799856 0.574056 0.175187 0.661577 0.749877 -0.000286146 
0.639397 0.748163 0.177266 0.419218 0.887961 0.189159 -0.187993 0.900677 0.391713 
0.190848 0.9591 0.209055 0.277261 -0.3657 -0.888476 0.118086 -0.365124 -0.923439 
0.552309 -0.292003 -0.780826 0.169507 -0.245897 -0.95436 0.789037 -0.191511 -0.583733 
0.903043 -0.0264573 -0.428734 0.870407 -0.00397281 -0.492318 -0.19103 -0.369932 -0.909207 
-0.612584 -0.308613 -0.727667 0.977677 0.0836248 -0.192754 0.9418 0.182988 -0.282008 
-0.866287 -0.192682 -0.460891 0.862863 0.244538 -0.442345 0.86381 0.367983 -0.344124 
0.749378 0.476808 -0.459442 -0.986566 0.16248 0.016949 0.7966 0.571497 -0.197027 
-0.9736 0.228171 0.00633853 0.809616 0.585009 0.0478177 -0.871417 0.446653 0.202817 
-0.913147 0.363346 0.184776 -0.594427 0.692154 0.409364 0.417257 0.685811 0.596289 
0.341135 -0.454914 -0.822606 -0.237587 -0.415077 -0.878216 0.988696 0.0747593 -0.129969 
-0.766918 -0.236924 -0.596409 -0.681376 -0.319185 -0.658671 0.981603 0.0563863 -0.182418 
0.968057 0.159368 -0.193565 0.895282 0.396662 -0.202803 -0.970533 0.104295 0.217231 
0.812755 0.575978 -0.0876259 0.730587 0.676249 0.0944965 0.708377 0.653568 0.266554 
0.759268 0.65014 0.0287939 0.804577 0.576555 0.142269 -0.864965 0.37614 0.332196 
0.811603 0.583984 0.0162201 0.687579 0.700331 0.19176 0.557406 0.709736 0.430782 
-0.65531 0.494721 0.570806 -0.480907 0.776178 0.40777 -0.364432 0.69705 0.617503 
0.015431 0.647687 0.76175 0.647589 -0.320674 -0.691228 0.990447 0.0890468 -0.105284 
-0.382213 -0.579034 -0.720162 -0.417692 -0.738087 -0.529869 -0.440149 -0.553978 -0.706666 
-0.728812 -0.395505 -0.558935 -0.923482 -0.168082 -0.344863 0.994561 0.103608 0.0107066 
-0.976387 -0.0918952 -0.195509 0.92598 0.37121 0.0690143 0.832714 0.506015 0.2248 
-0.964356 0.114538 0.238534 0.705606 0.678676 0.203762 -0.933118 0.169508 0.317108 
0.733762 0.642712 0.220261 -0.771245 0.389333 0.503588 0.608647 0.662822 0.436138 
0.390735 0.616098 0.683923 0.249134 0.651048 0.716985 -0.11061 0.587451 0.801665 
0.349886 -0.447424 -0.823038 0.07901 -0.614029 -0.785319 0.439101 -0.45918 -0.772233 
0.624775 -0.493843 -0.604793 -0.189861 -0.581666 -0.790959 0.657874 -0.357534 -0.662851 
0.754937 -0.425094 -0.499364 -0.553068 -0.562099 -0.614947 0.6791 -0.429888 -0.594995 
0.819547 -0.109175 -0.562515 0.891503 -0.230771 -0.389831 0.953253 -0.0785547 -0.291784 
0.990826 -0.00710094 -0.134955 -0.574468 -0.698805 -0.426214 -0.543837 -0.665655 -0.511023 
0.963249 0.206767 0.171459 -0.614202 -0.682977 -0.395346 0.916181 0.213659 0.339061 
-0.984099 0.0958456 0.149544 0.660512 0.531775 0.530037 -0.577695 0.253802 0.775792 
0.598079 0.64927 0.469841 0.45971 0.571589 0.679672 -0.458742 0.360685 0.812073 
0.287718 0.544 0.788215 -0.297819 0.385304 0.87341 -0.00930016 0.534622 0.84504 
0.116673 0.453281 0.883699 -0.451432 0.516657 0.727513 -0.161455 -0.727362 -0.666991 
0.301771 -0.787233 -0.537771 0.521106 -0.635298 -0.569951 -0.446171 -0.697344 -0.560931 
-0.624606 -0.623982 -0.469589 0.921371 -0.339198 -0.189792 0.996132 -0.087303 -0.00996331 
-0.582806 -0.716364 -0.383613 -0.674697 -0.710112 -0.201307 -0.515078 -0.764928 -0.386756 
-0.744129 -0.618198 -0.253186 0.932232 0.169567 0.319674 -0.780954 -0.620554 -0.070874 
-0.881442 -0.407273 -0.239142 -0.951321 -0.274379 -0.14037 -0.975709 0.0562071 0.211735 
0.665555 0.403389 0.627944 0.372695 0.404049 0.83537 -0.721473 0.230812 0.652842 
0.554148 0.597625 0.579451 -0.232145 0.293013 0.927498 0.0150231 0.38286 0.923684 
0.144206 0.37385 0.91621 -0.215887 -0.881883 -0.419137 -0.434271 -0.824137 -0.363602 
0.533467 -0.730937 -0.425611 0.756623 -0.565349 -0.328485 -0.685067 -0.711081 -0.158263 
0.913112 -0.31837 -0.254691 -0.64512 -0.764077 -0.00251525 -0.688057 -0.720998 -0.0820976 
-0.910851 -0.385841 0.146554 -0.989083 -0.100857 0.107436 -0.972003 0.00525638 0.23491 
0.531151 0.261925 0.805775 0.0773648 -0.989335 -0.123412 -0.442653 -0.878288 -0.180744 
0.00885856 -0.919242 -0.393594 0.183257 -0.96493 -0.187952 0.653496 -0.722674 -0.225133 
-0.677837 -0.722293 0.137219 -0.738777 -0.634282 0.227806 -0.693422 -0.556214 0.458031 
-0.943431 -0.295868 0.149665 -0.904368 0.0761297 0.419909 -0.738498 0.302889 0.602395 
0.0829416 -0.996435 0.0154571 0.650746 -0.738202 0.177728 0.881516 -0.47109 0.0316634 
-0.664325 -0.704663 0.249246 0.954515 -0.292944 0.0555336 0.965343 -0.0735491 0.250408 
0.931016 0.0331687 0.363468 -0.656218 -0.633249 0.410334 0.701891 0.211609 0.680126 
-0.735287 -0.484875 0.47355 -0.7968 -0.421398 0.433051 -0.926377 -0.147688 0.34643 
-0.846921 -0.0349267 0.53057 -0.811409 0.188009 0.553415 -0.40837 -0.894502 0.181935 
0.0447669 -0.935448 0.350619 0.555626 -0.800133 0.225982 -0.614637 -0.744684 0.260129 
-0.20442 -0.791748 0.575628 0.805501 -0.451692 0.383592 0.92456 -0.18419 0.333561 
-0.672828 -0.630351 0.387248 0.681421 0.0401835 0.730787 -0.510133 -0.535621 0.672959 
-0.672272 -0.60866 0.421407 -0.45228 -0.45618 0.766383 -0.565987 -0.301502 0.767304 
-0.728104 -0.248116 0.638987 -0.670521 -0.0378527 0.740925 -0.653387 -0.193355 0.731915 
-0.335025 0.300243 0.893091 0.371933 -0.705878 0.602829 -0.543827 -0.632305 0.551763 
-0.318163 -0.615653 0.720933 -0.00955828 -0.633042 0.774058 0.282541 -0.605054 0.744366 
0.670101 -0.393534 0.629362 -0.527893 -0.506323 0.681884 0.766766 -0.0911593 0.63542 
-0.0954667 -0.231747 0.96808 -0.402335 -0.281746 0.87106 -0.308306 -0.313698 0.898076 
0.419287 0.139361 0.897093 -0.305519 -0.00435494 0.952176 0.304258 -0.277348 0.911321 
0.0411233 -0.127222 0.991021 0.451435 -0.0738478 0.889243 0.211541 -0.0414967 0.976488 
-0.295388 -0.221734 0.92929 -0.0891422 -0.188404 0.978038 0.0263173 -0.0429992 0.998729 
0.17047 -0.109417 0.979269 -0.0453161 -0.150579 0.987559 0.118722 -0.0959933 0.988276 
0.329183 0.00136489 0.944265 0.254902 0.164194 0.952925 -0.0666686 -0.00815643 0.997742 
0.354076 -0.159128 -0.921579 -0.0366766 -0.47159 -0.881055 0.446564 -0.210837 -0.869557 
-0.443145 -0.493844 -0.748158 0.457284 -0.115962 -0.881728 0.630019 -0.145855 -0.76276 
0.562222 0.123358 -0.817734 0.606216 0.172818 -0.776296 -0.294762 -0.294377 -0.909097 
0.0885762 -0.12735 -0.987895 0.655487 0.0770537 -0.751265 -0.365632 -0.242061 -0.898732 
-0.466223 -0.258676 -0.846004 0.0301188 -0.0282957 -0.999146 0.0564679 0.00910368 -0.998363 
0.383266 0.0807861 -0.920098 0.375896 0.122852 -0.918482 -0.251502 0.0580051 -0.966117 
-0.128289 0.0338051 -0.99116 0.145488 0.205634 -0.967754 -0.156004 -0.689152 -0.707624 
0.363314 -0.515395 -0.776126 0.192043 -0.709997 -0.677513 0.642006 -0.516109 -0.566975 
-0.535382 -0.694721 -0.480342 0.422299 -0.378844 -0.823493 0.797332 0.00303687 -0.603533 
0.619818 0.290668 -0.728929 -0.616183 -0.526861 -0.585436 -0.454458 -0.253343 -0.853982 
0.723133 0.231939 -0.650601 -0.0684171 0.0555281 -0.99611 -0.426284 -0.103072 -0.898698 
-0.0897594 0.105993 -0.990307 -0.400847 0.0911927 -0.911595 -0.271465 -0.82037 -0.503289 
-0.487305 -0.821285 -0.296689 0.0866232 -0.90148 -0.424064 0.601724 -0.736606 -0.308772 
-0.584406 -0.681985 -0.439734 0.625398 -0.643775 -0.440943 0.893106 -0.444756 -0.0674772 
0.756126 -0.226288 -0.614058 -0.690642 -0.590933 -0.416907 -0.681382 -0.665192 -0.30535 
-0.740053 -0.511648 -0.436506 -0.881297 -0.447515 -0.151809 0.981482 -0.0428237 -0.186704 
-0.654444 -0.654679 -0.378285 0.877877 0.135965 -0.45918 -0.530977 -0.317409 -0.785694 
-0.603494 -0.531065 -0.594781 -0.566566 -0.636081 -0.523836 -0.374892 -0.378127 -0.846449 
-0.599258 -0.448727 -0.662973 -0.733604 -0.218216 -0.643589 -0.66711 -0.0217694 -0.744642 
-0.618245 0.215994 -0.755725 -0.264381 0.247406 -0.932144 -0.129868 0.353268 -0.926464 
-0.429013 0.398523 -0.810634 -0.36139 -0.898854 0.247907 -0.558688 -0.82241 -0.107278 
-0.0926397 -0.990677 -0.0998836 0.40803 -0.912189 -0.0377103 -0.602375 -0.798138 -0.0109432 
-0.587399 -0.798407 -0.132324 -0.697422 -0.703738 -0.135482 -0.777936 -0.627819 -0.0256513 
-0.6728 -0.725903 -0.142845 -0.675512 -0.657163 -0.334395 -0.62237 -0.688763 -0.371836 
-0.611818 -0.717885 -0.332144 -0.646151 -0.690133 -0.325891 -0.823497 -0.475129 -0.310008 
-0.804808 -0.229796 -0.547246 -0.845876 -0.326314 -0.421915 -0.811224 0.134089 -0.569153 
0.171887 0.367997 -0.913801 -0.219968 -0.82695 0.517462 0.651428 -0.750219 0.113196 
0.459213 -0.747501 0.479964 0.724646 -0.51307 0.460052 -0.618775 -0.7789 0.102135 
0.946422 -0.303332 0.110794 -0.647235 -0.657692 0.385393 0.981008 -0.179209 0.0742159 
0.965161 0.0869383 -0.246792 -0.685727 -0.721576 -0.095425 0.930625 0.179597 -0.318876 
-0.678057 -0.733208 -0.0514228 -0.719846 -0.688633 -0.087218 -0.871884 -0.439171 -0.216675 
-0.856701 -0.459122 -0.235097 -0.944319 -0.204539 -0.25773 0.695755 0.125338 -0.707259 
-0.971983 -0.118431 -0.203033 0.466149 0.152733 -0.871423 -0.95093 0.0877081 -0.296713 
-0.792313 0.26803 -0.548087 0.279067 0.289184 -0.915693 -0.81618 0.238327 -0.526356 
0.110143 -0.920264 0.375476 -0.568128 -0.780817 0.259914 -0.268319 -0.755991 0.597061 
-0.193821 -0.789795 0.581942 0.261455 -0.669706 0.695079 -0.630792 -0.703642 0.327092 
0.980592 -0.190605 0.0459199 0.981785 -0.174251 -0.075734 -0.628882 -0.701982 0.334257 
-0.653955 -0.735661 0.176481 -0.652911 -0.750178 0.104591 -0.817304 -0.564788 0.114142 
0.815802 0.206783 -0.5401 0.51997 0.358178 -0.775461 -0.88384 0.163989 -0.438102 
-0.578728 0.299202 -0.758651 -0.253108 0.327063 -0.910476 0.244201 -0.648448 0.721028 
-0.48559 -0.665533 0.566805 0.769334 -0.461429 0.441824 -0.138205 -0.673732 0.725937 
0.747192 -0.512538 0.423095 -0.341995 -0.6214 0.704913 0.869756 -0.473768 0.138085 
0.99876 -0.00352332 0.0496662 0.892607 -0.255611 0.371371 0.982031 0.0651805 0.177104 
0.854166 0.000921763 0.52 -0.595387 -0.701963 0.390848 -0.605353 -0.700227 0.378456 