# vtk DataFile Version 4.2
vtk output
ASCII
DATASET POLYDATA
POINTS 571 float
344.057 144.731 215.532 344.375 144.7 215.468 344.701 144.559 215.571 
344.685 144.859 215.382 347.004 145.564 214.922 348.106 145.524 215.119 
348.355 145.082 215.366 348.889 145.472 215.468 348.737 145.234 215.447 
348.956 145.242 215.646 348.538 146.49 215.221 348.767 146.726 215.411 
349.051 146.667 215.677 342.497 145.099 216.114 346.478 144.787 215.381 
346.943 144.233 215.816 348.406 144.709 215.616 348.233 144.4 215.853 
341.281 145.965 216.155 344.837 145.405 215.233 340.573 146.348 216.298 
340.226 146.194 216.66 345.058 146.911 215.095 345.275 148.248 215.332 
347.599 148.308 215.49 347.925 148.603 215.721 348.9 148.397 216.26 
323.953 161.667 217.17 323.974 161.54 217.23 324.091 161.59 217.173 
323.991 161.786 217.186 346.596 143.497 216.714 343.447 144.18 216.643 
340.514 145.719 216.927 349.479 145.119 216.788 338.77 147.2 217.244 
340.751 147.674 215.925 338.612 148.16 216.711 338.069 148.482 216.942 
339.64 148.314 216.271 345.949 149.7 215.916 348.42 149.618 216.666 
327.635 155.455 217.409 327.693 155.298 217.528 327.828 155.37 217.416 
326.381 157.056 217.204 326.163 157.036 217.399 325.857 157.307 217.552 
325.716 157.675 217.386 326.321 157.415 217.094 326.701 157.088 217.117 
325.78 157.862 217.221 325.701 158.283 217.189 325.387 158.614 217.381 
324.295 160.557 217.537 324.197 161.179 217.305 323.901 161.519 217.442 
323.811 162.054 217.588 347.802 143.662 216.728 339.742 145.884 217.873 
350.153 145.929 217.657 338.715 146.756 217.868 350.372 147.172 217.949 
334.735 149.524 218.45 334.174 150.106 218.203 333.689 151.691 217.43 
337.949 150.999 216.837 335.642 151.816 217.077 345.742 151.561 216.991 
347.079 151.163 217.122 349.084 150.21 217.943 328.925 154.256 217.816 
328.712 153.928 218.313 331.313 153.441 217.379 333.651 152.808 217.171 
348.82 150.82 218.204 328.109 154.954 217.675 327.83 154.74 218.229 
329.454 154.593 217.427 334.431 153.727 217.139 327.127 155.739 217.802 
328.157 155.61 217.311 329.065 155.365 217.247 326.155 156.783 217.789 
327.252 156.353 217.311 329.546 156.86 217.124 325.037 159.39 217.487 
324.715 159.23 218.093 323.759 161.562 217.816 323.616 164.559 218.424 
323.784 166.338 218.606 324.091 166.622 218.531 323.847 166.62 218.664 
324.343 168.002 218.801 324.297 167.829 218.826 324.336 167.986 218.896 
324.441 167.917 218.79 324.408 168.073 218.835 346.605 143.034 217.964 
348.66 143.572 217.776 350.581 146.605 218.655 350.329 147.577 218.099 
335.323 148.898 218.796 332.731 150.775 218.42 332.781 150.447 218.872 
329.422 153.026 218.841 328.24 154.163 218.611 324.947 158.551 218.531 
323.701 161.185 218.685 323.715 166.619 219.092 323.935 166.943 218.839 
324.31 167.436 218.745 324.196 167.569 219.07 324.851 167.777 218.813 
324.592 168.1 218.923 324.457 168.12 218.931 347.947 143.005 218.578 
348.396 143.057 219.006 348.87 143.484 218.389 349.519 144.116 218.927 
350.408 145.692 218.573 350.543 147.337 219.138 333.855 149.569 219.297 
348.94 151.457 219.557 340.003 155.374 218.198 342.238 154.979 218.521 
346.462 153.833 219.55 324.445 159.426 219.52 323.779 166.767 219.377 
324.048 167.139 219.59 324.945 168.255 219.312 325.74 168.805 219.547 
326.221 168.866 219.354 326.572 169.331 219.544 326.6 169.559 219.853 
326.739 169.666 219.754 326.628 169.568 219.685 326.811 169.54 219.675 
326.747 169.669 219.698 347.327 142.799 219.247 348.03 142.85 219.843 
348.387 142.995 219.614 339.516 145.919 220.245 335.303 148.554 220.279 
350.385 147.794 219.852 332.659 150.169 220.222 342.391 156.07 219.306 
342.04 156.644 219.574 342.821 156.443 219.928 343.547 156.212 220.335 
339.936 159.257 220.397 334.108 162.165 219.441 335.192 162.217 219.922 
336.996 161.464 220.374 335.768 162.623 220.709 337.239 161.76 220.956 
335.288 163.119 220.926 329.001 165.908 219.225 331.154 165.458 219.992 
332.543 164.872 220.426 328.985 167.949 220.37 327.712 168.874 219.884 
328.429 168.647 220.298 325.96 169.022 220.331 326.747 169.48 220.12 
327.846 169.02 220.268 326.908 169.557 219.874 326.803 169.665 219.736 
327.239 169.406 219.997 347.95 142.882 220.293 349.663 144.323 220.362 
350.388 145.795 220.171 350.488 146.77 220.201 333.383 149.784 221.182 
330.95 151.58 220.935 348.774 151.781 220.999 347.588 153.164 220.974 
346.609 154.104 221.166 345.654 154.886 220.943 345.715 154.827 221.482 
343.231 156.743 220.932 339.105 160.479 221.381 323.678 162.304 220.382 
338.25 161.21 221.525 338.729 160.832 221.626 336.813 162.217 221.303 
331.304 165.826 220.366 331.273 166.305 220.873 331.888 166.013 221.187 
330.972 166.734 221.239 330.522 167.092 221.387 325.991 168.928 220.682 
326.211 168.925 220.897 328.603 168.489 220.396 329.259 167.94 221.106 
327.136 169.402 220.207 327.456 169.292 220.191 347.085 142.96 220.674 
347.461 142.988 220.888 348.822 143.404 220.624 348.608 143.384 220.997 
343.561 144.253 221.438 349.671 144.848 221.195 336.09 148.207 221.283 
349.568 149.056 221.399 348.925 151.219 221.546 347.505 153.185 221.474 
347.181 153.381 221.787 346.215 154.336 221.708 342.968 156.958 221.902 
344.386 155.553 222.303 326.06 157.787 221.887 342.016 157.688 222.202 
339.653 160.026 221.819 338.341 161.123 222.002 337.137 162.075 221.655 
333.501 164.975 221.861 331.592 166.363 221.75 325.766 168.468 221.16 
330.009 167.397 221.644 327.045 168.907 221.08 327.321 168.626 221.406 
328.605 168.429 221.037 347.7 143.149 221.163 345.834 143.777 221.937 
347.811 143.519 221.623 349.409 145.099 221.814 349.658 146.462 221.795 
349.373 148.318 222.038 348.734 150.599 222.316 331.418 151.955 222.735 
346.72 153.185 222.687 342.908 156.553 222.744 341.739 157.613 222.769 
341.079 157.985 223.04 338.038 161.031 222.839 337.175 161.843 222.564 
332.604 165.555 222.174 331.632 166.005 222.685 326.273 167.334 222.302 
330.601 166.6 222.694 328.758 167.773 222.055 347.112 143.917 222.253 
348.899 144.561 222.101 346.034 144.899 222.951 337.629 148.054 222.64 
348.461 148.659 223.095 346.618 152.051 223.515 343.362 155.473 223.465 
341.075 157.582 223.426 326.473 159.542 223.439 337.15 161.063 223.572 
325.757 162.476 223.34 332.178 164.797 223.613 326.857 165.639 223.5 
328.803 166.853 223.063 346.867 145.057 223.039 347.593 145.594 223.18 
341.904 147.24 223.744 340.714 148.397 224.147 343.352 148.193 224.501 
345.065 148.65 224.579 337.843 149.139 223.699 344.678 151.181 224.644 
332.974 152.8 224.205 334.946 152.304 224.614 343.719 153.661 224.306 
331.079 155.002 224.596 338.184 157.187 224.896 340.763 157.197 223.849 
337.745 159.808 224.029 335.147 160.836 224.858 335.92 161.538 224.039 
326.683 163.168 224.011 328.383 164.714 224.385 331.17 163.922 224.689 
340.422 150.708 225.012 342.307 151.449 225.056 336.366 153.544 225.229 
332.547 154.895 225.022 339.569 153.527 225.213 335.732 155.937 225.468 
331.107 157.344 225.483 337.192 156.248 225.292 329.811 157.623 225.06 
328.454 160.175 225.005 333.626 160.605 225.435 327.768 163.686 224.539 
332.715 158.232 225.844 329.461 161.697 225.467 333.289 154.234 230.378 
337.096 154.09 230.197 335.176 157.494 229.959 328.926 158.8 230.535 
330.188 160.802 230.034 327.998 162.175 230.629 331.463 161.981 230.268 
328.453 163.23 230.619 330.476 163.149 230.505 348.366 145.568 232.15 
348.571 145.288 232.367 340.925 147.383 231.968 343.78 147.806 231.204 
345.132 148.287 231.119 345.733 148.994 231.178 333.852 151.964 231.226 
341.963 151.056 230.832 346.011 150.468 231.414 345.062 152.532 231.633 
329.391 156.232 231.116 340.08 155.615 231.09 337.445 159.052 231.017 
326.853 161.856 231.241 326.239 162.207 231.664 333.72 161.878 230.809 
332.689 163.873 231.456 333.537 164.004 231.944 326.618 164.249 231.588 
328.137 164.282 231.083 348.429 144.2 232.895 348.18 143.712 233.258 
347.948 144.029 232.868 348.608 143.874 233.223 346.824 144.152 232.734 
343.939 145.09 232.715 349.146 146.046 232.73 349.289 148.259 232.928 
348.233 150.432 232.551 347.432 151.541 232.396 329.474 154.687 231.974 
343.881 154.704 232.229 327.988 155.955 232.411 339.624 158.782 232.096 
339.521 159.122 232.291 325.791 160.722 232.192 334.002 163.938 232.175 
332.849 164.77 232.107 331.468 165.555 232.032 332.702 165.074 232.327 
326.842 166.872 232.603 330.02 166.566 232.268 328.011 167.539 232.803 
345.64 143.715 233.623 348.861 143.906 233.398 343.829 144.513 233.395 
341.228 145.758 233.227 349.979 147.499 233.852 333.443 150.417 233.037 
348.637 151.073 233.446 330.138 153.331 232.662 347.346 152.395 232.84 
329.064 153.834 233.28 327.82 155.236 233.339 345.01 154.487 232.738 
345.558 154.544 233.361 339.313 159.574 232.536 339.322 159.845 232.989 
324.66 161.847 233.278 330.275 166.848 232.605 330.892 166.664 232.831 
330.74 167.074 233.27 326.579 168.297 233.698 327.857 168.427 233.726 
347.624 143.072 234.254 348.515 143.303 233.981 348.741 143.305 234.251 
346.324 143.155 234.498 343.536 144.349 233.82 350.162 146.25 234.384 
348.891 151.122 234.224 327.242 155.461 234.152 344.91 155.165 233.649 
343.188 156.273 233.277 340.338 159.05 233.552 323.981 164.133 234.481 
335.829 163.158 233.355 334.645 164.007 233.815 333.117 165.201 233.094 
324.663 166.641 234.336 331.26 166.844 233.773 325.86 168.335 234.197 
329.169 168.032 233.575 328.904 168.311 233.95 327.091 169.025 234.662 
347.464 142.936 234.639 348.785 143.28 234.661 349.134 143.626 234.882 
343.684 143.82 235.24 350.38 145.757 235.461 339.116 146.165 234.967 
350.441 147.197 234.968 348.086 152.47 235.063 345.987 154.466 234.623 
344.87 155.242 234.503 342.108 157.408 234.072 340.139 159.271 233.769 
339.105 160.302 233.824 339.871 159.439 234.073 323.759 162.602 234.858 
323.53 163.581 235.593 323.562 164.394 235.752 333.545 164.832 233.955 
333.895 164.412 234.359 332.101 166.116 233.971 324.627 167.47 234.939 
329.932 167.795 234.035 325.874 168.795 234.8 328.137 168.742 234.319 
328.554 168.559 234.326 326.01 168.987 235.066 326.48 169.141 235.053 
[...]
POINT_DATA 571
COLOR_SCALARS scalars 3
1 0.564706 1 1 0.564706 1 1 0.564706 1 
1 0.564706 1 1 0.564706 1 
1 0.564706 1 1 0.564706 1 
1 0.564706 1 1 0.564706 1 
1 0.564706 1 1 0.564706 1 
1 0.564706 1 1 0.564706 1 
1 0.564706 1 1 0.564706 1 
1 0.564706 1 1 0.564706 1 
1 0.564706 1 1 0.564706 1 
1 0.564706 1 1 0.564706 1 
1 0.564706 1 1 0.564706 1 
1 0.564706 1 1 0.564706 1 
1 0.564706 1 1 0.564706 1 
1 0.564706 1 1 0.564706 1 
1 0.564706 1 1 0.564706 1 
1 0.564706 1 1 0.564706 1 
1 0.564706 1 1 0.564706 1 
1 0.564706 1 1 0.564706 1 
1 0.564706 1 1 0.564706 1 
1 0.564706 1 1 0.564706 1 
1 0.564706 1 1 0.564706 1 
1 0.564706 1 1 0.564706 1 
1 0.564706 1 1 0.564706 1 
1 0.564706 1 1 0.564706 1 
1 0.564706 1 1 0.564706 1 
1 0.564706 1 1 0.564706 1 
1 0.564706 1 1 0.564706 1 
1 0.564706 1 1 0.564706 1 
1 0.564706 1 1 0.564706 1 
1 0.564706 1 1 0.564706 1 
1 0.564706 1 1 0.564706 1 
1 0.564706 1 1 0.564706 1 
1 0.564706 1 1 0.564706 1 
1 0.564706 1 1 0.564706 1 
1 0.564706 1 1 0.564706 1 
1 0.564706 1 1 0.564706 1 
1 0.564706 1 1 0.564706 1 
1 0.564706 1 1 0.564706 1 
1 0.564706 1 1 0.564706 1 
1 0.564706 1 1 0.564706 1 
1 0.564706 1 1 0.564706 1 
1 0.564706 1 1 0.564706 1 
1 0.564706 1 1 0.564706 1 
1 0.564706 1 1 0.564706 1 
1 0.564706 1 1 0.564706 1 
1 0.564706 1 1 0.564706 1 
1 0.564706 1 1 0.564706 1 
1 0.564706 1 1 0.564706 1 
1 0.564706 1 1 0.564706 1 
1 0.564706 1 1 0.564706 1 
1 0.564706 1 1 0.564706 1 
1 0.564706 1 1 0.564706 1 
1 0.564706 1 1 0.564706 1 
1 0.564706 1 1 0.564706 1 
1 0.564706 1 1 0.564706 1 
1 0.564706 1 1 0.564706 1 
1 0.564706 1 1 0.564706 1 
1 0.564706 1 1 0.564706 1 
1 0.564706 1 1 0.564706 1 
1 0.564706 1 1 0.564706 1 
1 0.564706 1 1 0.564706 1 
1 0.564706 1 1 0.564706 1 
1 0.564706 1 1 0.564706 1 
1 0.564706 1 1 0.564706 1 
1 0.564706 1 1 0.564706 1 
1 0.564706 1 1 0.564706 1 
1 0.564706 1 1 0.564706 1 
1 0.564706 1 1 0.564706 1 
1 0.564706 1 1 0.564706 1 
1 0.564706 1 1 0.564706 1 
1 0.564706 1 1 0.564706 1 
1 0.564706 1 1 0.564706 1 
1 0.564706 1 1 0.564706 1 
1 0.564706 1 1 0.564706 1 
1 0.564706 1 1 0.564706 1 
1 0.564706 1 1 0.564706 1 
1 0.564706 1 1 0.564706 1 
1 0.564706 1 1 0.564706 1 
1 0.564706 1 1 0.564706 1 
1 0.564706 1 1 0.564706 1 
1 0.564706 1 1 0.564706 1 
1 0.564706 1 1 0.564706 1 
1 0.564706 1 1 0.564706 1 
1 0.564706 1 1 0.564706 1 
1 0.564706 1 1 0.564706 1 
1 0.564706 1 1 0.564706 1 
1 0.564706 1 1 0.564706 1 
1 0.564706 1 1 0.564706 1 
1 0.564706 1 1 0.564706 1 
1 0.564706 1 1 0.564706 1 
1 0.564706 1 1 0.564706 1 
1 0.564706 1 1 0.564706 1 
1 0.564706 1 1 0.564706 1 
1 0.564706 1 1 0.564706 1 
1 0.564706 1 1 0.564706 1 
1 0.564706 1 1 0.564706 1 
1 0.564706 1 1 0.564706 1 
1 0.564706 1 1 0.564706 1 
1 0.564706 1 1 0.564706 1 
1 0.564706 1 1 0.564706 1 
1 0.564706 1 1 0.564706 1 
1 0.564706 1 1 0.564706 1 
1 0.564706 1 1 0.564706 1 
1 0.564706 1 1 0.564706 1 
1 0.564706 1 1 0.564706 1 
1 0.564706 1 1 0.564706 1 
1 0.564706 1 1 0.564706 1 
1 0.564706 1 1 0.564706 1 
1 0.564706 1 1 0.564706 1 
1 0.564706 1 1 0.564706 1 
1 0.564706 1 1 0.564706 1 
1 0.564706 1 1 0.564706 1 
1 0.564706 1 1 0.564706 1 
1 0.564706 1 1 0.564706 1 
1 0.564706 1 1 0.564706 1 
1 0.564706 1 1 0.564706 1 
1 0.564706 1 1 0.564706 1 
1 0.564706 1 1 0.564706 1 
1 0.564706 1 1 0.564706 1 
1 0.564706 1 1 0.564706 1 
1 0.564706 1 1 0.564706 1 
1 0.564706 1 1 0.564706 1 
1 0.564706 1 1 0.564706 1 
1 0.564706 1 1 0.564706 1 
1 0.564706 1 1 0.564706 1 
1 0.564706 1 1 0.564706 1 
1 0.564706 1 1 0.564706 1 
1 0.564706 1 1 0.564706 1 
1 0.564706 1 1 0.564706 1 
1 0.564706 1 1 0.564706 1 
1 0.564706 1 1 0.564706 1 
1 0.564706 1 1 0.564706 1 
1 0.564706 1 1 0.564706 1 
1 0.564706 1 1 0.564706 1 
1 0.564706 1 1 0.564706 1 
1 0.564706 1 1 0.564706 1 
1 0.564706 1 1 0.564706 1 
1 0.564706 1 1 0.564706 1 
1 0.564706 1 1 0.564706 1 
1 0.564706 1 1 0.564706 1 
1 0.564706 1 1 0.564706 1 
1 0.564706 1 1 0.564706 1 
1 0.564706 1 1 0.564706 1 
1 0.564706 1 1 0.564706 1 
1 0.564706 1 1 0.564706 1 
1 0.564706 1 1 0.564706 1 
1 0.564706 1 1 0.564706 1 
1 0.564706 1 1 0.564706 1 
1 0.564706 1 1 0.564706 1 
1 0.564706 1 1 0.564706 1 
1 0.564706 1 1 0.564706 1 
1 0.564706 1 1 0.564706 1 
1 0.564706 1 1 0.564706 1 
1 0.564706 1 1 0.564706 1 
1 0.564706 1 1 0.564706 1 
1 0.564706 1 1 0.564706 1 
1 0.564706 1 1 0.564706 1 
1 0.564706 1 1 0.564706 1 
1 0.564706 1 1 0.564706 1 
1 0.564706 1 1 0.564706 1 
1 0.564706 1 1 0.564706 1 
1 0.564706 1 1 0.564706 1 
1 0.564706 1 1 0.564706 1 
1 0.564706 1 1 0.564706 1 
1 0.564706 1 1 0.564706 1 
1 0.564706 1 1 0.564706 1 
1 0.564706 1 1 0.564706 1 
1 0.564706 1 1 0.564706 1 
1 0.564706 1 1 0.564706 1 
1 0.564706 1 1 0.564706 1 
1 0.564706 1 1 0.564706 1 
1 0.564706 1 1 0.564706 1 
1 0.564706 1 1 0.564706 1 
1 0.564706 1 1 0.564706 1 
1 0.564706 1 1 0.564706 1 
1 0.564706 1 1 0.564706 1 
1 0.564706 1 1 0.564706 1 
1 0.564706 1 1 0.564706 1 
1 0.564706 1 1 0.564706 1 
1 0.564706 1 1 0.564706 1 
1 0.564706 1 1 0.564706 1 
1 0.564706 1 1 0.564706 1 
1 0.564706 1 1 0.564706 1 
1 0.564706 1 1 0.564706 1 
1 0.564706 1 1 0.564706 1 
1 0.564706 1 1 0.564706 1 
1 0.564706 1 1 0.564706 1 
1 0.564706 1 1 0.564706 1 
1 0.564706 1 1 0.564706 1 
1 0.564706 1 1 0.564706 1 
1 0.564706 1 1 0.564706 1 
1 0.564706 1 1 0.564706 1 
1 0.564706 1 1 0.564706 1 
1 0.564706 1 1 0.564706 1 
1 0.564706 1 1 0.564706 1 
1 0.564706 1 1 0.564706 1 
1 0.564706 1 1 0.564706 1 
1 0.564706 1 1 0.564706 1 
1 0.564706 1 1 0.564706 1 
1 0.564706 1 1 0.564706 1 
1 0.564706 1 1 0.564706 1 
1 0.564706 1 1 0.564706 1 
1 0.564706 1 1 0.564706 1 
1 0.564706 1 1 0.564706 1 
1 0.564706 1 1 0.564706 1 
1 0.564706 1 1 0.564706 1 
1 0.564706 1 1 0.564706 1 
1 0.564706 1 1 0.564706 1 
1 0.564706 1 1 0.564706 1 
1 0.564706 1 1 0.564706 1 
1 0.564706 1 1 0.564706 1 
1 0.564706 1 1 0.564706 1 
1 0.564706 1 1 0.564706 1 
1 0.564706 1 1 0.564706 1 
1 0.564706 1 1 0.564706 1 
1 0.564706 1 1 0.564706 1 
1 0.564706 1 1 0.564706 1 
1 0.564706 1 1 0.564706 1 
1 0.564706 1 1 0.564706 1 
1 0.564706 1 1 0.564706 1 
1 0.564706 1 1 0.564706 1 
1 0.564706 1 1 0.564706 1 
1 0.564706 1 1 0.564706 1 
1 0.564706 1 1 0.564706 1 
1 0.564706 1 1 0.564706 1 
1 0.564706 1 1 0.564706 1 
1 0.564706 1 1 0.564706 1 
1 0.564706 1 1 0.564706 1 
1 0.564706 1 1 0.564706 1 
1 0.564706 1 1 0.564706 1 
1 0.564706 1 1 0.564706 1 
1 0.564706 1 1 0.564706 1 
1 0.564706 1 1 0.564706 1 
1 0.564706 1 1 0.564706 1 
1 0.564706 1 1 0.564706 1 
1 0.564706 1 1 0.564706 1 
1 0.564706 1 1 0.564706 1 
1 0.564706 1 1 0.564706 1 
1 0.564706 1 1 0.564706 1 
1 0.564706 1 1 0.564706 1 
1 0.564706 1 1 0.564706 1 
1 0.564706 1 1 0.564706 1 
1 0.564706 1 1 0.564706 1 
1 0.564706 1 1 0.564706 1 
1 0.564706 1 1 0.564706 1 
1 0.564706 1 1 0.564706 1 
1 0.564706 1 1 0.564706 1 
1 0.564706 1 1 0.564706 1 
1 0.564706 1 1 0.564706 1 
1 0.564706 1 1 0.564706 1 
1 0.564706 1 1 0.564706 1 
1 0.564706 1 1 0.564706 1 
1 0.564706 1 1 0.564706 1 
1 0.564706 1 1 0.564706 1 
1 0.564706 1 1 0.564706 1 
1 0.564706 1 1 0.564706 1 
1 0.564706 1 1 0.564706 1 
1 0.564706 1 1 0.564706 1 
1 0.564706 1 1 0.564706 1 
1 0.564706 1 1 0.564706 1 
1 0.564706 1 1 0.564706 1 
1 0.564706 1 1 0.564706 1 
1 0.564706 1 1 0.564706 1 
1 0.564706 1 1 0.564706 1 
1 0.564706 1 1 0.564706 1 
1 0.564706 1 1 0.564706 1 
1 0.564706 1 1 0.564706 1 
1 0.564706 1 1 0.564706 1 
1 0.564706 1 1 0.564706 1 
1 0.564706 1 1 0.564706 1 
1 0.564706 1 1 0.564706 1 
1 0.564706 1 1 0.564706 1 
1 0.564706 1 1 0.564706 1 
1 0.564706 1 1 0.564706 1 
1 0.564706 1 1 0.564706 1 
1 0.564706 1 1 0.564706 1 
1 0.564706 1 1 0.564706 1 
1 0.564706 1 1 0.564706 1 
1 0.564706 1 1 0.564706 1 
1 0.564706 1 1 0.564706 1 
1 0.564706 1 1 0.564706 1 
1 0.564706 1 1 0.564706 1 
1 0.564706 1 1 0.564706 1 
1 0.564706 1 1 0.564706 1 
1 0.564706 1 1 0.564706 1 

NORMALS Normals float
-0.271474 -0.615547 -0.739867 -0.136746 -0.465266 -0.874545 -0.00361365 -0.724097 -0.689689 
0.206057 -0.405928 -0.890373 0.0412683 -0.388813 -0.920392 0.167759 -0.172278 -0.970658 
0.279167 -0.471473 -0.836528 0.660037 -0.12843 -0.740174 0.468366 -0.445683 -0.762889 
0.65761 -0.494458 -0.568385 0.387693 0.0843105 -0.917925 0.563806 0.237046 -0.791158 
0.790608 0.128457 -0.598697 -0.404657 -0.54119 -0.737133 -0.069655 -0.483098 -0.872791 
0.0439851 -0.694049 -0.718583 0.314606 -0.619487 -0.719208 0.354996 -0.709395 -0.608881 
-0.405785 -0.522766 -0.749702 -0.0192454 -0.217601 -0.975848 -0.452737 -0.402671 -0.795541 
-0.58623 -0.541711 -0.602398 -0.0636709 0.110627 -0.991821 -0.0568777 0.330231 -0.942185 
0.210476 0.364131 -0.907254 0.305482 0.465618 -0.83059 0.653173 0.323569 -0.684593 
-0.677732 -0.100472 -0.728412 -0.597335 -0.450024 -0.663829 0.205171 -0.0821167 -0.975275 
-0.486856 0.221081 -0.845041 -0.0536096 -0.835834 -0.546359 -0.399962 -0.844137 -0.35702 
-0.462827 -0.773975 -0.43215 0.812622 -0.416513 -0.40763 -0.563364 -0.491731 -0.663944 
-0.267906 -0.124672 -0.955345 -0.428321 -0.338088 -0.837996 -0.534923 -0.290031 -0.793561 
-0.330321 -0.0650868 -0.941622 0.113895 0.48106 -0.869258 0.402654 0.566419 -0.719054 
-0.397876 -0.442971 -0.803412 -0.475558 -0.668929 -0.571296 -0.137378 -0.527837 -0.838162 
-0.41515 -0.510303 -0.753154 -0.6071 -0.515392 -0.604815 -0.748066 -0.493971 -0.443158 
-0.745689 -0.370138 -0.554027 -0.398994 -0.268597 -0.876732 -0.0274058 -0.108703 -0.993696 
-0.587701 -0.270472 -0.76253 -0.567985 -0.196167 -0.799319 -0.783137 -0.313397 -0.537102 
-0.826184 -0.425592 -0.369177 -0.164089 -0.149327 -0.975078 -0.878682 -0.324923 -0.349776 
-0.952677 0.051133 -0.299654 0.211739 -0.8625 -0.459631 -0.549875 -0.80207 -0.23307 
0.891608 -0.155563 -0.425247 -0.628453 -0.702392 -0.334204 0.888602 0.050675 -0.455871 
-0.251126 -0.608324 -0.752913 -0.355952 -0.626465 -0.693426 -0.130973 -0.374352 -0.917991 
-0.109536 0.115877 -0.987205 -0.233496 -0.17839 -0.955854 0.194282 0.64999 -0.734689 
0.345082 0.67431 -0.652858 0.82492 0.392717 -0.406548 -0.415306 -0.569324 -0.7095 
-0.658644 -0.677058 -0.3283 -0.172873 -0.227923 -0.95821 -0.00514252 -0.139072 -0.990269 
0.591424 0.688082 -0.420429 -0.301617 -0.617092 -0.726791 -0.7936 -0.608183 -0.0176645 
-0.158786 -0.289985 -0.943767 0.0473314 0.0518197 -0.997534 -0.749498 -0.615113 -0.24472 
-0.0685572 -0.233453 -0.969948 -0.140087 -0.303471 -0.942487 -0.700575 -0.669566 -0.24673 
-0.372118 -0.408871 -0.833278 0.0920516 0.0747918 -0.992941 -0.811254 -0.39377 -0.432218 
-0.85604 -0.413283 -0.310471 -0.962564 -0.155735 -0.221848 -0.969283 0.0585056 -0.238887 
-0.839045 0.240878 -0.487833 -0.0198412 0.203404 -0.978894 -0.722716 0.386449 -0.573008 
-0.622089 0.400239 -0.672915 -0.809467 0.157627 -0.565612 -0.864046 0.48937 0.11807 
0.0493579 0.218698 -0.974543 -0.235777 0.771296 -0.591196 -0.163006 -0.967228 -0.194676 
0.517675 -0.773148 -0.366408 0.995409 -0.0166263 -0.0942604 0.923544 0.307227 -0.229518 
-0.362629 -0.678286 -0.639084 -0.548295 -0.641267 -0.536795 -0.672635 -0.672794 -0.308074 
-0.613495 -0.730881 -0.299058 -0.704873 -0.654831 -0.272674 -0.843823 -0.53438 -0.0489995 
-0.971597 -0.223705 -0.0771725 -0.982982 0.178456 -0.0435771 -0.841182 0.455552 -0.291351 
-0.49683 0.263195 -0.826976 -0.900957 0.427881 0.072065 0.055992 0.432166 -0.900054 
0.262879 0.664154 -0.699853 -0.3887 0.917055 -0.0890102 0.258456 -0.926754 -0.272631 
0.50947 -0.855084 -0.0962905 0.587908 -0.775709 -0.229435 0.795672 -0.595953 -0.108379 
0.928823 -0.307618 -0.206542 0.981284 0.191946 -0.0154304 -0.523498 -0.815304 -0.247445 
0.873661 0.475663 -0.10228 0.117562 0.320835 -0.939811 0.356743 0.248173 -0.900636 
0.524724 0.59358 -0.610186 -0.901999 -0.422029 0.0910517 -0.911205 0.362454 0.195786 
-0.827531 0.451042 0.334295 -0.0237448 0.86119 -0.507728 -0.60561 0.739423 -0.294093 
-0.0143633 0.422952 -0.906038 0.086842 0.376901 -0.922174 -0.422031 0.872557 0.246035 
-0.259994 0.92802 0.266798 -0.430346 0.678221 -0.595667 0.469127 0.434377 -0.768919 
-0.0361488 0.799078 -0.60014 0.0619125 -0.994624 -0.0830065 0.171534 -0.983085 0.0641943 
0.434454 -0.899102 -0.0535319 -0.451794 -0.889046 0.074021 -0.55211 -0.833592 -0.0172655 
0.945975 0.281552 0.160811 -0.630768 -0.767254 -0.115992 0.389271 0.525028 -0.756845 
0.393212 0.625581 -0.673819 0.495238 0.661084 -0.563656 0.610549 0.734189 -0.29698 
0.55659 0.65897 -0.505932 0.308967 0.435128 -0.845697 0.330586 0.47486 -0.815611 
0.510053 0.675106 -0.53299 0.470811 0.770544 -0.42965 0.55148 0.727257 -0.408616 
0.474246 0.693449 -0.54242 0.35357 0.203575 -0.912987 0.429906 0.511478 -0.744024 
0.407203 0.388517 -0.826583 0.608025 0.652819 -0.451811 0.555662 0.464534 -0.689527 
0.640466 0.692936 -0.331123 -0.612712 0.763728 0.203232 0.0279545 0.902801 0.42915 
0.571225 0.815949 -0.0890459 0.321578 0.919926 0.224329 0.525039 0.827126 -0.20049 
0.502083 0.851263 -0.152528 0.226536 -0.949756 0.215974 0.806278 -0.552956 0.210132 
0.942161 -0.278837 0.185965 0.968877 0.0403787 0.244227 -0.5309 -0.831718 0.162452 
-0.755189 -0.601056 0.261574 0.795702 0.559505 0.231975 0.672919 0.735393 -0.0798523 
0.679608 0.732166 0.0454443 0.601723 0.787587 -0.1328 0.621639 0.735058 0.270657 
0.61241 0.75902 -0.221003 0.685467 0.727388 -0.0322615 -0.886414 -0.00642715 0.462849 
0.625386 0.734272 -0.264078 0.665054 0.736131 -0.125756 0.47726 0.824516 -0.303969 
0.453395 0.595536 -0.663151 0.48372 0.735162 -0.474922 0.610765 0.693659 -0.381843 
0.621714 0.779526 -0.0762324 0.593494 0.802314 -0.0636966 -0.609252 0.766084 0.204763 
-0.293975 0.823525 0.485166 0.687472 0.561165 -0.460952 0.623295 0.779334 0.0643569 
0.264202 0.871316 0.413529 0.430293 0.852801 0.295936 -0.218912 -0.963161 0.156197 
0.0415832 -0.927222 0.372197 0.604554 -0.775034 0.183947 0.421281 -0.806996 0.413859 
-0.321734 -0.754226 0.572391 0.83336 -0.366029 0.414167 -0.534666 -0.790741 0.298095 
0.898604 0.238416 0.368332 0.856012 0.406145 0.319828 0.726307 0.604262 0.327636 
0.702811 0.618834 0.350857 0.650015 0.711997 0.265595 0.662555 0.696289 0.276048 
0.643042 0.740494 0.195359 -0.722537 -0.487041 0.490644 0.654863 0.747396 0.112038 
0.667771 0.727832 0.156022 0.669159 0.713605 0.207351 0.582631 0.810133 -0.0650027 
0.615484 0.78566 0.0625907 0.572411 0.819451 0.0290671 -0.55583 0.541725 0.630544 
0.542369 0.814925 0.204286 -0.0447908 0.751676 0.65801 0.136574 0.791778 0.595345 
0.480322 0.83249 0.276134 0.118733 -0.846982 0.518193 -0.201014 -0.827264 0.524621 
0.157558 -0.750229 0.642131 0.757645 -0.238705 0.607449 0.816574 -0.0344153 0.576214 
0.849965 0.130238 0.510487 0.6842 0.246751 0.686283 -0.50043 -0.645202 0.577307 
0.576388 0.541308 0.612178 0.429159 0.603602 0.671928 0.614171 0.589733 0.524413 
0.491865 0.644362 0.585549 0.603184 0.643525 0.471216 0.573744 0.690735 0.440117 
0.596759 0.764293 0.244407 0.402228 0.692446 0.598942 -0.313904 0.547184 0.775922 
0.385064 0.749494 0.538502 0.251346 0.787247 0.563087 0.109383 -0.669976 0.73428 
0.58995 -0.46201 0.662198 -0.135492 -0.474706 0.869653 -0.447672 -0.711379 0.541784 
0.640806 0.0568658 0.765594 0.629793 0.379522 0.677735 0.473721 0.620157 0.625295 
0.4818 0.516559 0.707839 -0.677301 -0.286733 0.67753 0.440305 0.495252 0.748904 
-0.663556 0.013266 0.748009 0.449274 0.60927 0.653409 -0.586619 0.285425 0.757899 
0.103174 0.606245 0.788557 0.0175298 -0.500464 0.86558 0.245481 -0.315908 0.916483 
-0.108159 -0.656613 0.746432 -0.268211 -0.520658 0.810542 -0.0150968 -0.361013 0.932439 
0.201283 -0.238339 0.950095 -0.329233 -0.506612 0.796838 0.236164 0.0971203 0.966848 
-0.319114 -0.417974 0.850567 -0.194322 -0.440469 0.876485 0.220405 0.336996 0.915344 
-0.367929 -0.39525 0.841669 0.304882 0.272909 0.912452 0.407239 0.400951 0.820607 
0.503026 0.478728 0.719572 0.342351 0.347093 0.87311 0.417117 0.615213 0.668974 
-0.529087 0.153218 0.83462 -0.207417 0.418428 0.884249 0.176444 0.494184 0.851264 
-0.0901285 -0.243317 0.96575 0.133455 -0.00756661 0.991026 -0.0664107 -0.211244 0.975175 
-0.240028 -0.322648 0.915579 0.0417652 -0.0400855 0.998323 0.0409223 0.00284666 0.999158 
-0.226405 -0.192013 0.95492 0.176058 0.10287 0.97899 -0.436816 -0.215082 0.87346 
-0.44744 -0.200514 0.871545 0.238782 0.356765 0.903162 -0.41534 0.252519 0.873915 
-0.0359709 -0.0493877 0.998132 -0.23317 0.111755 0.965993 -0.324226 -0.360605 -0.874552 
0.0569498 -0.118142 -0.991362 0.147007 0.069699 -0.986677 -0.319907 -0.147993 -0.935819 
-0.148047 -0.0042997 -0.988971 -0.433343 0.0841036 -0.897296 0.239236 0.267038 -0.933519 
-0.0943919 0.323555 -0.941489 0.126761 0.392087 -0.911153 0.378257 -0.109906 -0.919153 
0.324783 -0.450652 -0.831522 -0.310026 -0.535831 -0.785347 -0.0730069 -0.228648 -0.970768 
-0.0432179 -0.343542 -0.938143 0.13802 0.0616731 -0.988507 -0.291543 -0.431437 -0.853736 
0.125993 0.0272648 -0.991656 0.357742 0.215095 -0.908711 0.349237 0.336901 -0.874375 
-0.551426 -0.412536 -0.725081 0.375331 0.22089 -0.900186 0.38475 0.487253 -0.783933 
-0.488409 -0.134325 -0.862214 -0.651592 0.104406 -0.751351 0.306971 0.341551 -0.88832 
0.289949 0.431459 -0.854268 0.47729 0.537635 -0.695085 -0.459782 0.283129 -0.841688 
-0.282389 0.285233 -0.915914 0.361764 -0.530579 -0.766559 0.0568806 -0.843314 -0.534403 
-0.153893 -0.689881 -0.707376 0.370771 -0.693591 -0.617625 -0.0788814 -0.670449 -0.73775 
-0.225026 -0.614491 -0.756151 0.7822 -0.108281 -0.613546 0.782173 0.217935 -0.583703 
0.684472 0.165332 -0.710045 0.530339 0.378908 -0.758399 -0.567508 -0.490676 -0.661189 
0.401767 0.523198 -0.751563 -0.730099 -0.431107 -0.530191 0.56445 0.454976 -0.688762 
0.626512 0.599569 -0.497996 -0.61341 -0.205693 -0.762508 0.469146 0.521841 -0.712449 
0.425976 0.623639 -0.655453 0.414142 0.604788 -0.680234 0.403871 0.683349 -0.608212 
-0.521029 0.41199 -0.747524 0.182336 0.553941 -0.812344 0.0138786 0.584232 -0.811468 
-0.24044 -0.827733 -0.506997 0.659631 -0.552712 -0.50931 -0.283049 -0.814138 -0.507014 
-0.438007 -0.784693 -0.438643 0.894044 0.113096 -0.433468 -0.536385 -0.678067 -0.502511 
0.815336 0.325945 -0.478527 -0.506921 -0.712223 -0.485561 0.611213 0.549006 -0.570097 
-0.675117 -0.586133 -0.447957 -0.674106 -0.604091 -0.425036 0.508491 0.594992 -0.622431 
0.610905 0.687804 -0.392072 0.479684 0.687106 -0.5457 0.594233 0.65785 -0.462732 
-0.843555 -0.152787 -0.51485 0.332343 0.719074 -0.610311 0.438195 0.692915 -0.572585 
0.431225 0.783721 -0.447018 -0.229527 0.706222 -0.669751 0.0569847 0.780467 -0.622595 
-0.21765 -0.840241 -0.496613 0.11341 -0.949615 -0.292182 0.583263 -0.777648 -0.234663 
-0.159339 -0.924652 -0.345876 -0.328392 -0.816468 -0.47491 0.896901 -0.225903 -0.38018 
0.869119 0.447176 -0.211342 -0.799858 -0.534858 -0.272313 0.509458 0.831252 -0.222427 
0.640651 0.731135 -0.234537 0.782077 0.61208 -0.117103 -0.849237 0.188486 -0.493223 
0.689644 0.721268 -0.06453 0.588823 0.732563 0.341524 0.615883 0.742839 -0.262447 
-0.729947 0.280569 -0.623264 0.616235 0.748767 -0.244134 -0.481987 0.626985 -0.612029 
0.206633 0.80369 -0.558019 0.426444 0.891736 -0.151498 -0.0402924 0.887536 -0.458974 
-0.140532 -0.928711 -0.343142 0.43216 -0.901776 0.00613214 0.795658 -0.601835 -0.0687188 
-0.332423 -0.921205 -0.202179 0.954596 -0.284516 -0.0883069 -0.507209 -0.831092 -0.228091 
0.960891 0.16393 -0.223194 0.736451 0.675643 0.0338413 0.639651 0.768418 0.0195067 
0.492931 0.85246 0.17416 0.701255 0.711571 -0.0436844 0.776212 0.630472 -5.80606e-07 
0.657051 0.724642 0.207795 0.723332 0.637153 0.266132 -0.92373 -0.0555933 -0.378988 
-0.975393 0.0230308 -0.219266 -0.976279 0.140679 -0.164584 0.65414 0.725771 0.212972 
0.64594 0.680957 0.345049 0.61613 0.757812 0.214723 -0.776041 0.462042 -0.429275 
0.501579 0.859651 -0.0970481 -0.504315 0.758176 -0.413323 0.346213 0.931553 -0.111113 
0.297718 0.896941 -0.326897 -0.363618 0.843123 -0.396138 -0.204543 0.901513 -0.381361 
0.147491 0.963165 -0.224852 0.515479 0.836111 0.187616 0.0818544 -0.996428 0.0207815 
0.667725 -0.742749 0.049668 -0.583854 -0.799659 -0.140213 0.899784 0.422273 0.109881 
-0.569776 -0.817647 0.0825131 -0.681577 -0.718902 -0.1365 -0.767337 -0.640804 -0.023753 
-0.857907 -0.486958 -0.163912 0.577254 0.804013 0.142626 0.452207 0.867378 0.207759 