# vtk DataFile Version 4.2
vtk output
ASCII
DATASET POLYDATA
POINTS 373 float
424.016 194.713 206.987 424.631 194.625 206.979 425.995 195.158 207.142 
424.32 195.656 206.951 425.366 195.499 206.95 424.196 196.058 207.089 
425.357 195.991 207.085 419.379 191.329 208.549 419.471 190.882 208.832 
421.405 191.478 208.376 418.443 192.852 208.462 421.891 192.374 207.836 
423.29 192.202 208.061 418.628 193.521 208.35 423.573 192.579 207.807 
426.776 193.83 207.959 426.644 193.593 207.975 426.84 193.618 208.165 
419.174 194.003 208.049 422.294 193.827 207.338 423.104 193.722 207.282 
422.101 194.623 207.35 421.207 196.371 208.235 422.518 196.272 207.714 
427.152 195.944 208.463 426.124 197.036 207.921 426.046 197.518 208.258 
426.587 197.532 208.535 425.678 198.188 208.764 418.234 191.152 209.024 
418.097 190.689 209.421 419.868 190.732 208.951 420.531 190.8 209.001 
422.414 191.491 208.548 417.947 192.28 208.847 425.219 192.592 208.209 
417.9 192.788 208.847 426.166 193.051 208.172 426.983 193.521 208.565 
418.891 194.003 208.265 419.029 195.08 208.909 427.364 194.677 208.789 
420.117 195.679 208.341 427.525 196.679 209.368 424.377 198.521 209.043 
426.834 197.678 208.915 424.982 198.58 209.098 426.279 198.437 209.324 
417.467 190.122 210.249 417.265 189.905 210.72 418.22 189.85 210.283 
417.405 190.586 209.917 420.464 190.443 209.485 417.086 191.191 209.84 
416.632 191.351 210.273 423.429 191.454 209.046 425.717 192.339 208.986 
426.775 193.139 208.633 426.678 192.908 208.878 417.681 193.006 209.111 
417.733 193.377 209.206 418.017 193.757 209.068 425.493 199.344 210.353 
426.74 198.543 209.916 427.06 198.6 210.511 418.79 189.519 211.051 
416.406 190.387 210.983 416.389 190.144 211.279 420.811 190.031 210.592 
416.278 190.675 210.974 424.309 191.192 210.457 416.669 191.814 210.181 
427.951 195.608 210.404 426.076 199.594 211.224 426.552 199.337 211.181 
416.584 189.893 211.464 417.154 189.413 212.103 416.083 190.829 211.294 
416.032 191.167 211.377 426.744 192.684 209.967 427.53 193.624 210.603 
422.928 198.948 210.867 426.995 199.272 211.939 416.187 189.9 212.433 
417.584 189.208 212.564 415.71 190.715 212.883 415.709 191.42 212.771 
427.26 193.042 211.143 416.325 193.318 212.162 417.47 194.972 211.533 
428.121 195.008 211.939 425.792 200.036 212.452 426.412 199.953 212.704 
426.747 199.959 213.338 427.171 199.625 213.329 415.727 190.26 213.481 
415.48 191.586 213.863 425.478 200.334 213.383 425.978 200.418 213.934 
416.226 189.247 214.567 418.145 188.92 214.052 415.366 190.945 214.587 
419.522 197.972 214.051 423.336 200.165 214.329 416.368 188.99 215.156 
416.183 188.965 215.743 416.762 188.802 215.343 421.09 189.302 214.832 
425.475 190.95 214.348 427.623 199.689 215.892 426.428 200.698 215.849 
415.815 189.29 215.841 416.521 188.694 216.277 415.487 189.744 215.995 
415.085 190.921 216.433 427.04 192.187 214.59 427.516 192.775 215.03 
425.958 200.975 216.507 426.949 200.608 216.605 427.488 200.129 216.815 
426.839 200.838 217.313 415.713 189.222 216.689 424.866 201.115 217.163 
426.107 201.203 217.984 427.223 200.66 217.979 417.113 188.054 218.452 
415.283 189.572 217.88 428.203 199.124 218.392 415.562 188.872 218.637 
414.753 191.705 219.471 423.595 201.1 218.565 415.443 188.498 219.83 
415.134 188.333 220.921 416.271 187.279 220.614 418.425 187.175 220.409 
424.146 189.108 220.158 427.917 192.257 220.562 416.136 196.539 221.516 
424.833 201.769 222.711 425.519 201.744 222.869 427.119 201.018 222.387 
416.864 184.486 222.886 421.824 186.266 222.374 414.644 188.071 223.002 
428.762 194.981 222.976 426.561 201.416 223.419 420.652 178.437 224.716 
416.41 179.818 224.855 418.102 180.596 223.967 415.929 181.22 224.808 
418.2 182.893 223.325 415.49 184.009 224.176 420.164 183.82 223.137 
427.911 200.024 224.139 422.529 201.434 224.173 421.229 177.398 225.598 
422.033 177.375 225.941 421.855 177.19 225.979 422.036 177.22 226.126 
416.837 177.815 225.431 416.659 177.509 225.757 417.421 177.692 225.281 
419.236 178.216 224.734 423.082 179.469 226.056 422.169 181.16 224.611 
422.66 180.888 225.054 423.43 180.984 226.015 422.406 183.77 224.001 
423.907 184.514 224.898 427.12 188.609 224.856 428.735 196.862 225.004 
427.495 200.63 225.158 416.634 177.05 226.459 417.167 177.027 225.907 
417.088 176.829 226.292 418.157 176.415 226.508 422.097 177.201 226.436 
422.422 177.571 226.585 422.901 178.544 226.379 423.157 179.09 226.492 
423.552 180.512 226.579 424.701 184.413 226.147 427.018 188.07 225.674 
424.361 201.865 226.534 417.901 176.229 227.038 417.363 176.4 227.1 
418.314 176.025 227.475 419.216 176.108 226.997 418.911 175.965 227.413 
419.847 176.066 227.616 416.506 177.016 227.03 414.802 183.05 226.675 
414.674 184.092 226.74 425.88 186.046 227.295 416.943 176.615 227.462 
416.813 176.696 227.897 418.719 175.926 227.807 415.419 178.688 227.677 
423.163 178.782 227.541 423.622 180.256 227.794 418.474 176.034 228.464 
419.426 176.004 228.297 419.25 176.084 228.604 416.178 177.427 228.411 
416.072 177.691 228.736 415.778 178.077 228.609 422.814 178.424 228.626 
423.373 179.706 228.36 415.169 179.671 228.13 424.394 183.78 229.143 
414.661 185.319 228.572 416.29 177.69 229.129 418.385 176.584 229.278 
419.185 176.389 229.085 419.959 176.54 229.207 420.521 176.591 229.047 
421.106 176.749 228.843 421.65 177.001 228.556 416.326 177.95 229.445 
415.649 178.894 229.045 423.581 181.496 229.206 423.893 183.098 229.574 
425.143 185.761 229.82 426.624 187.752 229.505 414.566 192.622 230.644 
428.16 199.385 230.026 417.131 177.385 229.629 416.226 178.349 229.591 
419.553 177.322 230.031 420.895 177.281 229.756 421.423 177.361 229.547 
421.83 177.521 229.336 423.028 179.673 229.276 415.553 181.881 229.869 
423.15 180.882 229.618 415.224 183.878 229.89 422.903 184.151 231.11 
414.509 191.018 231.115 428.67 195.129 230.851 415.302 195.464 231.252 
427.826 200.072 231.054 426.923 201.13 231.154 420.8 177.724 230.1 
417.115 179.393 230.571 415.992 182.815 230.761 416.474 182.775 231.207 
414.947 187.825 231.194 426.506 188.874 231.387 421.084 200.846 231.831 
416.223 184.203 231.419 416.149 186.372 232.518 417.588 185.768 233.036 
420.661 185.494 232.801 426.603 189.789 232.633 426.349 201.451 233.169 
416.013 187.585 233.565 416.849 187.306 234.213 421.122 187.647 234.618 
423.276 188.165 234.085 414.679 191.14 233.893 415.29 195.22 234.29 
423.117 201.417 234.118 425.68 201.629 234.195 426.735 190.773 234.598 
416.112 196.426 235.342 428.368 198.625 234.983 417.656 187.916 235.965 
423.896 201.402 236.03 425.121 201.594 236.168 415.219 189.881 236.416 
414.837 192.104 237.079 426.247 201.325 236.994 416.024 189.021 237.923 
428.074 193.648 237.451 428.305 194.437 237.614 417.136 196.947 238.072 
427.263 200.585 237.94 426.185 201.294 237.898 427.427 192.411 237.976 
415.312 193.396 239.68 428.526 196.983 238.885 427.996 199.37 238.951 
416.161 195.178 239.591 428.214 198.626 239.932 424.591 200.818 240.051 
426.831 200.838 239.537 424.556 190.485 240.384 419.063 197.512 241.82 
421.661 199.124 242.212 428.063 198.598 241.87 427.397 199.792 241.886 
416.308 189.81 242.812 415.838 190.158 242.085 416.812 189.402 242.644 
428.093 194.639 242.468 427.639 199.219 242.759 424.104 199.991 242.942 
425.367 200.371 242.592 426.256 200.336 242.612 426.785 200.116 242.602 
417.84 189.184 243.163 415.65 191.65 243.559 415.964 192.696 243.563 
427.767 193.974 243.224 428.022 197.871 243.663 427.067 199.709 243.416 
416.046 190.448 243.816 417.4 189.606 244.181 415.794 191.165 244.046 
422.616 190.471 244.528 417.808 194.814 244.956 418.665 195.554 245.379 
427.823 197.908 244.489 427.169 199.243 244.325 426.503 199.934 243.841 
426.86 199.728 243.891 417.429 189.898 244.93 416.379 191.868 245.14 
425.403 191.922 245.254 421.398 197.757 245.614 427.294 198.6 245.174 
417.265 190.587 245.768 418.342 190.075 245.706 416.917 190.869 245.724 
416.6 191.355 245.544 416.549 191.682 245.452 423.442 191.587 246.492 
425.877 192.722 246.325 417.624 193.252 246.29 427.492 194.987 245.832 
427.569 195.767 245.948 419.287 195.268 246.748 425.504 199.302 245.782 
425.701 199.1 246.092 426.684 198.993 245.715 417.674 190.444 245.923 
416.826 191.174 245.758 417.646 192.306 246.566 424.568 192.575 247.226 
418.337 193.583 246.88 419.89 195.343 247.367 427.193 196.67 246.617 
421.299 196.545 247.337 426.885 198.072 246.404 424.775 198.242 247.008 
426.677 198.581 246.239 425.691 198.678 246.543 426.441 198.906 246.093 
420.378 191.874 247.406 420.656 192.506 247.835 422.218 192.242 247.581 
422.089 192.9 248.023 421.947 193.385 248.213 426.689 193.997 246.774 
422.646 193.522 248.204 420.264 195.037 247.857 420.513 194.888 248.006 
426.438 195.48 247.59 426.21 196.859 247.503 426.53 197.554 246.996 
425.457 197.559 247.447 426.515 198.19 246.668 419.935 193.125 247.835 
419.93 194.271 247.891 420.478 194.369 248.055 421.273 194.271 248.202 
424.916 194.369 248.127 426.057 194.511 247.759 422.026 194.995 248.222 
421.122 195.621 247.885 425.266 195.643 248.122 424.333 196.403 248.073 
425.61 196.916 247.725 
POLYGONS 742 2968
3 3 4 1 
3 0 3 1 
3 5 3 0 
3 3 5 4 
3 6 4 5 
3 6 2 4 
3 7 29 34 
3 29 7 8 
3 31 8 7 
3 31 7 9 
3 10 7 34 
3 11 9 7 
3 11 12 33 
3 9 11 33 
3 13 18 10 
3 7 10 18 
3 21 7 18 
3 11 7 21 
3 14 1 35 
3 1 2 35 
3 35 2 37 
3 37 15 16 
3 16 15 17 
3 12 11 19 
3 14 12 20 
3 20 12 19 
3 1 14 0 
3 0 14 20 
3 15 37 2 
3 19 11 21 
3 20 19 21 
3 2 1 4 
3 2 41 15 
3 18 42 21 
3 20 21 23 
3 0 23 5 
3 20 23 0 
3 21 42 22 
3 23 21 22 
3 2 6 25 
3 25 27 2 
3 24 41 2 
3 27 24 2 
3 44 23 22 
3 23 44 5 
3 5 25 6 
3 45 24 27 
3 44 26 5 
3 5 26 25 
3 26 27 25 
3 26 44 28 
3 45 26 28 
3 27 26 45 
3 30 29 50 
3 29 8 50 
3 53 29 30 
3 31 9 32 
3 34 29 53 
3 59 34 53 
3 12 14 55 
3 33 12 55 
3 55 14 35 
3 34 59 36 
3 36 10 34 
3 36 61 10 
3 61 13 10 
3 16 17 37 
3 39 18 13 
3 17 15 38 
3 39 13 40 
3 18 39 40 
3 15 41 38 
3 18 40 42 
3 41 24 43 
3 24 45 43 
3 44 46 28 
3 28 46 47 
3 45 28 47 
3 30 50 51 
3 50 48 51 
3 31 52 8 
3 8 52 50 
3 53 51 48 
3 54 53 48 
3 51 53 30 
3 31 32 52 
3 52 32 68 
3 32 9 68 
3 9 33 68 
3 53 54 71 
3 71 59 53 
3 35 37 56 
3 37 57 58 
3 56 37 58 
3 36 59 61 
3 17 57 37 
3 57 17 38 
3 57 38 58 
3 60 61 59 
3 40 13 61 
3 89 40 61 
3 38 41 72 
3 42 40 89 
3 41 43 72 
3 44 81 46 
3 46 81 62 
3 47 46 62 
3 47 63 45 
3 45 63 43 
3 64 47 62 
3 63 47 64 
3 43 63 64 
3 49 75 66 
3 48 49 66 
3 48 50 49 
3 52 68 50 
3 50 68 65 
3 66 67 69 
3 69 48 66 
3 69 54 48 
3 55 70 33 
3 33 70 68 
3 71 54 69 
3 55 35 70 
3 35 56 70 
3 58 79 56 
3 60 59 89 
3 89 59 71 
3 61 60 89 
3 38 72 80 
3 22 42 81 
3 81 44 22 
3 64 62 74 
3 62 73 74 
3 75 76 67 
3 49 76 75 
3 50 65 49 
3 49 65 76 
3 66 75 67 
3 77 69 67 
3 78 69 77 
3 78 71 69 
3 79 58 38 
3 79 38 80 
3 80 72 90 
3 90 72 43 
3 102 42 89 
3 81 42 102 
3 74 73 82 
3 82 64 74 
3 67 76 83 
3 76 84 83 
3 65 84 76 
3 67 83 77 
3 78 77 86 
3 86 77 85 
3 56 87 70 
3 79 87 56 
3 78 86 88 
3 71 78 88 
3 71 88 89 
3 79 80 87 
3 87 80 90 
3 90 43 64 
3 62 81 97 
3 73 62 91 
3 62 97 91 
3 92 91 93 
3 92 82 91 
3 82 73 91 
3 82 92 94 
3 82 94 64 
3 94 92 93 
3 84 99 83 
3 107 84 65 
3 83 95 77 
3 65 68 107 
3 77 95 85 
3 85 95 86 
3 95 96 86 
3 70 87 115 
3 97 93 91 
3 98 93 97 
3 93 98 94 
3 84 100 99 
3 84 107 100 
3 83 99 95 
3 99 101 95 
3 70 107 68 
3 70 108 107 
3 95 101 96 
3 101 88 96 
3 115 108 70 
3 86 96 88 
3 115 87 90 
3 97 81 103 
3 98 97 110 
3 64 94 109 
3 98 110 109 
3 94 98 109 
3 104 106 105 
3 105 106 112 
3 99 104 113 
3 106 104 99 
3 99 100 106 
3 107 106 100 
3 99 113 101 
3 113 114 101 
3 101 114 88 
3 103 110 97 
3 105 112 111 
3 104 105 111 
3 104 111 113 
3 116 115 90 
3 89 88 102 
3 102 130 81 
3 103 81 130 
3 110 103 117 
3 118 117 120 
3 118 110 117 
3 110 118 119 
3 110 119 109 
3 119 118 120 
3 111 112 121 
3 111 121 113 
3 106 125 112 
3 106 107 125 
3 121 114 113 
3 108 115 116 
3 129 88 114 
3 122 103 130 
3 117 103 122 
3 122 120 117 
3 123 120 122 
3 109 119 127 
3 127 119 124 
3 120 123 124 
3 124 119 120 
3 112 126 121 
3 121 126 114 
3 116 136 108 
3 90 64 144 
3 64 109 144 
3 144 109 127 
3 122 130 123 
3 112 125 128 
3 112 128 126 
3 128 129 126 
3 108 135 107 
3 108 136 135 
3 126 129 114 
3 116 90 136 
3 88 129 137 
3 123 130 139 
3 123 139 124 
3 125 133 131 
3 128 125 131 
3 125 134 133 
3 107 135 125 
3 128 131 129 
3 143 137 129 
3 102 88 137 
3 144 127 140 
3 127 124 140 
3 139 140 124 
3 131 133 132 
3 135 134 125 
3 132 143 131 
3 131 143 129 
3 136 169 135 
3 136 90 144 
3 136 144 182 
3 130 154 138 
3 130 138 139 
3 152 141 134 
3 133 141 151 
3 132 133 151 
3 134 141 133 
3 167 134 142 
3 135 142 134 
3 168 142 135 
3 135 169 168 
3 169 136 182 
3 139 138 154 
3 139 154 145 
3 140 139 145 
3 148 146 162 
3 146 148 152 
3 149 148 147 
3 150 148 149 
3 152 148 150 
3 164 146 152 
3 141 149 151 
3 150 149 141 
3 152 150 141 
3 167 164 152 
3 134 167 152 
3 132 210 143 
3 142 168 167 
3 182 144 170 
3 144 140 170 
3 170 140 153 
3 130 102 154 
3 153 140 145 
3 173 162 175 
3 175 162 187 
3 187 155 157 
3 157 156 158 
3 159 161 160 
3 173 160 161 
3 173 161 162 
3 155 187 146 
3 156 157 155 
3 147 159 160 
3 161 159 147 
3 162 161 147 
3 187 162 146 
3 156 155 163 
3 163 155 146 
3 148 162 147 
3 163 146 164 
3 165 163 164 
3 165 180 163 
3 165 164 166 
3 166 180 165 
3 181 164 167 
3 181 166 164 
3 181 167 168 
3 151 192 132 
3 192 210 132 
3 181 168 193 
3 169 193 168 
3 169 182 193 
3 143 224 137 
3 153 145 171 
3 145 154 183 
3 183 171 145 
3 173 172 160 
3 172 173 174 
3 174 173 185 
3 173 175 185 
3 176 157 158 
3 158 156 176 
3 176 156 177 
3 156 163 177 
3 177 163 178 
3 179 178 163 
3 147 160 149 
3 149 160 151 
3 166 181 180 
3 180 181 193 
3 210 224 143 
3 239 102 137 
3 184 200 185 
3 200 184 186 
3 186 187 188 
3 172 190 160 
3 172 174 190 
3 175 184 185 
3 186 184 175 
3 187 186 175 
3 177 178 198 
3 208 160 197 
3 179 163 199 
3 163 180 199 
3 151 160 191 
3 191 192 151 
3 154 102 248 
3 154 248 183 
3 194 185 200 
3 194 200 195 
3 188 196 186 
3 186 196 200 
3 187 201 188 
3 188 201 196 
3 201 187 189 
3 194 195 203 
3 194 203 190 
3 194 190 174 
3 160 190 203 
3 185 194 174 
3 187 157 189 
3 203 205 160 
3 205 197 160 
3 177 198 176 
3 176 198 206 
3 198 178 179 
3 199 180 220 
3 180 193 220 
3 191 233 192 
3 182 170 223 
3 201 202 200 
3 201 200 196 
3 195 200 203 
3 189 215 201 
3 157 216 189 
3 189 216 215 
3 176 217 157 
3 157 217 216 
3 205 203 204 
3 197 219 208 
3 205 219 197 
3 207 198 179 
3 179 199 207 
3 160 208 191 
3 220 193 221 
3 233 210 192 
3 221 193 209 
3 209 193 222 
3 193 182 222 
3 210 246 224 
3 224 239 137 
3 183 254 241 
3 241 171 183 
3 203 211 204 
3 226 211 203 
3 226 203 200 
3 202 213 200 
3 213 212 200 
3 202 201 213 
3 201 214 213 
3 201 215 214 
3 231 217 176 
3 211 218 227 
3 211 227 204 
3 204 227 205 
3 226 218 211 
3 176 206 231 
3 205 227 219 
3 198 232 206 
3 232 198 207 
3 207 199 232 
3 232 199 234 
3 208 219 191 
3 219 233 191 
3 199 220 234 
3 233 235 210 
3 182 223 222 
3 223 170 238 
3 170 153 238 
3 153 171 238 
3 238 171 225 
3 225 171 241 
3 226 200 212 
3 212 213 214 
3 215 216 229 
3 216 217 230 
3 229 216 230 
3 217 231 230 
3 212 228 226 
3 214 228 212 
3 215 228 214 
3 227 243 219 
3 218 243 227 
3 232 231 206 
3 242 231 232 
3 232 234 242 
3 233 244 235 
3 236 234 220 
3 220 221 236 
3 221 209 236 
3 210 250 246 
3 222 258 236 
3 222 236 209 
3 222 247 258 
3 247 222 223 
3 247 223 253 
3 246 237 224 
3 238 225 240 
3 225 241 240 
3 183 248 261 
3 183 261 254 
3 226 243 218 
3 243 226 228 
3 228 215 242 
3 215 229 242 
3 229 230 231 
3 242 229 231 
3 242 243 228 
3 219 243 233 
3 245 233 243 
3 244 233 245 
3 244 245 235 
3 234 236 242 
3 236 258 252 
3 237 239 224 
3 245 249 235 
3 249 245 251 
3 243 251 245 
3 249 250 210 
3 235 249 210 
3 251 250 249 
3 252 251 243 
3 243 242 252 
3 242 236 252 
3 251 256 250 
3 252 256 251 
3 257 252 258 
3 247 263 258 
3 253 263 247 
3 246 259 237 
3 260 102 239 
3 264 102 260 
3 265 238 240 
3 250 256 255 
3 250 255 246 
3 257 256 252 
3 246 255 259 
3 237 259 239 
3 259 260 239 
3 102 264 275 
3 248 102 275 
3 240 241 265 
3 265 241 276 
3 241 254 276 
3 254 261 262 
3 261 268 262 
3 254 262 276 
3 256 269 255 
3 266 256 257 
3 223 273 253 
3 253 273 263 
3 223 238 273 
3 238 265 273 
3 259 270 260 
3 256 266 269 
3 255 269 259 
3 270 264 260 
3 248 275 288 
3 261 248 267 
3 248 288 267 
3 261 267 268 
3 262 268 271 
3 276 262 271 
3 269 266 272 
3 269 270 259 
3 270 279 264 
3 273 265 274 
3 267 271 268 
3 272 292 269 
3 257 258 286 
3 263 278 258 
3 278 263 273 
3 269 292 270 
3 292 279 270 
3 280 265 281 
3 265 276 281 
3 267 288 284 
3 271 267 284 
3 284 277 271 
3 277 276 271 
3 293 272 266 
3 258 303 286 
3 258 278 303 
3 273 274 278 
3 278 274 294 
3 279 275 264 
3 282 275 279 
3 274 265 294 
3 294 265 280 
3 277 284 285 
3 285 276 277 
3 257 286 266 
3 278 294 303 
3 275 282 287 
3 280 281 283 
3 288 275 287 
3 281 276 283 
3 283 276 285 
3 272 293 292 
3 294 280 283 
3 283 285 290 
3 266 300 293 
3 300 266 286 
3 309 300 286 
3 279 302 282 
3 294 283 289 
3 283 290 289 
3 284 288 297 
3 297 285 284 
3 285 297 298 
3 285 298 290 
3 292 293 291 
3 292 301 279 
3 302 279 301 
3 282 310 319 
3 319 287 282 
3 294 289 295 
3 296 297 288 
3 289 290 295 
3 295 290 299 
3 297 314 298 
3 290 298 299 
3 291 306 308 
3 292 291 308 
3 293 307 291 
3 291 307 306 
3 293 300 307 
3 308 301 292 
3 303 309 286 
3 303 294 312 
3 282 302 310 
3 312 294 304 
3 294 295 304 
3 288 287 344 
3 287 319 344 
3 304 295 305 
3 288 344 296 
3 296 332 297 
3 297 332 314 
3 295 299 305 
3 299 298 314 
3 314 305 299 
3 309 322 300 
3 308 302 301 
3 303 318 309 
3 310 311 319 
3 304 305 312 
3 344 332 296 
3 312 305 313 
3 314 313 315 
3 315 313 305 
3 305 314 315 
3 307 316 306 
3 316 307 300 
3 322 316 300 
3 306 324 308 
3 317 302 324 
3 324 302 308 
3 317 325 302 
3 303 327 318 
3 325 310 302 
3 310 339 311 
3 339 331 311 
3 303 312 330 
3 330 312 341 
3 341 312 320 
3 312 313 320 
3 320 313 334 
3 313 314 334 
3 314 332 334 
3 321 306 335 
3 335 306 316 
3 316 322 335 
3 306 323 324 
3 321 323 306 
3 324 336 325 
3 309 326 322 
3 324 325 317 
3 336 337 325 
3 309 338 326 
3 318 338 309 
3 318 327 338 
3 327 303 353 
3 328 310 337 
3 337 310 325 
3 328 339 310 
3 353 303 329 
3 303 330 329 
3 331 340 342 
3 331 342 311 
3 311 342 319 
3 341 320 343 
3 343 320 334 
3 323 336 324 
3 321 336 323 
3 321 349 336 
3 321 335 349 
3 322 349 335 
3 326 338 350 
3 337 339 328 
3 353 329 357 
3 339 363 331 
3 329 330 357 
3 330 341 357 
3 342 344 319 
3 343 334 345 
3 333 346 347 
3 333 332 346 
3 332 344 346 
3 346 345 347 
3 347 345 334 
3 333 347 332 
3 334 332 347 
3 336 349 337 
3 322 348 349 
3 322 326 348 
3 349 348 352 
3 326 350 348 
3 348 350 352 
3 362 337 349 
3 339 337 362 
3 352 350 351 
3 354 351 350 
3 338 327 367 
3 327 353 367 
3 362 363 339 
3 351 354 352 
3 338 366 350 
3 367 366 338 
3 363 355 340 
3 357 367 353 
3 363 340 331 
3 355 356 369 
3 355 369 340 
3 340 369 342 
3 341 343 358 
3 357 341 358 
3 360 358 359 
3 358 343 359 
3 344 360 361 
3 360 359 361 
3 343 345 361 
3 359 343 361 
3 361 346 344 
3 345 346 361 
3 362 349 352 
3 352 364 362 
3 364 363 362 
3 352 365 364 
3 352 354 365 
3 354 350 366 
3 364 355 363 
3 356 355 364 
3 356 364 369 
3 369 364 365 
3 354 368 365 
3 368 369 365 
3 366 371 354 
3 367 370 366 
3 368 342 369 
3 354 371 368 
3 371 342 368 
3 370 371 366 
3 367 357 370 
3 344 342 371 
3 370 372 371 
3 357 372 370 
3 357 358 372 
3 358 360 372 
3 372 344 371 
3 360 344 372 

POINT_DATA 373
COLOR_SCALARS scalars 3
1 0.764706 0.584314 1 0.764706 0.584314 1 0.764706 0.584314 
1 0.764706 0.584314 1 0.764706 0.584314 
1 0.764706 0.584314 1 0.764706 0.584314 
1 0.764706 0.584314 1 0.764706 0.584314 
1 0.764706 0.584314 1 0.764706 0.584314 
1 0.764706 0.584314 1 0.764706 0.584314 
1 0.764706 0.584314 1 0.764706 0.584314 
1 0.764706 0.584314 1 0.764706 0.584314 
1 0.764706 0.584314 1 0.764706 0.584314 
1 0.764706 0.584314 1 0.764706 0.584314 
1 0.764706 0.584314 1 0.764706 0.584314 
1 0.764706 0.584314 1 0.764706 0.584314 
1 0.764706 0.584314 1 0.764706 0.584314 
1 0.764706 0.584314 1 0.764706 0.584314 
1 0.764706 0.584314 1 0.764706 0.584314 
1 0.764706 0.584314 1 0.764706 0.584314 
1 0.764706 0.584314 1 0.764706 0.584314 
1 0.764706 0.584314 1 0.764706 0.584314 
1 0.764706 0.584314 1 0.764706 0.584314 
1 0.764706 0.584314 1 0.764706 0.584314 
1 0.764706 0.584314 1 0.764706 0.584314 
1 0.764706 0.584314 1 0.764706 0.584314 
1 0.764706 0.584314 1 0.764706 0.584314 
1 0.764706 0.584314 1 0.764706 0.584314 
1 0.764706 0.584314 1 0.764706 0.584314 
1 0.764706 0.584314 1 0.764706 0.584314 
1 0.764706 0.584314 1 0.764706 0.584314 
1 0.764706 0.584314 1 0.764706 0.584314 
1 0.764706 0.584314 1 0.764706 0.584314 
1 0.764706 0.584314 1 0.764706 0.584314 
1 0.764706 0.584314 1 0.764706 0.584314 
1 0.764706 0.584314 1 0.764706 0.584314 
1 0.764706 0.584314 1 0.764706 0.584314 
1 0.764706 0.584314 1 0.764706 0.584314 
1 0.764706 0.584314 1 0.764706 0.584314 
1 0.764706 0.584314 1 0.764706 0.584314 
1 0.764706 0.584314 1 0.764706 0.584314 
1 0.764706 0.584314 1 0.764706 0.584314 
1 0.764706 0.584314 1 0.764706 0.584314 
1 0.764706 0.584314 1 0.764706 0.584314 
1 0.764706 0.584314 1 0.764706 0.584314 
1 0.764706 0.584314 1 0.764706 0.584314 
1 0.764706 0.584314 1 0.764706 0.584314 
1 0.764706 0.584314 1 0.764706 0.584314 
1 0.764706 0.584314 1 0.764706 0.584314 
1 0.764706 0.584314 1 0.764706 0.584314 
1 0.764706 0.584314 1 0.764706 0.584314 
1 0.764706 0.584314 1 0.764706 0.584314 
1 0.764706 0.584314 1 0.764706 0.584314 
1 0.764706 0.584314 1 0.764706 0.584314 
1 0.764706 0.584314 1 0.764706 0.584314 
1 0.764706 0.584314 1 0.764706 0.584314 
1 0.764706 0.584314 1 0.764706 0.584314 
1 0.764706 0.584314 1 0.764706 0.584314 
1 0.764706 0.584314 1 0.764706 0.584314 
1 0.764706 0.584314 1 0.764706 0.584314 
1 0.764706 0.584314 1 0.764706 0.584314 
1 0.764706 0.584314 1 0.764706 0.584314 
1 0.764706 0.584314 1 0.764706 0.584314 
1 0.764706 0.584314 1 0.764706 0.584314 
1 0.764706 0.584314 1 0.764706 0.584314 
1 0.764706 0.584314 1 0.764706 0.584314 
1 0.764706 0.584314 1 0.764706 0.584314 
1 0.764706 0.584314 1 0.764706 0.584314 
1 0.764706 0.584314 1 0.764706 0.584314 
1 0.764706 0.584314 1 0.764706 0.584314 
1 0.764706 0.584314 1 0.764706 0.584314 
1 0.764706 0.584314 1 0.764706 0.584314 
1 0.764706 0.584314 1 0.764706 0.584314 
1 0.764706 0.584314 1 0.764706 0.584314 
1 0.764706 0.584314 1 0.764706 0.584314 
1 0.764706 0.584314 1 0.764706 0.584314 
1 0.764706 0.584314 1 0.764706 0.584314 
1 0.764706 0.584314 1 0.764706 0.584314 
1 0.764706 0.584314 1 0.764706 0.584314 
1 0.764706 0.584314 1 0.764706 0.584314 
1 0.764706 0.584314 1 0.764706 0.584314 
1 0.764706 0.584314 1 0.764706 0.584314 
1 0.764706 0.584314 1 0.764706 0.584314 
1 0.764706 0.584314 1 0.764706 0.584314 
1 0.764706 0.584314 1 0.764706 0.584314 
1 0.764706 0.584314 1 0.764706 0.584314 
1 0.764706 0.584314 1 0.764706 0.584314 
1 0.764706 0.584314 1 0.764706 0.584314 
1 0.764706 0.584314 1 0.764706 0.584314 
1 0.764706 0.584314 1 0.764706 0.584314 
1 0.764706 0.584314 1 0.764706 0.584314 
1 0.764706 0.584314 1 0.764706 0.584314 
1 0.764706 0.584314 1 0.764706 0.584314 
1 0.764706 0.584314 1 0.764706 0.584314 
1 0.764706 0.584314 1 0.764706 0.584314 
1 0.764706 0.584314 1 0.764706 0.584314 
1 0.764706 0.584314 1 0.764706 0.584314 
1 0.764706 0.584314 1 0.764706 0.584314 
1 0.764706 0.584314 1 0.764706 0.584314 
1 0.764706 0.584314 1 0.764706 0.584314 
1 0.764706 0.584314 1 0.764706 0.584314 
1 0.764706 0.584314 1 0.764706 0.584314 
1 0.764706 0.584314 1 0.764706 0.584314 
1 0.764706 0.584314 1 0.764706 0.584314 
1 0.764706 0.584314 1 0.764706 0.584314 
1 0.764706 0.584314 1 0.764706 0.584314 
1 0.764706 0.584314 1 0.764706 0.584314 
1 0.764706 0.584314 1 0.764706 0.584314 
1 0.764706 0.584314 1 0.764706 0.584314 
1 0.764706 0.584314 1 0.764706 0.584314 
1 0.764706 0.584314 1 0.764706 0.584314 
1 0.764706 0.584314 1 0.764706 0.584314 
1 0.764706 0.584314 1 0.764706 0.584314 
1 0.764706 0.584314 1 0.764706 0.584314 
1 0.764706 0.584314 1 0.764706 0.584314 
1 0.764706 0.584314 1 0.764706 0.584314 
1 0.764706 0.584314 1 0.764706 0.584314 
1 0.764706 0.584314 1 0.764706 0.584314 
1 0.764706 0.584314 1 0.764706 0.584314 
1 0.764706 0.584314 1 0.764706 0.584314 
1 0.764706 0.584314 1 0.764706 0.584314 
1 0.764706 0.584314 1 0.764706 0.584314 
1 0.764706 0.584314 1 0.764706 0.584314 
1 0.764706 0.584314 1 0.764706 0.584314 
1 0.764706 0.584314 1 0.764706 0.584314 
1 0.764706 0.584314 1 0.764706 0.584314 
1 0.764706 0.584314 1 0.764706 0.584314 
1 0.764706 0.584314 1 0.764706 0.584314 
1 0.764706 0.584314 1 0.764706 0.584314 
1 0.764706 0.584314 1 0.764706 0.584314 
1 0.764706 0.584314 1 0.764706 0.584314 
1 0.764706 0.584314 1 0.764706 0.584314 
1 0.764706 0.584314 1 0.764706 0.584314 
1 0.764706 0.584314 1 0.764706 0.584314 
1 0.764706 0.584314 1 0.764706 0.584314 
1 0.764706 0.584314 1 0.764706 0.584314 
1 0.764706 0.584314 1 0.764706 0.584314 
1 0.764706 0.584314 1 0.764706 0.584314 
1 0.764706 0.584314 1 0.764706 0.584314 
1 0.764706 0.584314 1 0.764706 0.584314 
1 0.764706 0.584314 1 0.764706 0.584314 
1 0.764706 0.584314 1 0.764706 0.584314 
1 0.764706 0.584314 1 0.764706 0.584314 
1 0.764706 0.584314 1 0.764706 0.584314 
1 0.764706 0.584314 1 0.764706 0.584314 
1 0.764706 0.584314 1 0.764706 0.584314 
1 0.764706 0.584314 1 0.764706 0.584314 
1 0.764706 0.584314 1 0.764706 0.584314 
1 0.764706 0.584314 1 0.764706 0.584314 
1 0.764706 0.584314 1 0.764706 0.584314 
1 0.764706 0.584314 1 0.764706 0.584314 
1 0.764706 0.584314 1 0.764706 0.584314 
1 0.764706 0.584314 1 0.764706 0.584314 
1 0.764706 0.584314 1 0.764706 0.584314 
1 0.764706 0.584314 1 0.764706 0.584314 
1 0.764706 0.584314 1 0.764706 0.584314 
1 0.764706 0.584314 1 0.764706 0.584314 
1 0.764706 0.584314 1 0.764706 0.584314 
1 0.764706 0.584314 1 0.764706 0.584314 
1 0.764706 0.584314 1 0.764706 0.584314 
1 0.764706 0.584314 1 0.764706 0.584314 
1 0.764706 0.584314 1 0.764706 0.584314 
1 0.764706 0.584314 1 0.764706 0.584314 
1 0.764706 0.584314 1 0.764706 0.584314 
1 0.764706 0.584314 1 0.764706 0.584314 
1 0.764706 0.584314 1 0.764706 0.584314 
1 0.764706 0.584314 1 0.764706 0.584314 
1 0.764706 0.584314 1 0.764706 0.584314 
1 0.764706 0.584314 1 0.764706 0.584314 
1 0.764706 0.584314 1 0.764706 0.584314 
1 0.764706 0.584314 1 0.764706 0.584314 
1 0.764706 0.584314 1 0.764706 0.584314 
1 0.764706 0.584314 1 0.764706 0.584314 
1 0.764706 0.584314 1 0.764706 0.584314 
1 0.764706 0.584314 1 0.764706 0.584314 
1 0.764706 0.584314 1 0.764706 0.584314 
1 0.764706 0.584314 1 0.764706 0.584314 
1 0.764706 0.584314 1 0.764706 0.584314 
1 0.764706 0.584314 1 0.764706 0.584314 
1 0.764706 0.584314 1 0.764706 0.584314 
1 0.764706 0.584314 1 0.764706 0.584314 
1 0.764706 0.584314 1 0.764706 0.584314 
1 0.764706 0.584314 1 0.764706 0.584314 
1 0.764706 0.584314 1 0.764706 0.584314 
1 0.764706 0.584314 1 0.764706 0.584314 
1 0.764706 0.584314 1 0.764706 0.584314 
1 0.764706 0.584314 1 0.764706 0.584314 
1 0.764706 0.584314 1 0.764706 0.584314 
1 0.764706 0.584314 1 0.764706 0.584314 
1 0.764706 0.584314 1 0.764706 0.584314 

NORMALS Normals float
-0.208678 -0.0763093 -0.975003 0.101606 -0.256189 -0.961272 0.497371 -0.0398213 -0.866624 
-0.126687 0.107001 -0.986155 0.134332 0.130631 -0.982288 -0.117372 0.429549 -0.895383 
0.239452 0.371247 -0.897128 -0.179875 -0.369267 -0.911749 -0.156104 -0.74269 -0.651186 
0.107173 -0.699113 -0.706934 -0.51159 -0.0350687 -0.858514 -0.0858484 -0.409899 -0.908082 
0.0962655 -0.57871 -0.809832 -0.671861 0.21327 -0.709309 0.117039 -0.535044 -0.836678 
0.612586 -0.15227 -0.775598 0.282545 -0.374853 -0.88298 0.721714 -0.470557 -0.507647 
-0.437478 0.156085 -0.885579 -0.170161 -0.246909 -0.953982 -0.0899534 -0.184287 -0.978747 
-0.236973 0.0772723 -0.968438 -0.374846 0.58045 -0.722888 -0.242172 0.333211 -0.911221 
0.78323 0.173179 -0.597127 0.333396 0.484573 -0.808725 0.171343 0.668201 -0.723981 
0.558161 0.471792 -0.682546 0.188301 0.689193 -0.699682 -0.294282 -0.504129 -0.811944 
-0.297389 -0.586906 -0.753061 -0.00573912 -0.762749 -0.646669 0.290315 -0.789803 -0.540305 
0.158977 -0.797073 -0.582581 -0.579766 -0.158458 -0.799226 0.267541 -0.680675 -0.681985 
-0.659873 0.0929575 -0.745605 0.30712 -0.607394 -0.732632 0.896467 -0.357859 -0.261313 
-0.664312 0.355953 -0.657257 -0.664949 0.508573 -0.546988 0.890673 -0.0649973 -0.449975 
-0.519979 0.615666 -0.592096 0.906304 0.289631 -0.307776 -0.136978 0.717853 -0.682587 
0.582339 0.582864 -0.566702 0.0177776 0.84388 -0.536237 0.24773 0.84342 -0.47673 
-0.537716 -0.546112 -0.642358 -0.347383 -0.836527 -0.423731 -0.0840643 -0.811834 -0.577805 
-0.458723 -0.546587 -0.700583 0.107757 -0.886106 -0.450781 -0.661071 -0.279451 -0.696342 
-0.742511 -0.247581 -0.622399 0.262688 -0.822596 -0.504313 0.373253 -0.891863 -0.255465 
0.68305 -0.604879 -0.409346 0.645808 -0.702287 -0.299541 -0.791603 0.135836 -0.595746 
-0.835355 0.313447 -0.45159 -0.703225 0.32475 -0.632465 0.134425 0.891103 -0.433433 
0.544627 0.756021 -0.363062 0.751863 0.606587 -0.258367 -0.00782176 -0.958478 -0.285059 
-0.592212 -0.566915 -0.572618 -0.802071 -0.548116 -0.237173 0.254051 -0.886453 -0.386857 
-0.814686 -0.223536 -0.535088 0.376981 -0.887905 -0.263648 -0.843179 0.119886 -0.524096 
0.980088 -0.0571384 -0.190168 0.350441 0.885163 -0.306067 0.475718 0.793365 -0.37982 
-0.613017 -0.743817 -0.266358 -0.453078 -0.882632 -0.125224 -0.924338 -0.241353 -0.295546 
-0.926205 0.0686123 -0.370725 0.659969 -0.744043 -0.104124 0.903041 -0.397885 -0.161879 
-0.413693 0.848306 -0.330508 0.539473 0.790172 -0.290855 -0.690586 -0.694419 -0.202172 
-0.153137 -0.972015 -0.178146 -0.98028 -0.129881 -0.148937 -0.982471 0.0330908 -0.183455 
0.694228 -0.718456 -0.0432338 -0.900574 0.410071 -0.144251 -0.794141 0.511453 -0.328263 
0.986686 -0.144906 -0.0738492 0.216134 0.935663 -0.278964 0.418306 0.856382 -0.302705 