# vtk DataFile Version 4.2
vtk output
ASCII
DATASET POLYDATA
POINTS 833 float
242.197 284.385 137.959 242.789 283.762 138.455 244.007 284.206 138.015 
244.375 284.692 137.763 241.728 285.972 137.179 244.075 285.334 137.502 
245.473 285.032 137.912 238.207 287.12 137.278 239.84 287.83 136.887 
239.295 290.084 136.879 235.739 290.487 137.812 238.336 290.912 137.128 
235.566 291.389 138.137 235.918 292.242 138.437 237.179 292.199 137.916 
238.85 292.143 137.583 239.686 292.043 137.48 241.134 291.712 137.383 
237.836 292.741 138.209 240.324 293.023 138.316 245.11 283.385 138.928 
236.935 284.866 138.49 238.281 285.372 137.884 245.715 286.202 137.889 
235.559 286.944 138.238 234.631 289.118 138.571 244.62 289.76 137.926 
245.251 290.518 138.56 235.341 292.306 139.084 243.125 291.973 138.078 
236.261 293.208 139.524 239.371 293.547 139.057 241.083 293.308 138.808 
246.571 283.216 139.547 248.412 284.051 139.891 235.445 285.048 138.963 
248.393 285.358 139.718 235.056 286.426 138.69 247.693 288.554 139.773 
234.191 290.047 139.266 234.034 291.116 140.262 244.935 291.454 138.937 
234.822 292.352 140.247 241.83 293.479 139.375 250 281.009 140.017 
250 281.009 140.017 250 281.009 140.017 250 281.009 140.017 
248.866 283.372 140.637 250 281.009 140.017 234.52 283.168 140.732 
233.29 285.267 140.614 233.112 286.698 140.564 233.357 289.668 140.661 
233.8 291.197 141.125 234.639 292.388 141.072 245.091 292.195 139.871 
243.25 293.047 139.325 236.257 293.559 140.932 234.07 282.451 141.755 
250 281.009 140.017 233.838 282.759 141.537 249.643 285.29 141.19 
247.668 290.181 141.199 235.077 292.873 141.543 239.099 294.162 141.207 
241.606 293.947 140.909 233.587 282.253 142.43 234.946 281.587 143.051 
250.609 281.669 143.338 248.222 281.86 142.253 240.137 282.095 142.147 
232.729 284.186 142.026 250.461 284.007 142.39 232.541 285.443 141.945 
232.281 286.511 142.677 245.814 292.133 141.418 253.001 275.686 144.749 
253.001 275.685 144.755 253.001 275.685 144.755 253.001 275.685 144.754 
253.001 275.685 144.755 250.972 280.175 144.531 251.123 280.184 144.633 
251.027 280.815 144.178 251.208 280.443 144.584 233.695 281.422 143.791 
232.935 282.663 142.859 232.687 283.098 142.87 232.684 282.682 143.315 
251.028 282.841 143.517 232.576 283.68 142.679 250.866 284.15 143.322 
232.289 288.113 143.766 248.555 289.717 143.41 236.208 293.469 143.31 
245.064 292.774 142.689 253 275.683 144.766 253 275.682 144.771 
253 275.682 144.769 253 275.683 144.769 251.388 280.329 145.071 
232.862 281.631 144.297 232.196 284.114 144.043 251.314 283.446 144.435 
250.903 284.817 144.134 247.529 290.952 144.128 238.725 293.989 143.509 
241.038 294.05 143.129 253 275.68 144.78 253 275.678 144.792 
253 275.68 144.784 253 275.679 144.789 253 275.678 144.792 
253 275.679 144.786 253 275.679 144.787 233.129 280.227 145.633 
232.903 280.319 145.494 232.991 280.018 145.977 232.87 280.913 145.078 
233.874 280.246 146.112 232.637 281.651 144.901 232.09 286.012 144.925 
233.968 290.76 145.586 253 275.677 144.8 253 275.677 144.799 
253 275.677 144.8 253 275.676 144.804 253 275.677 144.798 
253 275.677 144.8 232.698 279.873 145.838 232.756 279.875 145.924 
251.118 278.7 146.617 232.753 280.319 145.666 232.867 280.006 146.076 
232.718 280.946 145.606 233.354 280.158 146.668 234.071 280.092 146.714 
232.382 282.571 145.586 251.535 282.633 146.389 235.154 291.481 146.425 
252.999 275.676 144.805 253 275.676 144.805 251.21 278.432 147.006 
251.331 278.248 147.397 232.671 279.839 145.88 232.681 279.946 145.817 
232.707 279.875 145.934 232.846 280.359 146.046 233.451 279.979 147.634 
232.829 280.933 146.353 246.942 291.001 146.723 251.417 277.759 148.197 
232.666 279.874 145.885 250.27 277.614 148.15 233.576 279.879 148.1 
232.942 281.43 147.703 236.384 291.626 147.394 240.253 292.867 146.757 
244.578 291.894 147.315 251.428 275.723 149.578 251.095 276.902 148.678 
251.415 276.675 149.146 233.499 279.854 148.245 233.49 279.876 148.307 
233.439 279.977 148.175 233.849 279.833 148.66 234.358 279.679 149.003 
235.515 279.665 148.624 235.725 290.571 148.307 240.931 291.689 148.77 
243.534 291.355 148.803 251.766 273.88 149.941 251.784 273.814 149.941 
251.766 273.886 149.938 251.763 273.883 149.939 251.71 274.089 149.936 
251.708 274.095 149.925 251.702 274.082 149.939 251.602 274.504 149.909 
251.58 274.494 149.889 251.586 274.467 149.948 251.471 275.045 149.792 
251.292 275.105 149.842 251.414 275.168 149.952 234.077 279.694 149.01 
234.076 279.693 149.123 233.994 279.764 149.035 249.146 277.156 149.388 
233.595 280.328 148.694 234.904 279.674 149.911 235.965 279.26 149.978 
233.711 282.997 149.762 233.533 286.196 149.092 249.207 287.449 149.539 
250.458 273.264 151.503 250.459 273.241 151.508 251.763 273.889 149.936 
250.423 273.318 151.531 250.396 273.411 151.51 250.27 273.464 151.554 
250.329 273.599 151.587 251.7 274.09 149.928 250.292 273.799 151.426 
249.88 273.918 151.474 251.563 274.459 149.928 250.3 274.53 151.04 
250.614 274.725 151.276 251.381 274.831 150.011 250.925 275.178 150.375 
251.268 275.916 150.264 251.443 277.751 150.251 235.781 278.74 151.085 
235.705 278.597 151.294 235.584 278.878 151.112 235.832 278.531 151.329 
235.573 279.11 150.63 235.315 279.372 150.842 236.11 278.626 151.29 
236.515 278.848 150.879 244.973 278.357 150.226 251.342 278.632 150.705 
242.978 279.143 149.751 234.277 286.066 150.143 235.234 287.439 150.517 
235.618 288.898 149.936 249.417 272.302 152.5 249.42 272.235 152.5 
249.395 272.286 152.491 249.386 272.282 152.525 249.391 272.432 152.466 
249.235 272.428 152.509 249.339 272.519 152.554 250.407 273.294 151.532 
249.426 272.851 152.302 248.872 272.824 152.394 249.625 273.127 152.421 
250.308 273.385 151.607 249.968 273.458 151.871 250.3 274.014 151.78 
248.485 274.167 151.767 235.73 278.301 151.569 235.702 278.307 151.578 
235.735 278.317 151.6 251.103 276.166 150.931 235.748 278.417 151.463 
235.664 278.598 151.421 235.779 278.314 151.604 250.973 277.441 151.594 
235.564 279.044 151.327 236.044 278.491 151.598 237.352 278.718 151.037 
236.835 278.636 151.82 238.25 278.572 151.052 250.985 278.928 151.503 
248.676 286.23 151.717 247.346 287.484 151.76 247.977 271.298 153.119 
247.959 271.252 153.127 247.95 271.278 153.139 247.989 271.522 153.087 
247.781 271.542 153.152 247.972 271.376 153.133 249.364 272.265 152.515 
247.316 271.981 153.151 248.009 271.618 153.149 248.229 271.902 152.972 
249.243 272.32 152.585 248.297 272.382 152.735 248.758 272.323 152.844 
249.979 274.424 152.64 238.016 276.997 152.982 237.969 276.987 152.986 
238.006 277.044 152.96 237.989 276.985 152.999 238.184 277.106 152.92 
238.021 277.227 152.905 238.103 277.028 153.026 235.834 278.452 151.624 
238.127 277.464 152.653 237.909 277.627 152.835 238.533 276.965 153.199 
238.684 277.203 152.682 239.17 276.677 153.018 243.282 276.427 152.311 
235.776 279.235 151.651 236.072 278.797 151.744 237.752 277.996 152.339 
236.301 279.423 152.127 248.502 285.46 152.509 236.935 285.545 152.695 
236.443 287.224 151.562 245.558 287.296 152.84 245.416 270.894 154.061 
245.366 270.868 154.05 245.665 271.004 153.96 245.576 270.95 154.042 
246.299 271.157 153.828 246.087 271.061 153.929 246.301 271.158 153.916 
247.911 271.314 153.143 245.372 270.935 154.035 245.361 271.086 154.048 
247.86 271.413 153.186 246.893 271.46 153.742 239.204 274.017 153.993 
239.182 273.951 153.993 239.206 274.019 153.989 239.198 274.022 153.991 
245.369 271.387 154.034 245.206 271.979 154.158 245.547 271.701 153.86 
247.458 271.636 153.409 239.278 274.218 153.985 239.264 274.218 153.974 
239.259 274.224 153.991 245.272 272.255 153.858 239.448 274.623 153.948 
239.333 274.565 153.938 239.414 274.575 153.999 248.811 273.305 153.522 
239.484 275.059 153.823 239.348 275.314 153.817 239.804 275.102 153.869 
239.719 274.978 154.017 237.997 277.055 152.99 239.43 275.649 153.626 
239.234 275.809 153.758 240.071 275.24 153.99 240.399 275.415 153.784 
240.408 275.352 154.034 243.691 274.334 153.62 238.082 277.234 153.038 
239.144 276.261 153.433 238.967 276.492 153.693 240.388 275.875 153.343 
241.112 275.354 154.12 241.319 275.641 153.465 242.038 275.138 153.826 
249.751 276.346 153.36 250.479 277.901 152.498 237.487 279.963 153.498 
247.307 285.061 153.665 244.172 286.649 153.637 245.365 270.969 154.071 
245.374 271.289 154.11 245.611 271.543 154.219 246.535 271.419 153.956 
239.2 274.023 153.988 244.936 272.561 154.514 244.659 272.671 154.306 
245.453 272.163 154.454 245.743 272.426 154.626 239.246 274.225 153.98 
244.14 273.219 154.375 244.477 272.907 154.178 246.123 272.478 154.62 
247.29 272.508 154.164 239.341 274.649 153.978 242.982 274.263 154.817 
244.361 273.22 153.997 239.367 275.304 153.95 240.147 275.506 154.214 
242.056 274.923 154.306 241.734 275.273 154.642 239.713 276.297 154.317 
240.992 275.756 154.617 248.108 276.445 154.795 238.87 277.667 154.109 
249.014 281.021 153.695 247.51 282.138 154.713 246.391 283.264 154.873 
243.398 284.713 154.791 243.274 274.322 155.042 243.705 274.248 155.191 
242.325 275.116 154.985 242.876 274.842 155.152 244.141 274.802 155.536 
246.392 275.411 155.562 242.26 277.208 155.679 246.551 279.873 155.58 
241.198 283.602 155.066 244.596 275.974 155.869 245.73 276.168 155.812 
246.303 276.691 155.722 241.867 281.086 155.813 244.532 276.469 299.374 
243.129 277.687 299.343 244.735 278.201 299.206 243.427 280.205 299.35 
244.335 280.644 299.41 247.039 274.057 300.471 242.564 276.141 299.658 
241.734 277.104 299.793 242.194 279.595 299.552 245.77 280.09 299.552 
247.551 280.288 300.31 240.637 281.522 300.11 243.594 272.53 300.915 
243.566 272.447 301.15 243.167 272.652 301.041 245.184 272.03 301.039 
245.628 271.647 301.353 246.551 271.62 301.333 242.807 272.881 301.08 
242.444 273.146 301.005 247.872 271.734 301.845 242.116 273.502 300.8 
242.113 273.43 301.074 241.783 273.725 301.012 241.492 274.04 301.085 
241.221 274.376 301.014 241.839 273.956 300.607 241.171 274.645 300.789 
241.543 274.365 300.593 242.009 274.329 300.341 240.234 275.612 301.281 
[...]
POINT_DATA 833
COLOR_SCALARS scalars 3
0.584314 0.894118 0.784314 0.584314 0.894118 0.784314 0.584314 0.894118 0.784314 
0.584314 0.894118 0.784314 0.584314 0.894118 0.784314 
0.584314 0.894118 0.784314 0.584314 0.894118 0.784314 
0.584314 0.894118 0.784314 0.584314 0.894118 0.784314 
0.584314 0.894118 0.784314 0.584314 0.894118 0.784314 
0.584314 0.894118 0.784314 0.584314 0.894118 0.784314 
0.584314 0.894118 0.784314 0.584314 0.894118 0.784314 
0.584314 0.894118 0.784314 0.584314 0.894118 0.784314 
0.584314 0.894118 0.784314 0.584314 0.894118 0.784314 
0.584314 0.894118 0.784314 0.584314 0.894118 0.784314 
0.584314 0.894118 0.784314 0.584314 0.894118 0.784314 
0.584314 0.894118 0.784314 0.584314 0.894118 0.784314 
0.584314 0.894118 0.784314 0.584314 0.894118 0.784314 
0.584314 0.894118 0.784314 0.584314 0.894118 0.784314 
0.584314 0.894118 0.784314 0.584314 0.894118 0.784314 
0.584314 0.894118 0.784314 0.584314 0.894118 0.784314 
0.584314 0.894118 0.784314 0.584314 0.894118 0.784314 
0.584314 0.894118 0.784314 0.584314 0.894118 0.784314 
0.584314 0.894118 0.784314 0.584314 0.894118 0.784314 
0.584314 0.894118 0.784314 0.584314 0.894118 0.784314 
0.584314 0.894118 0.784314 0.584314 0.894118 0.784314 
0.584314 0.894118 0.784314 0.584314 0.894118 0.784314 
0.584314 0.894118 0.784314 0.584314 0.894118 0.784314 
0.584314 0.894118 0.784314 0.584314 0.894118 0.784314 
0.584314 0.894118 0.784314 0.584314 0.894118 0.784314 
0.584314 0.894118 0.784314 0.584314 0.894118 0.784314 
0.584314 0.894118 0.784314 0.584314 0.894118 0.784314 
0.584314 0.894118 0.784314 0.584314 0.894118 0.784314 
0.584314 0.894118 0.784314 0.584314 0.894118 0.784314 
0.584314 0.894118 0.784314 0.584314 0.894118 0.784314 
0.584314 0.894118 0.784314 0.584314 0.894118 0.784314 
0.584314 0.894118 0.784314 0.584314 0.894118 0.784314 
0.584314 0.894118 0.784314 0.584314 0.894118 0.784314 
0.584314 0.894118 0.784314 0.584314 0.894118 0.784314 
0.584314 0.894118 0.784314 0.584314 0.894118 0.784314 
0.584314 0.894118 0.784314 0.584314 0.894118 0.784314 
0.584314 0.894118 0.784314 0.584314 0.894118 0.784314 
0.584314 0.894118 0.784314 0.584314 0.894118 0.784314 
0.584314 0.894118 0.784314 0.584314 0.894118 0.784314 
0.584314 0.894118 0.784314 0.584314 0.894118 0.784314 
0.584314 0.894118 0.784314 0.584314 0.894118 0.784314 
0.584314 0.894118 0.784314 0.584314 0.894118 0.784314 
0.584314 0.894118 0.784314 0.584314 0.894118 0.784314 
0.584314 0.894118 0.784314 0.584314 0.894118 0.784314 
0.584314 0.894118 0.784314 0.584314 0.894118 0.784314 
0.584314 0.894118 0.784314 0.584314 0.894118 0.784314 
0.584314 0.894118 0.784314 0.584314 0.894118 0.784314 
0.584314 0.894118 0.784314 0.584314 0.894118 0.784314 
0.584314 0.894118 0.784314 0.584314 0.894118 0.784314 
0.584314 0.894118 0.784314 0.584314 0.894118 0.784314 
0.584314 0.894118 0.784314 0.584314 0.894118 0.784314 
0.584314 0.894118 0.784314 0.584314 0.894118 0.784314 
0.584314 0.894118 0.784314 0.584314 0.894118 0.784314 
0.584314 0.894118 0.784314 0.584314 0.894118 0.784314 
0.584314 0.894118 0.784314 0.584314 0.894118 0.784314 
0.584314 0.894118 0.784314 0.584314 0.894118 0.784314 
0.584314 0.894118 0.784314 0.584314 0.894118 0.784314 
0.584314 0.894118 0.784314 0.584314 0.894118 0.784314 
0.584314 0.894118 0.784314 0.584314 0.894118 0.784314 
0.584314 0.894118 0.784314 0.584314 0.894118 0.784314 
0.584314 0.894118 0.784314 0.584314 0.894118 0.784314 
0.584314 0.894118 0.784314 0.584314 0.894118 0.784314 
0.584314 0.894118 0.784314 0.584314 0.894118 0.784314 
0.584314 0.894118 0.784314 0.584314 0.894118 0.784314 
0.584314 0.894118 0.784314 0.584314 0.894118 0.784314 
0.584314 0.894118 0.784314 0.584314 0.894118 0.784314 
0.584314 0.894118 0.784314 0.584314 0.894118 0.784314 
0.584314 0.894118 0.784314 0.584314 0.894118 0.784314 
0.584314 0.894118 0.784314 0.584314 0.894118 0.784314 
0.584314 0.894118 0.784314 0.584314 0.894118 0.784314 
0.584314 0.894118 0.784314 0.584314 0.894118 0.784314 
0.584314 0.894118 0.784314 0.584314 0.894118 0.784314 
0.584314 0.894118 0.784314 0.584314 0.894118 0.784314 
0.584314 0.894118 0.784314 0.584314 0.894118 0.784314 
0.584314 0.894118 0.784314 0.584314 0.894118 0.784314 
0.584314 0.894118 0.784314 0.584314 0.894118 0.784314 
0.584314 0.894118 0.784314 0.584314 0.894118 0.784314 
0.584314 0.894118 0.784314 0.584314 0.894118 0.784314 
0.584314 0.894118 0.784314 0.584314 0.894118 0.784314 
0.584314 0.894118 0.784314 0.584314 0.894118 0.784314 
0.584314 0.894118 0.784314 0.584314 0.894118 0.784314 
0.584314 0.894118 0.784314 0.584314 0.894118 0.784314 
0.584314 0.894118 0.784314 0.584314 0.894118 0.784314 
0.584314 0.894118 0.784314 0.584314 0.894118 0.784314 
0.584314 0.894118 0.784314 0.584314 0.894118 0.784314 
0.584314 0.894118 0.784314 0.584314 0.894118 0.784314 
0.584314 0.894118 0.784314 0.584314 0.894118 0.784314 
0.584314 0.894118 0.784314 0.584314 0.894118 0.784314 
0.584314 0.894118 0.784314 0.584314 0.894118 0.784314 
0.584314 0.894118 0.784314 0.584314 0.894118 0.784314 
0.584314 0.894118 0.784314 0.584314 0.894118 0.784314 
0.584314 0.894118 0.784314 0.584314 0.894118 0.784314 
0.584314 0.894118 0.784314 0.584314 0.894118 0.784314 
0.584314 0.894118 0.784314 0.584314 0.894118 0.784314 
0.584314 0.894118 0.784314 0.584314 0.894118 0.784314 
0.584314 0.894118 0.784314 0.584314 0.894118 0.784314 
0.584314 0.894118 0.784314 0.584314 0.894118 0.784314 
0.584314 0.894118 0.784314 0.584314 0.894118 0.784314 
0.584314 0.894118 0.784314 0.584314 0.894118 0.784314 
0.584314 0.894118 0.784314 0.584314 0.894118 0.784314 
0.584314 0.894118 0.784314 0.584314 0.894118 0.784314 
0.584314 0.894118 0.784314 0.584314 0.894118 0.784314 
0.584314 0.894118 0.784314 0.584314 0.894118 0.784314 
0.584314 0.894118 0.784314 0.584314 0.894118 0.784314 
0.584314 0.894118 0.784314 0.584314 0.894118 0.784314 
0.584314 0.894118 0.784314 0.584314 0.894118 0.784314 
0.584314 0.894118 0.784314 0.584314 0.894118 0.784314 
0.584314 0.894118 0.784314 0.584314 0.894118 0.784314 
0.584314 0.894118 0.784314 0.584314 0.894118 0.784314 
0.584314 0.894118 0.784314 0.584314 0.894118 0.784314 
0.584314 0.894118 0.784314 0.584314 0.894118 0.784314 
0.584314 0.894118 0.784314 0.584314 0.894118 0.784314 
0.584314 0.894118 0.784314 0.584314 0.894118 0.784314 
0.584314 0.894118 0.784314 0.584314 0.894118 0.784314 
0.584314 0.894118 0.784314 0.584314 0.894118 0.784314 
0.584314 0.894118 0.784314 0.584314 0.894118 0.784314 
0.584314 0.894118 0.784314 0.584314 0.894118 0.784314 
0.584314 0.894118 0.784314 0.584314 0.894118 0.784314 
0.584314 0.894118 0.784314 0.584314 0.894118 0.784314 
0.584314 0.894118 0.784314 0.584314 0.894118 0.784314 
0.584314 0.894118 0.784314 0.584314 0.894118 0.784314 
0.584314 0.894118 0.784314 0.584314 0.894118 0.784314 
0.584314 0.894118 0.784314 0.584314 0.894118 0.784314 
0.584314 0.894118 0.784314 0.584314 0.894118 0.784314 
0.584314 0.894118 0.784314 0.584314 0.894118 0.784314 
0.584314 0.894118 0.784314 0.584314 0.894118 0.784314 
0.584314 0.894118 0.784314 0.584314 0.894118 0.784314 
0.584314 0.894118 0.784314 0.584314 0.894118 0.784314 
0.584314 0.894118 0.784314 0.584314 0.894118 0.784314 
0.584314 0.894118 0.784314 0.584314 0.894118 0.784314 
0.584314 0.894118 0.784314 0.584314 0.894118 0.784314 
0.584314 0.894118 0.784314 0.584314 0.894118 0.784314 
0.584314 0.894118 0.784314 0.584314 0.894118 0.784314 
0.584314 0.894118 0.784314 0.584314 0.894118 0.784314 
0.584314 0.894118 0.784314 0.584314 0.894118 0.784314 
0.584314 0.894118 0.784314 0.584314 0.894118 0.784314 
0.584314 0.894118 0.784314 0.584314 0.894118 0.784314 
0.584314 0.894118 0.784314 0.584314 0.894118 0.784314 
0.584314 0.894118 0.784314 0.584314 0.894118 0.784314 
0.584314 0.894118 0.784314 0.584314 0.894118 0.784314 
0.584314 0.894118 0.784314 0.584314 0.894118 0.784314 
0.584314 0.894118 0.784314 0.584314 0.894118 0.784314 
0.584314 0.894118 0.784314 0.584314 0.894118 0.784314 
0.584314 0.894118 0.784314 0.584314 0.894118 0.784314 
0.584314 0.894118 0.784314 0.584314 0.894118 0.784314 
0.584314 0.894118 0.784314 0.584314 0.894118 0.784314 
0.584314 0.894118 0.784314 0.584314 0.894118 0.784314 
0.584314 0.894118 0.784314 0.584314 0.894118 0.784314 
0.584314 0.894118 0.784314 0.584314 0.894118 0.784314 
0.584314 0.894118 0.784314 0.584314 0.894118 0.784314 
0.584314 0.894118 0.784314 0.584314 0.894118 0.784314 
0.584314 0.894118 0.784314 0.584314 0.894118 0.784314 
0.584314 0.894118 0.784314 0.584314 0.894118 0.784314 
0.584314 0.894118 0.784314 0.584314 0.894118 0.784314 
0.584314 0.894118 0.784314 0.584314 0.894118 0.784314 
0.584314 0.894118 0.784314 0.584314 0.894118 0.784314 
0.584314 0.894118 0.784314 0.584314 0.894118 0.784314 
0.584314 0.894118 0.784314 0.584314 0.894118 0.784314 
0.584314 0.894118 0.784314 0.584314 0.894118 0.784314 
0.584314 0.894118 0.784314 0.584314 0.894118 0.784314 
0.584314 0.894118 0.784314 0.584314 0.894118 0.784314 
0.584314 0.894118 0.784314 0.584314 0.894118 0.784314 
0.584314 0.894118 0.784314 0.584314 0.894118 0.784314 
0.584314 0.894118 0.784314 0.584314 0.894118 0.784314 
0.584314 0.894118 0.784314 0.584314 0.894118 0.784314 
0.584314 0.894118 0.784314 0.584314 0.894118 0.784314 
0.584314 0.894118 0.784314 0.584314 0.894118 0.784314 
0.584314 0.894118 0.784314 0.584314 0.894118 0.784314 
0.584314 0.894118 0.784314 0.584314 0.894118 0.784314 
0.584314 0.894118 0.784314 0.584314 0.894118 0.784314 
0.584314 0.894118 0.784314 0.584314 0.894118 0.784314 
0.584314 0.894118 0.784314 0.584314 0.894118 0.784314 
0.584314 0.894118 0.784314 0.584314 0.894118 0.784314 
0.584314 0.894118 0.784314 0.584314 0.894118 0.784314 
0.584314 0.894118 0.784314 0.584314 0.894118 0.784314 
0.584314 0.894118 0.784314 0.584314 0.894118 0.784314 
0.584314 0.894118 0.784314 0.584314 0.894118 0.784314 
0.584314 0.894118 0.784314 0.584314 0.894118 0.784314 
0.584314 0.894118 0.784314 0.584314 0.894118 0.784314 
0.584314 0.894118 0.784314 0.584314 0.894118 0.784314 
0.584314 0.894118 0.784314 0.584314 0.894118 0.784314 
0.584314 0.894118 0.784314 0.584314 0.894118 0.784314 
0.584314 0.894118 0.784314 0.584314 0.894118 0.784314 
0.584314 0.894118 0.784314 0.584314 0.894118 0.784314 
0.584314 0.894118 0.784314 0.584314 0.894118 0.784314 
0.584314 0.894118 0.784314 0.584314 0.894118 0.784314 
0.584314 0.894118 0.784314 0.584314 0.894118 0.784314 
0.584314 0.894118 0.784314 0.584314 0.894118 0.784314 
0.584314 0.894118 0.784314 0.584314 0.894118 0.784314 
0.584314 0.894118 0.784314 0.584314 0.894118 0.784314 
0.584314 0.894118 0.784314 0.584314 0.894118 0.784314 
0.584314 0.894118 0.784314 0.584314 0.894118 0.784314 
0.584314 0.894118 0.784314 0.584314 0.894118 0.784314 
0.584314 0.894118 0.784314 0.584314 0.894118 0.784314 
0.584314 0.894118 0.784314 0.584314 0.894118 0.784314 
0.584314 0.894118 0.784314 0.584314 0.894118 0.784314 
0.584314 0.894118 0.784314 0.584314 0.894118 0.784314 
0.584314 0.894118 0.784314 0.584314 0.894118 0.784314 
0.584314 0.894118 0.784314 0.584314 0.894118 0.784314 
0.584314 0.894118 0.784314 0.584314 0.894118 0.784314 
0.584314 0.894118 0.784314 0.584314 0.894118 0.784314 
0.584314 0.894118 0.784314 0.584314 0.894118 0.784314 
0.584314 0.894118 0.784314 0.584314 0.894118 0.784314 
0.584314 0.894118 0.784314 0.584314 0.894118 0.784314 
0.584314 0.894118 0.784314 0.584314 0.894118 0.784314 
0.584314 0.894118 0.784314 0.584314 0.894118 0.784314 
0.584314 0.894118 0.784314 0.584314 0.894118 0.784314 
0.584314 0.894118 0.784314 0.584314 0.894118 0.784314 
0.584314 0.894118 0.784314 0.584314 0.894118 0.784314 
0.584314 0.894118 0.784314 0.584314 0.894118 0.784314 
0.584314 0.894118 0.784314 0.584314 0.894118 0.784314 
0.584314 0.894118 0.784314 0.584314 0.894118 0.784314 
0.584314 0.894118 0.784314 0.584314 0.894118 0.784314 
0.584314 0.894118 0.784314 0.584314 0.894118 0.784314 
0.584314 0.894118 0.784314 0.584314 0.894118 0.784314 
0.584314 0.894118 0.784314 0.584314 0.894118 0.784314 
0.584314 0.894118 0.784314 0.584314 0.894118 0.784314 
0.584314 0.894118 0.784314 0.584314 0.894118 0.784314 
0.584314 0.894118 0.784314 0.584314 0.894118 0.784314 
0.584314 0.894118 0.784314 0.584314 0.894118 0.784314 
0.584314 0.894118 0.784314 0.584314 0.894118 0.784314 
0.584314 0.894118 0.784314 0.584314 0.894118 0.784314 
0.584314 0.894118 0.784314 0.584314 0.894118 0.784314 
0.584314 0.894118 0.784314 0.584314 0.894118 0.784314 
0.584314 0.894118 0.784314 0.584314 0.894118 0.784314 
0.584314 0.894118 0.784314 0.584314 0.894118 0.784314 
0.584314 0.894118 0.784314 0.584314 0.894118 0.784314 
0.584314 0.894118 0.784314 0.584314 0.894118 0.784314 
0.584314 0.894118 0.784314 0.584314 0.894118 0.784314 
0.584314 0.894118 0.784314 0.584314 0.894118 0.784314 
0.584314 0.894118 0.784314 0.584314 0.894118 0.784314 
0.584314 0.894118 0.784314 0.584314 0.894118 0.784314 
0.584314 0.894118 0.784314 0.584314 0.894118 0.784314 
0.584314 0.894118 0.784314 0.584314 0.894118 0.784314 
0.584314 0.894118 0.784314 0.584314 0.894118 0.784314 
0.584314 0.894118 0.784314 0.584314 0.894118 0.784314 
0.584314 0.894118 0.784314 0.584314 0.894118 0.784314 
0.584314 0.894118 0.784314 0.584314 0.894118 0.784314 
0.584314 0.894118 0.784314 0.584314 0.894118 0.784314 
0.584314 0.894118 0.784314 0.584314 0.894118 0.784314 
0.584314 0.894118 0.784314 0.584314 0.894118 0.784314 
0.584314 0.894118 0.784314 0.584314 0.894118 0.784314 
0.584314 0.894118 0.784314 0.584314 0.894118 0.784314 
0.584314 0.894118 0.784314 0.584314 0.894118 0.784314 
0.584314 0.894118 0.784314 0.584314 0.894118 0.784314 
0.584314 0.894118 0.784314 0.584314 0.894118 0.784314 
0.584314 0.894118 0.784314 0.584314 0.894118 0.784314 
0.584314 0.894118 0.784314 0.584314 0.894118 0.784314 
0.584314 0.894118 0.784314 0.584314 0.894118 0.784314 
0.584314 0.894118 0.784314 0.584314 0.894118 0.784314 
0.584314 0.894118 0.784314 0.584314 0.894118 0.784314 
0.584314 0.894118 0.784314 0.584314 0.894118 0.784314 
0.584314 0.894118 0.784314 0.584314 0.894118 0.784314 
0.584314 0.894118 0.784314 0.584314 0.894118 0.784314 
0.584314 0.894118 0.784314 0.584314 0.894118 0.784314 
0.584314 0.894118 0.784314 0.584314 0.894118 0.784314 
0.584314 0.894118 0.784314 0.584314 0.894118 0.784314 
0.584314 0.894118 0.784314 0.584314 0.894118 0.784314 
0.584314 0.894118 0.784314 0.584314 0.894118 0.784314 
0.584314 0.894118 0.784314 0.584314 0.894118 0.784314 
0.584314 0.894118 0.784314 0.584314 0.894118 0.784314 
0.584314 0.894118 0.784314 0.584314 0.894118 0.784314 
0.584314 0.894118 0.784314 0.584314 0.894118 0.784314 
0.584314 0.894118 0.784314 0.584314 0.894118 0.784314 
0.584314 0.894118 0.784314 0.584314 0.894118 0.784314 
0.584314 0.894118 0.784314 0.584314 0.894118 0.784314 
0.584314 0.894118 0.784314 0.584314 0.894118 0.784314 
0.584314 0.894118 0.784314 0.584314 0.894118 0.784314 
0.584314 0.894118 0.784314 0.584314 0.894118 0.784314 
0.584314 0.894118 0.784314 0.584314 0.894118 0.784314 
0.584314 0.894118 0.784314 0.584314 0.894118 0.784314 
0.584314 0.894118 0.784314 0.584314 0.894118 0.784314 
0.584314 0.894118 0.784314 0.584314 0.894118 0.784314 
0.584314 0.894118 0.784314 0.584314 0.894118 0.784314 
0.584314 0.894118 0.784314 0.584314 0.894118 0.784314 
0.584314 0.894118 0.784314 0.584314 0.894118 0.784314 
0.584314 0.894118 0.784314 0.584314 0.894118 0.784314 
0.584314 0.894118 0.784314 0.584314 0.894118 0.784314 
0.584314 0.894118 0.784314 0.584314 0.894118 0.784314 
0.584314 0.894118 0.784314 0.584314 0.894118 0.784314 
0.584314 0.894118 0.784314 0.584314 0.894118 0.784314 
0.584314 0.894118 0.784314 0.584314 0.894118 0.784314 
0.584314 0.894118 0.784314 0.584314 0.894118 0.784314 
0.584314 0.894118 0.784314 0.584314 0.894118 0.784314 
0.584314 0.894118 0.784314 0.584314 0.894118 0.784314 
0.584314 0.894118 0.784314 0.584314 0.894118 0.784314 
0.584314 0.894118 0.784314 0.584314 0.894118 0.784314 
0.584314 0.894118 0.784314 0.584314 0.894118 0.784314 
0.584314 0.894118 0.784314 0.584314 0.894118 0.784314 
0.584314 0.894118 0.784314 0.584314 0.894118 0.784314 
0.584314 0.894118 0.784314 0.584314 0.894118 0.784314 
0.584314 0.894118 0.784314 0.584314 0.894118 0.784314 
0.584314 0.894118 0.784314 0.584314 0.894118 0.784314 
0.584314 0.894118 0.784314 0.584314 0.894118 0.784314 
0.584314 0.894118 0.784314 0.584314 0.894118 0.784314 
0.584314 0.894118 0.784314 0.584314 0.894118 0.784314 
0.584314 0.894118 0.784314 0.584314 0.894118 0.784314 
0.584314 0.894118 0.784314 0.584314 0.894118 0.784314 
0.584314 0.894118 0.784314 0.584314 0.894118 0.784314 
0.584314 0.894118 0.784314 0.584314 0.894118 0.784314 
0.584314 0.894118 0.784314 0.584314 0.894118 0.784314 
0.584314 0.894118 0.784314 0.584314 0.894118 0.784314 
0.584314 0.894118 0.784314 0.584314 0.894118 0.784314 
0.584314 0.894118 0.784314 0.584314 0.894118 0.784314 
0.584314 0.894118 0.784314 0.584314 0.894118 0.784314 
0.584314 0.894118 0.784314 0.584314 0.894118 0.784314 
0.584314 0.894118 0.784314 0.584314 0.894118 0.784314 
0.584314 0.894118 0.784314 0.584314 0.894118 0.784314 
0.584314 0.894118 0.784314 0.584314 0.894118 0.784314 
0.584314 0.894118 0.784314 0.584314 0.894118 0.784314 
0.584314 0.894118 0.784314 0.584314 0.894118 0.784314 
0.584314 0.894118 0.784314 0.584314 0.894118 0.784314 
0.584314 0.894118 0.784314 0.584314 0.894118 0.784314 
0.584314 0.894118 0.784314 0.584314 0.894118 0.784314 
0.584314 0.894118 0.784314 0.584314 0.894118 0.784314 
0.584314 0.894118 0.784314 0.584314 0.894118 0.784314 
0.584314 0.894118 0.784314 0.584314 0.894118 0.784314 
0.584314 0.894118 0.784314 0.584314 0.894118 0.784314 
0.584314 0.894118 0.784314 0.584314 0.894118 0.784314 
0.584314 0.894118 0.784314 0.584314 0.894118 0.784314 
0.584314 0.894118 0.784314 0.584314 0.894118 0.784314 
0.584314 0.894118 0.784314 0.584314 0.894118 0.784314 
0.584314 0.894118 0.784314 0.584314 0.894118 0.784314 
0.584314 0.894118 0.784314 0.584314 0.894118 0.784314 
0.584314 0.894118 0.784314 0.584314 0.894118 0.784314 
0.584314 0.894118 0.784314 0.584314 0.894118 0.784314 
0.584314 0.894118 0.784314 0.584314 0.894118 0.784314 
0.584314 0.894118 0.784314 0.584314 0.894118 0.784314 
0.584314 0.894118 0.784314 0.584314 0.894118 0.784314 
0.584314 0.894118 0.784314 0.584314 0.894118 0.784314 
0.584314 0.894118 0.784314 0.584314 0.894118 0.784314 
0.584314 0.894118 0.784314 0.584314 0.894118 0.784314 
0.584314 0.894118 0.784314 0.584314 0.894118 0.784314 
0.584314 0.894118 0.784314 0.584314 0.894118 0.784314 
0.584314 0.894118 0.784314 0.584314 0.894118 0.784314 
0.584314 0.894118 0.784314 0.584314 0.894118 0.784314 
0.584314 0.894118 0.784314 0.584314 0.894118 0.784314 
0.584314 0.894118 0.784314 0.584314 0.894118 0.784314 
0.584314 0.894118 0.784314 0.584314 0.894118 0.784314 
0.584314 0.894118 0.784314 0.584314 0.894118 0.784314 
0.584314 0.894118 0.784314 0.584314 0.894118 0.784314 
0.584314 0.894118 0.784314 0.584314 0.894118 0.784314 
0.584314 0.894118 0.784314 0.584314 0.894118 0.784314 
0.584314 0.894118 0.784314 0.584314 0.894118 0.784314 
0.584314 0.894118 0.784314 0.584314 0.894118 0.784314 
0.584314 0.894118 0.784314 0.584314 0.894118 0.784314 
0.584314 0.894118 0.784314 0.584314 0.894118 0.784314 
0.584314 0.894118 0.784314 0.584314 0.894118 0.784314 
0.584314 0.894118 0.784314 0.584314 0.894118 0.784314 
0.584314 0.894118 0.784314 0.584314 0.894118 0.784314 
0.584314 0.894118 0.784314 0.584314 0.894118 0.784314 
0.584314 0.894118 0.784314 0.584314 0.894118 0.784314 
0.584314 0.894118 0.784314 0.584314 0.894118 0.784314 
0.584314 0.894118 0.784314 0.584314 0.894118 0.784314 
0.584314 0.894118 0.784314 0.584314 0.894118 0.784314 
0.584314 0.894118 0.784314 0.584314 0.894118 0.784314 
0.584314 0.894118 0.784314 0.584314 0.894118 0.784314 
0.584314 0.894118 0.784314 0.584314 0.894118 0.784314 
0.584314 0.894118 0.784314 0.584314 0.894118 0.784314 
0.584314 0.894118 0.784314 0.584314 0.894118 0.784314 
0.584314 0.894118 0.784314 0.584314 0.894118 0.784314 
0.584314 0.894118 0.784314 0.584314 0.894118 0.784314 