# vtk DataFile Version 4.2
vtk output
ASCII
DATASET POLYDATA
POINTS 319 float
243.367 272.703 132.771 243.352 272.955 132.714 242.62 271.708 133.328 
243.022 271.194 133.637 239.372 272.831 133.544 242.578 273.174 132.814 
247.226 273.23 133.74 247.008 274.616 133.594 238.815 275.747 133.428 
239.029 276.929 133.572 244.342 276.301 133.092 246.58 275.887 133.571 
240.356 277.838 133.569 239.833 270.51 134.885 241.533 270.764 134.159 
238.109 271.614 134.624 247.877 271.652 134.572 243.379 278.365 133.666 
240.369 279.512 134.629 243.052 279.668 134.542 240.912 269.636 135.508 
243.566 269.546 135.114 247.483 269.52 135.885 237.269 271.298 135.431 
249.383 273.125 135.359 237.22 279.367 135.789 247.896 279.393 135.954 
239.546 269.193 136.965 240.53 269.433 135.953 236.001 271.19 136.785 
235.818 272.062 136.152 235.546 271.883 136.54 249.619 277.09 136.171 
246.591 280.403 136.091 242.726 281.575 136.903 236.446 270.621 137.112 
235.594 271.569 136.78 234.453 272.715 137.458 235.58 279.398 137.291 
236.793 280.571 137.674 244.149 281.542 136.904 243.71 281.939 137.835 
233.164 275.759 138.966 250.677 277.968 138.463 249.315 279.238 137.398 
238.256 281.684 139.021 246.988 281.282 137.793 248.732 268.417 138.399 
238.415 268.6 139.557 233.484 277.359 138.929 233.935 278.277 138.801 
248.962 280.348 138.81 247.857 267.4 139.857 250.361 268.948 139.677 
233.59 272.365 139.466 232.505 274.83 140.395 252.148 276.029 140.772 
251.139 278.075 140.125 243.982 282.361 140.042 245.667 282.095 139.88 
249.117 267.513 140.792 234.898 270.311 140.643 232.465 273.622 141.27 
251.944 276.945 141.524 232.718 277.496 141.616 233.715 278.994 140.9 
235.207 280.672 141.752 249.266 280.404 140.147 238.715 282.17 141.474 
252.802 273.477 142.63 232.145 275.607 142.429 251.21 278.393 141.799 
251.551 277.861 142.586 241.075 282.48 142.016 251.084 268.424 142.599 
233.449 271.269 142.899 252.519 271.13 142.866 232.296 273.596 142.616 
232.146 274.257 142.857 236.985 281.66 143.565 246.253 266.027 143.834 
247.778 266.233 143.777 248.17 266.245 144.167 232.228 276.531 144.366 
233.978 279.573 144.395 248.843 280.562 143.876 248.926 266.427 144.821 
250.536 267.623 144.774 252.641 274.459 145.138 250.636 278.755 145.197 
251.524 268.91 145.539 234.008 270.515 145.529 233.525 271.184 145.935 
232.777 277.709 145.656 234.317 279.417 146.551 238.055 281.737 145.366 
245.316 265.397 146.835 246.946 265.518 147.129 237.468 267.87 147.044 
251.825 269.835 146.741 252.489 271.343 145.828 232.341 275.334 146.365 
232.591 276.565 146.705 251.521 276.859 146.46 247.082 280.404 147.11 
244.667 281.26 146.751 245.24 265.381 148.096 241.256 266.186 147.573 
249.247 266.666 147.439 250.345 267.68 147.474 233.212 272.112 147.259 
236.883 280.516 147.704 246.953 265.625 148.147 248.81 266.695 148.666 
233.545 272.226 148.435 251.278 274.811 148.584 235.894 279.365 148.92 
248.179 279.278 148.335 244.868 280.219 148.76 246.206 265.651 148.785 
249.344 267.488 149.439 249.973 268.218 149.517 250.603 269.617 149.519 
251.4 273.165 148.785 233.651 276.413 149.16 249.708 277.141 149.266 
234.849 277.908 149.542 247.548 278.515 149.673 246.45 266.607 150.367 
237.504 268.501 150.162 249.339 268.325 150.412 235.416 270.433 150.056 
250.021 271.469 150.632 234.309 273.469 150.116 245.089 278.764 150.626 
237.734 279.094 150.247 240.523 279.222 150.667 242.536 279.175 150.698 
239.739 267.731 151.22 248.467 268.525 151.172 235.338 274.057 151.141 
248.165 274.455 151.786 235.982 276.4 151.298 247.681 267.771 151.091 
240.719 268.504 152.276 246.119 268.377 152.139 246.952 269.639 152.4 
237.829 271.739 152.55 237.337 273.79 152.499 243.251 276.58 152.647 
239.713 276.718 152.512 241.869 269.903 153.336 243.222 270.337 153.572 
240.364 271.215 153.446 244.135 272.49 153.717 240.222 273.991 153.551 
244.616 274.42 153.297 240.786 272.411 153.734 243.314 271.777 153.846 
240.28 270.078 302.477 242.712 269.934 302.224 244.528 269.388 302.518 
245.264 270.032 302.406 241.203 273.014 301.877 243.372 273.439 301.918 
242.375 275.059 302.172 243.798 267.924 303.383 239.157 268.659 303.74 
248.357 269.019 303.853 237.09 271.56 303.386 237.705 273.074 302.821 
248.494 272.164 303.483 236.771 276.461 303.667 237.402 277.399 303.874 
242.985 266.721 304.559 244.415 266.626 304.513 244.824 266.379 304.831 
247.97 267.588 304.447 238.094 268.779 304.381 249.754 269.979 304.6 
249.778 271.542 304.518 235.727 276.344 304.323 247.353 276.391 303.977 
236.725 277.693 304.431 239.017 278.474 304.17 242.736 266.176 305.584 
250.52 269.098 305.88 234.525 271.595 305.797 234.131 274.14 305.63 
234.896 277.54 305.569 249.04 277.498 305.875 236.765 278.368 305.019 
245.534 265.707 306.085 246.472 265.631 306.495 241.963 266.097 306.623 
238.828 267.452 306.087 250.275 268.034 306.335 233.63 272.596 306.589 
250.784 275.167 306.324 235.185 278.435 306.123 243.604 265.583 306.95 
235.261 269.769 307.035 251.716 273.215 307.222 233.552 277.544 307.712 
234.255 278.655 307.566 247.031 265.516 307.664 249.309 266.65 307.52 
237.043 268.161 307.939 250.928 268.222 307.87 252.278 272.142 308.556 
232.555 273.644 308.702 252.212 274.429 308.645 242.16 281.553 308.394 
244.901 265.361 308.326 246.172 265.346 308.389 247.019 265.487 308.636 
252.551 271.442 309.761 232.229 274.865 309.69 232.561 276.328 309.131 
251.604 276.36 308.76 234.411 279.479 308.82 249.038 279.45 308.537 
243.358 265.816 309.829 249.378 266.548 309.797 250.606 267.599 310.032 
251.047 268.149 309.49 252.234 270.287 310.525 252.835 272.701 310.669 
232.701 277.504 310.321 244.677 281.814 309.84 232.483 273.022 311.316 
252.654 274.587 310.71 232.169 276.346 311.493 250.633 278.733 310.693 
235.441 280.72 310.753 244.126 282.215 311.289 248.07 266.246 311.423 
233.714 271.037 312.442 251.486 277.821 312.556 246.954 281.661 311.682 
238.057 282.021 312.632 252.639 274.76 312.842 250.452 279.34 312.405 
249.693 267.503 313.344 232.508 273.521 313.789 232.157 275.316 313.424 
233.778 279.371 313.953 249.719 280.053 313.541 245.502 282.201 313.712 
244.928 266.846 314.482 247.46 266.788 313.761 233.419 272.004 314.71 
252.637 272.803 313.596 251.856 276.635 314.738 249.95 279.668 315.228 
235.174 280.321 315.665 236.325 281.25 314.942 251.517 270.469 315.289 
251.437 277.168 315.87 241.76 282.384 315.756 245.303 282.119 315.384 
250.245 269.593 316.76 235.896 270.369 317.206 233.487 277.469 316.687 
248.628 280.526 316.518 237.198 281.237 317.124 239.213 269.008 317.964 
237.347 269.89 318.177 250.442 270.313 317.367 233.384 274.474 316.973 
251.583 273.907 316.686 233.777 276.245 317.674 249.301 279.417 317.679 
247.611 281.015 317.029 243.226 282.029 317.202 249.172 269.601 318.289 
234.166 273.966 318.063 249.526 278.667 318.356 235.941 279.373 318.79 
246.95 280.714 318.312 238.94 281.193 318.588 248.642 269.614 318.75 
237.207 270.657 319.283 235.405 277.728 319.22 248.949 277.977 319.536 
248.216 279.236 319.252 238.361 280.379 319.38 247.16 280.023 319.173 
242.761 281.417 318.717 247.571 269.716 319.409 244.998 269.837 320.438 
247.099 270.465 320.494 236.949 271.916 320.252 237.967 271.277 320.453 
248.861 270.925 319.574 248.141 271.764 320.622 236.271 274.253 320.46 
249.307 274.031 319.98 236.879 276.252 320.844 248.606 276.288 320.453 
245.032 280.196 319.906 242.739 269.712 320.418 241.35 270.609 321.175 
246.047 270.548 320.946 247.583 271.419 320.891 248.067 272.379 320.914 
248.198 273.929 320.986 246.774 276.298 321.657 238.238 277.43 321.323 
240.211 278.333 321.542 245.005 278.225 321.524 244.014 270.917 321.446 
241.866 272.503 322.378 243.986 272.381 322.352 244.297 272.754 322.465 
246.469 272.186 321.64 242.625 278.038 321.87 243.025 273.489 322.75 
241.508 275.52 322.64 
POLYGONS 630 2520
3 1 6 0 
3 2 6 3 
3 0 6 2 
3 0 5 1 
3 2 5 0 
3 7 6 1 
3 5 4 8 
3 1 5 7 
3 5 8 12 
3 7 5 10 
3 10 5 12 
3 10 12 17 
3 10 11 7 
3 12 8 9 
3 26 11 10 
3 26 10 17 
3 5 13 15 
3 13 5 14 
3 14 3 20 
3 20 3 21 
3 2 14 5 
3 3 14 2 
3 6 21 3 
3 5 15 4 
3 6 7 16 
3 8 4 25 
3 8 25 9 
3 26 7 11 
3 9 18 12 
3 9 25 18 
3 17 19 26 
3 17 12 19 
3 19 12 18 
3 21 6 22 
3 23 15 13 
3 20 28 14 
3 28 13 14 
3 6 16 22 
3 15 30 4 
3 23 30 15 
3 16 7 24 
3 4 30 25 
3 32 7 26 
3 24 7 32 
3 33 26 19 
3 33 19 40 
3 20 21 28 
3 22 47 21 
3 35 23 13 
3 27 13 28 
3 30 29 31 
3 35 29 30 
3 23 35 30 
3 30 31 37 
3 24 32 56 
3 34 25 39 
3 25 34 18 
3 19 18 34 
3 40 19 34 
3 27 28 48 
3 22 53 47 
3 13 48 35 
3 48 13 27 
3 22 16 53 
3 36 31 29 
3 36 29 35 
3 16 24 53 
3 31 36 37 
3 30 37 25 
3 42 25 37 
3 49 25 42 
3 38 25 49 
3 32 26 44 
3 39 25 38 
3 40 46 33 
3 26 33 46 
3 40 34 41 
3 21 47 52 
3 37 36 35 
3 50 38 49 
3 56 32 43 
3 32 44 43 
3 39 38 50 
3 44 46 51 
3 26 46 44 
3 34 39 45 
3 34 45 58 
3 34 58 41 
3 40 41 58 
3 40 58 46 
3 48 28 21 
3 61 35 48 
3 61 37 35 
3 56 69 24 
3 37 55 42 
3 43 44 51 
3 45 39 50 
3 48 21 80 
3 21 52 80 
3 47 53 52 
3 37 61 54 
3 53 24 76 
3 54 62 37 
3 62 55 37 
3 70 42 55 
3 42 64 49 
3 50 49 65 
3 65 49 64 
3 56 43 57 
3 56 57 71 
3 57 43 51 
3 67 57 51 
3 51 59 67 
3 46 59 51 
3 46 58 59 
3 60 52 53 
3 54 61 62 
3 70 55 62 
3 70 64 42 
3 63 56 71 
3 65 66 50 
3 45 50 66 
3 45 66 68 
3 45 73 58 
3 59 58 105 
3 58 73 105 
3 61 75 62 
3 76 24 69 
3 56 63 72 
3 63 71 72 
3 66 65 64 
3 85 57 67 
3 45 68 73 
3 59 105 67 
3 60 81 52 
3 52 81 80 
3 60 53 81 
3 74 53 76 
3 61 48 75 
3 75 77 62 
3 62 77 70 
3 77 78 70 
3 76 69 88 
3 56 88 69 
3 56 72 88 
3 72 85 89 
3 71 85 72 
3 66 64 84 
3 85 71 57 
3 66 84 79 
3 105 85 67 
3 68 66 79 
3 68 79 73 
3 80 81 82 
3 53 86 81 
3 91 75 48 
3 74 76 100 
3 78 83 70 
3 70 83 64 
3 103 72 89 
3 64 94 84 
3 82 86 80 
3 86 82 81 
3 87 86 53 
3 107 48 80 
3 74 87 53 
3 74 100 87 
3 75 101 77 
3 76 88 100 
3 77 101 78 
3 88 72 103 
3 64 83 93 
3 93 94 64 
3 79 84 95 
3 79 95 73 
3 80 96 107 
3 80 86 96 
3 91 48 107 
3 87 100 90 
3 75 92 101 
3 92 75 91 
3 78 101 83 
3 101 93 83 
3 93 116 94 
3 84 94 95 
3 104 85 105 
3 106 96 97 
3 106 107 96 
3 86 97 96 
3 97 86 112 
3 109 86 87 
3 107 98 91 
3 99 87 90 
3 91 98 131 
3 91 131 110 
3 90 100 99 
3 99 100 132 
3 110 92 91 
3 101 102 93 
3 116 93 102 
3 104 89 85 
3 95 111 73 
3 111 105 73 
3 86 108 112 
3 108 86 109 
3 109 87 99 
3 109 99 132 
3 92 110 101 
3 88 103 100 
3 100 103 115 
3 102 124 116 
3 103 117 125 
3 103 89 117 
3 95 94 111 
3 94 116 111 
3 105 127 104 
3 89 104 117 
3 104 127 117 
3 105 136 118 
3 108 113 112 
3 107 106 98 
3 98 106 129 
3 109 121 113 
3 108 109 113 
3 131 114 110 
3 132 100 123 
3 110 114 101 
3 101 114 102 
3 114 124 102 
3 125 115 103 
3 105 118 127 
3 136 105 111 
3 106 97 119 
3 97 112 119 
3 112 113 119 
3 106 138 129 
3 120 113 121 
3 129 131 98 
3 121 109 122 
3 122 109 132 
3 123 100 115 
3 124 126 116 
3 127 125 117 
3 111 116 136 
3 119 128 106 
3 128 119 113 
3 113 143 128 
3 121 130 120 
3 121 122 130 
3 122 132 130 
3 131 133 114 
3 141 132 123 
3 123 115 141 
3 114 133 124 
3 141 115 125 
3 124 133 142 
3 125 127 134 
3 136 116 135 
3 118 136 137 
3 127 118 134 
3 144 138 106 
3 120 139 143 
3 120 143 113 
3 130 139 120 
3 131 129 147 
3 138 147 129 
3 131 148 133 
3 141 154 132 
3 148 140 133 
3 140 142 133 
3 142 126 124 
3 126 142 135 
3 135 142 136 
3 137 149 118 
3 136 149 137 
3 126 135 116 
3 134 118 149 
3 145 128 143 
3 128 144 106 
3 145 143 146 
3 143 139 146 
3 139 130 146 
3 147 148 131 
3 130 132 146 
3 132 154 146 
3 148 142 140 
3 154 141 156 
3 125 149 156 
3 141 125 156 
3 150 142 148 
3 125 134 149 
3 136 142 150 
3 144 128 152 
3 151 144 152 
3 138 144 147 
3 145 152 128 
3 153 147 144 
3 153 144 151 
3 145 154 152 
3 146 154 145 
3 153 157 147 
3 157 148 147 
3 157 155 148 
3 155 150 148 
3 149 150 155 
3 156 149 155 
3 149 136 150 
3 151 152 158 
3 151 158 153 
3 158 157 153 
3 158 155 157 
3 152 154 158 
3 154 156 158 
3 156 155 158 
3 162 161 160 
3 170 163 159 
3 160 159 164 
3 162 160 164 
3 164 159 163 
3 164 171 162 
3 182 171 164 
3 164 163 165 
3 182 164 165 
3 174 160 166 
3 174 166 175 
3 166 177 176 
3 175 166 176 
3 160 174 159 
3 177 166 162 
3 162 166 161 
3 174 167 159 
3 161 166 160 
3 177 162 168 
3 159 167 178 
3 159 178 169 
3 159 169 170 
3 168 162 171 
3 170 169 187 
3 163 170 165 
3 165 170 172 
3 165 184 182 
3 165 172 184 
3 184 172 173 
3 174 178 167 
3 180 179 168 
3 171 180 168 
3 202 180 171 
3 198 202 171 
3 171 182 198 
3 170 181 172 
3 173 181 183 
3 172 181 173 
3 175 200 174 
3 175 176 200 
3 176 177 192 
3 178 174 195 
3 186 196 177 
3 186 177 168 
3 178 201 169 
3 179 186 168 
3 186 180 202 
3 179 180 186 
3 187 188 170 
3 181 170 188 
3 203 181 188 
3 182 190 198 
3 189 181 203 
3 221 190 182 
3 189 199 181 
3 183 191 173 
3 183 181 191 
3 181 199 191 
3 191 184 173 
3 182 184 221 
3 191 199 204 
3 192 213 200 
3 213 192 193 
3 185 194 174 
3 174 200 185 
3 185 200 194 
3 176 192 200 
3 192 177 193 
3 177 205 193 
3 195 174 194 
3 187 169 201 
3 188 187 197 
3 203 188 197 
3 190 221 219 
3 191 212 184 
3 206 205 177 
3 196 206 177 
3 178 195 207 
3 207 201 178 
3 201 197 187 
3 209 186 202 
3 210 218 197 
3 197 218 203 
3 198 219 202 
3 211 202 219 
3 198 190 219 
3 199 203 204 
3 199 189 203 
3 212 191 204 
3 193 205 213 
3 205 206 215 
3 208 206 196 
3 196 186 208 
3 201 210 197 
3 209 202 211 
3 218 210 217 
3 218 220 203 
3 204 203 220 
3 221 184 229 
3 213 205 214 
3 215 214 205 
3 200 222 194 
3 213 222 200 
3 215 213 214 
3 223 215 206 
3 194 237 195 
3 225 206 208 
3 207 195 237 
3 207 237 201 
3 216 226 209 
3 226 186 209 
3 227 216 209 
3 209 211 231 
3 227 209 231 
3 204 220 212 
3 229 184 212 
3 222 237 194 
3 223 206 225 
3 224 223 225 
3 225 208 186 
3 225 186 226 
3 228 218 217 
3 219 231 211 
3 228 220 218 
3 221 233 219 
3 221 239 233 
3 212 220 234 
3 239 221 229 
3 213 236 222 
3 215 236 213 
3 215 223 236 
3 226 224 225 
3 201 237 210 
3 216 227 226 
3 210 230 217 
3 230 232 217 
3 217 232 228 
3 241 231 219 
3 233 241 219 
3 229 212 259 
3 229 259 235 
3 229 235 248 
3 239 229 248 
3 237 222 267 
3 210 237 230 
3 230 244 232 
3 241 227 231 
3 233 242 238 
3 238 241 233 
3 220 228 246 
3 220 246 234 
3 242 233 239 
3 247 242 239 
3 212 234 240 
3 236 249 222 
3 222 249 267 
3 223 250 236 
3 224 243 223 
3 226 227 257 
3 252 257 227 
3 237 244 230 
3 244 245 232 
3 232 245 246 
3 246 228 232 
3 234 246 240 
3 212 240 259 
3 235 259 248 
3 236 250 249 
3 223 243 250 
3 237 267 262 
3 257 224 226 
3 237 251 244 
3 227 241 252 
3 241 238 253 
3 238 242 253 
3 255 240 246 
3 242 247 253 
3 243 261 250 
3 243 224 261 
3 257 261 224 
3 270 241 253 
3 245 263 246 
3 254 258 253 
3 254 253 247 
3 240 255 256 
3 247 239 254 
3 248 274 260 
3 262 251 237 
3 251 269 244 
3 252 241 270 
3 270 253 258 
3 263 255 246 
3 265 255 263 
3 264 258 254 
3 265 256 255 
3 239 273 254 
3 240 256 280 
3 240 280 259 
3 248 259 274 
3 239 248 273 
3 261 289 250 
3 267 249 266 
3 268 261 257 
3 257 252 270 
3 244 263 245 
3 272 258 264 
3 264 254 273 
3 256 265 280 
3 248 260 273 
3 250 289 249 
3 249 301 266 
3 261 275 289 
3 275 261 268 
3 251 262 292 
3 267 292 262 
3 271 263 269 
3 269 263 244 
3 258 272 277 
3 263 278 265 
3 273 272 264 
3 274 259 288 
3 260 274 273 
3 266 301 293 
3 266 282 267 
3 281 275 268 
3 292 267 282 
3 251 276 269 
3 251 292 276 
3 270 297 268 
3 268 257 270 
3 258 284 270 
3 263 271 283 
3 258 277 284 
3 283 278 263 
3 273 279 287 
3 287 277 273 
3 277 272 273 
3 249 289 301 
3 275 281 289 
3 293 282 266 
3 294 281 268 
3 268 297 294 
3 292 296 276 
3 269 276 271 
3 284 277 285 
3 265 278 286 
3 285 277 287 
3 265 286 280 
3 288 300 273 
3 287 279 300 
3 300 279 273 
3 288 259 280 
3 273 274 288 
3 301 289 290 
3 301 302 293 
3 289 303 290 
3 291 303 289 
3 281 294 289 
3 289 294 291 
3 293 292 282 
3 291 295 304 
3 291 294 295 
3 294 297 295 
3 295 297 306 
3 296 283 276 
3 276 283 271 
3 298 283 296 
3 270 284 299 
3 297 270 299 
3 298 308 283 
3 278 283 308 
3 284 307 299 
3 285 307 284 
3 308 286 278 
3 309 316 288 
3 309 280 286 
3 288 280 309 
3 300 288 316 
3 287 300 285 
3 290 303 301 
3 292 293 318 
3 315 303 291 
3 291 304 315 
3 295 305 315 
3 295 315 304 
3 292 318 296 
3 295 306 305 
3 296 318 298 
3 306 315 305 
3 297 299 307 
3 306 297 307 
3 307 285 310 
3 286 308 309 
3 310 300 316 
3 285 300 310 
3 302 301 312 
3 312 301 311 
3 301 303 311 
3 293 302 312 
3 303 315 311 
3 311 317 312 
3 313 317 311 
3 313 311 314 
3 315 314 311 
3 318 293 312 
3 317 318 312 
3 315 307 314 
3 315 306 307 
3 308 298 318 
3 318 316 308 
3 316 309 308 
3 307 316 318 
3 307 310 316 
3 313 314 317 
3 314 307 317 
3 317 307 318 

POINT_DATA 319
COLOR_SCALARS scalars 3
0.584314 0.894118 0.784314 0.584314 0.894118 0.784314 0.584314 0.894118 0.784314 
0.584314 0.894118 0.784314 0.584314 0.894118 0.784314 
0.584314 0.894118 0.784314 0.584314 0.894118 0.784314 
0.584314 0.894118 0.784314 0.584314 0.894118 0.784314 
0.584314 0.894118 0.784314 0.584314 0.894118 0.784314 
0.584314 0.894118 0.784314 0.584314 0.894118 0.784314 
0.584314 0.894118 0.784314 0.584314 0.894118 0.784314 
0.584314 0.894118 0.784314 0.584314 0.894118 0.784314 
0.584314 0.894118 0.784314 0.584314 0.894118 0.784314 
0.584314 0.894118 0.784314 0.584314 0.894118 0.784314 
0.584314 0.894118 0.784314 0.584314 0.894118 0.784314 
0.584314 0.894118 0.784314 0.584314 0.894118 0.784314 
0.584314 0.894118 0.784314 0.584314 0.894118 0.784314 
0.584314 0.894118 0.784314 0.584314 0.894118 0.784314 
0.584314 0.894118 0.784314 0.584314 0.894118 0.784314 
0.584314 0.894118 0.784314 0.584314 0.894118 0.784314 
0.584314 0.894118 0.784314 0.584314 0.894118 0.784314 
0.584314 0.894118 0.784314 0.584314 0.894118 0.784314 
0.584314 0.894118 0.784314 0.584314 0.894118 0.784314 
0.584314 0.894118 0.784314 0.584314 0.894118 0.784314 
0.584314 0.894118 0.784314 0.584314 0.894118 0.784314 
0.584314 0.894118 0.784314 0.584314 0.894118 0.784314 
0.584314 0.894118 0.784314 0.584314 0.894118 0.784314 
0.584314 0.894118 0.784314 0.584314 0.894118 0.784314 
0.584314 0.894118 0.784314 0.584314 0.894118 0.784314 
0.584314 0.894118 0.784314 0.584314 0.894118 0.784314 
0.584314 0.894118 0.784314 0.584314 0.894118 0.784314 
0.584314 0.894118 0.784314 0.584314 0.894118 0.784314 
0.584314 0.894118 0.784314 0.584314 0.894118 0.784314 
0.584314 0.894118 0.784314 0.584314 0.894118 0.784314 
0.584314 0.894118 0.784314 0.584314 0.894118 0.784314 
0.584314 0.894118 0.784314 0.584314 0.894118 0.784314 
0.584314 0.894118 0.784314 0.584314 0.894118 0.784314 
0.584314 0.894118 0.784314 0.584314 0.894118 0.784314 
0.584314 0.894118 0.784314 0.584314 0.894118 0.784314 
0.584314 0.894118 0.784314 0.584314 0.894118 0.784314 
0.584314 0.894118 0.784314 0.584314 0.894118 0.784314 
0.584314 0.894118 0.784314 0.584314 0.894118 0.784314 
0.584314 0.894118 0.784314 0.584314 0.894118 0.784314 
0.584314 0.894118 0.784314 0.584314 0.894118 0.784314 
0.584314 0.894118 0.784314 0.584314 0.894118 0.784314 
0.584314 0.894118 0.784314 0.584314 0.894118 0.784314 
0.584314 0.894118 0.784314 0.584314 0.894118 0.784314 
0.584314 0.894118 0.784314 0.584314 0.894118 0.784314 
0.584314 0.894118 0.784314 0.584314 0.894118 0.784314 
0.584314 0.894118 0.784314 0.584314 0.894118 0.784314 
0.584314 0.894118 0.784314 0.584314 0.894118 0.784314 
0.584314 0.894118 0.784314 0.584314 0.894118 0.784314 
0.584314 0.894118 0.784314 0.584314 0.894118 0.784314 
0.584314 0.894118 0.784314 0.584314 0.894118 0.784314 
0.584314 0.894118 0.784314 0.584314 0.894118 0.784314 
0.584314 0.894118 0.784314 0.584314 0.894118 0.784314 
0.584314 0.894118 0.784314 0.584314 0.894118 0.784314 
0.584314 0.894118 0.784314 0.584314 0.894118 0.784314 
0.584314 0.894118 0.784314 0.584314 0.894118 0.784314 
0.584314 0.894118 0.784314 0.584314 0.894118 0.784314 
0.584314 0.894118 0.784314 0.584314 0.894118 0.784314 
0.584314 0.894118 0.784314 0.584314 0.894118 0.784314 
0.584314 0.894118 0.784314 0.584314 0.894118 0.784314 
0.584314 0.894118 0.784314 0.584314 0.894118 0.784314 
0.584314 0.894118 0.784314 0.584314 0.894118 0.784314 
0.584314 0.894118 0.784314 0.584314 0.894118 0.784314 
0.584314 0.894118 0.784314 0.584314 0.894118 0.784314 
0.584314 0.894118 0.784314 0.584314 0.894118 0.784314 
0.584314 0.894118 0.784314 0.584314 0.894118 0.784314 
0.584314 0.894118 0.784314 0.584314 0.894118 0.784314 
0.584314 0.894118 0.784314 0.584314 0.894118 0.784314 
0.584314 0.894118 0.784314 0.584314 0.894118 0.784314 
0.584314 0.894118 0.784314 0.584314 0.894118 0.784314 
0.584314 0.894118 0.784314 0.584314 0.894118 0.784314 
0.584314 0.894118 0.784314 0.584314 0.894118 0.784314 
0.584314 0.894118 0.784314 0.584314 0.894118 0.784314 
0.584314 0.894118 0.784314 0.584314 0.894118 0.784314 
0.584314 0.894118 0.784314 0.584314 0.894118 0.784314 
0.584314 0.894118 0.784314 0.584314 0.894118 0.784314 
0.584314 0.894118 0.784314 0.584314 0.894118 0.784314 
0.584314 0.894118 0.784314 0.584314 0.894118 0.784314 
0.584314 0.894118 0.784314 0.584314 0.894118 0.784314 
0.584314 0.894118 0.784314 0.584314 0.894118 0.784314 
0.584314 0.894118 0.784314 0.584314 0.894118 0.784314 
0.584314 0.894118 0.784314 0.584314 0.894118 0.784314 
0.584314 0.894118 0.784314 0.584314 0.894118 0.784314 
0.584314 0.894118 0.784314 0.584314 0.894118 0.784314 
0.584314 0.894118 0.784314 0.584314 0.894118 0.784314 
0.584314 0.894118 0.784314 0.584314 0.894118 0.784314 
0.584314 0.894118 0.784314 0.584314 0.894118 0.784314 
0.584314 0.894118 0.784314 0.584314 0.894118 0.784314 
0.584314 0.894118 0.784314 0.584314 0.894118 0.784314 
0.584314 0.894118 0.784314 0.584314 0.894118 0.784314 
0.584314 0.894118 0.784314 0.584314 0.894118 0.784314 
0.584314 0.894118 0.784314 0.584314 0.894118 0.784314 
0.584314 0.894118 0.784314 0.584314 0.894118 0.784314 
0.584314 0.894118 0.784314 0.584314 0.894118 0.784314 
0.584314 0.894118 0.784314 0.584314 0.894118 0.784314 
0.584314 0.894118 0.784314 0.584314 0.894118 0.784314 
0.584314 0.894118 0.784314 0.584314 0.894118 0.784314 
0.584314 0.894118 0.784314 0.584314 0.894118 0.784314 
0.584314 0.894118 0.784314 0.584314 0.894118 0.784314 
0.584314 0.894118 0.784314 0.584314 0.894118 0.784314 
0.584314 0.894118 0.784314 0.584314 0.894118 0.784314 
0.584314 0.894118 0.784314 0.584314 0.894118 0.784314 
0.584314 0.894118 0.784314 0.584314 0.894118 0.784314 
0.584314 0.894118 0.784314 0.584314 0.894118 0.784314 
0.584314 0.894118 0.784314 0.584314 0.894118 0.784314 
0.584314 0.894118 0.784314 0.584314 0.894118 0.784314 
0.584314 0.894118 0.784314 0.584314 0.894118 0.784314 
0.584314 0.894118 0.784314 0.584314 0.894118 0.784314 
0.584314 0.894118 0.784314 0.584314 0.894118 0.784314 
0.584314 0.894118 0.784314 0.584314 0.894118 0.784314 
0.584314 0.894118 0.784314 0.584314 0.894118 0.784314 
0.584314 0.894118 0.784314 0.584314 0.894118 0.784314 
0.584314 0.894118 0.784314 0.584314 0.894118 0.784314 
0.584314 0.894118 0.784314 0.584314 0.894118 0.784314 
0.584314 0.894118 0.784314 0.584314 0.894118 0.784314 
0.584314 0.894118 0.784314 0.584314 0.894118 0.784314 
0.584314 0.894118 0.784314 0.584314 0.894118 0.784314 
0.584314 0.894118 0.784314 0.584314 0.894118 0.784314 
0.584314 0.894118 0.784314 0.584314 0.894118 0.784314 
0.584314 0.894118 0.784314 0.584314 0.894118 0.784314 
0.584314 0.894118 0.784314 0.584314 0.894118 0.784314 
0.584314 0.894118 0.784314 0.584314 0.894118 0.784314 
0.584314 0.894118 0.784314 0.584314 0.894118 0.784314 
0.584314 0.894118 0.784314 0.584314 0.894118 0.784314 
0.584314 0.894118 0.784314 0.584314 0.894118 0.784314 
0.584314 0.894118 0.784314 0.584314 0.894118 0.784314 
0.584314 0.894118 0.784314 0.584314 0.894118 0.784314 
0.584314 0.894118 0.784314 0.584314 0.894118 0.784314 
0.584314 0.894118 0.784314 0.584314 0.894118 0.784314 
0.584314 0.894118 0.784314 0.584314 0.894118 0.784314 
0.584314 0.894118 0.784314 0.584314 0.894118 0.784314 
0.584314 0.894118 0.784314 0.584314 0.894118 0.784314 
0.584314 0.894118 0.784314 0.584314 0.894118 0.784314 
0.584314 0.894118 0.784314 0.584314 0.894118 0.784314 
0.584314 0.894118 0.784314 0.584314 0.894118 0.784314 
0.584314 0.894118 0.784314 0.584314 0.894118 0.784314 
0.584314 0.894118 0.784314 0.584314 0.894118 0.784314 
0.584314 0.894118 0.784314 0.584314 0.894118 0.784314 
0.584314 0.894118 0.784314 0.584314 0.894118 0.784314 
0.584314 0.894118 0.784314 0.584314 0.894118 0.784314 
0.584314 0.894118 0.784314 0.584314 0.894118 0.784314 
0.584314 0.894118 0.784314 0.584314 0.894118 0.784314 
0.584314 0.894118 0.784314 0.584314 0.894118 0.784314 
0.584314 0.894118 0.784314 0.584314 0.894118 0.784314 
0.584314 0.894118 0.784314 0.584314 0.894118 0.784314 
0.584314 0.894118 0.784314 0.584314 0.894118 0.784314 
0.584314 0.894118 0.784314 0.584314 0.894118 0.784314 
0.584314 0.894118 0.784314 0.584314 0.894118 0.784314 
0.584314 0.894118 0.784314 0.584314 0.894118 0.784314 
0.584314 0.894118 0.784314 0.584314 0.894118 0.784314 
0.584314 0.894118 0.784314 0.584314 0.894118 0.784314 
0.584314 0.894118 0.784314 0.584314 0.894118 0.784314 
0.584314 0.894118 0.784314 0.584314 0.894118 0.784314 
0.584314 0.894118 0.784314 0.584314 0.894118 0.784314 
0.584314 0.894118 0.784314 0.584314 0.894118 0.784314 
0.584314 0.894118 0.784314 0.584314 0.894118 0.784314 
0.584314 0.894118 0.784314 0.584314 0.894118 0.784314 
0.584314 0.894118 0.784314 0.584314 0.894118 0.784314 
0.584314 0.894118 0.784314 0.584314 0.894118 0.784314 
0.584314 0.894118 0.784314 0.584314 0.894118 0.784314 

NORMALS Normals float
0.0271205 -0.359389 -0.932794 0.0924318 -0.00990979 -0.99567 -0.0568542 -0.463578 -0.88423 
0.0527972 -0.614772 -0.786935 -0.53527 -0.201307 -0.820342 -0.155406 -0.162248 -0.974435 
0.295377 -0.369748 -0.880931 0.461161 0.122439 -0.878828 -0.434535 0.0442293 -0.899568 
-0.362894 0.348875 -0.864057 0.157956 0.22299 -0.961938 0.407738 0.259261 -0.875519 
-0.107202 0.3276 -0.938715 -0.360384 -0.678041 -0.640612 -0.259248 -0.568321 -0.780898 
-0.370359 -0.472634 -0.799657 0.587737 -0.319039 -0.743491 0.132495 0.458331 -0.87885 
-0.209024 0.643198 -0.736617 0.071046 0.646117 -0.759925 -0.190733 -0.735799 -0.649785 
0.0259768 -0.837477 -0.545854 0.303586 -0.634506 -0.710801 -0.472733 -0.633645 -0.612387 
0.807074 -0.123817 -0.577321 -0.606573 0.329047 -0.723738 0.465698 0.495531 -0.733195 
-0.38525 -0.817839 -0.42746 -0.200823 -0.848778 -0.489128 -0.486495 -0.625055 -0.610433 
-0.586463 -0.314888 -0.746262 -0.642265 -0.474545 -0.601916 0.745373 0.245568 -0.61977 
0.292552 0.713589 -0.636556 -0.121483 0.8815 -0.456289 -0.523179 -0.736618 -0.428577 
-0.680239 -0.621093 -0.389255 -0.801201 -0.326816 -0.501267 -0.684231 0.480366 -0.548705 
-0.458302 0.810885 -0.363901 0.157692 0.880996 -0.44607 0.0601759 0.963204 -0.261948 
-0.869747 0.118972 -0.478943 0.832915 0.420945 -0.359246 0.670879 0.580388 -0.461596 
-0.30358 0.926586 -0.221986 0.378996 0.851934 -0.361345 0.345075 -0.816384 -0.463078 
-0.345619 -0.907645 -0.238177 -0.828736 0.265004 -0.492919 -0.714658 0.637931 -0.286893 
0.638466 0.734599 -0.229621 0.236963 -0.896636 -0.374023 0.651574 -0.660853 -0.372458 
-0.812991 -0.489325 -0.315604 -0.941997 -0.0524662 -0.331495 0.961099 0.196843 -0.193758 
0.799111 0.578792 -0.162548 0.0751595 0.988571 -0.130683 0.324438 0.945212 -0.0362556 
0.532812 -0.81226 -0.237372 -0.668361 -0.70856 -0.226355 -0.917743 -0.320219 -0.234963 
0.962366 0.27031 0.0280035 -0.900762 0.426963 -0.0795666 -0.813069 0.558867 -0.163052 
-0.60627 0.788048 -0.106849 0.532178 0.846191 -0.0273303 -0.263748 0.96198 -0.0709336 
0.979971 -0.0271685 -0.197277 -0.983486 0.0632978 -0.169556 0.805043 0.580612 -0.121637 
0.897418 0.42334 0.124195 0.0108661 0.991873 0.126768 0.786842 -0.605605 -0.118839 
-0.79623 -0.604364 -0.0275946 0.953587 -0.249785 -0.168167 -0.961106 -0.272319 -0.0460124 
-0.99561 -0.0909306 -0.022209 -0.363935 0.927509 0.0853163 -0.0126249 -0.980716 -0.19503 
0.43394 -0.85843 -0.273485 0.334054 -0.917035 -0.217839 -0.981042 0.189665 0.0398033 
-0.679214 0.724775 0.115627 0.564862 0.821219 0.0808122 0.453092 -0.881535 -0.132681 
0.717251 -0.692275 -0.0794148 0.980823 0.145042 0.130187 0.678355 0.694101 0.240953 
0.868823 -0.491513 -0.059681 -0.635119 -0.771796 -0.0309097 -0.880552 -0.46771 0.0766475 
-0.881276 0.428839 0.198618 -0.680419 0.692704 0.239146 -0.253085 0.926119 0.279734 
-0.00660058 -0.989188 -0.146506 0.187164 -0.982248 0.0126028 -0.532094 -0.817972 0.21863 
0.844028 -0.437776 0.309788 0.970338 -0.173348 0.168509 -0.980367 -0.110422 0.163361 
-0.889522 0.269333 0.369068 0.848046 0.404523 0.342315 0.362018 0.844571 0.394516 
0.172088 0.942775 0.28559 -0.127752 -0.916133 0.379974 -0.310704 -0.947927 -0.0699797 
0.560258 -0.820561 0.113093 0.832218 -0.540278 0.124551 -0.851037 -0.477029 0.219499 
-0.136296 0.88737 0.440452 0.364124 -0.91496 0.173959 0.512558 -0.77911 0.360931 
-0.883469 -0.189751 0.428343 0.843307 0.213399 0.493249 -0.560377 0.69829 0.445386 
0.530525 0.714137 0.456675 0.137556 0.818337 0.558035 0.161356 -0.923928 0.346874 
0.539592 -0.680252 0.496083 0.751241 -0.545745 0.371214 0.94434 -0.126372 0.303731 
0.834527 0.0523976 0.54847 -0.83065 0.270599 0.486618 0.533102 0.477931 0.698129 
-0.593516 0.550548 0.587057 0.340841 0.716278 0.608912 0.0932489 -0.779716 0.619151 
-0.505408 -0.763803 0.401457 0.642917 -0.336605 0.688008 -0.714986 -0.504768 0.48374 
0.782383 -0.0455434 0.62113 -0.727177 -0.115069 0.676737 0.222594 0.606269 0.763472 
-0.279655 0.665678 0.691857 -0.0874805 0.76832 0.63406 0.11304 0.7192 0.685546 
-0.358171 -0.728877 0.583482 0.502697 -0.441406 0.743274 -0.637121 -0.028965 0.770219 
0.561973 0.198481 0.802989 -0.491737 0.332904 0.804593 0.381983 -0.62222 0.683324 
-0.166189 -0.626335 0.761633 0.194122 -0.480944 0.854991 0.447758 -0.206751 0.869924 
-0.469629 -0.315016 0.82475 -0.482943 -0.0208444 0.875404 0.111356 0.537167 0.836093 
-0.202163 0.432782 0.878539 -0.111621 -0.366185 0.923823 0.0893282 -0.448169 0.889475 
-0.246921 -0.267362 0.931422 0.303784 -0.0537492 0.951223 -0.112857 0.207004 0.971809 
0.191712 0.315191 0.929463 -0.23603 -0.0546684 0.970207 -0.000467327 -0.0370402 0.999314 