# vtk DataFile Version 4.2
vtk output
ASCII
DATASET POLYDATA
POINTS 729 float
494.494 230.743 210.857 493.745 230.705 210.908 495.26 230.825 210.916 
496.113 230.727 211.284 496.009 231.413 210.816 498.176 231.931 211.123 
494.36 231.573 210.82 494.976 231.701 210.755 496.707 231.974 210.773 
498.331 232.181 211.009 498.703 232.499 211.031 495.33 232.254 210.826 
486.738 226.038 212.281 486.284 225.93 212.395 487.17 225.877 212.552 
486.667 226.28 212.203 488.957 227.127 212.049 487.44 227.466 212.002 
487.99 227.358 211.89 488.965 227.593 211.809 489.558 227.258 212.214 
491.753 228.467 211.684 491.251 228.128 211.857 492.938 228.958 211.73 
492.501 229.339 211.276 493.44 229.694 211.222 496.548 230.848 211.479 
492.923 230.861 211.102 497.373 231.273 211.642 499.774 232.385 211.803 
502.123 233.479 211.747 502.19 233.318 212.026 494.714 232.593 211.101 
500.672 233.625 211.371 503.202 233.992 211.713 504.15 233.981 211.938 
506.5 234.55 211.755 506.774 234.44 211.838 493.777 233.185 211.677 
496.608 233.44 211.144 507.109 234.586 211.79 507.762 234.738 211.857 
508.922 235.237 211.891 509.095 235.132 211.966 496.023 234.439 211.817 
501.077 234.627 211.56 507.709 235.318 211.79 510.522 235.882 212.201 
507.774 235.998 212.02 484.956 224.687 213.16 484.711 224.513 213.469 
484.705 224.712 213.297 485.244 224.71 213.093 485.191 224.561 213.244 
484.986 224.968 213.056 484.731 224.904 213.224 484.847 225.228 213.18 
485.134 225.76 213.015 485.576 225.534 212.759 486.438 225.362 212.914 
485.626 226.19 212.742 487.765 226.097 212.743 488.458 226.515 212.553 
487.989 228.963 212.242 494.311 229.61 212.189 488.529 229.913 212.436 
498.497 231.786 211.906 490.833 232.258 212.691 502.868 233.545 212.31 
506.783 234.399 212.014 507.711 234.595 211.964 507.39 234.497 212.017 
507.777 234.623 212.102 508.272 234.807 212.058 509.41 235.214 212.076 
509.93 235.474 212.231 496.376 235.596 212.768 511.775 236.302 212.692 
512.542 236.558 212.877 512.823 236.761 212.941 504.805 236.255 212.494 
506.931 236.419 212.424 508.475 236.528 212.356 508.095 236.622 212.47 
511.155 236.889 212.657 511.518 237.307 213.027 512.262 237.135 212.972 
484.518 224.589 213.579 484.475 224.444 213.933 485.441 224.582 213.603 
485.61 227.542 213.564 497.484 231.421 212.714 500.551 232.778 212.669 
493.289 234.391 213.238 508.886 235.273 212.608 512.735 236.531 212.944 
512.75 236.537 212.98 512.627 236.509 212.946 512.794 236.61 213.001 
509.653 235.726 212.863 511.407 236.192 212.812 512.224 236.436 212.911 
513.004 236.919 213.057 512.906 236.755 213.029 513.045 236.962 213.177 
496.493 236.57 214.028 504.694 236.62 212.995 504.27 236.786 213.314 
513.082 237.087 213.189 507.742 236.971 213.043 512.895 237.26 213.197 
513.031 237.261 213.277 508.637 237.121 213.304 510.641 237.354 213.251 
484.062 224.776 214.593 484.24 225.573 214.227 486.563 229.26 214.343 
493.218 234.739 213.858 504.65 235.169 213.795 507.579 235.756 213.376 
511 236.679 213.369 512.991 237.037 213.3 513.036 237.221 213.357 
504.118 237.026 213.908 504.914 236.987 214.068 505.148 237.155 214.474 
512.961 237.439 213.461 505.733 237.297 214.265 506.483 237.214 213.978 
507.518 237.103 213.649 509.195 237.116 213.44 510.168 237.274 213.445 
511.214 237.621 213.65 511.638 238.218 214.267 512.535 238.14 214.091 
512.782 237.672 213.637 484.204 224.373 215.197 484.08 224.539 214.871 
484.509 224.301 214.864 491.066 233.765 215.469 492.822 234.99 215.245 
503.794 236.586 215.035 504.606 236.657 214.527 504.269 237.074 214.709 
505.609 236.632 214.262 507.939 236.583 213.668 497.286 237.343 215.278 
503.701 237.393 214.541 504.524 237.395 214.746 504.754 237.3 214.865 
505.455 237.249 214.644 506.4 237.08 214.178 507.625 236.903 213.764 
508.62 236.903 213.588 509.577 237.008 213.523 510.511 237.211 213.582 
511.287 237.504 213.78 512.805 237.553 213.651 504.143 237.728 215.006 
505.098 237.599 214.828 505.789 237.453 214.576 507.653 238.907 215.655 
506.923 238.745 215.671 508.051 239.005 215.646 508.592 239.071 215.587 
508.842 239.105 215.561 509.279 239.127 215.489 509.623 239.131 215.424 
510.017 239.11 215.333 510.447 239.054 215.203 510.833 238.969 215.067 
511.182 238.794 214.85 512.605 238.389 214.312 512.587 238.461 214.382 
510.467 239.107 215.244 510.825 239.104 215.183 512.485 238.481 214.404 
511.184 239.022 215.045 511.944 238.806 214.742 483.851 224.85 215.8 
483.9 225.736 216.311 484.291 226.751 216.269 486.781 229.953 216.1 
489.353 232.405 215.748 499.81 234.822 216.233 504.158 237.261 215.34 
504.939 237.567 215.206 505.476 237.954 215.276 497.778 237.607 216.222 
506.542 238.571 215.628 508.424 239.053 215.615 509.286 239.137 215.5 
509.979 239.146 215.369 509.561 239.186 215.486 512.453 238.5 214.44 
504.211 238.193 215.744 507.327 238.886 215.73 508.022 239.041 215.7 
509.63 239.212 215.497 510.12 239.214 215.406 510.281 239.201 215.365 
510.735 239.164 215.254 512.133 238.706 214.648 511.819 238.915 214.865 
508.54 239.128 215.654 509.072 239.182 215.587 509.75 239.211 215.475 
510.517 239.173 215.298 484.095 224.493 216.552 483.924 224.621 216.188 
485.047 224.703 216.905 484.948 227.788 216.927 492.733 230.509 216.628 
488.622 231.855 216.537 490.282 233.231 216.762 498.464 237.702 216.496 
499.134 237.814 216.639 507.576 238.929 215.717 506.691 238.732 215.776 
509.1 239.154 215.557 499.562 237.921 216.49 504.7 238.305 215.904 
505.929 238.558 215.811 509.831 239.204 215.454 511.146 239.112 215.139 
483.836 225.033 217.102 486.33 225.709 217.229 488.344 227.45 217.29 
492.798 231.146 217.555 493.845 231.944 217.633 496.638 233.956 217.579 
492.187 234.544 217.577 500.197 235.851 216.844 493.833 235.702 217.399 
496.052 237.012 217.138 503.895 237.897 216.092 497.123 237.304 217.114 
498.852 237.559 216.99 499.716 237.578 217.016 503.103 237.948 216.291 
504.991 238.267 215.91 484.136 224.756 217.667 483.955 224.837 217.411 
484.063 225.833 217.96 486.627 226.438 218.025 484.498 226.775 217.986 
487.593 227.313 218.058 486.306 229.231 217.801 488.702 231.593 218.156 
490.271 232.924 218.049 490.897 233.371 218.134 496.378 234.107 217.873 
492.017 234.234 217.96 492.594 234.599 218.004 493.681 235.453 217.784 
493.858 235.37 218.01 498.44 236.168 217.764 499.899 236.259 217.173 
495.326 236.454 217.605 498.831 236.483 217.658 498.792 236.759 217.618 
496.168 236.725 217.659 500.626 237.26 217.039 502.363 237.394 216.546 
484.057 224.988 217.849 484.209 224.913 217.977 484.362 224.822 217.881 
484.626 225.045 218.076 484.257 225.174 218.131 484.146 225.697 218.118 
484.186 225.955 218.111 486.514 226.692 218.332 484.753 227.057 218.15 
485.026 227.132 218.365 487.029 227.006 218.23 487.451 227.558 218.371 
485.508 227.944 218.292 491.771 230.984 218.214 488.314 231.074 218.331 
488.726 231.336 218.462 493.095 231.934 218.159 489.965 232.52 218.333 
490.259 232.519 218.454 495.096 233.325 218.083 494.725 233.465 218.322 
491.195 233.456 218.305 496.032 234.196 218.095 492.405 234.117 218.312 
492.835 234.569 218.207 493.141 234.49 218.338 495.963 235.134 218.291 
494.423 235.539 218.068 496.865 236.349 217.97 497.596 236.402 217.908 
484.39 225.034 218.117 484.634 225.409 218.278 484.817 226.017 218.41 
484.955 226.632 218.441 485.987 226.562 218.454 487.754 230.067 218.567 
488.453 230.772 218.593 490.763 230.956 218.604 491.491 231.18 218.476 
492.929 232.837 218.529 494.03 233.258 218.428 493.782 234.449 218.453 
494.598 234.528 218.464 495.382 234.635 218.394 484.625 225.099 236.914 
484.979 225.825 236.687 485.449 225.855 236.731 485.56 225.565 237.012 
485.032 226.327 236.638 485.915 226 236.851 486.396 226.305 236.95 
485.001 226.673 236.73 485.241 227.241 236.808 486.262 227.224 236.473 
485.728 227.587 236.529 486.253 227.85 236.424 486.699 228.835 236.491 
488.928 229.224 236.521 489.317 229.032 236.788 487.097 229.339 236.547 
489.689 229.525 236.676 490.34 229.879 236.849 488.908 230.7 236.403 
489.189 231.331 236.456 489.106 231.546 236.612 489.502 231.724 236.538 
490.641 232.237 236.457 492.836 232.328 236.677 493.428 233.109 236.634 
493.282 232.755 236.68 492.472 233.26 236.543 493.272 233.443 236.625 
494.112 233.521 236.816 493.015 233.945 236.77 484.398 224.867 237.088 
484.214 224.609 237.374 484.146 224.714 237.204 484.192 224.941 237.099 
484.038 224.743 237.278 485.666 225.369 237.446 484.258 225.649 237.109 
486.947 226.631 237.136 487.533 226.992 237.373 488.145 230.826 236.811 
495.676 234.054 237.295 493.416 234.691 237.101 495.94 235.022 237.167 
493.623 235.112 237.316 493.992 235.398 237.424 494.859 235.324 237.171 
497.342 236.13 237.509 498.081 236.117 237.631 484.054 224.615 237.396 
483.962 224.693 237.56 484.301 224.518 237.656 484.939 224.664 238.085 
483.861 225.185 237.991 484.645 227.115 237.766 489.991 229.143 237.272 
490.242 229.079 237.736 488.658 231.544 237.196 489.583 232.446 237.404 
495.024 233.221 237.406 492.227 234.472 237.721 492.739 234.967 238.074 
493.627 235.31 237.58 498.87 235.583 238.035 495.351 236.464 238.178 
496.276 236.525 237.758 495.895 236.654 238.046 496.967 237.186 238.308 
497.061 236.962 237.992 498.774 237.15 238.009 500.646 237.373 238.294 
501.929 237.231 238.593 488.341 231.551 238.378 492.529 234.952 238.442 
494.664 236.137 238.33 500.935 236.184 238.662 501.887 236.972 238.637 
496.571 237.139 238.502 497.923 237.599 238.773 499.186 237.933 238.862 
503.727 238.237 239.149 505.017 238.289 239.345 505.527 238.53 239.396 
499.701 238.001 238.771 503.408 238.314 239.3 483.885 224.611 238.662 
484.314 224.381 238.732 492.484 234.946 238.79 493.825 235.749 239.296 
495.185 236.541 239.502 496.399 237.186 239.518 498.552 237.797 239.148 
505.277 238.15 239.531 506.449 238.755 239.511 506.078 238.538 239.526 
508.086 238.997 239.724 508.568 239.07 239.793 505.104 238.528 239.596 
506.249 238.742 239.576 507.153 238.937 239.573 507.946 239.072 239.64 
508.874 239.137 239.806 507.629 239.032 239.613 508.25 239.115 239.684 
[...]
POINT_DATA 729
COLOR_SCALARS scalars 3
1 0.701961 0.85098 1 0.701961 0.85098 1 0.701961 0.85098 
1 0.701961 0.85098 1 0.701961 0.85098 
1 0.701961 0.85098 1 0.701961 0.85098 
1 0.701961 0.85098 1 0.701961 0.85098 
1 0.701961 0.85098 1 0.701961 0.85098 
1 0.701961 0.85098 1 0.701961 0.85098 
1 0.701961 0.85098 1 0.701961 0.85098 
1 0.701961 0.85098 1 0.701961 0.85098 
1 0.701961 0.85098 1 0.701961 0.85098 
1 0.701961 0.85098 1 0.701961 0.85098 
1 0.701961 0.85098 1 0.701961 0.85098 
1 0.701961 0.85098 1 0.701961 0.85098 
1 0.701961 0.85098 1 0.701961 0.85098 
1 0.701961 0.85098 1 0.701961 0.85098 
1 0.701961 0.85098 1 0.701961 0.85098 
1 0.701961 0.85098 1 0.701961 0.85098 
1 0.701961 0.85098 1 0.701961 0.85098 
1 0.701961 0.85098 1 0.701961 0.85098 
1 0.701961 0.85098 1 0.701961 0.85098 
1 0.701961 0.85098 1 0.701961 0.85098 
1 0.701961 0.85098 1 0.701961 0.85098 
1 0.701961 0.85098 1 0.701961 0.85098 
1 0.701961 0.85098 1 0.701961 0.85098 
1 0.701961 0.85098 1 0.701961 0.85098 
1 0.701961 0.85098 1 0.701961 0.85098 
1 0.701961 0.85098 1 0.701961 0.85098 
1 0.701961 0.85098 1 0.701961 0.85098 
1 0.701961 0.85098 1 0.701961 0.85098 
1 0.701961 0.85098 1 0.701961 0.85098 
1 0.701961 0.85098 1 0.701961 0.85098 
1 0.701961 0.85098 1 0.701961 0.85098 
1 0.701961 0.85098 1 0.701961 0.85098 
1 0.701961 0.85098 1 0.701961 0.85098 
1 0.701961 0.85098 1 0.701961 0.85098 
1 0.701961 0.85098 1 0.701961 0.85098 
1 0.701961 0.85098 1 0.701961 0.85098 
1 0.701961 0.85098 1 0.701961 0.85098 
1 0.701961 0.85098 1 0.701961 0.85098 
1 0.701961 0.85098 1 0.701961 0.85098 
1 0.701961 0.85098 1 0.701961 0.85098 
1 0.701961 0.85098 1 0.701961 0.85098 
1 0.701961 0.85098 1 0.701961 0.85098 
1 0.701961 0.85098 1 0.701961 0.85098 
1 0.701961 0.85098 1 0.701961 0.85098 
1 0.701961 0.85098 1 0.701961 0.85098 
1 0.701961 0.85098 1 0.701961 0.85098 
1 0.701961 0.85098 1 0.701961 0.85098 
1 0.701961 0.85098 1 0.701961 0.85098 
1 0.701961 0.85098 1 0.701961 0.85098 
1 0.701961 0.85098 1 0.701961 0.85098 
1 0.701961 0.85098 1 0.701961 0.85098 
1 0.701961 0.85098 1 0.701961 0.85098 
1 0.701961 0.85098 1 0.701961 0.85098 
1 0.701961 0.85098 1 0.701961 0.85098 
1 0.701961 0.85098 1 0.701961 0.85098 
1 0.701961 0.85098 1 0.701961 0.85098 
1 0.701961 0.85098 1 0.701961 0.85098 
1 0.701961 0.85098 1 0.701961 0.85098 
1 0.701961 0.85098 1 0.701961 0.85098 
1 0.701961 0.85098 1 0.701961 0.85098 
1 0.701961 0.85098 1 0.701961 0.85098 
1 0.701961 0.85098 1 0.701961 0.85098 
1 0.701961 0.85098 1 0.701961 0.85098 
1 0.701961 0.85098 1 0.701961 0.85098 
1 0.701961 0.85098 1 0.701961 0.85098 
1 0.701961 0.85098 1 0.701961 0.85098 
1 0.701961 0.85098 1 0.701961 0.85098 
1 0.701961 0.85098 1 0.701961 0.85098 
1 0.701961 0.85098 1 0.701961 0.85098 
1 0.701961 0.85098 1 0.701961 0.85098 
1 0.701961 0.85098 1 0.701961 0.85098 
1 0.701961 0.85098 1 0.701961 0.85098 
1 0.701961 0.85098 1 0.701961 0.85098 
1 0.701961 0.85098 1 0.701961 0.85098 
1 0.701961 0.85098 1 0.701961 0.85098 
1 0.701961 0.85098 1 0.701961 0.85098 
1 0.701961 0.85098 1 0.701961 0.85098 
1 0.701961 0.85098 1 0.701961 0.85098 
1 0.701961 0.85098 1 0.701961 0.85098 
1 0.701961 0.85098 1 0.701961 0.85098 
1 0.701961 0.85098 1 0.701961 0.85098 
1 0.701961 0.85098 1 0.701961 0.85098 
1 0.701961 0.85098 1 0.701961 0.85098 
1 0.701961 0.85098 1 0.701961 0.85098 
1 0.701961 0.85098 1 0.701961 0.85098 
1 0.701961 0.85098 1 0.701961 0.85098 
1 0.701961 0.85098 1 0.701961 0.85098 
1 0.701961 0.85098 1 0.701961 0.85098 
1 0.701961 0.85098 1 0.701961 0.85098 
1 0.701961 0.85098 1 0.701961 0.85098 
1 0.701961 0.85098 1 0.701961 0.85098 
1 0.701961 0.85098 1 0.701961 0.85098 
1 0.701961 0.85098 1 0.701961 0.85098 
1 0.701961 0.85098 1 0.701961 0.85098 
1 0.701961 0.85098 1 0.701961 0.85098 
1 0.701961 0.85098 1 0.701961 0.85098 
1 0.701961 0.85098 1 0.701961 0.85098 
1 0.701961 0.85098 1 0.701961 0.85098 
1 0.701961 0.85098 1 0.701961 0.85098 
1 0.701961 0.85098 1 0.701961 0.85098 
1 0.701961 0.85098 1 0.701961 0.85098 
1 0.701961 0.85098 1 0.701961 0.85098 
1 0.701961 0.85098 1 0.701961 0.85098 
1 0.701961 0.85098 1 0.701961 0.85098 
1 0.701961 0.85098 1 0.701961 0.85098 
1 0.701961 0.85098 1 0.701961 0.85098 
1 0.701961 0.85098 1 0.701961 0.85098 
1 0.701961 0.85098 1 0.701961 0.85098 
1 0.701961 0.85098 1 0.701961 0.85098 
1 0.701961 0.85098 1 0.701961 0.85098 
1 0.701961 0.85098 1 0.701961 0.85098 
1 0.701961 0.85098 1 0.701961 0.85098 
1 0.701961 0.85098 1 0.701961 0.85098 
1 0.701961 0.85098 1 0.701961 0.85098 
1 0.701961 0.85098 1 0.701961 0.85098 
1 0.701961 0.85098 1 0.701961 0.85098 
1 0.701961 0.85098 1 0.701961 0.85098 
1 0.701961 0.85098 1 0.701961 0.85098 
1 0.701961 0.85098 1 0.701961 0.85098 
1 0.701961 0.85098 1 0.701961 0.85098 
1 0.701961 0.85098 1 0.701961 0.85098 
1 0.701961 0.85098 1 0.701961 0.85098 
1 0.701961 0.85098 1 0.701961 0.85098 
1 0.701961 0.85098 1 0.701961 0.85098 
1 0.701961 0.85098 1 0.701961 0.85098 
1 0.701961 0.85098 1 0.701961 0.85098 
1 0.701961 0.85098 1 0.701961 0.85098 
1 0.701961 0.85098 1 0.701961 0.85098 
1 0.701961 0.85098 1 0.701961 0.85098 
1 0.701961 0.85098 1 0.701961 0.85098 
1 0.701961 0.85098 1 0.701961 0.85098 
1 0.701961 0.85098 1 0.701961 0.85098 
1 0.701961 0.85098 1 0.701961 0.85098 
1 0.701961 0.85098 1 0.701961 0.85098 
1 0.701961 0.85098 1 0.701961 0.85098 
1 0.701961 0.85098 1 0.701961 0.85098 
1 0.701961 0.85098 1 0.701961 0.85098 
1 0.701961 0.85098 1 0.701961 0.85098 
1 0.701961 0.85098 1 0.701961 0.85098 
1 0.701961 0.85098 1 0.701961 0.85098 
1 0.701961 0.85098 1 0.701961 0.85098 
1 0.701961 0.85098 1 0.701961 0.85098 
1 0.701961 0.85098 1 0.701961 0.85098 
1 0.701961 0.85098 1 0.701961 0.85098 
1 0.701961 0.85098 1 0.701961 0.85098 
1 0.701961 0.85098 1 0.701961 0.85098 
1 0.701961 0.85098 1 0.701961 0.85098 
1 0.701961 0.85098 1 0.701961 0.85098 
1 0.701961 0.85098 1 0.701961 0.85098 
1 0.701961 0.85098 1 0.701961 0.85098 
1 0.701961 0.85098 1 0.701961 0.85098 
1 0.701961 0.85098 1 0.701961 0.85098 
1 0.701961 0.85098 1 0.701961 0.85098 
1 0.701961 0.85098 1 0.701961 0.85098 
1 0.701961 0.85098 1 0.701961 0.85098 
1 0.701961 0.85098 1 0.701961 0.85098 
1 0.701961 0.85098 1 0.701961 0.85098 
1 0.701961 0.85098 1 0.701961 0.85098 
1 0.701961 0.85098 1 0.701961 0.85098 
1 0.701961 0.85098 1 0.701961 0.85098 
1 0.701961 0.85098 1 0.701961 0.85098 
1 0.701961 0.85098 1 0.701961 0.85098 
1 0.701961 0.85098 1 0.701961 0.85098 
1 0.701961 0.85098 1 0.701961 0.85098 
1 0.701961 0.85098 1 0.701961 0.85098 
1 0.701961 0.85098 1 0.701961 0.85098 
1 0.701961 0.85098 1 0.701961 0.85098 
1 0.701961 0.85098 1 0.701961 0.85098 
1 0.701961 0.85098 1 0.701961 0.85098 
1 0.701961 0.85098 1 0.701961 0.85098 
1 0.701961 0.85098 1 0.701961 0.85098 
1 0.701961 0.85098 1 0.701961 0.85098 
1 0.701961 0.85098 1 0.701961 0.85098 
1 0.701961 0.85098 1 0.701961 0.85098 
1 0.701961 0.85098 1 0.701961 0.85098 
1 0.701961 0.85098 1 0.701961 0.85098 
1 0.701961 0.85098 1 0.701961 0.85098 
1 0.701961 0.85098 1 0.701961 0.85098 
1 0.701961 0.85098 1 0.701961 0.85098 
1 0.701961 0.85098 1 0.701961 0.85098 
1 0.701961 0.85098 1 0.701961 0.85098 
1 0.701961 0.85098 1 0.701961 0.85098 
1 0.701961 0.85098 1 0.701961 0.85098 
1 0.701961 0.85098 1 0.701961 0.85098 
1 0.701961 0.85098 1 0.701961 0.85098 
1 0.701961 0.85098 1 0.701961 0.85098 
1 0.701961 0.85098 1 0.701961 0.85098 
1 0.701961 0.85098 1 0.701961 0.85098 
1 0.701961 0.85098 1 0.701961 0.85098 
1 0.701961 0.85098 1 0.701961 0.85098 
1 0.701961 0.85098 1 0.701961 0.85098 
1 0.701961 0.85098 1 0.701961 0.85098 
1 0.701961 0.85098 1 0.701961 0.85098 
1 0.701961 0.85098 1 0.701961 0.85098 
1 0.701961 0.85098 1 0.701961 0.85098 
1 0.701961 0.85098 1 0.701961 0.85098 
1 0.701961 0.85098 1 0.701961 0.85098 
1 0.701961 0.85098 1 0.701961 0.85098 
1 0.701961 0.85098 1 0.701961 0.85098 
1 0.701961 0.85098 1 0.701961 0.85098 
1 0.701961 0.85098 1 0.701961 0.85098 
1 0.701961 0.85098 1 0.701961 0.85098 
1 0.701961 0.85098 1 0.701961 0.85098 
1 0.701961 0.85098 1 0.701961 0.85098 
1 0.701961 0.85098 1 0.701961 0.85098 
1 0.701961 0.85098 1 0.701961 0.85098 
1 0.701961 0.85098 1 0.701961 0.85098 
1 0.701961 0.85098 1 0.701961 0.85098 
1 0.701961 0.85098 1 0.701961 0.85098 
1 0.701961 0.85098 1 0.701961 0.85098 
1 0.701961 0.85098 1 0.701961 0.85098 
1 0.701961 0.85098 1 0.701961 0.85098 
1 0.701961 0.85098 1 0.701961 0.85098 
1 0.701961 0.85098 1 0.701961 0.85098 
1 0.701961 0.85098 1 0.701961 0.85098 
1 0.701961 0.85098 1 0.701961 0.85098 
1 0.701961 0.85098 1 0.701961 0.85098 
1 0.701961 0.85098 1 0.701961 0.85098 
1 0.701961 0.85098 1 0.701961 0.85098 
1 0.701961 0.85098 1 0.701961 0.85098 
1 0.701961 0.85098 1 0.701961 0.85098 
1 0.701961 0.85098 1 0.701961 0.85098 
1 0.701961 0.85098 1 0.701961 0.85098 
1 0.701961 0.85098 1 0.701961 0.85098 
1 0.701961 0.85098 1 0.701961 0.85098 
1 0.701961 0.85098 1 0.701961 0.85098 
1 0.701961 0.85098 1 0.701961 0.85098 
1 0.701961 0.85098 1 0.701961 0.85098 
1 0.701961 0.85098 1 0.701961 0.85098 
1 0.701961 0.85098 1 0.701961 0.85098 
1 0.701961 0.85098 1 0.701961 0.85098 
1 0.701961 0.85098 1 0.701961 0.85098 
1 0.701961 0.85098 1 0.701961 0.85098 
1 0.701961 0.85098 1 0.701961 0.85098 
1 0.701961 0.85098 1 0.701961 0.85098 
1 0.701961 0.85098 1 0.701961 0.85098 
1 0.701961 0.85098 1 0.701961 0.85098 
1 0.701961 0.85098 1 0.701961 0.85098 
1 0.701961 0.85098 1 0.701961 0.85098 
1 0.701961 0.85098 1 0.701961 0.85098 
1 0.701961 0.85098 1 0.701961 0.85098 
1 0.701961 0.85098 1 0.701961 0.85098 
1 0.701961 0.85098 1 0.701961 0.85098 
1 0.701961 0.85098 1 0.701961 0.85098 
1 0.701961 0.85098 1 0.701961 0.85098 
1 0.701961 0.85098 1 0.701961 0.85098 
1 0.701961 0.85098 1 0.701961 0.85098 
1 0.701961 0.85098 1 0.701961 0.85098 
1 0.701961 0.85098 1 0.701961 0.85098 
1 0.701961 0.85098 1 0.701961 0.85098 
1 0.701961 0.85098 1 0.701961 0.85098 
1 0.701961 0.85098 1 0.701961 0.85098 
1 0.701961 0.85098 1 0.701961 0.85098 
1 0.701961 0.85098 1 0.701961 0.85098 
1 0.701961 0.85098 1 0.701961 0.85098 
1 0.701961 0.85098 1 0.701961 0.85098 
1 0.701961 0.85098 1 0.701961 0.85098 
1 0.701961 0.85098 1 0.701961 0.85098 
1 0.701961 0.85098 1 0.701961 0.85098 
1 0.701961 0.85098 1 0.701961 0.85098 
1 0.701961 0.85098 1 0.701961 0.85098 
1 0.701961 0.85098 1 0.701961 0.85098 
1 0.701961 0.85098 1 0.701961 0.85098 
1 0.701961 0.85098 1 0.701961 0.85098 
1 0.701961 0.85098 1 0.701961 0.85098 
1 0.701961 0.85098 1 0.701961 0.85098 
1 0.701961 0.85098 1 0.701961 0.85098 
1 0.701961 0.85098 1 0.701961 0.85098 
1 0.701961 0.85098 1 0.701961 0.85098 
1 0.701961 0.85098 1 0.701961 0.85098 
1 0.701961 0.85098 1 0.701961 0.85098 
1 0.701961 0.85098 1 0.701961 0.85098 
1 0.701961 0.85098 1 0.701961 0.85098 
1 0.701961 0.85098 1 0.701961 0.85098 
1 0.701961 0.85098 1 0.701961 0.85098 
1 0.701961 0.85098 1 0.701961 0.85098 
1 0.701961 0.85098 1 0.701961 0.85098 
1 0.701961 0.85098 1 0.701961 0.85098 
1 0.701961 0.85098 1 0.701961 0.85098 
1 0.701961 0.85098 1 0.701961 0.85098 
1 0.701961 0.85098 1 0.701961 0.85098 
1 0.701961 0.85098 1 0.701961 0.85098 
1 0.701961 0.85098 1 0.701961 0.85098 
1 0.701961 0.85098 1 0.701961 0.85098 
1 0.701961 0.85098 1 0.701961 0.85098 
1 0.701961 0.85098 1 0.701961 0.85098 
1 0.701961 0.85098 1 0.701961 0.85098 
1 0.701961 0.85098 1 0.701961 0.85098 
1 0.701961 0.85098 1 0.701961 0.85098 
1 0.701961 0.85098 1 0.701961 0.85098 
1 0.701961 0.85098 1 0.701961 0.85098 
1 0.701961 0.85098 1 0.701961 0.85098 
1 0.701961 0.85098 1 0.701961 0.85098 
1 0.701961 0.85098 1 0.701961 0.85098 
1 0.701961 0.85098 1 0.701961 0.85098 
1 0.701961 0.85098 1 0.701961 0.85098 
1 0.701961 0.85098 1 0.701961 0.85098 
1 0.701961 0.85098 1 0.701961 0.85098 
1 0.701961 0.85098 1 0.701961 0.85098 
1 0.701961 0.85098 1 0.701961 0.85098 
1 0.701961 0.85098 1 0.701961 0.85098 
1 0.701961 0.85098 1 0.701961 0.85098 
1 0.701961 0.85098 1 0.701961 0.85098 
1 0.701961 0.85098 1 0.701961 0.85098 
1 0.701961 0.85098 1 0.701961 0.85098 
1 0.701961 0.85098 1 0.701961 0.85098 
1 0.701961 0.85098 1 0.701961 0.85098 
1 0.701961 0.85098 1 0.701961 0.85098 
1 0.701961 0.85098 1 0.701961 0.85098 
1 0.701961 0.85098 1 0.701961 0.85098 
1 0.701961 0.85098 1 0.701961 0.85098 
1 0.701961 0.85098 1 0.701961 0.85098 
1 0.701961 0.85098 1 0.701961 0.85098 
1 0.701961 0.85098 1 0.701961 0.85098 
1 0.701961 0.85098 1 0.701961 0.85098 
1 0.701961 0.85098 1 0.701961 0.85098 
1 0.701961 0.85098 1 0.701961 0.85098 
1 0.701961 0.85098 1 0.701961 0.85098 
1 0.701961 0.85098 1 0.701961 0.85098 
1 0.701961 0.85098 1 0.701961 0.85098 
1 0.701961 0.85098 1 0.701961 0.85098 
1 0.701961 0.85098 1 0.701961 0.85098 
1 0.701961 0.85098 1 0.701961 0.85098 
1 0.701961 0.85098 1 0.701961 0.85098 
1 0.701961 0.85098 1 0.701961 0.85098 
1 0.701961 0.85098 1 0.701961 0.85098 
1 0.701961 0.85098 1 0.701961 0.85098 
1 0.701961 0.85098 1 0.701961 0.85098 
1 0.701961 0.85098 1 0.701961 0.85098 
1 0.701961 0.85098 1 0.701961 0.85098 
1 0.701961 0.85098 1 0.701961 0.85098 
1 0.701961 0.85098 1 0.701961 0.85098 
1 0.701961 0.85098 1 0.701961 0.85098 
1 0.701961 0.85098 1 0.701961 0.85098 
1 0.701961 0.85098 1 0.701961 0.85098 
1 0.701961 0.85098 1 0.701961 0.85098 
1 0.701961 0.85098 1 0.701961 0.85098 
1 0.701961 0.85098 1 0.701961 0.85098 
1 0.701961 0.85098 1 0.701961 0.85098 
1 0.701961 0.85098 1 0.701961 0.85098 
1 0.701961 0.85098 1 0.701961 0.85098 
1 0.701961 0.85098 1 0.701961 0.85098 
1 0.701961 0.85098 1 0.701961 0.85098 
1 0.701961 0.85098 1 0.701961 0.85098 
1 0.701961 0.85098 1 0.701961 0.85098 
1 0.701961 0.85098 1 0.701961 0.85098 
1 0.701961 0.85098 1 0.701961 0.85098 
1 0.701961 0.85098 1 0.701961 0.85098 
1 0.701961 0.85098 1 0.701961 0.85098 
1 0.701961 0.85098 1 0.701961 0.85098 
1 0.701961 0.85098 1 0.701961 0.85098 
1 0.701961 0.85098 1 0.701961 0.85098 
1 0.701961 0.85098 1 0.701961 0.85098 
1 0.701961 0.85098 1 0.701961 0.85098 
1 0.701961 0.85098 1 0.701961 0.85098 
1 0.701961 0.85098 1 0.701961 0.85098 
1 0.701961 0.85098 1 0.701961 0.85098 
1 0.701961 0.85098 1 0.701961 0.85098 
1 0.701961 0.85098 1 0.701961 0.85098 
1 0.701961 0.85098 1 0.701961 0.85098 
1 0.701961 0.85098 1 0.701961 0.85098 
1 0.701961 0.85098 1 0.701961 0.85098 
1 0.701961 0.85098 1 0.701961 0.85098 
1 0.701961 0.85098 1 0.701961 0.85098 

NORMALS Normals float
0.0576969 -0.358635 -0.931693 -0.264176 0.0106808 -0.964415 0.183545 -0.574289 -0.797812 
0.345867 -0.767182 -0.540192 0.109964 -0.238842 -0.964812 0.401419 -0.690925 -0.601237 
-0.201398 0.0644593 -0.977386 -0.097654 0.0923662 -0.990925 0.128552 -0.124882 -0.983808 
0.31374 -0.428728 -0.847206 0.299514 -0.287753 -0.909665 -0.0227047 0.344164 -0.938635 
0.0424147 -0.538718 -0.841418 -0.296053 -0.25166 -0.921423 0.403462 -0.825564 -0.394541 
-0.33776 0.0159966 -0.941096 0.226596 -0.580318 -0.782231 -0.25937 0.228021 -0.938474 
-0.0636574 -0.153119 -0.986155 0.0457415 -0.299049 -0.953141 0.228635 -0.592727 -0.77227 
0.192398 -0.608204 -0.770111 0.243231 -0.720974 -0.648872 0.351786 -0.783983 -0.511485 
0.0751231 -0.408869 -0.909496 0.0632541 -0.424131 -0.903389 0.373992 -0.924956 -0.0677303 
-0.18511 0.0197897 -0.982518 0.460554 -0.855536 -0.236534 0.429154 -0.841667 -0.327755 
0.297736 -0.712681 -0.635168 0.264616 -0.883652 -0.386183 -0.263317 0.428878 -0.864134 
0.146194 -0.245409 -0.958333 0.212358 -0.749329 -0.627224 0.177875 -0.830097 -0.528488 
0.107294 -0.528096 -0.842379 0.148171 -0.772068 -0.618026 -0.247482 0.581557 -0.774948 
-0.0548335 0.443807 -0.894443 0.143071 -0.394354 -0.907753 0.254111 -0.587899 -0.767986 
0.149724 0.00816763 -0.988694 0.345496 -0.590418 -0.72941 -0.199071 0.619743 -0.759138 
-0.000451273 0.43395 -0.900937 -0.00360196 0.212381 -0.97718 0.327703 -0.228647 -0.916696 
-0.0794969 0.524932 -0.847423 -0.293531 -0.550686 -0.781399 -0.356464 -0.783659 -0.508736 
-0.574279 -0.363878 -0.733346 -0.0234711 -0.53932 -0.841774 0.108017 -0.91456 -0.389759 
-0.4186 -0.159774 -0.894006 -0.738735 0.00657353 -0.673964 -0.755982 0.219464 -0.616707 
-0.755314 0.265238 -0.599291 -0.371286 -0.16027 -0.914582 0.49202 -0.818145 -0.297583 
-0.583637 0.242251 -0.775037 0.427392 -0.856285 -0.290022 0.385686 -0.830559 -0.401768 
-0.531622 0.401987 -0.74551 0.414067 -0.9082 0.0610038 -0.431197 0.524182 -0.734372 
0.429204 -0.90128 0.0589715 -0.554444 0.618358 -0.556979 0.309405 -0.871852 0.379662 
0.183693 -0.979066 -0.0876716 0.268066 -0.854036 -0.445829 0.182006 -0.951424 0.248327 
0.281149 -0.909645 0.305781 0.361204 -0.925587 -0.113226 0.417377 -0.900684 -0.120681 
0.443931 -0.892512 -0.079674 -0.184834 0.719491 -0.669454 0.41228 -0.830894 -0.373685 
0.381053 -0.465676 -0.798714 0.323076 0.031624 -0.945845 -0.052291 0.727661 -0.683941 
-0.117208 0.677879 -0.72577 0.0268825 0.643951 -0.764594 -0.139423 0.738138 -0.660086 
0.0209538 0.617477 -0.78631 0.0156676 0.671642 -0.74071 0.122889 0.578541 -0.806342 
-0.887832 -0.17449 -0.425802 -0.403398 -0.88671 -0.225867 0.501159 -0.865122 0.0200731 
-0.731054 0.492009 -0.472745 0.427999 -0.874508 0.22815 0.322504 -0.940561 0.106469 
-0.507566 0.675732 -0.534568 0.182321 -0.808069 0.560164 0.524833 -0.6027 -0.601084 
0.433502 -0.813111 0.388494 0.110568 -0.940863 0.320238 0.769917 -0.625524 0.126288 
0.213326 -0.685986 0.69564 0.278301 -0.801469 0.529335 0.208924 -0.91814 0.336703 
0.796885 -0.136958 -0.588403 0.740724 -0.485987 -0.463837 0.839669 -0.480902 0.252367 
-0.201905 0.842483 -0.499456 -0.0142778 0.900697 -0.434212 0.0402289 0.884402 -0.464988 
0.73077 0.323533 -0.601084 -0.0615161 0.887535 -0.456615 0.308281 0.623803 -0.718215 
0.78303 0.518308 -0.343833 -0.060524 0.960316 -0.27227 -0.151583 0.942189 -0.298835 
-0.953198 -0.135118 -0.270476 -0.88129 0.283195 -0.378323 -0.701944 0.623913 -0.343523 
-0.493176 0.803617 -0.333131 0.245125 -0.575946 0.779872 0.0745137 -0.573654 0.815701 
0.129895 -0.444769 0.886176 0.331925 -0.528284 0.7815 0.873586 -0.0946813 0.47737 
0.242457 0.939998 -0.24004 -0.0802477 0.996354 -0.0289512 -0.410287 0.786985 -0.460781 
0.859352 0.51065 0.0274028 -0.127818 0.88636 -0.445005 0.224528 0.970998 0.0821636 
0.138318 0.878001 0.458239 -0.0428999 0.804438 0.592485 -0.232932 0.798226 0.555498 
-0.290348 0.944667 -0.152653 -0.067317 0.740264 -0.668938 0.766907 0.0750348 0.637356 
0.490933 0.772048 -0.403642 -0.497396 -0.865329 -0.061658 -0.813671 -0.560812 -0.153067 
0.365839 -0.929418 0.0484238 -0.625545 0.774739 -0.0920531 -0.583422 0.781974 -0.219398 
0.490287 -0.512701 0.70481 0.434426 -0.202422 0.877667 0.992248 0.123663 0.0123163 
0.0576004 -0.571406 0.818644 0.103531 -0.227783 0.968192 -0.288813 0.938213 -0.190638 
0.177673 0.796754 -0.577594 0.0564253 0.159504 -0.985583 0.190586 -0.967504 0.166173 
0.193162 -0.635711 0.747369 0.417375 0.0695167 0.906072 0.195544 0.0860427 0.976913 
0.0990836 0.311166 0.945176 -0.0179228 0.24989 0.968108 -0.211108 0.172909 0.962048 
-0.0862095 -0.397213 0.913668 0.755336 -0.0673088 0.651872 -0.00908265 0.76314 -0.646169 
-0.104756 0.718576 -0.687514 0.659307 0.569955 0.490374 -0.103125 0.350893 -0.93072 
-0.123479 0.471467 -0.873196 -0.147678 0.530775 -0.834547 -0.156298 0.516954 -0.841623 
-0.157476 0.617982 -0.770259 -0.160593 0.571329 -0.804856 -0.164194 0.534913 -0.828799 
-0.164194 0.534913 -0.828799 -0.196926 0.473967 -0.85824 -0.196926 0.473967 -0.85824 
0.11205 -0.672742 0.731343 0.0361219 -0.683859 0.72872 -0.0352466 -0.816609 0.576114 
-0.131035 0.656623 -0.742749 -0.116487 0.689474 -0.714882 0.00993707 -0.740617 0.671854 
-0.127859 0.658608 -0.741544 0.00629571 -0.735848 0.677117 -0.988863 -0.0266602 -0.146422 
-0.959406 0.282029 0.000667302 -0.879986 0.449952 -0.152208 -0.771565 0.635697 -0.024025 
-0.666027 0.736155 -0.120345 0.416048 -0.679507 0.604296 0.487808 -0.720961 0.492198 
0.357436 -0.694033 0.624946 0.32593 -0.719709 0.613016 -0.216699 0.975399 -0.0404646 
-0.132178 0.551098 -0.823905 0.166713 -0.804066 0.570687 0.146238 -0.782688 0.604991 
-0.148299 0.643327 -0.751091 0.130379 -0.846623 0.515976 -0.115817 0.678374 -0.725531 