# vtk DataFile Version 4.2
vtk output
ASCII
DATASET POLYDATA
POINTS 1573 float
118.625 183.84 147.287 118.932 183.879 147.299 119.225 184.009 147.38 
112.977 182.387 147.796 115.109 182.014 147.823 111.994 182.681 147.843 
120.725 182.97 147.886 112.07 183.364 147.894 115.122 183.686 147.633 
123.685 183.498 148.324 124.608 184.043 148.423 115.164 184.231 147.743 
120.872 184.308 147.745 121.928 184.251 147.892 116.005 184.641 147.905 
119.744 184.708 147.856 122.157 184.639 148.026 117.22 184.968 148.259 
119.379 184.986 148.203 121.94 184.849 148.156 113.218 180.76 148.504 
115.766 181.991 147.85 110.316 182.772 148.478 120.741 182.421 148.216 
126.226 183.991 149.044 111.745 184.244 148.478 114.84 184.493 147.939 
123.265 184.676 148.217 124.408 184.681 148.505 112.148 184.475 148.526 
112.373 184.664 148.736 117.165 185.175 148.729 122.119 185.05 148.534 
107.324 177.819 149.975 107.443 179.937 149.367 108.563 179.832 149.234 
109.447 179.109 149.45 112.739 179.735 149.211 118.497 181.232 148.673 
107.62 181.646 149.429 108.459 181.625 149.11 109.389 181.498 148.799 
107.243 182.082 149.863 109.146 183.611 149.75 109.382 183.262 149.218 
128.077 184.307 149.828 109.661 184.052 149.658 127.271 184.57 149.512 
127.76 184.503 149.673 128.658 184.366 150.119 129.052 184.701 150.162 
109.945 184.217 149.492 124.578 185.032 149.054 126.943 184.769 149.539 
128.534 184.755 150.11 110.224 184.38 149.501 117.646 185.257 149.143 
125.659 185.015 149.622 101.826 173.844 151.159 102.007 173.895 151.172 
103.59 176.397 150.55 104.612 176.327 150.581 102.234 176.369 150.733 
108.348 177.84 150.095 104.009 179.973 150.943 106.137 179.916 149.624 
104.493 180.39 150.695 104.25 180.332 150.826 104.361 180.469 150.826 
104.564 180.657 150.939 104.964 180.997 150.974 105.694 181.145 150.408 
105.428 181.26 150.874 106.725 182.135 150.715 106.748 181.897 150.223 
127.325 183.234 150.019 107.902 183.001 150.566 108.379 183.181 150.047 
128.724 184.06 150.495 129.59 184.833 150.221 129.221 184.581 150.303 
110.139 184.337 149.94 110.414 184.468 149.694 111.312 184.598 150.07 
111.75 184.728 149.653 114.323 185.029 149.667 119.836 185.287 149.743 
128.114 184.816 150.061 129.122 184.747 150.332 129.574 184.873 150.223 
129.66 184.904 150.249 129.862 184.943 150.221 129.855 184.958 150.208 
129.968 184.998 150.204 121.44 185.243 149.626 122.501 185.191 149.646 
129.837 184.961 150.216 129.955 184.998 150.206 98.146 169.392 152.459 
96.6932 171.189 151.854 96.9825 172.112 151.796 96.246 171.367 151.977 
97.879 172.366 151.552 98.5553 172.201 151.514 96.4952 172.597 152.153 
95.7508 171.948 152.495 101.663 173.239 151.452 96.4663 173.073 152.435 
97.833 173.717 151.755 98.5883 173.784 151.453 101.273 173.608 151.241 
97.2194 174.027 152.439 102.265 174.319 151.15 104.389 175.056 151.194 
98.7408 175.271 152.051 100.321 175.363 151.204 99.0594 175.873 152.339 
101.381 176.151 151.001 101.59 178.206 152.182 102.446 178.308 151.163 
121.171 179.853 150.75 105.768 181.519 151.315 106.951 182.332 150.89 
107.242 182.478 151.122 128.099 183.395 150.488 128.526 183.568 150.96 
128.684 183.893 151.034 111.997 184.257 151.094 114.969 184.469 151.285 
118.893 184.655 151.314 121.51 184.959 150.751 128.562 184.134 151.123 
129.02 184.44 150.585 129.502 184.733 150.341 129.433 184.742 150.363 
129.743 184.878 150.267 123.08 185.077 150.256 129.863 184.957 150.229 
129.967 184.997 150.209 94.8466 167.24 152.816 94.6266 168.217 152.631 
94.1708 168.829 152.778 94.2074 169.64 152.89 93.7475 169.565 153.4 
95.5603 171.1 152.318 96.1756 173.023 152.878 107.214 175.861 151.4 
101.744 178.39 152.346 101.957 178.533 152.563 127.677 182.097 151.887 
106.312 181.712 151.853 107.658 182.638 151.415 107.879 182.556 151.799 
128.258 183.095 151.312 114.361 183.824 152.205 126.33 184.183 151.932 
129.629 184.824 150.307 91.6334 163.871 153.704 91.3085 164.652 153.963 
91.6409 166.281 154.52 92.6431 167.923 154.034 106.684 174.9 152.113 
98.9939 175.966 153.429 100.349 177.208 153.106 100.775 177.455 153.375 
101.266 177.856 153.142 101.881 178.341 153.012 126.173 179.866 153.38 
127.645 181.806 152.457 128.182 182.806 152.086 128.38 183.286 152.033 
128.225 183.334 152.279 89.4733 153.543 155.451 89.9071 155.55 155.102 
89.8225 155.105 155.247 90.98 158.021 155.018 91.6572 158.663 155.126 
90.018 160.689 154.589 89.4019 160.031 154.893 89.4641 160.819 155.025 
91.1542 161.709 154.153 89.8417 162.391 155.127 90.9989 164.989 154.514 
92.6228 168.134 154.419 95.4721 172.376 154.454 99.8629 176.651 153.647 
126.552 180.035 153.575 105.993 180.695 153.371 126.969 180.464 153.621 
109.742 181.541 153.965 127.612 181.545 153.154 127.66 181.819 153.56 
125.995 183.055 153.603 127.949 182.678 152.856 128.328 183.149 152.379 
87.2893 147.73 156.297 86.8425 148.517 156.092 86.7551 149.062 156.027 
86.8846 149.838 155.92 86.4765 149.765 156.061 88.4144 148.954 156.352 
88.441 149.598 156.196 88.7717 149.158 156.547 86.8239 151.283 155.776 
88.2265 152.999 155.357 89.7061 152.332 156.143 86.89 153.398 155.722 
86.9302 154.127 155.812 87.9027 154.057 155.251 87.4181 154.858 155.465 
89.3937 154.259 155.309 87.5019 156.305 155.623 87.2832 156.234 155.912 
88.4505 157.182 155.118 89.609 157.268 154.883 89.1575 157.995 154.911 
88.2695 158.843 155.686 88.078 158.803 156.101 89.1098 159.068 154.982 
89.0081 160.493 155.473 90.4373 164.21 155.303 91.8675 166.94 155.415 
92.6245 168.252 155.102 93.9 170.506 154.966 95.8022 172.61 154.74 
101.848 177.516 154.464 126.888 180.038 154.167 127.52 181.27 153.758 
127.278 180.756 154.181 127.15 181.932 154.381 128.308 183.044 152.511 
85.5004 142.679 157.145 86.3234 144.923 156.742 86.0889 145.436 156.606 
86.0263 145.925 156.54 85.2194 146.96 156.858 86.0976 147.464 156.377 
88.3688 147.433 156.965 84 151.009 156.017 84 151.009 156.017 
84 151.009 156.017 86.0527 150.547 156.462 84 151.009 156.017 
86.1345 151.26 156.281 84 151.009 156.017 86.0757 151.466 156.373 
86.0348 151.659 156.606 86.527 151.925 155.891 87.6436 157.53 156.505 
92.2308 157.03 156.346 88.1806 159.144 156.185 88.3143 159.42 156.319 
88.8742 160.487 155.827 89.3549 161.503 156.464 90.2283 163.671 156.232 
93.2762 169.102 155.917 96.229 172.653 155.375 100.227 175.92 155.111 
102.313 176.875 155.577 126.702 179.503 154.872 126.741 179.394 155.448 
124.28 181.433 156.014 127.122 180.554 155.116 127.265 181.175 154.831 
127.193 181.52 154.742 84.7805 140.057 158.085 83.6651 142.342 158.037 
84.1186 142.22 157.696 83.6489 143.79 157.925 84.2616 143.939 157.419 
83.7151 144.062 157.966 87.5441 144.304 157.616 84.2359 145.257 157.53 
84.5423 145.17 157.24 85.0973 145.443 156.908 88.5485 146.519 157.61 
88.7615 147.787 157.131 89.7224 149.427 157.505 84 151.009 156.017 
85.7163 150.539 157.282 86.5045 153.88 156.624 87.9192 158.371 156.725 
88.0661 158.431 157.109 92.0792 166.774 156.864 93.7592 169.713 156.136 
123.473 175.915 157.408 125.793 180.897 156.377 126.839 180.683 155.74 
84.0796 137.565 158.991 83.5704 138.457 158.815 85.135 139.055 158.622 
83.1445 141.211 158.597 83.1044 141.477 158.643 86.5881 141.357 158.368 
83.1602 141.771 158.595 83.2712 142.275 158.63 83.5746 143.737 158.07 
83.4645 143.473 158.472 84.5041 147.165 158.367 89.5529 147.641 158.369 
91.7687 165.675 157.518 94.5069 169.02 157.725 83.4353 132.877 160.468 
83.5386 132.666 160.701 82.9712 134.642 159.876 84.096 134.986 159.985 
83.0911 136.073 159.472 82.0698 136.585 159.874 82.102 135.883 159.879 
81.9987 137.215 159.975 82.9281 137.352 159.266 85.4497 137.495 159.593 
82.9808 138.274 159.156 82.5977 138.992 159.505 82.932 141.505 159.463 
91.3347 151.438 158.859 87.5518 154.783 159.316 92.6272 166.263 158.096 
93.971 165.71 160.078 124.631 176.111 158.371 124.839 176.11 158.789 
125.828 177.345 157.827 126.441 178.445 157.442 126.324 178.424 157.974 
125.539 179.751 157.944 125.712 179.338 158.337 81.8851 131.94 160.78 
82.6963 132.25 160.628 82.8416 131.713 160.943 83.9693 133.388 160.717 
81.2377 135.516 160.819 89.4286 157.932 160.249 118.805 172.26 159.969 
125.219 176.395 159.583 125.795 177.26 158.779 125.971 177.747 158.721 
125.395 179.047 158.801 125.527 178.655 159.114 126.079 178.78 158.517 
83.0388 129.787 162.103 83.1289 129.509 162.376 81.4085 130.682 161.469 
83.0474 130.283 161.841 83.3232 129.936 162.266 80.5841 131.166 161.69 
81.009 131.085 161.416 80.6755 130.674 161.793 82.4313 131.123 161.177 
84.5259 133.391 161.236 80.922 134.741 161.06 82.2737 139.765 160.848 
94.3397 155.142 160.728 125.046 176.147 160.315 124.171 177.662 160.662 
125.876 178.006 159.131 125.67 177.988 159.467 82.6785 128.841 162.76 
82.681 128.53 163.115 82.9035 128.752 162.921 80.6922 129.44 162.842 
81.7792 128.959 162.78 82.9478 129.125 162.612 80.2906 130.048 162.634 
80.1793 130.527 162.561 84.7566 132.571 162.137 85.8401 134.741 162.229 
82.0336 139.152 161.769 117.376 176.027 162.192 82.0732 128.108 163.729 
81.4592 128.516 163.395 83.1186 128.872 162.997 83.2975 128.738 163.504 
80.3486 129.714 162.89 120.314 171.051 162.568 124.317 175.216 162.249 
121.338 175.905 163.12 83.0052 128.332 163.718 82.7584 128.024 164.144 
80.7783 128.456 164.023 83.5871 128.689 164.22 79.9884 129.763 163.81 
79.6593 130.801 164.449 79.8924 132.814 163.817 81.749 137.507 164.433 
95.7337 162.88 164.674 122.575 172.126 163.253 123.322 173.019 163.945 
124.171 175.146 162.744 123.375 175.77 162.961 123.664 175.516 163.104 
124.47 175.778 161.959 124.186 175.546 162.538 81.5027 127.521 165.19 
83.3426 128.093 164.963 80.3325 128.462 164.733 120.93 170.043 164.63 
122.258 171.306 164.077 123.025 172.318 163.979 122.808 171.841 164.228 
123.28 172.536 165.041 123.571 174.128 163.873 122.794 174.717 164.294 
123.092 173.956 164.847 123.305 174.576 164.06 123.761 175.189 163.314 
123.925 175.458 162.956 80.2129 128.424 165.179 79.6194 129.756 166.185 
123.14 173.122 165.78 123.854 174.971 163.39 82.5719 126.47 167.608 
79.7011 130.886 166.517 98.0776 153.663 167.184 121.418 169.26 166.435 
[...]
POINT_DATA 1573
COLOR_SCALARS scalars 3
0.141176 0.541176 0.368627 0.141176 0.541176 0.368627 0.141176 0.541176 0.368627 
0.141176 0.541176 0.368627 0.141176 0.541176 0.368627 
0.141176 0.541176 0.368627 0.141176 0.541176 0.368627 
0.141176 0.541176 0.368627 0.141176 0.541176 0.368627 
0.141176 0.541176 0.368627 0.141176 0.541176 0.368627 
0.141176 0.541176 0.368627 0.141176 0.541176 0.368627 
0.141176 0.541176 0.368627 0.141176 0.541176 0.368627 
0.141176 0.541176 0.368627 0.141176 0.541176 0.368627 
0.141176 0.541176 0.368627 0.141176 0.541176 0.368627 
0.141176 0.541176 0.368627 0.141176 0.541176 0.368627 
0.141176 0.541176 0.368627 0.141176 0.541176 0.368627 
0.141176 0.541176 0.368627 0.141176 0.541176 0.368627 
0.141176 0.541176 0.368627 0.141176 0.541176 0.368627 
0.141176 0.541176 0.368627 0.141176 0.541176 0.368627 
0.141176 0.541176 0.368627 0.141176 0.541176 0.368627 
0.141176 0.541176 0.368627 0.141176 0.541176 0.368627 
0.141176 0.541176 0.368627 0.141176 0.541176 0.368627 
0.141176 0.541176 0.368627 0.141176 0.541176 0.368627 
0.141176 0.541176 0.368627 0.141176 0.541176 0.368627 
0.141176 0.541176 0.368627 0.141176 0.541176 0.368627 
0.141176 0.541176 0.368627 0.141176 0.541176 0.368627 
0.141176 0.541176 0.368627 0.141176 0.541176 0.368627 
0.141176 0.541176 0.368627 0.141176 0.541176 0.368627 
0.141176 0.541176 0.368627 0.141176 0.541176 0.368627 
0.141176 0.541176 0.368627 0.141176 0.541176 0.368627 
0.141176 0.541176 0.368627 0.141176 0.541176 0.368627 
0.141176 0.541176 0.368627 0.141176 0.541176 0.368627 
0.141176 0.541176 0.368627 0.141176 0.541176 0.368627 
0.141176 0.541176 0.368627 0.141176 0.541176 0.368627 
0.141176 0.541176 0.368627 0.141176 0.541176 0.368627 
0.141176 0.541176 0.368627 0.141176 0.541176 0.368627 
0.141176 0.541176 0.368627 0.141176 0.541176 0.368627 
0.141176 0.541176 0.368627 0.141176 0.541176 0.368627 
0.141176 0.541176 0.368627 0.141176 0.541176 0.368627 
0.141176 0.541176 0.368627 0.141176 0.541176 0.368627 
0.141176 0.541176 0.368627 0.141176 0.541176 0.368627 
0.141176 0.541176 0.368627 0.141176 0.541176 0.368627 
0.141176 0.541176 0.368627 0.141176 0.541176 0.368627 
0.141176 0.541176 0.368627 0.141176 0.541176 0.368627 
0.141176 0.541176 0.368627 0.141176 0.541176 0.368627 
0.141176 0.541176 0.368627 0.141176 0.541176 0.368627 
0.141176 0.541176 0.368627 0.141176 0.541176 0.368627 
0.141176 0.541176 0.368627 0.141176 0.541176 0.368627 
0.141176 0.541176 0.368627 0.141176 0.541176 0.368627 
0.141176 0.541176 0.368627 0.141176 0.541176 0.368627 
0.141176 0.541176 0.368627 0.141176 0.541176 0.368627 
0.141176 0.541176 0.368627 0.141176 0.541176 0.368627 
0.141176 0.541176 0.368627 0.141176 0.541176 0.368627 
0.141176 0.541176 0.368627 0.141176 0.541176 0.368627 
0.141176 0.541176 0.368627 0.141176 0.541176 0.368627 
0.141176 0.541176 0.368627 0.141176 0.541176 0.368627 
0.141176 0.541176 0.368627 0.141176 0.541176 0.368627 
0.141176 0.541176 0.368627 0.141176 0.541176 0.368627 
0.141176 0.541176 0.368627 0.141176 0.541176 0.368627 
0.141176 0.541176 0.368627 0.141176 0.541176 0.368627 
0.141176 0.541176 0.368627 0.141176 0.541176 0.368627 
0.141176 0.541176 0.368627 0.141176 0.541176 0.368627 
0.141176 0.541176 0.368627 0.141176 0.541176 0.368627 
0.141176 0.541176 0.368627 0.141176 0.541176 0.368627 
0.141176 0.541176 0.368627 0.141176 0.541176 0.368627 
0.141176 0.541176 0.368627 0.141176 0.541176 0.368627 
0.141176 0.541176 0.368627 0.141176 0.541176 0.368627 
0.141176 0.541176 0.368627 0.141176 0.541176 0.368627 
0.141176 0.541176 0.368627 0.141176 0.541176 0.368627 
0.141176 0.541176 0.368627 0.141176 0.541176 0.368627 
0.141176 0.541176 0.368627 0.141176 0.541176 0.368627 
0.141176 0.541176 0.368627 0.141176 0.541176 0.368627 
0.141176 0.541176 0.368627 0.141176 0.541176 0.368627 
0.141176 0.541176 0.368627 0.141176 0.541176 0.368627 
0.141176 0.541176 0.368627 0.141176 0.541176 0.368627 
0.141176 0.541176 0.368627 0.141176 0.541176 0.368627 
0.141176 0.541176 0.368627 0.141176 0.541176 0.368627 
0.141176 0.541176 0.368627 0.141176 0.541176 0.368627 
0.141176 0.541176 0.368627 0.141176 0.541176 0.368627 
0.141176 0.541176 0.368627 0.141176 0.541176 0.368627 
0.141176 0.541176 0.368627 0.141176 0.541176 0.368627 
0.141176 0.541176 0.368627 0.141176 0.541176 0.368627 
0.141176 0.541176 0.368627 0.141176 0.541176 0.368627 
0.141176 0.541176 0.368627 0.141176 0.541176 0.368627 
0.141176 0.541176 0.368627 0.141176 0.541176 0.368627 
0.141176 0.541176 0.368627 0.141176 0.541176 0.368627 
0.141176 0.541176 0.368627 0.141176 0.541176 0.368627 
0.141176 0.541176 0.368627 0.141176 0.541176 0.368627 
0.141176 0.541176 0.368627 0.141176 0.541176 0.368627 
0.141176 0.541176 0.368627 0.141176 0.541176 0.368627 
0.141176 0.541176 0.368627 0.141176 0.541176 0.368627 
0.141176 0.541176 0.368627 0.141176 0.541176 0.368627 
0.141176 0.541176 0.368627 0.141176 0.541176 0.368627 
0.141176 0.541176 0.368627 0.141176 0.541176 0.368627 
0.141176 0.541176 0.368627 0.141176 0.541176 0.368627 
0.141176 0.541176 0.368627 0.141176 0.541176 0.368627 
0.141176 0.541176 0.368627 0.141176 0.541176 0.368627 
0.141176 0.541176 0.368627 0.141176 0.541176 0.368627 
0.141176 0.541176 0.368627 0.141176 0.541176 0.368627 
0.141176 0.541176 0.368627 0.141176 0.541176 0.368627 
0.141176 0.541176 0.368627 0.141176 0.541176 0.368627 
0.141176 0.541176 0.368627 0.141176 0.541176 0.368627 
0.141176 0.541176 0.368627 0.141176 0.541176 0.368627 
0.141176 0.541176 0.368627 0.141176 0.541176 0.368627 
0.141176 0.541176 0.368627 0.141176 0.541176 0.368627 
0.141176 0.541176 0.368627 0.141176 0.541176 0.368627 
0.141176 0.541176 0.368627 0.141176 0.541176 0.368627 
0.141176 0.541176 0.368627 0.141176 0.541176 0.368627 
0.141176 0.541176 0.368627 0.141176 0.541176 0.368627 
0.141176 0.541176 0.368627 0.141176 0.541176 0.368627 
0.141176 0.541176 0.368627 0.141176 0.541176 0.368627 
0.141176 0.541176 0.368627 0.141176 0.541176 0.368627 
0.141176 0.541176 0.368627 0.141176 0.541176 0.368627 
0.141176 0.541176 0.368627 0.141176 0.541176 0.368627 
0.141176 0.541176 0.368627 0.141176 0.541176 0.368627 
0.141176 0.541176 0.368627 0.141176 0.541176 0.368627 
0.141176 0.541176 0.368627 0.141176 0.541176 0.368627 
0.141176 0.541176 0.368627 0.141176 0.541176 0.368627 
0.141176 0.541176 0.368627 0.141176 0.541176 0.368627 
0.141176 0.541176 0.368627 0.141176 0.541176 0.368627 
0.141176 0.541176 0.368627 0.141176 0.541176 0.368627 
0.141176 0.541176 0.368627 0.141176 0.541176 0.368627 
0.141176 0.541176 0.368627 0.141176 0.541176 0.368627 
0.141176 0.541176 0.368627 0.141176 0.541176 0.368627 
0.141176 0.541176 0.368627 0.141176 0.541176 0.368627 
0.141176 0.541176 0.368627 0.141176 0.541176 0.368627 
0.141176 0.541176 0.368627 0.141176 0.541176 0.368627 
0.141176 0.541176 0.368627 0.141176 0.541176 0.368627 
0.141176 0.541176 0.368627 0.141176 0.541176 0.368627 
0.141176 0.541176 0.368627 0.141176 0.541176 0.368627 
0.141176 0.541176 0.368627 0.141176 0.541176 0.368627 
0.141176 0.541176 0.368627 0.141176 0.541176 0.368627 
0.141176 0.541176 0.368627 0.141176 0.541176 0.368627 
0.141176 0.541176 0.368627 0.141176 0.541176 0.368627 
0.141176 0.541176 0.368627 0.141176 0.541176 0.368627 
0.141176 0.541176 0.368627 0.141176 0.541176 0.368627 
0.141176 0.541176 0.368627 0.141176 0.541176 0.368627 
0.141176 0.541176 0.368627 0.141176 0.541176 0.368627 
0.141176 0.541176 0.368627 0.141176 0.541176 0.368627 
0.141176 0.541176 0.368627 0.141176 0.541176 0.368627 
0.141176 0.541176 0.368627 0.141176 0.541176 0.368627 
0.141176 0.541176 0.368627 0.141176 0.541176 0.368627 
0.141176 0.541176 0.368627 0.141176 0.541176 0.368627 
0.141176 0.541176 0.368627 0.141176 0.541176 0.368627 
0.141176 0.541176 0.368627 0.141176 0.541176 0.368627 
0.141176 0.541176 0.368627 0.141176 0.541176 0.368627 
0.141176 0.541176 0.368627 0.141176 0.541176 0.368627 
0.141176 0.541176 0.368627 0.141176 0.541176 0.368627 
0.141176 0.541176 0.368627 0.141176 0.541176 0.368627 
0.141176 0.541176 0.368627 0.141176 0.541176 0.368627 
0.141176 0.541176 0.368627 0.141176 0.541176 0.368627 
0.141176 0.541176 0.368627 0.141176 0.541176 0.368627 
0.141176 0.541176 0.368627 0.141176 0.541176 0.368627 
0.141176 0.541176 0.368627 0.141176 0.541176 0.368627 
0.141176 0.541176 0.368627 0.141176 0.541176 0.368627 
0.141176 0.541176 0.368627 0.141176 0.541176 0.368627 
0.141176 0.541176 0.368627 0.141176 0.541176 0.368627 
0.141176 0.541176 0.368627 0.141176 0.541176 0.368627 
0.141176 0.541176 0.368627 0.141176 0.541176 0.368627 
0.141176 0.541176 0.368627 0.141176 0.541176 0.368627 
0.141176 0.541176 0.368627 0.141176 0.541176 0.368627 
0.141176 0.541176 0.368627 0.141176 0.541176 0.368627 
0.141176 0.541176 0.368627 0.141176 0.541176 0.368627 
0.141176 0.541176 0.368627 0.141176 0.541176 0.368627 
0.141176 0.541176 0.368627 0.141176 0.541176 0.368627 
0.141176 0.541176 0.368627 0.141176 0.541176 0.368627 
0.141176 0.541176 0.368627 0.141176 0.541176 0.368627 
0.141176 0.541176 0.368627 0.141176 0.541176 0.368627 
0.141176 0.541176 0.368627 0.141176 0.541176 0.368627 
0.141176 0.541176 0.368627 0.141176 0.541176 0.368627 
0.141176 0.541176 0.368627 0.141176 0.541176 0.368627 
0.141176 0.541176 0.368627 0.141176 0.541176 0.368627 
0.141176 0.541176 0.368627 0.141176 0.541176 0.368627 
0.141176 0.541176 0.368627 0.141176 0.541176 0.368627 
0.141176 0.541176 0.368627 0.141176 0.541176 0.368627 
0.141176 0.541176 0.368627 0.141176 0.541176 0.368627 
0.141176 0.541176 0.368627 0.141176 0.541176 0.368627 
0.141176 0.541176 0.368627 0.141176 0.541176 0.368627 
0.141176 0.541176 0.368627 0.141176 0.541176 0.368627 
0.141176 0.541176 0.368627 0.141176 0.541176 0.368627 
0.141176 0.541176 0.368627 0.141176 0.541176 0.368627 
0.141176 0.541176 0.368627 0.141176 0.541176 0.368627 
0.141176 0.541176 0.368627 0.141176 0.541176 0.368627 
0.141176 0.541176 0.368627 0.141176 0.541176 0.368627 
0.141176 0.541176 0.368627 0.141176 0.541176 0.368627 
0.141176 0.541176 0.368627 0.141176 0.541176 0.368627 
0.141176 0.541176 0.368627 0.141176 0.541176 0.368627 
0.141176 0.541176 0.368627 0.141176 0.541176 0.368627 
0.141176 0.541176 0.368627 0.141176 0.541176 0.368627 
0.141176 0.541176 0.368627 0.141176 0.541176 0.368627 
0.141176 0.541176 0.368627 0.141176 0.541176 0.368627 
0.141176 0.541176 0.368627 0.141176 0.541176 0.368627 
0.141176 0.541176 0.368627 0.141176 0.541176 0.368627 
0.141176 0.541176 0.368627 0.141176 0.541176 0.368627 
0.141176 0.541176 0.368627 0.141176 0.541176 0.368627 
0.141176 0.541176 0.368627 0.141176 0.541176 0.368627 
0.141176 0.541176 0.368627 0.141176 0.541176 0.368627 
0.141176 0.541176 0.368627 0.141176 0.541176 0.368627 
0.141176 0.541176 0.368627 0.141176 0.541176 0.368627 
0.141176 0.541176 0.368627 0.141176 0.541176 0.368627 
0.141176 0.541176 0.368627 0.141176 0.541176 0.368627 
0.141176 0.541176 0.368627 0.141176 0.541176 0.368627 
0.141176 0.541176 0.368627 0.141176 0.541176 0.368627 
0.141176 0.541176 0.368627 0.141176 0.541176 0.368627 
0.141176 0.541176 0.368627 0.141176 0.541176 0.368627 
0.141176 0.541176 0.368627 0.141176 0.541176 0.368627 
0.141176 0.541176 0.368627 0.141176 0.541176 0.368627 
0.141176 0.541176 0.368627 0.141176 0.541176 0.368627 
0.141176 0.541176 0.368627 0.141176 0.541176 0.368627 
0.141176 0.541176 0.368627 0.141176 0.541176 0.368627 
0.141176 0.541176 0.368627 0.141176 0.541176 0.368627 
0.141176 0.541176 0.368627 0.141176 0.541176 0.368627 
0.141176 0.541176 0.368627 0.141176 0.541176 0.368627 
0.141176 0.541176 0.368627 0.141176 0.541176 0.368627 
0.141176 0.541176 0.368627 0.141176 0.541176 0.368627 
0.141176 0.541176 0.368627 0.141176 0.541176 0.368627 
0.141176 0.541176 0.368627 0.141176 0.541176 0.368627 
0.141176 0.541176 0.368627 0.141176 0.541176 0.368627 
0.141176 0.541176 0.368627 0.141176 0.541176 0.368627 
0.141176 0.541176 0.368627 0.141176 0.541176 0.368627 
0.141176 0.541176 0.368627 0.141176 0.541176 0.368627 
0.141176 0.541176 0.368627 0.141176 0.541176 0.368627 
0.141176 0.541176 0.368627 0.141176 0.541176 0.368627 
0.141176 0.541176 0.368627 0.141176 0.541176 0.368627 
0.141176 0.541176 0.368627 0.141176 0.541176 0.368627 
0.141176 0.541176 0.368627 0.141176 0.541176 0.368627 
0.141176 0.541176 0.368627 0.141176 0.541176 0.368627 
0.141176 0.541176 0.368627 0.141176 0.541176 0.368627 
0.141176 0.541176 0.368627 0.141176 0.541176 0.368627 
0.141176 0.541176 0.368627 0.141176 0.541176 0.368627 
0.141176 0.541176 0.368627 0.141176 0.541176 0.368627 
0.141176 0.541176 0.368627 0.141176 0.541176 0.368627 
0.141176 0.541176 0.368627 0.141176 0.541176 0.368627 
0.141176 0.541176 0.368627 0.141176 0.541176 0.368627 
0.141176 0.541176 0.368627 0.141176 0.541176 0.368627 
0.141176 0.541176 0.368627 0.141176 0.541176 0.368627 
0.141176 0.541176 0.368627 0.141176 0.541176 0.368627 
0.141176 0.541176 0.368627 0.141176 0.541176 0.368627 
0.141176 0.541176 0.368627 0.141176 0.541176 0.368627 
0.141176 0.541176 0.368627 0.141176 0.541176 0.368627 
0.141176 0.541176 0.368627 0.141176 0.541176 0.368627 
0.141176 0.541176 0.368627 0.141176 0.541176 0.368627 
0.141176 0.541176 0.368627 0.141176 0.541176 0.368627 
0.141176 0.541176 0.368627 0.141176 0.541176 0.368627 
0.141176 0.541176 0.368627 0.141176 0.541176 0.368627 
0.141176 0.541176 0.368627 0.141176 0.541176 0.368627 
0.141176 0.541176 0.368627 0.141176 0.541176 0.368627 
0.141176 0.541176 0.368627 0.141176 0.541176 0.368627 
0.141176 0.541176 0.368627 0.141176 0.541176 0.368627 
0.141176 0.541176 0.368627 0.141176 0.541176 0.368627 
0.141176 0.541176 0.368627 0.141176 0.541176 0.368627 
0.141176 0.541176 0.368627 0.141176 0.541176 0.368627 
0.141176 0.541176 0.368627 0.141176 0.541176 0.368627 
0.141176 0.541176 0.368627 0.141176 0.541176 0.368627 
0.141176 0.541176 0.368627 0.141176 0.541176 0.368627 
0.141176 0.541176 0.368627 0.141176 0.541176 0.368627 
0.141176 0.541176 0.368627 0.141176 0.541176 0.368627 
0.141176 0.541176 0.368627 0.141176 0.541176 0.368627 
0.141176 0.541176 0.368627 0.141176 0.541176 0.368627 
0.141176 0.541176 0.368627 0.141176 0.541176 0.368627 
0.141176 0.541176 0.368627 0.141176 0.541176 0.368627 
0.141176 0.541176 0.368627 0.141176 0.541176 0.368627 
0.141176 0.541176 0.368627 0.141176 0.541176 0.368627 
0.141176 0.541176 0.368627 0.141176 0.541176 0.368627 
0.141176 0.541176 0.368627 0.141176 0.541176 0.368627 
0.141176 0.541176 0.368627 0.141176 0.541176 0.368627 
0.141176 0.541176 0.368627 0.141176 0.541176 0.368627 
0.141176 0.541176 0.368627 0.141176 0.541176 0.368627 
0.141176 0.541176 0.368627 0.141176 0.541176 0.368627 
0.141176 0.541176 0.368627 0.141176 0.541176 0.368627 
0.141176 0.541176 0.368627 0.141176 0.541176 0.368627 
0.141176 0.541176 0.368627 0.141176 0.541176 0.368627 
0.141176 0.541176 0.368627 0.141176 0.541176 0.368627 
0.141176 0.541176 0.368627 0.141176 0.541176 0.368627 
0.141176 0.541176 0.368627 0.141176 0.541176 0.368627 
0.141176 0.541176 0.368627 0.141176 0.541176 0.368627 
0.141176 0.541176 0.368627 0.141176 0.541176 0.368627 
0.141176 0.541176 0.368627 0.141176 0.541176 0.368627 
0.141176 0.541176 0.368627 0.141176 0.541176 0.368627 
0.141176 0.541176 0.368627 0.141176 0.541176 0.368627 
0.141176 0.541176 0.368627 0.141176 0.541176 0.368627 
0.141176 0.541176 0.368627 0.141176 0.541176 0.368627 
0.141176 0.541176 0.368627 0.141176 0.541176 0.368627 
0.141176 0.541176 0.368627 0.141176 0.541176 0.368627 
0.141176 0.541176 0.368627 0.141176 0.541176 0.368627 
0.141176 0.541176 0.368627 0.141176 0.541176 0.368627 
0.141176 0.541176 0.368627 0.141176 0.541176 0.368627 
0.141176 0.541176 0.368627 0.141176 0.541176 0.368627 
0.141176 0.541176 0.368627 0.141176 0.541176 0.368627 
0.141176 0.541176 0.368627 0.141176 0.541176 0.368627 
0.141176 0.541176 0.368627 0.141176 0.541176 0.368627 
0.141176 0.541176 0.368627 0.141176 0.541176 0.368627 
0.141176 0.541176 0.368627 0.141176 0.541176 0.368627 
0.141176 0.541176 0.368627 0.141176 0.541176 0.368627 
0.141176 0.541176 0.368627 0.141176 0.541176 0.368627 
0.141176 0.541176 0.368627 0.141176 0.541176 0.368627 
0.141176 0.541176 0.368627 0.141176 0.541176 0.368627 
0.141176 0.541176 0.368627 0.141176 0.541176 0.368627 
0.141176 0.541176 0.368627 0.141176 0.541176 0.368627 
0.141176 0.541176 0.368627 0.141176 0.541176 0.368627 
0.141176 0.541176 0.368627 0.141176 0.541176 0.368627 
0.141176 0.541176 0.368627 0.141176 0.541176 0.368627 
0.141176 0.541176 0.368627 0.141176 0.541176 0.368627 
0.141176 0.541176 0.368627 0.141176 0.541176 0.368627 
0.141176 0.541176 0.368627 0.141176 0.541176 0.368627 
0.141176 0.541176 0.368627 0.141176 0.541176 0.368627 
0.141176 0.541176 0.368627 0.141176 0.541176 0.368627 
0.141176 0.541176 0.368627 0.141176 0.541176 0.368627 
0.141176 0.541176 0.368627 0.141176 0.541176 0.368627 
0.141176 0.541176 0.368627 0.141176 0.541176 0.368627 
0.141176 0.541176 0.368627 0.141176 0.541176 0.368627 
0.141176 0.541176 0.368627 0.141176 0.541176 0.368627 
0.141176 0.541176 0.368627 0.141176 0.541176 0.368627 
0.141176 0.541176 0.368627 0.141176 0.541176 0.368627 
0.141176 0.541176 0.368627 0.141176 0.541176 0.368627 
0.141176 0.541176 0.368627 0.141176 0.541176 0.368627 
0.141176 0.541176 0.368627 0.141176 0.541176 0.368627 
0.141176 0.541176 0.368627 0.141176 0.541176 0.368627 
0.141176 0.541176 0.368627 0.141176 0.541176 0.368627 
0.141176 0.541176 0.368627 0.141176 0.541176 0.368627 
0.141176 0.541176 0.368627 0.141176 0.541176 0.368627 
0.141176 0.541176 0.368627 0.141176 0.541176 0.368627 
0.141176 0.541176 0.368627 0.141176 0.541176 0.368627 
0.141176 0.541176 0.368627 0.141176 0.541176 0.368627 
0.141176 0.541176 0.368627 0.141176 0.541176 0.368627 
0.141176 0.541176 0.368627 0.141176 0.541176 0.368627 
0.141176 0.541176 0.368627 0.141176 0.541176 0.368627 
0.141176 0.541176 0.368627 0.141176 0.541176 0.368627 
0.141176 0.541176 0.368627 0.141176 0.541176 0.368627 
0.141176 0.541176 0.368627 0.141176 0.541176 0.368627 
0.141176 0.541176 0.368627 0.141176 0.541176 0.368627 
0.141176 0.541176 0.368627 0.141176 0.541176 0.368627 
0.141176 0.541176 0.368627 0.141176 0.541176 0.368627 
0.141176 0.541176 0.368627 0.141176 0.541176 0.368627 
0.141176 0.541176 0.368627 0.141176 0.541176 0.368627 
0.141176 0.541176 0.368627 0.141176 0.541176 0.368627 
0.141176 0.541176 0.368627 0.141176 0.541176 0.368627 
0.141176 0.541176 0.368627 0.141176 0.541176 0.368627 
0.141176 0.541176 0.368627 0.141176 0.541176 0.368627 
0.141176 0.541176 0.368627 0.141176 0.541176 0.368627 
0.141176 0.541176 0.368627 0.141176 0.541176 0.368627 
0.141176 0.541176 0.368627 0.141176 0.541176 0.368627 
0.141176 0.541176 0.368627 0.141176 0.541176 0.368627 
0.141176 0.541176 0.368627 0.141176 0.541176 0.368627 
0.141176 0.541176 0.368627 0.141176 0.541176 0.368627 
0.141176 0.541176 0.368627 0.141176 0.541176 0.368627 
0.141176 0.541176 0.368627 0.141176 0.541176 0.368627 
0.141176 0.541176 0.368627 0.141176 0.541176 0.368627 
0.141176 0.541176 0.368627 0.141176 0.541176 0.368627 
0.141176 0.541176 0.368627 0.141176 0.541176 0.368627 
0.141176 0.541176 0.368627 0.141176 0.541176 0.368627 
0.141176 0.541176 0.368627 0.141176 0.541176 0.368627 
0.141176 0.541176 0.368627 0.141176 0.541176 0.368627 
0.141176 0.541176 0.368627 0.141176 0.541176 0.368627 
0.141176 0.541176 0.368627 0.141176 0.541176 0.368627 
0.141176 0.541176 0.368627 0.141176 0.541176 0.368627 
0.141176 0.541176 0.368627 0.141176 0.541176 0.368627 
0.141176 0.541176 0.368627 0.141176 0.541176 0.368627 
0.141176 0.541176 0.368627 0.141176 0.541176 0.368627 
0.141176 0.541176 0.368627 0.141176 0.541176 0.368627 
0.141176 0.541176 0.368627 0.141176 0.541176 0.368627 
0.141176 0.541176 0.368627 0.141176 0.541176 0.368627 
0.141176 0.541176 0.368627 0.141176 0.541176 0.368627 
0.141176 0.541176 0.368627 0.141176 0.541176 0.368627 
0.141176 0.541176 0.368627 0.141176 0.541176 0.368627 
0.141176 0.541176 0.368627 0.141176 0.541176 0.368627 
0.141176 0.541176 0.368627 0.141176 0.541176 0.368627 