# vtk DataFile Version 4.2
vtk output
ASCII
DATASET POLYDATA
POINTS 1997 float
127 174.51 143.182 127.507 169.599 143.858 136.555 171.326 144.165 
122.919 174.477 143.627 120.235 175.521 144.068 120.52 177.564 144.049 
127.403 177.979 144.037 130.901 165.821 144.981 133.292 167.308 144.447 
141.634 169.508 145.506 141.414 171.037 145.362 122.11 179.737 144.389 
142.826 166.767 147.003 118.677 168.624 145.748 143.105 171.879 146.256 
141.315 172.446 145.473 140.074 173.731 145.342 114.527 175.089 145.676 
125.957 180.882 145.065 114.528 181.466 146.048 117.056 181.627 145.464 
118.968 182.612 145.603 121.863 182.731 145.641 117.104 183.134 146.106 
117.508 183.525 146.297 119.222 183.798 146.325 121.155 183.934 146.397 
138.973 164.003 146.363 143.431 166.881 147.714 145.168 172.627 148.064 
143.444 173.886 146.706 111.983 183.085 147.383 128.937 183.173 147.094 
114.839 184.139 147.281 116.603 184.101 146.946 118.461 184.638 147.28 
122.368 161.264 147.608 142.578 163.92 148.409 149.778 165.653 149.867 
149.457 164.957 150.049 149.339 165.55 150.075 149.881 164.852 150.058 
150.302 165.511 149.916 149.681 166.163 149.857 149.746 166.852 149.877 
150.495 166.051 149.83 150.566 166.7 149.719 150.805 166.463 150.015 
150.175 167.452 149.689 150.526 167.412 149.624 150.888 167.077 149.789 
150.347 168.646 149.795 150.86 168.101 149.654 150.648 168.839 149.692 
150.574 169.198 149.834 150.907 168.831 149.698 151.169 168.679 149.858 
144.524 169.108 148.324 151.04 169.416 149.807 150.988 169.776 149.926 
146.009 175.92 148.722 144.724 178.048 148.43 135.255 181.39 147.286 
110.447 183.032 148.043 123.002 184.695 147.325 127.186 184.18 147.689 
112.618 184.521 148.317 114.364 184.714 148.08 113.034 184.807 148.743 
114.042 184.906 148.611 139.167 158.789 149.066 148.653 161.764 150.524 
148.671 161.328 150.592 148.678 162.399 150.478 148.897 161.654 150.494 
149.376 162.244 150.533 149.427 161.769 150.764 148.643 162.965 150.485 
150.058 163.863 150.612 150.054 168.242 149.893 149.732 168.193 150.267 
151.476 170.198 150.392 151.034 171.049 150.497 151.525 172.083 151.058 
104.669 177.384 149.044 107.734 178.482 148.015 107.208 180.84 148.833 
107.372 181.61 149.141 107.118 182.069 149.721 109.066 183.6 149.68 
109.653 183.9 149.309 109.603 184.045 149.612 135.458 184.793 149.646 
109.887 184.209 149.446 109.935 184.285 149.675 126.27 184.871 148.635 
129.028 184.7 149.077 132.931 185.107 149.844 110.175 184.373 149.464 
111.283 184.59 149.229 112.971 184.912 149.25 114.662 185.065 149.07 
122.946 185.192 148.726 147.999 160.682 150.945 147.565 161.144 151.208 
148.915 161.267 150.626 148.597 160.872 150.77 149.169 161.305 150.747 
148.665 164.813 150.649 146.122 171.824 150.09 151.509 172.448 151.266 
102.155 175.229 149.71 101.968 177 150.355 148.406 177.705 150.479 
102.993 178.734 150.643 103.942 179.964 150.834 104.424 180.382 150.586 
104.197 180.326 150.742 104.313 180.465 150.751 104.523 180.654 150.875 
105.606 181.136 150.285 105.385 181.257 150.813 106.679 182.132 150.659 
107.866 182.999 150.53 110.11 184.334 149.918 113.39 184.948 149.656 
115.239 185.099 149.59 117.731 185.125 150.139 127.396 184.998 149.707 
128.97 184.841 149.502 134.864 185.455 150.717 115.043 156.022 150.294 
144.413 157.533 151.532 144.97 157.805 151.654 146.767 159.49 151.68 
142.886 159.157 150.711 144.544 159.023 151.652 147.039 160.207 151.569 
147.689 159.016 151.518 148.129 159.069 151.572 148.913 159.698 151.583 
149.034 159.347 151.992 149.697 161.063 151.696 150.545 163.656 151.866 
99.4608 169.229 150.307 96.7445 170.422 151.156 96.2079 171.341 151.597 
96.4607 172.585 151.954 97.7207 172.985 151.188 150.887 172.877 151.52 
97.1914 174.024 152.349 97.5526 174.525 152.541 98.0667 174.953 152.32 
98.6784 175.268 151.916 100.648 175.194 150.389 99.016 175.872 152.258 
100.364 176.245 151.167 101.553 178.203 152.127 150.048 178.536 151.561 
102.544 179 152.022 149.996 180.242 151.732 105.743 181.518 151.282 
106.917 182.33 150.852 107.218 182.477 151.096 108.628 183.413 150.723 
142.299 184.05 150.625 110.154 184.221 150.284 113.425 184.633 150.699 
120.359 185.027 150.599 130.206 184.809 151.572 141.002 184.918 150.871 
132.846 185.303 150.802 134.928 185.738 151.693 135.693 185.793 151.125 
139.694 185.516 151.101 135.713 185.977 151.433 135.939 186.02 151.46 
141.876 185.851 151.776 135.863 186.064 151.509 140.904 154.873 151.555 
144.287 156.072 151.833 146.825 158.016 151.888 147.671 157.857 152.148 
148.557 157.483 153.158 146.128 158.745 151.805 148.706 158.662 152.203 
145.41 159.382 151.984 146.11 159.56 151.953 146.461 160.218 152.001 
143.969 160.512 151.543 151.315 167.081 152.505 94.83 168.975 151.971 
95.4051 168.79 151.635 94.7951 170.358 152.411 94.351 170.784 153.308 
151.901 172.453 152.304 150.744 173.625 151.847 150.997 174.446 152.109 
98.4438 175.518 153.061 148.426 174.734 151.5 148.877 175.566 151.379 
151.368 175.445 152.622 151.03 177.908 152.441 150.927 177.213 152.318 
103.071 179.359 152.532 106.299 181.711 151.837 107.643 182.638 151.399 
107.87 182.556 151.79 118.445 184.298 151.881 132.981 185.135 152.593 
138.515 186.091 151.573 136.171 186.155 151.903 135.955 186.099 151.604 
136.722 186.485 152.546 143.004 186.237 152.287 144.054 186.021 152.355 
137.173 186.714 152.591 142.015 154.125 152.234 143.75 154.888 152.233 
147.974 155.968 153.698 148.131 155.783 154.054 149.001 158.242 153.031 
149.104 157.997 153.676 145.264 160.117 152.372 145.791 160.115 152.324 
149.561 159.513 152.965 144.643 160.771 152.359 95.055 160.798 152.158 
150.183 161.296 153.008 91.3292 162.44 153.291 93.2677 163.035 152.451 
91.2817 164.613 153.737 93.0395 164.531 152.54 93.6622 164.325 152.284 
91.4326 165.606 154.146 92.479 165.412 152.978 93.2672 167.155 152.819 
93.7515 170.206 154.214 149.846 172.758 152.144 96.4539 173.546 153.589 
148.732 174.265 152.001 150.035 175.251 151.935 151.86 175.081 153.439 
151.016 176.189 152.409 100.335 177.208 153.087 100.766 177.455 153.363 
151.749 178.236 153.648 149.2 183.174 152.32 150.964 183.618 153.561 
151.2 183.704 153.853 151.28 183.363 153.79 151.363 183.544 153.898 
132.767 184.878 153.263 150.726 184.088 153.739 151.244 183.872 154.247 
150.945 184.34 154.236 147.89 185.931 153.469 120.111 147.894 153.194 
92.6881 152.448 153.411 147.254 154.404 154.254 147.369 153.777 154.937 
90.2656 157.24 153.714 149.401 158.28 154.459 89.7326 159.012 154.086 
145.203 160.644 152.718 145.597 160.65 152.829 145.726 160.939 152.948 
146.029 161.495 153.053 89.4381 160.806 154.795 144.432 161.784 152.335 
90.0783 161.603 154.242 92.2287 167.563 154.866 145.74 168.119 152.994 
149.437 174.114 152.191 98.712 175.67 153.721 103.084 178.936 153.501 
105.991 180.695 153.368 150.914 182.835 153.183 151.529 183.144 154.378 
151.427 183.43 154.004 132.588 184.555 153.97 107.221 141.089 154.898 
86.6276 149.761 155.617 88.4282 150.074 154.657 87.4301 152.322 155.017 
146.883 152.511 155.348 86.9434 154.152 155.635 87.4296 154.909 155.201 
87.9319 154.876 154.79 87.1291 155.6 155.806 87.8955 156.441 155.037 
148.832 156.492 155.096 149.311 157.75 155.285 88.4804 158.083 154.914 
145.457 160.81 152.926 88.25 158.847 155.569 145.595 161.558 153.383 
88.688 160.038 155.601 88.8057 159.706 155.16 89.9837 163.311 155.382 
90.4301 164.202 155.254 91.5289 166.252 155.877 93.9001 170.504 154.953 
147.55 171.148 153.398 148.906 172.422 152.787 117.703 181.66 155.205 
151.894 182.307 155.275 132.691 184.052 155.195 147.046 186.933 154.502 
150.217 185.809 155.461 146.109 187.728 155.67 141.186 188.817 155.435 
139.32 188.34 155.64 94.8725 138.885 155.859 102.016 138.308 155.784 
86.4869 148.421 155.732 85.7295 149.647 156.748 84 151.009 156.017 
84 151.009 156.017 84 151.009 156.017 84 151.009 156.017 
145.805 151.227 155.546 146.962 151.375 156.673 84 151.009 156.017 
86.7128 152.568 155.606 87.8583 158.281 156.403 88.1704 159.144 156.136 
145.388 161.637 153.355 88.8614 160.483 155.747 145.352 162.15 153.53 
89.3488 161.5 156.427 145.231 162.752 153.569 146.65 165.453 154.144 
145.897 166.892 154.013 92.3716 167.598 156.189 147.475 167.642 153.932 
147.274 169.995 153.984 148.3 170.528 153.465 94.9863 171.407 155.636 
97.3709 173.736 155.172 152.041 173.342 155.425 102.313 176.875 155.577 
130.518 182.764 156.158 136.988 186.452 155.993 147.978 187.197 156.102 
144.144 188.693 156.651 140.887 189.023 156.603 141.166 189.152 156.288 
84.9653 141.417 157.022 84.1937 143.139 157.347 83.6714 143.102 157.923 
84.2649 142.252 157.348 83.6744 143.789 157.831 83.739 144.059 157.875 
84.0594 145.278 157.75 136.033 145.204 157.149 84.7608 146.007 157.042 
145.962 149.598 157.457 85.3034 149.059 157.496 146.601 150.515 157.122 
84 151.009 156.017 85.9363 151.731 157.098 86.0531 152.377 157.104 
86.5045 153.885 156.565 86.7924 154.521 157.552 145.515 163.226 153.878 
145.695 162.966 153.905 150.657 163.172 156.818 145.935 164.273 154.124 
145.932 165.765 154.157 146.157 165.197 154.217 91.5504 165.685 157.068 
93.7592 169.712 156.132 147.333 169.645 154.075 147.62 169.925 153.967 
126.124 180.923 157.497 151.957 182.722 157.017 151.154 185.016 157.055 
150.372 185.941 156.51 142.358 189.132 156.283 147.473 187.472 156.971 
84.3366 138.156 158.032 123.281 139.217 157.5 83.9746 140.979 157.746 
83.3834 141.673 158.241 83.1499 141.476 158.532 83.3078 142.276 158.53 
83.596 143.735 157.99 84.0154 145.603 158.575 144.933 148.264 158.091 
85.5942 150.25 158.354 85.899 151.393 158.311 148.09 153.637 157.767 
87.31 155.857 157.774 94.5069 169.02 157.724 144.42 188.749 157.753 
142.568 189.196 157.009 143.362 189.102 157.807 88.206 133.161 158.429 
114.277 134.035 158.446 86.0906 134.965 158.2 82.5783 137.303 159.276 
81.983 137.67 160.021 82.6766 138.973 159.325 82.7537 140.486 159.524 
83.3557 143.455 159.114 85.2025 148.572 159.632 86.4301 151.775 159.515 
91.8666 164.714 158.418 150.851 184.95 158.685 150.287 185.511 158.771 
144.138 188.706 158.902 92.4041 129.294 159.777 83.2166 133.847 159.307 
[...]
POINT_DATA 1997
COLOR_SCALARS scalars 3
0.141176 0.541176 0.368627 0.141176 0.541176 0.368627 0.141176 0.541176 0.368627 
0.141176 0.541176 0.368627 0.141176 0.541176 0.368627 
0.141176 0.541176 0.368627 0.141176 0.541176 0.368627 
0.141176 0.541176 0.368627 0.141176 0.541176 0.368627 
0.141176 0.541176 0.368627 0.141176 0.541176 0.368627 
0.141176 0.541176 0.368627 0.141176 0.541176 0.368627 
0.141176 0.541176 0.368627 0.141176 0.541176 0.368627 
0.141176 0.541176 0.368627 0.141176 0.541176 0.368627 
0.141176 0.541176 0.368627 0.141176 0.541176 0.368627 
0.141176 0.541176 0.368627 0.141176 0.541176 0.368627 
0.141176 0.541176 0.368627 0.141176 0.541176 0.368627 
0.141176 0.541176 0.368627 0.141176 0.541176 0.368627 
0.141176 0.541176 0.368627 0.141176 0.541176 0.368627 
0.141176 0.541176 0.368627 0.141176 0.541176 0.368627 
0.141176 0.541176 0.368627 0.141176 0.541176 0.368627 
0.141176 0.541176 0.368627 0.141176 0.541176 0.368627 
0.141176 0.541176 0.368627 0.141176 0.541176 0.368627 
0.141176 0.541176 0.368627 0.141176 0.541176 0.368627 
0.141176 0.541176 0.368627 0.141176 0.541176 0.368627 
0.141176 0.541176 0.368627 0.141176 0.541176 0.368627 
0.141176 0.541176 0.368627 0.141176 0.541176 0.368627 
0.141176 0.541176 0.368627 0.141176 0.541176 0.368627 
0.141176 0.541176 0.368627 0.141176 0.541176 0.368627 
0.141176 0.541176 0.368627 0.141176 0.541176 0.368627 
0.141176 0.541176 0.368627 0.141176 0.541176 0.368627 
0.141176 0.541176 0.368627 0.141176 0.541176 0.368627 
0.141176 0.541176 0.368627 0.141176 0.541176 0.368627 
0.141176 0.541176 0.368627 0.141176 0.541176 0.368627 
0.141176 0.541176 0.368627 0.141176 0.541176 0.368627 
0.141176 0.541176 0.368627 0.141176 0.541176 0.368627 
0.141176 0.541176 0.368627 0.141176 0.541176 0.368627 
0.141176 0.541176 0.368627 0.141176 0.541176 0.368627 
0.141176 0.541176 0.368627 0.141176 0.541176 0.368627 
0.141176 0.541176 0.368627 0.141176 0.541176 0.368627 
0.141176 0.541176 0.368627 0.141176 0.541176 0.368627 
0.141176 0.541176 0.368627 0.141176 0.541176 0.368627 
0.141176 0.541176 0.368627 0.141176 0.541176 0.368627 
0.141176 0.541176 0.368627 0.141176 0.541176 0.368627 
0.141176 0.541176 0.368627 0.141176 0.541176 0.368627 
0.141176 0.541176 0.368627 0.141176 0.541176 0.368627 
0.141176 0.541176 0.368627 0.141176 0.541176 0.368627 
0.141176 0.541176 0.368627 0.141176 0.541176 0.368627 
0.141176 0.541176 0.368627 0.141176 0.541176 0.368627 
0.141176 0.541176 0.368627 0.141176 0.541176 0.368627 
0.141176 0.541176 0.368627 0.141176 0.541176 0.368627 
0.141176 0.541176 0.368627 0.141176 0.541176 0.368627 
0.141176 0.541176 0.368627 0.141176 0.541176 0.368627 
0.141176 0.541176 0.368627 0.141176 0.541176 0.368627 
0.141176 0.541176 0.368627 0.141176 0.541176 0.368627 
0.141176 0.541176 0.368627 0.141176 0.541176 0.368627 
0.141176 0.541176 0.368627 0.141176 0.541176 0.368627 
0.141176 0.541176 0.368627 0.141176 0.541176 0.368627 
0.141176 0.541176 0.368627 0.141176 0.541176 0.368627 
0.141176 0.541176 0.368627 0.141176 0.541176 0.368627 
0.141176 0.541176 0.368627 0.141176 0.541176 0.368627 
0.141176 0.541176 0.368627 0.141176 0.541176 0.368627 
0.141176 0.541176 0.368627 0.141176 0.541176 0.368627 
0.141176 0.541176 0.368627 0.141176 0.541176 0.368627 
0.141176 0.541176 0.368627 0.141176 0.541176 0.368627 
0.141176 0.541176 0.368627 0.141176 0.541176 0.368627 
0.141176 0.541176 0.368627 0.141176 0.541176 0.368627 
0.141176 0.541176 0.368627 0.141176 0.541176 0.368627 
0.141176 0.541176 0.368627 0.141176 0.541176 0.368627 
0.141176 0.541176 0.368627 0.141176 0.541176 0.368627 
0.141176 0.541176 0.368627 0.141176 0.541176 0.368627 
0.141176 0.541176 0.368627 0.141176 0.541176 0.368627 
0.141176 0.541176 0.368627 0.141176 0.541176 0.368627 
0.141176 0.541176 0.368627 0.141176 0.541176 0.368627 
0.141176 0.541176 0.368627 0.141176 0.541176 0.368627 
0.141176 0.541176 0.368627 0.141176 0.541176 0.368627 
0.141176 0.541176 0.368627 0.141176 0.541176 0.368627 
0.141176 0.541176 0.368627 0.141176 0.541176 0.368627 
0.141176 0.541176 0.368627 0.141176 0.541176 0.368627 
0.141176 0.541176 0.368627 0.141176 0.541176 0.368627 
0.141176 0.541176 0.368627 0.141176 0.541176 0.368627 
0.141176 0.541176 0.368627 0.141176 0.541176 0.368627 
0.141176 0.541176 0.368627 0.141176 0.541176 0.368627 
0.141176 0.541176 0.368627 0.141176 0.541176 0.368627 
0.141176 0.541176 0.368627 0.141176 0.541176 0.368627 
0.141176 0.541176 0.368627 0.141176 0.541176 0.368627 
0.141176 0.541176 0.368627 0.141176 0.541176 0.368627 
0.141176 0.541176 0.368627 0.141176 0.541176 0.368627 
0.141176 0.541176 0.368627 0.141176 0.541176 0.368627 
0.141176 0.541176 0.368627 0.141176 0.541176 0.368627 
0.141176 0.541176 0.368627 0.141176 0.541176 0.368627 
0.141176 0.541176 0.368627 0.141176 0.541176 0.368627 
0.141176 0.541176 0.368627 0.141176 0.541176 0.368627 
0.141176 0.541176 0.368627 0.141176 0.541176 0.368627 
0.141176 0.541176 0.368627 0.141176 0.541176 0.368627 
0.141176 0.541176 0.368627 0.141176 0.541176 0.368627 
0.141176 0.541176 0.368627 0.141176 0.541176 0.368627 
0.141176 0.541176 0.368627 0.141176 0.541176 0.368627 
0.141176 0.541176 0.368627 0.141176 0.541176 0.368627 
0.141176 0.541176 0.368627 0.141176 0.541176 0.368627 
0.141176 0.541176 0.368627 0.141176 0.541176 0.368627 
0.141176 0.541176 0.368627 0.141176 0.541176 0.368627 
0.141176 0.541176 0.368627 0.141176 0.541176 0.368627 
0.141176 0.541176 0.368627 0.141176 0.541176 0.368627 
0.141176 0.541176 0.368627 0.141176 0.541176 0.368627 
0.141176 0.541176 0.368627 0.141176 0.541176 0.368627 
0.141176 0.541176 0.368627 0.141176 0.541176 0.368627 
0.141176 0.541176 0.368627 0.141176 0.541176 0.368627 
0.141176 0.541176 0.368627 0.141176 0.541176 0.368627 
0.141176 0.541176 0.368627 0.141176 0.541176 0.368627 
0.141176 0.541176 0.368627 0.141176 0.541176 0.368627 
0.141176 0.541176 0.368627 0.141176 0.541176 0.368627 
0.141176 0.541176 0.368627 0.141176 0.541176 0.368627 
0.141176 0.541176 0.368627 0.141176 0.541176 0.368627 
0.141176 0.541176 0.368627 0.141176 0.541176 0.368627 
0.141176 0.541176 0.368627 0.141176 0.541176 0.368627 
0.141176 0.541176 0.368627 0.141176 0.541176 0.368627 
0.141176 0.541176 0.368627 0.141176 0.541176 0.368627 
0.141176 0.541176 0.368627 0.141176 0.541176 0.368627 
0.141176 0.541176 0.368627 0.141176 0.541176 0.368627 
0.141176 0.541176 0.368627 0.141176 0.541176 0.368627 
0.141176 0.541176 0.368627 0.141176 0.541176 0.368627 
0.141176 0.541176 0.368627 0.141176 0.541176 0.368627 
0.141176 0.541176 0.368627 0.141176 0.541176 0.368627 
0.141176 0.541176 0.368627 0.141176 0.541176 0.368627 
0.141176 0.541176 0.368627 0.141176 0.541176 0.368627 
0.141176 0.541176 0.368627 0.141176 0.541176 0.368627 
0.141176 0.541176 0.368627 0.141176 0.541176 0.368627 
0.141176 0.541176 0.368627 0.141176 0.541176 0.368627 
0.141176 0.541176 0.368627 0.141176 0.541176 0.368627 
0.141176 0.541176 0.368627 0.141176 0.541176 0.368627 
0.141176 0.541176 0.368627 0.141176 0.541176 0.368627 
0.141176 0.541176 0.368627 0.141176 0.541176 0.368627 
0.141176 0.541176 0.368627 0.141176 0.541176 0.368627 
0.141176 0.541176 0.368627 0.141176 0.541176 0.368627 
0.141176 0.541176 0.368627 0.141176 0.541176 0.368627 
0.141176 0.541176 0.368627 0.141176 0.541176 0.368627 
0.141176 0.541176 0.368627 0.141176 0.541176 0.368627 
0.141176 0.541176 0.368627 0.141176 0.541176 0.368627 
0.141176 0.541176 0.368627 0.141176 0.541176 0.368627 
0.141176 0.541176 0.368627 0.141176 0.541176 0.368627 
0.141176 0.541176 0.368627 0.141176 0.541176 0.368627 
0.141176 0.541176 0.368627 0.141176 0.541176 0.368627 
0.141176 0.541176 0.368627 0.141176 0.541176 0.368627 
0.141176 0.541176 0.368627 0.141176 0.541176 0.368627 
0.141176 0.541176 0.368627 0.141176 0.541176 0.368627 
0.141176 0.541176 0.368627 0.141176 0.541176 0.368627 
0.141176 0.541176 0.368627 0.141176 0.541176 0.368627 
0.141176 0.541176 0.368627 0.141176 0.541176 0.368627 
0.141176 0.541176 0.368627 0.141176 0.541176 0.368627 
0.141176 0.541176 0.368627 0.141176 0.541176 0.368627 
0.141176 0.541176 0.368627 0.141176 0.541176 0.368627 
0.141176 0.541176 0.368627 0.141176 0.541176 0.368627 
0.141176 0.541176 0.368627 0.141176 0.541176 0.368627 
0.141176 0.541176 0.368627 0.141176 0.541176 0.368627 
0.141176 0.541176 0.368627 0.141176 0.541176 0.368627 
0.141176 0.541176 0.368627 0.141176 0.541176 0.368627 
0.141176 0.541176 0.368627 0.141176 0.541176 0.368627 
0.141176 0.541176 0.368627 0.141176 0.541176 0.368627 
0.141176 0.541176 0.368627 0.141176 0.541176 0.368627 
0.141176 0.541176 0.368627 0.141176 0.541176 0.368627 
0.141176 0.541176 0.368627 0.141176 0.541176 0.368627 
0.141176 0.541176 0.368627 0.141176 0.541176 0.368627 
0.141176 0.541176 0.368627 0.141176 0.541176 0.368627 
0.141176 0.541176 0.368627 0.141176 0.541176 0.368627 
0.141176 0.541176 0.368627 0.141176 0.541176 0.368627 
0.141176 0.541176 0.368627 0.141176 0.541176 0.368627 
0.141176 0.541176 0.368627 0.141176 0.541176 0.368627 
0.141176 0.541176 0.368627 0.141176 0.541176 0.368627 
0.141176 0.541176 0.368627 0.141176 0.541176 0.368627 
0.141176 0.541176 0.368627 0.141176 0.541176 0.368627 
0.141176 0.541176 0.368627 0.141176 0.541176 0.368627 
0.141176 0.541176 0.368627 0.141176 0.541176 0.368627 
0.141176 0.541176 0.368627 0.141176 0.541176 0.368627 
0.141176 0.541176 0.368627 0.141176 0.541176 0.368627 
0.141176 0.541176 0.368627 0.141176 0.541176 0.368627 
0.141176 0.541176 0.368627 0.141176 0.541176 0.368627 
0.141176 0.541176 0.368627 0.141176 0.541176 0.368627 
0.141176 0.541176 0.368627 0.141176 0.541176 0.368627 
0.141176 0.541176 0.368627 0.141176 0.541176 0.368627 
0.141176 0.541176 0.368627 0.141176 0.541176 0.368627 
0.141176 0.541176 0.368627 0.141176 0.541176 0.368627 
0.141176 0.541176 0.368627 0.141176 0.541176 0.368627 
0.141176 0.541176 0.368627 0.141176 0.541176 0.368627 
0.141176 0.541176 0.368627 0.141176 0.541176 0.368627 
0.141176 0.541176 0.368627 0.141176 0.541176 0.368627 
0.141176 0.541176 0.368627 0.141176 0.541176 0.368627 
0.141176 0.541176 0.368627 0.141176 0.541176 0.368627 
0.141176 0.541176 0.368627 0.141176 0.541176 0.368627 
0.141176 0.541176 0.368627 0.141176 0.541176 0.368627 
0.141176 0.541176 0.368627 0.141176 0.541176 0.368627 
0.141176 0.541176 0.368627 0.141176 0.541176 0.368627 
0.141176 0.541176 0.368627 0.141176 0.541176 0.368627 
0.141176 0.541176 0.368627 0.141176 0.541176 0.368627 
0.141176 0.541176 0.368627 0.141176 0.541176 0.368627 
0.141176 0.541176 0.368627 0.141176 0.541176 0.368627 
0.141176 0.541176 0.368627 0.141176 0.541176 0.368627 
0.141176 0.541176 0.368627 0.141176 0.541176 0.368627 
0.141176 0.541176 0.368627 0.141176 0.541176 0.368627 
0.141176 0.541176 0.368627 0.141176 0.541176 0.368627 
0.141176 0.541176 0.368627 0.141176 0.541176 0.368627 
0.141176 0.541176 0.368627 0.141176 0.541176 0.368627 
0.141176 0.541176 0.368627 0.141176 0.541176 0.368627 
0.141176 0.541176 0.368627 0.141176 0.541176 0.368627 
0.141176 0.541176 0.368627 0.141176 0.541176 0.368627 
0.141176 0.541176 0.368627 0.141176 0.541176 0.368627 
0.141176 0.541176 0.368627 0.141176 0.541176 0.368627 
0.141176 0.541176 0.368627 0.141176 0.541176 0.368627 
0.141176 0.541176 0.368627 0.141176 0.541176 0.368627 
0.141176 0.541176 0.368627 0.141176 0.541176 0.368627 
0.141176 0.541176 0.368627 0.141176 0.541176 0.368627 
0.141176 0.541176 0.368627 0.141176 0.541176 0.368627 
0.141176 0.541176 0.368627 0.141176 0.541176 0.368627 
0.141176 0.541176 0.368627 0.141176 0.541176 0.368627 
0.141176 0.541176 0.368627 0.141176 0.541176 0.368627 
0.141176 0.541176 0.368627 0.141176 0.541176 0.368627 
0.141176 0.541176 0.368627 0.141176 0.541176 0.368627 
0.141176 0.541176 0.368627 0.141176 0.541176 0.368627 
0.141176 0.541176 0.368627 0.141176 0.541176 0.368627 
0.141176 0.541176 0.368627 0.141176 0.541176 0.368627 
0.141176 0.541176 0.368627 0.141176 0.541176 0.368627 
0.141176 0.541176 0.368627 0.141176 0.541176 0.368627 
0.141176 0.541176 0.368627 0.141176 0.541176 0.368627 
0.141176 0.541176 0.368627 0.141176 0.541176 0.368627 
0.141176 0.541176 0.368627 0.141176 0.541176 0.368627 
0.141176 0.541176 0.368627 0.141176 0.541176 0.368627 
0.141176 0.541176 0.368627 0.141176 0.541176 0.368627 
0.141176 0.541176 0.368627 0.141176 0.541176 0.368627 
0.141176 0.541176 0.368627 0.141176 0.541176 0.368627 
0.141176 0.541176 0.368627 0.141176 0.541176 0.368627 
0.141176 0.541176 0.368627 0.141176 0.541176 0.368627 
0.141176 0.541176 0.368627 0.141176 0.541176 0.368627 
0.141176 0.541176 0.368627 0.141176 0.541176 0.368627 
0.141176 0.541176 0.368627 0.141176 0.541176 0.368627 
0.141176 0.541176 0.368627 0.141176 0.541176 0.368627 
0.141176 0.541176 0.368627 0.141176 0.541176 0.368627 
0.141176 0.541176 0.368627 0.141176 0.541176 0.368627 
0.141176 0.541176 0.368627 0.141176 0.541176 0.368627 
0.141176 0.541176 0.368627 0.141176 0.541176 0.368627 
0.141176 0.541176 0.368627 0.141176 0.541176 0.368627 
0.141176 0.541176 0.368627 0.141176 0.541176 0.368627 
0.141176 0.541176 0.368627 0.141176 0.541176 0.368627 
0.141176 0.541176 0.368627 0.141176 0.541176 0.368627 
0.141176 0.541176 0.368627 0.141176 0.541176 0.368627 
0.141176 0.541176 0.368627 0.141176 0.541176 0.368627 
0.141176 0.541176 0.368627 0.141176 0.541176 0.368627 
0.141176 0.541176 0.368627 0.141176 0.541176 0.368627 
0.141176 0.541176 0.368627 0.141176 0.541176 0.368627 
0.141176 0.541176 0.368627 0.141176 0.541176 0.368627 
0.141176 0.541176 0.368627 0.141176 0.541176 0.368627 
0.141176 0.541176 0.368627 0.141176 0.541176 0.368627 
0.141176 0.541176 0.368627 0.141176 0.541176 0.368627 
0.141176 0.541176 0.368627 0.141176 0.541176 0.368627 
0.141176 0.541176 0.368627 0.141176 0.541176 0.368627 
0.141176 0.541176 0.368627 0.141176 0.541176 0.368627 
0.141176 0.541176 0.368627 0.141176 0.541176 0.368627 
0.141176 0.541176 0.368627 0.141176 0.541176 0.368627 
0.141176 0.541176 0.368627 0.141176 0.541176 0.368627 
0.141176 0.541176 0.368627 0.141176 0.541176 0.368627 
0.141176 0.541176 0.368627 0.141176 0.541176 0.368627 
0.141176 0.541176 0.368627 0.141176 0.541176 0.368627 
0.141176 0.541176 0.368627 0.141176 0.541176 0.368627 
0.141176 0.541176 0.368627 0.141176 0.541176 0.368627 
0.141176 0.541176 0.368627 0.141176 0.541176 0.368627 
0.141176 0.541176 0.368627 0.141176 0.541176 0.368627 
0.141176 0.541176 0.368627 0.141176 0.541176 0.368627 
0.141176 0.541176 0.368627 0.141176 0.541176 0.368627 
0.141176 0.541176 0.368627 0.141176 0.541176 0.368627 
0.141176 0.541176 0.368627 0.141176 0.541176 0.368627 
0.141176 0.541176 0.368627 0.141176 0.541176 0.368627 
0.141176 0.541176 0.368627 0.141176 0.541176 0.368627 
0.141176 0.541176 0.368627 0.141176 0.541176 0.368627 
0.141176 0.541176 0.368627 0.141176 0.541176 0.368627 
0.141176 0.541176 0.368627 0.141176 0.541176 0.368627 
0.141176 0.541176 0.368627 0.141176 0.541176 0.368627 
0.141176 0.541176 0.368627 0.141176 0.541176 0.368627 
0.141176 0.541176 0.368627 0.141176 0.541176 0.368627 
0.141176 0.541176 0.368627 0.141176 0.541176 0.368627 
0.141176 0.541176 0.368627 0.141176 0.541176 0.368627 
0.141176 0.541176 0.368627 0.141176 0.541176 0.368627 
0.141176 0.541176 0.368627 0.141176 0.541176 0.368627 
0.141176 0.541176 0.368627 0.141176 0.541176 0.368627 
0.141176 0.541176 0.368627 0.141176 0.541176 0.368627 
0.141176 0.541176 0.368627 0.141176 0.541176 0.368627 
0.141176 0.541176 0.368627 0.141176 0.541176 0.368627 
0.141176 0.541176 0.368627 0.141176 0.541176 0.368627 
0.141176 0.541176 0.368627 0.141176 0.541176 0.368627 
0.141176 0.541176 0.368627 0.141176 0.541176 0.368627 
0.141176 0.541176 0.368627 0.141176 0.541176 0.368627 
0.141176 0.541176 0.368627 0.141176 0.541176 0.368627 
0.141176 0.541176 0.368627 0.141176 0.541176 0.368627 
0.141176 0.541176 0.368627 0.141176 0.541176 0.368627 
0.141176 0.541176 0.368627 0.141176 0.541176 0.368627 
0.141176 0.541176 0.368627 0.141176 0.541176 0.368627 
0.141176 0.541176 0.368627 0.141176 0.541176 0.368627 
0.141176 0.541176 0.368627 0.141176 0.541176 0.368627 
0.141176 0.541176 0.368627 0.141176 0.541176 0.368627 
0.141176 0.541176 0.368627 0.141176 0.541176 0.368627 
0.141176 0.541176 0.368627 0.141176 0.541176 0.368627 
0.141176 0.541176 0.368627 0.141176 0.541176 0.368627 
0.141176 0.541176 0.368627 0.141176 0.541176 0.368627 
0.141176 0.541176 0.368627 0.141176 0.541176 0.368627 
0.141176 0.541176 0.368627 0.141176 0.541176 0.368627 
0.141176 0.541176 0.368627 0.141176 0.541176 0.368627 
0.141176 0.541176 0.368627 0.141176 0.541176 0.368627 
0.141176 0.541176 0.368627 0.141176 0.541176 0.368627 
0.141176 0.541176 0.368627 0.141176 0.541176 0.368627 
0.141176 0.541176 0.368627 0.141176 0.541176 0.368627 
0.141176 0.541176 0.368627 0.141176 0.541176 0.368627 
0.141176 0.541176 0.368627 0.141176 0.541176 0.368627 
0.141176 0.541176 0.368627 0.141176 0.541176 0.368627 
0.141176 0.541176 0.368627 0.141176 0.541176 0.368627 
0.141176 0.541176 0.368627 0.141176 0.541176 0.368627 
0.141176 0.541176 0.368627 0.141176 0.541176 0.368627 
0.141176 0.541176 0.368627 0.141176 0.541176 0.368627 
0.141176 0.541176 0.368627 0.141176 0.541176 0.368627 
0.141176 0.541176 0.368627 0.141176 0.541176 0.368627 
0.141176 0.541176 0.368627 0.141176 0.541176 0.368627 
0.141176 0.541176 0.368627 0.141176 0.541176 0.368627 
0.141176 0.541176 0.368627 0.141176 0.541176 0.368627 
0.141176 0.541176 0.368627 0.141176 0.541176 0.368627 
0.141176 0.541176 0.368627 0.141176 0.541176 0.368627 
0.141176 0.541176 0.368627 0.141176 0.541176 0.368627 
0.141176 0.541176 0.368627 0.141176 0.541176 0.368627 
0.141176 0.541176 0.368627 0.141176 0.541176 0.368627 
0.141176 0.541176 0.368627 0.141176 0.541176 0.368627 
0.141176 0.541176 0.368627 0.141176 0.541176 0.368627 
0.141176 0.541176 0.368627 0.141176 0.541176 0.368627 
0.141176 0.541176 0.368627 0.141176 0.541176 0.368627 
0.141176 0.541176 0.368627 0.141176 0.541176 0.368627 
0.141176 0.541176 0.368627 0.141176 0.541176 0.368627 
0.141176 0.541176 0.368627 0.141176 0.541176 0.368627 
0.141176 0.541176 0.368627 0.141176 0.541176 0.368627 
0.141176 0.541176 0.368627 0.141176 0.541176 0.368627 
0.141176 0.541176 0.368627 0.141176 0.541176 0.368627 
0.141176 0.541176 0.368627 0.141176 0.541176 0.368627 
0.141176 0.541176 0.368627 0.141176 0.541176 0.368627 
0.141176 0.541176 0.368627 0.141176 0.541176 0.368627 
0.141176 0.541176 0.368627 0.141176 0.541176 0.368627 
0.141176 0.541176 0.368627 0.141176 0.541176 0.368627 
0.141176 0.541176 0.368627 0.141176 0.541176 0.368627 
0.141176 0.541176 0.368627 0.141176 0.541176 0.368627 
0.141176 0.541176 0.368627 0.141176 0.541176 0.368627 
0.141176 0.541176 0.368627 0.141176 0.541176 0.368627 
0.141176 0.541176 0.368627 0.141176 0.541176 0.368627 
0.141176 0.541176 0.368627 0.141176 0.541176 0.368627 
0.141176 0.541176 0.368627 0.141176 0.541176 0.368627 
0.141176 0.541176 0.368627 0.141176 0.541176 0.368627 
0.141176 0.541176 0.368627 0.141176 0.541176 0.368627 
0.141176 0.541176 0.368627 0.141176 0.541176 0.368627 
0.141176 0.541176 0.368627 0.141176 0.541176 0.368627 
0.141176 0.541176 0.368627 0.141176 0.541176 0.368627 
0.141176 0.541176 0.368627 0.141176 0.541176 0.368627 
0.141176 0.541176 0.368627 0.141176 0.541176 0.368627 
0.141176 0.541176 0.368627 0.141176 0.541176 0.368627 
0.141176 0.541176 0.368627 0.141176 0.541176 0.368627 
0.141176 0.541176 0.368627 0.141176 0.541176 0.368627 
0.141176 0.541176 0.368627 0.141176 0.541176 0.368627 
0.141176 0.541176 0.368627 0.141176 0.541176 0.368627 
0.141176 0.541176 0.368627 0.141176 0.541176 0.368627 
0.141176 0.541176 0.368627 0.141176 0.541176 0.368627 
0.141176 0.541176 0.368627 0.141176 0.541176 0.368627 
0.141176 0.541176 0.368627 0.141176 0.541176 0.368627 
0.141176 0.541176 0.368627 0.141176 0.541176 0.368627 
0.141176 0.541176 0.368627 0.141176 0.541176 0.368627 
0.141176 0.541176 0.368627 0.141176 0.541176 0.368627 
0.141176 0.541176 0.368627 0.141176 0.541176 0.368627 
0.141176 0.541176 0.368627 0.141176 0.541176 0.368627 