# vtk DataFile Version 4.2
vtk output
ASCII
DATASET POLYDATA
POINTS 1192 float
80.5018 119.959 208.61 80.4936 119.985 208.645 80.4872 119.976 208.62 
80.5112 120.043 208.688 80.553 120.159 208.823 78.9756 120.801 209.181 
78.9314 120.782 209.237 78.8813 120.81 209.193 79.1634 120.793 209.166 
79.2958 120.878 209.124 80.3839 120.526 208.972 80.6238 120.388 209.059 
78.8819 120.891 209.227 78.8131 121.139 209.48 79.0331 120.958 209.196 
79.0513 121.269 209.295 80.3106 120.31 208.934 80.5504 120.328 209.152 
78.8613 120.868 209.276 78.9479 120.834 209.421 80.0107 120.528 209.333 
79.8969 120.869 209.137 80.7275 120.549 209.405 80.8008 120.819 209.38 
80.9443 120.778 209.633 78.0638 121.763 210.111 78.4922 121.334 210.055 
78.5075 121.58 209.767 78.9517 120.902 209.86 79.4331 121.444 209.272 
80.5088 121.15 209.289 81.1354 121.113 209.786 78.073 121.891 210.086 
77.9769 122.186 210.334 78.3101 122.006 209.923 81.4268 121.771 210.027 
78.1251 122.963 210.302 78.2132 123.277 210.348 79.0553 123.685 210.131 
78.4668 123.576 210.345 80.5002 120.494 209.614 80.8524 120.651 209.731 
77.9997 121.865 210.243 77.9589 121.886 210.587 77.7053 122.378 211.017 
77.9974 123.187 210.545 77.8045 123.29 211.003 79.3593 125.59 210.816 
82.3415 125.623 210.722 80.1 126.484 210.855 80.1216 120.534 210.393 
81.2473 120.91 210.397 77.9157 121.834 211.131 81.6611 121.153 210.836 
77.5536 122.364 211.327 77.6343 122.202 211.587 77.5144 122.391 211.443 
78.3015 124.722 211.202 84.0684 124.1 212.09 78.7986 126.716 212.041 
81.2358 127.156 210.896 79.9393 128.75 212.189 81.0549 128.659 211.469 
82.4121 128.838 211.286 82.2544 129.905 211.454 82.1912 130.019 211.543 
82.2818 130.002 211.474 81.032 120.697 210.871 78.2785 121.314 211.675 
79.7272 120.541 211.646 81.6971 120.843 211.516 77.5048 122.511 211.592 
83.5129 122.881 211.881 79.4034 128.318 212.489 82.2202 129.621 211.46 
82.7067 130.094 211.609 80.9401 131.144 212.928 82.2805 130.464 211.804 
83.091 131.751 212.232 79.4971 120.42 212.441 80.895 120.301 212.132 
77.4535 122.36 212.931 78.5066 127.753 213.655 83.3943 134.287 213.118 
88.3137 133.489 214.316 86.9252 134.714 213.462 87.8621 134.382 213.893 
83.5356 136.606 213.971 83.6421 137.543 214.356 81.2433 111.52 215.422 
80.9616 111.561 215.408 81.512 111.521 215.486 81.321 111.33 215.658 
81.5784 111.418 215.633 81.1725 111.746 215.284 81.6713 112.414 215.161 
82.1287 112.794 215.22 81.8003 113.465 214.983 82.0108 113.877 215.01 
82.24 119.723 213.327 83.1804 119.712 213.83 78.8694 120.393 213.374 
77.0464 122.846 214.447 82.4735 136.373 214.65 84.7012 139.592 215.041 
79 109.009 215.017 79 109.009 215.017 79 109.009 215.017 
79 109.009 215.017 79 109.009 215.017 81.3872 111.062 216.328 
82.3649 112.048 215.737 82.6667 111.972 216.107 80.3602 112.59 215.316 
82.5943 113.272 215.353 79.8139 115.721 215.162 79.6395 118.964 214.255 
81.2431 118.557 213.987 79.3425 119.481 214.071 80.9422 119.231 213.565 
77.6017 121.142 214.446 77.167 124.5 215.313 77.9978 127.259 214.964 
82.3227 136.56 215.053 82.3968 136.981 215.37 86.5936 138.77 214.236 
83.5264 138.416 215.144 85.0781 141.05 215.878 85.8082 141.604 215.627 
87.2833 141.542 215.023 86.0558 142.441 215.896 78.1808 110.356 217.216 
78.1056 110.382 217.317 78.2051 110.442 217.187 79 109.009 215.017 
78.2629 110.396 217.263 79.6129 110.999 216.574 79.0378 111.314 216.463 
79.4895 111.357 216.217 81.0207 110.932 216.54 80.7756 110.806 217.047 
82.2542 111.378 216.615 83.1756 112.051 216.713 83.3647 112.791 216.21 
83.5813 113.518 216.033 84.1844 114.014 216.395 78.5569 115.266 215.95 
83.8267 115.242 215.696 78.5213 116.207 215.849 77.4752 120.362 215.439 
77.42 120.86 215.158 82.1139 137.039 216.371 85.9695 142.929 216.493 
78.0785 110.584 217.278 77.9277 110.473 217.542 78.1644 110.366 217.495 
78.4923 110.442 217.429 78.0788 111.017 217.158 78.535 110.719 217.044 
77.9975 111.633 217.064 77.6532 111.837 217.491 78.334 112.123 216.63 
84.2499 112.942 217.268 84.4268 112.714 217.896 77.7533 113.269 216.999 
85.2457 114.218 217.441 78.081 114.735 216.426 77.962 116.595 216.263 
77.6809 118.47 216.088 77.0759 119.994 216.522 80.2521 132.601 216.86 
81.6672 136.285 217.265 82.596 138.107 217.241 83.1932 139.036 216.702 
95.0806 145.526 217.297 89.8947 146.949 216.853 90.5205 147.169 216.756 
91.0799 147.113 216.651 93.8088 147.014 216.9 88.6698 146.953 217.633 
89.5549 147.536 217.382 89.4494 148.505 218.224 89.7891 148.806 218.078 
90.165 148.871 217.838 92.4372 151.083 217.951 98.7528 150.834 218.279 
121.918 178.918 218.68 121.415 178.445 218.703 122.647 178.778 218.55 
121.868 179.176 218.834 122.074 179.388 219.009 122.827 179.03 218.597 
123.145 179.185 218.706 122.643 179.522 219.101 77.7349 110.578 217.661 
77.7892 110.567 217.826 77.6741 110.603 217.756 78.054 110.43 217.777 
78.3224 110.391 217.702 77.6632 110.726 217.708 77.6265 111.172 217.801 
77.2091 112.738 218.051 77.1834 112.65 218.368 83.7321 111.93 218.501 
77.1528 113.279 217.911 77.0049 113.586 218.202 86.1208 113.973 218.696 
76.9386 114.15 218.334 76.9954 114.634 217.995 76.9612 117.678 217.506 
76.8876 118.008 217.93 76.9042 119.81 217.584 81.5388 135.86 218.15 
83.3238 139.469 217.77 87.6907 146.491 218.805 88.4813 147.274 218.252 
88.6462 147.722 218.639 97.6234 147.943 218.316 96.9216 150.162 217.802 
94.8451 151.478 217.728 95.5944 151.099 217.647 98.7658 151.461 218.284 
98.7171 152.381 218.254 119.935 177.4 218.963 120.921 177.007 218.792 
120.336 178.245 218.957 121.149 179.19 219.288 124.522 178.948 218.845 
124.997 179.19 219.016 121.957 179.608 219.508 124.153 179.617 219.258 
127.49 179.913 219.4 127.306 180.019 219.534 128.246 179.913 219.498 
128.114 179.641 219.407 127.725 180.083 219.541 128.123 180.075 219.582 
128.45 179.998 219.644 77.6619 110.747 217.842 77.7421 110.907 218.127 
77.9899 110.605 218.09 77.5321 111.818 218.576 80.6341 110.895 219.013 
81.8345 111.096 218.738 77.105 112.963 218.582 77.1446 113.161 218.862 
85.5539 113.049 219.537 76.9555 114.058 218.721 77.047 117.775 218.997 
81.2286 134.465 218.905 82.3105 137.467 218.196 84.5117 141.546 218.758 
88.0892 147.227 219.68 90.6209 150.863 219.655 96.2396 153.174 218.145 
97.2092 153.098 218.119 96.1105 154.056 218.423 95.9382 154.869 218.749 
102.323 155.054 219.335 94.328 155.332 219.768 99.6494 157.511 218.933 
99.9425 156.997 218.852 102.002 156.897 219.098 106.948 163.138 219.503 
112.189 167.655 219.862 111.727 169.016 219.599 117.297 175.938 219.39 
124.741 176.75 219.179 124.181 177.976 218.832 131.42 177.957 220.056 
131.955 177.952 220.276 132.307 177.909 220.468 132.167 177.626 220.438 
119.461 178.505 219.478 130.497 178.432 219.822 131.108 178.313 219.977 
132.49 178.003 220.687 119.629 178.963 219.716 119.987 179.28 219.91 
131.01 178.747 220.115 132.411 178.271 220.76 122.624 179.971 220.087 
125.783 179.834 219.621 126.756 180.012 219.749 131.244 179.017 220.429 
127.979 180.183 219.74 82.1858 111.422 219.875 77.6113 112.524 219.322 
77.0332 114.405 219.021 88.8086 116.257 219.881 77.2442 117.162 219.529 
89.0211 116.887 219.758 90.2003 124.661 219.269 79.0274 126.781 219.647 
79.3132 128.949 218.802 81.4937 134.217 219.769 93.839 155.511 220.637 
94.7673 156.601 220.88 97.0209 157.887 219.859 99.0404 158.278 219.263 
97.6995 159.711 221.008 100.419 160.797 219.915 101.515 161.422 219.758 
98.667 160.415 220.773 101.322 162.371 220.166 103.814 162.16 219.492 
105.949 163.874 219.55 108.751 163.383 219.888 110.908 169.741 219.705 
121.218 175.075 219.373 131.955 177.199 220.528 132.628 177.781 220.927 
118.299 178.592 220.079 126.926 180.258 220.29 129.139 180.052 220.602 
80.2997 111.452 220.191 81.6031 111.672 220.672 78.7234 112.396 220.451 
85.3061 112.767 221.172 86.5707 113.391 220.856 87.5327 113.986 220.86 
89.0175 115.179 220.936 89.1865 114.77 221.694 81.8822 134.154 220.499 
91.5121 152.479 221.274 94.3393 156.221 221.203 95.2244 157.283 221.927 
97.0934 159.426 221.838 100.853 162.19 220.445 101.933 162.549 220.044 
100.093 162.537 221.584 102.357 163.968 220.587 102.474 166.194 222.439 
102.892 166.508 222.132 105.454 169.55 222.345 106.431 169.87 221.295 
109.581 169.703 219.916 108.968 170.824 220.422 109.545 173.883 221.842 
110.357 174.408 221.505 110.857 174.98 221.538 111.071 174.62 221.159 
129.892 175.05 220.805 131.201 175.92 220.915 132.192 175.973 221.887 
115.697 176.79 220.182 132.453 178.563 221.63 123.128 180.29 221.396 
126.97 180.327 220.898 131.086 179.471 221.264 119.341 180.074 221.597 
79.734 112.076 220.865 80.899 111.737 220.736 79.5952 112.408 221.072 
79.0744 113.393 221.2 84.0768 112.658 222.19 78.9787 114.26 221.405 
78.8392 118.076 221.627 98.0732 141.715 221.099 87.4297 145.539 221.578 
99.9475 145.604 221.017 104.407 153.072 221.059 100.863 164.066 222.647 
104.321 168.344 222.943 105.802 170.096 222.888 106.898 171.305 222.325 
107.451 171.608 221.739 107.628 172.335 222.706 130.044 172.439 222.515 
130.938 173.465 222.515 127.773 173.463 221.035 109.994 175.042 223.163 
110.407 175.472 222.938 111.446 176.246 222.456 111.733 176.843 223.263 
112.217 177.196 223.098 113.269 177.983 223.256 114.091 178.035 222.141 
115.52 178.357 221.374 132.679 178.243 222.131 114.324 178.654 223.234 
131.999 179.035 222.345 124.812 180.326 221.987 130.979 179.594 221.877 
84.2784 112.893 222.981 84.1068 112.911 222.905 80.9742 113.349 222.264 
83.3886 113.018 222.857 84.865 113.035 222.855 88.9061 114.277 222.879 
93.5867 118.066 222.541 95.4968 117.765 224.194 99.4452 120.137 223.864 
99.3605 120.728 223.356 100.821 120.584 224.153 101.432 120.694 224.443 
80.02 122.365 222.228 104.306 122.846 223.692 103.183 123.446 222.974 
106.187 123.814 223.762 107.142 124.079 224.018 108.141 124.787 223.929 
110.417 125.742 224.305 112.135 127.113 223.861 112.166 126.778 224.246 
115.636 129.628 223.884 116.071 129.457 224.292 116.513 129.735 224.39 
117.162 130.466 224.455 111.85 130.994 222.607 115.555 131.971 223.061 
117.564 131.575 224.216 117.532 131.997 224.032 117.816 131.967 224.324 
[...]
POINT_DATA 1192
COLOR_SCALARS scalars 3
0.141176 0.541176 0.368627 0.141176 0.541176 0.368627 0.141176 0.541176 0.368627 
0.141176 0.541176 0.368627 0.141176 0.541176 0.368627 
0.141176 0.541176 0.368627 0.141176 0.541176 0.368627 
0.141176 0.541176 0.368627 0.141176 0.541176 0.368627 
0.141176 0.541176 0.368627 0.141176 0.541176 0.368627 
0.141176 0.541176 0.368627 0.141176 0.541176 0.368627 
0.141176 0.541176 0.368627 0.141176 0.541176 0.368627 
0.141176 0.541176 0.368627 0.141176 0.541176 0.368627 
0.141176 0.541176 0.368627 0.141176 0.541176 0.368627 
0.141176 0.541176 0.368627 0.141176 0.541176 0.368627 
0.141176 0.541176 0.368627 0.141176 0.541176 0.368627 
0.141176 0.541176 0.368627 0.141176 0.541176 0.368627 
0.141176 0.541176 0.368627 0.141176 0.541176 0.368627 
0.141176 0.541176 0.368627 0.141176 0.541176 0.368627 
0.141176 0.541176 0.368627 0.141176 0.541176 0.368627 
0.141176 0.541176 0.368627 0.141176 0.541176 0.368627 
0.141176 0.541176 0.368627 0.141176 0.541176 0.368627 
0.141176 0.541176 0.368627 0.141176 0.541176 0.368627 
0.141176 0.541176 0.368627 0.141176 0.541176 0.368627 
0.141176 0.541176 0.368627 0.141176 0.541176 0.368627 
0.141176 0.541176 0.368627 0.141176 0.541176 0.368627 
0.141176 0.541176 0.368627 0.141176 0.541176 0.368627 
0.141176 0.541176 0.368627 0.141176 0.541176 0.368627 
0.141176 0.541176 0.368627 0.141176 0.541176 0.368627 
0.141176 0.541176 0.368627 0.141176 0.541176 0.368627 
0.141176 0.541176 0.368627 0.141176 0.541176 0.368627 
0.141176 0.541176 0.368627 0.141176 0.541176 0.368627 
0.141176 0.541176 0.368627 0.141176 0.541176 0.368627 
0.141176 0.541176 0.368627 0.141176 0.541176 0.368627 
0.141176 0.541176 0.368627 0.141176 0.541176 0.368627 
0.141176 0.541176 0.368627 0.141176 0.541176 0.368627 
0.141176 0.541176 0.368627 0.141176 0.541176 0.368627 
0.141176 0.541176 0.368627 0.141176 0.541176 0.368627 
0.141176 0.541176 0.368627 0.141176 0.541176 0.368627 
0.141176 0.541176 0.368627 0.141176 0.541176 0.368627 
0.141176 0.541176 0.368627 0.141176 0.541176 0.368627 
0.141176 0.541176 0.368627 0.141176 0.541176 0.368627 
0.141176 0.541176 0.368627 0.141176 0.541176 0.368627 
0.141176 0.541176 0.368627 0.141176 0.541176 0.368627 
0.141176 0.541176 0.368627 0.141176 0.541176 0.368627 
0.141176 0.541176 0.368627 0.141176 0.541176 0.368627 
0.141176 0.541176 0.368627 0.141176 0.541176 0.368627 
0.141176 0.541176 0.368627 0.141176 0.541176 0.368627 
0.141176 0.541176 0.368627 0.141176 0.541176 0.368627 
0.141176 0.541176 0.368627 0.141176 0.541176 0.368627 
0.141176 0.541176 0.368627 0.141176 0.541176 0.368627 
0.141176 0.541176 0.368627 0.141176 0.541176 0.368627 
0.141176 0.541176 0.368627 0.141176 0.541176 0.368627 
0.141176 0.541176 0.368627 0.141176 0.541176 0.368627 
0.141176 0.541176 0.368627 0.141176 0.541176 0.368627 
0.141176 0.541176 0.368627 0.141176 0.541176 0.368627 
0.141176 0.541176 0.368627 0.141176 0.541176 0.368627 
0.141176 0.541176 0.368627 0.141176 0.541176 0.368627 
0.141176 0.541176 0.368627 0.141176 0.541176 0.368627 
0.141176 0.541176 0.368627 0.141176 0.541176 0.368627 
0.141176 0.541176 0.368627 0.141176 0.541176 0.368627 
0.141176 0.541176 0.368627 0.141176 0.541176 0.368627 
0.141176 0.541176 0.368627 0.141176 0.541176 0.368627 
0.141176 0.541176 0.368627 0.141176 0.541176 0.368627 
0.141176 0.541176 0.368627 0.141176 0.541176 0.368627 
0.141176 0.541176 0.368627 0.141176 0.541176 0.368627 
0.141176 0.541176 0.368627 0.141176 0.541176 0.368627 
0.141176 0.541176 0.368627 0.141176 0.541176 0.368627 
0.141176 0.541176 0.368627 0.141176 0.541176 0.368627 
0.141176 0.541176 0.368627 0.141176 0.541176 0.368627 
0.141176 0.541176 0.368627 0.141176 0.541176 0.368627 
0.141176 0.541176 0.368627 0.141176 0.541176 0.368627 
0.141176 0.541176 0.368627 0.141176 0.541176 0.368627 
0.141176 0.541176 0.368627 0.141176 0.541176 0.368627 
0.141176 0.541176 0.368627 0.141176 0.541176 0.368627 
0.141176 0.541176 0.368627 0.141176 0.541176 0.368627 
0.141176 0.541176 0.368627 0.141176 0.541176 0.368627 
0.141176 0.541176 0.368627 0.141176 0.541176 0.368627 
0.141176 0.541176 0.368627 0.141176 0.541176 0.368627 
0.141176 0.541176 0.368627 0.141176 0.541176 0.368627 
0.141176 0.541176 0.368627 0.141176 0.541176 0.368627 
0.141176 0.541176 0.368627 0.141176 0.541176 0.368627 
0.141176 0.541176 0.368627 0.141176 0.541176 0.368627 
0.141176 0.541176 0.368627 0.141176 0.541176 0.368627 
0.141176 0.541176 0.368627 0.141176 0.541176 0.368627 
0.141176 0.541176 0.368627 0.141176 0.541176 0.368627 
0.141176 0.541176 0.368627 0.141176 0.541176 0.368627 
0.141176 0.541176 0.368627 0.141176 0.541176 0.368627 
0.141176 0.541176 0.368627 0.141176 0.541176 0.368627 
0.141176 0.541176 0.368627 0.141176 0.541176 0.368627 
0.141176 0.541176 0.368627 0.141176 0.541176 0.368627 
0.141176 0.541176 0.368627 0.141176 0.541176 0.368627 
0.141176 0.541176 0.368627 0.141176 0.541176 0.368627 
0.141176 0.541176 0.368627 0.141176 0.541176 0.368627 
0.141176 0.541176 0.368627 0.141176 0.541176 0.368627 
0.141176 0.541176 0.368627 0.141176 0.541176 0.368627 
0.141176 0.541176 0.368627 0.141176 0.541176 0.368627 
0.141176 0.541176 0.368627 0.141176 0.541176 0.368627 
0.141176 0.541176 0.368627 0.141176 0.541176 0.368627 
0.141176 0.541176 0.368627 0.141176 0.541176 0.368627 
0.141176 0.541176 0.368627 0.141176 0.541176 0.368627 
0.141176 0.541176 0.368627 0.141176 0.541176 0.368627 
0.141176 0.541176 0.368627 0.141176 0.541176 0.368627 
0.141176 0.541176 0.368627 0.141176 0.541176 0.368627 
0.141176 0.541176 0.368627 0.141176 0.541176 0.368627 
0.141176 0.541176 0.368627 0.141176 0.541176 0.368627 
0.141176 0.541176 0.368627 0.141176 0.541176 0.368627 
0.141176 0.541176 0.368627 0.141176 0.541176 0.368627 
0.141176 0.541176 0.368627 0.141176 0.541176 0.368627 
0.141176 0.541176 0.368627 0.141176 0.541176 0.368627 
0.141176 0.541176 0.368627 0.141176 0.541176 0.368627 
0.141176 0.541176 0.368627 0.141176 0.541176 0.368627 
0.141176 0.541176 0.368627 0.141176 0.541176 0.368627 
0.141176 0.541176 0.368627 0.141176 0.541176 0.368627 
0.141176 0.541176 0.368627 0.141176 0.541176 0.368627 
0.141176 0.541176 0.368627 0.141176 0.541176 0.368627 
0.141176 0.541176 0.368627 0.141176 0.541176 0.368627 
0.141176 0.541176 0.368627 0.141176 0.541176 0.368627 
0.141176 0.541176 0.368627 0.141176 0.541176 0.368627 
0.141176 0.541176 0.368627 0.141176 0.541176 0.368627 
0.141176 0.541176 0.368627 0.141176 0.541176 0.368627 
0.141176 0.541176 0.368627 0.141176 0.541176 0.368627 
0.141176 0.541176 0.368627 0.141176 0.541176 0.368627 
0.141176 0.541176 0.368627 0.141176 0.541176 0.368627 
0.141176 0.541176 0.368627 0.141176 0.541176 0.368627 
0.141176 0.541176 0.368627 0.141176 0.541176 0.368627 
0.141176 0.541176 0.368627 0.141176 0.541176 0.368627 
0.141176 0.541176 0.368627 0.141176 0.541176 0.368627 
0.141176 0.541176 0.368627 0.141176 0.541176 0.368627 
0.141176 0.541176 0.368627 0.141176 0.541176 0.368627 
0.141176 0.541176 0.368627 0.141176 0.541176 0.368627 
0.141176 0.541176 0.368627 0.141176 0.541176 0.368627 
0.141176 0.541176 0.368627 0.141176 0.541176 0.368627 
0.141176 0.541176 0.368627 0.141176 0.541176 0.368627 
0.141176 0.541176 0.368627 0.141176 0.541176 0.368627 
0.141176 0.541176 0.368627 0.141176 0.541176 0.368627 
0.141176 0.541176 0.368627 0.141176 0.541176 0.368627 
0.141176 0.541176 0.368627 0.141176 0.541176 0.368627 
0.141176 0.541176 0.368627 0.141176 0.541176 0.368627 
0.141176 0.541176 0.368627 0.141176 0.541176 0.368627 
0.141176 0.541176 0.368627 0.141176 0.541176 0.368627 
0.141176 0.541176 0.368627 0.141176 0.541176 0.368627 
0.141176 0.541176 0.368627 0.141176 0.541176 0.368627 
0.141176 0.541176 0.368627 0.141176 0.541176 0.368627 
0.141176 0.541176 0.368627 0.141176 0.541176 0.368627 
0.141176 0.541176 0.368627 0.141176 0.541176 0.368627 
0.141176 0.541176 0.368627 0.141176 0.541176 0.368627 
0.141176 0.541176 0.368627 0.141176 0.541176 0.368627 
0.141176 0.541176 0.368627 0.141176 0.541176 0.368627 
0.141176 0.541176 0.368627 0.141176 0.541176 0.368627 
0.141176 0.541176 0.368627 0.141176 0.541176 0.368627 
0.141176 0.541176 0.368627 0.141176 0.541176 0.368627 
0.141176 0.541176 0.368627 0.141176 0.541176 0.368627 
0.141176 0.541176 0.368627 0.141176 0.541176 0.368627 
0.141176 0.541176 0.368627 0.141176 0.541176 0.368627 
0.141176 0.541176 0.368627 0.141176 0.541176 0.368627 
0.141176 0.541176 0.368627 0.141176 0.541176 0.368627 
0.141176 0.541176 0.368627 0.141176 0.541176 0.368627 
0.141176 0.541176 0.368627 0.141176 0.541176 0.368627 
0.141176 0.541176 0.368627 0.141176 0.541176 0.368627 
0.141176 0.541176 0.368627 0.141176 0.541176 0.368627 
0.141176 0.541176 0.368627 0.141176 0.541176 0.368627 
0.141176 0.541176 0.368627 0.141176 0.541176 0.368627 
0.141176 0.541176 0.368627 0.141176 0.541176 0.368627 
0.141176 0.541176 0.368627 0.141176 0.541176 0.368627 
0.141176 0.541176 0.368627 0.141176 0.541176 0.368627 
0.141176 0.541176 0.368627 0.141176 0.541176 0.368627 
0.141176 0.541176 0.368627 0.141176 0.541176 0.368627 
0.141176 0.541176 0.368627 0.141176 0.541176 0.368627 
0.141176 0.541176 0.368627 0.141176 0.541176 0.368627 
0.141176 0.541176 0.368627 0.141176 0.541176 0.368627 
0.141176 0.541176 0.368627 0.141176 0.541176 0.368627 
0.141176 0.541176 0.368627 0.141176 0.541176 0.368627 
0.141176 0.541176 0.368627 0.141176 0.541176 0.368627 
0.141176 0.541176 0.368627 0.141176 0.541176 0.368627 
0.141176 0.541176 0.368627 0.141176 0.541176 0.368627 
0.141176 0.541176 0.368627 0.141176 0.541176 0.368627 
0.141176 0.541176 0.368627 0.141176 0.541176 0.368627 
0.141176 0.541176 0.368627 0.141176 0.541176 0.368627 
0.141176 0.541176 0.368627 0.141176 0.541176 0.368627 
0.141176 0.541176 0.368627 0.141176 0.541176 0.368627 
0.141176 0.541176 0.368627 0.141176 0.541176 0.368627 
0.141176 0.541176 0.368627 0.141176 0.541176 0.368627 
0.141176 0.541176 0.368627 0.141176 0.541176 0.368627 
0.141176 0.541176 0.368627 0.141176 0.541176 0.368627 
0.141176 0.541176 0.368627 0.141176 0.541176 0.368627 
0.141176 0.541176 0.368627 0.141176 0.541176 0.368627 
0.141176 0.541176 0.368627 0.141176 0.541176 0.368627 
0.141176 0.541176 0.368627 0.141176 0.541176 0.368627 
0.141176 0.541176 0.368627 0.141176 0.541176 0.368627 
0.141176 0.541176 0.368627 0.141176 0.541176 0.368627 
0.141176 0.541176 0.368627 0.141176 0.541176 0.368627 
0.141176 0.541176 0.368627 0.141176 0.541176 0.368627 
0.141176 0.541176 0.368627 0.141176 0.541176 0.368627 
0.141176 0.541176 0.368627 0.141176 0.541176 0.368627 
0.141176 0.541176 0.368627 0.141176 0.541176 0.368627 
0.141176 0.541176 0.368627 0.141176 0.541176 0.368627 
0.141176 0.541176 0.368627 0.141176 0.541176 0.368627 
0.141176 0.541176 0.368627 0.141176 0.541176 0.368627 
0.141176 0.541176 0.368627 0.141176 0.541176 0.368627 
0.141176 0.541176 0.368627 0.141176 0.541176 0.368627 
0.141176 0.541176 0.368627 0.141176 0.541176 0.368627 
0.141176 0.541176 0.368627 0.141176 0.541176 0.368627 
0.141176 0.541176 0.368627 0.141176 0.541176 0.368627 
0.141176 0.541176 0.368627 0.141176 0.541176 0.368627 
0.141176 0.541176 0.368627 0.141176 0.541176 0.368627 
0.141176 0.541176 0.368627 0.141176 0.541176 0.368627 
0.141176 0.541176 0.368627 0.141176 0.541176 0.368627 
0.141176 0.541176 0.368627 0.141176 0.541176 0.368627 
0.141176 0.541176 0.368627 0.141176 0.541176 0.368627 
0.141176 0.541176 0.368627 0.141176 0.541176 0.368627 
0.141176 0.541176 0.368627 0.141176 0.541176 0.368627 
0.141176 0.541176 0.368627 0.141176 0.541176 0.368627 
0.141176 0.541176 0.368627 0.141176 0.541176 0.368627 
0.141176 0.541176 0.368627 0.141176 0.541176 0.368627 
0.141176 0.541176 0.368627 0.141176 0.541176 0.368627 
0.141176 0.541176 0.368627 0.141176 0.541176 0.368627 
0.141176 0.541176 0.368627 0.141176 0.541176 0.368627 
0.141176 0.541176 0.368627 0.141176 0.541176 0.368627 
0.141176 0.541176 0.368627 0.141176 0.541176 0.368627 
0.141176 0.541176 0.368627 0.141176 0.541176 0.368627 
0.141176 0.541176 0.368627 0.141176 0.541176 0.368627 
0.141176 0.541176 0.368627 0.141176 0.541176 0.368627 
0.141176 0.541176 0.368627 0.141176 0.541176 0.368627 
0.141176 0.541176 0.368627 0.141176 0.541176 0.368627 
0.141176 0.541176 0.368627 0.141176 0.541176 0.368627 
0.141176 0.541176 0.368627 0.141176 0.541176 0.368627 
0.141176 0.541176 0.368627 0.141176 0.541176 0.368627 
0.141176 0.541176 0.368627 0.141176 0.541176 0.368627 
0.141176 0.541176 0.368627 0.141176 0.541176 0.368627 
0.141176 0.541176 0.368627 0.141176 0.541176 0.368627 
0.141176 0.541176 0.368627 0.141176 0.541176 0.368627 
0.141176 0.541176 0.368627 0.141176 0.541176 0.368627 
0.141176 0.541176 0.368627 0.141176 0.541176 0.368627 
0.141176 0.541176 0.368627 0.141176 0.541176 0.368627 
0.141176 0.541176 0.368627 0.141176 0.541176 0.368627 
0.141176 0.541176 0.368627 0.141176 0.541176 0.368627 
0.141176 0.541176 0.368627 0.141176 0.541176 0.368627 
0.141176 0.541176 0.368627 0.141176 0.541176 0.368627 
0.141176 0.541176 0.368627 0.141176 0.541176 0.368627 
0.141176 0.541176 0.368627 0.141176 0.541176 0.368627 
0.141176 0.541176 0.368627 0.141176 0.541176 0.368627 
0.141176 0.541176 0.368627 0.141176 0.541176 0.368627 
0.141176 0.541176 0.368627 0.141176 0.541176 0.368627 
0.141176 0.541176 0.368627 0.141176 0.541176 0.368627 
0.141176 0.541176 0.368627 0.141176 0.541176 0.368627 
0.141176 0.541176 0.368627 0.141176 0.541176 0.368627 
0.141176 0.541176 0.368627 0.141176 0.541176 0.368627 
0.141176 0.541176 0.368627 0.141176 0.541176 0.368627 
0.141176 0.541176 0.368627 0.141176 0.541176 0.368627 
0.141176 0.541176 0.368627 0.141176 0.541176 0.368627 
0.141176 0.541176 0.368627 0.141176 0.541176 0.368627 
0.141176 0.541176 0.368627 0.141176 0.541176 0.368627 
0.141176 0.541176 0.368627 0.141176 0.541176 0.368627 
0.141176 0.541176 0.368627 0.141176 0.541176 0.368627 
0.141176 0.541176 0.368627 0.141176 0.541176 0.368627 
0.141176 0.541176 0.368627 0.141176 0.541176 0.368627 
0.141176 0.541176 0.368627 0.141176 0.541176 0.368627 
0.141176 0.541176 0.368627 0.141176 0.541176 0.368627 
0.141176 0.541176 0.368627 0.141176 0.541176 0.368627 
0.141176 0.541176 0.368627 0.141176 0.541176 0.368627 
0.141176 0.541176 0.368627 0.141176 0.541176 0.368627 
0.141176 0.541176 0.368627 0.141176 0.541176 0.368627 
0.141176 0.541176 0.368627 0.141176 0.541176 0.368627 
0.141176 0.541176 0.368627 0.141176 0.541176 0.368627 
0.141176 0.541176 0.368627 0.141176 0.541176 0.368627 
0.141176 0.541176 0.368627 0.141176 0.541176 0.368627 
0.141176 0.541176 0.368627 0.141176 0.541176 0.368627 
0.141176 0.541176 0.368627 0.141176 0.541176 0.368627 
0.141176 0.541176 0.368627 0.141176 0.541176 0.368627 
0.141176 0.541176 0.368627 0.141176 0.541176 0.368627 
0.141176 0.541176 0.368627 0.141176 0.541176 0.368627 
0.141176 0.541176 0.368627 0.141176 0.541176 0.368627 
0.141176 0.541176 0.368627 0.141176 0.541176 0.368627 
0.141176 0.541176 0.368627 0.141176 0.541176 0.368627 
0.141176 0.541176 0.368627 0.141176 0.541176 0.368627 
0.141176 0.541176 0.368627 0.141176 0.541176 0.368627 
0.141176 0.541176 0.368627 0.141176 0.541176 0.368627 
0.141176 0.541176 0.368627 0.141176 0.541176 0.368627 
0.141176 0.541176 0.368627 0.141176 0.541176 0.368627 
0.141176 0.541176 0.368627 0.141176 0.541176 0.368627 
0.141176 0.541176 0.368627 0.141176 0.541176 0.368627 
0.141176 0.541176 0.368627 0.141176 0.541176 0.368627 
0.141176 0.541176 0.368627 0.141176 0.541176 0.368627 
0.141176 0.541176 0.368627 0.141176 0.541176 0.368627 
0.141176 0.541176 0.368627 0.141176 0.541176 0.368627 
0.141176 0.541176 0.368627 0.141176 0.541176 0.368627 
0.141176 0.541176 0.368627 0.141176 0.541176 0.368627 
0.141176 0.541176 0.368627 0.141176 0.541176 0.368627 
0.141176 0.541176 0.368627 0.141176 0.541176 0.368627 
0.141176 0.541176 0.368627 0.141176 0.541176 0.368627 
0.141176 0.541176 0.368627 0.141176 0.541176 0.368627 
0.141176 0.541176 0.368627 0.141176 0.541176 0.368627 
0.141176 0.541176 0.368627 0.141176 0.541176 0.368627 
0.141176 0.541176 0.368627 0.141176 0.541176 0.368627 
0.141176 0.541176 0.368627 0.141176 0.541176 0.368627 
0.141176 0.541176 0.368627 0.141176 0.541176 0.368627 
0.141176 0.541176 0.368627 0.141176 0.541176 0.368627 
0.141176 0.541176 0.368627 0.141176 0.541176 0.368627 
0.141176 0.541176 0.368627 0.141176 0.541176 0.368627 
0.141176 0.541176 0.368627 0.141176 0.541176 0.368627 
0.141176 0.541176 0.368627 0.141176 0.541176 0.368627 
0.141176 0.541176 0.368627 0.141176 0.541176 0.368627 
0.141176 0.541176 0.368627 0.141176 0.541176 0.368627 
0.141176 0.541176 0.368627 0.141176 0.541176 0.368627 
0.141176 0.541176 0.368627 0.141176 0.541176 0.368627 
0.141176 0.541176 0.368627 0.141176 0.541176 0.368627 
0.141176 0.541176 0.368627 0.141176 0.541176 0.368627 
0.141176 0.541176 0.368627 0.141176 0.541176 0.368627 
0.141176 0.541176 0.368627 0.141176 0.541176 0.368627 
0.141176 0.541176 0.368627 0.141176 0.541176 0.368627 
0.141176 0.541176 0.368627 0.141176 0.541176 0.368627 
0.141176 0.541176 0.368627 0.141176 0.541176 0.368627 
0.141176 0.541176 0.368627 0.141176 0.541176 0.368627 
0.141176 0.541176 0.368627 0.141176 0.541176 0.368627 
0.141176 0.541176 0.368627 0.141176 0.541176 0.368627 
0.141176 0.541176 0.368627 0.141176 0.541176 0.368627 
0.141176 0.541176 0.368627 0.141176 0.541176 0.368627 
0.141176 0.541176 0.368627 0.141176 0.541176 0.368627 
0.141176 0.541176 0.368627 0.141176 0.541176 0.368627 
0.141176 0.541176 0.368627 0.141176 0.541176 0.368627 
0.141176 0.541176 0.368627 0.141176 0.541176 0.368627 
0.141176 0.541176 0.368627 0.141176 0.541176 0.368627 
0.141176 0.541176 0.368627 0.141176 0.541176 0.368627 
0.141176 0.541176 0.368627 0.141176 0.541176 0.368627 
0.141176 0.541176 0.368627 0.141176 0.541176 0.368627 
0.141176 0.541176 0.368627 0.141176 0.541176 0.368627 
0.141176 0.541176 0.368627 0.141176 0.541176 0.368627 
0.141176 0.541176 0.368627 0.141176 0.541176 0.368627 
0.141176 0.541176 0.368627 0.141176 0.541176 0.368627 
0.141176 0.541176 0.368627 0.141176 0.541176 0.368627 
0.141176 0.541176 0.368627 0.141176 0.541176 0.368627 
0.141176 0.541176 0.368627 0.141176 0.541176 0.368627 
0.141176 0.541176 0.368627 0.141176 0.541176 0.368627 
0.141176 0.541176 0.368627 0.141176 0.541176 0.368627 
0.141176 0.541176 0.368627 0.141176 0.541176 0.368627 
0.141176 0.541176 0.368627 0.141176 0.541176 0.368627 
0.141176 0.541176 0.368627 0.141176 0.541176 0.368627 
0.141176 0.541176 0.368627 0.141176 0.541176 0.368627 
0.141176 0.541176 0.368627 0.141176 0.541176 0.368627 
0.141176 0.541176 0.368627 0.141176 0.541176 0.368627 
0.141176 0.541176 0.368627 0.141176 0.541176 0.368627 
0.141176 0.541176 0.368627 0.141176 0.541176 0.368627 
0.141176 0.541176 0.368627 0.141176 0.541176 0.368627 
0.141176 0.541176 0.368627 0.141176 0.541176 0.368627 
0.141176 0.541176 0.368627 0.141176 0.541176 0.368627 
0.141176 0.541176 0.368627 0.141176 0.541176 0.368627 
0.141176 0.541176 0.368627 0.141176 0.541176 0.368627 
0.141176 0.541176 0.368627 0.141176 0.541176 0.368627 
0.141176 0.541176 0.368627 0.141176 0.541176 0.368627 
0.141176 0.541176 0.368627 0.141176 0.541176 0.368627 
0.141176 0.541176 0.368627 0.141176 0.541176 0.368627 
0.141176 0.541176 0.368627 0.141176 0.541176 0.368627 
0.141176 0.541176 0.368627 0.141176 0.541176 0.368627 
0.141176 0.541176 0.368627 0.141176 0.541176 0.368627 
0.141176 0.541176 0.368627 0.141176 0.541176 0.368627 
0.141176 0.541176 0.368627 0.141176 0.541176 0.368627 
0.141176 0.541176 0.368627 0.141176 0.541176 0.368627 
0.141176 0.541176 0.368627 0.141176 0.541176 0.368627 
0.141176 0.541176 0.368627 0.141176 0.541176 0.368627 
0.141176 0.541176 0.368627 0.141176 0.541176 0.368627 
0.141176 0.541176 0.368627 0.141176 0.541176 0.368627 
0.141176 0.541176 0.368627 0.141176 0.541176 0.368627 
0.141176 0.541176 0.368627 0.141176 0.541176 0.368627 
0.141176 0.541176 0.368627 0.141176 0.541176 0.368627 
0.141176 0.541176 0.368627 0.141176 0.541176 0.368627 
0.141176 0.541176 0.368627 0.141176 0.541176 0.368627 