# vtk DataFile Version 4.2
vtk output
ASCII
DATASET POLYDATA
POINTS 794 float
136.004 128.28 183.004 135.998 128.255 182.994 136.003 128.287 183.007 
136.015 128.337 183.03 136.035 128.431 183.072 136.008 128.311 183.018 
136.036 128.467 183.087 136.068 128.591 183.144 136.077 128.7 183.189 
136.111 128.773 183.227 136.144 129.033 183.338 136.241 129.288 183.466 
136.295 129.594 183.601 136.194 129.135 183.394 136.354 129.677 183.652 
136.434 129.931 183.776 136.479 130.067 183.844 136.451 130.132 183.86 
136.545 130.259 183.94 136.61 130.453 184.04 136.604 130.431 184.028 
136.564 130.53 184.049 136.572 130.562 184.066 136.607 130.696 184.128 
136.811 130.987 184.331 136.657 130.577 184.106 136.653 130.819 184.193 
136.762 131.082 184.339 136.619 130.482 184.057 137.47 132.44 185.203 
137.404 132.312 185.12 137.468 132.449 185.207 137.556 132.613 185.318 
136.949 131.484 184.578 137.226 131.969 184.901 137.703 132.904 185.514 
137.434 132.65 185.243 137.682 133.42 185.633 137.78 133.746 185.793 
137.81 133.844 185.844 137.857 134.013 185.923 138.362 133.797 186.282 
138.445 133.854 186.366 138.087 133.53 185.989 138.167 134.162 186.21 
138.333 134.142 186.346 137.878 134.111 185.968 138.229 134.781 186.416 
138.503 133.991 186.449 138.614 134.318 186.625 138.567 134.63 186.664 
138.546 134.759 186.673 138.441 134.834 186.605 138.563 135.824 186.943 
138.768 136.799 187.338 138.895 136.701 187.411 138.866 137.365 187.545 
138.887 137.335 187.554 138.971 137.912 187.746 139.066 138.306 187.9 
138.812 134.887 186.934 138.871 135.223 187.056 138.952 135.82 187.252 
139.109 136.771 187.581 138.844 137.034 187.453 139.049 137.165 187.633 
139.334 137.865 187.981 138.949 137.642 187.67 139.144 137.854 187.856 
139.136 137.737 187.826 139.091 138.009 187.853 139.332 138.712 188.171 
139.452 138.775 188.263 139.235 138.909 188.145 139.397 139.209 188.319 
139.374 139.425 188.348 139.624 140.225 188.682 138.938 135.659 187.21 
139.04 136.37 187.446 139.61 138.916 188.395 139.343 138.807 188.199 
139.672 139.418 188.545 139.781 139.555 188.643 139.987 140.245 188.924 
139.77 139.964 188.724 139.663 140.062 188.674 139.894 141.161 189.058 
140.162 141.578 189.325 140.177 141.394 189.294 140.036 141.751 189.279 
140.333 142.724 189.698 140.165 140.921 189.185 140.32 141.539 189.422 
140.291 141.681 189.434 140.346 141.87 189.513 140.4 141.884 189.551 
140.317 142.038 189.532 140.628 142.854 189.941 140.758 143.735 190.248 
140.476 142.191 189.676 141.162 144.628 190.772 141.111 144.47 190.695 
140.951 144.035 190.467 141.134 144.984 190.819 141.123 144.942 190.803 
141.321 145.57 191.103 141.396 146.159 191.276 141.334 145.854 191.164 
141.4 145.974 191.251 141.485 146.671 191.448 141.53 146.928 191.532 
141.581 147.244 191.632 141.65 147.649 191.759 141.664 147.735 191.785 
141.259 145.158 190.967 141.348 145.553 191.126 141.429 146.22 191.32 
141.453 146.202 191.343 141.506 146.571 191.454 141.473 146.355 191.385 
141.503 146.608 191.458 141.597 147.148 191.631 141.792 148.498 192.014 
141.794 148.507 192.019 141.848 148.757 192.101 141.918 149.241 192.233 
141.916 149.231 192.233 142.005 149.644 192.363 142.01 149.754 192.384 
142.167 150.598 192.627 142.06 150.011 192.458 142.117 150.282 192.54 
142.197 150.744 192.665 141.418 145.942 191.263 141.493 146.446 191.42 
141.575 146.994 191.587 141.699 147.805 191.827 141.929 149.202 192.237 
142.132 150.32 192.573 142.135 150.315 192.57 142.349 151.598 192.889 
142.368 151.715 192.928 142.488 152.452 193.095 142.512 152.6 193.138 
142.497 152.465 193.098 142.587 153.099 193.237 142.588 153.101 193.246 
142.592 153.12 193.237 142.597 153.102 193.237 142.69 153.816 193.379 
142.674 153.713 193.354 142.679 153.72 193.354 142.741 154.216 193.445 
142.769 154.427 193.482 142.754 154.31 193.459 142.787 154.572 193.505 
142.261 150.998 192.773 142.362 151.542 192.924 142.346 151.432 192.896 
142.433 151.989 193.028 142.526 152.605 193.157 142.626 153.316 193.292 
142.673 153.645 193.345 142.714 153.973 193.408 142.77 154.417 193.482 
142.792 154.599 193.509 142.819 154.832 193.548 142.815 154.79 193.542 
142.815 154.803 193.542 142.84 155.013 193.577 142.841 155.017 193.577 
142.84 155.014 193.576 142.848 155.081 193.587 142.408 151.794 192.988 
142.478 152.24 193.084 142.569 152.868 193.209 142.657 153.518 193.328 
142.731 154.093 193.427 142.786 154.545 193.502 142.822 154.855 193.551 
142.841 155.016 193.577 143.173 154.412 261.56 143.156 154.199 261.574 
143.168 154.359 261.564 143.192 154.68 261.544 143.207 154.866 261.534 
143.215 154.984 261.527 143.219 155.042 261.526 143.224 155.161 261.521 
143.227 155.191 261.521 143.232 155.31 261.518 143.233 155.432 261.522 
143.234 155.386 261.518 143.134 153.926 261.595 143.13 153.875 261.598 
143.133 153.921 261.594 143.134 153.936 261.594 143.143 154.045 261.586 
143.146 154.082 261.583 143.148 154.114 261.583 143.172 154.449 261.563 
143.182 154.617 261.553 143.2 154.921 261.542 143.216 155.194 261.534 
143.226 155.379 261.531 143.233 155.373 261.522 143.234 155.512 261.526 
143.232 155.5 261.529 143.236 155.512 261.525 143.236 155.55 261.527 
141.404 146.933 263.787 141.448 147.356 263.672 141.426 147.218 263.716 
141.427 147.155 263.727 141.425 147.32 263.702 141.493 147.831 263.554 
141.48 147.691 263.587 141.488 148.008 263.534 141.519 148.138 263.485 
141.531 148.412 263.436 141.517 148.293 263.464 141.548 148.512 263.407 
141.546 148.579 263.399 141.568 148.791 263.354 141.562 148.731 263.366 
141.574 148.834 263.343 143.134 153.931 261.594 141.584 148.955 263.32 
141.59 149.013 263.308 143.145 154.083 261.584 143.164 154.349 261.569 
143.185 154.666 261.553 143.204 154.97 261.542 143.22 155.237 261.534 
143.23 155.433 261.53 143.235 155.527 261.528 141.244 145.863 264.157 
141.217 145.69 264.22 141.185 145.574 264.279 141.054 145.058 264.531 
141.297 146.225 264.03 141.211 146.085 264.154 141.346 146.791 263.878 
141.349 146.907 263.858 141.372 146.856 263.836 141.404 147.2 263.744 
141.418 147.143 263.737 141.43 147.51 263.67 141.479 147.933 263.552 
141.567 148.753 263.36 141.587 148.978 263.315 144 163.009 264.017 
144 163.009 264.017 144 163.009 264.017 144 163.009 264.017 
144 163.009 264.017 140.784 142.545 265.46 140.772 142.236 265.555 
140.78 142.404 265.506 140.795 142.664 265.42 140.8 142.854 265.359 
140.799 142.883 265.354 140.729 143.134 265.324 140.808 143.222 265.245 
140.807 143.103 265.282 140.694 143.324 265.294 140.852 143.883 265.019 
140.971 145.005 264.619 140.798 144.418 264.909 141.202 146.018 264.178 
144 163.009 264.018 140.764 141.885 265.654 140.763 141.832 265.668 
140.731 142.047 265.63 140.765 142.012 265.622 140.702 142.21 265.603 
140.68 142.381 265.57 140.779 142.219 265.562 140.776 142.159 265.578 
140.773 142.168 265.579 140.636 142.648 265.524 140.599 142.873 265.486 
140.651 142.998 265.416 140.694 142.841 265.434 140.658 143.138 265.373 
140.742 143.039 265.346 140.652 143.757 265.201 138.954 136.087 268.081 
138.902 135.722 268.225 138.998 137.208 267.767 138.998 137.676 267.653 
138.997 137.636 267.671 138.917 138.262 267.589 139.01 138.233 267.517 
140.754 141.886 265.66 138.98 138.875 267.398 139.016 138.647 267.418 
139.001 139.22 267.302 139.007 139.322 267.274 140.694 142.29 265.588 
139.015 138.943 267.351 139.016 139.283 267.275 139.01 139.38 267.259 
139.013 139.438 267.243 139.017 139.443 267.24 139.016 139.473 267.234 
140.608 143.383 265.337 138.697 134.75 268.643 138.6 134.42 268.813 
138.53 134.331 268.878 138.649 134.596 268.735 138.813 135.274 268.407 
138.702 135.521 268.433 138.702 135.972 268.323 138.541 136.048 268.44 
138.529 136.699 268.287 138.575 137.233 268.12 138.759 137.606 267.877 
138.617 137.537 268.011 138.578 137.498 268.053 138.579 137.594 268.028 
138.271 133.723 269.239 138.09 133.292 269.497 138.001 133.191 269.58 
138.18 133.487 269.387 138.44 134.113 269.028 138.35 134.895 268.877 
138.509 134.983 268.737 138.35 135.083 268.851 138.697 135.512 268.458 
138.339 135.332 268.78 138.377 135.624 268.69 138.694 136.028 268.326 
138.203 135.445 268.875 138.281 135.743 268.736 138.387 136.092 268.563 
137.672 132.498 270.016 137.435 131.973 270.339 137.721 132.872 269.883 
137.865 132.882 269.784 137.868 133.369 269.638 137.941 133.667 269.501 
138.02 134.144 269.324 138.078 134.659 269.164 138.121 135.052 269.044 
138.156 135.285 268.963 138.242 135.568 268.819 136.835 130.798 271.07 
136.708 130.565 271.215 136.768 130.671 271.158 136.955 131.01 270.941 
137.102 131.315 270.75 137.158 131.418 270.694 136.799 130.858 271.082 
136.686 130.713 271.217 136.935 131.134 270.931 137.274 131.785 270.514 
136.996 131.247 270.867 137.748 132.845 269.888 136.785 130.887 271.109 
136.855 130.999 271.037 137.924 133.602 269.552 138.03 134.248 269.313 
138.095 134.684 269.165 136.515 130.27 271.404 136.47 130.194 271.453 
136.459 130.191 271.46 136.506 130.245 271.422 136.446 130.196 271.469 
136.454 130.237 271.456 136.608 130.405 271.321 136.467 130.283 271.443 
136.58 130.505 271.328 136.65 130.641 271.265 136.789 130.873 271.121 
136.734 130.796 271.175 135.504 127.004 273.017 135.504 127.004 273.018 
135.504 127.004 273.017 135.504 127.004 273.017 135.504 127.004 273.017 
135.505 127.004 273.018 135.504 127.004 273.017 135.504 127.004 273.018 
136.464 130.247 271.455 136.615 130.54 271.309 136.699 130.716 271.22 
135.504 127.004 273.018 135.504 127.004 273.018 136.004 128.28 183.004 
135.998 128.255 182.994 136.003 128.287 183.007 136.035 128.431 183.072 
136.036 128.467 183.087 136.077 128.7 183.189 136.111 128.773 183.227 
136.144 129.033 183.338 136.241 129.288 183.466 136.295 129.594 183.601 
136.354 129.677 183.652 136.434 129.931 183.776 136.434 129.931 183.776 
136.434 129.931 183.776 136.479 130.067 183.844 136.451 130.132 183.86 
136.545 130.259 183.94 136.604 130.431 184.028 136.607 130.696 184.128 
136.811 130.987 184.331 136.811 130.987 184.331 136.657 130.577 184.106 
136.653 130.819 184.193 136.653 130.819 184.193 137.556 132.613 185.318 
[...]
POINT_DATA 794
COLOR_SCALARS scalars 3
0.141176 0.541176 0.368627 0.141176 0.541176 0.368627 0.141176 0.541176 0.368627 
0.141176 0.541176 0.368627 0.141176 0.541176 0.368627 
0.141176 0.541176 0.368627 0.141176 0.541176 0.368627 
0.141176 0.541176 0.368627 0.141176 0.541176 0.368627 
0.141176 0.541176 0.368627 0.141176 0.541176 0.368627 
0.141176 0.541176 0.368627 0.141176 0.541176 0.368627 
0.141176 0.541176 0.368627 0.141176 0.541176 0.368627 
0.141176 0.541176 0.368627 0.141176 0.541176 0.368627 
0.141176 0.541176 0.368627 0.141176 0.541176 0.368627 
0.141176 0.541176 0.368627 0.141176 0.541176 0.368627 
0.141176 0.541176 0.368627 0.141176 0.541176 0.368627 
0.141176 0.541176 0.368627 0.141176 0.541176 0.368627 
0.141176 0.541176 0.368627 0.141176 0.541176 0.368627 
0.141176 0.541176 0.368627 0.141176 0.541176 0.368627 
0.141176 0.541176 0.368627 0.141176 0.541176 0.368627 
0.141176 0.541176 0.368627 0.141176 0.541176 0.368627 
0.141176 0.541176 0.368627 0.141176 0.541176 0.368627 
0.141176 0.541176 0.368627 0.141176 0.541176 0.368627 
0.141176 0.541176 0.368627 0.141176 0.541176 0.368627 
0.141176 0.541176 0.368627 0.141176 0.541176 0.368627 
0.141176 0.541176 0.368627 0.141176 0.541176 0.368627 
0.141176 0.541176 0.368627 0.141176 0.541176 0.368627 
0.141176 0.541176 0.368627 0.141176 0.541176 0.368627 
0.141176 0.541176 0.368627 0.141176 0.541176 0.368627 
0.141176 0.541176 0.368627 0.141176 0.541176 0.368627 
0.141176 0.541176 0.368627 0.141176 0.541176 0.368627 
0.141176 0.541176 0.368627 0.141176 0.541176 0.368627 
0.141176 0.541176 0.368627 0.141176 0.541176 0.368627 
0.141176 0.541176 0.368627 0.141176 0.541176 0.368627 
0.141176 0.541176 0.368627 0.141176 0.541176 0.368627 
0.141176 0.541176 0.368627 0.141176 0.541176 0.368627 
0.141176 0.541176 0.368627 0.141176 0.541176 0.368627 
0.141176 0.541176 0.368627 0.141176 0.541176 0.368627 
0.141176 0.541176 0.368627 0.141176 0.541176 0.368627 
0.141176 0.541176 0.368627 0.141176 0.541176 0.368627 
0.141176 0.541176 0.368627 0.141176 0.541176 0.368627 
0.141176 0.541176 0.368627 0.141176 0.541176 0.368627 
0.141176 0.541176 0.368627 0.141176 0.541176 0.368627 
0.141176 0.541176 0.368627 0.141176 0.541176 0.368627 
0.141176 0.541176 0.368627 0.141176 0.541176 0.368627 
0.141176 0.541176 0.368627 0.141176 0.541176 0.368627 
0.141176 0.541176 0.368627 0.141176 0.541176 0.368627 
0.141176 0.541176 0.368627 0.141176 0.541176 0.368627 
0.141176 0.541176 0.368627 0.141176 0.541176 0.368627 
0.141176 0.541176 0.368627 0.141176 0.541176 0.368627 
0.141176 0.541176 0.368627 0.141176 0.541176 0.368627 
0.141176 0.541176 0.368627 0.141176 0.541176 0.368627 
0.141176 0.541176 0.368627 0.141176 0.541176 0.368627 
0.141176 0.541176 0.368627 0.141176 0.541176 0.368627 
0.141176 0.541176 0.368627 0.141176 0.541176 0.368627 
0.141176 0.541176 0.368627 0.141176 0.541176 0.368627 
0.141176 0.541176 0.368627 0.141176 0.541176 0.368627 
0.141176 0.541176 0.368627 0.141176 0.541176 0.368627 
0.141176 0.541176 0.368627 0.141176 0.541176 0.368627 
0.141176 0.541176 0.368627 0.141176 0.541176 0.368627 
0.141176 0.541176 0.368627 0.141176 0.541176 0.368627 
0.141176 0.541176 0.368627 0.141176 0.541176 0.368627 
0.141176 0.541176 0.368627 0.141176 0.541176 0.368627 
0.141176 0.541176 0.368627 0.141176 0.541176 0.368627 
0.141176 0.541176 0.368627 0.141176 0.541176 0.368627 
0.141176 0.541176 0.368627 0.141176 0.541176 0.368627 
0.141176 0.541176 0.368627 0.141176 0.541176 0.368627 
0.141176 0.541176 0.368627 0.141176 0.541176 0.368627 
0.141176 0.541176 0.368627 0.141176 0.541176 0.368627 
0.141176 0.541176 0.368627 0.141176 0.541176 0.368627 
0.141176 0.541176 0.368627 0.141176 0.541176 0.368627 
0.141176 0.541176 0.368627 0.141176 0.541176 0.368627 
0.141176 0.541176 0.368627 0.141176 0.541176 0.368627 
0.141176 0.541176 0.368627 0.141176 0.541176 0.368627 
0.141176 0.541176 0.368627 0.141176 0.541176 0.368627 
0.141176 0.541176 0.368627 0.141176 0.541176 0.368627 
0.141176 0.541176 0.368627 0.141176 0.541176 0.368627 
0.141176 0.541176 0.368627 0.141176 0.541176 0.368627 
0.141176 0.541176 0.368627 0.141176 0.541176 0.368627 
0.141176 0.541176 0.368627 0.141176 0.541176 0.368627 
0.141176 0.541176 0.368627 0.141176 0.541176 0.368627 
0.141176 0.541176 0.368627 0.141176 0.541176 0.368627 
0.141176 0.541176 0.368627 0.141176 0.541176 0.368627 
0.141176 0.541176 0.368627 0.141176 0.541176 0.368627 
0.141176 0.541176 0.368627 0.141176 0.541176 0.368627 
0.141176 0.541176 0.368627 0.141176 0.541176 0.368627 
0.141176 0.541176 0.368627 0.141176 0.541176 0.368627 
0.141176 0.541176 0.368627 0.141176 0.541176 0.368627 
0.141176 0.541176 0.368627 0.141176 0.541176 0.368627 
0.141176 0.541176 0.368627 0.141176 0.541176 0.368627 
0.141176 0.541176 0.368627 0.141176 0.541176 0.368627 
0.141176 0.541176 0.368627 0.141176 0.541176 0.368627 
0.141176 0.541176 0.368627 0.141176 0.541176 0.368627 
0.141176 0.541176 0.368627 0.141176 0.541176 0.368627 
0.141176 0.541176 0.368627 0.141176 0.541176 0.368627 
0.141176 0.541176 0.368627 0.141176 0.541176 0.368627 
0.141176 0.541176 0.368627 0.141176 0.541176 0.368627 
0.141176 0.541176 0.368627 0.141176 0.541176 0.368627 
0.141176 0.541176 0.368627 0.141176 0.541176 0.368627 
0.141176 0.541176 0.368627 0.141176 0.541176 0.368627 
0.141176 0.541176 0.368627 0.141176 0.541176 0.368627 
0.141176 0.541176 0.368627 0.141176 0.541176 0.368627 
0.141176 0.541176 0.368627 0.141176 0.541176 0.368627 
0.141176 0.541176 0.368627 0.141176 0.541176 0.368627 
0.141176 0.541176 0.368627 0.141176 0.541176 0.368627 
0.141176 0.541176 0.368627 0.141176 0.541176 0.368627 
0.141176 0.541176 0.368627 0.141176 0.541176 0.368627 
0.141176 0.541176 0.368627 0.141176 0.541176 0.368627 
0.141176 0.541176 0.368627 0.141176 0.541176 0.368627 
0.141176 0.541176 0.368627 0.141176 0.541176 0.368627 
0.141176 0.541176 0.368627 0.141176 0.541176 0.368627 
0.141176 0.541176 0.368627 0.141176 0.541176 0.368627 
0.141176 0.541176 0.368627 0.141176 0.541176 0.368627 
0.141176 0.541176 0.368627 0.141176 0.541176 0.368627 
0.141176 0.541176 0.368627 0.141176 0.541176 0.368627 
0.141176 0.541176 0.368627 0.141176 0.541176 0.368627 
0.141176 0.541176 0.368627 0.141176 0.541176 0.368627 
0.141176 0.541176 0.368627 0.141176 0.541176 0.368627 
0.141176 0.541176 0.368627 0.141176 0.541176 0.368627 
0.141176 0.541176 0.368627 0.141176 0.541176 0.368627 
0.141176 0.541176 0.368627 0.141176 0.541176 0.368627 
0.141176 0.541176 0.368627 0.141176 0.541176 0.368627 
0.141176 0.541176 0.368627 0.141176 0.541176 0.368627 
0.141176 0.541176 0.368627 0.141176 0.541176 0.368627 
0.141176 0.541176 0.368627 0.141176 0.541176 0.368627 
0.141176 0.541176 0.368627 0.141176 0.541176 0.368627 
0.141176 0.541176 0.368627 0.141176 0.541176 0.368627 
0.141176 0.541176 0.368627 0.141176 0.541176 0.368627 
0.141176 0.541176 0.368627 0.141176 0.541176 0.368627 
0.141176 0.541176 0.368627 0.141176 0.541176 0.368627 
0.141176 0.541176 0.368627 0.141176 0.541176 0.368627 
0.141176 0.541176 0.368627 0.141176 0.541176 0.368627 
0.141176 0.541176 0.368627 0.141176 0.541176 0.368627 
0.141176 0.541176 0.368627 0.141176 0.541176 0.368627 
0.141176 0.541176 0.368627 0.141176 0.541176 0.368627 
0.141176 0.541176 0.368627 0.141176 0.541176 0.368627 
0.141176 0.541176 0.368627 0.141176 0.541176 0.368627 
0.141176 0.541176 0.368627 0.141176 0.541176 0.368627 
0.141176 0.541176 0.368627 0.141176 0.541176 0.368627 
0.141176 0.541176 0.368627 0.141176 0.541176 0.368627 
0.141176 0.541176 0.368627 0.141176 0.541176 0.368627 
0.141176 0.541176 0.368627 0.141176 0.541176 0.368627 
0.141176 0.541176 0.368627 0.141176 0.541176 0.368627 
0.141176 0.541176 0.368627 0.141176 0.541176 0.368627 
0.141176 0.541176 0.368627 0.141176 0.541176 0.368627 
0.141176 0.541176 0.368627 0.141176 0.541176 0.368627 
0.141176 0.541176 0.368627 0.141176 0.541176 0.368627 
0.141176 0.541176 0.368627 0.141176 0.541176 0.368627 
0.141176 0.541176 0.368627 0.141176 0.541176 0.368627 
0.141176 0.541176 0.368627 0.141176 0.541176 0.368627 
0.141176 0.541176 0.368627 0.141176 0.541176 0.368627 
0.141176 0.541176 0.368627 0.141176 0.541176 0.368627 
0.141176 0.541176 0.368627 0.141176 0.541176 0.368627 
0.141176 0.541176 0.368627 0.141176 0.541176 0.368627 
0.141176 0.541176 0.368627 0.141176 0.541176 0.368627 
0.141176 0.541176 0.368627 0.141176 0.541176 0.368627 
0.141176 0.541176 0.368627 0.141176 0.541176 0.368627 
0.141176 0.541176 0.368627 0.141176 0.541176 0.368627 
0.141176 0.541176 0.368627 0.141176 0.541176 0.368627 
0.141176 0.541176 0.368627 0.141176 0.541176 0.368627 
0.141176 0.541176 0.368627 0.141176 0.541176 0.368627 
0.141176 0.541176 0.368627 0.141176 0.541176 0.368627 
0.141176 0.541176 0.368627 0.141176 0.541176 0.368627 
0.141176 0.541176 0.368627 0.141176 0.541176 0.368627 
0.141176 0.541176 0.368627 0.141176 0.541176 0.368627 
0.141176 0.541176 0.368627 0.141176 0.541176 0.368627 
0.141176 0.541176 0.368627 0.141176 0.541176 0.368627 
0.141176 0.541176 0.368627 0.141176 0.541176 0.368627 
0.141176 0.541176 0.368627 0.141176 0.541176 0.368627 
0.141176 0.541176 0.368627 0.141176 0.541176 0.368627 
0.141176 0.541176 0.368627 0.141176 0.541176 0.368627 
0.141176 0.541176 0.368627 0.141176 0.541176 0.368627 
0.141176 0.541176 0.368627 0.141176 0.541176 0.368627 
0.141176 0.541176 0.368627 0.141176 0.541176 0.368627 
0.141176 0.541176 0.368627 0.141176 0.541176 0.368627 
0.141176 0.541176 0.368627 0.141176 0.541176 0.368627 
0.141176 0.541176 0.368627 0.141176 0.541176 0.368627 
0.141176 0.541176 0.368627 0.141176 0.541176 0.368627 
0.141176 0.541176 0.368627 0.141176 0.541176 0.368627 
0.141176 0.541176 0.368627 0.141176 0.541176 0.368627 
0.141176 0.541176 0.368627 0.141176 0.541176 0.368627 
0.141176 0.541176 0.368627 0.141176 0.541176 0.368627 
0.141176 0.541176 0.368627 0.141176 0.541176 0.368627 
0.141176 0.541176 0.368627 0.141176 0.541176 0.368627 
0.141176 0.541176 0.368627 0.141176 0.541176 0.368627 
0.141176 0.541176 0.368627 0.141176 0.541176 0.368627 
0.141176 0.541176 0.368627 0.141176 0.541176 0.368627 
0.141176 0.541176 0.368627 0.141176 0.541176 0.368627 
0.141176 0.541176 0.368627 0.141176 0.541176 0.368627 
0.141176 0.541176 0.368627 0.141176 0.541176 0.368627 
0.141176 0.541176 0.368627 0.141176 0.541176 0.368627 
0.141176 0.541176 0.368627 0.141176 0.541176 0.368627 
0.141176 0.541176 0.368627 0.141176 0.541176 0.368627 
0.141176 0.541176 0.368627 0.141176 0.541176 0.368627 
0.141176 0.541176 0.368627 0.141176 0.541176 0.368627 
0.141176 0.541176 0.368627 0.141176 0.541176 0.368627 
0.141176 0.541176 0.368627 0.141176 0.541176 0.368627 
0.141176 0.541176 0.368627 0.141176 0.541176 0.368627 
0.141176 0.541176 0.368627 0.141176 0.541176 0.368627 
0.141176 0.541176 0.368627 0.141176 0.541176 0.368627 
0.141176 0.541176 0.368627 0.141176 0.541176 0.368627 
0.141176 0.541176 0.368627 0.141176 0.541176 0.368627 
0.141176 0.541176 0.368627 0.141176 0.541176 0.368627 
0.141176 0.541176 0.368627 0.141176 0.541176 0.368627 
0.141176 0.541176 0.368627 0.141176 0.541176 0.368627 
0.141176 0.541176 0.368627 0.141176 0.541176 0.368627 
0.141176 0.541176 0.368627 0.141176 0.541176 0.368627 
0.141176 0.541176 0.368627 0.141176 0.541176 0.368627 
0.141176 0.541176 0.368627 0.141176 0.541176 0.368627 
0.141176 0.541176 0.368627 0.141176 0.541176 0.368627 
0.141176 0.541176 0.368627 0.141176 0.541176 0.368627 
0.141176 0.541176 0.368627 0.141176 0.541176 0.368627 
0.141176 0.541176 0.368627 0.141176 0.541176 0.368627 
0.141176 0.541176 0.368627 0.141176 0.541176 0.368627 
0.141176 0.541176 0.368627 0.141176 0.541176 0.368627 
0.141176 0.541176 0.368627 0.141176 0.541176 0.368627 
0.141176 0.541176 0.368627 0.141176 0.541176 0.368627 
0.141176 0.541176 0.368627 0.141176 0.541176 0.368627 
0.141176 0.541176 0.368627 0.141176 0.541176 0.368627 
0.141176 0.541176 0.368627 0.141176 0.541176 0.368627 
0.141176 0.541176 0.368627 0.141176 0.541176 0.368627 
0.141176 0.541176 0.368627 0.141176 0.541176 0.368627 
0.141176 0.541176 0.368627 0.141176 0.541176 0.368627 
0.141176 0.541176 0.368627 0.141176 0.541176 0.368627 
0.141176 0.541176 0.368627 0.141176 0.541176 0.368627 
0.141176 0.541176 0.368627 0.141176 0.541176 0.368627 
0.141176 0.541176 0.368627 0.141176 0.541176 0.368627 
0.141176 0.541176 0.368627 0.141176 0.541176 0.368627 
0.141176 0.541176 0.368627 0.141176 0.541176 0.368627 
0.141176 0.541176 0.368627 0.141176 0.541176 0.368627 
0.141176 0.541176 0.368627 0.141176 0.541176 0.368627 
0.141176 0.541176 0.368627 0.141176 0.541176 0.368627 
0.141176 0.541176 0.368627 0.141176 0.541176 0.368627 
0.141176 0.541176 0.368627 0.141176 0.541176 0.368627 
0.141176 0.541176 0.368627 0.141176 0.541176 0.368627 
0.141176 0.541176 0.368627 0.141176 0.541176 0.368627 
0.141176 0.541176 0.368627 0.141176 0.541176 0.368627 
0.141176 0.541176 0.368627 0.141176 0.541176 0.368627 
0.141176 0.541176 0.368627 0.141176 0.541176 0.368627 
0.141176 0.541176 0.368627 0.141176 0.541176 0.368627 
0.141176 0.541176 0.368627 0.141176 0.541176 0.368627 
0.141176 0.541176 0.368627 0.141176 0.541176 0.368627 
0.141176 0.541176 0.368627 0.141176 0.541176 0.368627 
0.141176 0.541176 0.368627 0.141176 0.541176 0.368627 
0.141176 0.541176 0.368627 0.141176 0.541176 0.368627 
0.141176 0.541176 0.368627 0.141176 0.541176 0.368627 
0.141176 0.541176 0.368627 0.141176 0.541176 0.368627 
0.141176 0.541176 0.368627 0.141176 0.541176 0.368627 
0.141176 0.541176 0.368627 0.141176 0.541176 0.368627 
0.141176 0.541176 0.368627 0.141176 0.541176 0.368627 
0.141176 0.541176 0.368627 0.141176 0.541176 0.368627 
0.141176 0.541176 0.368627 0.141176 0.541176 0.368627 
0.141176 0.541176 0.368627 0.141176 0.541176 0.368627 
0.141176 0.541176 0.368627 0.141176 0.541176 0.368627 
0.141176 0.541176 0.368627 0.141176 0.541176 0.368627 
0.141176 0.541176 0.368627 0.141176 0.541176 0.368627 
0.141176 0.541176 0.368627 0.141176 0.541176 0.368627 
0.141176 0.541176 0.368627 0.141176 0.541176 0.368627 
0.141176 0.541176 0.368627 0.141176 0.541176 0.368627 
0.141176 0.541176 0.368627 0.141176 0.541176 0.368627 
0.141176 0.541176 0.368627 0.141176 0.541176 0.368627 
0.141176 0.541176 0.368627 0.141176 0.541176 0.368627 
0.141176 0.541176 0.368627 0.141176 0.541176 0.368627 
0.141176 0.541176 0.368627 0.141176 0.541176 0.368627 
0.141176 0.541176 0.368627 0.141176 0.541176 0.368627 
0.141176 0.541176 0.368627 0.141176 0.541176 0.368627 
0.141176 0.541176 0.368627 0.141176 0.541176 0.368627 
0.141176 0.541176 0.368627 0.141176 0.541176 0.368627 
0.141176 0.541176 0.368627 0.141176 0.541176 0.368627 
0.141176 0.541176 0.368627 0.141176 0.541176 0.368627 
0.141176 0.541176 0.368627 0.141176 0.541176 0.368627 
0.141176 0.541176 0.368627 0.141176 0.541176 0.368627 
0.141176 0.541176 0.368627 0.141176 0.541176 0.368627 
0.141176 0.541176 0.368627 0.141176 0.541176 0.368627 
0.141176 0.541176 0.368627 0.141176 0.541176 0.368627 
0.141176 0.541176 0.368627 0.141176 0.541176 0.368627 
0.141176 0.541176 0.368627 0.141176 0.541176 0.368627 
0.141176 0.541176 0.368627 0.141176 0.541176 0.368627 
0.141176 0.541176 0.368627 0.141176 0.541176 0.368627 
0.141176 0.541176 0.368627 0.141176 0.541176 0.368627 
0.141176 0.541176 0.368627 0.141176 0.541176 0.368627 
0.141176 0.541176 0.368627 0.141176 0.541176 0.368627 
0.141176 0.541176 0.368627 0.141176 0.541176 0.368627 
0.141176 0.541176 0.368627 0.141176 0.541176 0.368627 
0.141176 0.541176 0.368627 0.141176 0.541176 0.368627 
0.141176 0.541176 0.368627 0.141176 0.541176 0.368627 
0.141176 0.541176 0.368627 0.141176 0.541176 0.368627 
0.141176 0.541176 0.368627 0.141176 0.541176 0.368627 
0.141176 0.541176 0.368627 0.141176 0.541176 0.368627 
0.141176 0.541176 0.368627 0.141176 0.541176 0.368627 
0.141176 0.541176 0.368627 0.141176 0.541176 0.368627 
0.141176 0.541176 0.368627 0.141176 0.541176 0.368627 
0.141176 0.541176 0.368627 0.141176 0.541176 0.368627 
0.141176 0.541176 0.368627 0.141176 0.541176 0.368627 
0.141176 0.541176 0.368627 0.141176 0.541176 0.368627 
0.141176 0.541176 0.368627 0.141176 0.541176 0.368627 
0.141176 0.541176 0.368627 0.141176 0.541176 0.368627 
0.141176 0.541176 0.368627 0.141176 0.541176 0.368627 
0.141176 0.541176 0.368627 0.141176 0.541176 0.368627 
0.141176 0.541176 0.368627 0.141176 0.541176 0.368627 
0.141176 0.541176 0.368627 0.141176 0.541176 0.368627 
0.141176 0.541176 0.368627 0.141176 0.541176 0.368627 
0.141176 0.541176 0.368627 0.141176 0.541176 0.368627 
0.141176 0.541176 0.368627 0.141176 0.541176 0.368627 
0.141176 0.541176 0.368627 0.141176 0.541176 0.368627 
0.141176 0.541176 0.368627 0.141176 0.541176 0.368627 
0.141176 0.541176 0.368627 0.141176 0.541176 0.368627 
0.141176 0.541176 0.368627 0.141176 0.541176 0.368627 
0.141176 0.541176 0.368627 0.141176 0.541176 0.368627 
0.141176 0.541176 0.368627 0.141176 0.541176 0.368627 
0.141176 0.541176 0.368627 0.141176 0.541176 0.368627 
0.141176 0.541176 0.368627 0.141176 0.541176 0.368627 
0.141176 0.541176 0.368627 0.141176 0.541176 0.368627 
0.141176 0.541176 0.368627 0.141176 0.541176 0.368627 
0.141176 0.541176 0.368627 0.141176 0.541176 0.368627 
0.141176 0.541176 0.368627 0.141176 0.541176 0.368627 
0.141176 0.541176 0.368627 0.141176 0.541176 0.368627 
0.141176 0.541176 0.368627 0.141176 0.541176 0.368627 
0.141176 0.541176 0.368627 0.141176 0.541176 0.368627 
0.141176 0.541176 0.368627 0.141176 0.541176 0.368627 
0.141176 0.541176 0.368627 0.141176 0.541176 0.368627 
0.141176 0.541176 0.368627 0.141176 0.541176 0.368627 
0.141176 0.541176 0.368627 0.141176 0.541176 0.368627 
0.141176 0.541176 0.368627 0.141176 0.541176 0.368627 
0.141176 0.541176 0.368627 0.141176 0.541176 0.368627 
0.141176 0.541176 0.368627 0.141176 0.541176 0.368627 
0.141176 0.541176 0.368627 0.141176 0.541176 0.368627 
0.141176 0.541176 0.368627 0.141176 0.541176 0.368627 
0.141176 0.541176 0.368627 0.141176 0.541176 0.368627 
0.141176 0.541176 0.368627 0.141176 0.541176 0.368627 
0.141176 0.541176 0.368627 0.141176 0.541176 0.368627 
0.141176 0.541176 0.368627 0.141176 0.541176 0.368627 
0.141176 0.541176 0.368627 0.141176 0.541176 0.368627 
0.141176 0.541176 0.368627 0.141176 0.541176 0.368627 
0.141176 0.541176 0.368627 0.141176 0.541176 0.368627 
0.141176 0.541176 0.368627 0.141176 0.541176 0.368627 
0.141176 0.541176 0.368627 0.141176 0.541176 0.368627 
0.141176 0.541176 0.368627 0.141176 0.541176 0.368627 
0.141176 0.541176 0.368627 0.141176 0.541176 0.368627 
0.141176 0.541176 0.368627 0.141176 0.541176 0.368627 
0.141176 0.541176 0.368627 0.141176 0.541176 0.368627 
0.141176 0.541176 0.368627 0.141176 0.541176 0.368627 
0.141176 0.541176 0.368627 0.141176 0.541176 0.368627 
0.141176 0.541176 0.368627 0.141176 0.541176 0.368627 
0.141176 0.541176 0.368627 0.141176 0.541176 0.368627 
0.141176 0.541176 0.368627 0.141176 0.541176 0.368627 
0.141176 0.541176 0.368627 0.141176 0.541176 0.368627 
0.141176 0.541176 0.368627 0.141176 0.541176 0.368627 
0.141176 0.541176 0.368627 0.141176 0.541176 0.368627 
0.141176 0.541176 0.368627 0.141176 0.541176 0.368627 
0.141176 0.541176 0.368627 0.141176 0.541176 0.368627 
0.141176 0.541176 0.368627 0.141176 0.541176 0.368627 
0.141176 0.541176 0.368627 0.141176 0.541176 0.368627 
0.141176 0.541176 0.368627 0.141176 0.541176 0.368627 
0.141176 0.541176 0.368627 0.141176 0.541176 0.368627 
0.141176 0.541176 0.368627 0.141176 0.541176 0.368627 
0.141176 0.541176 0.368627 0.141176 0.541176 0.368627 
0.141176 0.541176 0.368627 0.141176 0.541176 0.368627 
0.141176 0.541176 0.368627 0.141176 0.541176 0.368627 
0.141176 0.541176 0.368627 0.141176 0.541176 0.368627 
0.141176 0.541176 0.368627 0.141176 0.541176 0.368627 
0.141176 0.541176 0.368627 0.141176 0.541176 0.368627 
0.141176 0.541176 0.368627 0.141176 0.541176 0.368627 
0.141176 0.541176 0.368627 0.141176 0.541176 0.368627 
0.141176 0.541176 0.368627 0.141176 0.541176 0.368627 
0.141176 0.541176 0.368627 0.141176 0.541176 0.368627 
0.141176 0.541176 0.368627 0.141176 0.541176 0.368627 