# vtk DataFile Version 4.2
vtk output
ASCII
DATASET POLYDATA
POINTS 2126 float
135.049 126.35 183.438 135.07 126.388 183.498 134.881 126.494 183.535 
134.695 126.184 183.675 135.074 126.651 183.563 135.121 126.581 183.657 
134.905 127.184 183.723 134.987 126.862 183.626 135.178 126.947 183.761 
135.135 127.249 183.796 132.1 123.742 184.416 132.021 123.634 184.505 
131.952 123.671 184.486 132.215 123.857 184.394 132.144 123.736 184.469 
133.318 125.185 184.088 133.686 125.171 184.451 133.793 125.602 183.913 
134.063 125.511 184.134 134.17 125.752 183.9 134.138 126.134 183.761 
134.989 126.349 183.659 135.105 127.78 183.954 135.364 127.521 184.143 
134.867 128.844 184.143 135.625 128.467 184.385 135.322 129.712 184.356 
135.666 129.221 184.394 131 121.009 184.017 131 121.009 184.017 
131 121.009 184.017 131 121.009 184.017 131 121.009 184.017 
131.763 123.441 184.675 131.847 123.534 184.604 131.83 123.481 184.68 
131.628 123.624 184.671 131.298 123.37 185.015 130.865 123.514 185.062 
131.989 123.644 184.74 132.487 124.115 184.742 132.184 124.508 184.378 
132.67 124.479 184.365 132.387 125.543 184.312 134.377 125.779 184.432 
134.975 126.551 184.456 134.685 130.815 184.936 136.222 130.641 184.904 
136.628 130.867 185.171 136.83 130.772 185.385 135.126 131.016 184.873 
135.468 131.014 184.849 129.278 122.223 186.037 131 121.009 184.017 
128.853 122.325 185.927 129.666 122.801 185.665 129.755 122.489 186.03 
130.228 123.613 185.254 130.549 123.025 185.559 131.348 123.344 185.427 
131.45 126.987 185.108 135.416 127.421 185.198 136.933 131.345 185.513 
136.881 132.112 185.622 135.642 132.637 185.615 137.535 132.901 186.158 
137.366 133.469 186.1 127.149 120.854 186.695 127.019 120.723 186.753 
127.071 120.735 186.753 127.15 120.823 186.815 127.567 121.213 186.568 
128.113 121.406 186.649 128.71 121.703 186.511 128.176 123.282 186.083 
135.401 127.802 186.394 136.937 130.113 186.292 137.766 132.145 186.53 
137.807 132.557 186.417 135.515 134.284 186.34 137.433 134.388 186.371 
136.514 135.558 186.84 123 119.009 187.017 123 119.009 187.017 
123 119.009 187.017 123 119.009 187.017 125.278 120.291 187.487 
124.631 119.987 187.801 125.756 120.341 187.387 125.317 120.088 187.642 
126.922 120.686 186.857 123 119.009 187.017 126.432 120.554 187.269 
124.87 121.175 187.496 125.866 121.079 187.074 126.166 121.786 186.918 
129.325 122.175 186.909 134.656 135.27 187.313 138.536 135.327 187.523 
138.503 135.931 187.581 138.485 136.561 187.679 137.289 138.235 187.909 
123.935 119.405 188.191 123.867 119.385 188.197 124.069 119.476 188.143 
122.101 119.429 189.001 123 119.009 187.017 123.596 119.506 188.426 
124.652 119.771 188.079 133.048 126.029 188.146 136.905 139.082 188.471 
138.545 139.58 188.551 138.001 140.135 188.71 138.685 140.553 188.901 
120 116.009 189.017 120 116.009 189.017 120 116.009 189.017 
120 116.009 189.017 120 116.009 189.017 121.279 118.597 189.775 
121.444 118.705 189.676 121.279 118.586 189.846 119 118.009 189.017 
119 118.009 189.017 119 118.009 189.017 119 118.009 189.017 
120.961 118.829 189.818 121.543 118.688 189.796 123.835 119.4 188.252 
122.068 118.877 189.696 124.012 119.478 188.278 119 118.009 189.017 
122.769 119.672 188.723 122.69 119.234 189.15 123.79 119.474 188.848 
126.594 121.283 189.585 139.391 137.556 189.317 139.429 139.288 188.977 
139.728 139.117 189.416 136.927 140.088 188.945 139.999 140.151 189.633 
137.111 140.911 189.264 136.687 141.214 189.562 138.652 143.002 189.876 
138.923 143.352 190.015 119 116.009 190.017 119 116.009 190.017 
119 116.009 190.017 120 116.009 189.017 119 116.009 190.017 
119 116.009 190.017 119.422 117.937 191.213 119.946 118.256 190.732 
117.632 118.144 191.145 117.487 117.973 191.254 119 118.009 189.017 
120.087 118.704 190.27 120.948 118.535 190.209 117.8 118.433 191.084 
122.485 123.936 189.773 140.064 139.753 190.057 140.398 141.505 190.344 
140.448 142.086 190.366 140.54 141.952 190.453 138.898 143.838 190.265 
139.717 143.909 190.446 139.565 144.445 190.637 116.731 116.844 192.19 
116.422 116.834 192.221 119 116.009 190.017 117.715 117.222 191.934 
116.588 117.291 191.867 117.515 117.694 191.435 118.171 117.689 191.419 
118.526 118.368 190.916 117.676 119.94 191.279 139.337 137.849 191.136 
140.632 142.277 191.012 136.837 143.219 190.581 140.838 143.484 191.595 
140.443 146.306 191.755 143.26 164.258 191.285 143.26 164.258 191.285 
143.26 164.258 191.285 143.26 164.258 191.285 143.26 164.258 191.285 
143.26 164.258 191.285 143.26 164.258 191.285 143.26 164.258 191.285 
143.26 164.258 191.285 143.26 164.258 191.285 143.26 164.258 191.285 
114.977 116.29 193.061 115.051 116.491 192.807 115.479 116.311 192.908 
115.866 116.389 192.78 115.486 116.906 192.387 116.403 116.589 192.643 
117.18 116.887 192.355 114 117.009 192.017 114 117.009 192.017 
114 117.009 192.017 114 117.009 192.017 118.618 117.449 192.28 
114 117.009 192.017 116.683 118.198 191.59 116.431 118.755 191.752 
139.672 139.477 191.763 140.408 142.269 192.211 141.301 149.528 193.142 
140.966 150.203 192.892 141.18 150.726 193.118 143.26 164.258 191.285 
143.26 164.258 191.285 143.26 164.258 191.285 143.26 164.258 191.285 
143.26 164.258 191.285 143.26 164.258 191.285 140.976 166.176 193.675 
141.364 166.194 193.726 141.205 165.888 193.733 141.106 166.652 193.634 
141.311 166.563 193.704 113 114.009 193.017 113 114.009 193.017 
113 114.009 193.017 113 114.009 193.017 113 114.009 193.017 
113.819 116.279 193.59 115.006 116.127 193.403 115.343 116.139 193.424 
113.704 116.459 193.474 116.203 116.44 193.566 114 117.009 192.017 
113.903 116.948 193.169 118.724 117.695 193.254 139.445 140.749 193.17 
141.549 149.872 193.533 141.532 150.328 193.437 141.677 150.884 193.73 
139.799 151.595 193.276 141.1 151.464 193.31 141.516 152.462 193.736 
140.437 153.403 193.672 141.746 155.163 194.219 141.655 155.59 194.245 
141.892 155.693 194.427 143 162.009 193.017 143 162.009 193.017 
143 162.009 193.017 143 162.009 193.017 143 162.009 193.017 
141.394 165.175 193.964 141.243 165.208 193.914 143.26 164.258 191.285 
141.1 165.45 193.846 141.558 165.32 194.07 140.61 166.398 193.779 
141.705 165.824 194.115 140.455 167.187 193.78 139.401 168.256 194.105 
140.404 168.969 194.069 140.822 168.931 194.265 141.309 168.497 194.479 
140.099 170.031 194.439 140.381 170.014 194.578 112 114.009 194.017 
112 114.009 194.017 112 114.009 194.017 113 114.009 193.017 
112 114.009 194.017 112 114.009 194.017 114.604 115.955 194.199 
116.165 116.536 194.09 141.396 148.905 194.004 141.602 149.868 193.828 
138.324 151.554 193.783 141.626 150.272 194.297 141.766 151.127 194.201 
139.011 152.076 193.664 139.707 152.743 193.64 142.04 153.893 194.686 
141.037 156.913 194.421 141.79 156.397 194.494 142.114 156.167 194.847 
141.378 157.346 194.494 141.806 157.52 194.624 141.957 159.015 194.805 
142.182 158.967 194.912 142.061 159.43 194.922 143 162.009 193.017 
141.186 164.598 194.27 141.594 164.686 194.445 139.362 167.797 194.142 
139.71 170.18 194.485 140.979 169.721 194.918 138.427 170.926 194.983 
138.579 171.264 195.146 139.049 171.302 195.201 140.244 170.77 195.295 
110 113.009 195.017 110 113.009 195.017 110 113.009 195.017 
110 113.009 195.017 110 113.009 195.017 111.366 115.56 195.305 
112 114.009 194.017 110.795 115.778 195.463 112.291 115.719 195.037 
108.95 117.169 195.952 108.901 117.064 196.003 108.983 117.114 195.928 
141.638 151.382 195.188 142.091 154.089 195.167 140.426 156.728 194.5 
142.439 158.278 195.139 142.547 158.83 195.382 140.013 160.497 195.128 
141.302 160.715 194.99 139.945 162.658 195.026 141.89 161.415 195.226 
142.432 160.547 195.606 141.183 163.549 194.72 141.842 164.056 194.954 
141.6 168.958 195.447 141.01 169.98 195.365 136.375 171.36 196.106 
138.046 171.273 195.301 137.146 171.981 195.889 137.767 171.959 195.719 
139.189 171.777 195.679 140.149 171.225 195.896 139.358 172.072 196.138 
109.285 114.634 196.629 110 113.009 195.017 108.979 114.868 196.686 
109.767 114.904 196.404 109.391 114.686 196.749 110.907 115.339 195.942 
108.573 116.745 196.291 109.041 117.094 195.915 109.244 117.071 195.882 
109.081 118.292 196.147 140.757 149.679 195.95 142.005 155.957 196.238 
142.473 159.005 196.088 142.557 159.312 195.709 142.405 164.483 196.065 
142.482 164.989 196.145 142.403 165.762 196.208 142.471 165.257 196.247 
142.2 166.992 195.689 142.205 167.259 196.176 136.222 170.294 196.147 
141.032 170.178 195.997 136.507 172.636 196.397 137.619 173.095 196.532 
138.287 172.996 196.58 138.772 172.879 196.734 107.817 114.379 197.505 
108.256 114.5 197.237 108.029 114.4 197.388 108.221 114.423 197.339 
108.381 114.788 197.017 108.712 114.566 197.186 111.596 115.485 197.207 
137.53 142.779 196.851 135.806 168.403 196.804 141.99 167.895 196.7 
135.424 169.737 196.956 134.994 170.854 197.302 141.352 169.575 196.843 
139.836 172.038 197.108 138.921 173.06 197.269 135.611 174.383 197.794 
137.328 174.856 198.337 106.516 114.258 198.37 107.61 114.353 197.687 
106.805 114.571 198.027 106.185 114.603 198.413 107.14 114.35 198.103 
108.63 114.532 197.802 106.412 119.284 198.103 136.606 161.196 196.985 
140.508 171.114 197.622 134.339 172.722 197.997 139 173.234 198.014 
134.002 174.15 198.668 135.599 176.469 199.517 135.665 176.728 199.89 
105.234 114.18 199.346 106.113 114.258 198.864 108.169 114.585 199.002 
104.672 115.414 198.954 141.265 167.222 198.651 140.979 169.21 198.378 
138.211 174.336 198.908 133.503 175.54 199.675 136.079 176.639 200.056 
104.073 114.91 199.462 100 116.009 200.017 100 116.009 200.017 
100 116.009 200.017 100 116.009 200.017 110.634 116.044 199.812 
100 116.009 200.017 126.289 147.46 199.646 138.242 174.397 199.741 
133.534 176.633 200.388 134.868 177.499 201.184 135.601 177.153 200.89 
134.064 177.914 201.673 101.962 113.656 201.397 101.755 113.549 201.547 
101.664 113.618 201.578 101.804 113.544 201.596 102.312 113.635 201.444 
102.463 113.917 200.997 101.547 115.155 200.975 97.5043 116.004 201.017 
97.5043 116.004 201.018 97.5043 116.004 201.017 97.5044 116.004 201.017 
[...]
POINT_DATA 2126
COLOR_SCALARS scalars 3
0.141176 0.541176 0.368627 0.141176 0.541176 0.368627 0.141176 0.541176 0.368627 
0.141176 0.541176 0.368627 0.141176 0.541176 0.368627 
0.141176 0.541176 0.368627 0.141176 0.541176 0.368627 
0.141176 0.541176 0.368627 0.141176 0.541176 0.368627 
0.141176 0.541176 0.368627 0.141176 0.541176 0.368627 
0.141176 0.541176 0.368627 0.141176 0.541176 0.368627 
0.141176 0.541176 0.368627 0.141176 0.541176 0.368627 
0.141176 0.541176 0.368627 0.141176 0.541176 0.368627 
0.141176 0.541176 0.368627 0.141176 0.541176 0.368627 
0.141176 0.541176 0.368627 0.141176 0.541176 0.368627 
0.141176 0.541176 0.368627 0.141176 0.541176 0.368627 
0.141176 0.541176 0.368627 0.141176 0.541176 0.368627 
0.141176 0.541176 0.368627 0.141176 0.541176 0.368627 
0.141176 0.541176 0.368627 0.141176 0.541176 0.368627 
0.141176 0.541176 0.368627 0.141176 0.541176 0.368627 
0.141176 0.541176 0.368627 0.141176 0.541176 0.368627 
0.141176 0.541176 0.368627 0.141176 0.541176 0.368627 
0.141176 0.541176 0.368627 0.141176 0.541176 0.368627 
0.141176 0.541176 0.368627 0.141176 0.541176 0.368627 
0.141176 0.541176 0.368627 0.141176 0.541176 0.368627 
0.141176 0.541176 0.368627 0.141176 0.541176 0.368627 
0.141176 0.541176 0.368627 0.141176 0.541176 0.368627 
0.141176 0.541176 0.368627 0.141176 0.541176 0.368627 
0.141176 0.541176 0.368627 0.141176 0.541176 0.368627 
0.141176 0.541176 0.368627 0.141176 0.541176 0.368627 
0.141176 0.541176 0.368627 0.141176 0.541176 0.368627 
0.141176 0.541176 0.368627 0.141176 0.541176 0.368627 
0.141176 0.541176 0.368627 0.141176 0.541176 0.368627 
0.141176 0.541176 0.368627 0.141176 0.541176 0.368627 
0.141176 0.541176 0.368627 0.141176 0.541176 0.368627 
0.141176 0.541176 0.368627 0.141176 0.541176 0.368627 
0.141176 0.541176 0.368627 0.141176 0.541176 0.368627 
0.141176 0.541176 0.368627 0.141176 0.541176 0.368627 
0.141176 0.541176 0.368627 0.141176 0.541176 0.368627 
0.141176 0.541176 0.368627 0.141176 0.541176 0.368627 
0.141176 0.541176 0.368627 0.141176 0.541176 0.368627 
0.141176 0.541176 0.368627 0.141176 0.541176 0.368627 
0.141176 0.541176 0.368627 0.141176 0.541176 0.368627 
0.141176 0.541176 0.368627 0.141176 0.541176 0.368627 
0.141176 0.541176 0.368627 0.141176 0.541176 0.368627 
0.141176 0.541176 0.368627 0.141176 0.541176 0.368627 
0.141176 0.541176 0.368627 0.141176 0.541176 0.368627 
0.141176 0.541176 0.368627 0.141176 0.541176 0.368627 
0.141176 0.541176 0.368627 0.141176 0.541176 0.368627 
0.141176 0.541176 0.368627 0.141176 0.541176 0.368627 
0.141176 0.541176 0.368627 0.141176 0.541176 0.368627 
0.141176 0.541176 0.368627 0.141176 0.541176 0.368627 
0.141176 0.541176 0.368627 0.141176 0.541176 0.368627 
0.141176 0.541176 0.368627 0.141176 0.541176 0.368627 
0.141176 0.541176 0.368627 0.141176 0.541176 0.368627 
0.141176 0.541176 0.368627 0.141176 0.541176 0.368627 
0.141176 0.541176 0.368627 0.141176 0.541176 0.368627 
0.141176 0.541176 0.368627 0.141176 0.541176 0.368627 
0.141176 0.541176 0.368627 0.141176 0.541176 0.368627 
0.141176 0.541176 0.368627 0.141176 0.541176 0.368627 
0.141176 0.541176 0.368627 0.141176 0.541176 0.368627 
0.141176 0.541176 0.368627 0.141176 0.541176 0.368627 
0.141176 0.541176 0.368627 0.141176 0.541176 0.368627 
0.141176 0.541176 0.368627 0.141176 0.541176 0.368627 
0.141176 0.541176 0.368627 0.141176 0.541176 0.368627 
0.141176 0.541176 0.368627 0.141176 0.541176 0.368627 
0.141176 0.541176 0.368627 0.141176 0.541176 0.368627 
0.141176 0.541176 0.368627 0.141176 0.541176 0.368627 
0.141176 0.541176 0.368627 0.141176 0.541176 0.368627 
0.141176 0.541176 0.368627 0.141176 0.541176 0.368627 
0.141176 0.541176 0.368627 0.141176 0.541176 0.368627 
0.141176 0.541176 0.368627 0.141176 0.541176 0.368627 
0.141176 0.541176 0.368627 0.141176 0.541176 0.368627 
0.141176 0.541176 0.368627 0.141176 0.541176 0.368627 
0.141176 0.541176 0.368627 0.141176 0.541176 0.368627 
0.141176 0.541176 0.368627 0.141176 0.541176 0.368627 
0.141176 0.541176 0.368627 0.141176 0.541176 0.368627 
0.141176 0.541176 0.368627 0.141176 0.541176 0.368627 
0.141176 0.541176 0.368627 0.141176 0.541176 0.368627 
0.141176 0.541176 0.368627 0.141176 0.541176 0.368627 
0.141176 0.541176 0.368627 0.141176 0.541176 0.368627 
0.141176 0.541176 0.368627 0.141176 0.541176 0.368627 
0.141176 0.541176 0.368627 0.141176 0.541176 0.368627 
0.141176 0.541176 0.368627 0.141176 0.541176 0.368627 
0.141176 0.541176 0.368627 0.141176 0.541176 0.368627 
0.141176 0.541176 0.368627 0.141176 0.541176 0.368627 
0.141176 0.541176 0.368627 0.141176 0.541176 0.368627 
0.141176 0.541176 0.368627 0.141176 0.541176 0.368627 
0.141176 0.541176 0.368627 0.141176 0.541176 0.368627 
0.141176 0.541176 0.368627 0.141176 0.541176 0.368627 
0.141176 0.541176 0.368627 0.141176 0.541176 0.368627 
0.141176 0.541176 0.368627 0.141176 0.541176 0.368627 
0.141176 0.541176 0.368627 0.141176 0.541176 0.368627 
0.141176 0.541176 0.368627 0.141176 0.541176 0.368627 
0.141176 0.541176 0.368627 0.141176 0.541176 0.368627 
0.141176 0.541176 0.368627 0.141176 0.541176 0.368627 
0.141176 0.541176 0.368627 0.141176 0.541176 0.368627 
0.141176 0.541176 0.368627 0.141176 0.541176 0.368627 
0.141176 0.541176 0.368627 0.141176 0.541176 0.368627 
0.141176 0.541176 0.368627 0.141176 0.541176 0.368627 
0.141176 0.541176 0.368627 0.141176 0.541176 0.368627 
0.141176 0.541176 0.368627 0.141176 0.541176 0.368627 
0.141176 0.541176 0.368627 0.141176 0.541176 0.368627 
0.141176 0.541176 0.368627 0.141176 0.541176 0.368627 
0.141176 0.541176 0.368627 0.141176 0.541176 0.368627 
0.141176 0.541176 0.368627 0.141176 0.541176 0.368627 
0.141176 0.541176 0.368627 0.141176 0.541176 0.368627 
0.141176 0.541176 0.368627 0.141176 0.541176 0.368627 
0.141176 0.541176 0.368627 0.141176 0.541176 0.368627 
0.141176 0.541176 0.368627 0.141176 0.541176 0.368627 
0.141176 0.541176 0.368627 0.141176 0.541176 0.368627 
0.141176 0.541176 0.368627 0.141176 0.541176 0.368627 
0.141176 0.541176 0.368627 0.141176 0.541176 0.368627 
0.141176 0.541176 0.368627 0.141176 0.541176 0.368627 
0.141176 0.541176 0.368627 0.141176 0.541176 0.368627 
0.141176 0.541176 0.368627 0.141176 0.541176 0.368627 
0.141176 0.541176 0.368627 0.141176 0.541176 0.368627 
0.141176 0.541176 0.368627 0.141176 0.541176 0.368627 
0.141176 0.541176 0.368627 0.141176 0.541176 0.368627 
0.141176 0.541176 0.368627 0.141176 0.541176 0.368627 
0.141176 0.541176 0.368627 0.141176 0.541176 0.368627 
0.141176 0.541176 0.368627 0.141176 0.541176 0.368627 
0.141176 0.541176 0.368627 0.141176 0.541176 0.368627 
0.141176 0.541176 0.368627 0.141176 0.541176 0.368627 
0.141176 0.541176 0.368627 0.141176 0.541176 0.368627 
0.141176 0.541176 0.368627 0.141176 0.541176 0.368627 
0.141176 0.541176 0.368627 0.141176 0.541176 0.368627 
0.141176 0.541176 0.368627 0.141176 0.541176 0.368627 
0.141176 0.541176 0.368627 0.141176 0.541176 0.368627 
0.141176 0.541176 0.368627 0.141176 0.541176 0.368627 
0.141176 0.541176 0.368627 0.141176 0.541176 0.368627 
0.141176 0.541176 0.368627 0.141176 0.541176 0.368627 
0.141176 0.541176 0.368627 0.141176 0.541176 0.368627 
0.141176 0.541176 0.368627 0.141176 0.541176 0.368627 
0.141176 0.541176 0.368627 0.141176 0.541176 0.368627 
0.141176 0.541176 0.368627 0.141176 0.541176 0.368627 
0.141176 0.541176 0.368627 0.141176 0.541176 0.368627 
0.141176 0.541176 0.368627 0.141176 0.541176 0.368627 
0.141176 0.541176 0.368627 0.141176 0.541176 0.368627 
0.141176 0.541176 0.368627 0.141176 0.541176 0.368627 
0.141176 0.541176 0.368627 0.141176 0.541176 0.368627 
0.141176 0.541176 0.368627 0.141176 0.541176 0.368627 
0.141176 0.541176 0.368627 0.141176 0.541176 0.368627 
0.141176 0.541176 0.368627 0.141176 0.541176 0.368627 
0.141176 0.541176 0.368627 0.141176 0.541176 0.368627 
0.141176 0.541176 0.368627 0.141176 0.541176 0.368627 
0.141176 0.541176 0.368627 0.141176 0.541176 0.368627 
0.141176 0.541176 0.368627 0.141176 0.541176 0.368627 
0.141176 0.541176 0.368627 0.141176 0.541176 0.368627 
0.141176 0.541176 0.368627 0.141176 0.541176 0.368627 
0.141176 0.541176 0.368627 0.141176 0.541176 0.368627 
0.141176 0.541176 0.368627 0.141176 0.541176 0.368627 
0.141176 0.541176 0.368627 0.141176 0.541176 0.368627 
0.141176 0.541176 0.368627 0.141176 0.541176 0.368627 
0.141176 0.541176 0.368627 0.141176 0.541176 0.368627 
0.141176 0.541176 0.368627 0.141176 0.541176 0.368627 
0.141176 0.541176 0.368627 0.141176 0.541176 0.368627 
0.141176 0.541176 0.368627 0.141176 0.541176 0.368627 
0.141176 0.541176 0.368627 0.141176 0.541176 0.368627 
0.141176 0.541176 0.368627 0.141176 0.541176 0.368627 
0.141176 0.541176 0.368627 0.141176 0.541176 0.368627 
0.141176 0.541176 0.368627 0.141176 0.541176 0.368627 
0.141176 0.541176 0.368627 0.141176 0.541176 0.368627 
0.141176 0.541176 0.368627 0.141176 0.541176 0.368627 
0.141176 0.541176 0.368627 0.141176 0.541176 0.368627 
0.141176 0.541176 0.368627 0.141176 0.541176 0.368627 
0.141176 0.541176 0.368627 0.141176 0.541176 0.368627 
0.141176 0.541176 0.368627 0.141176 0.541176 0.368627 
0.141176 0.541176 0.368627 0.141176 0.541176 0.368627 
0.141176 0.541176 0.368627 0.141176 0.541176 0.368627 
0.141176 0.541176 0.368627 0.141176 0.541176 0.368627 
0.141176 0.541176 0.368627 0.141176 0.541176 0.368627 
0.141176 0.541176 0.368627 0.141176 0.541176 0.368627 
0.141176 0.541176 0.368627 0.141176 0.541176 0.368627 
0.141176 0.541176 0.368627 0.141176 0.541176 0.368627 
0.141176 0.541176 0.368627 0.141176 0.541176 0.368627 
0.141176 0.541176 0.368627 0.141176 0.541176 0.368627 
0.141176 0.541176 0.368627 0.141176 0.541176 0.368627 
0.141176 0.541176 0.368627 0.141176 0.541176 0.368627 
0.141176 0.541176 0.368627 0.141176 0.541176 0.368627 
0.141176 0.541176 0.368627 0.141176 0.541176 0.368627 
0.141176 0.541176 0.368627 0.141176 0.541176 0.368627 
0.141176 0.541176 0.368627 0.141176 0.541176 0.368627 
0.141176 0.541176 0.368627 0.141176 0.541176 0.368627 
0.141176 0.541176 0.368627 0.141176 0.541176 0.368627 
0.141176 0.541176 0.368627 0.141176 0.541176 0.368627 
0.141176 0.541176 0.368627 0.141176 0.541176 0.368627 
0.141176 0.541176 0.368627 0.141176 0.541176 0.368627 
0.141176 0.541176 0.368627 0.141176 0.541176 0.368627 
0.141176 0.541176 0.368627 0.141176 0.541176 0.368627 
0.141176 0.541176 0.368627 0.141176 0.541176 0.368627 
0.141176 0.541176 0.368627 0.141176 0.541176 0.368627 
0.141176 0.541176 0.368627 0.141176 0.541176 0.368627 
0.141176 0.541176 0.368627 0.141176 0.541176 0.368627 
0.141176 0.541176 0.368627 0.141176 0.541176 0.368627 
0.141176 0.541176 0.368627 0.141176 0.541176 0.368627 
0.141176 0.541176 0.368627 0.141176 0.541176 0.368627 
0.141176 0.541176 0.368627 0.141176 0.541176 0.368627 
0.141176 0.541176 0.368627 0.141176 0.541176 0.368627 
0.141176 0.541176 0.368627 0.141176 0.541176 0.368627 
0.141176 0.541176 0.368627 0.141176 0.541176 0.368627 
0.141176 0.541176 0.368627 0.141176 0.541176 0.368627 
0.141176 0.541176 0.368627 0.141176 0.541176 0.368627 
0.141176 0.541176 0.368627 0.141176 0.541176 0.368627 
0.141176 0.541176 0.368627 0.141176 0.541176 0.368627 
0.141176 0.541176 0.368627 0.141176 0.541176 0.368627 
0.141176 0.541176 0.368627 0.141176 0.541176 0.368627 
0.141176 0.541176 0.368627 0.141176 0.541176 0.368627 
0.141176 0.541176 0.368627 0.141176 0.541176 0.368627 
0.141176 0.541176 0.368627 0.141176 0.541176 0.368627 
0.141176 0.541176 0.368627 0.141176 0.541176 0.368627 
0.141176 0.541176 0.368627 0.141176 0.541176 0.368627 
0.141176 0.541176 0.368627 0.141176 0.541176 0.368627 
0.141176 0.541176 0.368627 0.141176 0.541176 0.368627 
0.141176 0.541176 0.368627 0.141176 0.541176 0.368627 
0.141176 0.541176 0.368627 0.141176 0.541176 0.368627 
0.141176 0.541176 0.368627 0.141176 0.541176 0.368627 
0.141176 0.541176 0.368627 0.141176 0.541176 0.368627 
0.141176 0.541176 0.368627 0.141176 0.541176 0.368627 
0.141176 0.541176 0.368627 0.141176 0.541176 0.368627 
0.141176 0.541176 0.368627 0.141176 0.541176 0.368627 
0.141176 0.541176 0.368627 0.141176 0.541176 0.368627 
0.141176 0.541176 0.368627 0.141176 0.541176 0.368627 
0.141176 0.541176 0.368627 0.141176 0.541176 0.368627 
0.141176 0.541176 0.368627 0.141176 0.541176 0.368627 
0.141176 0.541176 0.368627 0.141176 0.541176 0.368627 
0.141176 0.541176 0.368627 0.141176 0.541176 0.368627 
0.141176 0.541176 0.368627 0.141176 0.541176 0.368627 
0.141176 0.541176 0.368627 0.141176 0.541176 0.368627 
0.141176 0.541176 0.368627 0.141176 0.541176 0.368627 
0.141176 0.541176 0.368627 0.141176 0.541176 0.368627 
0.141176 0.541176 0.368627 0.141176 0.541176 0.368627 
0.141176 0.541176 0.368627 0.141176 0.541176 0.368627 
0.141176 0.541176 0.368627 0.141176 0.541176 0.368627 
0.141176 0.541176 0.368627 0.141176 0.541176 0.368627 
0.141176 0.541176 0.368627 0.141176 0.541176 0.368627 
0.141176 0.541176 0.368627 0.141176 0.541176 0.368627 
0.141176 0.541176 0.368627 0.141176 0.541176 0.368627 
0.141176 0.541176 0.368627 0.141176 0.541176 0.368627 
0.141176 0.541176 0.368627 0.141176 0.541176 0.368627 
0.141176 0.541176 0.368627 0.141176 0.541176 0.368627 
0.141176 0.541176 0.368627 0.141176 0.541176 0.368627 
0.141176 0.541176 0.368627 0.141176 0.541176 0.368627 
0.141176 0.541176 0.368627 0.141176 0.541176 0.368627 
0.141176 0.541176 0.368627 0.141176 0.541176 0.368627 
0.141176 0.541176 0.368627 0.141176 0.541176 0.368627 
0.141176 0.541176 0.368627 0.141176 0.541176 0.368627 
0.141176 0.541176 0.368627 0.141176 0.541176 0.368627 
0.141176 0.541176 0.368627 0.141176 0.541176 0.368627 
0.141176 0.541176 0.368627 0.141176 0.541176 0.368627 
0.141176 0.541176 0.368627 0.141176 0.541176 0.368627 
0.141176 0.541176 0.368627 0.141176 0.541176 0.368627 
0.141176 0.541176 0.368627 0.141176 0.541176 0.368627 
0.141176 0.541176 0.368627 0.141176 0.541176 0.368627 
0.141176 0.541176 0.368627 0.141176 0.541176 0.368627 
0.141176 0.541176 0.368627 0.141176 0.541176 0.368627 
0.141176 0.541176 0.368627 0.141176 0.541176 0.368627 
0.141176 0.541176 0.368627 0.141176 0.541176 0.368627 
0.141176 0.541176 0.368627 0.141176 0.541176 0.368627 
0.141176 0.541176 0.368627 0.141176 0.541176 0.368627 
0.141176 0.541176 0.368627 0.141176 0.541176 0.368627 
0.141176 0.541176 0.368627 0.141176 0.541176 0.368627 
0.141176 0.541176 0.368627 0.141176 0.541176 0.368627 
0.141176 0.541176 0.368627 0.141176 0.541176 0.368627 
0.141176 0.541176 0.368627 0.141176 0.541176 0.368627 
0.141176 0.541176 0.368627 0.141176 0.541176 0.368627 
0.141176 0.541176 0.368627 0.141176 0.541176 0.368627 
0.141176 0.541176 0.368627 0.141176 0.541176 0.368627 
0.141176 0.541176 0.368627 0.141176 0.541176 0.368627 
0.141176 0.541176 0.368627 0.141176 0.541176 0.368627 
0.141176 0.541176 0.368627 0.141176 0.541176 0.368627 
0.141176 0.541176 0.368627 0.141176 0.541176 0.368627 
0.141176 0.541176 0.368627 0.141176 0.541176 0.368627 
0.141176 0.541176 0.368627 0.141176 0.541176 0.368627 
0.141176 0.541176 0.368627 0.141176 0.541176 0.368627 
0.141176 0.541176 0.368627 0.141176 0.541176 0.368627 
0.141176 0.541176 0.368627 0.141176 0.541176 0.368627 
0.141176 0.541176 0.368627 0.141176 0.541176 0.368627 
0.141176 0.541176 0.368627 0.141176 0.541176 0.368627 
0.141176 0.541176 0.368627 0.141176 0.541176 0.368627 
0.141176 0.541176 0.368627 0.141176 0.541176 0.368627 
0.141176 0.541176 0.368627 0.141176 0.541176 0.368627 
0.141176 0.541176 0.368627 0.141176 0.541176 0.368627 
0.141176 0.541176 0.368627 0.141176 0.541176 0.368627 
0.141176 0.541176 0.368627 0.141176 0.541176 0.368627 
0.141176 0.541176 0.368627 0.141176 0.541176 0.368627 
0.141176 0.541176 0.368627 0.141176 0.541176 0.368627 
0.141176 0.541176 0.368627 0.141176 0.541176 0.368627 
0.141176 0.541176 0.368627 0.141176 0.541176 0.368627 
0.141176 0.541176 0.368627 0.141176 0.541176 0.368627 
0.141176 0.541176 0.368627 0.141176 0.541176 0.368627 
0.141176 0.541176 0.368627 0.141176 0.541176 0.368627 
0.141176 0.541176 0.368627 0.141176 0.541176 0.368627 
0.141176 0.541176 0.368627 0.141176 0.541176 0.368627 
0.141176 0.541176 0.368627 0.141176 0.541176 0.368627 
0.141176 0.541176 0.368627 0.141176 0.541176 0.368627 
0.141176 0.541176 0.368627 0.141176 0.541176 0.368627 
0.141176 0.541176 0.368627 0.141176 0.541176 0.368627 
0.141176 0.541176 0.368627 0.141176 0.541176 0.368627 
0.141176 0.541176 0.368627 0.141176 0.541176 0.368627 
0.141176 0.541176 0.368627 0.141176 0.541176 0.368627 
0.141176 0.541176 0.368627 0.141176 0.541176 0.368627 
0.141176 0.541176 0.368627 0.141176 0.541176 0.368627 
0.141176 0.541176 0.368627 0.141176 0.541176 0.368627 
0.141176 0.541176 0.368627 0.141176 0.541176 0.368627 
0.141176 0.541176 0.368627 0.141176 0.541176 0.368627 
0.141176 0.541176 0.368627 0.141176 0.541176 0.368627 
0.141176 0.541176 0.368627 0.141176 0.541176 0.368627 
0.141176 0.541176 0.368627 0.141176 0.541176 0.368627 
0.141176 0.541176 0.368627 0.141176 0.541176 0.368627 
0.141176 0.541176 0.368627 0.141176 0.541176 0.368627 
0.141176 0.541176 0.368627 0.141176 0.541176 0.368627 
0.141176 0.541176 0.368627 0.141176 0.541176 0.368627 
0.141176 0.541176 0.368627 0.141176 0.541176 0.368627 
0.141176 0.541176 0.368627 0.141176 0.541176 0.368627 
0.141176 0.541176 0.368627 0.141176 0.541176 0.368627 
0.141176 0.541176 0.368627 0.141176 0.541176 0.368627 
0.141176 0.541176 0.368627 0.141176 0.541176 0.368627 
0.141176 0.541176 0.368627 0.141176 0.541176 0.368627 
0.141176 0.541176 0.368627 0.141176 0.541176 0.368627 
0.141176 0.541176 0.368627 0.141176 0.541176 0.368627 
0.141176 0.541176 0.368627 0.141176 0.541176 0.368627 
0.141176 0.541176 0.368627 0.141176 0.541176 0.368627 
0.141176 0.541176 0.368627 0.141176 0.541176 0.368627 
0.141176 0.541176 0.368627 0.141176 0.541176 0.368627 
0.141176 0.541176 0.368627 0.141176 0.541176 0.368627 
0.141176 0.541176 0.368627 0.141176 0.541176 0.368627 
0.141176 0.541176 0.368627 0.141176 0.541176 0.368627 
0.141176 0.541176 0.368627 0.141176 0.541176 0.368627 
0.141176 0.541176 0.368627 0.141176 0.541176 0.368627 
0.141176 0.541176 0.368627 0.141176 0.541176 0.368627 
0.141176 0.541176 0.368627 0.141176 0.541176 0.368627 
0.141176 0.541176 0.368627 0.141176 0.541176 0.368627 
0.141176 0.541176 0.368627 0.141176 0.541176 0.368627 
0.141176 0.541176 0.368627 0.141176 0.541176 0.368627 
0.141176 0.541176 0.368627 0.141176 0.541176 0.368627 
0.141176 0.541176 0.368627 0.141176 0.541176 0.368627 
0.141176 0.541176 0.368627 0.141176 0.541176 0.368627 
0.141176 0.541176 0.368627 0.141176 0.541176 0.368627 
0.141176 0.541176 0.368627 0.141176 0.541176 0.368627 
0.141176 0.541176 0.368627 0.141176 0.541176 0.368627 
0.141176 0.541176 0.368627 0.141176 0.541176 0.368627 
0.141176 0.541176 0.368627 0.141176 0.541176 0.368627 
0.141176 0.541176 0.368627 0.141176 0.541176 0.368627 
0.141176 0.541176 0.368627 0.141176 0.541176 0.368627 
0.141176 0.541176 0.368627 0.141176 0.541176 0.368627 
0.141176 0.541176 0.368627 0.141176 0.541176 0.368627 
0.141176 0.541176 0.368627 0.141176 0.541176 0.368627 
0.141176 0.541176 0.368627 0.141176 0.541176 0.368627 
0.141176 0.541176 0.368627 0.141176 0.541176 0.368627 
0.141176 0.541176 0.368627 0.141176 0.541176 0.368627 
0.141176 0.541176 0.368627 0.141176 0.541176 0.368627 
0.141176 0.541176 0.368627 0.141176 0.541176 0.368627 
0.141176 0.541176 0.368627 0.141176 0.541176 0.368627 
0.141176 0.541176 0.368627 0.141176 0.541176 0.368627 
0.141176 0.541176 0.368627 0.141176 0.541176 0.368627 
0.141176 0.541176 0.368627 0.141176 0.541176 0.368627 
0.141176 0.541176 0.368627 0.141176 0.541176 0.368627 
0.141176 0.541176 0.368627 0.141176 0.541176 0.368627 
0.141176 0.541176 0.368627 0.141176 0.541176 0.368627 
0.141176 0.541176 0.368627 0.141176 0.541176 0.368627 
0.141176 0.541176 0.368627 0.141176 0.541176 0.368627 
0.141176 0.541176 0.368627 0.141176 0.541176 0.368627 
0.141176 0.541176 0.368627 0.141176 0.541176 0.368627 
0.141176 0.541176 0.368627 0.141176 0.541176 0.368627 
0.141176 0.541176 0.368627 0.141176 0.541176 0.368627 
0.141176 0.541176 0.368627 0.141176 0.541176 0.368627 