# vtk DataFile Version 4.2
vtk output
ASCII
DATASET POLYDATA
POINTS 1315 float
103.436 137.722 182.18 103.513 137.559 182.436 103.435 138.012 182.001 
103.308 138.392 181.81 105.526 139.7 182.119 104.736 140.524 181.464 
106.251 140.694 181.882 103.134 141.114 181.228 107.758 141.652 182.131 
107.436 141.23 182.226 109.583 143.495 182.155 106.081 143.994 181.031 
109.766 144.146 181.951 110.579 144.484 182.291 111.211 145.412 182.207 
111.439 145.269 182.496 102.751 145.569 182.119 102.643 145.368 182.113 
102.934 145.533 182.053 109.473 145.68 181.435 111.144 145.879 182.013 
102.858 145.806 182.268 108.47 146.349 181.245 99.9786 134.276 183.065 
100.179 134.395 183.069 101.369 135.591 182.981 102.289 136.229 183.003 
99.109 136.691 182.33 98.7872 138.233 182.357 104.324 138.147 182.696 
99.5222 139.171 182.146 101.967 138.679 181.667 106.134 139.612 182.87 
98.0911 139.102 182.846 98.3263 140.926 183.443 99.6803 140.852 182.359 
100.581 140.873 181.934 102.461 141.933 181.398 101.299 142.755 182.01 
104.03 144.095 181.312 101.241 144.383 182.697 105.792 145.037 181.133 
102.2 145.252 182.431 104.755 145.907 181.602 112.622 146.701 182.696 
112.518 147.526 182.292 113.294 146.945 183.135 104.126 147.576 182.697 
105.673 147.537 181.935 106.514 147.53 181.702 104.323 148.23 183.065 
112.593 148.846 182.096 115.001 148.798 183.264 115.284 149.273 183.172 
108.219 149.276 182.002 109.354 150.16 182.063 112.554 149.509 182.102 
114.676 149.662 182.752 115.196 149.587 182.999 116.316 150.252 183.394 
116.462 150.293 183.521 97 129.009 183.017 97 129.009 183.017 
97 129.009 183.017 97 129.009 183.017 97 129.009 183.017 
94.7702 132.754 183.584 100.794 134.51 183.76 97.4135 135.05 182.859 
100.585 135.071 182.983 99.8753 135.575 182.588 96.5805 136.723 183.29 
97.3583 136.645 182.867 95.8941 137.294 183.992 106.227 139.343 183.675 
97.2218 139.826 184.135 110.631 143.706 183.374 104.521 149.114 183.862 
115.585 149.18 183.55 111.769 150.153 182.108 116.663 150.613 183.683 
116.559 150.154 183.796 116.133 150.922 183.335 107.441 151.533 183.621 
114.43 151.954 182.939 110.689 152.39 182.999 109.579 153.007 183.622 
109.315 153.437 184.056 97 129.009 183.017 94.0508 130.42 184.232 
96.6241 130.178 185.135 94.1927 131.27 184.008 95.4411 131.037 184.049 
96.1572 131.265 184.091 92.4032 132.434 185.056 93.2281 132.679 184.519 
94.1539 132.552 183.94 95.5031 132.967 183.514 93.2299 133.948 185.048 
94.8054 133.384 183.727 102.181 135.301 184.638 96.2697 138.489 184.41 
111.267 144.103 184.51 116.298 149.493 184.25 117.8 151.76 184.502 
118.101 151.515 185.012 117.903 152.56 184.391 118.729 152.875 184.959 
93.0008 125.962 186.493 92.2325 126.604 185.603 93.2887 126.421 186.204 
91.3478 127.373 185.258 92.7946 127.42 185.285 94.0423 127.338 186.014 
90.6937 128.811 185.37 92.0228 128.841 184.845 91.9336 132.826 185.943 
95.4077 137.562 184.924 95.6986 138.193 185.179 116.817 149.797 185.204 
117.716 150.766 185.473 107.471 152.986 185.083 120.17 154.667 185.817 
114.763 156.676 185.08 113.889 157.118 185.537 89.8694 123.137 187.013 
89.7106 123.52 186.67 91.5088 124.801 186.596 88.0491 124.642 186.607 
89.3355 125.174 186.119 89.3276 124.413 186.296 90.7184 125.436 185.931 
88.1302 125.918 186.637 88.0804 126.668 186.856 89.3363 126.748 185.965 
93.7576 126.489 186.711 88.5192 128.02 187.021 102.915 135.753 185.646 
94.4787 136.983 186.352 107.012 139.769 185.527 121.339 154.887 186.885 
122.089 155.847 187.067 122.177 156.072 187.146 120.128 157.65 186.069 
134.474 174.88 187.421 134.434 174.781 187.426 134.091 175.04 187.383 
134.441 175.541 187.323 134.646 175.388 187.587 133.947 176.025 187.243 
134.695 175.749 187.407 134.625 175.971 187.302 134.784 176.023 187.448 
134.269 176.31 187.263 134.723 176.221 187.372 134.217 176.557 187.375 
134.464 176.514 187.36 134.67 176.442 187.413 134.57 176.624 187.499 
86.8923 120.166 187.885 86.6509 120.584 187.7 86.0332 121.453 187.658 
85.3347 121.458 188.023 88.7201 121.55 187.564 89.0823 121.059 188.175 
87.4157 122.215 187.147 88.1427 122.227 187.098 88.6811 122.1 187.236 
85.5357 123.114 188.155 90.3345 122.893 187.58 91.0708 123.285 187.937 
87.3346 124.392 187.011 92.9257 125.261 187.607 93.9027 126.412 187.248 
87.6892 127.15 187.658 106.26 139.099 187.127 109.002 141.771 186.351 
119.157 152.184 187.253 106.064 152.348 187.016 121.732 155.201 187.245 
122.461 156.416 187.642 110.978 156.644 186.741 121.64 157.528 186.673 
114.878 159.408 187.387 133.67 173.717 188.389 132.357 174.753 187.52 
134.095 174.545 187.715 134.497 174.906 187.893 131.903 175.429 187.613 
131.934 174.937 187.596 131.144 176.108 188.079 132.387 175.855 187.55 
132.998 175.763 187.375 131.633 176.49 188.042 133.473 176.143 187.365 
134.837 176.009 187.657 131.539 176.878 188.345 133.46 176.621 187.646 
134.691 176.563 187.589 134.283 176.856 187.907 134.534 176.719 187.74 
86.1706 117.643 189.143 85.5007 118.415 188.546 83.6316 120.459 189.362 
85.0233 122.889 188.738 121.803 155.189 188.132 123.107 160.275 187.465 
125.988 160.804 188.879 126.245 160.721 189.298 125.961 161.1 188.73 
126.242 161.201 188.909 123.262 161.395 187.678 126.412 161.741 188.957 
119.281 162.65 188.381 122.166 163.645 188.271 133.781 173.393 189.024 
129.26 175.326 188.875 130.049 176.93 189.172 134.693 176.568 187.856 
82.3273 116.179 190.251 82.7381 115.985 190.472 84.0639 116.236 189.762 
83.8231 115.927 190.213 84.6013 116.267 189.693 85.3705 116.372 189.808 
85.1759 116.162 189.924 82.3534 116.311 190.169 82.271 116.559 190.303 
82.6438 116.542 189.961 83.1998 116.585 189.697 84.8848 116.596 189.455 
85.7595 116.576 190.018 82.1792 117.044 190.427 83.0229 117.093 189.611 
83.5301 117.023 189.394 82.8688 117.782 189.676 83.4526 118.485 189.203 
88.8954 129.791 189.193 117.533 150.847 188.761 125.218 159.937 188.954 
125.253 159.623 189.738 125.83 160.264 189.58 126.103 160.532 189.377 
124.806 161.502 188.149 125.712 161.483 188.55 126.907 161.548 190.051 
127.158 162.141 189.852 128.184 163.993 189.843 128.108 164.53 189.759 
124.022 166.011 188.855 131.743 170.167 189.711 132.282 170.278 190.323 
123.288 169.837 189.761 132.122 171.035 189.433 123.344 171.08 190.132 
131.4 172.431 188.518 134.207 173.975 189.652 129.921 177.167 189.526 
82.2624 116.252 190.339 83.6463 115.715 190.78 86.9456 117.453 190.498 
124.785 159.066 190.35 126.58 161.091 190.483 116.334 162.203 189.911 
128.592 164.634 190.398 129.223 165.396 190.847 120.189 166.754 190.678 
129.234 167.758 189.645 130.946 167.756 191.045 121.671 168.582 190.208 
128.552 168.614 189.349 131.066 168.817 190.267 132.263 170.06 190.663 
133.03 171.681 190.004 133.326 172.106 190.184 125.439 174.333 190.663 
130.445 177.881 190.43 84.1109 115.598 191.254 85.1637 115.91 190.759 
81.9954 118.198 191.444 84.8044 124.035 191.091 92.5108 124.118 191.136 
117.994 164.129 190.606 130.615 167.1 191.432 131.133 167.919 191.374 
131.366 168.355 191.579 121.773 169.705 190.679 121.627 170.682 191.372 
133.671 172.76 190.882 126.029 175.423 191.079 131.582 178.308 191.148 
132.174 178.239 191.046 133.66 177.41 190.65 82.1534 116.126 192.058 
82.3481 115.901 192.435 82.803 115.659 192.573 117.154 164.013 191.526 
129.177 165.159 192.329 131.104 167.865 192.012 132.765 178.158 191.71 
83.3897 115.47 193.2 86.8502 116.887 192.55 131.693 169.46 193.195 
125.024 175.734 192.627 130.257 178.71 193.709 82.2476 116.113 194.522 
81.9348 116.603 193.916 126.198 177.198 193.885 132.29 178.49 193.802 
82.5856 115.753 194.625 82.8568 115.618 195.013 83.3536 115.484 195.105 
81.8133 117.192 195.258 114.598 163.415 195.297 120.712 172.225 194.765 
133.075 173.477 194.915 82.6793 115.907 196.106 132.697 178.317 195.169 
132.964 178.073 195.535 84.0266 115.502 196.524 85.7124 116.049 196.416 
82.4497 116.423 197.51 82.8839 115.966 197.133 81.8989 117.331 197.2 
87.7106 117.819 197.136 82.0735 119.62 196.689 133.274 177.215 196.213 
133.149 177.663 196.226 132.532 178.373 196.393 83.3362 115.693 197.17 
83.6656 115.628 197.421 84.474 115.586 196.938 85.0682 115.776 196.917 
86.744 116.896 198.061 113.585 150.816 198.023 125.835 178.101 197.666 
84.259 115.685 197.918 84.9538 115.878 198.208 82.5256 116.682 199.217 
81.8732 117.945 198.433 132.976 177.396 197.373 132.824 177.713 197.533 
132.648 178.044 197.397 130.082 179.276 199.231 83.1044 116.43 199.968 
83.5439 116.252 199.83 85.6527 116.323 199.029 83.049 116.632 200.505 
81.9734 118.512 199.746 93.7324 138.446 199.768 129.51 170.912 200.019 
132.482 176.503 198.806 132.439 177.321 198.748 127.171 179.104 200.166 
132.575 177.886 197.913 82.3107 117.547 200.801 83.5765 116.58 201.026 
128.515 179.417 201.507 130.717 178.782 200.486 131.08 177.612 201.24 
126.194 179.094 202.366 82.4718 117.812 202.26 87.7194 118.158 202.402 
130.612 176.682 202.283 130.385 178.389 201.995 130.074 178.782 202.059 
128.574 179.297 202.918 83.0248 117.851 203.46 82.5797 119.26 203.798 
129.822 177.053 203.657 130.346 177.549 202.679 83.3548 117.96 204.143 
83.7563 117.798 204.265 84.7717 117.55 203.986 83.9237 123.7 204.384 
127.382 179.322 204.297 84.0938 117.9 204.608 83.3443 118.726 205.286 
85.8837 118.281 205.046 87.0584 118.431 204.623 82.9728 119.445 205.239 
87.857 119.224 205.026 90.3138 122.194 205.717 83.439 122.205 205.427 
86.6744 128.686 206.187 122.907 178.5 205.844 127.127 179.114 205.595 
127.542 179.152 205.163 127.95 178.988 205.094 83.284 118.993 205.568 
84.9025 118.716 205.722 83.4213 119.201 205.924 83.1765 119.32 205.692 
83.9067 119.331 206.14 83.1635 119.854 205.695 88.1674 120.297 206.092 
83.7099 121.88 206.471 83.9535 122.958 206.413 127.554 173.412 206.118 
127.712 176.531 206.772 128.216 177.653 205.873 126.571 178.901 206.455 
127.155 178.993 205.948 127.759 178.827 205.642 83.3026 119.38 206.04 
83.6575 119.947 206.301 85.3249 119.779 206.642 86.1021 119.731 206.542 
84.7807 120.557 207.055 83.9002 121.524 206.775 89.201 122.725 207.5 
84.7066 124.092 207.14 86.5958 128.135 207.56 120.175 177.308 208.236 
[...]
POINT_DATA 1315
COLOR_SCALARS scalars 3
0.141176 0.541176 0.368627 0.141176 0.541176 0.368627 0.141176 0.541176 0.368627 
0.141176 0.541176 0.368627 0.141176 0.541176 0.368627 
0.141176 0.541176 0.368627 0.141176 0.541176 0.368627 
0.141176 0.541176 0.368627 0.141176 0.541176 0.368627 
0.141176 0.541176 0.368627 0.141176 0.541176 0.368627 
0.141176 0.541176 0.368627 0.141176 0.541176 0.368627 
0.141176 0.541176 0.368627 0.141176 0.541176 0.368627 
0.141176 0.541176 0.368627 0.141176 0.541176 0.368627 
0.141176 0.541176 0.368627 0.141176 0.541176 0.368627 
0.141176 0.541176 0.368627 0.141176 0.541176 0.368627 
0.141176 0.541176 0.368627 0.141176 0.541176 0.368627 
0.141176 0.541176 0.368627 0.141176 0.541176 0.368627 
0.141176 0.541176 0.368627 0.141176 0.541176 0.368627 
0.141176 0.541176 0.368627 0.141176 0.541176 0.368627 
0.141176 0.541176 0.368627 0.141176 0.541176 0.368627 
0.141176 0.541176 0.368627 0.141176 0.541176 0.368627 
0.141176 0.541176 0.368627 0.141176 0.541176 0.368627 
0.141176 0.541176 0.368627 0.141176 0.541176 0.368627 
0.141176 0.541176 0.368627 0.141176 0.541176 0.368627 
0.141176 0.541176 0.368627 0.141176 0.541176 0.368627 
0.141176 0.541176 0.368627 0.141176 0.541176 0.368627 
0.141176 0.541176 0.368627 0.141176 0.541176 0.368627 
0.141176 0.541176 0.368627 0.141176 0.541176 0.368627 
0.141176 0.541176 0.368627 0.141176 0.541176 0.368627 
0.141176 0.541176 0.368627 0.141176 0.541176 0.368627 
0.141176 0.541176 0.368627 0.141176 0.541176 0.368627 
0.141176 0.541176 0.368627 0.141176 0.541176 0.368627 
0.141176 0.541176 0.368627 0.141176 0.541176 0.368627 
0.141176 0.541176 0.368627 0.141176 0.541176 0.368627 
0.141176 0.541176 0.368627 0.141176 0.541176 0.368627 
0.141176 0.541176 0.368627 0.141176 0.541176 0.368627 
0.141176 0.541176 0.368627 0.141176 0.541176 0.368627 
0.141176 0.541176 0.368627 0.141176 0.541176 0.368627 
0.141176 0.541176 0.368627 0.141176 0.541176 0.368627 
0.141176 0.541176 0.368627 0.141176 0.541176 0.368627 
0.141176 0.541176 0.368627 0.141176 0.541176 0.368627 
0.141176 0.541176 0.368627 0.141176 0.541176 0.368627 
0.141176 0.541176 0.368627 0.141176 0.541176 0.368627 
0.141176 0.541176 0.368627 0.141176 0.541176 0.368627 
0.141176 0.541176 0.368627 0.141176 0.541176 0.368627 
0.141176 0.541176 0.368627 0.141176 0.541176 0.368627 
0.141176 0.541176 0.368627 0.141176 0.541176 0.368627 
0.141176 0.541176 0.368627 0.141176 0.541176 0.368627 
0.141176 0.541176 0.368627 0.141176 0.541176 0.368627 
0.141176 0.541176 0.368627 0.141176 0.541176 0.368627 
0.141176 0.541176 0.368627 0.141176 0.541176 0.368627 
0.141176 0.541176 0.368627 0.141176 0.541176 0.368627 
0.141176 0.541176 0.368627 0.141176 0.541176 0.368627 
0.141176 0.541176 0.368627 0.141176 0.541176 0.368627 
0.141176 0.541176 0.368627 0.141176 0.541176 0.368627 
0.141176 0.541176 0.368627 0.141176 0.541176 0.368627 
0.141176 0.541176 0.368627 0.141176 0.541176 0.368627 
0.141176 0.541176 0.368627 0.141176 0.541176 0.368627 
0.141176 0.541176 0.368627 0.141176 0.541176 0.368627 
0.141176 0.541176 0.368627 0.141176 0.541176 0.368627 
0.141176 0.541176 0.368627 0.141176 0.541176 0.368627 
0.141176 0.541176 0.368627 0.141176 0.541176 0.368627 
0.141176 0.541176 0.368627 0.141176 0.541176 0.368627 
0.141176 0.541176 0.368627 0.141176 0.541176 0.368627 
0.141176 0.541176 0.368627 0.141176 0.541176 0.368627 
0.141176 0.541176 0.368627 0.141176 0.541176 0.368627 
0.141176 0.541176 0.368627 0.141176 0.541176 0.368627 
0.141176 0.541176 0.368627 0.141176 0.541176 0.368627 
0.141176 0.541176 0.368627 0.141176 0.541176 0.368627 
0.141176 0.541176 0.368627 0.141176 0.541176 0.368627 
0.141176 0.541176 0.368627 0.141176 0.541176 0.368627 
0.141176 0.541176 0.368627 0.141176 0.541176 0.368627 
0.141176 0.541176 0.368627 0.141176 0.541176 0.368627 
0.141176 0.541176 0.368627 0.141176 0.541176 0.368627 
0.141176 0.541176 0.368627 0.141176 0.541176 0.368627 
0.141176 0.541176 0.368627 0.141176 0.541176 0.368627 
0.141176 0.541176 0.368627 0.141176 0.541176 0.368627 
0.141176 0.541176 0.368627 0.141176 0.541176 0.368627 
0.141176 0.541176 0.368627 0.141176 0.541176 0.368627 
0.141176 0.541176 0.368627 0.141176 0.541176 0.368627 
0.141176 0.541176 0.368627 0.141176 0.541176 0.368627 
0.141176 0.541176 0.368627 0.141176 0.541176 0.368627 
0.141176 0.541176 0.368627 0.141176 0.541176 0.368627 
0.141176 0.541176 0.368627 0.141176 0.541176 0.368627 
0.141176 0.541176 0.368627 0.141176 0.541176 0.368627 
0.141176 0.541176 0.368627 0.141176 0.541176 0.368627 
0.141176 0.541176 0.368627 0.141176 0.541176 0.368627 
0.141176 0.541176 0.368627 0.141176 0.541176 0.368627 
0.141176 0.541176 0.368627 0.141176 0.541176 0.368627 
0.141176 0.541176 0.368627 0.141176 0.541176 0.368627 
0.141176 0.541176 0.368627 0.141176 0.541176 0.368627 
0.141176 0.541176 0.368627 0.141176 0.541176 0.368627 
0.141176 0.541176 0.368627 0.141176 0.541176 0.368627 
0.141176 0.541176 0.368627 0.141176 0.541176 0.368627 
0.141176 0.541176 0.368627 0.141176 0.541176 0.368627 
0.141176 0.541176 0.368627 0.141176 0.541176 0.368627 
0.141176 0.541176 0.368627 0.141176 0.541176 0.368627 
0.141176 0.541176 0.368627 0.141176 0.541176 0.368627 
0.141176 0.541176 0.368627 0.141176 0.541176 0.368627 
0.141176 0.541176 0.368627 0.141176 0.541176 0.368627 
0.141176 0.541176 0.368627 0.141176 0.541176 0.368627 
0.141176 0.541176 0.368627 0.141176 0.541176 0.368627 
0.141176 0.541176 0.368627 0.141176 0.541176 0.368627 
0.141176 0.541176 0.368627 0.141176 0.541176 0.368627 
0.141176 0.541176 0.368627 0.141176 0.541176 0.368627 
0.141176 0.541176 0.368627 0.141176 0.541176 0.368627 
0.141176 0.541176 0.368627 0.141176 0.541176 0.368627 
0.141176 0.541176 0.368627 0.141176 0.541176 0.368627 
0.141176 0.541176 0.368627 0.141176 0.541176 0.368627 
0.141176 0.541176 0.368627 0.141176 0.541176 0.368627 
0.141176 0.541176 0.368627 0.141176 0.541176 0.368627 
0.141176 0.541176 0.368627 0.141176 0.541176 0.368627 
0.141176 0.541176 0.368627 0.141176 0.541176 0.368627 
0.141176 0.541176 0.368627 0.141176 0.541176 0.368627 
0.141176 0.541176 0.368627 0.141176 0.541176 0.368627 
0.141176 0.541176 0.368627 0.141176 0.541176 0.368627 
0.141176 0.541176 0.368627 0.141176 0.541176 0.368627 
0.141176 0.541176 0.368627 0.141176 0.541176 0.368627 
0.141176 0.541176 0.368627 0.141176 0.541176 0.368627 
0.141176 0.541176 0.368627 0.141176 0.541176 0.368627 
0.141176 0.541176 0.368627 0.141176 0.541176 0.368627 
0.141176 0.541176 0.368627 0.141176 0.541176 0.368627 
0.141176 0.541176 0.368627 0.141176 0.541176 0.368627 
0.141176 0.541176 0.368627 0.141176 0.541176 0.368627 
0.141176 0.541176 0.368627 0.141176 0.541176 0.368627 
0.141176 0.541176 0.368627 0.141176 0.541176 0.368627 
0.141176 0.541176 0.368627 0.141176 0.541176 0.368627 
0.141176 0.541176 0.368627 0.141176 0.541176 0.368627 
0.141176 0.541176 0.368627 0.141176 0.541176 0.368627 
0.141176 0.541176 0.368627 0.141176 0.541176 0.368627 
0.141176 0.541176 0.368627 0.141176 0.541176 0.368627 
0.141176 0.541176 0.368627 0.141176 0.541176 0.368627 
0.141176 0.541176 0.368627 0.141176 0.541176 0.368627 
0.141176 0.541176 0.368627 0.141176 0.541176 0.368627 
0.141176 0.541176 0.368627 0.141176 0.541176 0.368627 
0.141176 0.541176 0.368627 0.141176 0.541176 0.368627 
0.141176 0.541176 0.368627 0.141176 0.541176 0.368627 
0.141176 0.541176 0.368627 0.141176 0.541176 0.368627 
0.141176 0.541176 0.368627 0.141176 0.541176 0.368627 
0.141176 0.541176 0.368627 0.141176 0.541176 0.368627 
0.141176 0.541176 0.368627 0.141176 0.541176 0.368627 
0.141176 0.541176 0.368627 0.141176 0.541176 0.368627 
0.141176 0.541176 0.368627 0.141176 0.541176 0.368627 
0.141176 0.541176 0.368627 0.141176 0.541176 0.368627 
0.141176 0.541176 0.368627 0.141176 0.541176 0.368627 
0.141176 0.541176 0.368627 0.141176 0.541176 0.368627 
0.141176 0.541176 0.368627 0.141176 0.541176 0.368627 
0.141176 0.541176 0.368627 0.141176 0.541176 0.368627 
0.141176 0.541176 0.368627 0.141176 0.541176 0.368627 
0.141176 0.541176 0.368627 0.141176 0.541176 0.368627 
0.141176 0.541176 0.368627 0.141176 0.541176 0.368627 
0.141176 0.541176 0.368627 0.141176 0.541176 0.368627 
0.141176 0.541176 0.368627 0.141176 0.541176 0.368627 
0.141176 0.541176 0.368627 0.141176 0.541176 0.368627 
0.141176 0.541176 0.368627 0.141176 0.541176 0.368627 
0.141176 0.541176 0.368627 0.141176 0.541176 0.368627 
0.141176 0.541176 0.368627 0.141176 0.541176 0.368627 
0.141176 0.541176 0.368627 0.141176 0.541176 0.368627 
0.141176 0.541176 0.368627 0.141176 0.541176 0.368627 
0.141176 0.541176 0.368627 0.141176 0.541176 0.368627 
0.141176 0.541176 0.368627 0.141176 0.541176 0.368627 
0.141176 0.541176 0.368627 0.141176 0.541176 0.368627 
0.141176 0.541176 0.368627 0.141176 0.541176 0.368627 
0.141176 0.541176 0.368627 0.141176 0.541176 0.368627 
0.141176 0.541176 0.368627 0.141176 0.541176 0.368627 
0.141176 0.541176 0.368627 0.141176 0.541176 0.368627 
0.141176 0.541176 0.368627 0.141176 0.541176 0.368627 
0.141176 0.541176 0.368627 0.141176 0.541176 0.368627 
0.141176 0.541176 0.368627 0.141176 0.541176 0.368627 
0.141176 0.541176 0.368627 0.141176 0.541176 0.368627 
0.141176 0.541176 0.368627 0.141176 0.541176 0.368627 
0.141176 0.541176 0.368627 0.141176 0.541176 0.368627 
0.141176 0.541176 0.368627 0.141176 0.541176 0.368627 
0.141176 0.541176 0.368627 0.141176 0.541176 0.368627 
0.141176 0.541176 0.368627 0.141176 0.541176 0.368627 
0.141176 0.541176 0.368627 0.141176 0.541176 0.368627 
0.141176 0.541176 0.368627 0.141176 0.541176 0.368627 
0.141176 0.541176 0.368627 0.141176 0.541176 0.368627 
0.141176 0.541176 0.368627 0.141176 0.541176 0.368627 
0.141176 0.541176 0.368627 0.141176 0.541176 0.368627 
0.141176 0.541176 0.368627 0.141176 0.541176 0.368627 
0.141176 0.541176 0.368627 0.141176 0.541176 0.368627 
0.141176 0.541176 0.368627 0.141176 0.541176 0.368627 
0.141176 0.541176 0.368627 0.141176 0.541176 0.368627 
0.141176 0.541176 0.368627 0.141176 0.541176 0.368627 
0.141176 0.541176 0.368627 0.141176 0.541176 0.368627 
0.141176 0.541176 0.368627 0.141176 0.541176 0.368627 
0.141176 0.541176 0.368627 0.141176 0.541176 0.368627 
0.141176 0.541176 0.368627 0.141176 0.541176 0.368627 
0.141176 0.541176 0.368627 0.141176 0.541176 0.368627 
0.141176 0.541176 0.368627 0.141176 0.541176 0.368627 
0.141176 0.541176 0.368627 0.141176 0.541176 0.368627 
0.141176 0.541176 0.368627 0.141176 0.541176 0.368627 
0.141176 0.541176 0.368627 0.141176 0.541176 0.368627 
0.141176 0.541176 0.368627 0.141176 0.541176 0.368627 
0.141176 0.541176 0.368627 0.141176 0.541176 0.368627 
0.141176 0.541176 0.368627 0.141176 0.541176 0.368627 
0.141176 0.541176 0.368627 0.141176 0.541176 0.368627 
0.141176 0.541176 0.368627 0.141176 0.541176 0.368627 
0.141176 0.541176 0.368627 0.141176 0.541176 0.368627 
0.141176 0.541176 0.368627 0.141176 0.541176 0.368627 
0.141176 0.541176 0.368627 0.141176 0.541176 0.368627 
0.141176 0.541176 0.368627 0.141176 0.541176 0.368627 
0.141176 0.541176 0.368627 0.141176 0.541176 0.368627 
0.141176 0.541176 0.368627 0.141176 0.541176 0.368627 
0.141176 0.541176 0.368627 0.141176 0.541176 0.368627 
0.141176 0.541176 0.368627 0.141176 0.541176 0.368627 
0.141176 0.541176 0.368627 0.141176 0.541176 0.368627 
0.141176 0.541176 0.368627 0.141176 0.541176 0.368627 
0.141176 0.541176 0.368627 0.141176 0.541176 0.368627 
0.141176 0.541176 0.368627 0.141176 0.541176 0.368627 
0.141176 0.541176 0.368627 0.141176 0.541176 0.368627 
0.141176 0.541176 0.368627 0.141176 0.541176 0.368627 
0.141176 0.541176 0.368627 0.141176 0.541176 0.368627 
0.141176 0.541176 0.368627 0.141176 0.541176 0.368627 
0.141176 0.541176 0.368627 0.141176 0.541176 0.368627 
0.141176 0.541176 0.368627 0.141176 0.541176 0.368627 
0.141176 0.541176 0.368627 0.141176 0.541176 0.368627 
0.141176 0.541176 0.368627 0.141176 0.541176 0.368627 
0.141176 0.541176 0.368627 0.141176 0.541176 0.368627 
0.141176 0.541176 0.368627 0.141176 0.541176 0.368627 
0.141176 0.541176 0.368627 0.141176 0.541176 0.368627 
0.141176 0.541176 0.368627 0.141176 0.541176 0.368627 
0.141176 0.541176 0.368627 0.141176 0.541176 0.368627 
0.141176 0.541176 0.368627 0.141176 0.541176 0.368627 
0.141176 0.541176 0.368627 0.141176 0.541176 0.368627 
0.141176 0.541176 0.368627 0.141176 0.541176 0.368627 
0.141176 0.541176 0.368627 0.141176 0.541176 0.368627 
0.141176 0.541176 0.368627 0.141176 0.541176 0.368627 
0.141176 0.541176 0.368627 0.141176 0.541176 0.368627 
0.141176 0.541176 0.368627 0.141176 0.541176 0.368627 
0.141176 0.541176 0.368627 0.141176 0.541176 0.368627 
0.141176 0.541176 0.368627 0.141176 0.541176 0.368627 
0.141176 0.541176 0.368627 0.141176 0.541176 0.368627 
0.141176 0.541176 0.368627 0.141176 0.541176 0.368627 
0.141176 0.541176 0.368627 0.141176 0.541176 0.368627 
0.141176 0.541176 0.368627 0.141176 0.541176 0.368627 
0.141176 0.541176 0.368627 0.141176 0.541176 0.368627 
0.141176 0.541176 0.368627 0.141176 0.541176 0.368627 
0.141176 0.541176 0.368627 0.141176 0.541176 0.368627 
0.141176 0.541176 0.368627 0.141176 0.541176 0.368627 
0.141176 0.541176 0.368627 0.141176 0.541176 0.368627 
0.141176 0.541176 0.368627 0.141176 0.541176 0.368627 
0.141176 0.541176 0.368627 0.141176 0.541176 0.368627 
0.141176 0.541176 0.368627 0.141176 0.541176 0.368627 
0.141176 0.541176 0.368627 0.141176 0.541176 0.368627 
0.141176 0.541176 0.368627 0.141176 0.541176 0.368627 
0.141176 0.541176 0.368627 0.141176 0.541176 0.368627 
0.141176 0.541176 0.368627 0.141176 0.541176 0.368627 
0.141176 0.541176 0.368627 0.141176 0.541176 0.368627 
0.141176 0.541176 0.368627 0.141176 0.541176 0.368627 
0.141176 0.541176 0.368627 0.141176 0.541176 0.368627 
0.141176 0.541176 0.368627 0.141176 0.541176 0.368627 
0.141176 0.541176 0.368627 0.141176 0.541176 0.368627 
0.141176 0.541176 0.368627 0.141176 0.541176 0.368627 
0.141176 0.541176 0.368627 0.141176 0.541176 0.368627 
0.141176 0.541176 0.368627 0.141176 0.541176 0.368627 
0.141176 0.541176 0.368627 0.141176 0.541176 0.368627 
0.141176 0.541176 0.368627 0.141176 0.541176 0.368627 
0.141176 0.541176 0.368627 0.141176 0.541176 0.368627 
0.141176 0.541176 0.368627 0.141176 0.541176 0.368627 
0.141176 0.541176 0.368627 0.141176 0.541176 0.368627 
0.141176 0.541176 0.368627 0.141176 0.541176 0.368627 
0.141176 0.541176 0.368627 0.141176 0.541176 0.368627 
0.141176 0.541176 0.368627 0.141176 0.541176 0.368627 
0.141176 0.541176 0.368627 0.141176 0.541176 0.368627 
0.141176 0.541176 0.368627 0.141176 0.541176 0.368627 
0.141176 0.541176 0.368627 0.141176 0.541176 0.368627 
0.141176 0.541176 0.368627 0.141176 0.541176 0.368627 
0.141176 0.541176 0.368627 0.141176 0.541176 0.368627 
0.141176 0.541176 0.368627 0.141176 0.541176 0.368627 
0.141176 0.541176 0.368627 0.141176 0.541176 0.368627 
0.141176 0.541176 0.368627 0.141176 0.541176 0.368627 
0.141176 0.541176 0.368627 0.141176 0.541176 0.368627 
0.141176 0.541176 0.368627 0.141176 0.541176 0.368627 
0.141176 0.541176 0.368627 0.141176 0.541176 0.368627 
0.141176 0.541176 0.368627 0.141176 0.541176 0.368627 
0.141176 0.541176 0.368627 0.141176 0.541176 0.368627 
0.141176 0.541176 0.368627 0.141176 0.541176 0.368627 
0.141176 0.541176 0.368627 0.141176 0.541176 0.368627 
0.141176 0.541176 0.368627 0.141176 0.541176 0.368627 
0.141176 0.541176 0.368627 0.141176 0.541176 0.368627 
0.141176 0.541176 0.368627 0.141176 0.541176 0.368627 
0.141176 0.541176 0.368627 0.141176 0.541176 0.368627 
0.141176 0.541176 0.368627 0.141176 0.541176 0.368627 
0.141176 0.541176 0.368627 0.141176 0.541176 0.368627 
0.141176 0.541176 0.368627 0.141176 0.541176 0.368627 
0.141176 0.541176 0.368627 0.141176 0.541176 0.368627 
0.141176 0.541176 0.368627 0.141176 0.541176 0.368627 
0.141176 0.541176 0.368627 0.141176 0.541176 0.368627 
0.141176 0.541176 0.368627 0.141176 0.541176 0.368627 
0.141176 0.541176 0.368627 0.141176 0.541176 0.368627 
0.141176 0.541176 0.368627 0.141176 0.541176 0.368627 
0.141176 0.541176 0.368627 0.141176 0.541176 0.368627 
0.141176 0.541176 0.368627 0.141176 0.541176 0.368627 
0.141176 0.541176 0.368627 0.141176 0.541176 0.368627 
0.141176 0.541176 0.368627 0.141176 0.541176 0.368627 
0.141176 0.541176 0.368627 0.141176 0.541176 0.368627 
0.141176 0.541176 0.368627 0.141176 0.541176 0.368627 
0.141176 0.541176 0.368627 0.141176 0.541176 0.368627 
0.141176 0.541176 0.368627 0.141176 0.541176 0.368627 
0.141176 0.541176 0.368627 0.141176 0.541176 0.368627 
0.141176 0.541176 0.368627 0.141176 0.541176 0.368627 
0.141176 0.541176 0.368627 0.141176 0.541176 0.368627 
0.141176 0.541176 0.368627 0.141176 0.541176 0.368627 
0.141176 0.541176 0.368627 0.141176 0.541176 0.368627 
0.141176 0.541176 0.368627 0.141176 0.541176 0.368627 
0.141176 0.541176 0.368627 0.141176 0.541176 0.368627 
0.141176 0.541176 0.368627 0.141176 0.541176 0.368627 
0.141176 0.541176 0.368627 0.141176 0.541176 0.368627 
0.141176 0.541176 0.368627 0.141176 0.541176 0.368627 
0.141176 0.541176 0.368627 0.141176 0.541176 0.368627 
0.141176 0.541176 0.368627 0.141176 0.541176 0.368627 
0.141176 0.541176 0.368627 0.141176 0.541176 0.368627 
0.141176 0.541176 0.368627 0.141176 0.541176 0.368627 
0.141176 0.541176 0.368627 0.141176 0.541176 0.368627 
0.141176 0.541176 0.368627 0.141176 0.541176 0.368627 
0.141176 0.541176 0.368627 0.141176 0.541176 0.368627 
0.141176 0.541176 0.368627 0.141176 0.541176 0.368627 
0.141176 0.541176 0.368627 0.141176 0.541176 0.368627 
0.141176 0.541176 0.368627 0.141176 0.541176 0.368627 
0.141176 0.541176 0.368627 0.141176 0.541176 0.368627 
0.141176 0.541176 0.368627 0.141176 0.541176 0.368627 
0.141176 0.541176 0.368627 0.141176 0.541176 0.368627 
0.141176 0.541176 0.368627 0.141176 0.541176 0.368627 
0.141176 0.541176 0.368627 0.141176 0.541176 0.368627 
0.141176 0.541176 0.368627 0.141176 0.541176 0.368627 
0.141176 0.541176 0.368627 0.141176 0.541176 0.368627 
0.141176 0.541176 0.368627 0.141176 0.541176 0.368627 
0.141176 0.541176 0.368627 0.141176 0.541176 0.368627 
0.141176 0.541176 0.368627 0.141176 0.541176 0.368627 
0.141176 0.541176 0.368627 0.141176 0.541176 0.368627 
0.141176 0.541176 0.368627 0.141176 0.541176 0.368627 
0.141176 0.541176 0.368627 0.141176 0.541176 0.368627 
0.141176 0.541176 0.368627 0.141176 0.541176 0.368627 
0.141176 0.541176 0.368627 0.141176 0.541176 0.368627 
0.141176 0.541176 0.368627 0.141176 0.541176 0.368627 
0.141176 0.541176 0.368627 0.141176 0.541176 0.368627 
0.141176 0.541176 0.368627 0.141176 0.541176 0.368627 
0.141176 0.541176 0.368627 0.141176 0.541176 0.368627 
0.141176 0.541176 0.368627 0.141176 0.541176 0.368627 
0.141176 0.541176 0.368627 0.141176 0.541176 0.368627 
0.141176 0.541176 0.368627 0.141176 0.541176 0.368627 
0.141176 0.541176 0.368627 0.141176 0.541176 0.368627 
0.141176 0.541176 0.368627 0.141176 0.541176 0.368627 
0.141176 0.541176 0.368627 0.141176 0.541176 0.368627 
0.141176 0.541176 0.368627 0.141176 0.541176 0.368627 
0.141176 0.541176 0.368627 0.141176 0.541176 0.368627 
0.141176 0.541176 0.368627 0.141176 0.541176 0.368627 
0.141176 0.541176 0.368627 0.141176 0.541176 0.368627 
0.141176 0.541176 0.368627 0.141176 0.541176 0.368627 
0.141176 0.541176 0.368627 0.141176 0.541176 0.368627 
0.141176 0.541176 0.368627 0.141176 0.541176 0.368627 
0.141176 0.541176 0.368627 0.141176 0.541176 0.368627 
0.141176 0.541176 0.368627 0.141176 0.541176 0.368627 
0.141176 0.541176 0.368627 0.141176 0.541176 0.368627 
0.141176 0.541176 0.368627 0.141176 0.541176 0.368627 
0.141176 0.541176 0.368627 0.141176 0.541176 0.368627 
0.141176 0.541176 0.368627 0.141176 0.541176 0.368627 
0.141176 0.541176 0.368627 0.141176 0.541176 0.368627 
0.141176 0.541176 0.368627 0.141176 0.541176 0.368627 
0.141176 0.541176 0.368627 0.141176 0.541176 0.368627 
0.141176 0.541176 0.368627 0.141176 0.541176 0.368627 
0.141176 0.541176 0.368627 0.141176 0.541176 0.368627 
0.141176 0.541176 0.368627 0.141176 0.541176 0.368627 
0.141176 0.541176 0.368627 0.141176 0.541176 0.368627 
0.141176 0.541176 0.368627 0.141176 0.541176 0.368627 