# vtk DataFile Version 4.2
vtk output
ASCII
DATASET POLYDATA
POINTS 1385 float
96.5103 141.198 183.525 96.2911 141.086 183.535 96.6791 141.315 183.657 
97.0292 142.983 183.074 98.2467 143.816 183.13 98.2706 144.453 182.876 
98.6409 143.895 183.32 99.063 144.12 183.588 98.2131 145.166 182.657 
98.9737 145.259 182.879 99.3929 144.69 183.423 98.255 145.81 182.558 
100.828 147.215 183.016 99.3032 147.649 182.472 102.044 147.845 183.634 
101.378 149.534 182.5 103.257 149.578 183.334 103.404 150.722 182.868 
104.306 151.377 183.197 92.6915 138.744 183.908 94.7352 138.855 184.135 
92.6741 139.587 183.831 94.2277 139.57 183.661 95.187 138.973 184.354 
95.5491 139.285 184.445 93.4514 140.515 183.578 92.6571 140.291 183.848 
95.6636 140.3 183.756 92.2916 140.544 184.102 93.0503 141.999 183.948 
93.7389 142.086 183.56 93.0259 142.523 184.148 93.2192 143.12 184.275 
94.5188 143.835 183.552 97.1126 145.02 182.698 99.6178 144.608 183.815 
94.9517 146.048 184.231 97.0486 145.896 182.804 100.749 146.14 183.664 
100.977 146.13 184.069 96.2441 146.696 183.422 101.794 147.217 184.028 
96.9776 148.994 184.11 100.161 150.924 182.855 99.3195 151.746 183.644 
104.718 152.073 183.291 105.936 152.382 184.238 99.5963 152.718 183.95 
106.368 153.498 183.872 106.737 153.334 184.338 101.096 153.658 183.4 
106.199 154.166 183.536 105.088 154.583 183.097 106.053 155.053 183.352 
102.023 155.373 183.652 106.058 155.845 183.345 107.047 155.592 183.643 
107.877 155.707 184.083 105.273 156.406 183.362 104.5 157 183.608 
89.5919 132.331 185.507 89.5055 132.411 185.458 89.7157 132.29 185.721 
90.1636 135.245 184.781 89.486 135.627 184.845 89.4289 136.13 184.955 
90.2295 137.162 184.621 91.5358 137.039 184.346 93.5006 137.216 184.819 
89.5828 137.411 185.174 90.5483 137.846 184.59 94.9744 138.33 184.893 
95.8279 139.335 184.845 91.0965 139.393 184.657 92.1111 141.815 184.886 
97.5033 141.707 184.436 92.8484 143.185 184.84 103.294 148.84 184.46 
105.588 151.767 184.495 102.168 157.489 185.2 108.926 158.246 184.478 
104.983 158.989 184.631 104.724 159.356 185.058 87.0555 130.349 186.087 
86.9285 130.887 185.93 88.7861 131.461 185.843 89.1443 131.421 186.052 
89.0396 132.194 185.519 86.6272 132.988 186.02 89.7464 132.913 185.452 
90.2796 132.77 185.935 86.9849 133.915 186.058 87.7545 134.977 185.95 
89.6768 138.356 185.684 90.3626 139.398 185.511 92.3168 142.57 185.223 
98.9997 143.17 185.289 100.325 144.839 185.474 100.864 145.668 184.856 
101.598 157.161 185.624 111.265 158.381 186.135 109.103 158.999 184.655 
103.571 159.031 185.596 104.012 159.572 185.951 108.591 161.154 185.456 
109.082 162.235 186.241 85.315 126.328 187.395 85.3181 126.513 187.304 
87.3214 129.047 187.005 87.4316 129.59 186.633 88.4798 129.918 187.23 
84.1034 130.206 187.359 89.2721 131.177 186.471 86.1493 131.709 186.174 
86.666 133.861 186.388 86.5254 134.069 186.823 87.8121 135.92 186.725 
95.2935 138.171 186.254 90.4363 140.182 186.413 102.852 147.937 186.442 
112.564 159.992 186.305 113.402 160.705 186.518 113.744 160.11 187.221 
114.015 160.714 186.985 112.216 161.407 185.91 110.603 162.436 186.208 
83.5928 123.926 188.171 83.255 123.505 188.285 81.3611 123.772 188.287 
83.384 124.666 187.724 84.0514 124.089 188.424 81.5447 125.294 188.264 
84.4173 124.75 188.136 84.9111 125.207 188.193 83.2547 125.923 187.426 
86.0828 126.927 187.915 83.2901 127.459 187.407 85.6117 127.378 187.197 
86.516 127.766 187.564 87.1815 128.194 187.857 82.8092 128.188 187.978 
83.3969 128.358 187.486 89.4399 130.944 187.091 91.6681 133.616 187.084 
101.17 157.304 187.045 112.577 159.005 187.337 114.14 160.132 188.046 
105.254 161.076 187.21 116.414 163.627 187.831 117.025 164.803 188.16 
117.663 165.624 188.6 117.201 165.694 188.525 81.4896 120.695 189.184 
81.6015 120.383 189.474 79.8983 121.299 189.007 79.349 121.373 189.387 
80.4753 121.985 188.731 79.9871 122.651 189.024 79.5694 122.618 189.471 
81.9161 122.759 188.385 82.7867 129.075 188.674 86.1807 134.386 188.252 
97.6194 140.912 188.269 99.8539 155.776 187.77 107.025 162.472 188.054 
117.49 163.735 189.101 117.888 164.312 188.954 119.467 166.914 189.5 
118.902 167.152 189.378 119.58 167.533 189.532 78.7933 117.627 190.117 
78.5821 117.416 190.469 78.5026 117.722 190.253 79.502 117.463 190.08 
79.2554 117.238 190.251 79.4979 117.107 190.33 79.0594 117.995 189.848 
79.9024 117.836 190.029 78.1934 118.466 190.327 79.4237 118.503 189.633 
79.9241 118.475 189.713 80.2661 117.941 190.229 80.5717 118.262 190.311 
79.3309 119.132 189.488 78.8445 121.137 189.887 82.6425 121.484 189.621 
79.2294 122.652 190.073 80.3961 124.462 189.341 89.0493 129.64 189.209 
105.703 151.673 189.277 116.146 162.092 189.099 108.907 163.698 189.064 
119.579 166.841 189.966 118.716 167.698 190.013 120.56 168.259 189.713 
120.504 168.368 189.618 120.624 168.408 189.646 120.646 168.647 189.642 
120.735 168.637 189.639 120.924 168.984 189.635 79.54 116.881 190.533 
79.4602 116.919 190.485 79.6462 116.965 190.678 78.414 117.327 190.817 
79.2196 117.007 190.623 79.8953 117.19 190.697 77.9663 118.426 190.834 
81.5686 119.594 190.369 119.828 167.492 190.496 118.142 167.952 190.854 
120.471 168.141 189.833 119.609 168.342 190.679 120.299 168.613 190.066 
120.798 168.922 189.742 120.916 169.009 189.676 120.925 168.961 189.646 
120.945 169.017 189.652 78.2244 117.453 191.075 79.4416 116.93 190.993 
78.0217 117.871 191.173 78.4324 117.096 191.634 80.2793 117.439 191.568 
77.8135 119.565 191.281 83.0246 121.218 190.836 87.2498 127.102 190.603 
119.065 166.187 191.443 120.145 168.162 190.311 119.67 168.015 191.171 
118.739 168.646 191.907 120.412 168.583 190.054 119.329 168.512 191.901 
118.887 168.826 192.323 121.004 171.013 191.009 121.004 171.013 191.009 
121.004 171.013 191.009 121.004 171.013 191.009 120.874 168.932 189.704 
121.004 171.013 191.009 122.004 172.013 191.009 122.004 172.013 191.009 
122.004 172.013 191.009 122.004 172.013 191.009 122.004 172.013 191.009 
79.0726 116.896 192.082 79.4606 116.951 191.652 79.8982 117.14 191.995 
78.64 122.903 192.491 109.359 156.183 191.753 113.193 159.684 191.343 
119.126 168.968 192.848 121.004 171.013 191.009 122.004 172.013 191.009 
77.5049 119.771 192.765 95.9523 138.89 192.739 119.263 168.749 193.13 
119.162 169.105 193.333 118.827 169.473 193.597 79.4758 116.979 193.213 
77.2977 119.649 194.565 78.1887 122.348 193.997 118.274 169.705 194.3 
118.144 169.868 194.857 118.959 169.538 194.014 118.798 169.708 194.329 
117.404 165.9 195.495 118.95 169.435 194.531 79.6897 117.105 195.761 
81.1475 128.202 196.173 81.9085 129.487 196.072 83.5237 132.069 196.219 
85.8766 135.387 196.169 118.551 168.882 195.999 117.257 170.005 196.112 
117.774 170.047 195.804 118.539 169.854 195.903 118.215 170.031 195.764 
120 172.009 196.017 120 172.009 196.017 120 172.009 196.017 
120 172.009 196.017 120 172.009 196.017 77.5433 117.681 196.688 
77.4276 117.772 196.359 78.4216 117.338 196.816 80.4469 117.677 196.72 
117.797 170.27 197 118.307 170.179 196.437 118.258 170.276 196.848 
120 172.009 196.017 118.404 170.273 196.65 120.004 173.013 197.009 
120.004 173.013 197.009 120.004 173.013 197.009 120.004 173.013 197.009 
120.004 173.013 197.009 77.4024 117.937 196.779 77.5789 117.753 197.091 
77.762 117.718 197.505 78.2462 117.572 197.9 118.118 170.096 197.264 
117.701 170.138 198.704 118.386 170.221 196.859 118.347 170.283 196.922 
118.449 170.247 196.696 118.404 170.318 196.793 120.004 173.013 197.009 
78.9423 117.538 198.547 117.492 168.382 198.982 114.843 170.085 199.028 
117.72 169.866 199.259 116.479 170.734 199.214 117.154 170.709 199.368 
116.743 171.032 199.942 118.424 170.307 196.823 119.004 173.009 199.513 
119.004 173.009 199.513 119.004 173.009 199.513 119.004 173.009 199.513 
119.004 173.009 199.513 78.5233 117.729 199.739 115.082 170.853 200.446 
117.513 170.59 200.35 117.271 171.18 200.993 119.004 173.009 199.513 
119.004 173.009 199.513 119.004 173.009 199.513 119.004 173.009 199.513 
79.1654 117.771 200.424 77.3748 118.822 200.574 78.4861 118.044 200.847 
80.5704 118.255 200.132 77.2646 119.543 200.945 77.2508 120.312 201.419 
91.4864 145.623 200.904 114.588 170.825 200.853 117.504 170.69 201.13 
115.782 171.705 201.655 119.004 173.009 199.513 119.004 174.009 201.513 
119.004 174.009 201.513 119.004 174.009 201.513 119.004 174.009 201.513 
119.004 174.009 201.513 79.2491 117.893 200.974 77.8541 118.743 201.781 
81.5111 119.307 202.023 117.304 169.992 202.266 115.02 171.875 202.54 
116.28 172.274 202.505 116.829 172.483 202.878 119.004 174.009 201.513 
119.004 174.009 201.513 119.004 174.009 201.513 119.004 174.009 201.513 
79.5228 118.026 201.287 79.8436 118.35 201.977 77.48 119.681 202.82 
78.3682 118.829 203.159 84.0708 122.889 202.538 112.643 170.493 202.337 
116.108 172.973 203.823 116.841 173.155 203.921 119.004 174.009 201.513 
117.1 173.263 204.204 118.052 174.868 205.453 118.005 174.853 205.505 
118.07 174.892 205.456 118.046 174.883 205.51 118.027 174.894 205.557 
80.4099 118.756 202.787 77.7353 119.58 203.95 77.5525 119.65 203.733 
77.4837 119.761 203.552 77.4317 120.236 203.771 77.9526 123.434 203.388 
117.417 173.44 204.772 117.086 173.72 204.829 117.928 174.772 205.549 
117.86 174.728 205.541 117.963 174.901 205.781 79.0385 118.848 203.799 
79.9454 118.912 203.908 77.5336 119.818 203.891 77.9944 119.702 204.609 
77.5286 120.582 204.893 77.5774 122.202 204.521 115.151 173.117 204.733 
117.52 172.242 204.833 117.661 174.048 205.829 117.502 174.366 205.515 
117.812 174.677 205.853 117.534 174.802 206.129 117.788 175.091 206.502 
117.921 175.078 206.233 117.878 175.207 206.584 77.5366 120.6 205.327 
77.6915 120.519 205.461 77.5603 120.643 205.478 77.5812 121.167 205.453 
101.681 151.617 205.684 107.818 159.882 206.069 117.728 174.841 206.364 
117.66 174.567 206.714 117.355 174.874 206.655 117.798 175.162 206.808 
117.76 175.15 206.774 117.887 175.339 206.993 117.788 175.389 207.166 
78.9685 119.855 205.742 79.5872 120.114 206.186 77.747 121.53 205.99 
77.8504 121.962 206.206 117.735 174.907 207.675 117.531 175.159 207.186 
[...]
POINT_DATA 1385
COLOR_SCALARS scalars 3
0.141176 0.541176 0.368627 0.141176 0.541176 0.368627 0.141176 0.541176 0.368627 
0.141176 0.541176 0.368627 0.141176 0.541176 0.368627 
0.141176 0.541176 0.368627 0.141176 0.541176 0.368627 
0.141176 0.541176 0.368627 0.141176 0.541176 0.368627 
0.141176 0.541176 0.368627 0.141176 0.541176 0.368627 
0.141176 0.541176 0.368627 0.141176 0.541176 0.368627 
0.141176 0.541176 0.368627 0.141176 0.541176 0.368627 
0.141176 0.541176 0.368627 0.141176 0.541176 0.368627 
0.141176 0.541176 0.368627 0.141176 0.541176 0.368627 
0.141176 0.541176 0.368627 0.141176 0.541176 0.368627 
0.141176 0.541176 0.368627 0.141176 0.541176 0.368627 
0.141176 0.541176 0.368627 0.141176 0.541176 0.368627 
0.141176 0.541176 0.368627 0.141176 0.541176 0.368627 
0.141176 0.541176 0.368627 0.141176 0.541176 0.368627 
0.141176 0.541176 0.368627 0.141176 0.541176 0.368627 
0.141176 0.541176 0.368627 0.141176 0.541176 0.368627 
0.141176 0.541176 0.368627 0.141176 0.541176 0.368627 
0.141176 0.541176 0.368627 0.141176 0.541176 0.368627 
0.141176 0.541176 0.368627 0.141176 0.541176 0.368627 
0.141176 0.541176 0.368627 0.141176 0.541176 0.368627 
0.141176 0.541176 0.368627 0.141176 0.541176 0.368627 
0.141176 0.541176 0.368627 0.141176 0.541176 0.368627 
0.141176 0.541176 0.368627 0.141176 0.541176 0.368627 
0.141176 0.541176 0.368627 0.141176 0.541176 0.368627 
0.141176 0.541176 0.368627 0.141176 0.541176 0.368627 
0.141176 0.541176 0.368627 0.141176 0.541176 0.368627 
0.141176 0.541176 0.368627 0.141176 0.541176 0.368627 
0.141176 0.541176 0.368627 0.141176 0.541176 0.368627 
0.141176 0.541176 0.368627 0.141176 0.541176 0.368627 
0.141176 0.541176 0.368627 0.141176 0.541176 0.368627 
0.141176 0.541176 0.368627 0.141176 0.541176 0.368627 
0.141176 0.541176 0.368627 0.141176 0.541176 0.368627 
0.141176 0.541176 0.368627 0.141176 0.541176 0.368627 
0.141176 0.541176 0.368627 0.141176 0.541176 0.368627 
0.141176 0.541176 0.368627 0.141176 0.541176 0.368627 
0.141176 0.541176 0.368627 0.141176 0.541176 0.368627 
0.141176 0.541176 0.368627 0.141176 0.541176 0.368627 
0.141176 0.541176 0.368627 0.141176 0.541176 0.368627 
0.141176 0.541176 0.368627 0.141176 0.541176 0.368627 
0.141176 0.541176 0.368627 0.141176 0.541176 0.368627 
0.141176 0.541176 0.368627 0.141176 0.541176 0.368627 
0.141176 0.541176 0.368627 0.141176 0.541176 0.368627 
0.141176 0.541176 0.368627 0.141176 0.541176 0.368627 
0.141176 0.541176 0.368627 0.141176 0.541176 0.368627 
0.141176 0.541176 0.368627 0.141176 0.541176 0.368627 
0.141176 0.541176 0.368627 0.141176 0.541176 0.368627 
0.141176 0.541176 0.368627 0.141176 0.541176 0.368627 
0.141176 0.541176 0.368627 0.141176 0.541176 0.368627 
0.141176 0.541176 0.368627 0.141176 0.541176 0.368627 
0.141176 0.541176 0.368627 0.141176 0.541176 0.368627 
0.141176 0.541176 0.368627 0.141176 0.541176 0.368627 
0.141176 0.541176 0.368627 0.141176 0.541176 0.368627 
0.141176 0.541176 0.368627 0.141176 0.541176 0.368627 
0.141176 0.541176 0.368627 0.141176 0.541176 0.368627 
0.141176 0.541176 0.368627 0.141176 0.541176 0.368627 
0.141176 0.541176 0.368627 0.141176 0.541176 0.368627 
0.141176 0.541176 0.368627 0.141176 0.541176 0.368627 
0.141176 0.541176 0.368627 0.141176 0.541176 0.368627 
0.141176 0.541176 0.368627 0.141176 0.541176 0.368627 
0.141176 0.541176 0.368627 0.141176 0.541176 0.368627 
0.141176 0.541176 0.368627 0.141176 0.541176 0.368627 
0.141176 0.541176 0.368627 0.141176 0.541176 0.368627 
0.141176 0.541176 0.368627 0.141176 0.541176 0.368627 
0.141176 0.541176 0.368627 0.141176 0.541176 0.368627 
0.141176 0.541176 0.368627 0.141176 0.541176 0.368627 
0.141176 0.541176 0.368627 0.141176 0.541176 0.368627 
0.141176 0.541176 0.368627 0.141176 0.541176 0.368627 
0.141176 0.541176 0.368627 0.141176 0.541176 0.368627 
0.141176 0.541176 0.368627 0.141176 0.541176 0.368627 
0.141176 0.541176 0.368627 0.141176 0.541176 0.368627 
0.141176 0.541176 0.368627 0.141176 0.541176 0.368627 
0.141176 0.541176 0.368627 0.141176 0.541176 0.368627 
0.141176 0.541176 0.368627 0.141176 0.541176 0.368627 
0.141176 0.541176 0.368627 0.141176 0.541176 0.368627 
0.141176 0.541176 0.368627 0.141176 0.541176 0.368627 
0.141176 0.541176 0.368627 0.141176 0.541176 0.368627 
0.141176 0.541176 0.368627 0.141176 0.541176 0.368627 
0.141176 0.541176 0.368627 0.141176 0.541176 0.368627 
0.141176 0.541176 0.368627 0.141176 0.541176 0.368627 
0.141176 0.541176 0.368627 0.141176 0.541176 0.368627 
0.141176 0.541176 0.368627 0.141176 0.541176 0.368627 
0.141176 0.541176 0.368627 0.141176 0.541176 0.368627 
0.141176 0.541176 0.368627 0.141176 0.541176 0.368627 
0.141176 0.541176 0.368627 0.141176 0.541176 0.368627 
0.141176 0.541176 0.368627 0.141176 0.541176 0.368627 
0.141176 0.541176 0.368627 0.141176 0.541176 0.368627 
0.141176 0.541176 0.368627 0.141176 0.541176 0.368627 
0.141176 0.541176 0.368627 0.141176 0.541176 0.368627 
0.141176 0.541176 0.368627 0.141176 0.541176 0.368627 
0.141176 0.541176 0.368627 0.141176 0.541176 0.368627 
0.141176 0.541176 0.368627 0.141176 0.541176 0.368627 
0.141176 0.541176 0.368627 0.141176 0.541176 0.368627 
0.141176 0.541176 0.368627 0.141176 0.541176 0.368627 
0.141176 0.541176 0.368627 0.141176 0.541176 0.368627 
0.141176 0.541176 0.368627 0.141176 0.541176 0.368627 
0.141176 0.541176 0.368627 0.141176 0.541176 0.368627 
0.141176 0.541176 0.368627 0.141176 0.541176 0.368627 
0.141176 0.541176 0.368627 0.141176 0.541176 0.368627 
0.141176 0.541176 0.368627 0.141176 0.541176 0.368627 
0.141176 0.541176 0.368627 0.141176 0.541176 0.368627 
0.141176 0.541176 0.368627 0.141176 0.541176 0.368627 
0.141176 0.541176 0.368627 0.141176 0.541176 0.368627 
0.141176 0.541176 0.368627 0.141176 0.541176 0.368627 
0.141176 0.541176 0.368627 0.141176 0.541176 0.368627 
0.141176 0.541176 0.368627 0.141176 0.541176 0.368627 
0.141176 0.541176 0.368627 0.141176 0.541176 0.368627 
0.141176 0.541176 0.368627 0.141176 0.541176 0.368627 
0.141176 0.541176 0.368627 0.141176 0.541176 0.368627 
0.141176 0.541176 0.368627 0.141176 0.541176 0.368627 
0.141176 0.541176 0.368627 0.141176 0.541176 0.368627 
0.141176 0.541176 0.368627 0.141176 0.541176 0.368627 
0.141176 0.541176 0.368627 0.141176 0.541176 0.368627 
0.141176 0.541176 0.368627 0.141176 0.541176 0.368627 
0.141176 0.541176 0.368627 0.141176 0.541176 0.368627 
0.141176 0.541176 0.368627 0.141176 0.541176 0.368627 
0.141176 0.541176 0.368627 0.141176 0.541176 0.368627 
0.141176 0.541176 0.368627 0.141176 0.541176 0.368627 
0.141176 0.541176 0.368627 0.141176 0.541176 0.368627 
0.141176 0.541176 0.368627 0.141176 0.541176 0.368627 
0.141176 0.541176 0.368627 0.141176 0.541176 0.368627 
0.141176 0.541176 0.368627 0.141176 0.541176 0.368627 
0.141176 0.541176 0.368627 0.141176 0.541176 0.368627 
0.141176 0.541176 0.368627 0.141176 0.541176 0.368627 
0.141176 0.541176 0.368627 0.141176 0.541176 0.368627 
0.141176 0.541176 0.368627 0.141176 0.541176 0.368627 
0.141176 0.541176 0.368627 0.141176 0.541176 0.368627 
0.141176 0.541176 0.368627 0.141176 0.541176 0.368627 
0.141176 0.541176 0.368627 0.141176 0.541176 0.368627 
0.141176 0.541176 0.368627 0.141176 0.541176 0.368627 
0.141176 0.541176 0.368627 0.141176 0.541176 0.368627 
0.141176 0.541176 0.368627 0.141176 0.541176 0.368627 
0.141176 0.541176 0.368627 0.141176 0.541176 0.368627 
0.141176 0.541176 0.368627 0.141176 0.541176 0.368627 
0.141176 0.541176 0.368627 0.141176 0.541176 0.368627 
0.141176 0.541176 0.368627 0.141176 0.541176 0.368627 
0.141176 0.541176 0.368627 0.141176 0.541176 0.368627 
0.141176 0.541176 0.368627 0.141176 0.541176 0.368627 
0.141176 0.541176 0.368627 0.141176 0.541176 0.368627 
0.141176 0.541176 0.368627 0.141176 0.541176 0.368627 
0.141176 0.541176 0.368627 0.141176 0.541176 0.368627 
0.141176 0.541176 0.368627 0.141176 0.541176 0.368627 
0.141176 0.541176 0.368627 0.141176 0.541176 0.368627 
0.141176 0.541176 0.368627 0.141176 0.541176 0.368627 
0.141176 0.541176 0.368627 0.141176 0.541176 0.368627 
0.141176 0.541176 0.368627 0.141176 0.541176 0.368627 
0.141176 0.541176 0.368627 0.141176 0.541176 0.368627 
0.141176 0.541176 0.368627 0.141176 0.541176 0.368627 
0.141176 0.541176 0.368627 0.141176 0.541176 0.368627 
0.141176 0.541176 0.368627 0.141176 0.541176 0.368627 
0.141176 0.541176 0.368627 0.141176 0.541176 0.368627 
0.141176 0.541176 0.368627 0.141176 0.541176 0.368627 
0.141176 0.541176 0.368627 0.141176 0.541176 0.368627 
0.141176 0.541176 0.368627 0.141176 0.541176 0.368627 
0.141176 0.541176 0.368627 0.141176 0.541176 0.368627 
0.141176 0.541176 0.368627 0.141176 0.541176 0.368627 
0.141176 0.541176 0.368627 0.141176 0.541176 0.368627 
0.141176 0.541176 0.368627 0.141176 0.541176 0.368627 
0.141176 0.541176 0.368627 0.141176 0.541176 0.368627 
0.141176 0.541176 0.368627 0.141176 0.541176 0.368627 
0.141176 0.541176 0.368627 0.141176 0.541176 0.368627 
0.141176 0.541176 0.368627 0.141176 0.541176 0.368627 
0.141176 0.541176 0.368627 0.141176 0.541176 0.368627 
0.141176 0.541176 0.368627 0.141176 0.541176 0.368627 
0.141176 0.541176 0.368627 0.141176 0.541176 0.368627 
0.141176 0.541176 0.368627 0.141176 0.541176 0.368627 
0.141176 0.541176 0.368627 0.141176 0.541176 0.368627 
0.141176 0.541176 0.368627 0.141176 0.541176 0.368627 
0.141176 0.541176 0.368627 0.141176 0.541176 0.368627 
0.141176 0.541176 0.368627 0.141176 0.541176 0.368627 
0.141176 0.541176 0.368627 0.141176 0.541176 0.368627 
0.141176 0.541176 0.368627 0.141176 0.541176 0.368627 
0.141176 0.541176 0.368627 0.141176 0.541176 0.368627 
0.141176 0.541176 0.368627 0.141176 0.541176 0.368627 
0.141176 0.541176 0.368627 0.141176 0.541176 0.368627 
0.141176 0.541176 0.368627 0.141176 0.541176 0.368627 
0.141176 0.541176 0.368627 0.141176 0.541176 0.368627 
0.141176 0.541176 0.368627 0.141176 0.541176 0.368627 
0.141176 0.541176 0.368627 0.141176 0.541176 0.368627 
0.141176 0.541176 0.368627 0.141176 0.541176 0.368627 
0.141176 0.541176 0.368627 0.141176 0.541176 0.368627 
0.141176 0.541176 0.368627 0.141176 0.541176 0.368627 
0.141176 0.541176 0.368627 0.141176 0.541176 0.368627 
0.141176 0.541176 0.368627 0.141176 0.541176 0.368627 
0.141176 0.541176 0.368627 0.141176 0.541176 0.368627 
0.141176 0.541176 0.368627 0.141176 0.541176 0.368627 
0.141176 0.541176 0.368627 0.141176 0.541176 0.368627 
0.141176 0.541176 0.368627 0.141176 0.541176 0.368627 
0.141176 0.541176 0.368627 0.141176 0.541176 0.368627 
0.141176 0.541176 0.368627 0.141176 0.541176 0.368627 
0.141176 0.541176 0.368627 0.141176 0.541176 0.368627 
0.141176 0.541176 0.368627 0.141176 0.541176 0.368627 
0.141176 0.541176 0.368627 0.141176 0.541176 0.368627 
0.141176 0.541176 0.368627 0.141176 0.541176 0.368627 
0.141176 0.541176 0.368627 0.141176 0.541176 0.368627 
0.141176 0.541176 0.368627 0.141176 0.541176 0.368627 
0.141176 0.541176 0.368627 0.141176 0.541176 0.368627 
0.141176 0.541176 0.368627 0.141176 0.541176 0.368627 
0.141176 0.541176 0.368627 0.141176 0.541176 0.368627 
0.141176 0.541176 0.368627 0.141176 0.541176 0.368627 
0.141176 0.541176 0.368627 0.141176 0.541176 0.368627 
0.141176 0.541176 0.368627 0.141176 0.541176 0.368627 
0.141176 0.541176 0.368627 0.141176 0.541176 0.368627 
0.141176 0.541176 0.368627 0.141176 0.541176 0.368627 
0.141176 0.541176 0.368627 0.141176 0.541176 0.368627 
0.141176 0.541176 0.368627 0.141176 0.541176 0.368627 
0.141176 0.541176 0.368627 0.141176 0.541176 0.368627 
0.141176 0.541176 0.368627 0.141176 0.541176 0.368627 
0.141176 0.541176 0.368627 0.141176 0.541176 0.368627 
0.141176 0.541176 0.368627 0.141176 0.541176 0.368627 
0.141176 0.541176 0.368627 0.141176 0.541176 0.368627 
0.141176 0.541176 0.368627 0.141176 0.541176 0.368627 
0.141176 0.541176 0.368627 0.141176 0.541176 0.368627 
0.141176 0.541176 0.368627 0.141176 0.541176 0.368627 
0.141176 0.541176 0.368627 0.141176 0.541176 0.368627 
0.141176 0.541176 0.368627 0.141176 0.541176 0.368627 
0.141176 0.541176 0.368627 0.141176 0.541176 0.368627 
0.141176 0.541176 0.368627 0.141176 0.541176 0.368627 
0.141176 0.541176 0.368627 0.141176 0.541176 0.368627 
0.141176 0.541176 0.368627 0.141176 0.541176 0.368627 
0.141176 0.541176 0.368627 0.141176 0.541176 0.368627 
0.141176 0.541176 0.368627 0.141176 0.541176 0.368627 
0.141176 0.541176 0.368627 0.141176 0.541176 0.368627 
0.141176 0.541176 0.368627 0.141176 0.541176 0.368627 
0.141176 0.541176 0.368627 0.141176 0.541176 0.368627 
0.141176 0.541176 0.368627 0.141176 0.541176 0.368627 
0.141176 0.541176 0.368627 0.141176 0.541176 0.368627 
0.141176 0.541176 0.368627 0.141176 0.541176 0.368627 
0.141176 0.541176 0.368627 0.141176 0.541176 0.368627 
0.141176 0.541176 0.368627 0.141176 0.541176 0.368627 
0.141176 0.541176 0.368627 0.141176 0.541176 0.368627 
0.141176 0.541176 0.368627 0.141176 0.541176 0.368627 
0.141176 0.541176 0.368627 0.141176 0.541176 0.368627 
0.141176 0.541176 0.368627 0.141176 0.541176 0.368627 
0.141176 0.541176 0.368627 0.141176 0.541176 0.368627 
0.141176 0.541176 0.368627 0.141176 0.541176 0.368627 
0.141176 0.541176 0.368627 0.141176 0.541176 0.368627 
0.141176 0.541176 0.368627 0.141176 0.541176 0.368627 
0.141176 0.541176 0.368627 0.141176 0.541176 0.368627 
0.141176 0.541176 0.368627 0.141176 0.541176 0.368627 
0.141176 0.541176 0.368627 0.141176 0.541176 0.368627 
0.141176 0.541176 0.368627 0.141176 0.541176 0.368627 
0.141176 0.541176 0.368627 0.141176 0.541176 0.368627 
0.141176 0.541176 0.368627 0.141176 0.541176 0.368627 
0.141176 0.541176 0.368627 0.141176 0.541176 0.368627 
0.141176 0.541176 0.368627 0.141176 0.541176 0.368627 
0.141176 0.541176 0.368627 0.141176 0.541176 0.368627 
0.141176 0.541176 0.368627 0.141176 0.541176 0.368627 
0.141176 0.541176 0.368627 0.141176 0.541176 0.368627 
0.141176 0.541176 0.368627 0.141176 0.541176 0.368627 
0.141176 0.541176 0.368627 0.141176 0.541176 0.368627 
0.141176 0.541176 0.368627 0.141176 0.541176 0.368627 
0.141176 0.541176 0.368627 0.141176 0.541176 0.368627 
0.141176 0.541176 0.368627 0.141176 0.541176 0.368627 
0.141176 0.541176 0.368627 0.141176 0.541176 0.368627 
0.141176 0.541176 0.368627 0.141176 0.541176 0.368627 
0.141176 0.541176 0.368627 0.141176 0.541176 0.368627 
0.141176 0.541176 0.368627 0.141176 0.541176 0.368627 
0.141176 0.541176 0.368627 0.141176 0.541176 0.368627 
0.141176 0.541176 0.368627 0.141176 0.541176 0.368627 
0.141176 0.541176 0.368627 0.141176 0.541176 0.368627 
0.141176 0.541176 0.368627 0.141176 0.541176 0.368627 
0.141176 0.541176 0.368627 0.141176 0.541176 0.368627 
0.141176 0.541176 0.368627 0.141176 0.541176 0.368627 
0.141176 0.541176 0.368627 0.141176 0.541176 0.368627 
0.141176 0.541176 0.368627 0.141176 0.541176 0.368627 
0.141176 0.541176 0.368627 0.141176 0.541176 0.368627 
0.141176 0.541176 0.368627 0.141176 0.541176 0.368627 
0.141176 0.541176 0.368627 0.141176 0.541176 0.368627 
0.141176 0.541176 0.368627 0.141176 0.541176 0.368627 
0.141176 0.541176 0.368627 0.141176 0.541176 0.368627 
0.141176 0.541176 0.368627 0.141176 0.541176 0.368627 
0.141176 0.541176 0.368627 0.141176 0.541176 0.368627 
0.141176 0.541176 0.368627 0.141176 0.541176 0.368627 
0.141176 0.541176 0.368627 0.141176 0.541176 0.368627 
0.141176 0.541176 0.368627 0.141176 0.541176 0.368627 
0.141176 0.541176 0.368627 0.141176 0.541176 0.368627 
0.141176 0.541176 0.368627 0.141176 0.541176 0.368627 
0.141176 0.541176 0.368627 0.141176 0.541176 0.368627 
0.141176 0.541176 0.368627 0.141176 0.541176 0.368627 
0.141176 0.541176 0.368627 0.141176 0.541176 0.368627 
0.141176 0.541176 0.368627 0.141176 0.541176 0.368627 
0.141176 0.541176 0.368627 0.141176 0.541176 0.368627 
0.141176 0.541176 0.368627 0.141176 0.541176 0.368627 
0.141176 0.541176 0.368627 0.141176 0.541176 0.368627 
0.141176 0.541176 0.368627 0.141176 0.541176 0.368627 
0.141176 0.541176 0.368627 0.141176 0.541176 0.368627 
0.141176 0.541176 0.368627 0.141176 0.541176 0.368627 
0.141176 0.541176 0.368627 0.141176 0.541176 0.368627 
0.141176 0.541176 0.368627 0.141176 0.541176 0.368627 
0.141176 0.541176 0.368627 0.141176 0.541176 0.368627 
0.141176 0.541176 0.368627 0.141176 0.541176 0.368627 
0.141176 0.541176 0.368627 0.141176 0.541176 0.368627 
0.141176 0.541176 0.368627 0.141176 0.541176 0.368627 
0.141176 0.541176 0.368627 0.141176 0.541176 0.368627 
0.141176 0.541176 0.368627 0.141176 0.541176 0.368627 
0.141176 0.541176 0.368627 0.141176 0.541176 0.368627 
0.141176 0.541176 0.368627 0.141176 0.541176 0.368627 
0.141176 0.541176 0.368627 0.141176 0.541176 0.368627 
0.141176 0.541176 0.368627 0.141176 0.541176 0.368627 
0.141176 0.541176 0.368627 0.141176 0.541176 0.368627 
0.141176 0.541176 0.368627 0.141176 0.541176 0.368627 
0.141176 0.541176 0.368627 0.141176 0.541176 0.368627 
0.141176 0.541176 0.368627 0.141176 0.541176 0.368627 
0.141176 0.541176 0.368627 0.141176 0.541176 0.368627 
0.141176 0.541176 0.368627 0.141176 0.541176 0.368627 
0.141176 0.541176 0.368627 0.141176 0.541176 0.368627 
0.141176 0.541176 0.368627 0.141176 0.541176 0.368627 
0.141176 0.541176 0.368627 0.141176 0.541176 0.368627 
0.141176 0.541176 0.368627 0.141176 0.541176 0.368627 
0.141176 0.541176 0.368627 0.141176 0.541176 0.368627 
0.141176 0.541176 0.368627 0.141176 0.541176 0.368627 
0.141176 0.541176 0.368627 0.141176 0.541176 0.368627 
0.141176 0.541176 0.368627 0.141176 0.541176 0.368627 
0.141176 0.541176 0.368627 0.141176 0.541176 0.368627 
0.141176 0.541176 0.368627 0.141176 0.541176 0.368627 
0.141176 0.541176 0.368627 0.141176 0.541176 0.368627 
0.141176 0.541176 0.368627 0.141176 0.541176 0.368627 
0.141176 0.541176 0.368627 0.141176 0.541176 0.368627 
0.141176 0.541176 0.368627 0.141176 0.541176 0.368627 
0.141176 0.541176 0.368627 0.141176 0.541176 0.368627 
0.141176 0.541176 0.368627 0.141176 0.541176 0.368627 
0.141176 0.541176 0.368627 0.141176 0.541176 0.368627 
0.141176 0.541176 0.368627 0.141176 0.541176 0.368627 
0.141176 0.541176 0.368627 0.141176 0.541176 0.368627 
0.141176 0.541176 0.368627 0.141176 0.541176 0.368627 
0.141176 0.541176 0.368627 0.141176 0.541176 0.368627 
0.141176 0.541176 0.368627 0.141176 0.541176 0.368627 
0.141176 0.541176 0.368627 0.141176 0.541176 0.368627 
0.141176 0.541176 0.368627 0.141176 0.541176 0.368627 
0.141176 0.541176 0.368627 0.141176 0.541176 0.368627 
0.141176 0.541176 0.368627 0.141176 0.541176 0.368627 
0.141176 0.541176 0.368627 0.141176 0.541176 0.368627 
0.141176 0.541176 0.368627 0.141176 0.541176 0.368627 
0.141176 0.541176 0.368627 0.141176 0.541176 0.368627 
0.141176 0.541176 0.368627 0.141176 0.541176 0.368627 
0.141176 0.541176 0.368627 0.141176 0.541176 0.368627 
0.141176 0.541176 0.368627 0.141176 0.541176 0.368627 
0.141176 0.541176 0.368627 0.141176 0.541176 0.368627 
0.141176 0.541176 0.368627 0.141176 0.541176 0.368627 
0.141176 0.541176 0.368627 0.141176 0.541176 0.368627 
0.141176 0.541176 0.368627 0.141176 0.541176 0.368627 
0.141176 0.541176 0.368627 0.141176 0.541176 0.368627 
0.141176 0.541176 0.368627 0.141176 0.541176 0.368627 
0.141176 0.541176 0.368627 0.141176 0.541176 0.368627 
0.141176 0.541176 0.368627 0.141176 0.541176 0.368627 
0.141176 0.541176 0.368627 0.141176 0.541176 0.368627 
0.141176 0.541176 0.368627 0.141176 0.541176 0.368627 
0.141176 0.541176 0.368627 0.141176 0.541176 0.368627 
0.141176 0.541176 0.368627 0.141176 0.541176 0.368627 
0.141176 0.541176 0.368627 0.141176 0.541176 0.368627 
0.141176 0.541176 0.368627 0.141176 0.541176 0.368627 
0.141176 0.541176 0.368627 0.141176 0.541176 0.368627 
0.141176 0.541176 0.368627 0.141176 0.541176 0.368627 
0.141176 0.541176 0.368627 0.141176 0.541176 0.368627 
0.141176 0.541176 0.368627 0.141176 0.541176 0.368627 
0.141176 0.541176 0.368627 0.141176 0.541176 0.368627 
0.141176 0.541176 0.368627 0.141176 0.541176 0.368627 
0.141176 0.541176 0.368627 0.141176 0.541176 0.368627 
0.141176 0.541176 0.368627 0.141176 0.541176 0.368627 
0.141176 0.541176 0.368627 0.141176 0.541176 0.368627 
0.141176 0.541176 0.368627 0.141176 0.541176 0.368627 
0.141176 0.541176 0.368627 0.141176 0.541176 0.368627 