# vtk DataFile Version 4.2
vtk output
ASCII
DATASET POLYDATA
POINTS 1569 float
131.934 130.445 178.579 133.063 130.252 179.269 130.931 131.986 178.211 
129.021 133.572 177.994 133.115 133.771 179.099 130.786 136.005 178.206 
133.126 135.878 179.033 133.056 136.501 179.008 130.589 124.921 179.487 
132.311 125.074 180.024 133.769 126.002 180.004 133.551 125.726 180.096 
133.812 125.842 180.236 124.933 125.876 178.918 131.928 126.275 179.247 
133.238 126.261 179.682 133.979 126.067 180.124 133.93 126.327 180.022 
134.088 126.195 180.183 130.933 127.092 178.798 133.972 126.67 180.128 
134.102 126.403 180.252 133.364 129.329 179.691 134.091 135.128 179.967 
119.899 138.718 178.783 129.606 138.549 178.568 134.68 138.31 180.172 
134.465 138.791 180.006 123.367 139.572 178.774 132.222 140.068 179.198 
133.79 139.605 179.662 128.291 122.99 180.188 131.156 123.588 180.837 
131.576 123.747 181.034 131.521 124.397 180.18 134.029 126.03 180.315 
134.13 126.208 180.332 134.065 126.732 180.497 134.11 126.342 180.497 
133.961 130.774 180.458 134.181 132.66 180.458 115.355 136.011 179.043 
128.383 143.166 179.924 124.642 120.102 181.875 121.023 120.111 181.369 
126.158 120.578 182.123 126.753 121.002 181.809 128.057 121.699 181.53 
128.582 121.868 181.733 130.509 122.987 181.443 134.052 126.126 180.529 
133.938 126.292 180.973 134.109 130.129 181.158 104.426 135.87 180.718 
135.345 138.146 181.055 135.246 141.906 181.141 135.949 142.15 181.775 
133.623 142.829 180.525 135.6 143.417 181.672 102.916 145.96 181.142 
120.681 118.558 182.856 116.792 118.919 182.179 114.743 119.719 181.892 
127.318 121.133 182.09 128.547 121.735 182.199 130.997 123.24 181.797 
132.864 124.914 181.71 107.435 126.134 181.398 133.544 125.868 181.814 
134.081 129.43 181.932 135.274 135.737 181.716 135.413 136.233 181.788 
136.501 140.583 182.908 98.2231 142.429 181.63 136.739 142.209 182.817 
136.688 144.169 182.695 98.3303 145.02 181.817 98.5507 146.428 181.991 
114.808 116.684 184.206 113.462 117.556 183.19 122.693 118.944 183.328 
127.526 121.152 182.651 130.532 123.024 182.511 132.093 124.386 182.563 
133.03 125.327 182.182 133.767 126.924 182.002 134.084 129.917 182.903 
134.441 131.059 183.02 134.668 132.052 182.397 134.775 132.404 182.902 
93.0396 137.597 183.1 92.6304 142.008 184.245 93.7834 142.021 183.295 
95.3972 142.839 182.605 137.353 143.502 183.574 95.6182 146.667 183.862 
136.856 146.729 183.407 101.033 149.856 182.074 101.075 150.866 182.35 
99.6757 153.294 184.228 104.485 154.46 182.611 108.359 155.339 182.864 
102.816 156.047 183.568 102.385 156.796 184.215 102.876 156.761 183.932 
113.155 115.972 185.015 110.88 116.352 184.344 112.83 116.61 184.04 
114.008 116.198 184.877 126.631 120.681 183.642 128.74 122.094 183.475 
130.945 123.515 182.937 132.269 125.517 183.507 133.18 127.953 183.82 
134.229 131.263 184.153 135.243 134.316 184.144 92.9353 134.948 183.183 
135.533 135.373 183.388 89.1814 135.423 184.707 90.2858 135.736 184.144 
89.9599 137.233 184.657 91.2681 138.588 184.135 137.699 144.024 184.224 
94.3647 145.535 184.571 138.337 146.337 184.815 138.065 147.228 184.44 
137.962 147.864 184.416 137.344 148.871 184.201 101.744 156.882 184.968 
107.723 158.492 183.914 103.775 158.802 185.085 106.649 159.226 184.355 
107.769 115.857 185.329 108.4 115.446 185.882 112.618 115.606 185.849 
103.616 116.63 185.077 109.07 116.377 184.604 102.627 117.272 184.883 
124.904 119.784 184.284 131.603 126.838 185.184 92.896 128.471 183.933 
87.0278 130.479 185.251 133.147 129.535 184.959 86.6436 132.908 185.852 
91.5339 133.073 183.635 87.7006 133.551 185.229 90.5564 133.632 183.914 
86.995 133.865 185.944 88.138 135.635 185.908 89.4588 136.767 184.963 
95.2389 147.484 185.321 138.253 150.715 185.062 133.666 151.882 184.471 
139.525 151.305 185.873 101.599 157.16 185.62 102.974 158.69 185.867 
105.16 160.46 186.139 106.455 161.05 185.949 108.176 161.847 186.06 
144.54 163.857 186.219 144.683 164.059 186.195 143.293 165.197 185.653 
144.004 165.329 185.667 142.445 166.333 185.513 142.4 167.122 185.413 
143.311 167.415 185.51 144.235 167.324 186.037 144.426 166.961 186.003 
140.437 170.155 185.356 142.22 169.084 185.504 141.398 170.248 185.515 
142.128 169.777 185.698 142.678 169.603 186.031 138.031 173.631 185.724 
138.677 173.335 185.728 137.844 174.295 185.904 137.227 174.589 185.988 
139.832 173.576 186.374 137.146 175.186 186.257 138.946 174.521 186.422 
137.23 175.616 186.578 138.127 175.253 186.532 138.603 175.033 186.635 
137.715 175.641 186.746 103.449 115.189 186.328 104.112 114.76 186.869 
105.106 114.958 186.485 105.156 115.381 185.996 99.9987 115.911 186.178 
102.341 116.141 185.601 113.206 115.614 186.357 117.556 116.789 185.891 
123.54 119.324 185.174 124.234 119.741 185.304 125.416 120.506 185.322 
126.258 121.421 185.708 131.76 128.152 185.797 84.1505 129.674 186.965 
84.7529 131.168 187.038 86.1685 131.561 185.894 134.111 133.004 186.018 
86.6705 133.826 186.308 89.4199 138.411 186.304 138.065 143.803 185.572 
139.567 148.137 186.378 139.942 148.966 186.7 140.273 150.349 186.492 
140.558 150.561 186.725 140.626 150.716 186.749 140.383 151.119 186.611 
138.422 152.777 185.638 99.2856 154.206 186.06 100.132 155.686 186.53 
106.176 161.273 186.472 110.683 162.403 186.078 112.042 162.485 186.025 
112.847 162.402 185.973 144.071 163.413 186.412 144.689 163.804 186.372 
142.498 164.564 186.009 144.95 164.198 186.714 110.747 163.349 187.09 
113.757 163.476 186.754 144.575 166.919 186.249 144.754 166.661 186.496 
144.42 167.395 186.768 143.246 169.292 186.56 142.591 170.396 186.967 
137.171 172.798 185.75 135.472 173.959 186.22 140.533 173.338 186.974 
134.536 175.713 186.763 135.865 175.21 186.36 139.628 174.449 187.066 
134.535 176.278 187.056 135.659 175.766 186.607 135.07 176.443 187.08 
136.331 176.311 187.064 135.939 176.623 187.308 99.6331 114.424 187.942 
95.3707 115.182 187.522 94.8874 115.584 187.271 99.3344 115.183 186.938 
107.255 114.634 187.678 93.2329 116.01 187.266 89.3071 117.827 187.008 
124.402 121.037 187.072 126.578 123.247 187.078 82.0837 123.382 187.47 
81.964 126.335 188.004 85.5589 133.163 187.632 86.3425 134.242 187.451 
135.177 136.106 186.88 88.743 137.961 187.605 136.326 138.549 186.855 
140.815 151.085 187.41 140.456 152.207 186.848 141.291 152.064 187.974 
141.591 154.548 188.035 138.375 155.762 186.419 141.39 155.852 187.728 
139.918 156.588 187.042 144.412 162.736 187.168 144.447 162.572 187.438 
105.256 161.075 187.206 144.154 163.132 186.657 144.917 163.706 187.17 
110.453 163.698 187.785 112.885 163.97 187.347 114.286 164.628 187.85 
145.091 165.05 187.112 144.967 165.821 187.367 142.98 169.844 187.193 
142.128 171.162 187.79 141.247 172.496 187.484 132.52 174.426 187.157 
131.664 174.946 187.517 139.995 174.193 187.457 138.896 175.379 187.624 
137.675 176.182 187.722 132.822 177.276 188.452 135.349 177.109 187.954 
96.2232 114.196 188.491 98.4122 114.127 188.685 92.4793 115.311 187.989 
108.717 114.741 187.974 113.495 115.66 187.627 86.1267 116.88 188.101 
83.6747 118.404 187.862 79.5665 120.597 188.959 79.6216 122.054 189.112 
81.0298 125.011 188.651 81.6344 126.427 188.51 128.617 127.626 188.137 
132.822 133.537 188.007 135.478 137.538 187.749 94.3799 147.225 188.22 
140.493 149.49 187.882 141.221 151.603 188.129 142.148 155.401 188.88 
142.041 156.102 188.541 141.173 156.969 187.675 101.481 157.975 188.236 
125.63 159.339 186.969 138.837 158.818 187.209 140.933 159.294 187.675 
143.096 161.463 187.752 141.272 161.794 187.336 140.251 162.433 187.242 
145.102 164.968 187.513 144.967 165.186 187.84 119.635 167.6 189.141 
143.685 168.354 188.128 129.976 175.701 188.557 130.082 176.947 189.17 
130.395 177.248 189.3 136.397 176.942 188.124 131.913 177.728 189.348 
87.2024 115.06 189.484 86.4932 114.978 189.798 90.706 114.709 189.083 
90.7784 114.342 189.793 92.5274 114.125 189.835 97.4211 113.865 189.514 
101.893 113.968 189.04 80.8427 116.261 190.089 83.3813 115.93 189.558 
81.3507 116.874 189.255 83.7613 116.377 189.003 85.5187 116.038 188.861 
114.29 116.176 188.95 78.9438 117.78 189.831 80.9519 117.392 189.042 
78.7038 118.321 189.813 79.6577 118.886 189.029 81.0147 118.532 188.498 
78.3234 119.289 190.107 80.4123 124.433 189.241 81.549 127.219 189.443 
134.617 137.746 189.025 136.596 141.011 188.873 138.844 145.317 188.225 
141.809 153.101 189.429 141.994 153.765 189.759 142.306 155.358 189.415 
142.734 157.587 189.59 142.323 158.684 188.477 143.057 160.563 188.37 
143.525 160.516 189.168 143.82 161.535 188.34 144.829 163.409 188.128 
144.714 164.104 188.803 113.355 164.954 188.632 115.241 166.047 189.473 
133.672 166.149 188.013 122.303 167.054 188.508 123.982 166.727 188.537 
121.397 168.022 188.936 120.743 169.973 190.333 122.641 170.957 189.932 
141.771 171.302 189.346 127.433 173.668 189.308 127.458 175.088 189.766 
127.676 175.551 189.906 129.955 177.191 189.531 136.752 177.077 189.233 
134.928 177.629 189.239 87.6695 114.329 190.756 81.8959 115.455 190.969 
83.7055 115.122 190.816 108.459 114.641 189.496 78.6713 116.966 190.955 
116.717 117.457 189.338 78.6216 121.3 190.323 81.3536 127.322 190.269 
139.268 146.449 188.792 141.117 151.082 190.047 141.397 151.699 189.558 
142.547 156.176 190.153 143.979 161.501 189.061 144.181 162.01 189.286 
144.529 164.057 189.24 126.226 165.904 188.665 127.487 166.745 188.928 
130.029 168.07 188.789 121.367 170.871 190.551 123.534 172.674 190.599 
125.381 174.353 190.646 137.501 176.695 190.008 136.233 177.336 189.532 
130.521 177.949 190.462 86.7277 114.301 191.179 88.305 114.077 191.471 
92.2085 113.768 191.356 80.9406 115.517 191.467 81.5958 115.298 191.674 
78.4056 117.158 191.209 78.986 116.45 191.697 78.1383 117.669 191.251 
78.681 116.631 191.945 113.526 116.498 190.481 115.902 117.674 190.343 
137.292 144.848 191.153 139.272 147.476 190.398 141.544 152.521 190.527 
142.6 156.463 190.769 143.269 165.023 190.95 127.345 176.881 191.529 
131.153 178.45 191.424 81.4774 115.21 192.292 78.6421 122.899 192.482 
[...]
POINT_DATA 1569
COLOR_SCALARS scalars 3
0.141176 0.541176 0.368627 0.141176 0.541176 0.368627 0.141176 0.541176 0.368627 
0.141176 0.541176 0.368627 0.141176 0.541176 0.368627 
0.141176 0.541176 0.368627 0.141176 0.541176 0.368627 
0.141176 0.541176 0.368627 0.141176 0.541176 0.368627 
0.141176 0.541176 0.368627 0.141176 0.541176 0.368627 
0.141176 0.541176 0.368627 0.141176 0.541176 0.368627 
0.141176 0.541176 0.368627 0.141176 0.541176 0.368627 
0.141176 0.541176 0.368627 0.141176 0.541176 0.368627 
0.141176 0.541176 0.368627 0.141176 0.541176 0.368627 
0.141176 0.541176 0.368627 0.141176 0.541176 0.368627 
0.141176 0.541176 0.368627 0.141176 0.541176 0.368627 
0.141176 0.541176 0.368627 0.141176 0.541176 0.368627 
0.141176 0.541176 0.368627 0.141176 0.541176 0.368627 
0.141176 0.541176 0.368627 0.141176 0.541176 0.368627 
0.141176 0.541176 0.368627 0.141176 0.541176 0.368627 
0.141176 0.541176 0.368627 0.141176 0.541176 0.368627 
0.141176 0.541176 0.368627 0.141176 0.541176 0.368627 
0.141176 0.541176 0.368627 0.141176 0.541176 0.368627 
0.141176 0.541176 0.368627 0.141176 0.541176 0.368627 
0.141176 0.541176 0.368627 0.141176 0.541176 0.368627 
0.141176 0.541176 0.368627 0.141176 0.541176 0.368627 
0.141176 0.541176 0.368627 0.141176 0.541176 0.368627 
0.141176 0.541176 0.368627 0.141176 0.541176 0.368627 
0.141176 0.541176 0.368627 0.141176 0.541176 0.368627 
0.141176 0.541176 0.368627 0.141176 0.541176 0.368627 
0.141176 0.541176 0.368627 0.141176 0.541176 0.368627 
0.141176 0.541176 0.368627 0.141176 0.541176 0.368627 
0.141176 0.541176 0.368627 0.141176 0.541176 0.368627 
0.141176 0.541176 0.368627 0.141176 0.541176 0.368627 
0.141176 0.541176 0.368627 0.141176 0.541176 0.368627 
0.141176 0.541176 0.368627 0.141176 0.541176 0.368627 
0.141176 0.541176 0.368627 0.141176 0.541176 0.368627 
0.141176 0.541176 0.368627 0.141176 0.541176 0.368627 
0.141176 0.541176 0.368627 0.141176 0.541176 0.368627 
0.141176 0.541176 0.368627 0.141176 0.541176 0.368627 
0.141176 0.541176 0.368627 0.141176 0.541176 0.368627 
0.141176 0.541176 0.368627 0.141176 0.541176 0.368627 
0.141176 0.541176 0.368627 0.141176 0.541176 0.368627 
0.141176 0.541176 0.368627 0.141176 0.541176 0.368627 
0.141176 0.541176 0.368627 0.141176 0.541176 0.368627 
0.141176 0.541176 0.368627 0.141176 0.541176 0.368627 
0.141176 0.541176 0.368627 0.141176 0.541176 0.368627 
0.141176 0.541176 0.368627 0.141176 0.541176 0.368627 
0.141176 0.541176 0.368627 0.141176 0.541176 0.368627 
0.141176 0.541176 0.368627 0.141176 0.541176 0.368627 
0.141176 0.541176 0.368627 0.141176 0.541176 0.368627 
0.141176 0.541176 0.368627 0.141176 0.541176 0.368627 
0.141176 0.541176 0.368627 0.141176 0.541176 0.368627 
0.141176 0.541176 0.368627 0.141176 0.541176 0.368627 
0.141176 0.541176 0.368627 0.141176 0.541176 0.368627 
0.141176 0.541176 0.368627 0.141176 0.541176 0.368627 
0.141176 0.541176 0.368627 0.141176 0.541176 0.368627 
0.141176 0.541176 0.368627 0.141176 0.541176 0.368627 
0.141176 0.541176 0.368627 0.141176 0.541176 0.368627 
0.141176 0.541176 0.368627 0.141176 0.541176 0.368627 
0.141176 0.541176 0.368627 0.141176 0.541176 0.368627 
0.141176 0.541176 0.368627 0.141176 0.541176 0.368627 
0.141176 0.541176 0.368627 0.141176 0.541176 0.368627 
0.141176 0.541176 0.368627 0.141176 0.541176 0.368627 
0.141176 0.541176 0.368627 0.141176 0.541176 0.368627 
0.141176 0.541176 0.368627 0.141176 0.541176 0.368627 
0.141176 0.541176 0.368627 0.141176 0.541176 0.368627 
0.141176 0.541176 0.368627 0.141176 0.541176 0.368627 
0.141176 0.541176 0.368627 0.141176 0.541176 0.368627 
0.141176 0.541176 0.368627 0.141176 0.541176 0.368627 
0.141176 0.541176 0.368627 0.141176 0.541176 0.368627 
0.141176 0.541176 0.368627 0.141176 0.541176 0.368627 
0.141176 0.541176 0.368627 0.141176 0.541176 0.368627 
0.141176 0.541176 0.368627 0.141176 0.541176 0.368627 
0.141176 0.541176 0.368627 0.141176 0.541176 0.368627 
0.141176 0.541176 0.368627 0.141176 0.541176 0.368627 
0.141176 0.541176 0.368627 0.141176 0.541176 0.368627 
0.141176 0.541176 0.368627 0.141176 0.541176 0.368627 
0.141176 0.541176 0.368627 0.141176 0.541176 0.368627 
0.141176 0.541176 0.368627 0.141176 0.541176 0.368627 
0.141176 0.541176 0.368627 0.141176 0.541176 0.368627 
0.141176 0.541176 0.368627 0.141176 0.541176 0.368627 
0.141176 0.541176 0.368627 0.141176 0.541176 0.368627 
0.141176 0.541176 0.368627 0.141176 0.541176 0.368627 
0.141176 0.541176 0.368627 0.141176 0.541176 0.368627 
0.141176 0.541176 0.368627 0.141176 0.541176 0.368627 
0.141176 0.541176 0.368627 0.141176 0.541176 0.368627 
0.141176 0.541176 0.368627 0.141176 0.541176 0.368627 
0.141176 0.541176 0.368627 0.141176 0.541176 0.368627 
0.141176 0.541176 0.368627 0.141176 0.541176 0.368627 
0.141176 0.541176 0.368627 0.141176 0.541176 0.368627 
0.141176 0.541176 0.368627 0.141176 0.541176 0.368627 
0.141176 0.541176 0.368627 0.141176 0.541176 0.368627 
0.141176 0.541176 0.368627 0.141176 0.541176 0.368627 
0.141176 0.541176 0.368627 0.141176 0.541176 0.368627 
0.141176 0.541176 0.368627 0.141176 0.541176 0.368627 
0.141176 0.541176 0.368627 0.141176 0.541176 0.368627 
0.141176 0.541176 0.368627 0.141176 0.541176 0.368627 
0.141176 0.541176 0.368627 0.141176 0.541176 0.368627 
0.141176 0.541176 0.368627 0.141176 0.541176 0.368627 
0.141176 0.541176 0.368627 0.141176 0.541176 0.368627 
0.141176 0.541176 0.368627 0.141176 0.541176 0.368627 
0.141176 0.541176 0.368627 0.141176 0.541176 0.368627 
0.141176 0.541176 0.368627 0.141176 0.541176 0.368627 
0.141176 0.541176 0.368627 0.141176 0.541176 0.368627 
0.141176 0.541176 0.368627 0.141176 0.541176 0.368627 
0.141176 0.541176 0.368627 0.141176 0.541176 0.368627 
0.141176 0.541176 0.368627 0.141176 0.541176 0.368627 
0.141176 0.541176 0.368627 0.141176 0.541176 0.368627 
0.141176 0.541176 0.368627 0.141176 0.541176 0.368627 
0.141176 0.541176 0.368627 0.141176 0.541176 0.368627 
0.141176 0.541176 0.368627 0.141176 0.541176 0.368627 
0.141176 0.541176 0.368627 0.141176 0.541176 0.368627 
0.141176 0.541176 0.368627 0.141176 0.541176 0.368627 
0.141176 0.541176 0.368627 0.141176 0.541176 0.368627 
0.141176 0.541176 0.368627 0.141176 0.541176 0.368627 
0.141176 0.541176 0.368627 0.141176 0.541176 0.368627 
0.141176 0.541176 0.368627 0.141176 0.541176 0.368627 
0.141176 0.541176 0.368627 0.141176 0.541176 0.368627 
0.141176 0.541176 0.368627 0.141176 0.541176 0.368627 
0.141176 0.541176 0.368627 0.141176 0.541176 0.368627 
0.141176 0.541176 0.368627 0.141176 0.541176 0.368627 
0.141176 0.541176 0.368627 0.141176 0.541176 0.368627 
0.141176 0.541176 0.368627 0.141176 0.541176 0.368627 
0.141176 0.541176 0.368627 0.141176 0.541176 0.368627 
0.141176 0.541176 0.368627 0.141176 0.541176 0.368627 
0.141176 0.541176 0.368627 0.141176 0.541176 0.368627 
0.141176 0.541176 0.368627 0.141176 0.541176 0.368627 
0.141176 0.541176 0.368627 0.141176 0.541176 0.368627 
0.141176 0.541176 0.368627 0.141176 0.541176 0.368627 
0.141176 0.541176 0.368627 0.141176 0.541176 0.368627 
0.141176 0.541176 0.368627 0.141176 0.541176 0.368627 
0.141176 0.541176 0.368627 0.141176 0.541176 0.368627 
0.141176 0.541176 0.368627 0.141176 0.541176 0.368627 
0.141176 0.541176 0.368627 0.141176 0.541176 0.368627 
0.141176 0.541176 0.368627 0.141176 0.541176 0.368627 
0.141176 0.541176 0.368627 0.141176 0.541176 0.368627 
0.141176 0.541176 0.368627 0.141176 0.541176 0.368627 
0.141176 0.541176 0.368627 0.141176 0.541176 0.368627 
0.141176 0.541176 0.368627 0.141176 0.541176 0.368627 
0.141176 0.541176 0.368627 0.141176 0.541176 0.368627 
0.141176 0.541176 0.368627 0.141176 0.541176 0.368627 
0.141176 0.541176 0.368627 0.141176 0.541176 0.368627 
0.141176 0.541176 0.368627 0.141176 0.541176 0.368627 
0.141176 0.541176 0.368627 0.141176 0.541176 0.368627 
0.141176 0.541176 0.368627 0.141176 0.541176 0.368627 
0.141176 0.541176 0.368627 0.141176 0.541176 0.368627 
0.141176 0.541176 0.368627 0.141176 0.541176 0.368627 
0.141176 0.541176 0.368627 0.141176 0.541176 0.368627 
0.141176 0.541176 0.368627 0.141176 0.541176 0.368627 
0.141176 0.541176 0.368627 0.141176 0.541176 0.368627 
0.141176 0.541176 0.368627 0.141176 0.541176 0.368627 
0.141176 0.541176 0.368627 0.141176 0.541176 0.368627 
0.141176 0.541176 0.368627 0.141176 0.541176 0.368627 
0.141176 0.541176 0.368627 0.141176 0.541176 0.368627 
0.141176 0.541176 0.368627 0.141176 0.541176 0.368627 
0.141176 0.541176 0.368627 0.141176 0.541176 0.368627 
0.141176 0.541176 0.368627 0.141176 0.541176 0.368627 
0.141176 0.541176 0.368627 0.141176 0.541176 0.368627 
0.141176 0.541176 0.368627 0.141176 0.541176 0.368627 
0.141176 0.541176 0.368627 0.141176 0.541176 0.368627 
0.141176 0.541176 0.368627 0.141176 0.541176 0.368627 
0.141176 0.541176 0.368627 0.141176 0.541176 0.368627 
0.141176 0.541176 0.368627 0.141176 0.541176 0.368627 
0.141176 0.541176 0.368627 0.141176 0.541176 0.368627 
0.141176 0.541176 0.368627 0.141176 0.541176 0.368627 
0.141176 0.541176 0.368627 0.141176 0.541176 0.368627 
0.141176 0.541176 0.368627 0.141176 0.541176 0.368627 
0.141176 0.541176 0.368627 0.141176 0.541176 0.368627 
0.141176 0.541176 0.368627 0.141176 0.541176 0.368627 
0.141176 0.541176 0.368627 0.141176 0.541176 0.368627 
0.141176 0.541176 0.368627 0.141176 0.541176 0.368627 
0.141176 0.541176 0.368627 0.141176 0.541176 0.368627 
0.141176 0.541176 0.368627 0.141176 0.541176 0.368627 
0.141176 0.541176 0.368627 0.141176 0.541176 0.368627 
0.141176 0.541176 0.368627 0.141176 0.541176 0.368627 
0.141176 0.541176 0.368627 0.141176 0.541176 0.368627 
0.141176 0.541176 0.368627 0.141176 0.541176 0.368627 
0.141176 0.541176 0.368627 0.141176 0.541176 0.368627 
0.141176 0.541176 0.368627 0.141176 0.541176 0.368627 
0.141176 0.541176 0.368627 0.141176 0.541176 0.368627 
0.141176 0.541176 0.368627 0.141176 0.541176 0.368627 
0.141176 0.541176 0.368627 0.141176 0.541176 0.368627 
0.141176 0.541176 0.368627 0.141176 0.541176 0.368627 
0.141176 0.541176 0.368627 0.141176 0.541176 0.368627 
0.141176 0.541176 0.368627 0.141176 0.541176 0.368627 
0.141176 0.541176 0.368627 0.141176 0.541176 0.368627 
0.141176 0.541176 0.368627 0.141176 0.541176 0.368627 
0.141176 0.541176 0.368627 0.141176 0.541176 0.368627 
0.141176 0.541176 0.368627 0.141176 0.541176 0.368627 
0.141176 0.541176 0.368627 0.141176 0.541176 0.368627 
0.141176 0.541176 0.368627 0.141176 0.541176 0.368627 
0.141176 0.541176 0.368627 0.141176 0.541176 0.368627 
0.141176 0.541176 0.368627 0.141176 0.541176 0.368627 
0.141176 0.541176 0.368627 0.141176 0.541176 0.368627 
0.141176 0.541176 0.368627 0.141176 0.541176 0.368627 
0.141176 0.541176 0.368627 0.141176 0.541176 0.368627 
0.141176 0.541176 0.368627 0.141176 0.541176 0.368627 
0.141176 0.541176 0.368627 0.141176 0.541176 0.368627 
0.141176 0.541176 0.368627 0.141176 0.541176 0.368627 
0.141176 0.541176 0.368627 0.141176 0.541176 0.368627 
0.141176 0.541176 0.368627 0.141176 0.541176 0.368627 
0.141176 0.541176 0.368627 0.141176 0.541176 0.368627 
0.141176 0.541176 0.368627 0.141176 0.541176 0.368627 
0.141176 0.541176 0.368627 0.141176 0.541176 0.368627 
0.141176 0.541176 0.368627 0.141176 0.541176 0.368627 
0.141176 0.541176 0.368627 0.141176 0.541176 0.368627 
0.141176 0.541176 0.368627 0.141176 0.541176 0.368627 
0.141176 0.541176 0.368627 0.141176 0.541176 0.368627 
0.141176 0.541176 0.368627 0.141176 0.541176 0.368627 
0.141176 0.541176 0.368627 0.141176 0.541176 0.368627 
0.141176 0.541176 0.368627 0.141176 0.541176 0.368627 
0.141176 0.541176 0.368627 0.141176 0.541176 0.368627 
0.141176 0.541176 0.368627 0.141176 0.541176 0.368627 
0.141176 0.541176 0.368627 0.141176 0.541176 0.368627 
0.141176 0.541176 0.368627 0.141176 0.541176 0.368627 
0.141176 0.541176 0.368627 0.141176 0.541176 0.368627 
0.141176 0.541176 0.368627 0.141176 0.541176 0.368627 
0.141176 0.541176 0.368627 0.141176 0.541176 0.368627 
0.141176 0.541176 0.368627 0.141176 0.541176 0.368627 
0.141176 0.541176 0.368627 0.141176 0.541176 0.368627 
0.141176 0.541176 0.368627 0.141176 0.541176 0.368627 
0.141176 0.541176 0.368627 0.141176 0.541176 0.368627 
0.141176 0.541176 0.368627 0.141176 0.541176 0.368627 
0.141176 0.541176 0.368627 0.141176 0.541176 0.368627 
0.141176 0.541176 0.368627 0.141176 0.541176 0.368627 
0.141176 0.541176 0.368627 0.141176 0.541176 0.368627 
0.141176 0.541176 0.368627 0.141176 0.541176 0.368627 
0.141176 0.541176 0.368627 0.141176 0.541176 0.368627 
0.141176 0.541176 0.368627 0.141176 0.541176 0.368627 
0.141176 0.541176 0.368627 0.141176 0.541176 0.368627 
0.141176 0.541176 0.368627 0.141176 0.541176 0.368627 
0.141176 0.541176 0.368627 0.141176 0.541176 0.368627 
0.141176 0.541176 0.368627 0.141176 0.541176 0.368627 
0.141176 0.541176 0.368627 0.141176 0.541176 0.368627 
0.141176 0.541176 0.368627 0.141176 0.541176 0.368627 
0.141176 0.541176 0.368627 0.141176 0.541176 0.368627 
0.141176 0.541176 0.368627 0.141176 0.541176 0.368627 
0.141176 0.541176 0.368627 0.141176 0.541176 0.368627 
0.141176 0.541176 0.368627 0.141176 0.541176 0.368627 
0.141176 0.541176 0.368627 0.141176 0.541176 0.368627 
0.141176 0.541176 0.368627 0.141176 0.541176 0.368627 
0.141176 0.541176 0.368627 0.141176 0.541176 0.368627 
0.141176 0.541176 0.368627 0.141176 0.541176 0.368627 
0.141176 0.541176 0.368627 0.141176 0.541176 0.368627 
0.141176 0.541176 0.368627 0.141176 0.541176 0.368627 
0.141176 0.541176 0.368627 0.141176 0.541176 0.368627 
0.141176 0.541176 0.368627 0.141176 0.541176 0.368627 
0.141176 0.541176 0.368627 0.141176 0.541176 0.368627 
0.141176 0.541176 0.368627 0.141176 0.541176 0.368627 
0.141176 0.541176 0.368627 0.141176 0.541176 0.368627 
0.141176 0.541176 0.368627 0.141176 0.541176 0.368627 
0.141176 0.541176 0.368627 0.141176 0.541176 0.368627 
0.141176 0.541176 0.368627 0.141176 0.541176 0.368627 
0.141176 0.541176 0.368627 0.141176 0.541176 0.368627 
0.141176 0.541176 0.368627 0.141176 0.541176 0.368627 
0.141176 0.541176 0.368627 0.141176 0.541176 0.368627 
0.141176 0.541176 0.368627 0.141176 0.541176 0.368627 
0.141176 0.541176 0.368627 0.141176 0.541176 0.368627 
0.141176 0.541176 0.368627 0.141176 0.541176 0.368627 
0.141176 0.541176 0.368627 0.141176 0.541176 0.368627 
0.141176 0.541176 0.368627 0.141176 0.541176 0.368627 
0.141176 0.541176 0.368627 0.141176 0.541176 0.368627 
0.141176 0.541176 0.368627 0.141176 0.541176 0.368627 
0.141176 0.541176 0.368627 0.141176 0.541176 0.368627 
0.141176 0.541176 0.368627 0.141176 0.541176 0.368627 
0.141176 0.541176 0.368627 0.141176 0.541176 0.368627 
0.141176 0.541176 0.368627 0.141176 0.541176 0.368627 
0.141176 0.541176 0.368627 0.141176 0.541176 0.368627 
0.141176 0.541176 0.368627 0.141176 0.541176 0.368627 
0.141176 0.541176 0.368627 0.141176 0.541176 0.368627 
0.141176 0.541176 0.368627 0.141176 0.541176 0.368627 
0.141176 0.541176 0.368627 0.141176 0.541176 0.368627 
0.141176 0.541176 0.368627 0.141176 0.541176 0.368627 
0.141176 0.541176 0.368627 0.141176 0.541176 0.368627 
0.141176 0.541176 0.368627 0.141176 0.541176 0.368627 
0.141176 0.541176 0.368627 0.141176 0.541176 0.368627 
0.141176 0.541176 0.368627 0.141176 0.541176 0.368627 
0.141176 0.541176 0.368627 0.141176 0.541176 0.368627 
0.141176 0.541176 0.368627 0.141176 0.541176 0.368627 
0.141176 0.541176 0.368627 0.141176 0.541176 0.368627 
0.141176 0.541176 0.368627 0.141176 0.541176 0.368627 
0.141176 0.541176 0.368627 0.141176 0.541176 0.368627 
0.141176 0.541176 0.368627 0.141176 0.541176 0.368627 
0.141176 0.541176 0.368627 0.141176 0.541176 0.368627 
0.141176 0.541176 0.368627 0.141176 0.541176 0.368627 
0.141176 0.541176 0.368627 0.141176 0.541176 0.368627 
0.141176 0.541176 0.368627 0.141176 0.541176 0.368627 
0.141176 0.541176 0.368627 0.141176 0.541176 0.368627 
0.141176 0.541176 0.368627 0.141176 0.541176 0.368627 
0.141176 0.541176 0.368627 0.141176 0.541176 0.368627 
0.141176 0.541176 0.368627 0.141176 0.541176 0.368627 
0.141176 0.541176 0.368627 0.141176 0.541176 0.368627 
0.141176 0.541176 0.368627 0.141176 0.541176 0.368627 
0.141176 0.541176 0.368627 0.141176 0.541176 0.368627 
0.141176 0.541176 0.368627 0.141176 0.541176 0.368627 
0.141176 0.541176 0.368627 0.141176 0.541176 0.368627 
0.141176 0.541176 0.368627 0.141176 0.541176 0.368627 
0.141176 0.541176 0.368627 0.141176 0.541176 0.368627 
0.141176 0.541176 0.368627 0.141176 0.541176 0.368627 
0.141176 0.541176 0.368627 0.141176 0.541176 0.368627 
0.141176 0.541176 0.368627 0.141176 0.541176 0.368627 
0.141176 0.541176 0.368627 0.141176 0.541176 0.368627 
0.141176 0.541176 0.368627 0.141176 0.541176 0.368627 
0.141176 0.541176 0.368627 0.141176 0.541176 0.368627 
0.141176 0.541176 0.368627 0.141176 0.541176 0.368627 
0.141176 0.541176 0.368627 0.141176 0.541176 0.368627 
0.141176 0.541176 0.368627 0.141176 0.541176 0.368627 
0.141176 0.541176 0.368627 0.141176 0.541176 0.368627 
0.141176 0.541176 0.368627 0.141176 0.541176 0.368627 
0.141176 0.541176 0.368627 0.141176 0.541176 0.368627 
0.141176 0.541176 0.368627 0.141176 0.541176 0.368627 
0.141176 0.541176 0.368627 0.141176 0.541176 0.368627 
0.141176 0.541176 0.368627 0.141176 0.541176 0.368627 
0.141176 0.541176 0.368627 0.141176 0.541176 0.368627 
0.141176 0.541176 0.368627 0.141176 0.541176 0.368627 
0.141176 0.541176 0.368627 0.141176 0.541176 0.368627 
0.141176 0.541176 0.368627 0.141176 0.541176 0.368627 
0.141176 0.541176 0.368627 0.141176 0.541176 0.368627 
0.141176 0.541176 0.368627 0.141176 0.541176 0.368627 
0.141176 0.541176 0.368627 0.141176 0.541176 0.368627 
0.141176 0.541176 0.368627 0.141176 0.541176 0.368627 
0.141176 0.541176 0.368627 0.141176 0.541176 0.368627 
0.141176 0.541176 0.368627 0.141176 0.541176 0.368627 
0.141176 0.541176 0.368627 0.141176 0.541176 0.368627 
0.141176 0.541176 0.368627 0.141176 0.541176 0.368627 
0.141176 0.541176 0.368627 0.141176 0.541176 0.368627 
0.141176 0.541176 0.368627 0.141176 0.541176 0.368627 
0.141176 0.541176 0.368627 0.141176 0.541176 0.368627 
0.141176 0.541176 0.368627 0.141176 0.541176 0.368627 
0.141176 0.541176 0.368627 0.141176 0.541176 0.368627 
0.141176 0.541176 0.368627 0.141176 0.541176 0.368627 
0.141176 0.541176 0.368627 0.141176 0.541176 0.368627 
0.141176 0.541176 0.368627 0.141176 0.541176 0.368627 
0.141176 0.541176 0.368627 0.141176 0.541176 0.368627 
0.141176 0.541176 0.368627 0.141176 0.541176 0.368627 
0.141176 0.541176 0.368627 0.141176 0.541176 0.368627 
0.141176 0.541176 0.368627 0.141176 0.541176 0.368627 
0.141176 0.541176 0.368627 0.141176 0.541176 0.368627 
0.141176 0.541176 0.368627 0.141176 0.541176 0.368627 
0.141176 0.541176 0.368627 0.141176 0.541176 0.368627 
0.141176 0.541176 0.368627 0.141176 0.541176 0.368627 
0.141176 0.541176 0.368627 0.141176 0.541176 0.368627 
0.141176 0.541176 0.368627 0.141176 0.541176 0.368627 
0.141176 0.541176 0.368627 0.141176 0.541176 0.368627 
0.141176 0.541176 0.368627 0.141176 0.541176 0.368627 
0.141176 0.541176 0.368627 0.141176 0.541176 0.368627 
0.141176 0.541176 0.368627 0.141176 0.541176 0.368627 
0.141176 0.541176 0.368627 0.141176 0.541176 0.368627 
0.141176 0.541176 0.368627 0.141176 0.541176 0.368627 
0.141176 0.541176 0.368627 0.141176 0.541176 0.368627 
0.141176 0.541176 0.368627 0.141176 0.541176 0.368627 
0.141176 0.541176 0.368627 0.141176 0.541176 0.368627 
0.141176 0.541176 0.368627 0.141176 0.541176 0.368627 
0.141176 0.541176 0.368627 0.141176 0.541176 0.368627 
0.141176 0.541176 0.368627 0.141176 0.541176 0.368627 
0.141176 0.541176 0.368627 0.141176 0.541176 0.368627 
0.141176 0.541176 0.368627 0.141176 0.541176 0.368627 
0.141176 0.541176 0.368627 0.141176 0.541176 0.368627 
0.141176 0.541176 0.368627 0.141176 0.541176 0.368627 
0.141176 0.541176 0.368627 0.141176 0.541176 0.368627 
0.141176 0.541176 0.368627 0.141176 0.541176 0.368627 
0.141176 0.541176 0.368627 0.141176 0.541176 0.368627 
0.141176 0.541176 0.368627 0.141176 0.541176 0.368627 
0.141176 0.541176 0.368627 0.141176 0.541176 0.368627 
0.141176 0.541176 0.368627 0.141176 0.541176 0.368627 
0.141176 0.541176 0.368627 0.141176 0.541176 0.368627 