# vtk DataFile Version 4.2
vtk output
ASCII
DATASET POLYDATA
POINTS 985 float
133.709 131.507 179.742 133.67 131.242 179.797 133.609 131.605 179.805 
133.8 131.407 179.778 133.756 131.136 179.795 133.791 131.811 179.783 
133.628 132.482 179.82 133.518 132.626 179.946 133.603 132.933 179.904 
133.732 132.897 179.891 133.922 132.839 180.039 133.682 133.366 179.993 
133.83 133.331 180.028 133.859 134.452 180.241 133.791 134.255 180.214 
133.834 134.548 180.323 133.924 134.259 180.273 133.905 134.553 180.316 
136 126.009 179.517 136 126.009 179.517 136 126.009 179.517 
136 126.009 179.517 135.002 127.01 180.502 135.002 127.01 180.506 
135.002 127.01 180.505 136 126.009 179.517 135.002 127.01 180.503 
133.835 130.262 180.05 133.833 130.209 180.125 133.799 130.309 180.063 
135.002 127.01 180.504 133.856 130.217 180.092 133.808 130.51 179.989 
133.74 130.526 180.06 133.713 130.871 179.906 133.65 130.873 180.087 
133.805 130.841 179.892 133.47 132.226 180.065 133.448 133.214 180.303 
133.651 133.857 180.177 133.811 133.814 180.125 133.607 134.055 180.334 
133.716 134.346 180.38 133.913 134.686 180.428 133.861 134.713 180.57 
134.011 134.59 180.495 133.973 134.787 180.597 135.552 138.625 181.117 
135.564 138.684 181.093 135.559 138.722 181.141 135.588 138.703 181.137 
135.585 138.763 181.153 135.575 138.79 181.242 135.615 138.858 181.344 
136 126.009 179.518 136 126.009 179.518 136 126.009 179.518 
135.001 127.01 180.515 135.001 127.01 180.513 135.001 127.01 180.511 
136 126.009 179.518 133.841 130.254 180.271 133.784 130.321 180.179 
135.001 127.01 180.512 133.633 130.972 180.341 133.486 131.834 180.256 
133.42 132.902 180.451 134.24 133.402 180.659 133.905 134.852 180.902 
134.098 134.806 180.797 133.997 134.91 180.821 135.656 139.009 181.613 
135.699 139.171 181.846 135.752 139.277 182.036 136 126.009 179.518 
135.001 127.01 180.523 135.001 127.01 180.523 135.001 127.01 180.522 
135.001 127.01 180.523 133.56 131.456 180.458 133.604 134.001 181.018 
135.519 138.317 181.575 135.472 138.262 181.82 135.566 138.271 181.708 
135.77 139.458 182.487 135.811 139.453 182.357 137.22 142.983 183.268 
137.188 142.91 183.275 137.241 143.06 183.318 137.302 143.212 183.418 
135.001 127.01 180.529 135.001 127.01 180.53 135.001 127.01 180.529 
133.865 130.401 180.564 133.821 130.453 180.548 133.917 130.54 180.587 
135.001 127.01 180.529 133.827 130.697 180.694 133.815 131.227 180.9 
134.17 131.572 181.051 133.589 133.228 181.134 133.709 134.106 181.275 
134.306 135.065 181.414 134.096 135.11 181.348 134.144 135.129 181.268 
134.073 135.126 181.244 135.447 137.797 182.051 135.367 137.819 182.308 
135.903 139.544 182.647 135.919 139.777 182.803 137.142 142.808 183.395 
137.092 142.756 183.513 137.402 143.411 183.579 137.362 143.408 183.597 
137.484 143.673 183.755 137.616 144.028 184.061 135.001 127.01 180.532 
133.867 130.528 180.646 133.912 130.84 180.797 134.035 131.383 181.111 
134.428 132.31 182.077 134.458 132.484 182.149 134.283 132.077 181.644 
134.56 132.862 182.232 133.74 132.912 181.389 134.67 133.247 182.206 
133.796 133.979 181.471 134.94 134.63 182.417 134.527 135.292 181.906 
134.213 135.146 181.465 134.907 136.045 182.436 134.998 136.114 182.308 
134.125 135.164 181.333 135.206 136.96 182.365 135.323 136.948 182.409 
136.104 140.148 183.217 136.071 140.223 183.215 136.972 142.407 183.665 
137.814 144.563 184.458 137.82 144.417 184.428 138.177 145.331 184.937 
134.218 132.403 181.862 134.43 132.759 182.212 134.5 133.254 182.409 
134.589 133.186 182.433 134.74 133.572 182.511 134.52 133.746 182.48 
134.906 134.158 182.688 135.008 134.634 182.867 135.157 135.281 182.973 
135.375 136.672 182.704 135.557 137.367 182.905 136.457 141.203 183.663 
138.513 146.013 185.326 138.617 146.25 185.45 138.766 146.498 185.641 
139.086 147.121 185.981 139.02 147.066 185.93 134.671 133.679 182.6 
134.762 134.323 182.746 134.864 134.206 182.773 135.025 135.058 182.979 
135.071 135.801 183.007 135.187 135.793 183.16 135.214 135.661 183.139 
135.41 137.637 183.217 135.43 137.277 183.307 135.645 137.798 183.185 
135.599 138.295 183.418 135.822 139.352 183.664 136.769 141.94 184.263 
136.359 141.026 184.1 136.377 141.161 184.129 137.125 142.584 184.773 
137.165 142.805 184.911 138.416 145.821 185.448 138.196 145.248 185.513 
138.215 145.469 185.441 138.639 146.246 185.818 138.695 146.427 185.921 
139.466 147.756 186.376 139.217 147.456 186.233 139.781 148.448 186.739 
135.298 136.142 183.23 135.6 137.797 183.357 137.144 139.592 186.481 
137.144 139.586 186.48 137.144 139.596 186.481 135.785 138.862 183.566 
137.155 139.732 186.48 137.156 139.752 186.478 137.16 139.794 186.48 
135.943 139.676 183.819 137.179 140.041 186.466 136.025 140.077 183.985 
135.999 140.061 183.953 136.174 140.748 184.209 136.248 140.879 184.193 
136.233 140.888 184.206 137.284 142.707 185.323 137.324 142.861 185.638 
138.388 145.77 185.844 139.312 147.689 186.618 140.116 149.113 187.098 
140.294 149.235 187.247 140.523 149.769 187.349 140.31 149.678 187.437 
140.722 150.183 187.484 140.799 150.265 187.51 140.812 150.515 187.721 
140.85 150.418 187.635 145.455 162.337 187.904 145.411 162.276 187.964 
145.437 162.3 187.936 145.465 162.355 187.896 137.144 139.59 186.48 
137.155 139.741 186.479 137.178 140.03 186.467 137.192 140.197 186.47 
137.22 140.564 186.42 136.163 140.672 184.192 137.283 141.264 186.318 
137.291 141.478 186.277 137.286 141.218 186.379 136.198 140.811 184.233 
137.339 142.244 185.956 137.406 142.212 186.234 137.503 143.578 186.123 
138.139 145.115 186.302 138.108 145.191 186.324 138.573 146.076 186.394 
139.064 146.898 186.843 139.1 147.054 187.051 140.828 150.309 187.607 
141.008 150.77 188.026 141.052 151.272 188.133 141.314 151.676 188.321 
141.209 151.922 188.441 141.458 152.655 188.702 141.447 152.33 188.523 
141.569 152.376 188.635 141.666 153.08 188.764 141.8 153.273 188.866 
142.373 155.097 189.151 142.419 155.256 189.244 142.396 155.259 189.237 
145.242 162.016 188.208 145.306 162.084 188.122 145.384 162.213 188.005 
145.448 162.352 187.935 137.319 141.614 186.333 137.667 143.109 187.062 
137.662 143.122 187.011 137.668 143.152 187.015 137.664 143.149 187.021 
137.426 142.458 186.348 137.641 143.123 186.902 137.67 143.271 186.921 
137.573 143.035 186.566 137.703 143.541 186.732 137.808 144.047 186.485 
137.759 144.39 186.439 137.939 144.589 186.4 137.848 144.628 186.445 
137.965 144.811 186.424 137.931 144.834 186.408 139.364 147.362 187.558 
139.34 147.443 187.648 141.707 153.578 189.162 142.121 154.413 189.125 
142.576 155.973 189.448 142.572 155.862 189.433 142.735 156.56 189.584 
142.828 156.815 189.64 142.866 156.994 189.652 145.133 161.883 188.364 
145.14 161.91 188.347 145.226 161.989 188.245 145.224 162.069 188.236 
145.301 162.177 188.15 145.426 162.323 187.974 145.406 162.306 188.001 
137.658 143.12 187.015 137.669 143.45 186.797 137.714 143.809 186.647 
137.82 144.376 186.508 139.362 147.29 188.041 139.355 147.272 188.085 
139.354 147.291 188.039 139.383 147.328 188.076 137.884 144.676 186.471 
139.36 147.337 187.893 139.652 147.786 188.081 139.934 148.841 188.232 
141.161 152.126 189.215 141.911 153.382 189.41 142.429 155.771 189.781 
142.677 156.542 189.821 143.058 157.642 189.756 143.106 157.735 189.794 
143.256 158.218 189.802 143.352 158.563 189.807 143.42 158.707 189.826 
143.472 159.023 189.851 143.642 159.321 189.773 144.944 161.65 188.61 
145.065 161.797 188.466 145.225 162.062 188.272 145.063 161.879 188.491 
145.363 162.246 188.07 139.375 147.329 188.073 139.465 147.523 188.067 
139.829 148.013 188.416 139.644 147.948 188.168 140.052 148.54 188.471 
140.279 149.079 188.618 140.37 149.718 188.75 140.745 150.195 189.022 
140.804 150.914 189.152 142.526 155.987 189.901 142.384 155.585 190.156 
142.363 155.654 190.04 142.654 156.513 190.064 143.963 160.07 189.602 
144.897 161.577 188.676 144.022 160.163 189.591 144.165 160.557 189.531 
144.573 161.105 189.041 144.412 160.947 189.27 144.617 161.258 189.05 
144.907 161.674 188.71 144.845 161.596 188.786 139.924 148.329 188.466 
140.109 148.823 188.574 140.387 149.511 188.783 140.952 150.652 189.386 
140.97 150.721 189.498 140.909 150.614 189.399 140.614 150.213 189.006 
141.188 151.356 189.65 141.389 152.56 189.817 141.83 154.089 190.194 
142.48 156.142 190.295 142.578 156.647 190.505 142.986 157.821 190.236 
143.525 159.368 190.087 143.745 159.818 189.921 143.952 160.194 189.754 
144.241 160.673 189.467 144.736 161.428 188.917 140.976 150.805 189.526 
141.159 151.404 189.757 141.262 151.721 189.818 141.237 151.787 189.819 
141.442 152.424 189.904 141.699 153.116 190.066 141.664 153.22 190.134 
141.972 154.541 190.494 142.269 155.854 190.836 142.64 156.729 190.45 
142.409 156.166 190.721 142.327 156.104 190.835 142.885 157.501 190.344 
142.395 156.279 190.793 143.122 158.258 190.281 143.363 159.005 190.218 
143.477 159.262 190.161 143.685 159.667 189.993 141.188 151.559 189.807 
141.793 153.591 190.255 142.063 154.735 190.598 142.118 155.147 190.737 
142.209 155.577 190.856 142.287 155.866 190.868 142.332 156.092 190.856 
143.004 157.513 193.011 143.004 157.513 193.011 143.004 157.513 193.011 
143.004 157.513 193.011 142.346 156.191 190.868 143.004 157.513 193.011 
143.004 157.513 193.011 143.004 157.513 193.011 143.267 158.727 190.265 
143.004 157.513 193.011 142.188 155.41 190.84 142.24 155.637 190.875 
143.004 157.513 193.011 143.004 157.513 193.011 141.619 153.1 265.011 
141.5 152.789 265.119 141.576 153.213 265.015 141.588 152.741 265.135 
141.737 153.946 264.903 141.753 154.53 264.892 141.817 154.19 264.941 
141.873 155.232 264.708 143.566 159.47 265.248 143.615 159.653 265.219 
141.221 151.439 265.572 141.039 151.047 265.798 141.091 151.352 265.651 
141.165 151.101 265.815 141.261 151.812 265.433 141.327 151.516 265.568 
141.383 151.852 265.408 141.128 152.063 265.614 141.437 152.297 265.254 
141.531 152.267 265.332 141.274 152.491 265.382 141.568 153.664 265.1 
141.821 154.919 264.948 141.866 155.215 264.772 141.877 155.285 264.714 
[...]
POINT_DATA 985
COLOR_SCALARS scalars 3
0.141176 0.541176 0.368627 0.141176 0.541176 0.368627 0.141176 0.541176 0.368627 
0.141176 0.541176 0.368627 0.141176 0.541176 0.368627 
0.141176 0.541176 0.368627 0.141176 0.541176 0.368627 
0.141176 0.541176 0.368627 0.141176 0.541176 0.368627 
0.141176 0.541176 0.368627 0.141176 0.541176 0.368627 
0.141176 0.541176 0.368627 0.141176 0.541176 0.368627 
0.141176 0.541176 0.368627 0.141176 0.541176 0.368627 
0.141176 0.541176 0.368627 0.141176 0.541176 0.368627 
0.141176 0.541176 0.368627 0.141176 0.541176 0.368627 
0.141176 0.541176 0.368627 0.141176 0.541176 0.368627 
0.141176 0.541176 0.368627 0.141176 0.541176 0.368627 
0.141176 0.541176 0.368627 0.141176 0.541176 0.368627 
0.141176 0.541176 0.368627 0.141176 0.541176 0.368627 
0.141176 0.541176 0.368627 0.141176 0.541176 0.368627 
0.141176 0.541176 0.368627 0.141176 0.541176 0.368627 
0.141176 0.541176 0.368627 0.141176 0.541176 0.368627 
0.141176 0.541176 0.368627 0.141176 0.541176 0.368627 
0.141176 0.541176 0.368627 0.141176 0.541176 0.368627 
0.141176 0.541176 0.368627 0.141176 0.541176 0.368627 
0.141176 0.541176 0.368627 0.141176 0.541176 0.368627 
0.141176 0.541176 0.368627 0.141176 0.541176 0.368627 
0.141176 0.541176 0.368627 0.141176 0.541176 0.368627 
0.141176 0.541176 0.368627 0.141176 0.541176 0.368627 
0.141176 0.541176 0.368627 0.141176 0.541176 0.368627 
0.141176 0.541176 0.368627 0.141176 0.541176 0.368627 
0.141176 0.541176 0.368627 0.141176 0.541176 0.368627 
0.141176 0.541176 0.368627 0.141176 0.541176 0.368627 
0.141176 0.541176 0.368627 0.141176 0.541176 0.368627 
0.141176 0.541176 0.368627 0.141176 0.541176 0.368627 
0.141176 0.541176 0.368627 0.141176 0.541176 0.368627 
0.141176 0.541176 0.368627 0.141176 0.541176 0.368627 
0.141176 0.541176 0.368627 0.141176 0.541176 0.368627 
0.141176 0.541176 0.368627 0.141176 0.541176 0.368627 
0.141176 0.541176 0.368627 0.141176 0.541176 0.368627 
0.141176 0.541176 0.368627 0.141176 0.541176 0.368627 
0.141176 0.541176 0.368627 0.141176 0.541176 0.368627 
0.141176 0.541176 0.368627 0.141176 0.541176 0.368627 
0.141176 0.541176 0.368627 0.141176 0.541176 0.368627 
0.141176 0.541176 0.368627 0.141176 0.541176 0.368627 
0.141176 0.541176 0.368627 0.141176 0.541176 0.368627 
0.141176 0.541176 0.368627 0.141176 0.541176 0.368627 
0.141176 0.541176 0.368627 0.141176 0.541176 0.368627 
0.141176 0.541176 0.368627 0.141176 0.541176 0.368627 
0.141176 0.541176 0.368627 0.141176 0.541176 0.368627 
0.141176 0.541176 0.368627 0.141176 0.541176 0.368627 
0.141176 0.541176 0.368627 0.141176 0.541176 0.368627 
0.141176 0.541176 0.368627 0.141176 0.541176 0.368627 
0.141176 0.541176 0.368627 0.141176 0.541176 0.368627 
0.141176 0.541176 0.368627 0.141176 0.541176 0.368627 
0.141176 0.541176 0.368627 0.141176 0.541176 0.368627 
0.141176 0.541176 0.368627 0.141176 0.541176 0.368627 
0.141176 0.541176 0.368627 0.141176 0.541176 0.368627 
0.141176 0.541176 0.368627 0.141176 0.541176 0.368627 
0.141176 0.541176 0.368627 0.141176 0.541176 0.368627 
0.141176 0.541176 0.368627 0.141176 0.541176 0.368627 
0.141176 0.541176 0.368627 0.141176 0.541176 0.368627 
0.141176 0.541176 0.368627 0.141176 0.541176 0.368627 
0.141176 0.541176 0.368627 0.141176 0.541176 0.368627 
0.141176 0.541176 0.368627 0.141176 0.541176 0.368627 
0.141176 0.541176 0.368627 0.141176 0.541176 0.368627 
0.141176 0.541176 0.368627 0.141176 0.541176 0.368627 
0.141176 0.541176 0.368627 0.141176 0.541176 0.368627 
0.141176 0.541176 0.368627 0.141176 0.541176 0.368627 
0.141176 0.541176 0.368627 0.141176 0.541176 0.368627 
0.141176 0.541176 0.368627 0.141176 0.541176 0.368627 
0.141176 0.541176 0.368627 0.141176 0.541176 0.368627 
0.141176 0.541176 0.368627 0.141176 0.541176 0.368627 
0.141176 0.541176 0.368627 0.141176 0.541176 0.368627 
0.141176 0.541176 0.368627 0.141176 0.541176 0.368627 
0.141176 0.541176 0.368627 0.141176 0.541176 0.368627 
0.141176 0.541176 0.368627 0.141176 0.541176 0.368627 
0.141176 0.541176 0.368627 0.141176 0.541176 0.368627 
0.141176 0.541176 0.368627 0.141176 0.541176 0.368627 
0.141176 0.541176 0.368627 0.141176 0.541176 0.368627 
0.141176 0.541176 0.368627 0.141176 0.541176 0.368627 
0.141176 0.541176 0.368627 0.141176 0.541176 0.368627 
0.141176 0.541176 0.368627 0.141176 0.541176 0.368627 
0.141176 0.541176 0.368627 0.141176 0.541176 0.368627 
0.141176 0.541176 0.368627 0.141176 0.541176 0.368627 
0.141176 0.541176 0.368627 0.141176 0.541176 0.368627 
0.141176 0.541176 0.368627 0.141176 0.541176 0.368627 
0.141176 0.541176 0.368627 0.141176 0.541176 0.368627 
0.141176 0.541176 0.368627 0.141176 0.541176 0.368627 
0.141176 0.541176 0.368627 0.141176 0.541176 0.368627 
0.141176 0.541176 0.368627 0.141176 0.541176 0.368627 
0.141176 0.541176 0.368627 0.141176 0.541176 0.368627 
0.141176 0.541176 0.368627 0.141176 0.541176 0.368627 
0.141176 0.541176 0.368627 0.141176 0.541176 0.368627 
0.141176 0.541176 0.368627 0.141176 0.541176 0.368627 
0.141176 0.541176 0.368627 0.141176 0.541176 0.368627 
0.141176 0.541176 0.368627 0.141176 0.541176 0.368627 
0.141176 0.541176 0.368627 0.141176 0.541176 0.368627 
0.141176 0.541176 0.368627 0.141176 0.541176 0.368627 
0.141176 0.541176 0.368627 0.141176 0.541176 0.368627 
0.141176 0.541176 0.368627 0.141176 0.541176 0.368627 
0.141176 0.541176 0.368627 0.141176 0.541176 0.368627 
0.141176 0.541176 0.368627 0.141176 0.541176 0.368627 
0.141176 0.541176 0.368627 0.141176 0.541176 0.368627 
0.141176 0.541176 0.368627 0.141176 0.541176 0.368627 
0.141176 0.541176 0.368627 0.141176 0.541176 0.368627 
0.141176 0.541176 0.368627 0.141176 0.541176 0.368627 
0.141176 0.541176 0.368627 0.141176 0.541176 0.368627 
0.141176 0.541176 0.368627 0.141176 0.541176 0.368627 
0.141176 0.541176 0.368627 0.141176 0.541176 0.368627 
0.141176 0.541176 0.368627 0.141176 0.541176 0.368627 
0.141176 0.541176 0.368627 0.141176 0.541176 0.368627 
0.141176 0.541176 0.368627 0.141176 0.541176 0.368627 
0.141176 0.541176 0.368627 0.141176 0.541176 0.368627 
0.141176 0.541176 0.368627 0.141176 0.541176 0.368627 
0.141176 0.541176 0.368627 0.141176 0.541176 0.368627 
0.141176 0.541176 0.368627 0.141176 0.541176 0.368627 
0.141176 0.541176 0.368627 0.141176 0.541176 0.368627 
0.141176 0.541176 0.368627 0.141176 0.541176 0.368627 
0.141176 0.541176 0.368627 0.141176 0.541176 0.368627 
0.141176 0.541176 0.368627 0.141176 0.541176 0.368627 
0.141176 0.541176 0.368627 0.141176 0.541176 0.368627 
0.141176 0.541176 0.368627 0.141176 0.541176 0.368627 
0.141176 0.541176 0.368627 0.141176 0.541176 0.368627 
0.141176 0.541176 0.368627 0.141176 0.541176 0.368627 
0.141176 0.541176 0.368627 0.141176 0.541176 0.368627 
0.141176 0.541176 0.368627 0.141176 0.541176 0.368627 
0.141176 0.541176 0.368627 0.141176 0.541176 0.368627 
0.141176 0.541176 0.368627 0.141176 0.541176 0.368627 
0.141176 0.541176 0.368627 0.141176 0.541176 0.368627 
0.141176 0.541176 0.368627 0.141176 0.541176 0.368627 
0.141176 0.541176 0.368627 0.141176 0.541176 0.368627 
0.141176 0.541176 0.368627 0.141176 0.541176 0.368627 
0.141176 0.541176 0.368627 0.141176 0.541176 0.368627 
0.141176 0.541176 0.368627 0.141176 0.541176 0.368627 
0.141176 0.541176 0.368627 0.141176 0.541176 0.368627 
0.141176 0.541176 0.368627 0.141176 0.541176 0.368627 
0.141176 0.541176 0.368627 0.141176 0.541176 0.368627 
0.141176 0.541176 0.368627 0.141176 0.541176 0.368627 
0.141176 0.541176 0.368627 0.141176 0.541176 0.368627 
0.141176 0.541176 0.368627 0.141176 0.541176 0.368627 
0.141176 0.541176 0.368627 0.141176 0.541176 0.368627 
0.141176 0.541176 0.368627 0.141176 0.541176 0.368627 
0.141176 0.541176 0.368627 0.141176 0.541176 0.368627 
0.141176 0.541176 0.368627 0.141176 0.541176 0.368627 
0.141176 0.541176 0.368627 0.141176 0.541176 0.368627 
0.141176 0.541176 0.368627 0.141176 0.541176 0.368627 
0.141176 0.541176 0.368627 0.141176 0.541176 0.368627 
0.141176 0.541176 0.368627 0.141176 0.541176 0.368627 
0.141176 0.541176 0.368627 0.141176 0.541176 0.368627 
0.141176 0.541176 0.368627 0.141176 0.541176 0.368627 
0.141176 0.541176 0.368627 0.141176 0.541176 0.368627 
0.141176 0.541176 0.368627 0.141176 0.541176 0.368627 
0.141176 0.541176 0.368627 0.141176 0.541176 0.368627 
0.141176 0.541176 0.368627 0.141176 0.541176 0.368627 
0.141176 0.541176 0.368627 0.141176 0.541176 0.368627 
0.141176 0.541176 0.368627 0.141176 0.541176 0.368627 
0.141176 0.541176 0.368627 0.141176 0.541176 0.368627 
0.141176 0.541176 0.368627 0.141176 0.541176 0.368627 
0.141176 0.541176 0.368627 0.141176 0.541176 0.368627 
0.141176 0.541176 0.368627 0.141176 0.541176 0.368627 
0.141176 0.541176 0.368627 0.141176 0.541176 0.368627 
0.141176 0.541176 0.368627 0.141176 0.541176 0.368627 
0.141176 0.541176 0.368627 0.141176 0.541176 0.368627 
0.141176 0.541176 0.368627 0.141176 0.541176 0.368627 
0.141176 0.541176 0.368627 0.141176 0.541176 0.368627 
0.141176 0.541176 0.368627 0.141176 0.541176 0.368627 
0.141176 0.541176 0.368627 0.141176 0.541176 0.368627 
0.141176 0.541176 0.368627 0.141176 0.541176 0.368627 
0.141176 0.541176 0.368627 0.141176 0.541176 0.368627 
0.141176 0.541176 0.368627 0.141176 0.541176 0.368627 
0.141176 0.541176 0.368627 0.141176 0.541176 0.368627 
0.141176 0.541176 0.368627 0.141176 0.541176 0.368627 
0.141176 0.541176 0.368627 0.141176 0.541176 0.368627 
0.141176 0.541176 0.368627 0.141176 0.541176 0.368627 
0.141176 0.541176 0.368627 0.141176 0.541176 0.368627 
0.141176 0.541176 0.368627 0.141176 0.541176 0.368627 
0.141176 0.541176 0.368627 0.141176 0.541176 0.368627 
0.141176 0.541176 0.368627 0.141176 0.541176 0.368627 
0.141176 0.541176 0.368627 0.141176 0.541176 0.368627 
0.141176 0.541176 0.368627 0.141176 0.541176 0.368627 
0.141176 0.541176 0.368627 0.141176 0.541176 0.368627 
0.141176 0.541176 0.368627 0.141176 0.541176 0.368627 
0.141176 0.541176 0.368627 0.141176 0.541176 0.368627 
0.141176 0.541176 0.368627 0.141176 0.541176 0.368627 
0.141176 0.541176 0.368627 0.141176 0.541176 0.368627 
0.141176 0.541176 0.368627 0.141176 0.541176 0.368627 
0.141176 0.541176 0.368627 0.141176 0.541176 0.368627 
0.141176 0.541176 0.368627 0.141176 0.541176 0.368627 
0.141176 0.541176 0.368627 0.141176 0.541176 0.368627 
0.141176 0.541176 0.368627 0.141176 0.541176 0.368627 
0.141176 0.541176 0.368627 0.141176 0.541176 0.368627 
0.141176 0.541176 0.368627 0.141176 0.541176 0.368627 
0.141176 0.541176 0.368627 0.141176 0.541176 0.368627 
0.141176 0.541176 0.368627 0.141176 0.541176 0.368627 
0.141176 0.541176 0.368627 0.141176 0.541176 0.368627 
0.141176 0.541176 0.368627 0.141176 0.541176 0.368627 
0.141176 0.541176 0.368627 0.141176 0.541176 0.368627 
0.141176 0.541176 0.368627 0.141176 0.541176 0.368627 
0.141176 0.541176 0.368627 0.141176 0.541176 0.368627 
0.141176 0.541176 0.368627 0.141176 0.541176 0.368627 
0.141176 0.541176 0.368627 0.141176 0.541176 0.368627 
0.141176 0.541176 0.368627 0.141176 0.541176 0.368627 
0.141176 0.541176 0.368627 0.141176 0.541176 0.368627 
0.141176 0.541176 0.368627 0.141176 0.541176 0.368627 
0.141176 0.541176 0.368627 0.141176 0.541176 0.368627 
0.141176 0.541176 0.368627 0.141176 0.541176 0.368627 
0.141176 0.541176 0.368627 0.141176 0.541176 0.368627 
0.141176 0.541176 0.368627 0.141176 0.541176 0.368627 
0.141176 0.541176 0.368627 0.141176 0.541176 0.368627 
0.141176 0.541176 0.368627 0.141176 0.541176 0.368627 
0.141176 0.541176 0.368627 0.141176 0.541176 0.368627 
0.141176 0.541176 0.368627 0.141176 0.541176 0.368627 
0.141176 0.541176 0.368627 0.141176 0.541176 0.368627 
0.141176 0.541176 0.368627 0.141176 0.541176 0.368627 
0.141176 0.541176 0.368627 0.141176 0.541176 0.368627 
0.141176 0.541176 0.368627 0.141176 0.541176 0.368627 
0.141176 0.541176 0.368627 0.141176 0.541176 0.368627 
0.141176 0.541176 0.368627 0.141176 0.541176 0.368627 
0.141176 0.541176 0.368627 0.141176 0.541176 0.368627 
0.141176 0.541176 0.368627 0.141176 0.541176 0.368627 
0.141176 0.541176 0.368627 0.141176 0.541176 0.368627 
0.141176 0.541176 0.368627 0.141176 0.541176 0.368627 
0.141176 0.541176 0.368627 0.141176 0.541176 0.368627 
0.141176 0.541176 0.368627 0.141176 0.541176 0.368627 
0.141176 0.541176 0.368627 0.141176 0.541176 0.368627 
0.141176 0.541176 0.368627 0.141176 0.541176 0.368627 
0.141176 0.541176 0.368627 0.141176 0.541176 0.368627 
0.141176 0.541176 0.368627 0.141176 0.541176 0.368627 
0.141176 0.541176 0.368627 0.141176 0.541176 0.368627 
0.141176 0.541176 0.368627 0.141176 0.541176 0.368627 
0.141176 0.541176 0.368627 0.141176 0.541176 0.368627 
0.141176 0.541176 0.368627 0.141176 0.541176 0.368627 
0.141176 0.541176 0.368627 0.141176 0.541176 0.368627 
0.141176 0.541176 0.368627 0.141176 0.541176 0.368627 
0.141176 0.541176 0.368627 0.141176 0.541176 0.368627 
0.141176 0.541176 0.368627 0.141176 0.541176 0.368627 
0.141176 0.541176 0.368627 0.141176 0.541176 0.368627 
0.141176 0.541176 0.368627 0.141176 0.541176 0.368627 
0.141176 0.541176 0.368627 0.141176 0.541176 0.368627 
0.141176 0.541176 0.368627 0.141176 0.541176 0.368627 
0.141176 0.541176 0.368627 0.141176 0.541176 0.368627 
0.141176 0.541176 0.368627 0.141176 0.541176 0.368627 
0.141176 0.541176 0.368627 0.141176 0.541176 0.368627 
0.141176 0.541176 0.368627 0.141176 0.541176 0.368627 
0.141176 0.541176 0.368627 0.141176 0.541176 0.368627 
0.141176 0.541176 0.368627 0.141176 0.541176 0.368627 
0.141176 0.541176 0.368627 0.141176 0.541176 0.368627 
0.141176 0.541176 0.368627 0.141176 0.541176 0.368627 
0.141176 0.541176 0.368627 0.141176 0.541176 0.368627 
0.141176 0.541176 0.368627 0.141176 0.541176 0.368627 
0.141176 0.541176 0.368627 0.141176 0.541176 0.368627 
0.141176 0.541176 0.368627 0.141176 0.541176 0.368627 
0.141176 0.541176 0.368627 0.141176 0.541176 0.368627 
0.141176 0.541176 0.368627 0.141176 0.541176 0.368627 
0.141176 0.541176 0.368627 0.141176 0.541176 0.368627 
0.141176 0.541176 0.368627 0.141176 0.541176 0.368627 
0.141176 0.541176 0.368627 0.141176 0.541176 0.368627 
0.141176 0.541176 0.368627 0.141176 0.541176 0.368627 
0.141176 0.541176 0.368627 0.141176 0.541176 0.368627 
0.141176 0.541176 0.368627 0.141176 0.541176 0.368627 
0.141176 0.541176 0.368627 0.141176 0.541176 0.368627 
0.141176 0.541176 0.368627 0.141176 0.541176 0.368627 
0.141176 0.541176 0.368627 0.141176 0.541176 0.368627 
0.141176 0.541176 0.368627 0.141176 0.541176 0.368627 
0.141176 0.541176 0.368627 0.141176 0.541176 0.368627 
0.141176 0.541176 0.368627 0.141176 0.541176 0.368627 
0.141176 0.541176 0.368627 0.141176 0.541176 0.368627 
0.141176 0.541176 0.368627 0.141176 0.541176 0.368627 
0.141176 0.541176 0.368627 0.141176 0.541176 0.368627 
0.141176 0.541176 0.368627 0.141176 0.541176 0.368627 
0.141176 0.541176 0.368627 0.141176 0.541176 0.368627 
0.141176 0.541176 0.368627 0.141176 0.541176 0.368627 
0.141176 0.541176 0.368627 0.141176 0.541176 0.368627 
0.141176 0.541176 0.368627 0.141176 0.541176 0.368627 
0.141176 0.541176 0.368627 0.141176 0.541176 0.368627 
0.141176 0.541176 0.368627 0.141176 0.541176 0.368627 
0.141176 0.541176 0.368627 0.141176 0.541176 0.368627 
0.141176 0.541176 0.368627 0.141176 0.541176 0.368627 
0.141176 0.541176 0.368627 0.141176 0.541176 0.368627 
0.141176 0.541176 0.368627 0.141176 0.541176 0.368627 
0.141176 0.541176 0.368627 0.141176 0.541176 0.368627 
0.141176 0.541176 0.368627 0.141176 0.541176 0.368627 
0.141176 0.541176 0.368627 0.141176 0.541176 0.368627 
0.141176 0.541176 0.368627 0.141176 0.541176 0.368627 
0.141176 0.541176 0.368627 0.141176 0.541176 0.368627 
0.141176 0.541176 0.368627 0.141176 0.541176 0.368627 
0.141176 0.541176 0.368627 0.141176 0.541176 0.368627 
0.141176 0.541176 0.368627 0.141176 0.541176 0.368627 
0.141176 0.541176 0.368627 0.141176 0.541176 0.368627 
0.141176 0.541176 0.368627 0.141176 0.541176 0.368627 
0.141176 0.541176 0.368627 0.141176 0.541176 0.368627 
0.141176 0.541176 0.368627 0.141176 0.541176 0.368627 
0.141176 0.541176 0.368627 0.141176 0.541176 0.368627 
0.141176 0.541176 0.368627 0.141176 0.541176 0.368627 
0.141176 0.541176 0.368627 0.141176 0.541176 0.368627 
0.141176 0.541176 0.368627 0.141176 0.541176 0.368627 
0.141176 0.541176 0.368627 0.141176 0.541176 0.368627 
0.141176 0.541176 0.368627 0.141176 0.541176 0.368627 
0.141176 0.541176 0.368627 0.141176 0.541176 0.368627 
0.141176 0.541176 0.368627 0.141176 0.541176 0.368627 
0.141176 0.541176 0.368627 0.141176 0.541176 0.368627 
0.141176 0.541176 0.368627 0.141176 0.541176 0.368627 
0.141176 0.541176 0.368627 0.141176 0.541176 0.368627 
0.141176 0.541176 0.368627 0.141176 0.541176 0.368627 
0.141176 0.541176 0.368627 0.141176 0.541176 0.368627 
0.141176 0.541176 0.368627 0.141176 0.541176 0.368627 
0.141176 0.541176 0.368627 0.141176 0.541176 0.368627 
0.141176 0.541176 0.368627 0.141176 0.541176 0.368627 
0.141176 0.541176 0.368627 0.141176 0.541176 0.368627 
0.141176 0.541176 0.368627 0.141176 0.541176 0.368627 
0.141176 0.541176 0.368627 0.141176 0.541176 0.368627 
0.141176 0.541176 0.368627 0.141176 0.541176 0.368627 
0.141176 0.541176 0.368627 0.141176 0.541176 0.368627 
0.141176 0.541176 0.368627 0.141176 0.541176 0.368627 
0.141176 0.541176 0.368627 0.141176 0.541176 0.368627 
0.141176 0.541176 0.368627 0.141176 0.541176 0.368627 
0.141176 0.541176 0.368627 0.141176 0.541176 0.368627 
0.141176 0.541176 0.368627 0.141176 0.541176 0.368627 
0.141176 0.541176 0.368627 0.141176 0.541176 0.368627 
0.141176 0.541176 0.368627 0.141176 0.541176 0.368627 
0.141176 0.541176 0.368627 0.141176 0.541176 0.368627 
0.141176 0.541176 0.368627 0.141176 0.541176 0.368627 
0.141176 0.541176 0.368627 0.141176 0.541176 0.368627 
0.141176 0.541176 0.368627 0.141176 0.541176 0.368627 
0.141176 0.541176 0.368627 0.141176 0.541176 0.368627 
0.141176 0.541176 0.368627 0.141176 0.541176 0.368627 
0.141176 0.541176 0.368627 0.141176 0.541176 0.368627 
0.141176 0.541176 0.368627 0.141176 0.541176 0.368627 
0.141176 0.541176 0.368627 0.141176 0.541176 0.368627 
0.141176 0.541176 0.368627 0.141176 0.541176 0.368627 
0.141176 0.541176 0.368627 0.141176 0.541176 0.368627 
0.141176 0.541176 0.368627 0.141176 0.541176 0.368627 
0.141176 0.541176 0.368627 0.141176 0.541176 0.368627 
0.141176 0.541176 0.368627 0.141176 0.541176 0.368627 
0.141176 0.541176 0.368627 0.141176 0.541176 0.368627 
0.141176 0.541176 0.368627 0.141176 0.541176 0.368627 
0.141176 0.541176 0.368627 0.141176 0.541176 0.368627 
0.141176 0.541176 0.368627 0.141176 0.541176 0.368627 
0.141176 0.541176 0.368627 0.141176 0.541176 0.368627 
0.141176 0.541176 0.368627 0.141176 0.541176 0.368627 
0.141176 0.541176 0.368627 0.141176 0.541176 0.368627 
0.141176 0.541176 0.368627 0.141176 0.541176 0.368627 
0.141176 0.541176 0.368627 0.141176 0.541176 0.368627 
0.141176 0.541176 0.368627 0.141176 0.541176 0.368627 
0.141176 0.541176 0.368627 0.141176 0.541176 0.368627 
0.141176 0.541176 0.368627 0.141176 0.541176 0.368627 
0.141176 0.541176 0.368627 0.141176 0.541176 0.368627 
0.141176 0.541176 0.368627 0.141176 0.541176 0.368627 
0.141176 0.541176 0.368627 0.141176 0.541176 0.368627 
0.141176 0.541176 0.368627 0.141176 0.541176 0.368627 
0.141176 0.541176 0.368627 0.141176 0.541176 0.368627 
0.141176 0.541176 0.368627 0.141176 0.541176 0.368627 
0.141176 0.541176 0.368627 0.141176 0.541176 0.368627 
0.141176 0.541176 0.368627 0.141176 0.541176 0.368627 
0.141176 0.541176 0.368627 0.141176 0.541176 0.368627 
0.141176 0.541176 0.368627 0.141176 0.541176 0.368627 
0.141176 0.541176 0.368627 0.141176 0.541176 0.368627 
0.141176 0.541176 0.368627 0.141176 0.541176 0.368627 
0.141176 0.541176 0.368627 0.141176 0.541176 0.368627 
0.141176 0.541176 0.368627 0.141176 0.541176 0.368627 
0.141176 0.541176 0.368627 0.141176 0.541176 0.368627 
0.141176 0.541176 0.368627 0.141176 0.541176 0.368627 
0.141176 0.541176 0.368627 0.141176 0.541176 0.368627 
0.141176 0.541176 0.368627 0.141176 0.541176 0.368627 
0.141176 0.541176 0.368627 0.141176 0.541176 0.368627 
0.141176 0.541176 0.368627 0.141176 0.541176 0.368627 
0.141176 0.541176 0.368627 0.141176 0.541176 0.368627 