# vtk DataFile Version 4.2
vtk output
ASCII
DATASET POLYDATA
POINTS 1197 float
130.525 131.99 178.663 129.629 132.614 178.362 127.132 133.355 178.176 
128.921 133.537 178.234 132.1 136.221 179.183 131.11 125.504 179.486 
130.477 124.861 179.581 131.848 125.517 179.726 133.162 125.788 180.224 
133.051 125.564 180.245 133.199 125.642 180.374 129.281 126.373 178.888 
133.282 125.912 180.417 125.517 127.523 178.59 131.521 126.817 179.348 
133.322 126.317 180.515 118.314 131.068 180.012 120.71 131.276 179.057 
119.785 131.96 179.584 119.594 132.628 180.028 132.08 132.424 179.649 
121.294 133.606 179.604 125.212 133.725 178.477 122.264 135.168 180.101 
124.021 136.339 179.909 124.957 136.444 179.485 126.989 136.6 178.887 
131.608 137.944 179.145 132.335 137.87 179.436 132.991 137.185 179.885 
125.417 137.817 180.196 128.62 138.377 179.191 129.574 138.423 179.075 
132.849 138.485 179.803 131.156 139.604 179.407 131.653 139.634 179.466 
128.273 122.982 180.202 123.37 123.357 179.735 130.746 123.714 180.47 
131.087 123.573 180.853 131.491 123.734 181.047 131.834 124.075 180.875 
132.999 125.377 180.487 133.233 125.639 180.65 133.416 126.429 180.928 
115.619 129.564 180.952 115.395 129.496 181.149 115.521 129.646 181.059 
116.09 129.599 180.704 132.392 130.036 180.027 116.894 130.929 180.999 
118.602 132.539 180.797 122.379 135.926 180.967 124.091 137.212 180.749 
134.243 139.777 181.074 133.975 140.818 180.842 130.645 141.68 180.424 
133.126 141.657 180.493 133.862 142 180.921 129.508 142.092 181.071 
132.854 142.061 180.561 134.226 141.919 181.178 121.687 120.011 181.482 
123.14 119.806 181.901 124.642 120.102 181.875 125.084 120.101 182.129 
120.653 120.538 181.102 125.592 120.396 181.957 126.158 120.578 182.123 
126.752 121.002 181.81 128.053 121.698 181.532 128.576 121.867 181.735 
130.476 122.982 181.448 132.266 124.382 181.448 113.111 124.314 181.443 
133.401 126.093 181.082 112.299 126.14 182.354 113.624 126.661 181.477 
133.385 126.987 181.316 114.289 127.444 181.295 114.947 127.312 180.851 
133.377 127.846 181.463 133.204 129.269 181.174 115.019 129.302 181.667 
115.715 130.062 181.421 117.651 132.099 181.584 133.134 134.883 180.562 
123.26 137.035 181.721 128.203 141.362 181.512 135.12 141.946 182.112 
131.442 142.975 181.027 132.113 142.906 180.921 133.498 142.762 181.038 
130.253 143.003 181.489 132.539 144.151 181.623 133.785 143.976 181.686 
121.013 118.919 182.439 121.33 118.746 182.78 121.008 119.463 181.901 
113.602 120.395 181.916 127.317 121.133 182.091 128.542 121.734 182.2 
111.716 122.216 182.205 113.402 122.04 181.547 130.952 123.238 181.801 
112.342 123.695 181.833 111.158 124.16 182.811 133.088 125.498 181.406 
112.147 126.744 183.132 133.405 128.192 182.024 120.944 135.274 182.173 
127.094 140.662 182.007 134.383 144.16 182.031 135.021 143.882 182.365 
132.988 144.566 181.87 134.212 145.444 182.552 111.269 118.022 183.355 
109.207 118.639 184.253 110.347 118.529 183.524 123.475 119.275 183.06 
124.863 119.72 183.272 126.132 120.346 183.351 109.835 120.758 183.51 
127.524 121.152 182.651 110.475 121.428 183.034 129.377 122.277 182.689 
130.501 123.024 182.513 110.322 123.521 183.764 132.123 124.396 182.193 
132.834 125.91 182.8 133.184 127.172 182.699 112.732 127.852 183.77 
133.306 128.189 182.78 133.551 130.659 182.911 134.229 135.498 182.411 
135.713 140.747 183.574 135.589 141.444 183.004 136.078 144.686 183.613 
135.881 145.371 183.448 135.354 145.779 183.148 135.882 146.199 183.582 
133.957 146.705 183.232 133.45 147.245 183.692 133.342 147.616 184.036 
134.278 147.809 183.886 113.104 116.273 184.554 113.191 115.985 185.05 
111.085 116.372 184.533 110.776 116.64 184.385 112.352 116.786 183.954 
113.726 116.705 184.066 126.63 120.681 183.642 132.361 125.328 183.084 
111.464 126.245 184.297 132.862 127.771 183.855 133.1 128.181 183.534 
134.28 135.119 182.809 136.448 144.571 184.162 132.914 147.949 184.647 
137.544 148.069 185.15 134.476 148.409 184.253 108.635 116.185 186.114 
109.494 116.016 185.66 109.307 115.767 186.232 110.728 115.907 185.268 
112.184 115.748 185.426 114.181 115.952 185.592 116.13 116.374 185.691 
108.539 116.825 185.676 108.232 116.952 186.086 119.548 117.462 185.093 
126.053 120.475 184.375 132.381 127.566 184.507 134.528 134.382 185.278 
136.751 143.427 185.284 137.584 149.224 185.198 134.553 149.973 185.333 
138.801 149.829 186.139 138.009 150.685 185.57 137.313 151.979 185.762 
137.842 152.022 185.864 138.372 152.052 186.035 144.455 164.754 186.171 
144.189 164.452 186.371 144.064 165.109 185.951 144.656 164.758 186.26 
144.777 164.931 186.269 143.663 165.735 185.885 144.436 165.596 185.864 
144.647 165.413 185.989 144.807 165.238 186.184 143.924 166.17 185.796 
144.593 165.876 185.919 142.847 167.35 186.161 143.213 167.709 186.011 
143.968 167.097 185.845 144.302 166.982 185.921 143.496 167.936 185.986 
144.486 167.006 186.037 142.965 168.941 186.364 144.155 167.72 186.25 
143.232 169.022 186.228 143.068 169.22 186.412 143.204 169.286 186.276 
143.177 169.346 186.382 143.24 169.346 186.281 108.645 115.826 187.019 
108.167 116.533 186.626 135.855 139.323 185.631 137.227 144.285 186.109 
137.921 146.814 186.02 138.848 148.826 186.681 139.123 151.759 186.457 
136.124 152.743 186.422 136.944 152.789 186.211 138.167 153.286 186.449 
138.743 153.087 186.543 144.234 164.222 186.683 143.31 164.912 186.267 
143.83 164.893 186.085 144.709 164.702 186.476 144.879 165.444 186.34 
142.571 166.078 186.374 144.846 165.919 186.392 144.74 166.494 186.275 
144.59 166.966 186.223 144.714 166.733 186.405 144.42 167.357 186.71 
142.783 169.133 186.76 143.042 169.288 186.694 143.401 169.089 186.456 
143.226 169.292 186.51 143.272 169.311 186.345 108.496 115.804 187.696 
110.172 115.333 187.169 116.911 116.634 186.902 120.485 118.282 186.942 
107.794 118.176 186.918 124.402 121.037 187.072 133.56 133.226 186.519 
134.447 135.216 186.952 134.725 135.929 187.119 140.001 152.605 187.616 
138.054 154.065 186.767 140.673 154.666 188.093 137.228 155.696 187.717 
140.682 156.356 188.076 138.923 156.925 187.747 142.166 163.61 187.255 
143.999 163.825 187.185 144.75 164.737 186.727 144.835 164.986 186.792 
144.239 167.454 187.188 142.256 169.1 187.253 143.537 168.819 186.834 
142.761 169.279 187.457 142.349 169.66 188.194 141.804 170.1 188.411 
141.769 170.295 188.697 108.836 115.543 188.234 107.847 116.627 188.022 
113.525 115.697 187.633 107.661 117.222 188.185 107.607 117.783 187.962 
107.665 118.122 187.532 107.649 118.252 188.068 133.847 135.163 187.855 
133.983 152.438 188.083 136.302 155.555 188.243 140.704 157.072 188.182 
140.994 158.411 188.437 138.962 159.113 188.532 138.691 159.387 188.746 
142.309 162.08 188.043 142.092 161.306 188.415 142.871 162.424 187.987 
143.075 162.126 188.471 141.819 162.624 187.799 143.484 162.624 188.576 
143.882 163.335 188.352 140.495 164.59 188.237 144.504 166.509 187.583 
143.357 168.472 188.207 141.001 170.498 189.273 141.35 170.801 189.382 
141.195 170.897 189.482 108.317 115.856 189.157 108.035 116.192 188.612 
109.245 115.39 188.755 110.388 115.256 188.367 114.308 116.204 188.94 
120.348 119.082 188.377 121.104 120.491 189.221 133.355 134.926 188.267 
140.527 152.522 188.867 139.909 160.176 188.526 142.174 160.042 189.074 
139.357 160.928 188.892 140.621 161.707 188.371 144.396 165.068 188.277 
143.339 167.824 189.043 141.456 170.73 189.587 141.217 170.955 189.7 
141.076 171.006 189.724 111.224 115.412 189.145 116.719 117.462 189.334 
135.476 156.041 189.596 142.083 159.037 189.507 142.548 159.849 190.471 
137.907 160.796 190.011 143.48 162.549 189.79 140.564 171.094 190.524 
140.833 171.172 190.429 141.037 171.066 189.984 108.327 115.995 190.488 
109.067 115.58 190.048 107.756 117.178 190.301 115.906 117.685 190.331 
118.827 134.705 190.691 131.651 151.3 190.784 142.438 159.537 191.176 
137.288 160.955 190.863 137.346 161.831 191.288 143.499 163.481 190.234 
142.253 168.465 190.393 140.133 169.482 190.192 140.246 171.556 191.336 
140.49 171.504 191.159 140.068 172.107 191.866 108.652 115.879 190.782 
109.188 115.747 190.728 108.048 116.652 190.981 108.32 118.904 191.4 
115.43 118.718 191.788 109.216 121.418 191.564 138.225 147.644 191.637 
142.022 157.895 191.432 139.715 168.499 191.548 139.955 169.524 191.453 
140.025 170.899 191.812 139.948 172.243 192.157 140.084 172.126 191.916 
140.012 172.207 192.018 108.531 116.222 191.365 108.278 116.375 191.206 
109.11 116.223 191.602 108.444 117.026 191.662 111.934 125.781 192.756 
142.385 162.195 192.439 140.441 168.043 192.234 139.591 167.628 192.353 
139.958 168.529 191.999 140.235 170.013 191.864 140.071 171.15 192.105 
140.606 170.421 191.681 139.837 172.051 192.501 140.164 171.864 192.078 
139.846 172.361 192.456 139.72 172.553 192.725 139.985 172.247 192.138 
139.673 172.618 192.831 108.791 116.31 191.595 108.782 117.317 192.117 
110.681 116.887 192.402 110.325 117.175 192.661 110.988 117.715 193.066 
108.902 118.282 192.532 108.79 118.652 192.378 114.953 121.639 194.019 
111.265 123.674 193.803 118.842 126.116 194.079 114.518 128.959 193.832 
120.649 136.817 193.963 123.768 141.042 194.14 125.237 143.163 193.507 
139.308 153.068 193.684 141.376 157.14 192.841 141.184 164.808 193.229 
138.601 166.178 193.051 139.728 166.778 193.083 138.728 166.152 193.69 
139.144 166.562 193.17 139.96 171.752 192.365 139.846 172.149 192.58 
139.8 172.348 192.689 139.714 172.464 192.794 139.694 172.61 192.803 
139.635 172.687 192.93 109.765 117.258 192.598 109.252 118.08 192.766 
110.682 118.569 193.532 111.005 119.578 194.074 109.813 120.099 193.581 
109.751 120.461 193.428 111.636 120.552 194.402 113.727 120.819 194.13 
110.609 121.759 193.968 111.522 123.761 194.167 116.838 125.939 195.067 
118.472 127.958 195.13 117.035 131.718 194.898 125.082 136.455 195.332 
131.815 153.69 194.206 138.85 156.519 195.346 141.069 158.578 193.68 
140.654 160.985 194.45 137.23 164.401 194.054 137.391 164.989 194.936 
137.763 165.437 194.608 138.11 165.73 194.184 139.207 165.976 193.86 
[...]
POINT_DATA 1197
COLOR_SCALARS scalars 3
0.141176 0.541176 0.368627 0.141176 0.541176 0.368627 0.141176 0.541176 0.368627 
0.141176 0.541176 0.368627 0.141176 0.541176 0.368627 
0.141176 0.541176 0.368627 0.141176 0.541176 0.368627 
0.141176 0.541176 0.368627 0.141176 0.541176 0.368627 
0.141176 0.541176 0.368627 0.141176 0.541176 0.368627 
0.141176 0.541176 0.368627 0.141176 0.541176 0.368627 
0.141176 0.541176 0.368627 0.141176 0.541176 0.368627 
0.141176 0.541176 0.368627 0.141176 0.541176 0.368627 
0.141176 0.541176 0.368627 0.141176 0.541176 0.368627 
0.141176 0.541176 0.368627 0.141176 0.541176 0.368627 
0.141176 0.541176 0.368627 0.141176 0.541176 0.368627 
0.141176 0.541176 0.368627 0.141176 0.541176 0.368627 
0.141176 0.541176 0.368627 0.141176 0.541176 0.368627 
0.141176 0.541176 0.368627 0.141176 0.541176 0.368627 
0.141176 0.541176 0.368627 0.141176 0.541176 0.368627 
0.141176 0.541176 0.368627 0.141176 0.541176 0.368627 
0.141176 0.541176 0.368627 0.141176 0.541176 0.368627 
0.141176 0.541176 0.368627 0.141176 0.541176 0.368627 
0.141176 0.541176 0.368627 0.141176 0.541176 0.368627 
0.141176 0.541176 0.368627 0.141176 0.541176 0.368627 
0.141176 0.541176 0.368627 0.141176 0.541176 0.368627 
0.141176 0.541176 0.368627 0.141176 0.541176 0.368627 
0.141176 0.541176 0.368627 0.141176 0.541176 0.368627 
0.141176 0.541176 0.368627 0.141176 0.541176 0.368627 
0.141176 0.541176 0.368627 0.141176 0.541176 0.368627 
0.141176 0.541176 0.368627 0.141176 0.541176 0.368627 
0.141176 0.541176 0.368627 0.141176 0.541176 0.368627 
0.141176 0.541176 0.368627 0.141176 0.541176 0.368627 
0.141176 0.541176 0.368627 0.141176 0.541176 0.368627 
0.141176 0.541176 0.368627 0.141176 0.541176 0.368627 
0.141176 0.541176 0.368627 0.141176 0.541176 0.368627 
0.141176 0.541176 0.368627 0.141176 0.541176 0.368627 
0.141176 0.541176 0.368627 0.141176 0.541176 0.368627 
0.141176 0.541176 0.368627 0.141176 0.541176 0.368627 
0.141176 0.541176 0.368627 0.141176 0.541176 0.368627 
0.141176 0.541176 0.368627 0.141176 0.541176 0.368627 
0.141176 0.541176 0.368627 0.141176 0.541176 0.368627 
0.141176 0.541176 0.368627 0.141176 0.541176 0.368627 
0.141176 0.541176 0.368627 0.141176 0.541176 0.368627 
0.141176 0.541176 0.368627 0.141176 0.541176 0.368627 
0.141176 0.541176 0.368627 0.141176 0.541176 0.368627 
0.141176 0.541176 0.368627 0.141176 0.541176 0.368627 
0.141176 0.541176 0.368627 0.141176 0.541176 0.368627 
0.141176 0.541176 0.368627 0.141176 0.541176 0.368627 
0.141176 0.541176 0.368627 0.141176 0.541176 0.368627 
0.141176 0.541176 0.368627 0.141176 0.541176 0.368627 
0.141176 0.541176 0.368627 0.141176 0.541176 0.368627 
0.141176 0.541176 0.368627 0.141176 0.541176 0.368627 
0.141176 0.541176 0.368627 0.141176 0.541176 0.368627 
0.141176 0.541176 0.368627 0.141176 0.541176 0.368627 
0.141176 0.541176 0.368627 0.141176 0.541176 0.368627 
0.141176 0.541176 0.368627 0.141176 0.541176 0.368627 
0.141176 0.541176 0.368627 0.141176 0.541176 0.368627 
0.141176 0.541176 0.368627 0.141176 0.541176 0.368627 
0.141176 0.541176 0.368627 0.141176 0.541176 0.368627 
0.141176 0.541176 0.368627 0.141176 0.541176 0.368627 
0.141176 0.541176 0.368627 0.141176 0.541176 0.368627 
0.141176 0.541176 0.368627 0.141176 0.541176 0.368627 
0.141176 0.541176 0.368627 0.141176 0.541176 0.368627 
0.141176 0.541176 0.368627 0.141176 0.541176 0.368627 
0.141176 0.541176 0.368627 0.141176 0.541176 0.368627 
0.141176 0.541176 0.368627 0.141176 0.541176 0.368627 
0.141176 0.541176 0.368627 0.141176 0.541176 0.368627 
0.141176 0.541176 0.368627 0.141176 0.541176 0.368627 
0.141176 0.541176 0.368627 0.141176 0.541176 0.368627 
0.141176 0.541176 0.368627 0.141176 0.541176 0.368627 
0.141176 0.541176 0.368627 0.141176 0.541176 0.368627 
0.141176 0.541176 0.368627 0.141176 0.541176 0.368627 
0.141176 0.541176 0.368627 0.141176 0.541176 0.368627 
0.141176 0.541176 0.368627 0.141176 0.541176 0.368627 
0.141176 0.541176 0.368627 0.141176 0.541176 0.368627 
0.141176 0.541176 0.368627 0.141176 0.541176 0.368627 
0.141176 0.541176 0.368627 0.141176 0.541176 0.368627 
0.141176 0.541176 0.368627 0.141176 0.541176 0.368627 
0.141176 0.541176 0.368627 0.141176 0.541176 0.368627 
0.141176 0.541176 0.368627 0.141176 0.541176 0.368627 
0.141176 0.541176 0.368627 0.141176 0.541176 0.368627 
0.141176 0.541176 0.368627 0.141176 0.541176 0.368627 
0.141176 0.541176 0.368627 0.141176 0.541176 0.368627 
0.141176 0.541176 0.368627 0.141176 0.541176 0.368627 
0.141176 0.541176 0.368627 0.141176 0.541176 0.368627 
0.141176 0.541176 0.368627 0.141176 0.541176 0.368627 
0.141176 0.541176 0.368627 0.141176 0.541176 0.368627 
0.141176 0.541176 0.368627 0.141176 0.541176 0.368627 
0.141176 0.541176 0.368627 0.141176 0.541176 0.368627 
0.141176 0.541176 0.368627 0.141176 0.541176 0.368627 
0.141176 0.541176 0.368627 0.141176 0.541176 0.368627 
0.141176 0.541176 0.368627 0.141176 0.541176 0.368627 
0.141176 0.541176 0.368627 0.141176 0.541176 0.368627 
0.141176 0.541176 0.368627 0.141176 0.541176 0.368627 
0.141176 0.541176 0.368627 0.141176 0.541176 0.368627 
0.141176 0.541176 0.368627 0.141176 0.541176 0.368627 
0.141176 0.541176 0.368627 0.141176 0.541176 0.368627 
0.141176 0.541176 0.368627 0.141176 0.541176 0.368627 
0.141176 0.541176 0.368627 0.141176 0.541176 0.368627 
0.141176 0.541176 0.368627 0.141176 0.541176 0.368627 
0.141176 0.541176 0.368627 0.141176 0.541176 0.368627 
0.141176 0.541176 0.368627 0.141176 0.541176 0.368627 
0.141176 0.541176 0.368627 0.141176 0.541176 0.368627 
0.141176 0.541176 0.368627 0.141176 0.541176 0.368627 
0.141176 0.541176 0.368627 0.141176 0.541176 0.368627 
0.141176 0.541176 0.368627 0.141176 0.541176 0.368627 
0.141176 0.541176 0.368627 0.141176 0.541176 0.368627 
0.141176 0.541176 0.368627 0.141176 0.541176 0.368627 
0.141176 0.541176 0.368627 0.141176 0.541176 0.368627 
0.141176 0.541176 0.368627 0.141176 0.541176 0.368627 
0.141176 0.541176 0.368627 0.141176 0.541176 0.368627 
0.141176 0.541176 0.368627 0.141176 0.541176 0.368627 
0.141176 0.541176 0.368627 0.141176 0.541176 0.368627 
0.141176 0.541176 0.368627 0.141176 0.541176 0.368627 
0.141176 0.541176 0.368627 0.141176 0.541176 0.368627 
0.141176 0.541176 0.368627 0.141176 0.541176 0.368627 
0.141176 0.541176 0.368627 0.141176 0.541176 0.368627 
0.141176 0.541176 0.368627 0.141176 0.541176 0.368627 
0.141176 0.541176 0.368627 0.141176 0.541176 0.368627 
0.141176 0.541176 0.368627 0.141176 0.541176 0.368627 
0.141176 0.541176 0.368627 0.141176 0.541176 0.368627 
0.141176 0.541176 0.368627 0.141176 0.541176 0.368627 
0.141176 0.541176 0.368627 0.141176 0.541176 0.368627 
0.141176 0.541176 0.368627 0.141176 0.541176 0.368627 
0.141176 0.541176 0.368627 0.141176 0.541176 0.368627 
0.141176 0.541176 0.368627 0.141176 0.541176 0.368627 
0.141176 0.541176 0.368627 0.141176 0.541176 0.368627 
0.141176 0.541176 0.368627 0.141176 0.541176 0.368627 
0.141176 0.541176 0.368627 0.141176 0.541176 0.368627 
0.141176 0.541176 0.368627 0.141176 0.541176 0.368627 
0.141176 0.541176 0.368627 0.141176 0.541176 0.368627 
0.141176 0.541176 0.368627 0.141176 0.541176 0.368627 
0.141176 0.541176 0.368627 0.141176 0.541176 0.368627 
0.141176 0.541176 0.368627 0.141176 0.541176 0.368627 
0.141176 0.541176 0.368627 0.141176 0.541176 0.368627 
0.141176 0.541176 0.368627 0.141176 0.541176 0.368627 
0.141176 0.541176 0.368627 0.141176 0.541176 0.368627 
0.141176 0.541176 0.368627 0.141176 0.541176 0.368627 
0.141176 0.541176 0.368627 0.141176 0.541176 0.368627 
0.141176 0.541176 0.368627 0.141176 0.541176 0.368627 
0.141176 0.541176 0.368627 0.141176 0.541176 0.368627 
0.141176 0.541176 0.368627 0.141176 0.541176 0.368627 
0.141176 0.541176 0.368627 0.141176 0.541176 0.368627 
0.141176 0.541176 0.368627 0.141176 0.541176 0.368627 
0.141176 0.541176 0.368627 0.141176 0.541176 0.368627 
0.141176 0.541176 0.368627 0.141176 0.541176 0.368627 
0.141176 0.541176 0.368627 0.141176 0.541176 0.368627 
0.141176 0.541176 0.368627 0.141176 0.541176 0.368627 
0.141176 0.541176 0.368627 0.141176 0.541176 0.368627 
0.141176 0.541176 0.368627 0.141176 0.541176 0.368627 
0.141176 0.541176 0.368627 0.141176 0.541176 0.368627 
0.141176 0.541176 0.368627 0.141176 0.541176 0.368627 
0.141176 0.541176 0.368627 0.141176 0.541176 0.368627 
0.141176 0.541176 0.368627 0.141176 0.541176 0.368627 
0.141176 0.541176 0.368627 0.141176 0.541176 0.368627 
0.141176 0.541176 0.368627 0.141176 0.541176 0.368627 
0.141176 0.541176 0.368627 0.141176 0.541176 0.368627 
0.141176 0.541176 0.368627 0.141176 0.541176 0.368627 
0.141176 0.541176 0.368627 0.141176 0.541176 0.368627 
0.141176 0.541176 0.368627 0.141176 0.541176 0.368627 
0.141176 0.541176 0.368627 0.141176 0.541176 0.368627 
0.141176 0.541176 0.368627 0.141176 0.541176 0.368627 
0.141176 0.541176 0.368627 0.141176 0.541176 0.368627 
0.141176 0.541176 0.368627 0.141176 0.541176 0.368627 
0.141176 0.541176 0.368627 0.141176 0.541176 0.368627 
0.141176 0.541176 0.368627 0.141176 0.541176 0.368627 
0.141176 0.541176 0.368627 0.141176 0.541176 0.368627 
0.141176 0.541176 0.368627 0.141176 0.541176 0.368627 
0.141176 0.541176 0.368627 0.141176 0.541176 0.368627 
0.141176 0.541176 0.368627 0.141176 0.541176 0.368627 
0.141176 0.541176 0.368627 0.141176 0.541176 0.368627 
0.141176 0.541176 0.368627 0.141176 0.541176 0.368627 
0.141176 0.541176 0.368627 0.141176 0.541176 0.368627 
0.141176 0.541176 0.368627 0.141176 0.541176 0.368627 
0.141176 0.541176 0.368627 0.141176 0.541176 0.368627 
0.141176 0.541176 0.368627 0.141176 0.541176 0.368627 
0.141176 0.541176 0.368627 0.141176 0.541176 0.368627 
0.141176 0.541176 0.368627 0.141176 0.541176 0.368627 
0.141176 0.541176 0.368627 0.141176 0.541176 0.368627 
0.141176 0.541176 0.368627 0.141176 0.541176 0.368627 
0.141176 0.541176 0.368627 0.141176 0.541176 0.368627 
0.141176 0.541176 0.368627 0.141176 0.541176 0.368627 
0.141176 0.541176 0.368627 0.141176 0.541176 0.368627 
0.141176 0.541176 0.368627 0.141176 0.541176 0.368627 
0.141176 0.541176 0.368627 0.141176 0.541176 0.368627 
0.141176 0.541176 0.368627 0.141176 0.541176 0.368627 
0.141176 0.541176 0.368627 0.141176 0.541176 0.368627 
0.141176 0.541176 0.368627 0.141176 0.541176 0.368627 
0.141176 0.541176 0.368627 0.141176 0.541176 0.368627 
0.141176 0.541176 0.368627 0.141176 0.541176 0.368627 
0.141176 0.541176 0.368627 0.141176 0.541176 0.368627 
0.141176 0.541176 0.368627 0.141176 0.541176 0.368627 
0.141176 0.541176 0.368627 0.141176 0.541176 0.368627 
0.141176 0.541176 0.368627 0.141176 0.541176 0.368627 
0.141176 0.541176 0.368627 0.141176 0.541176 0.368627 
0.141176 0.541176 0.368627 0.141176 0.541176 0.368627 
0.141176 0.541176 0.368627 0.141176 0.541176 0.368627 
0.141176 0.541176 0.368627 0.141176 0.541176 0.368627 
0.141176 0.541176 0.368627 0.141176 0.541176 0.368627 
0.141176 0.541176 0.368627 0.141176 0.541176 0.368627 
0.141176 0.541176 0.368627 0.141176 0.541176 0.368627 
0.141176 0.541176 0.368627 0.141176 0.541176 0.368627 
0.141176 0.541176 0.368627 0.141176 0.541176 0.368627 
0.141176 0.541176 0.368627 0.141176 0.541176 0.368627 
0.141176 0.541176 0.368627 0.141176 0.541176 0.368627 
0.141176 0.541176 0.368627 0.141176 0.541176 0.368627 
0.141176 0.541176 0.368627 0.141176 0.541176 0.368627 
0.141176 0.541176 0.368627 0.141176 0.541176 0.368627 
0.141176 0.541176 0.368627 0.141176 0.541176 0.368627 
0.141176 0.541176 0.368627 0.141176 0.541176 0.368627 
0.141176 0.541176 0.368627 0.141176 0.541176 0.368627 
0.141176 0.541176 0.368627 0.141176 0.541176 0.368627 
0.141176 0.541176 0.368627 0.141176 0.541176 0.368627 
0.141176 0.541176 0.368627 0.141176 0.541176 0.368627 
0.141176 0.541176 0.368627 0.141176 0.541176 0.368627 
0.141176 0.541176 0.368627 0.141176 0.541176 0.368627 
0.141176 0.541176 0.368627 0.141176 0.541176 0.368627 
0.141176 0.541176 0.368627 0.141176 0.541176 0.368627 
0.141176 0.541176 0.368627 0.141176 0.541176 0.368627 
0.141176 0.541176 0.368627 0.141176 0.541176 0.368627 
0.141176 0.541176 0.368627 0.141176 0.541176 0.368627 
0.141176 0.541176 0.368627 0.141176 0.541176 0.368627 
0.141176 0.541176 0.368627 0.141176 0.541176 0.368627 
0.141176 0.541176 0.368627 0.141176 0.541176 0.368627 
0.141176 0.541176 0.368627 0.141176 0.541176 0.368627 
0.141176 0.541176 0.368627 0.141176 0.541176 0.368627 
0.141176 0.541176 0.368627 0.141176 0.541176 0.368627 
0.141176 0.541176 0.368627 0.141176 0.541176 0.368627 
0.141176 0.541176 0.368627 0.141176 0.541176 0.368627 
0.141176 0.541176 0.368627 0.141176 0.541176 0.368627 
0.141176 0.541176 0.368627 0.141176 0.541176 0.368627 
0.141176 0.541176 0.368627 0.141176 0.541176 0.368627 
0.141176 0.541176 0.368627 0.141176 0.541176 0.368627 
0.141176 0.541176 0.368627 0.141176 0.541176 0.368627 
0.141176 0.541176 0.368627 0.141176 0.541176 0.368627 
0.141176 0.541176 0.368627 0.141176 0.541176 0.368627 
0.141176 0.541176 0.368627 0.141176 0.541176 0.368627 
0.141176 0.541176 0.368627 0.141176 0.541176 0.368627 
0.141176 0.541176 0.368627 0.141176 0.541176 0.368627 
0.141176 0.541176 0.368627 0.141176 0.541176 0.368627 
0.141176 0.541176 0.368627 0.141176 0.541176 0.368627 
0.141176 0.541176 0.368627 0.141176 0.541176 0.368627 
0.141176 0.541176 0.368627 0.141176 0.541176 0.368627 
0.141176 0.541176 0.368627 0.141176 0.541176 0.368627 
0.141176 0.541176 0.368627 0.141176 0.541176 0.368627 
0.141176 0.541176 0.368627 0.141176 0.541176 0.368627 
0.141176 0.541176 0.368627 0.141176 0.541176 0.368627 
0.141176 0.541176 0.368627 0.141176 0.541176 0.368627 
0.141176 0.541176 0.368627 0.141176 0.541176 0.368627 
0.141176 0.541176 0.368627 0.141176 0.541176 0.368627 
0.141176 0.541176 0.368627 0.141176 0.541176 0.368627 
0.141176 0.541176 0.368627 0.141176 0.541176 0.368627 
0.141176 0.541176 0.368627 0.141176 0.541176 0.368627 
0.141176 0.541176 0.368627 0.141176 0.541176 0.368627 
0.141176 0.541176 0.368627 0.141176 0.541176 0.368627 
0.141176 0.541176 0.368627 0.141176 0.541176 0.368627 
0.141176 0.541176 0.368627 0.141176 0.541176 0.368627 
0.141176 0.541176 0.368627 0.141176 0.541176 0.368627 
0.141176 0.541176 0.368627 0.141176 0.541176 0.368627 
0.141176 0.541176 0.368627 0.141176 0.541176 0.368627 
0.141176 0.541176 0.368627 0.141176 0.541176 0.368627 
0.141176 0.541176 0.368627 0.141176 0.541176 0.368627 
0.141176 0.541176 0.368627 0.141176 0.541176 0.368627 
0.141176 0.541176 0.368627 0.141176 0.541176 0.368627 
0.141176 0.541176 0.368627 0.141176 0.541176 0.368627 
0.141176 0.541176 0.368627 0.141176 0.541176 0.368627 
0.141176 0.541176 0.368627 0.141176 0.541176 0.368627 
0.141176 0.541176 0.368627 0.141176 0.541176 0.368627 
0.141176 0.541176 0.368627 0.141176 0.541176 0.368627 
0.141176 0.541176 0.368627 0.141176 0.541176 0.368627 
0.141176 0.541176 0.368627 0.141176 0.541176 0.368627 
0.141176 0.541176 0.368627 0.141176 0.541176 0.368627 
0.141176 0.541176 0.368627 0.141176 0.541176 0.368627 
0.141176 0.541176 0.368627 0.141176 0.541176 0.368627 
0.141176 0.541176 0.368627 0.141176 0.541176 0.368627 
0.141176 0.541176 0.368627 0.141176 0.541176 0.368627 
0.141176 0.541176 0.368627 0.141176 0.541176 0.368627 
0.141176 0.541176 0.368627 0.141176 0.541176 0.368627 
0.141176 0.541176 0.368627 0.141176 0.541176 0.368627 
0.141176 0.541176 0.368627 0.141176 0.541176 0.368627 
0.141176 0.541176 0.368627 0.141176 0.541176 0.368627 
0.141176 0.541176 0.368627 0.141176 0.541176 0.368627 
0.141176 0.541176 0.368627 0.141176 0.541176 0.368627 
0.141176 0.541176 0.368627 0.141176 0.541176 0.368627 
0.141176 0.541176 0.368627 0.141176 0.541176 0.368627 
0.141176 0.541176 0.368627 0.141176 0.541176 0.368627 
0.141176 0.541176 0.368627 0.141176 0.541176 0.368627 
0.141176 0.541176 0.368627 0.141176 0.541176 0.368627 
0.141176 0.541176 0.368627 0.141176 0.541176 0.368627 
0.141176 0.541176 0.368627 0.141176 0.541176 0.368627 
0.141176 0.541176 0.368627 0.141176 0.541176 0.368627 
0.141176 0.541176 0.368627 0.141176 0.541176 0.368627 
0.141176 0.541176 0.368627 0.141176 0.541176 0.368627 
0.141176 0.541176 0.368627 0.141176 0.541176 0.368627 
0.141176 0.541176 0.368627 0.141176 0.541176 0.368627 
0.141176 0.541176 0.368627 0.141176 0.541176 0.368627 
0.141176 0.541176 0.368627 0.141176 0.541176 0.368627 
0.141176 0.541176 0.368627 0.141176 0.541176 0.368627 
0.141176 0.541176 0.368627 0.141176 0.541176 0.368627 
0.141176 0.541176 0.368627 0.141176 0.541176 0.368627 
0.141176 0.541176 0.368627 0.141176 0.541176 0.368627 
0.141176 0.541176 0.368627 0.141176 0.541176 0.368627 
0.141176 0.541176 0.368627 0.141176 0.541176 0.368627 
0.141176 0.541176 0.368627 0.141176 0.541176 0.368627 
0.141176 0.541176 0.368627 0.141176 0.541176 0.368627 
0.141176 0.541176 0.368627 0.141176 0.541176 0.368627 
0.141176 0.541176 0.368627 0.141176 0.541176 0.368627 
0.141176 0.541176 0.368627 0.141176 0.541176 0.368627 
0.141176 0.541176 0.368627 0.141176 0.541176 0.368627 
0.141176 0.541176 0.368627 0.141176 0.541176 0.368627 
0.141176 0.541176 0.368627 0.141176 0.541176 0.368627 
0.141176 0.541176 0.368627 0.141176 0.541176 0.368627 
0.141176 0.541176 0.368627 0.141176 0.541176 0.368627 
0.141176 0.541176 0.368627 0.141176 0.541176 0.368627 
0.141176 0.541176 0.368627 0.141176 0.541176 0.368627 
0.141176 0.541176 0.368627 0.141176 0.541176 0.368627 
0.141176 0.541176 0.368627 0.141176 0.541176 0.368627 
0.141176 0.541176 0.368627 0.141176 0.541176 0.368627 
0.141176 0.541176 0.368627 0.141176 0.541176 0.368627 
0.141176 0.541176 0.368627 0.141176 0.541176 0.368627 
0.141176 0.541176 0.368627 0.141176 0.541176 0.368627 
0.141176 0.541176 0.368627 0.141176 0.541176 0.368627 
0.141176 0.541176 0.368627 0.141176 0.541176 0.368627 
0.141176 0.541176 0.368627 0.141176 0.541176 0.368627 
0.141176 0.541176 0.368627 0.141176 0.541176 0.368627 
0.141176 0.541176 0.368627 0.141176 0.541176 0.368627 
0.141176 0.541176 0.368627 0.141176 0.541176 0.368627 
0.141176 0.541176 0.368627 0.141176 0.541176 0.368627 
0.141176 0.541176 0.368627 0.141176 0.541176 0.368627 
0.141176 0.541176 0.368627 0.141176 0.541176 0.368627 
0.141176 0.541176 0.368627 0.141176 0.541176 0.368627 
0.141176 0.541176 0.368627 0.141176 0.541176 0.368627 
0.141176 0.541176 0.368627 0.141176 0.541176 0.368627 
0.141176 0.541176 0.368627 0.141176 0.541176 0.368627 
0.141176 0.541176 0.368627 0.141176 0.541176 0.368627 
0.141176 0.541176 0.368627 0.141176 0.541176 0.368627 
0.141176 0.541176 0.368627 0.141176 0.541176 0.368627 
0.141176 0.541176 0.368627 0.141176 0.541176 0.368627 
0.141176 0.541176 0.368627 0.141176 0.541176 0.368627 
0.141176 0.541176 0.368627 0.141176 0.541176 0.368627 
0.141176 0.541176 0.368627 0.141176 0.541176 0.368627 
0.141176 0.541176 0.368627 0.141176 0.541176 0.368627 
0.141176 0.541176 0.368627 0.141176 0.541176 0.368627 
0.141176 0.541176 0.368627 0.141176 0.541176 0.368627 
0.141176 0.541176 0.368627 0.141176 0.541176 0.368627 
0.141176 0.541176 0.368627 0.141176 0.541176 0.368627 
0.141176 0.541176 0.368627 0.141176 0.541176 0.368627 
0.141176 0.541176 0.368627 0.141176 0.541176 0.368627 
0.141176 0.541176 0.368627 0.141176 0.541176 0.368627 
0.141176 0.541176 0.368627 0.141176 0.541176 0.368627 
0.141176 0.541176 0.368627 0.141176 0.541176 0.368627 
0.141176 0.541176 0.368627 0.141176 0.541176 0.368627 
0.141176 0.541176 0.368627 0.141176 0.541176 0.368627 
0.141176 0.541176 0.368627 0.141176 0.541176 0.368627 
0.141176 0.541176 0.368627 0.141176 0.541176 0.368627 
0.141176 0.541176 0.368627 0.141176 0.541176 0.368627 
0.141176 0.541176 0.368627 0.141176 0.541176 0.368627 
0.141176 0.541176 0.368627 0.141176 0.541176 0.368627 
0.141176 0.541176 0.368627 0.141176 0.541176 0.368627 
0.141176 0.541176 0.368627 0.141176 0.541176 0.368627 
0.141176 0.541176 0.368627 0.141176 0.541176 0.368627 
0.141176 0.541176 0.368627 0.141176 0.541176 0.368627 
0.141176 0.541176 0.368627 0.141176 0.541176 0.368627 
0.141176 0.541176 0.368627 0.141176 0.541176 0.368627 
0.141176 0.541176 0.368627 0.141176 0.541176 0.368627 
0.141176 0.541176 0.368627 0.141176 0.541176 0.368627 