# vtk DataFile Version 4.2
vtk output
ASCII
DATASET POLYDATA
POINTS 212 float
197.442 256.043 226.295 195.928 257.485 226.105 197.335 257.286 225.986 
195.197 259.782 225.813 196.962 258.944 225.77 197.675 258.128 226.011 
197.767 259.244 226.141 195.325 263.123 225.564 194.673 264.047 225.762 
195.301 264.963 225.618 195.726 264.667 225.605 196.24 264.349 225.701 
197.152 263.562 226.257 194.236 265.626 226.139 194.041 265.815 226.395 
194.703 266.413 225.994 195.051 266.249 225.853 196.002 265.933 225.871 
196.475 265.66 226.035 194.243 266.832 226.463 194.987 266.786 226.05 
194.215 267.212 226.69 194.378 267.545 226.829 195.812 267.131 226.359 
194.742 267.618 226.706 195.188 267.565 226.61 195.592 267.427 226.542 
200 248.009 226.017 200 248.009 226.017 200 248.009 226.017 
200 248.009 226.017 200 248.009 226.017 199.687 252.054 227.18 
199.709 251.814 227.274 199.127 253.402 227.011 198.319 254.004 227.207 
196.846 256.042 226.533 195.77 257.104 226.414 196.22 256.333 226.738 
198.081 257.096 226.254 198.883 256.161 226.839 198.019 257.801 226.217 
198.731 257.15 226.887 194.639 260.127 226.037 194.246 260.071 226.356 
198.036 259.681 226.52 194.285 260.848 226.21 194.05 260.345 226.573 
194.546 261.682 225.912 194.035 262.654 226.335 193.782 262.785 226.781 
194.297 263.516 226.028 194.036 264.255 226.312 197.346 264.004 226.737 
193.812 265.582 226.843 196.86 266.337 226.616 196.957 266.333 226.81 
194.285 267.721 227.218 195.999 267.359 226.752 194.997 267.964 227.111 
202.171 246.352 227.599 202.205 246.233 227.597 202.21 246.253 227.601 
202.036 246.666 227.615 202.115 246.554 227.609 200 248.009 226.017 
201.197 248.689 227.635 201.156 248.44 227.724 201.439 248.746 227.688 
200.369 250.705 227.446 201.033 249.82 227.584 199.935 251.232 227.478 
200.766 251.075 227.632 200.365 252.303 227.531 200.568 251.787 227.645 
199.543 253.9 227.08 197.263 255.039 227.349 199.702 254.32 227.426 
199.926 253.738 227.572 194.763 257.198 227.281 194.522 257.459 227.354 
195.014 257.115 227.014 195.707 256.359 227.45 199.228 255.594 227.125 
199.11 256.671 227.409 198.289 259.623 226.944 198.462 259.168 227.249 
198.096 260.429 226.961 193.646 263.965 227.317 193.682 265.772 227.453 
193.739 266.524 227.596 196.87 266.699 227.525 196.345 267.309 227.191 
196.604 267.109 227.588 194.209 267.819 227.691 195.898 267.689 227.265 
194.586 268.049 227.429 194.872 268.228 227.46 194.759 268.284 227.708 
195.086 268.223 227.461 195.425 268.029 227.424 194.964 268.328 227.638 
202.206 246.229 227.606 202.17 246.282 227.611 202.181 246.325 227.62 
202.101 246.412 227.638 201.801 247.007 227.725 201.98 246.965 227.686 
201.481 247.613 227.852 201.349 249.057 227.78 201.518 248.441 227.799 
199.922 251.131 227.724 199.535 251.889 227.563 200.718 251.346 227.747 
198.705 253.325 227.789 197.715 254.502 227.657 200.111 253.223 227.696 
194.601 257.386 227.877 194.414 257.602 227.616 195.056 257.022 228.004 
194.033 258.814 227.509 199.038 257.01 227.64 198.439 259.522 227.547 
198.404 259.593 227.827 197.513 263.709 227.816 193.654 265.177 227.914 
197.137 265.58 228.127 193.797 266.775 228.154 193.865 267.298 227.998 
194.283 267.929 228.064 195.78 267.865 227.674 194.74 268.281 228.007 
195.172 268.267 227.715 202.149 246.34 227.631 201.339 247.748 227.923 
201.288 247.818 227.941 201.79 247.143 227.764 201.164 248.165 227.892 
201.596 248.007 227.819 200.732 250.05 228.026 199.248 252.612 227.944 
199.359 255.061 228.06 194.659 257.576 228.212 196.195 256.099 228.177 
194.036 259.705 228.1 198.386 258.846 228.275 198.259 259.975 228.008 
197.683 261.948 228.208 197.157 264.807 228.488 193.906 266.598 228.601 
196.875 266.431 228.32 196.903 266.036 228.512 196.239 267.434 228.115 
196.449 267.084 228.31 194.026 267.49 228.403 194.549 268.066 228.243 
194.812 268.212 228.232 195.141 268.25 228.024 194.927 268.311 228.085 
201.234 247.958 227.937 201.145 248.268 227.94 200.611 249.719 227.941 
198.228 254.578 228.419 198.829 254.341 228.39 198.653 255.268 228.558 
198.168 255.79 228.768 195.593 257 228.643 198.005 257.273 228.884 
194.317 259.041 228.46 194.728 259.784 229.047 195.033 259.321 229.146 
197.796 259.025 228.86 197.741 260.039 228.695 194.026 264.636 228.899 
194.315 264.282 229.166 194.098 266.767 228.851 196.633 266.162 228.81 
194.154 267.177 228.807 196.38 266.475 228.871 194.152 267.471 228.635 
194.346 267.67 228.662 195.884 267.178 228.765 194.504 267.862 228.537 
194.872 267.939 228.503 195.256 267.686 228.655 197.155 256.036 228.751 
197.797 255.679 228.768 195.612 259.129 229.29 196.915 258.199 229.236 
195.024 261.066 229.347 195.585 260.711 229.474 194.833 262.982 229.398 
195.279 263.513 229.536 195.826 263.165 229.542 196.369 262.852 229.41 
194.672 264.857 229.369 196.742 263.495 229.174 194.796 265.561 229.402 
195.163 265.213 229.498 196.144 264.614 229.419 194.681 266.746 229.179 
195.07 266.491 229.305 194.352 267.4 228.843 194.65 267.25 228.997 
195.394 266.75 229.188 200 248.009 226.017 200 248.009 226.017 
199.702 254.32 227.426 199.926 253.738 227.572 201.481 247.613 227.852 
200.111 253.223 227.696 201.288 247.818 227.941 
POLYGONS 402 1608
3 0 1 2 
3 2 1 4 
3 4 1 3 
3 5 2 4 
3 6 4 3 
3 6 5 4 
3 7 3 48 
3 6 3 7 
3 6 7 11 
3 10 7 8 
3 11 7 10 
3 12 6 11 
3 18 12 11 
3 9 8 13 
3 10 8 9 
3 11 10 9 
3 18 11 9 
3 55 12 18 
3 13 14 15 
3 9 13 16 
3 16 13 15 
3 17 9 16 
3 18 9 17 
3 19 15 14 
3 21 19 14 
3 16 15 20 
3 17 16 23 
3 23 16 20 
3 18 17 23 
3 23 55 18 
3 19 21 15 
3 20 15 24 
3 24 15 21 
3 23 20 24 
3 21 22 24 
3 23 24 25 
3 26 23 25 
3 27 28 29 
3 205 27 30 
3 27 29 31 
3 30 27 31 
3 34 32 33 
3 35 34 33 
3 34 35 36 
3 75 32 34 
3 0 2 34 
3 0 34 36 
3 83 34 2 
3 83 75 34 
3 37 82 81 
3 37 0 38 
3 82 37 38 
3 0 36 38 
3 83 2 39 
3 37 81 1 
3 0 37 1 
3 40 83 39 
3 1 80 3 
3 81 80 1 
3 39 2 41 
3 42 40 39 
3 80 44 3 
3 2 5 41 
3 42 39 41 
3 42 41 5 
3 42 5 6 
3 44 43 3 
3 44 47 46 
3 44 46 43 
3 43 46 3 
3 48 46 47 
3 50 48 47 
3 3 46 48 
3 49 48 50 
3 51 48 49 
3 48 51 7 
3 88 49 50 
3 51 49 88 
3 7 51 8 
3 6 12 124 
3 8 52 13 
3 8 51 52 
3 51 88 52 
3 124 12 53 
3 13 52 88 
3 54 13 88 
3 12 55 53 
3 14 13 54 
3 57 22 21 
3 56 55 23 
3 24 22 57 
3 25 24 59 
3 24 57 59 
3 58 23 26 
3 25 58 26 
3 61 60 62 
3 63 103 67 
3 61 103 63 
3 61 63 60 
3 60 63 64 
3 64 62 60 
3 63 67 66 
3 64 63 66 
3 109 62 64 
3 28 65 29 
3 65 205 30 
3 65 206 29 
3 30 206 65 
3 68 109 64 
3 69 66 67 
3 70 66 69 
3 64 66 70 
3 70 68 64 
3 32 69 71 
3 32 71 33 
3 71 69 67 
3 70 69 75 
3 75 69 32 
3 72 68 70 
3 70 75 74 
3 74 72 70 
3 33 115 35 
3 73 74 75 
3 35 115 36 
3 78 73 75 
3 77 78 75 
3 79 119 80 
3 119 79 81 
3 76 38 36 
3 82 38 76 
3 83 77 75 
3 81 79 80 
3 83 40 84 
3 84 77 83 
3 40 42 84 
3 42 6 86 
3 42 86 121 
3 42 121 84 
3 120 44 80 
3 6 45 85 
3 85 86 6 
3 47 44 120 
3 85 45 87 
3 45 6 87 
3 47 120 50 
3 6 124 87 
3 88 125 54 
3 125 89 54 
3 53 55 124 
3 124 55 56 
3 54 89 14 
3 89 90 14 
3 56 91 150 
3 14 90 21 
3 90 128 21 
3 91 92 93 
3 128 57 21 
3 94 57 128 
3 23 92 91 
3 23 58 92 
3 58 95 92 
3 56 23 91 
3 57 94 96 
3 97 96 98 
3 97 59 96 
3 59 57 96 
3 99 59 97 
3 99 100 59 
3 100 25 59 
3 95 58 25 
3 100 95 25 
3 97 98 101 
3 99 97 101 
3 61 102 103 
3 102 61 62 
3 104 102 62 
3 67 103 105 
3 67 105 106 
3 104 62 107 
3 106 108 67 
3 62 109 107 
3 108 137 67 
3 107 109 110 
3 109 68 113 
3 71 111 112 
3 33 71 112 
3 111 71 67 
3 68 72 113 
3 33 112 115 
3 112 114 115 
3 73 113 74 
3 113 72 74 
3 113 73 116 
3 115 76 36 
3 143 76 115 
3 208 207 210 
3 116 73 78 
3 119 117 118 
3 80 119 118 
3 82 143 81 
3 81 143 119 
3 143 82 76 
3 77 84 141 
3 80 118 120 
3 121 141 84 
3 86 145 121 
3 122 146 123 
3 122 123 145 
3 122 145 86 
3 85 146 122 
3 85 87 146 
3 86 85 122 
3 120 88 50 
3 125 149 89 
3 124 56 148 
3 148 56 126 
3 89 149 90 
3 149 127 90 
3 126 56 150 
3 127 128 90 
3 92 152 93 
3 150 91 93 
3 152 150 93 
3 128 154 94 
3 154 129 94 
3 92 95 152 
3 152 95 130 
3 94 129 131 
3 96 94 131 
3 131 98 96 
3 100 132 157 
3 99 132 100 
3 130 95 100 
3 157 130 100 
3 98 131 158 
3 101 98 158 
3 132 99 101 
3 158 132 101 
3 102 133 103 
3 102 104 133 
3 105 103 133 
3 105 133 136 
3 136 133 104 
3 106 105 136 
3 104 107 136 
3 209 134 135 
3 108 211 137 
3 211 108 160 
3 209 134 135 
3 106 136 108 
3 107 108 136 
3 138 160 108 
3 107 138 108 
3 107 110 138 
3 137 161 111 
3 67 137 111 
3 110 109 138 
3 111 161 140 
3 112 111 140 
3 141 139 138 
3 109 141 138 
3 109 113 141 
3 112 140 114 
3 140 162 114 
3 114 162 143 
3 115 114 143 
3 141 113 116 
3 77 141 116 
3 117 119 142 
3 118 117 142 
3 166 142 119 
3 166 119 143 
3 168 118 142 
3 166 168 142 
3 168 120 118 
3 121 145 141 
3 120 144 88 
3 146 87 147 
3 87 124 147 
3 147 124 148 
3 88 173 125 
3 148 126 176 
3 150 151 126 
3 126 151 176 
3 128 127 177 
3 177 127 149 
3 150 152 153 
3 128 177 154 
3 180 129 154 
3 129 180 155 
3 131 129 155 
3 156 131 155 
3 152 130 157 
3 158 152 157 
3 131 156 158 
3 157 132 158 
3 159 160 137 
3 211 159 137 
3 159 211 160 
3 161 137 160 
3 161 160 139 
3 160 138 139 
3 161 139 140 
3 140 139 163 
3 139 141 163 
3 140 163 162 
3 143 162 185 
3 164 162 163 
3 141 164 163 
3 141 165 164 
3 141 167 165 
3 141 145 167 
3 168 169 144 
3 120 168 144 
3 169 168 170 
3 145 171 167 
3 169 173 144 
3 145 123 171 
3 146 172 171 
3 123 146 171 
3 144 173 88 
3 146 147 172 
3 147 148 176 
3 125 173 149 
3 173 175 149 
3 149 175 177 
3 150 181 178 
3 153 181 150 
3 176 151 150 
3 178 176 150 
3 154 177 179 
3 179 180 154 
3 152 184 181 
3 181 153 152 
3 155 180 182 
3 156 183 158 
3 156 155 183 
3 155 182 183 
3 183 184 158 
3 184 152 158 
3 162 186 185 
3 162 164 186 
3 164 165 186 
3 143 185 166 
3 165 167 185 
3 186 165 185 
3 166 170 168 
3 170 166 185 
3 185 188 170 
3 188 187 170 
3 167 171 188 
3 185 167 188 
3 170 187 169 
3 169 187 190 
3 188 190 187 
3 190 189 169 
3 171 172 188 
3 189 191 173 
3 169 189 173 
3 190 194 189 
3 194 191 189 
3 188 194 190 
3 172 147 194 
3 188 172 194 
3 173 191 174 
3 192 174 191 
3 193 192 191 
3 194 193 191 
3 192 198 174 
3 198 195 174 
3 193 199 192 
3 199 198 192 
3 194 196 193 
3 196 199 193 
3 147 196 194 
3 147 176 196 
3 173 174 195 
3 173 195 197 
3 198 197 195 
3 196 176 199 
3 173 197 175 
3 201 175 197 
3 199 197 198 
3 201 200 175 
3 200 177 175 
3 199 204 197 
3 204 201 197 
3 199 176 204 
3 200 203 177 
3 203 202 177 
3 204 200 201 
3 176 178 204 
3 177 202 179 
3 180 179 202 
3 180 202 203 
3 200 184 203 
3 184 180 203 
3 204 181 200 
3 181 184 200 
3 178 181 204 
3 183 182 180 
3 184 183 180 

POINT_DATA 212
COLOR_SCALARS scalars 3
1 0.333333 0.278431 1 0.333333 0.278431 1 0.333333 0.278431 
1 0.333333 0.278431 1 0.333333 0.278431 
1 0.333333 0.278431 1 0.333333 0.278431 
1 0.333333 0.278431 1 0.333333 0.278431 
1 0.333333 0.278431 1 0.333333 0.278431 
1 0.333333 0.278431 1 0.333333 0.278431 
1 0.333333 0.278431 1 0.333333 0.278431 
1 0.333333 0.278431 1 0.333333 0.278431 
1 0.333333 0.278431 1 0.333333 0.278431 
1 0.333333 0.278431 1 0.333333 0.278431 
1 0.333333 0.278431 1 0.333333 0.278431 
1 0.333333 0.278431 1 0.333333 0.278431 
1 0.333333 0.278431 1 0.333333 0.278431 
1 0.333333 0.278431 1 0.333333 0.278431 
1 0.333333 0.278431 1 0.333333 0.278431 
1 0.333333 0.278431 1 0.333333 0.278431 
1 0.333333 0.278431 1 0.333333 0.278431 
1 0.333333 0.278431 1 0.333333 0.278431 
1 0.333333 0.278431 1 0.333333 0.278431 
1 0.333333 0.278431 1 0.333333 0.278431 
1 0.333333 0.278431 1 0.333333 0.278431 
1 0.333333 0.278431 1 0.333333 0.278431 
1 0.333333 0.278431 1 0.333333 0.278431 
1 0.333333 0.278431 1 0.333333 0.278431 
1 0.333333 0.278431 1 0.333333 0.278431 
1 0.333333 0.278431 1 0.333333 0.278431 
1 0.333333 0.278431 1 0.333333 0.278431 
1 0.333333 0.278431 1 0.333333 0.278431 
1 0.333333 0.278431 1 0.333333 0.278431 
1 0.333333 0.278431 1 0.333333 0.278431 
1 0.333333 0.278431 1 0.333333 0.278431 
1 0.333333 0.278431 1 0.333333 0.278431 
1 0.333333 0.278431 1 0.333333 0.278431 
1 0.333333 0.278431 1 0.333333 0.278431 
1 0.333333 0.278431 1 0.333333 0.278431 
1 0.333333 0.278431 1 0.333333 0.278431 
1 0.333333 0.278431 1 0.333333 0.278431 
1 0.333333 0.278431 1 0.333333 0.278431 
1 0.333333 0.278431 1 0.333333 0.278431 
1 0.333333 0.278431 1 0.333333 0.278431 
1 0.333333 0.278431 1 0.333333 0.278431 
1 0.333333 0.278431 1 0.333333 0.278431 
1 0.333333 0.278431 1 0.333333 0.278431 
1 0.333333 0.278431 1 0.333333 0.278431 
1 0.333333 0.278431 1 0.333333 0.278431 
1 0.333333 0.278431 1 0.333333 0.278431 
1 0.333333 0.278431 1 0.333333 0.278431 
1 0.333333 0.278431 1 0.333333 0.278431 
1 0.333333 0.278431 1 0.333333 0.278431 
1 0.333333 0.278431 1 0.333333 0.278431 
1 0.333333 0.278431 1 0.333333 0.278431 
1 0.333333 0.278431 1 0.333333 0.278431 
1 0.333333 0.278431 1 0.333333 0.278431 
1 0.333333 0.278431 1 0.333333 0.278431 
1 0.333333 0.278431 1 0.333333 0.278431 
1 0.333333 0.278431 1 0.333333 0.278431 
1 0.333333 0.278431 1 0.333333 0.278431 
1 0.333333 0.278431 1 0.333333 0.278431 
1 0.333333 0.278431 1 0.333333 0.278431 
1 0.333333 0.278431 1 0.333333 0.278431 
1 0.333333 0.278431 1 0.333333 0.278431 
1 0.333333 0.278431 1 0.333333 0.278431 
1 0.333333 0.278431 1 0.333333 0.278431 
1 0.333333 0.278431 1 0.333333 0.278431 
1 0.333333 0.278431 1 0.333333 0.278431 
1 0.333333 0.278431 1 0.333333 0.278431 
1 0.333333 0.278431 1 0.333333 0.278431 
1 0.333333 0.278431 1 0.333333 0.278431 
1 0.333333 0.278431 1 0.333333 0.278431 
1 0.333333 0.278431 1 0.333333 0.278431 
1 0.333333 0.278431 1 0.333333 0.278431 
1 0.333333 0.278431 1 0.333333 0.278431 
1 0.333333 0.278431 1 0.333333 0.278431 
1 0.333333 0.278431 1 0.333333 0.278431 
1 0.333333 0.278431 1 0.333333 0.278431 
1 0.333333 0.278431 1 0.333333 0.278431 
1 0.333333 0.278431 1 0.333333 0.278431 
1 0.333333 0.278431 1 0.333333 0.278431 
1 0.333333 0.278431 1 0.333333 0.278431 
1 0.333333 0.278431 1 0.333333 0.278431 
1 0.333333 0.278431 1 0.333333 0.278431 
1 0.333333 0.278431 1 0.333333 0.278431 
1 0.333333 0.278431 1 0.333333 0.278431 
1 0.333333 0.278431 1 0.333333 0.278431 
1 0.333333 0.278431 1 0.333333 0.278431 
1 0.333333 0.278431 1 0.333333 0.278431 
1 0.333333 0.278431 1 0.333333 0.278431 
1 0.333333 0.278431 1 0.333333 0.278431 
1 0.333333 0.278431 1 0.333333 0.278431 
1 0.333333 0.278431 1 0.333333 0.278431 
1 0.333333 0.278431 1 0.333333 0.278431 
1 0.333333 0.278431 1 0.333333 0.278431 
1 0.333333 0.278431 1 0.333333 0.278431 
1 0.333333 0.278431 1 0.333333 0.278431 
1 0.333333 0.278431 1 0.333333 0.278431 
1 0.333333 0.278431 1 0.333333 0.278431 
1 0.333333 0.278431 1 0.333333 0.278431 
1 0.333333 0.278431 1 0.333333 0.278431 
1 0.333333 0.278431 1 0.333333 0.278431 
1 0.333333 0.278431 1 0.333333 0.278431 
1 0.333333 0.278431 1 0.333333 0.278431 
1 0.333333 0.278431 1 0.333333 0.278431 
1 0.333333 0.278431 1 0.333333 0.278431 
1 0.333333 0.278431 1 0.333333 0.278431 
1 0.333333 0.278431 1 0.333333 0.278431 
1 0.333333 0.278431 
NORMALS Normals float
-0.264361 -0.360324 -0.894584 -0.380672 -0.282149 -0.880614 0.203539 -0.154023 -0.966876 
-0.323547 -0.111818 -0.939582 0.136663 0.0382616 -0.989878 0.550852 0.136817 -0.823312 
0.609282 0.141995 -0.780136 -0.132948 -0.0346519 -0.990517 -0.413395 0.00709268 -0.910524 
0.0502014 0.213036 -0.975754 0.127392 0.224589 -0.966091 0.417422 0.210811 -0.883922 
0.820997 0.0817959 -0.565043 -0.670926 0.0492366 -0.739888 -0.850615 0.1644 -0.499426 
-0.452088 0.320419 -0.832435 -0.0962626 0.240941 -0.965754 0.272405 0.254518 -0.92791 
0.487226 0.216526 -0.846007 -0.657535 0.285816 -0.697106 -0.120867 0.458483 -0.880446 
-0.728732 0.407395 -0.550436 -0.494402 0.652091 -0.574755 0.400784 0.529277 -0.747822 
-0.264366 0.626154 -0.733513 0.15849 0.753332 -0.638257 0.263981 0.763972 -0.588778 
0 0 -1 -0.83205 -0.5547 0 -1 0 2.78775e-08 
1 0 2.78775e-08 0 0.5547 -0.83205 -0.169874 -0.266243 -0.948819 
-0.619267 -0.439178 -0.65087 -0.148882 -0.265929 -0.952426 -0.644986 -0.521669 -0.558439 
-0.502271 -0.551032 -0.666399 -0.502985 -0.548998 -0.667538 -0.530028 -0.54743 -0.647604 
0.494201 -0.0808159 -0.865583 0.726679 0.0876472 -0.681363 0.623516 0.164216 -0.764369 
0.824214 0.24086 -0.5125 -0.514616 -0.156415 -0.843033 -0.720183 -0.250001 -0.647175 
0.746502 0.203978 -0.633347 -0.666454 -0.0250551 -0.745125 -0.884572 -0.0640799 -0.461981 
-0.677559 -0.0603077 -0.732992 -0.838074 -0.0227045 -0.545084 -0.923399 -0.0704475 -0.37732 
-0.689533 -0.02996 -0.723634 -0.811305 -0.000840809 -0.584623 0.961017 0.0518734 -0.27158 
-0.941654 0.0127857 -0.33634 0.815889 0.294712 -0.497463 0.932673 0.324398 -0.157756 
-0.619592 0.670277 -0.408453 0.486423 0.738049 -0.467629 -0.0673043 0.786932 -0.613357 
0.154575 0.0737173 -0.985227 -0.128202 -0.279915 -0.951426 0.976904 0.180056 -0.11506 
-0.322502 -0.100408 -0.941228 0.540547 0.182635 -0.821251 0 0 1 
-0.228961 -0.125446 -0.965319 -0.703744 -0.330952 -0.628661 0.911733 0.267143 -0.312055 
-0.13338 -0.187789 -0.973111 0.407903 0.0872826 -0.908844 -0.657242 -0.433585 -0.616472 
0.766876 0.217469 -0.603828 0.918357 0.30782 -0.248731 0.798113 0.250461 -0.547983 
0.517694 0.0785926 -0.851948 -0.598968 -0.730018 -0.329107 0.92911 0.245824 -0.276269 
0.864092 0.244277 -0.440083 -0.63687 -0.754049 -0.160641 -0.780788 -0.453205 -0.430088 
-0.670223 -0.64435 -0.368257 -0.678498 -0.707089 -0.199161 0.589205 0.0221429 -0.80768 
0.934898 0.243665 -0.258054 0.925579 0.182113 -0.33187 0.959981 0.151016 -0.23586 
0.890407 0.294432 -0.34711 -0.981591 -0.0166815 -0.190265 -0.988138 0.10908 -0.108094 
-0.989565 0.1089 -0.0943445 0.852317 0.488188 -0.187691 0.72662 0.612736 -0.310768 
0.788938 0.613766 0.0294777 -0.747158 0.654555 -0.115381 0.536566 0.791762 -0.291908 
-0.546799 0.753108 -0.36584 -0.221928 0.832119 -0.508257 -0.402343 0.901879 -0.157274 
0.247501 0.846574 -0.471227 0.473708 0.818153 -0.325924 0.0292928 0.975142 -0.219634 
0.242091 -0.468346 0.849732 -0.85419 -0.484591 -0.188497 0.542997 0.0564959 0.837832 
-0.737034 -0.460057 0.495104 -0.772454 -0.474083 0.422564 0.708023 0.17211 0.684895 
-0.239928 -0.317914 0.91726 0.881259 0.26231 0.393162 0.637884 0.178858 0.749075 
-0.904168 -0.425574 -0.0369625 -0.855868 -0.516041 0.0345337 0.924438 0.312291 0.218837 
-0.72107 -0.561095 0.406486 -0.73805 -0.639511 -0.215194 0.947135 0.32082 0.00329212 
-0.746751 -0.633564 0.202382 -0.870165 -0.477872 0.120215 -0.630537 -0.757676 0.168375 
-0.976403 -0.202223 -0.0757873 0.965969 0.25773 -0.0219012 0.9739 0.2257 -0.0240688 
0.917103 0.211263 0.338068 0.979538 0.131012 -0.152776 -0.995933 -0.00809903 0.0897353 
0.953336 0.0919825 0.287557 -0.965514 0.121836 0.230085 -0.948218 0.317561 0.00612006 
-0.681943 0.708391 0.18203 0.58481 0.809399 -0.0535738 -0.517036 0.849604 0.104147 
0.439317 0.895753 -0.0680243 -0.157483 -0.266952 0.950755 -0.615151 -0.25476 -0.746114 
-0.615151 -0.25476 -0.746114 0.0934622 -0.114745 0.988989 -0.916686 -0.372414 -0.144896 
0.416014 0.0815888 0.905691 -0.00375821 -0.0621069 0.998062 -0.693476 -0.417324 0.587309 
0.772293 0.187725 0.606896 -0.737176 -0.440413 0.512453 -0.656871 -0.680299 0.325137 
-0.919101 -0.0907134 0.383437 0.897278 0.168741 0.407945 0.937136 0.261383 0.231205 
0.85225 0.129343 0.506892 0.939078 0.129927 0.318202 -0.942256 0.0717958 0.327107 
0.84452 0.417294 0.335636 0.827978 0.0990376 0.551946 0.642721 0.712664 0.281104 
0.695918 0.555187 0.455483 -0.834288 0.468983 0.28986 -0.446846 0.767354 0.459889 
-0.213872 0.800825 0.559409 0.524794 0.824103 0.213178 0.143271 0.914269 0.378927 
-0.877461 -0.293717 0.379201 -0.255954 -0.11488 0.959839 -0.708937 -0.290526 0.642653 
-0.296075 -0.403248 0.86587 0.0636906 -0.160198 0.985028 0.286867 -0.111389 0.951473 
0.245264 -0.0213735 0.969221 -0.518635 -0.471432 0.713281 0.409591 -0.00327083 0.912263 
-0.78188 -0.232932 0.578279 -0.545942 -0.0928354 0.832664 -0.383137 -0.266987 0.884264 
0.639913 0.152314 0.753201 0.638214 0.144458 0.756184 -0.779377 -0.0365502 0.625488 
-0.44714 -0.0874004 0.890184 -0.615051 0.0509205 0.786841 0.656044 0.153776 0.73889 
-0.734899 0.24114 0.633857 0.53198 0.379604 0.7569 -0.678928 0.44388 0.584831 
-0.388161 0.643076 0.660139 0.420654 0.566666 0.708477 -0.24925 0.738957 0.625952 
-0.00701813 0.680679 0.732548 0.233387 0.596754 0.767734 -0.189505 -0.295993 0.936203 
-0.0112577 -0.231418 0.972789 -0.253336 -0.189296 0.948677 0.104845 -0.117939 0.98747 
-0.353054 -0.0476837 0.934387 -0.146344 -0.0634983 0.987194 -0.346994 -0.162188 0.923737 
-0.137385 -0.00481356 0.990506 0.1202 -0.0806687 0.989467 0.285556 -0.017509 0.958202 
-0.387814 -0.0428043 0.920743 0.556716 0.0640793 0.828228 -0.150951 0.173872 0.97313 
-0.0193816 0.0743035 0.997047 0.299287 0.185883 0.935882 -0.146371 0.315921 0.937427 
-0.142056 0.0848008 0.98622 -0.428702 0.409864 0.805125 -0.135647 0.416936 0.898757 
0.221675 0.29549 0.929272 0.83205 -0.5547 0 0 0.5547 0.83205 
-0.347916 0.0993306 0.932249 -0.347916 0.0993306 0.932249 -0.615151 -0.25476 -0.746114 
-0.347916 0.0993306 0.932249 -0.784123 -0.355307 0.50883 
