# vtk DataFile Version 4.2
vtk output
ASCII
DATASET POLYDATA
POINTS 25725 float
393 225.009 119.017 393 225.009 119.017 393 225.009 119.017 
393 225.009 119.017 393 225.009 119.017 391.839 228.879 120.403 
391.398 230.433 120.189 392.256 231.284 120.355 391.529 232.983 120.098 
391.922 233.194 120.149 392.328 233.076 120.306 392.102 233.695 120.211 
394 239.009 119.017 394 239.009 119.017 394 239.009 119.017 
394 239.009 119.017 394 239.009 119.017 391.899 227.458 120.874 
391.885 227.374 120.902 391.774 227.462 120.922 393 225.009 119.018 
391.933 227.404 120.907 391.831 227.74 120.816 391.462 227.742 120.877 
392.014 227.607 120.948 390.876 228.403 120.684 392.236 228.725 120.656 
390.384 232.154 120.209 390.983 232.645 120.114 394 239.009 119.018 
393.798 240.242 120.881 394.791 241.75 121.16 394.907 241.755 121.184 
395.065 241.767 121.287 396.585 244.796 121.688 391.346 227.256 121.263 
391.309 227.189 121.336 391.211 227.272 121.327 391.888 227.408 120.997 
391.405 227.229 121.359 391.168 227.51 121.166 390.964 227.452 121.485 
391.62 227.393 121.205 392.035 227.547 121.218 390.611 227.85 121.223 
390.344 227.738 121.643 392.61 228.18 121.409 392.899 229.878 120.971 
393.145 230.1 121.246 393 231.286 120.889 383.71 234.23 121.083 
383.885 234.228 121.117 381.247 234.392 121.028 381.13 234.361 121.028 
381.596 234.505 121.025 381.492 234.485 121.052 382.121 234.616 121.01 
381.95 234.557 121.07 382.739 234.632 120.986 382.472 234.537 121.07 
384.051 234.266 121.122 381.249 234.474 121.022 384.488 234.492 121.216 
381.47 234.631 121.016 381.819 234.982 121.026 382.257 235.585 121.062 
382.378 235.437 120.973 385.409 234.709 121.415 385.461 235.173 121.066 
382.649 236.186 121.014 382.577 236.191 121.104 383.131 237.09 120.995 
390.735 236.527 120.268 383.345 238.422 121.204 383.489 239.381 121.247 
383.58 239.951 121.185 383.571 240.945 121.295 384.596 240.418 121.227 
385.371 240.604 121.237 383.566 241.322 121.266 383.557 241.502 121.307 
384.537 241.429 121.519 384.982 241.174 121.575 383.53 241.754 121.285 
384.462 242.051 121.585 395.127 242.392 121.305 383.507 241.995 121.295 
383.522 242.072 121.315 383.827 242.201 121.43 384.329 242.611 121.7 
383.535 242.111 121.313 383.636 242.17 121.357 395.842 246.339 121.869 
396.659 246.565 122.124 398.504 248.347 122.966 398.46 248.366 123.027 
398.527 248.37 122.977 398.53 248.318 123 398.535 248.356 123.056 
389.68 227.726 122.071 389.599 227.726 122.223 390.105 227.676 121.998 
391.468 227.362 121.601 391.959 227.528 121.576 389.494 227.994 121.823 
388.771 228.1 122.168 390.979 227.586 122.027 392.728 228.153 121.838 
386.978 229.163 122.36 392.882 229.047 121.24 385.817 230.246 121.991 
385.856 230.282 122.064 385.535 230.261 122.019 386.436 230.136 121.943 
386.259 230.154 122.104 386.683 229.84 122.124 387.823 229.596 121.6 
385.09 230.188 121.994 385.099 230.207 121.995 385.025 230.179 121.991 
385.318 230.224 121.99 385.285 230.248 122.006 386.127 230.504 121.871 
385.094 230.192 121.988 385.285 230.265 121.977 385.653 230.452 121.949 
386.143 230.855 121.906 386.588 231.577 121.887 386.73 231.206 121.666 
386.913 232.202 121.591 386.806 232.522 121.878 381.204 234.436 121.033 
381.888 234.725 121.108 383.826 234.482 121.26 386.879 233.158 121.535 
386.719 233.481 121.847 381.451 234.653 121.039 381.914 235.046 121.097 
383.465 235.068 121.401 386.533 234.155 121.422 386.319 234.305 121.844 
382.534 235.854 121.197 384.865 235.184 121.674 385.842 235.005 121.932 
387.194 234.886 120.96 383.291 237.674 121.34 383.624 237.368 121.565 
383.688 240.56 121.384 384.403 240.609 121.69 384.94 240.758 122.001 
385.164 240.23 122.288 384.362 241.562 121.62 385.131 241.592 122.01 
385.515 242.124 121.661 383.998 242.048 121.541 384.483 242.476 121.884 
384.838 242.163 121.873 385.174 243.02 121.789 383.591 242.158 121.347 
383.804 242.233 121.444 384.666 243.443 122.248 384.897 243.994 122.128 
384.724 244.39 122.522 384.663 244.93 122.629 384.694 245.215 122.645 
381.504 247.004 122.017 381.504 247.004 122.018 381.504 247.004 122.017 
381.505 247.005 122.017 381.505 247.004 122.017 381.505 247.004 122.018 
384.982 246.197 122.883 394.974 246.295 121.874 381.504 247.005 122.017 
381.505 247.005 122.018 397.404 247.531 122.721 398.415 248.236 123.007 
398.174 248.3 123.087 398.571 248.166 123.165 398.487 248.448 123.274 
389.266 227.894 122.347 385.038 227.87 122.897 385.039 227.872 122.902 
384.822 227.825 122.922 385.428 227.957 122.864 386.287 228.139 122.731 
386.033 228.079 122.808 386.738 228.187 122.748 387.603 228.286 122.465 
387.52 228.24 122.67 388.515 228.163 122.539 393.096 228.561 122.159 
393.174 228.504 122.51 384.732 227.807 122.93 384.702 227.802 122.934 
384.652 227.792 122.938 384.845 227.834 122.914 385.203 227.928 122.866 
386.737 228.396 122.568 380.005 229.003 123.017 380.005 229.003 123.017 
380.005 229.003 123.017 380.006 229.003 123.017 380.006 229.003 123.017 
380.006 229.003 123.017 380.006 229.003 123.017 384.699 227.803 122.932 
380.006 229.003 123.018 384.845 227.84 122.913 385.067 227.904 122.885 
385.701 230.416 122.045 385.502 228.051 122.823 386.234 230.447 122.161 
386.261 228.417 122.693 386.789 230.109 122.341 387.399 229.718 122.681 
386.92 228.87 122.701 389.721 229.504 123.3 380.005 229.003 123.017 
380.006 229.003 123.018 380.006 229.003 123.018 385.103 230.212 121.989 
385.352 230.319 121.993 385.771 230.575 121.994 386.261 230.929 122.077 
386.87 231.848 122.211 388.661 232.052 123.116 386.86 233.875 122.202 
394.306 233.194 122.499 385.415 241.11 122.518 385.794 242.035 123.151 
384.871 242.938 122.412 384.448 246.498 123.583 381.504 247.004 122.018 
381.505 247.004 122.018 383.701 247.932 124.148 383.912 247.83 123.757 
384.653 247.273 123.325 386.234 247.194 122.898 398.136 247.782 122.988 
382.89 249.076 124.062 382.844 249.184 124.014 383.665 248.723 123.763 
397.454 248.17 123.02 398.98 248.286 123.672 382.966 249.173 123.954 
382.862 249.305 124.041 383.131 249.212 123.949 398.581 248.851 123.728 
399.418 249.437 124.383 383.013 249.369 124.075 385.297 227.952 122.876 
391.819 228.064 122.846 392.754 228.151 122.704 393.315 228.72 122.764 
393.084 228.37 122.714 393.204 228.573 122.922 384.721 227.809 122.93 
384.884 227.853 122.911 385.173 227.936 122.878 385.697 228.115 122.821 
391.113 228.842 123.324 393.488 229.245 122.802 380.005 229.003 123.018 
380.006 229.003 123.018 380.006 229.003 123.018 394.886 234.495 123.341 
395.205 235.204 123.842 395.587 236.454 123.11 387.336 241.175 123.995 
383.849 247.618 124.167 384.454 246.796 124.393 398.728 246.96 123.287 
382.814 249.221 124.116 382.854 249.34 124.263 382.822 249.336 124.132 
380 251.009 124.017 380 251.009 124.017 380 251.009 124.017 
382.923 249.441 124.176 380 251.009 124.017 383.225 249.671 124.421 
383.951 250.223 124.846 380 251.009 124.017 393.011 228.379 122.906 
393.233 233.026 124.086 396.999 236.411 125.038 396.917 236.41 124.985 
397.039 236.49 125.081 394.579 234.893 124.264 396.77 236.504 124.83 
396.755 236.428 124.968 396.508 236.378 124.864 397.104 236.686 124.993 
395.856 236.119 124.554 396.622 236.865 124.357 397.287 236.974 125.113 
393.98 236.622 125.023 397.677 237.532 125.181 397.33 239.563 123.668 
384.669 247.176 125.269 385.291 246.576 125.525 383.787 248.161 124.899 
384.28 247.87 125.45 383.329 249.354 125.161 382.94 249.501 124.346 
383.265 250.217 125.259 385.411 250.028 124.578 400.352 250.002 125.392 
380 251.009 124.018 399.231 250.964 125.55 400.987 249.973 125.791 
383.021 251.336 125.944 383.041 251.367 125.923 383.764 251.205 125.692 
400.681 251.61 126.254 383.434 251.447 125.993 397.219 237.173 125.382 
398.583 238.032 125.869 398.637 238.127 125.945 396.423 237.769 125.824 
398.032 237.789 125.663 398.446 238.21 125.56 398.979 238.876 125.782 
399.075 238.871 126.135 401.363 249.291 126.041 398.391 251.178 125.669 
383.082 251.43 126.034 383.082 251.394 126.116 380 253.009 126.017 
380 253.009 126.017 380 253.009 126.017 380 253.009 126.017 
383.319 251.591 126.324 402.425 253.13 127.409 380 253.009 126.017 
403.466 255.582 128.273 403.384 255.806 128.318 411.189 200.606 127.45 
411.901 201.428 127.258 412.988 201.61 127.479 404.785 211.812 127.124 
401.436 213.788 127.412 405.448 213.506 127.674 400.907 214.835 127.652 
398.564 238.243 126.053 398.664 238.742 126.336 400.183 239.743 126.916 
400.343 239.944 126.942 400.3 239.808 126.94 400.344 239.915 127.006 
399.545 239.497 126.626 400.002 240.058 126.511 400.318 240.2 126.867 
398.096 239.796 127.061 400.421 240.715 127.095 388.183 246.217 127.721 
383.791 250.683 127.633 402.175 251.283 127.15 383.322 251.629 126.88 
385.093 251.862 126.484 380 253.009 126.018 383.135 253.036 128.27 
383.04 253.196 128.371 383.085 253.17 128.312 383.249 253.113 128.247 
383.739 252.112 127.022 401.489 252.678 127.021 383.074 253.287 128.423 
402.072 255.206 128.187 403.149 254.23 128.068 403.824 255.925 128.734 
405.36 203.653 127.991 398.046 214.241 128.364 396.518 217.644 128.772 
397.018 217.424 128.654 400.251 239.82 126.988 400.496 241.484 127.338 
401.531 246.14 127.75 402.5 250.125 128.079 402.797 251.262 128.306 
383.423 252.041 128.12 383.201 252.833 128.385 383.031 253.243 128.542 
383.443 252.594 127.85 382.983 253.41 128.565 382.946 253.428 128.622 
382.94 253.472 128.625 383.106 253.438 128.565 383.049 253.514 128.704 
403.839 254.723 128.981 403.26 256.722 128.779 404.497 258.796 130.014 
404.394 258.906 130.109 404.608 258.925 130.17 415.23 195.496 129.672 
415.369 196.651 129.348 394.761 218.074 129.471 402.96 217.078 128.924 
394.107 221.79 130.129 399.249 242.939 128.557 400.229 243.653 128.512 
401.004 244.689 128.201 401.351 245.657 128.178 401.922 247.363 128.327 
402.933 251.306 128.915 403.106 251.928 128.727 382.952 253.484 128.67 
383.034 253.472 128.785 403.795 254.109 129.44 382.009 255.062 130.509 
381.971 255.069 130.498 382.178 255.026 130.578 383.285 253.677 129.079 
379 256.009 129.017 379 256.009 129.017 379 256.009 129.017 
[...]
POINT_DATA 25725
COLOR_SCALARS scalars 3
1 0.607843 0.533333 1 0.607843 0.533333 1 0.607843 0.533333 
1 0.607843 0.533333 1 0.607843 0.533333 
1 0.607843 0.533333 1 0.607843 0.533333 
1 0.607843 0.533333 1 0.607843 0.533333 
1 0.607843 0.533333 1 0.607843 0.533333 
1 0.607843 0.533333 1 0.607843 0.533333 
1 0.607843 0.533333 1 0.607843 0.533333 
1 0.607843 0.533333 1 0.607843 0.533333 
1 0.607843 0.533333 1 0.607843 0.533333 
1 0.607843 0.533333 1 0.607843 0.533333 
1 0.607843 0.533333 1 0.607843 0.533333 
1 0.607843 0.533333 1 0.607843 0.533333 
1 0.607843 0.533333 1 0.607843 0.533333 
1 0.607843 0.533333 1 0.607843 0.533333 
1 0.607843 0.533333 1 0.607843 0.533333 
1 0.607843 0.533333 1 0.607843 0.533333 
1 0.607843 0.533333 1 0.607843 0.533333 
1 0.607843 0.533333 1 0.607843 0.533333 
1 0.607843 0.533333 1 0.607843 0.533333 
1 0.607843 0.533333 1 0.607843 0.533333 
1 0.607843 0.533333 1 0.607843 0.533333 
1 0.607843 0.533333 1 0.607843 0.533333 
1 0.607843 0.533333 1 0.607843 0.533333 
1 0.607843 0.533333 1 0.607843 0.533333 
1 0.607843 0.533333 1 0.607843 0.533333 
1 0.607843 0.533333 1 0.607843 0.533333 
1 0.607843 0.533333 1 0.607843 0.533333 
1 0.607843 0.533333 1 0.607843 0.533333 
1 0.607843 0.533333 1 0.607843 0.533333 
1 0.607843 0.533333 1 0.607843 0.533333 
1 0.607843 0.533333 1 0.607843 0.533333 
1 0.607843 0.533333 1 0.607843 0.533333 
1 0.607843 0.533333 1 0.607843 0.533333 
1 0.607843 0.533333 1 0.607843 0.533333 
1 0.607843 0.533333 1 0.607843 0.533333 
1 0.607843 0.533333 1 0.607843 0.533333 
1 0.607843 0.533333 1 0.607843 0.533333 
1 0.607843 0.533333 1 0.607843 0.533333 
1 0.607843 0.533333 1 0.607843 0.533333 
1 0.607843 0.533333 1 0.607843 0.533333 
1 0.607843 0.533333 1 0.607843 0.533333 
1 0.607843 0.533333 1 0.607843 0.533333 
1 0.607843 0.533333 1 0.607843 0.533333 
1 0.607843 0.533333 1 0.607843 0.533333 
1 0.607843 0.533333 1 0.607843 0.533333 
1 0.607843 0.533333 1 0.607843 0.533333 
1 0.607843 0.533333 1 0.607843 0.533333 
1 0.607843 0.533333 1 0.607843 0.533333 
1 0.607843 0.533333 1 0.607843 0.533333 
1 0.607843 0.533333 1 0.607843 0.533333 
1 0.607843 0.533333 1 0.607843 0.533333 
1 0.607843 0.533333 1 0.607843 0.533333 
1 0.607843 0.533333 1 0.607843 0.533333 
1 0.607843 0.533333 1 0.607843 0.533333 
1 0.607843 0.533333 1 0.607843 0.533333 
1 0.607843 0.533333 1 0.607843 0.533333 
1 0.607843 0.533333 1 0.607843 0.533333 
1 0.607843 0.533333 1 0.607843 0.533333 
1 0.607843 0.533333 1 0.607843 0.533333 
1 0.607843 0.533333 1 0.607843 0.533333 
1 0.607843 0.533333 1 0.607843 0.533333 
1 0.607843 0.533333 1 0.607843 0.533333 
1 0.607843 0.533333 1 0.607843 0.533333 
1 0.607843 0.533333 1 0.607843 0.533333 
1 0.607843 0.533333 1 0.607843 0.533333 
1 0.607843 0.533333 1 0.607843 0.533333 
1 0.607843 0.533333 1 0.607843 0.533333 
1 0.607843 0.533333 1 0.607843 0.533333 
1 0.607843 0.533333 1 0.607843 0.533333 
1 0.607843 0.533333 1 0.607843 0.533333 
1 0.607843 0.533333 1 0.607843 0.533333 
1 0.607843 0.533333 1 0.607843 0.533333 
1 0.607843 0.533333 1 0.607843 0.533333 
1 0.607843 0.533333 1 0.607843 0.533333 
1 0.607843 0.533333 1 0.607843 0.533333 
1 0.607843 0.533333 1 0.607843 0.533333 
1 0.607843 0.533333 1 0.607843 0.533333 
1 0.607843 0.533333 1 0.607843 0.533333 
1 0.607843 0.533333 1 0.607843 0.533333 
1 0.607843 0.533333 1 0.607843 0.533333 
1 0.607843 0.533333 1 0.607843 0.533333 
1 0.607843 0.533333 1 0.607843 0.533333 
1 0.607843 0.533333 1 0.607843 0.533333 
1 0.607843 0.533333 1 0.607843 0.533333 
1 0.607843 0.533333 1 0.607843 0.533333 
1 0.607843 0.533333 1 0.607843 0.533333 
1 0.607843 0.533333 1 0.607843 0.533333 
1 0.607843 0.533333 1 0.607843 0.533333 
1 0.607843 0.533333 1 0.607843 0.533333 
1 0.607843 0.533333 1 0.607843 0.533333 
1 0.607843 0.533333 1 0.607843 0.533333 
1 0.607843 0.533333 1 0.607843 0.533333 
1 0.607843 0.533333 1 0.607843 0.533333 
1 0.607843 0.533333 1 0.607843 0.533333 
1 0.607843 0.533333 1 0.607843 0.533333 
1 0.607843 0.533333 1 0.607843 0.533333 
1 0.607843 0.533333 1 0.607843 0.533333 
1 0.607843 0.533333 1 0.607843 0.533333 
1 0.607843 0.533333 1 0.607843 0.533333 
1 0.607843 0.533333 1 0.607843 0.533333 
1 0.607843 0.533333 1 0.607843 0.533333 
1 0.607843 0.533333 1 0.607843 0.533333 
1 0.607843 0.533333 1 0.607843 0.533333 
1 0.607843 0.533333 1 0.607843 0.533333 
1 0.607843 0.533333 1 0.607843 0.533333 
1 0.607843 0.533333 1 0.607843 0.533333 
1 0.607843 0.533333 1 0.607843 0.533333 
1 0.607843 0.533333 1 0.607843 0.533333 
1 0.607843 0.533333 1 0.607843 0.533333 
1 0.607843 0.533333 1 0.607843 0.533333 
1 0.607843 0.533333 1 0.607843 0.533333 
1 0.607843 0.533333 1 0.607843 0.533333 
1 0.607843 0.533333 1 0.607843 0.533333 
1 0.607843 0.533333 1 0.607843 0.533333 
1 0.607843 0.533333 1 0.607843 0.533333 
1 0.607843 0.533333 1 0.607843 0.533333 
1 0.607843 0.533333 1 0.607843 0.533333 
1 0.607843 0.533333 1 0.607843 0.533333 
1 0.607843 0.533333 1 0.607843 0.533333 
1 0.607843 0.533333 1 0.607843 0.533333 
1 0.607843 0.533333 1 0.607843 0.533333 
1 0.607843 0.533333 1 0.607843 0.533333 
1 0.607843 0.533333 1 0.607843 0.533333 
1 0.607843 0.533333 1 0.607843 0.533333 
1 0.607843 0.533333 1 0.607843 0.533333 
1 0.607843 0.533333 1 0.607843 0.533333 
1 0.607843 0.533333 1 0.607843 0.533333 
1 0.607843 0.533333 1 0.607843 0.533333 
1 0.607843 0.533333 1 0.607843 0.533333 
1 0.607843 0.533333 1 0.607843 0.533333 
1 0.607843 0.533333 1 0.607843 0.533333 
1 0.607843 0.533333 1 0.607843 0.533333 
1 0.607843 0.533333 1 0.607843 0.533333 
1 0.607843 0.533333 1 0.607843 0.533333 
1 0.607843 0.533333 1 0.607843 0.533333 
1 0.607843 0.533333 1 0.607843 0.533333 
1 0.607843 0.533333 1 0.607843 0.533333 
1 0.607843 0.533333 1 0.607843 0.533333 
1 0.607843 0.533333 1 0.607843 0.533333 
1 0.607843 0.533333 1 0.607843 0.533333 
1 0.607843 0.533333 1 0.607843 0.533333 
1 0.607843 0.533333 1 0.607843 0.533333 
1 0.607843 0.533333 1 0.607843 0.533333 
1 0.607843 0.533333 1 0.607843 0.533333 
1 0.607843 0.533333 1 0.607843 0.533333 
1 0.607843 0.533333 1 0.607843 0.533333 
1 0.607843 0.533333 1 0.607843 0.533333 
1 0.607843 0.533333 1 0.607843 0.533333 
1 0.607843 0.533333 1 0.607843 0.533333 
1 0.607843 0.533333 1 0.607843 0.533333 
1 0.607843 0.533333 1 0.607843 0.533333 
1 0.607843 0.533333 1 0.607843 0.533333 
1 0.607843 0.533333 1 0.607843 0.533333 
1 0.607843 0.533333 1 0.607843 0.533333 
1 0.607843 0.533333 1 0.607843 0.533333 
1 0.607843 0.533333 1 0.607843 0.533333 
1 0.607843 0.533333 1 0.607843 0.533333 
1 0.607843 0.533333 1 0.607843 0.533333 
1 0.607843 0.533333 1 0.607843 0.533333 
1 0.607843 0.533333 1 0.607843 0.533333 
1 0.607843 0.533333 1 0.607843 0.533333 
1 0.607843 0.533333 1 0.607843 0.533333 
1 0.607843 0.533333 1 0.607843 0.533333 
1 0.607843 0.533333 1 0.607843 0.533333 
1 0.607843 0.533333 1 0.607843 0.533333 
1 0.607843 0.533333 1 0.607843 0.533333 
1 0.607843 0.533333 1 0.607843 0.533333 
1 0.607843 0.533333 1 0.607843 0.533333 
1 0.607843 0.533333 1 0.607843 0.533333 
1 0.607843 0.533333 1 0.607843 0.533333 
1 0.607843 0.533333 1 0.607843 0.533333 
1 0.607843 0.533333 1 0.607843 0.533333 
1 0.607843 0.533333 1 0.607843 0.533333 
1 0.607843 0.533333 1 0.607843 0.533333 
1 0.607843 0.533333 1 0.607843 0.533333 
1 0.607843 0.533333 1 0.607843 0.533333 
1 0.607843 0.533333 1 0.607843 0.533333 
1 0.607843 0.533333 1 0.607843 0.533333 
1 0.607843 0.533333 1 0.607843 0.533333 
1 0.607843 0.533333 1 0.607843 0.533333 
1 0.607843 0.533333 1 0.607843 0.533333 
1 0.607843 0.533333 1 0.607843 0.533333 
1 0.607843 0.533333 1 0.607843 0.533333 
1 0.607843 0.533333 1 0.607843 0.533333 
1 0.607843 0.533333 1 0.607843 0.533333 
1 0.607843 0.533333 1 0.607843 0.533333 
1 0.607843 0.533333 1 0.607843 0.533333 
1 0.607843 0.533333 1 0.607843 0.533333 
1 0.607843 0.533333 1 0.607843 0.533333 
1 0.607843 0.533333 1 0.607843 0.533333 
1 0.607843 0.533333 1 0.607843 0.533333 
1 0.607843 0.533333 1 0.607843 0.533333 
1 0.607843 0.533333 1 0.607843 0.533333 
1 0.607843 0.533333 1 0.607843 0.533333 
1 0.607843 0.533333 1 0.607843 0.533333 
1 0.607843 0.533333 1 0.607843 0.533333 
1 0.607843 0.533333 1 0.607843 0.533333 
1 0.607843 0.533333 1 0.607843 0.533333 
1 0.607843 0.533333 1 0.607843 0.533333 
1 0.607843 0.533333 1 0.607843 0.533333 
1 0.607843 0.533333 1 0.607843 0.533333 
1 0.607843 0.533333 1 0.607843 0.533333 
1 0.607843 0.533333 1 0.607843 0.533333 
1 0.607843 0.533333 1 0.607843 0.533333 
1 0.607843 0.533333 1 0.607843 0.533333 
1 0.607843 0.533333 1 0.607843 0.533333 
1 0.607843 0.533333 1 0.607843 0.533333 
1 0.607843 0.533333 1 0.607843 0.533333 
1 0.607843 0.533333 1 0.607843 0.533333 
1 0.607843 0.533333 1 0.607843 0.533333 
1 0.607843 0.533333 1 0.607843 0.533333 
1 0.607843 0.533333 1 0.607843 0.533333 
1 0.607843 0.533333 1 0.607843 0.533333 
1 0.607843 0.533333 1 0.607843 0.533333 
1 0.607843 0.533333 1 0.607843 0.533333 
1 0.607843 0.533333 1 0.607843 0.533333 
1 0.607843 0.533333 1 0.607843 0.533333 
1 0.607843 0.533333 1 0.607843 0.533333 
1 0.607843 0.533333 1 0.607843 0.533333 
1 0.607843 0.533333 1 0.607843 0.533333 
1 0.607843 0.533333 1 0.607843 0.533333 
1 0.607843 0.533333 1 0.607843 0.533333 
1 0.607843 0.533333 1 0.607843 0.533333 
1 0.607843 0.533333 1 0.607843 0.533333 
1 0.607843 0.533333 1 0.607843 0.533333 
1 0.607843 0.533333 1 0.607843 0.533333 
1 0.607843 0.533333 1 0.607843 0.533333 
1 0.607843 0.533333 1 0.607843 0.533333 
1 0.607843 0.533333 1 0.607843 0.533333 
1 0.607843 0.533333 1 0.607843 0.533333 
1 0.607843 0.533333 1 0.607843 0.533333 
1 0.607843 0.533333 1 0.607843 0.533333 
1 0.607843 0.533333 1 0.607843 0.533333 
1 0.607843 0.533333 1 0.607843 0.533333 
1 0.607843 0.533333 1 0.607843 0.533333 
1 0.607843 0.533333 1 0.607843 0.533333 
1 0.607843 0.533333 1 0.607843 0.533333 
1 0.607843 0.533333 1 0.607843 0.533333 
1 0.607843 0.533333 1 0.607843 0.533333 
1 0.607843 0.533333 1 0.607843 0.533333 
1 0.607843 0.533333 1 0.607843 0.533333 
1 0.607843 0.533333 1 0.607843 0.533333 
1 0.607843 0.533333 1 0.607843 0.533333 
1 0.607843 0.533333 1 0.607843 0.533333 
1 0.607843 0.533333 1 0.607843 0.533333 
1 0.607843 0.533333 1 0.607843 0.533333 
1 0.607843 0.533333 1 0.607843 0.533333 
1 0.607843 0.533333 1 0.607843 0.533333 
1 0.607843 0.533333 1 0.607843 0.533333 
1 0.607843 0.533333 1 0.607843 0.533333 
1 0.607843 0.533333 1 0.607843 0.533333 
1 0.607843 0.533333 1 0.607843 0.533333 
1 0.607843 0.533333 1 0.607843 0.533333 
1 0.607843 0.533333 1 0.607843 0.533333 
1 0.607843 0.533333 1 0.607843 0.533333 
1 0.607843 0.533333 1 0.607843 0.533333 
1 0.607843 0.533333 1 0.607843 0.533333 
1 0.607843 0.533333 1 0.607843 0.533333 
1 0.607843 0.533333 1 0.607843 0.533333 
1 0.607843 0.533333 1 0.607843 0.533333 
1 0.607843 0.533333 1 0.607843 0.533333 
1 0.607843 0.533333 1 0.607843 0.533333 
1 0.607843 0.533333 1 0.607843 0.533333 
1 0.607843 0.533333 1 0.607843 0.533333 
1 0.607843 0.533333 1 0.607843 0.533333 
1 0.607843 0.533333 1 0.607843 0.533333 
1 0.607843 0.533333 1 0.607843 0.533333 
1 0.607843 0.533333 1 0.607843 0.533333 
1 0.607843 0.533333 1 0.607843 0.533333 
1 0.607843 0.533333 1 0.607843 0.533333 
1 0.607843 0.533333 1 0.607843 0.533333 
1 0.607843 0.533333 1 0.607843 0.533333 
1 0.607843 0.533333 1 0.607843 0.533333 
1 0.607843 0.533333 1 0.607843 0.533333 
1 0.607843 0.533333 1 0.607843 0.533333 
1 0.607843 0.533333 1 0.607843 0.533333 
1 0.607843 0.533333 1 0.607843 0.533333 
1 0.607843 0.533333 1 0.607843 0.533333 
1 0.607843 0.533333 1 0.607843 0.533333 
1 0.607843 0.533333 1 0.607843 0.533333 
1 0.607843 0.533333 1 0.607843 0.533333 
1 0.607843 0.533333 1 0.607843 0.533333 
1 0.607843 0.533333 1 0.607843 0.533333 
1 0.607843 0.533333 1 0.607843 0.533333 
1 0.607843 0.533333 1 0.607843 0.533333 
1 0.607843 0.533333 1 0.607843 0.533333 
1 0.607843 0.533333 1 0.607843 0.533333 
1 0.607843 0.533333 1 0.607843 0.533333 
1 0.607843 0.533333 1 0.607843 0.533333 
1 0.607843 0.533333 1 0.607843 0.533333 
1 0.607843 0.533333 1 0.607843 0.533333 
1 0.607843 0.533333 1 0.607843 0.533333 
1 0.607843 0.533333 1 0.607843 0.533333 
1 0.607843 0.533333 1 0.607843 0.533333 
1 0.607843 0.533333 1 0.607843 0.533333 
1 0.607843 0.533333 1 0.607843 0.533333 
1 0.607843 0.533333 1 0.607843 0.533333 
1 0.607843 0.533333 1 0.607843 0.533333 
1 0.607843 0.533333 1 0.607843 0.533333 
1 0.607843 0.533333 1 0.607843 0.533333 
1 0.607843 0.533333 1 0.607843 0.533333 
1 0.607843 0.533333 1 0.607843 0.533333 
1 0.607843 0.533333 1 0.607843 0.533333 
1 0.607843 0.533333 1 0.607843 0.533333 
1 0.607843 0.533333 1 0.607843 0.533333 
1 0.607843 0.533333 1 0.607843 0.533333 
1 0.607843 0.533333 1 0.607843 0.533333 
1 0.607843 0.533333 1 0.607843 0.533333 
1 0.607843 0.533333 1 0.607843 0.533333 
1 0.607843 0.533333 1 0.607843 0.533333 
1 0.607843 0.533333 1 0.607843 0.533333 
1 0.607843 0.533333 1 0.607843 0.533333 
1 0.607843 0.533333 1 0.607843 0.533333 
1 0.607843 0.533333 1 0.607843 0.533333 
1 0.607843 0.533333 1 0.607843 0.533333 
1 0.607843 0.533333 1 0.607843 0.533333 
1 0.607843 0.533333 1 0.607843 0.533333 
1 0.607843 0.533333 1 0.607843 0.533333 
1 0.607843 0.533333 1 0.607843 0.533333 
1 0.607843 0.533333 1 0.607843 0.533333 
1 0.607843 0.533333 1 0.607843 0.533333 
1 0.607843 0.533333 1 0.607843 0.533333 
1 0.607843 0.533333 1 0.607843 0.533333 
1 0.607843 0.533333 1 0.607843 0.533333 
1 0.607843 0.533333 1 0.607843 0.533333 
1 0.607843 0.533333 1 0.607843 0.533333 
1 0.607843 0.533333 1 0.607843 0.533333 
1 0.607843 0.533333 1 0.607843 0.533333 
1 0.607843 0.533333 1 0.607843 0.533333 
1 0.607843 0.533333 1 0.607843 0.533333 
1 0.607843 0.533333 1 0.607843 0.533333 
1 0.607843 0.533333 1 0.607843 0.533333 
1 0.607843 0.533333 1 0.607843 0.533333 
1 0.607843 0.533333 1 0.607843 0.533333 
1 0.607843 0.533333 1 0.607843 0.533333 
1 0.607843 0.533333 1 0.607843 0.533333 
1 0.607843 0.533333 1 0.607843 0.533333 
1 0.607843 0.533333 1 0.607843 0.533333 
1 0.607843 0.533333 1 0.607843 0.533333 
1 0.607843 0.533333 1 0.607843 0.533333 
1 0.607843 0.533333 1 0.607843 0.533333 
1 0.607843 0.533333 1 0.607843 0.533333 
1 0.607843 0.533333 1 0.607843 0.533333 
1 0.607843 0.533333 1 0.607843 0.533333 
1 0.607843 0.533333 1 0.607843 0.533333 
1 0.607843 0.533333 1 0.607843 0.533333 
1 0.607843 0.533333 1 0.607843 0.533333 
1 0.607843 0.533333 1 0.607843 0.533333 
1 0.607843 0.533333 1 0.607843 0.533333 
1 0.607843 0.533333 1 0.607843 0.533333 
1 0.607843 0.533333 1 0.607843 0.533333 
1 0.607843 0.533333 1 0.607843 0.533333 
1 0.607843 0.533333 1 0.607843 0.533333 
1 0.607843 0.533333 1 0.607843 0.533333 
1 0.607843 0.533333 1 0.607843 0.533333 
1 0.607843 0.533333 1 0.607843 0.533333 
1 0.607843 0.533333 1 0.607843 0.533333 
1 0.607843 0.533333 1 0.607843 0.533333 
1 0.607843 0.533333 1 0.607843 0.533333 
1 0.607843 0.533333 1 0.607843 0.533333 
1 0.607843 0.533333 1 0.607843 0.533333 
1 0.607843 0.533333 1 0.607843 0.533333 
1 0.607843 0.533333 1 0.607843 0.533333 
1 0.607843 0.533333 1 0.607843 0.533333 
1 0.607843 0.533333 1 0.607843 0.533333 
1 0.607843 0.533333 1 0.607843 0.533333 
1 0.607843 0.533333 1 0.607843 0.533333 
1 0.607843 0.533333 1 0.607843 0.533333 
1 0.607843 0.533333 1 0.607843 0.533333 
1 0.607843 0.533333 1 0.607843 0.533333 
1 0.607843 0.533333 1 0.607843 0.533333 
1 0.607843 0.533333 1 0.607843 0.533333 
1 0.607843 0.533333 1 0.607843 0.533333 
1 0.607843 0.533333 1 0.607843 0.533333 
1 0.607843 0.533333 1 0.607843 0.533333 
1 0.607843 0.533333 1 0.607843 0.533333 
1 0.607843 0.533333 1 0.607843 0.533333 
1 0.607843 0.533333 1 0.607843 0.533333 
1 0.607843 0.533333 1 0.607843 0.533333 
1 0.607843 0.533333 1 0.607843 0.533333 
1 0.607843 0.533333 1 0.607843 0.533333 
1 0.607843 0.533333 1 0.607843 0.533333 
1 0.607843 0.533333 1 0.607843 0.533333 
1 0.607843 0.533333 1 0.607843 0.533333 
1 0.607843 0.533333 1 0.607843 0.533333 
1 0.607843 0.533333 1 0.607843 0.533333 
1 0.607843 0.533333 1 0.607843 0.533333 
1 0.607843 0.533333 1 0.607843 0.533333 
1 0.607843 0.533333 1 0.607843 0.533333 
1 0.607843 0.533333 1 0.607843 0.533333 
1 0.607843 0.533333 1 0.607843 0.533333 
1 0.607843 0.533333 1 0.607843 0.533333 
1 0.607843 0.533333 1 0.607843 0.533333 
1 0.607843 0.533333 1 0.607843 0.533333 
1 0.607843 0.533333 1 0.607843 0.533333 
1 0.607843 0.533333 1 0.607843 0.533333 
1 0.607843 0.533333 1 0.607843 0.533333 
1 0.607843 0.533333 1 0.607843 0.533333 
1 0.607843 0.533333 1 0.607843 0.533333 
1 0.607843 0.533333 1 0.607843 0.533333 
1 0.607843 0.533333 1 0.607843 0.533333 
1 0.607843 0.533333 1 0.607843 0.533333 
1 0.607843 0.533333 1 0.607843 0.533333 
1 0.607843 0.533333 1 0.607843 0.533333 
1 0.607843 0.533333 1 0.607843 0.533333 
1 0.607843 0.533333 1 0.607843 0.533333 
1 0.607843 0.533333 1 0.607843 0.533333 
1 0.607843 0.533333 1 0.607843 0.533333 
1 0.607843 0.533333 1 0.607843 0.533333 
1 0.607843 0.533333 1 0.607843 0.533333 
1 0.607843 0.533333 1 0.607843 0.533333 
1 0.607843 0.533333 1 0.607843 0.533333 
1 0.607843 0.533333 1 0.607843 0.533333 
1 0.607843 0.533333 1 0.607843 0.533333 
1 0.607843 0.533333 1 0.607843 0.533333 
1 0.607843 0.533333 1 0.607843 0.533333 
1 0.607843 0.533333 1 0.607843 0.533333 
1 0.607843 0.533333 1 0.607843 0.533333 
1 0.607843 0.533333 1 0.607843 0.533333 
1 0.607843 0.533333 1 0.607843 0.533333 
1 0.607843 0.533333 1 0.607843 0.533333 
1 0.607843 0.533333 1 0.607843 0.533333 
1 0.607843 0.533333 1 0.607843 0.533333 
1 0.607843 0.533333 1 0.607843 0.533333 
1 0.607843 0.533333 1 0.607843 0.533333 
1 0.607843 0.533333 1 0.607843 0.533333 
1 0.607843 0.533333 1 0.607843 0.533333 
1 0.607843 0.533333 1 0.607843 0.533333 
1 0.607843 0.533333 1 0.607843 0.533333 
1 0.607843 0.533333 1 0.607843 0.533333 
1 0.607843 0.533333 1 0.607843 0.533333 
1 0.607843 0.533333 1 0.607843 0.533333 
1 0.607843 0.533333 1 0.607843 0.533333 
1 0.607843 0.533333 1 0.607843 0.533333 
1 0.607843 0.533333 1 0.607843 0.533333 
1 0.607843 0.533333 1 0.607843 0.533333 
1 0.607843 0.533333 1 0.607843 0.533333 
1 0.607843 0.533333 1 0.607843 0.533333 
1 0.607843 0.533333 1 0.607843 0.533333 
1 0.607843 0.533333 1 0.607843 0.533333 
1 0.607843 0.533333 1 0.607843 0.533333 
1 0.607843 0.533333 1 0.607843 0.533333 
1 0.607843 0.533333 1 0.607843 0.533333 
1 0.607843 0.533333 1 0.607843 0.533333 
1 0.607843 0.533333 1 0.607843 0.533333 
1 0.607843 0.533333 1 0.607843 0.533333 
1 0.607843 0.533333 1 0.607843 0.533333 
1 0.607843 0.533333 1 0.607843 0.533333 
1 0.607843 0.533333 1 0.607843 0.533333 
1 0.607843 0.533333 1 0.607843 0.533333 
1 0.607843 0.533333 1 0.607843 0.533333 
1 0.607843 0.533333 1 0.607843 0.533333 
1 0.607843 0.533333 1 0.607843 0.533333 
1 0.607843 0.533333 1 0.607843 0.533333 
1 0.607843 0.533333 1 0.607843 0.533333 
1 0.607843 0.533333 1 0.607843 0.533333 
1 0.607843 0.533333 1 0.607843 0.533333 
1 0.607843 0.533333 1 0.607843 0.533333 
1 0.607843 0.533333 1 0.607843 0.533333 
1 0.607843 0.533333 1 0.607843 0.533333 
1 0.607843 0.533333 1 0.607843 0.533333 
1 0.607843 0.533333 1 0.607843 0.533333 
1 0.607843 0.533333 1 0.607843 0.533333 
1 0.607843 0.533333 1 0.607843 0.533333 
1 0.607843 0.533333 1 0.607843 0.533333 
1 0.607843 0.533333 1 0.607843 0.533333 
1 0.607843 0.533333 1 0.607843 0.533333 
1 0.607843 0.533333 1 0.607843 0.533333 
1 0.607843 0.533333 1 0.607843 0.533333 
1 0.607843 0.533333 1 0.607843 0.533333 
1 0.607843 0.533333 1 0.607843 0.533333 
1 0.607843 0.533333 1 0.607843 0.533333 
1 0.607843 0.533333 1 0.607843 0.533333 
1 0.607843 0.533333 1 0.607843 0.533333 
1 0.607843 0.533333 1 0.607843 0.533333 
1 0.607843 0.533333 1 0.607843 0.533333 
1 0.607843 0.533333 1 0.607843 0.533333 
1 0.607843 0.533333 1 0.607843 0.533333 
1 0.607843 0.533333 1 0.607843 0.533333 
1 0.607843 0.533333 1 0.607843 0.533333 
1 0.607843 0.533333 1 0.607843 0.533333 
1 0.607843 0.533333 1 0.607843 0.533333 
1 0.607843 0.533333 1 0.607843 0.533333 
1 0.607843 0.533333 1 0.607843 0.533333 
1 0.607843 0.533333 1 0.607843 0.533333 
1 0.607843 0.533333 1 0.607843 0.533333 