# vtk DataFile Version 4.2
vtk output
ASCII
DATASET POLYDATA
POINTS 793 float
390.951 209.905 158.456 390.893 209.666 158.522 390.71 209.895 158.479 
390.884 210.989 158.344 391.205 210.644 158.517 390.339 212.956 158.279 
391.141 213.088 158.462 390.266 214.477 158.306 391.021 214.782 158.505 
390.582 215.479 158.457 390.848 209.263 158.772 390.662 208.695 159.054 
391.292 208.537 159.448 390.203 209.043 158.963 391.281 209.54 158.876 
389.729 209.527 159.1 390.205 210.718 158.457 389.608 211.723 158.679 
389.157 211.946 159.062 389.448 214.326 158.777 389.805 217.27 159.109 
390.056 217.771 159.102 390.832 216.865 158.91 390.358 217.911 159.067 
390.607 218.293 159.196 390.685 217.703 159.048 390.342 207.99 159.609 
390.354 207.691 159.874 391.05 208.208 159.518 390.938 207.841 159.801 
388.837 211.232 159.577 390.203 219.494 159.625 391.455 219.12 159.871 
389.618 220.483 160.029 390.754 220.219 159.811 391.822 219.566 160.293 
391.814 221.458 160.56 390.571 223.382 160.325 390.38 207.06 161.044 
389.955 207.566 160.31 389.82 207.399 160.69 388.637 209.906 160.262 
388.561 209.451 160.647 388.25 210.769 160.746 388.38 216.262 160.487 
388.832 220.032 160.705 389.67 222.483 160.539 389.848 223.206 160.628 
390.283 223.481 160.462 391.853 225.802 161.048 389.628 207.361 161.125 
391.742 207.509 161.097 388.856 208.298 161.048 389.678 223.707 161.062 
389.19 224.085 161.865 390.191 226.474 161.796 390.62 226.83 161.676 
391.254 226.94 161.523 393.077 226.614 161.529 394.443 226.926 162.185 
393.511 228.159 161.97 392.13 228.879 162.162 392.619 228.851 162.142 
390.452 206.561 162.439 389.025 207.434 162.188 389.501 225.581 162.083 
390.358 227.004 161.907 394.77 226.36 162.577 390.305 227.333 162.157 
391.858 229.11 162.463 395.35 229.091 162.872 393.857 229.931 163.06 
394.718 229.823 163.086 391.714 206.377 162.947 392.859 207.486 162.558 
393.143 206.786 163.396 388.346 223.976 163.458 389.715 228.046 163.611 
393.05 230.401 163.676 395.275 230.81 164.168 396.208 230.786 164.276 
397.735 230.578 164.591 393.517 205.363 164.775 394.299 205.416 164.929 
387.862 209.566 163.709 393.982 212.393 163.504 389.772 228.627 164.338 
390.773 229.568 164.343 392.117 230.561 164.683 393.589 231.105 164.809 
395.385 203.961 165.917 396.589 203.804 166.022 395.085 204.108 165.837 
394.754 204.187 165.832 396.444 204.441 165.786 392.411 205.452 164.627 
395.727 206.323 165.161 395.053 223.001 164.485 399.149 230.162 165.33 
391.547 230.459 165.693 397.988 231.536 165.93 397.31 202.318 166.801 
397.982 202.833 166.576 398.94 203.034 166.755 391.641 205.225 165.623 
393.148 204.501 166.104 396.242 207.289 165.395 394.686 214.489 164.779 
394.749 220.302 164.816 388.559 226.969 165.806 394.15 231.681 166.581 
399.552 230.955 166.189 399.245 201.137 167.497 400.947 200.513 167.967 
400.525 201.513 167.606 396.043 202.169 167.396 391.481 205.078 166.56 
399.536 204.881 166.982 389.209 206.92 166.924 396.683 212.413 166.509 
396.963 222.211 166.429 389.149 228.169 167.154 401.142 229.671 166.922 
391.309 230.372 167.569 401.811 230.125 167.593 400.521 230.831 167.078 
397.848 231.911 167.239 399.115 200.094 168.215 400.097 199.851 168.282 
402.432 199.632 168.573 398.164 200.208 168.364 390.711 205.483 167.745 
388.956 207.547 167.877 388.273 208.861 167.024 387.803 214.515 167.445 
397.284 219.991 167.024 399.171 224.526 167.096 388.653 227.113 167.821 
403.561 228.458 168.326 390.131 229.321 168.187 402.057 230.233 167.914 
401.458 230.894 168.501 402.223 230.415 168.448 405.358 197.305 170.132 
402.848 198.587 169.1 404.457 198.31 169.53 397.641 199.933 169.322 
400.01 215.72 168.604 405.592 224.268 168.898 411.098 225.018 169.822 
388.549 226.132 168.395 405.994 225.809 168.829 406.607 226.485 168.983 
409.126 226.182 169.446 410.886 226.323 170.111 407.852 227.682 169.78 
404.387 228.872 168.988 405.983 228.293 169.433 394.317 231.604 168.949 
402.883 230.261 169.138 401.878 196.91 170.481 405.736 196.42 170.893 
406.434 196.561 170.999 406.709 198.461 170.537 388.575 218.199 169.799 
412.922 223.283 170.723 412.669 224.538 170.684 413.024 224.221 170.906 
411.836 225.736 170.436 410.652 226.66 170.256 411.767 225.984 170.664 
408.124 227.859 170.078 408.531 227.777 170.329 409.232 227.435 170.55 
410.866 226.688 170.583 406.802 228.505 170.185 407.397 228.351 170.481 
402.089 230.868 169.989 396.878 231.96 169.471 404.783 195.84 171.492 
404.678 195.489 172.192 407.425 196.048 171.946 407.834 196.107 172.158 
400.119 197.273 171.366 396.52 200.274 171.007 393.979 202.68 171.369 
391.554 205.242 171.187 415.174 220.21 171.98 414.997 219.636 171.916 
415.293 221.196 172.222 413.77 223.023 171.344 413.335 224.231 171.3 
413.138 224.796 171.428 389.539 227.084 170.129 389.642 227.557 170.067 
411.882 226.069 171.206 390.179 228.176 170.495 409.965 227.116 171.079 
390.598 229.057 170.257 407.365 228.371 170.818 403.444 230.147 170.512 
406.197 195.359 172.658 408.86 196.33 172.834 409.425 197.296 172.682 
408.978 198.132 172.119 416.196 218.182 172.755 415.965 217.592 172.711 
416.679 217.887 173.175 415.964 219.552 172.558 416.209 219.981 172.863 
416.545 219.916 173.285 415.621 221.232 172.682 415.334 221.936 172.804 
390.29 227.138 171.158 407.199 227.821 171.861 408.977 227.182 171.859 
391.408 229.03 171.328 393.235 230.356 171.376 402.668 230.436 171.42 
404.923 229.092 171.644 399.7 231.303 171.565 409.04 195.906 173.522 
400.498 196.671 173.417 407.975 206.955 172.514 390.006 216.573 172.456 
416.702 215.969 173.703 408.413 216.63 171.434 415.286 216.679 172.703 
405.12 222.942 174.467 405.038 223.622 174.256 405.96 223.748 173.909 
414.881 222.68 172.871 405.295 224.391 173.925 407.546 223.634 174.025 
413.502 224.483 172.559 406.315 225.758 173.278 410.682 226.122 172.743 
408.456 226.938 172.296 404.074 228.555 173.077 406.36 227.786 172.266 
405.448 228.409 172.2 403.171 229.443 172.805 406.91 195.054 174.101 
401.611 196.014 174.49 411.793 197.326 174.493 412.511 197.873 174.616 
409.229 204.973 172.986 409.476 210.511 173.065 416.632 214.581 174.146 
417.446 215.44 174.8 405.284 221.982 175.096 407.023 221.781 175.163 
404.454 222.905 175.013 404.651 222.37 175.165 403.784 224.83 174.926 
412.315 224.885 173.779 411.462 225.313 173.514 397.053 230.54 172.94 
403.645 195.265 175.525 406.04 194.916 175.063 409.599 195.651 174.581 
416.101 198.077 176.099 416.664 198.507 176.164 416.743 199.091 176.062 
416.951 198.9 176.346 396.673 200.543 174.987 416.263 199.959 175.636 
416.494 201.281 175.691 416.917 209.783 175.65 414.535 211.539 174.109 
417.34 212.13 175.691 404.83 221.64 175.887 407.189 220.882 176.21 
417.584 219.072 175.765 404.487 221.914 175.948 416.511 221.005 175.514 
415.439 222.149 175.223 414.193 223.162 175.039 395.456 228.392 174.747 
402.888 228.272 174.182 397.242 229.223 174.655 400.656 230.283 173.231 
401.593 196.223 176.053 416.25 198.04 176.254 416.844 198.606 176.309 
396.146 201.336 175.418 416.895 203.142 176.308 393.067 205.672 174.811 
417.341 203.634 176.912 417.34 204.633 176.924 414.85 206.865 174.951 
416.845 206.148 176.265 416.176 207.501 175.541 417.338 206.778 176.796 
417.351 208.081 176.606 416.426 209.009 175.387 418.106 215.687 176.359 
418.003 217.545 176.409 406.65 220.381 177.151 407.869 220.623 176.732 
402.392 196.011 176.893 416.355 197.951 177.144 416.73 198.308 176.875 
417.028 198.705 177.127 417.274 199.237 177.31 417.847 208.415 177.428 
418.039 210.564 177.377 407.76 220.382 177.095 417.229 219.806 177.397 
401.195 226.214 176.736 399.536 226.802 176.768 398.693 228.098 175.753 
403.829 195.672 177.588 408.312 195.163 177.163 412.018 196.003 177.687 
416.304 197.901 177.852 417.913 203.495 178.271 417.974 205.493 178.284 
418.197 209.749 178.191 418.309 214.966 178.048 395.423 217.17 178.091 
402.18 224.066 177.375 397.682 224.339 177.7 400.851 225.126 177.555 
399.997 225.634 177.47 406.539 195.409 178.193 412.134 196.147 179.011 
399.719 199.8 178.899 417.824 201.141 178.863 397.285 203.874 178.676 
418.091 204.809 179.041 418.22 207.884 179.026 411.53 221.023 178.81 
398.615 221.634 179.075 403.246 221.969 178.397 413.221 221.689 178.196 
414.366 221.479 178.333 400.359 224.236 178.202 398.945 225.345 177.587 
414.963 197.13 179.062 416.113 197.873 179.164 417.492 199.958 179.359 
418.275 209.131 179.822 406.435 220.026 179.252 408.037 219.916 179.652 
417.274 218.713 179.417 404.343 220.779 179.319 414.497 220.735 179.557 
399.812 222.546 179.103 406.898 196.366 180.202 409.634 196.148 180.056 
404.593 197.224 180.4 413.078 196.818 180.478 418.148 208.31 180.613 
418.162 210.331 180.614 417.931 214.488 180.546 407.603 219.89 179.677 
406.304 219.916 180.309 415.728 219.577 180.558 401.516 221.382 179.792 
403.044 221.218 179.614 416.433 198.861 181.141 403.599 199.122 181.432 
401.598 204.754 181.982 417.921 207.504 181.355 417.752 212.52 181.502 
417.357 216.267 181.134 404.561 219.372 181.59 411.777 197.377 181.869 
411.603 197.852 182.433 415.887 199.077 182.016 417.526 204.734 181.959 
417.418 212.176 182.199 417.199 211.618 182.551 403.374 214.948 183.145 
416.168 215.312 182.814 414.855 217.556 182.721 404.617 218.488 182.465 
408.237 219.256 181.99 408.931 198.974 183.152 413.275 198.623 182.892 
414.071 198.765 182.747 414.586 199.692 183.263 415.266 200.331 183.251 
405.456 201.49 183.176 415.924 201.29 183.129 407.645 201.894 183.936 
417.16 205.933 182.626 405.053 210.052 183.981 416.657 211.269 183.075 
416.158 213.891 183.182 406.242 217.37 183.508 413.445 217.253 183.392 
412.276 198.997 183.283 414.049 199.694 183.408 410.393 200.88 184.086 
413.922 200.336 183.667 414.588 204.698 184.196 410.184 206.276 184.685 
406.934 218.031 183.265 411.045 200.176 271.414 412.798 200.112 271.438 
414.505 200.193 271.675 410.112 201.084 271.186 412.447 201.659 270.946 
414.732 200.6 271.587 415.27 203.447 271.296 414.598 204.644 270.952 
416.06 209.244 271.588 415.895 213.282 271.926 411.604 214.663 270.766 
[...]
POINT_DATA 793
COLOR_SCALARS scalars 3
1 0.729412 0.52549 1 0.729412 0.52549 1 0.729412 0.52549 
1 0.729412 0.52549 1 0.729412 0.52549 
1 0.729412 0.52549 1 0.729412 0.52549 
1 0.729412 0.52549 1 0.729412 0.52549 
1 0.729412 0.52549 1 0.729412 0.52549 
1 0.729412 0.52549 1 0.729412 0.52549 
1 0.729412 0.52549 1 0.729412 0.52549 
1 0.729412 0.52549 1 0.729412 0.52549 
1 0.729412 0.52549 1 0.729412 0.52549 
1 0.729412 0.52549 1 0.729412 0.52549 
1 0.729412 0.52549 1 0.729412 0.52549 
1 0.729412 0.52549 1 0.729412 0.52549 
1 0.729412 0.52549 1 0.729412 0.52549 
1 0.729412 0.52549 1 0.729412 0.52549 
1 0.729412 0.52549 1 0.729412 0.52549 
1 0.729412 0.52549 1 0.729412 0.52549 
1 0.729412 0.52549 1 0.729412 0.52549 
1 0.729412 0.52549 1 0.729412 0.52549 
1 0.729412 0.52549 1 0.729412 0.52549 
1 0.729412 0.52549 1 0.729412 0.52549 
1 0.729412 0.52549 1 0.729412 0.52549 
1 0.729412 0.52549 1 0.729412 0.52549 
1 0.729412 0.52549 1 0.729412 0.52549 
1 0.729412 0.52549 1 0.729412 0.52549 
1 0.729412 0.52549 1 0.729412 0.52549 
1 0.729412 0.52549 1 0.729412 0.52549 
1 0.729412 0.52549 1 0.729412 0.52549 
1 0.729412 0.52549 1 0.729412 0.52549 
1 0.729412 0.52549 1 0.729412 0.52549 
1 0.729412 0.52549 1 0.729412 0.52549 
1 0.729412 0.52549 1 0.729412 0.52549 
1 0.729412 0.52549 1 0.729412 0.52549 
1 0.729412 0.52549 1 0.729412 0.52549 
1 0.729412 0.52549 1 0.729412 0.52549 
1 0.729412 0.52549 1 0.729412 0.52549 
1 0.729412 0.52549 1 0.729412 0.52549 
1 0.729412 0.52549 1 0.729412 0.52549 
1 0.729412 0.52549 1 0.729412 0.52549 
1 0.729412 0.52549 1 0.729412 0.52549 
1 0.729412 0.52549 1 0.729412 0.52549 
1 0.729412 0.52549 1 0.729412 0.52549 
1 0.729412 0.52549 1 0.729412 0.52549 
1 0.729412 0.52549 1 0.729412 0.52549 
1 0.729412 0.52549 1 0.729412 0.52549 
1 0.729412 0.52549 1 0.729412 0.52549 
1 0.729412 0.52549 1 0.729412 0.52549 
1 0.729412 0.52549 1 0.729412 0.52549 
1 0.729412 0.52549 1 0.729412 0.52549 
1 0.729412 0.52549 1 0.729412 0.52549 
1 0.729412 0.52549 1 0.729412 0.52549 
1 0.729412 0.52549 1 0.729412 0.52549 
1 0.729412 0.52549 1 0.729412 0.52549 
1 0.729412 0.52549 1 0.729412 0.52549 
1 0.729412 0.52549 1 0.729412 0.52549 
1 0.729412 0.52549 1 0.729412 0.52549 
1 0.729412 0.52549 1 0.729412 0.52549 
1 0.729412 0.52549 1 0.729412 0.52549 
1 0.729412 0.52549 1 0.729412 0.52549 
1 0.729412 0.52549 1 0.729412 0.52549 
1 0.729412 0.52549 1 0.729412 0.52549 
1 0.729412 0.52549 1 0.729412 0.52549 
1 0.729412 0.52549 1 0.729412 0.52549 
1 0.729412 0.52549 1 0.729412 0.52549 
1 0.729412 0.52549 1 0.729412 0.52549 
1 0.729412 0.52549 1 0.729412 0.52549 
1 0.729412 0.52549 1 0.729412 0.52549 
1 0.729412 0.52549 1 0.729412 0.52549 
1 0.729412 0.52549 1 0.729412 0.52549 
1 0.729412 0.52549 1 0.729412 0.52549 
1 0.729412 0.52549 1 0.729412 0.52549 
1 0.729412 0.52549 1 0.729412 0.52549 
1 0.729412 0.52549 1 0.729412 0.52549 
1 0.729412 0.52549 1 0.729412 0.52549 
1 0.729412 0.52549 1 0.729412 0.52549 
1 0.729412 0.52549 1 0.729412 0.52549 
1 0.729412 0.52549 1 0.729412 0.52549 
1 0.729412 0.52549 1 0.729412 0.52549 
1 0.729412 0.52549 1 0.729412 0.52549 
1 0.729412 0.52549 1 0.729412 0.52549 
1 0.729412 0.52549 1 0.729412 0.52549 
1 0.729412 0.52549 1 0.729412 0.52549 
1 0.729412 0.52549 1 0.729412 0.52549 
1 0.729412 0.52549 1 0.729412 0.52549 
1 0.729412 0.52549 1 0.729412 0.52549 
1 0.729412 0.52549 1 0.729412 0.52549 
1 0.729412 0.52549 1 0.729412 0.52549 
1 0.729412 0.52549 1 0.729412 0.52549 
1 0.729412 0.52549 1 0.729412 0.52549 
1 0.729412 0.52549 1 0.729412 0.52549 
1 0.729412 0.52549 1 0.729412 0.52549 
1 0.729412 0.52549 1 0.729412 0.52549 
1 0.729412 0.52549 1 0.729412 0.52549 
1 0.729412 0.52549 1 0.729412 0.52549 
1 0.729412 0.52549 1 0.729412 0.52549 
1 0.729412 0.52549 1 0.729412 0.52549 
1 0.729412 0.52549 1 0.729412 0.52549 
1 0.729412 0.52549 1 0.729412 0.52549 
1 0.729412 0.52549 1 0.729412 0.52549 
1 0.729412 0.52549 1 0.729412 0.52549 
1 0.729412 0.52549 1 0.729412 0.52549 
1 0.729412 0.52549 1 0.729412 0.52549 
1 0.729412 0.52549 1 0.729412 0.52549 
1 0.729412 0.52549 1 0.729412 0.52549 
1 0.729412 0.52549 1 0.729412 0.52549 
1 0.729412 0.52549 1 0.729412 0.52549 
1 0.729412 0.52549 1 0.729412 0.52549 
1 0.729412 0.52549 1 0.729412 0.52549 
1 0.729412 0.52549 1 0.729412 0.52549 
1 0.729412 0.52549 1 0.729412 0.52549 
1 0.729412 0.52549 1 0.729412 0.52549 
1 0.729412 0.52549 1 0.729412 0.52549 
1 0.729412 0.52549 1 0.729412 0.52549 
1 0.729412 0.52549 1 0.729412 0.52549 
1 0.729412 0.52549 1 0.729412 0.52549 
1 0.729412 0.52549 1 0.729412 0.52549 
1 0.729412 0.52549 1 0.729412 0.52549 
1 0.729412 0.52549 1 0.729412 0.52549 
1 0.729412 0.52549 1 0.729412 0.52549 
1 0.729412 0.52549 1 0.729412 0.52549 
1 0.729412 0.52549 1 0.729412 0.52549 
1 0.729412 0.52549 1 0.729412 0.52549 
1 0.729412 0.52549 1 0.729412 0.52549 
1 0.729412 0.52549 1 0.729412 0.52549 
1 0.729412 0.52549 1 0.729412 0.52549 
1 0.729412 0.52549 1 0.729412 0.52549 
1 0.729412 0.52549 1 0.729412 0.52549 
1 0.729412 0.52549 1 0.729412 0.52549 
1 0.729412 0.52549 1 0.729412 0.52549 
1 0.729412 0.52549 1 0.729412 0.52549 
1 0.729412 0.52549 1 0.729412 0.52549 
1 0.729412 0.52549 1 0.729412 0.52549 
1 0.729412 0.52549 1 0.729412 0.52549 
1 0.729412 0.52549 1 0.729412 0.52549 
1 0.729412 0.52549 1 0.729412 0.52549 
1 0.729412 0.52549 1 0.729412 0.52549 
1 0.729412 0.52549 1 0.729412 0.52549 
1 0.729412 0.52549 1 0.729412 0.52549 
1 0.729412 0.52549 1 0.729412 0.52549 
1 0.729412 0.52549 1 0.729412 0.52549 
1 0.729412 0.52549 1 0.729412 0.52549 
1 0.729412 0.52549 1 0.729412 0.52549 
1 0.729412 0.52549 1 0.729412 0.52549 
1 0.729412 0.52549 1 0.729412 0.52549 
1 0.729412 0.52549 1 0.729412 0.52549 
1 0.729412 0.52549 1 0.729412 0.52549 
1 0.729412 0.52549 1 0.729412 0.52549 
1 0.729412 0.52549 1 0.729412 0.52549 
1 0.729412 0.52549 1 0.729412 0.52549 
1 0.729412 0.52549 1 0.729412 0.52549 
1 0.729412 0.52549 1 0.729412 0.52549 
1 0.729412 0.52549 1 0.729412 0.52549 
1 0.729412 0.52549 1 0.729412 0.52549 
1 0.729412 0.52549 1 0.729412 0.52549 
1 0.729412 0.52549 1 0.729412 0.52549 
1 0.729412 0.52549 1 0.729412 0.52549 
1 0.729412 0.52549 1 0.729412 0.52549 
1 0.729412 0.52549 1 0.729412 0.52549 
1 0.729412 0.52549 1 0.729412 0.52549 
1 0.729412 0.52549 1 0.729412 0.52549 
1 0.729412 0.52549 1 0.729412 0.52549 
1 0.729412 0.52549 1 0.729412 0.52549 
1 0.729412 0.52549 1 0.729412 0.52549 
1 0.729412 0.52549 1 0.729412 0.52549 
1 0.729412 0.52549 1 0.729412 0.52549 
1 0.729412 0.52549 1 0.729412 0.52549 
1 0.729412 0.52549 1 0.729412 0.52549 
1 0.729412 0.52549 1 0.729412 0.52549 
1 0.729412 0.52549 1 0.729412 0.52549 
1 0.729412 0.52549 1 0.729412 0.52549 
1 0.729412 0.52549 1 0.729412 0.52549 
1 0.729412 0.52549 1 0.729412 0.52549 
1 0.729412 0.52549 1 0.729412 0.52549 
1 0.729412 0.52549 1 0.729412 0.52549 
1 0.729412 0.52549 1 0.729412 0.52549 
1 0.729412 0.52549 1 0.729412 0.52549 
1 0.729412 0.52549 1 0.729412 0.52549 
1 0.729412 0.52549 1 0.729412 0.52549 
1 0.729412 0.52549 1 0.729412 0.52549 
1 0.729412 0.52549 1 0.729412 0.52549 
1 0.729412 0.52549 1 0.729412 0.52549 
1 0.729412 0.52549 1 0.729412 0.52549 
1 0.729412 0.52549 1 0.729412 0.52549 
1 0.729412 0.52549 1 0.729412 0.52549 
1 0.729412 0.52549 1 0.729412 0.52549 
1 0.729412 0.52549 1 0.729412 0.52549 
1 0.729412 0.52549 1 0.729412 0.52549 
1 0.729412 0.52549 1 0.729412 0.52549 
1 0.729412 0.52549 1 0.729412 0.52549 
1 0.729412 0.52549 1 0.729412 0.52549 
1 0.729412 0.52549 1 0.729412 0.52549 
1 0.729412 0.52549 1 0.729412 0.52549 
1 0.729412 0.52549 1 0.729412 0.52549 
1 0.729412 0.52549 1 0.729412 0.52549 
1 0.729412 0.52549 1 0.729412 0.52549 
1 0.729412 0.52549 1 0.729412 0.52549 
1 0.729412 0.52549 1 0.729412 0.52549 
1 0.729412 0.52549 1 0.729412 0.52549 
1 0.729412 0.52549 1 0.729412 0.52549 
1 0.729412 0.52549 1 0.729412 0.52549 
1 0.729412 0.52549 1 0.729412 0.52549 
1 0.729412 0.52549 1 0.729412 0.52549 
1 0.729412 0.52549 1 0.729412 0.52549 
1 0.729412 0.52549 1 0.729412 0.52549 
1 0.729412 0.52549 1 0.729412 0.52549 
1 0.729412 0.52549 1 0.729412 0.52549 
1 0.729412 0.52549 1 0.729412 0.52549 
1 0.729412 0.52549 1 0.729412 0.52549 
1 0.729412 0.52549 1 0.729412 0.52549 
1 0.729412 0.52549 1 0.729412 0.52549 
1 0.729412 0.52549 1 0.729412 0.52549 
1 0.729412 0.52549 1 0.729412 0.52549 
1 0.729412 0.52549 1 0.729412 0.52549 
1 0.729412 0.52549 1 0.729412 0.52549 
1 0.729412 0.52549 1 0.729412 0.52549 
1 0.729412 0.52549 1 0.729412 0.52549 
1 0.729412 0.52549 1 0.729412 0.52549 
1 0.729412 0.52549 1 0.729412 0.52549 
1 0.729412 0.52549 1 0.729412 0.52549 
1 0.729412 0.52549 1 0.729412 0.52549 
1 0.729412 0.52549 1 0.729412 0.52549 
1 0.729412 0.52549 1 0.729412 0.52549 
1 0.729412 0.52549 1 0.729412 0.52549 
1 0.729412 0.52549 1 0.729412 0.52549 
1 0.729412 0.52549 1 0.729412 0.52549 
1 0.729412 0.52549 1 0.729412 0.52549 
1 0.729412 0.52549 1 0.729412 0.52549 
1 0.729412 0.52549 1 0.729412 0.52549 
1 0.729412 0.52549 1 0.729412 0.52549 
1 0.729412 0.52549 1 0.729412 0.52549 
1 0.729412 0.52549 1 0.729412 0.52549 
1 0.729412 0.52549 1 0.729412 0.52549 
1 0.729412 0.52549 1 0.729412 0.52549 
1 0.729412 0.52549 1 0.729412 0.52549 
1 0.729412 0.52549 1 0.729412 0.52549 
1 0.729412 0.52549 1 0.729412 0.52549 
1 0.729412 0.52549 1 0.729412 0.52549 
1 0.729412 0.52549 1 0.729412 0.52549 
1 0.729412 0.52549 1 0.729412 0.52549 
1 0.729412 0.52549 1 0.729412 0.52549 
1 0.729412 0.52549 1 0.729412 0.52549 
1 0.729412 0.52549 1 0.729412 0.52549 
1 0.729412 0.52549 1 0.729412 0.52549 
1 0.729412 0.52549 1 0.729412 0.52549 
1 0.729412 0.52549 1 0.729412 0.52549 
1 0.729412 0.52549 1 0.729412 0.52549 
1 0.729412 0.52549 1 0.729412 0.52549 
1 0.729412 0.52549 1 0.729412 0.52549 
1 0.729412 0.52549 1 0.729412 0.52549 
1 0.729412 0.52549 1 0.729412 0.52549 
1 0.729412 0.52549 1 0.729412 0.52549 
1 0.729412 0.52549 1 0.729412 0.52549 
1 0.729412 0.52549 1 0.729412 0.52549 
1 0.729412 0.52549 1 0.729412 0.52549 
1 0.729412 0.52549 1 0.729412 0.52549 
1 0.729412 0.52549 1 0.729412 0.52549 
1 0.729412 0.52549 1 0.729412 0.52549 
1 0.729412 0.52549 1 0.729412 0.52549 
1 0.729412 0.52549 1 0.729412 0.52549 
1 0.729412 0.52549 1 0.729412 0.52549 
1 0.729412 0.52549 1 0.729412 0.52549 
1 0.729412 0.52549 1 0.729412 0.52549 
1 0.729412 0.52549 1 0.729412 0.52549 
1 0.729412 0.52549 1 0.729412 0.52549 
1 0.729412 0.52549 1 0.729412 0.52549 
1 0.729412 0.52549 1 0.729412 0.52549 
1 0.729412 0.52549 1 0.729412 0.52549 
1 0.729412 0.52549 1 0.729412 0.52549 
1 0.729412 0.52549 1 0.729412 0.52549 
1 0.729412 0.52549 1 0.729412 0.52549 
1 0.729412 0.52549 1 0.729412 0.52549 
1 0.729412 0.52549 1 0.729412 0.52549 
1 0.729412 0.52549 1 0.729412 0.52549 
1 0.729412 0.52549 1 0.729412 0.52549 
1 0.729412 0.52549 1 0.729412 0.52549 
1 0.729412 0.52549 1 0.729412 0.52549 
1 0.729412 0.52549 1 0.729412 0.52549 
1 0.729412 0.52549 1 0.729412 0.52549 
1 0.729412 0.52549 1 0.729412 0.52549 
1 0.729412 0.52549 1 0.729412 0.52549 
1 0.729412 0.52549 1 0.729412 0.52549 
1 0.729412 0.52549 1 0.729412 0.52549 
1 0.729412 0.52549 1 0.729412 0.52549 
1 0.729412 0.52549 1 0.729412 0.52549 
1 0.729412 0.52549 1 0.729412 0.52549 
1 0.729412 0.52549 1 0.729412 0.52549 
1 0.729412 0.52549 1 0.729412 0.52549 
1 0.729412 0.52549 1 0.729412 0.52549 
1 0.729412 0.52549 1 0.729412 0.52549 
1 0.729412 0.52549 1 0.729412 0.52549 
1 0.729412 0.52549 1 0.729412 0.52549 
1 0.729412 0.52549 1 0.729412 0.52549 
1 0.729412 0.52549 1 0.729412 0.52549 
1 0.729412 0.52549 1 0.729412 0.52549 
1 0.729412 0.52549 1 0.729412 0.52549 
1 0.729412 0.52549 1 0.729412 0.52549 
1 0.729412 0.52549 1 0.729412 0.52549 
1 0.729412 0.52549 1 0.729412 0.52549 
1 0.729412 0.52549 1 0.729412 0.52549 
1 0.729412 0.52549 1 0.729412 0.52549 
1 0.729412 0.52549 1 0.729412 0.52549 
1 0.729412 0.52549 1 0.729412 0.52549 
1 0.729412 0.52549 1 0.729412 0.52549 
1 0.729412 0.52549 1 0.729412 0.52549 
1 0.729412 0.52549 1 0.729412 0.52549 
1 0.729412 0.52549 1 0.729412 0.52549 
1 0.729412 0.52549 1 0.729412 0.52549 
1 0.729412 0.52549 1 0.729412 0.52549 
1 0.729412 0.52549 1 0.729412 0.52549 
1 0.729412 0.52549 1 0.729412 0.52549 
1 0.729412 0.52549 1 0.729412 0.52549 
1 0.729412 0.52549 1 0.729412 0.52549 
1 0.729412 0.52549 1 0.729412 0.52549 
1 0.729412 0.52549 1 0.729412 0.52549 
1 0.729412 0.52549 1 0.729412 0.52549 
1 0.729412 0.52549 1 0.729412 0.52549 
1 0.729412 0.52549 1 0.729412 0.52549 
1 0.729412 0.52549 1 0.729412 0.52549 
1 0.729412 0.52549 1 0.729412 0.52549 
1 0.729412 0.52549 1 0.729412 0.52549 
1 0.729412 0.52549 1 0.729412 0.52549 
1 0.729412 0.52549 1 0.729412 0.52549 
1 0.729412 0.52549 1 0.729412 0.52549 
1 0.729412 0.52549 1 0.729412 0.52549 
1 0.729412 0.52549 1 0.729412 0.52549 
1 0.729412 0.52549 1 0.729412 0.52549 
1 0.729412 0.52549 1 0.729412 0.52549 
1 0.729412 0.52549 1 0.729412 0.52549 
1 0.729412 0.52549 1 0.729412 0.52549 
1 0.729412 0.52549 1 0.729412 0.52549 
1 0.729412 0.52549 1 0.729412 0.52549 
1 0.729412 0.52549 1 0.729412 0.52549 
1 0.729412 0.52549 1 0.729412 0.52549 
1 0.729412 0.52549 1 0.729412 0.52549 
1 0.729412 0.52549 1 0.729412 0.52549 
1 0.729412 0.52549 1 0.729412 0.52549 
1 0.729412 0.52549 1 0.729412 0.52549 
1 0.729412 0.52549 1 0.729412 0.52549 
1 0.729412 0.52549 1 0.729412 0.52549 
1 0.729412 0.52549 1 0.729412 0.52549 
1 0.729412 0.52549 1 0.729412 0.52549 
1 0.729412 0.52549 1 0.729412 0.52549 
1 0.729412 0.52549 1 0.729412 0.52549 
1 0.729412 0.52549 1 0.729412 0.52549 
1 0.729412 0.52549 1 0.729412 0.52549 
1 0.729412 0.52549 1 0.729412 0.52549 
1 0.729412 0.52549 1 0.729412 0.52549 
1 0.729412 0.52549 1 0.729412 0.52549 
1 0.729412 0.52549 1 0.729412 0.52549 
1 0.729412 0.52549 1 0.729412 0.52549 
1 0.729412 0.52549 1 0.729412 0.52549 
1 0.729412 0.52549 1 0.729412 0.52549 
1 0.729412 0.52549 1 0.729412 0.52549 
1 0.729412 0.52549 1 0.729412 0.52549 
1 0.729412 0.52549 1 0.729412 0.52549 
1 0.729412 0.52549 1 0.729412 0.52549 
1 0.729412 0.52549 1 0.729412 0.52549 
1 0.729412 0.52549 1 0.729412 0.52549 
1 0.729412 0.52549 1 0.729412 0.52549 
1 0.729412 0.52549 1 0.729412 0.52549 
1 0.729412 0.52549 1 0.729412 0.52549 
1 0.729412 0.52549 1 0.729412 0.52549 
1 0.729412 0.52549 1 0.729412 0.52549 
1 0.729412 0.52549 1 0.729412 0.52549 
1 0.729412 0.52549 1 0.729412 0.52549 
1 0.729412 0.52549 1 0.729412 0.52549 
1 0.729412 0.52549 1 0.729412 0.52549 
1 0.729412 0.52549 1 0.729412 0.52549 
1 0.729412 0.52549 1 0.729412 0.52549 
1 0.729412 0.52549 1 0.729412 0.52549 
1 0.729412 0.52549 1 0.729412 0.52549 
1 0.729412 0.52549 1 0.729412 0.52549 
1 0.729412 0.52549 1 0.729412 0.52549 
1 0.729412 0.52549 1 0.729412 0.52549 
1 0.729412 0.52549 1 0.729412 0.52549 
1 0.729412 0.52549 1 0.729412 0.52549 
1 0.729412 0.52549 1 0.729412 0.52549 
1 0.729412 0.52549 1 0.729412 0.52549 
1 0.729412 0.52549 1 0.729412 0.52549 
1 0.729412 0.52549 1 0.729412 0.52549 
1 0.729412 0.52549 1 0.729412 0.52549 
1 0.729412 0.52549 1 0.729412 0.52549 
1 0.729412 0.52549 1 0.729412 0.52549 
1 0.729412 0.52549 1 0.729412 0.52549 
1 0.729412 0.52549 1 0.729412 0.52549 
1 0.729412 0.52549 1 0.729412 0.52549 
1 0.729412 0.52549 1 0.729412 0.52549 
1 0.729412 0.52549 1 0.729412 0.52549 
1 0.729412 0.52549 1 0.729412 0.52549 
1 0.729412 0.52549 1 0.729412 0.52549 
1 0.729412 0.52549 1 0.729412 0.52549 
1 0.729412 0.52549 1 0.729412 0.52549 
1 0.729412 0.52549 1 0.729412 0.52549 
1 0.729412 0.52549 1 0.729412 0.52549 
1 0.729412 0.52549 1 0.729412 0.52549 
1 0.729412 0.52549 1 0.729412 0.52549 
1 0.729412 0.52549 1 0.729412 0.52549 

NORMALS Normals float
0.349756 -0.232274 -0.90759 0.179556 -0.42613 -0.886664 -0.266591 -0.294915 -0.917581 
0.183281 -0.0234975 -0.98278 0.694342 -0.0693052 -0.7163 -0.345794 -0.00477318 -0.938298 
0.727598 0.0339894 -0.685161 -0.0716382 0.0891068 -0.993443 0.409842 0.0937449 -0.907327 
0.0771399 0.217088 -0.973099 0.249355 -0.480564 -0.840762 0.0995932 -0.527591 -0.84364 
0.638715 -0.422533 -0.643046 -0.329815 -0.423479 -0.843735 0.710358 -0.285159 -0.643488 
-0.668453 -0.287181 -0.686074 -0.419663 -0.158586 -0.893719 -0.589656 -0.0700383 -0.804612 
-0.694204 -0.0740885 -0.715955 -0.692993 0.0867945 -0.715701 -0.373956 0.15971 -0.913592 
-0.340493 0.265509 -0.901981 0.27353 0.211035 -0.938427 -0.107996 0.20285 -0.973236 
0.0795228 0.35795 -0.930348 0.169648 0.18331 -0.968306 -0.385812 -0.568584 -0.72654 
-0.111376 -0.776753 -0.61988 0.327773 -0.613914 -0.718105 0.305769 -0.797156 -0.520623 
-0.801279 -0.105198 -0.58897 0.0277518 0.288859 -0.956969 0.626515 0.148722 -0.765089 
-0.388426 0.230976 -0.892062 0.243797 0.200911 -0.948788 0.71657 0.0326657 -0.69675 
0.568948 0.0460758 -0.821082 -0.106764 0.220322 -0.969567 -0.0809594 -0.920957 -0.38116 
-0.630632 -0.560524 -0.536765 -0.471875 -0.770319 -0.428885 -0.805589 -0.16334 -0.569515 
-0.870144 -0.302849 -0.388757 -0.922001 -0.104705 -0.372762 -0.916016 0.0900798 -0.390898 
-0.729544 0.205669 -0.652278 -0.628367 0.234487 -0.741735 -0.62912 0.258455 -0.733082 
-0.494433 0.40185 -0.770748 -0.0534206 0.30035 -0.952332 -0.617439 -0.708706 -0.341328 
0.684363 -0.515499 -0.515663 -0.818564 -0.433422 -0.376959 -0.621981 0.454035 -0.637959 
-0.740284 0.361545 -0.566802 -0.630998 0.338548 -0.698017 -0.345128 0.35778 -0.867687 
-0.17416 0.336285 -0.925517 0.317415 0.115709 -0.941201 0.505109 -0.0270201 -0.862633 
0.201096 0.32803 -0.923015 -0.160191 0.558299 -0.814027 0.014487 0.572693 -0.819642 
-0.142958 -0.927615 -0.345098 -0.724598 -0.674287 -0.14246 -0.805757 0.374313 -0.458962 
-0.518839 0.414353 -0.747742 0.645311 -0.175645 -0.743454 -0.532122 0.488482 -0.691543 
-0.39824 0.680785 -0.614766 0.474869 0.198543 -0.857368 0.0803611 0.661297 -0.745807 
0.173522 0.640045 -0.748487 0.287431 -0.779927 -0.555964 0.709003 -0.415815 -0.569572 
0.565654 -0.390046 -0.726567 -0.946026 0.254045 -0.201238 -0.777392 0.446138 -0.443422 
-0.107567 0.809087 -0.577761 0.112832 0.773838 -0.623253 0.0938427 0.830884 -0.548475 
0.382078 0.563646 -0.732338 0.0320112 -0.526024 -0.849867 0.247935 -0.438755 -0.863726 
-0.984177 -0.15722 -0.0817098 0.810616 -0.0567264 -0.582825 -0.722167 0.639994 -0.262453 
-0.63302 0.749848 -0.192388 -0.412514 0.873705 -0.257823 -0.0959742 0.930735 -0.352876 
-0.0937528 -0.619382 -0.779472 -0.0162068 -0.469034 -0.883031 -0.0378277 -0.41216 -0.910326 
-0.0706479 -0.628602 -0.774511 0.266293 -0.21228 -0.940226 -0.0221535 -0.832926 -0.55294 
0.475135 -0.186276 -0.85997 0.712237 -0.186698 -0.676655 0.578561 0.223192 -0.784508 
-0.604455 0.790439 -0.0991946 0.2165 0.871838 -0.439347 -0.0160674 -0.569206 -0.822038 
0.211445 -0.303404 -0.929105 0.248812 -0.272937 -0.9293 -0.373131 -0.903459 -0.211031 
-0.314715 -0.853374 -0.415581 0.592624 0.00780548 -0.805441 0.761149 0.022662 -0.648181 
0.747499 -0.065943 -0.660982 -0.901933 0.417094 -0.112021 -0.218141 0.971626 -0.0914201 
0.479384 0.73139 -0.485037 -0.0052452 -0.532487 -0.846422 0.16187 -0.269523 -0.949292 
0.392181 -0.127214 -0.911049 -0.327744 -0.705678 -0.628174 -0.340638 -0.927269 -0.155362 
0.416142 0.0269868 -0.908899 -0.818237 -0.572434 0.0529929 0.631596 0.0775861 -0.771406 
0.483604 -0.203833 -0.851223 -0.805803 0.551395 0.215974 0.538728 0.104787 -0.835938 
-0.532194 0.835149 0.13891 0.495238 0.625327 -0.60308 0.403366 0.807732 -0.42996 
0.115181 0.972035 -0.204648 -0.104059 -0.646941 -0.755407 -0.1159 -0.635553 -0.763308 
0.23599 -0.287215 -0.928341 -0.258283 -0.723879 -0.639758 -0.623324 -0.781851 -0.0132868 
-0.854265 -0.413894 0.314521 -0.937801 -0.289673 0.19136 -0.983443 -0.0213558 0.179956 
0.566501 -0.0865758 -0.819501 0.532201 -0.219235 -0.817739 -0.78805 0.4649 0.40354 
0.505207 0.227332 -0.832518 -0.671107 0.727029 0.145067 0.515496 0.644194 -0.565046 
0.345239 0.901721 -0.260212 0.4121 0.846108 -0.338046 0.276813 -0.463705 -0.841637 
0.141561 -0.344991 -0.927869 0.327988 0.00744612 -0.944653 -0.457927 -0.796255 -0.395324 
0.461622 -0.0348875 -0.88639 0.27816 -0.0889348 -0.956409 0.363281 0.00973606 -0.931629 