# vtk DataFile Version 4.2
vtk output
ASCII
DATASET POLYDATA
POINTS 2512 float
334.877 246.517 96.2661 336.277 246.599 96.2491 332.311 247.193 96.7213 
332.133 247.059 96.711 333.505 247.318 96.5988 335.864 247.199 96.4574 
336.652 246.798 96.3214 337.474 247.182 96.6481 337.93 247.084 96.7119 
328 249.009 95.0174 328 249.009 95.0175 328 249.009 95.0175 
328 249.009 95.0175 336.452 247.467 96.7585 328 249.009 95.0175 
333.953 246.025 96.4285 331.491 246.513 97.1082 337.403 246.171 96.4936 
337.789 246.435 96.5872 330.796 246.942 97.5765 330.547 246.75 97.7218 
339.175 247.222 97.2351 339.626 247.047 97.341 328 249.009 95.0175 
332.169 247.621 97.4576 333.607 247.731 97.2137 338.863 247.518 97.4039 
343 249.009 96.0174 343 249.009 96.0175 343 249.009 96.0175 
343 249.009 96.0175 343 249.009 96.0175 337.096 245.322 96.78 
331.854 245.955 97.1151 331.287 245.647 97.557 330.569 246.412 97.7502 
341.577 246.82 97.9628 342.512 247.36 98.4153 330.434 247.337 98.43 
338.732 247.901 97.9617 341.849 247.659 98.4484 343 249.009 96.0175 
346.194 248.62 99.217 346.117 248.566 99.2512 346.181 248.649 99.2534 
347 250.009 97.0174 347 250.009 97.0175 347 250.009 97.0175 
347 250.009 97.0175 347 250.009 97.0175 350 251.009 97.0174 
350 251.009 97.0175 350 251.009 97.0175 350 251.009 97.0175 
350 251.009 97.0175 337.347 243.665 97.7014 330.147 245.866 98.4082 
340.582 245.672 97.7546 341.967 246.308 98.1511 329.604 246.82 98.9635 
329.414 246.583 99.1444 337.931 248.206 98.7206 343.541 247.463 98.8706 
342.508 247.945 98.9122 346.089 248.633 99.3109 345.936 248.53 99.3693 
346.375 248.555 99.3335 346.133 248.312 99.3558 346.25 248.701 99.4072 
346.624 248.703 99.527 347 250.009 97.0175 348 250.009 98.0174 
348 250.009 98.0175 348 250.009 98.0175 348 250.009 98.0175 
348 250.009 98.0175 350 251.009 97.0175 351 251.009 98.0174 
351 251.009 98.0175 351 251.009 98.0175 351 251.009 98.0175 
351 251.009 98.0175 353 252.009 98.0174 353 252.009 98.0175 
353 252.009 98.0175 353 252.009 98.0175 353 252.009 98.0175 
331.32 243.548 98.9493 329.159 246.215 99.5926 345.47 247.704 99.3239 
326 249.009 99.0174 326 249.009 99.0175 326 249.009 99.0175 
329.171 247.233 99.9974 326 249.009 99.0175 330.172 247.694 99.5071 
345.994 248.64 99.4737 344.02 248.012 99.2907 345.368 248.423 99.6373 
347.684 248.201 99.6983 326 249.009 99.0175 346.346 248.841 99.8207 
347.283 249.002 99.9975 348 250.009 98.0175 349.632 248.891 100.052 
350.198 249.707 100.504 351 251.009 98.0175 352.38 250.308 100.753 
352.635 250.358 100.796 352.882 250.291 100.874 352.535 250.51 100.928 
352.858 250.51 100.944 353 252.009 98.0175 353.828 250.784 101.232 
353.73 250.659 101.185 353.895 250.734 101.244 304 266.009 99.0174 
304 266.009 99.0175 304 266.009 99.0175 304 266.009 99.0175 
302 267.009 99.0174 302 267.009 99.0175 302 267.009 99.0175 
302 267.009 99.0175 304 266.009 99.0175 302 267.009 99.0175 
299 269.009 99.0174 299 269.009 99.0175 299 269.009 99.0175 
299 269.009 99.0175 299 269.009 99.0175 340.365 239.607 100.709 
341.101 240.303 100.435 328.447 247.079 101.127 326 249.009 99.0175 
328.904 247.398 100.781 342.424 248.573 100.122 343.293 248.557 100.023 
344.193 248.509 99.8954 350.156 248.612 100.122 351.563 249.845 100.631 
351.79 249.245 100.574 350.789 250.042 100.809 353.282 250.534 101.129 
353.102 249.875 101.012 353.632 250.32 101.195 353.328 250.856 101.641 
353.979 250.678 101.387 354.039 250.438 101.582 304 266.009 99.0175 
301 267.009 100.017 301 267.009 100.017 301 267.009 100.017 
302 267.009 99.0175 301 267.009 100.017 300 268.009 100.017 
300 268.009 100.017 300 268.009 100.017 301 267.009 100.017 
300 268.009 100.017 298 269.009 100.017 298 269.009 100.017 
298 269.009 100.017 299 269.009 99.0175 298 269.009 100.017 
300 268.009 100.017 298 269.009 100.017 337.215 238.871 100.823 
338.586 238.39 101.562 341.332 239.24 101.585 345.789 245.753 99.6931 
350.868 247.101 100.684 352.202 247.112 101.168 329.334 247.784 101.149 
353.412 248.407 101.571 352.835 249.153 100.988 349.775 250.304 101.471 
350.613 250.399 101.359 351.195 250.765 101.875 353.901 250.247 101.426 
353.702 249.838 101.405 351.988 250.862 101.815 354.166 250.342 102.098 
353.679 250.914 102.29 303 265.009 101.017 303 265.009 101.017 
303 265.009 101.017 303 265.009 101.017 301 266.009 101.017 
301 266.009 101.017 301 266.009 101.017 301 266.009 101.017 
303 265.009 101.017 299 267.009 101.517 299 267.008 101.517 
299 267.009 101.517 299 267.008 101.517 301 267.009 100.018 
301 266.009 101.017 297.654 268.008 101.669 297.654 268.007 101.669 
297.654 268.008 101.669 299 267.009 101.517 297.654 268.008 101.669 
300 268.009 100.018 298 269.009 100.018 297.654 268.008 101.669 
341.876 238.864 102.473 348.099 240.725 102.854 330.084 240.276 102.067 
348.914 241.329 102.506 351.422 244.408 101.785 352.758 245.45 102.05 
352.916 247.032 101.606 353.885 249.35 101.78 303 265.009 101.018 
301 266.009 101.018 299 267.008 101.518 299 267.008 101.518 
299 267.009 101.518 297.653 268.007 101.67 297.653 268.007 101.67 
297.653 268.007 101.67 297.654 268.007 101.67 297.654 268.007 101.669 
299 267.009 101.518 296 269.009 102.017 296 269.009 102.017 
296 269.009 102.017 297.653 268.007 101.67 296 269.009 102.017 
297.653 268.007 101.67 296 269.009 102.017 293 271.009 102.017 
293 271.009 102.017 293 271.009 102.017 293 271.009 102.017 
293 271.009 102.017 331.7 236.953 103.571 333.07 236.847 103.482 
331.367 237.509 103.177 336.394 237.249 103.253 346.484 239.837 103.376 
353.224 241.533 103.794 352.905 241.266 103.926 353.441 241.601 103.978 
353.258 241.404 104.014 353.414 241.518 104.25 349.967 241.958 102.406 
353.169 241.764 103.589 352.107 242.458 102.838 353.642 242.267 103.763 
353.72 242.125 103.997 353.725 243.291 103.526 353.251 245.539 102.413 
326.945 246.545 103.297 353.779 246.38 102.692 326.993 247.107 103.591 
326.697 246.889 103.734 330.446 248.356 102.529 327.356 247.685 103.925 
352.062 251.31 103.238 352.673 251.326 103.27 354.372 250.393 103.626 
353.184 251.323 103.791 317 254.009 103.017 317 254.009 103.017 
317 254.009 103.017 317 254.009 103.017 314.262 255.104 104.642 
314.244 255.08 104.713 314.219 255.124 104.671 314.292 255.079 104.678 
317 254.009 103.017 313.954 255.346 104.842 313.988 255.303 104.809 
313.865 255.364 104.895 314.024 255.296 104.857 311.395 257.127 104.751 
311.332 257.106 104.765 311.503 257.003 104.824 313.912 255.389 104.982 
310.84 257.76 104.683 310.894 257.682 104.682 310.772 257.768 104.701 
311.421 257.166 104.848 310.035 258.418 104.694 310.112 258.319 104.69 
309.975 258.41 104.718 310.757 257.855 104.796 309.167 259.098 104.814 
309.243 258.994 104.794 309.072 259.099 104.861 309.931 258.527 104.808 
306.586 260.759 104.803 306.697 260.644 104.858 309.096 259.192 104.935 
306.039 261.265 104.88 306.096 261.194 104.86 305.961 261.247 104.934 
305.983 261.325 105.006 302.916 263.258 105.077 302.976 263.176 105.068 
302.819 263.231 105.088 300.14 264.722 104.829 302.818 263.352 105.176 
299.022 265.491 104.65 298.83 265.634 104.68 299.221 265.556 104.706 
299.449 265.401 104.769 297.303 266.627 104.577 297.246 266.533 104.545 
296.985 266.701 104.581 297.519 266.535 104.59 297.522 266.417 104.58 
299 267.009 101.518 297.73 266.419 104.666 299.337 265.576 104.837 
294.933 267.948 104.38 295.026 267.717 104.402 297.653 268.007 101.67 
295.578 267.706 104.581 297.494 266.644 104.72 297.653 268.007 101.67 
294.464 267.997 104.422 294.822 268.253 104.456 296 269.009 102.018 
295.256 268.114 104.698 294.21 268.378 104.492 293.989 268.322 104.634 
294.43 268.432 104.464 294.783 268.404 104.525 292 271.009 103.017 
292 271.009 103.017 292 271.009 103.017 294.177 268.545 104.56 
293 271.009 102.018 292 271.009 103.017 294.302 268.605 104.617 
292 271.009 103.017 331.662 236.255 104.587 330.298 236.522 104.524 
341.085 238.257 103.992 351.563 240.915 104.063 352.781 241.111 104.209 
352.507 241.009 104.4 353.114 241.271 104.234 352.863 241.144 104.528 
353.567 241.802 104.654 354.001 243.598 103.816 354.179 243.639 104.364 
325.709 247.389 104.805 324.647 248.25 105.598 324.727 248.128 105.522 
324.541 248.213 105.649 327.954 248.25 104.557 339.027 248.988 103.712 
324.62 248.395 105.758 316.39 253.033 105.583 316.223 252.994 105.635 
316.51 252.996 105.603 316.586 252.937 105.626 353.604 251.282 104.692 
354.077 250.943 104.637 315.763 253.751 105.544 315.809 253.66 105.533 
315.675 253.757 105.532 317 254.009 103.018 315.848 253.682 105.6 
314.083 255.177 104.813 314.218 254.953 104.922 314.337 255.011 104.82 
314.319 255.063 104.743 315.679 253.891 105.667 313.708 255.312 104.957 
314.152 255.225 105.047 311.031 257.467 104.785 311.162 257.043 104.829 
311.568 256.758 104.915 311.771 256.841 105.049 313.507 255.613 105.213 
310.315 258.037 104.783 310.224 257.642 104.827 311.014 257.711 104.983 
309.477 258.68 104.832 308.897 258.657 104.895 310.659 258.099 105.143 
310.186 258.41 104.972 308.81 259.076 104.907 309.788 258.796 105.139 
309.352 259.056 105.02 306.268 260.975 104.902 306.8 260.369 104.936 
306.954 260.512 105.043 308.648 259.443 105.132 305.677 260.963 105.014 
306.647 260.926 105.199 303.124 262.945 105.126 305.571 261.492 105.225 
302.677 263.105 105.097 302.555 262.96 105.106 298.909 265.306 104.761 
298.181 265.464 104.801 299.713 265.031 104.849 300.392 264.273 105.023 
300.608 264.47 105.097 302.406 263.447 105.241 302.7 263.546 105.43 
297.148 266.357 104.629 298.148 265.987 104.744 300.254 264.982 105.193 
296.191 267.071 104.65 298.663 266.179 105.235 296.654 267.272 105.015 
293.636 268.362 105.024 294.453 268.625 104.792 294.179 268.706 104.85 
291 271.009 104.017 291 271.009 104.017 291 271.009 104.017 
292 271.009 103.018 291 271.009 104.017 291 271.009 104.017 
329.897 236.356 105.128 350.244 240.559 104.696 351.98 240.9 104.48 
353.158 241.527 105.312 353.456 241.854 105.272 354.569 244.891 105.09 
325.469 246.992 104.847 325.018 247.789 105.375 323.912 247.88 105.789 
[...]
POINT_DATA 2512
COLOR_SCALARS scalars 3
0.592157 0.92549 0.576471 0.592157 0.92549 0.576471 0.592157 0.92549 0.576471 
0.592157 0.92549 0.576471 0.592157 0.92549 0.576471 
0.592157 0.92549 0.576471 0.592157 0.92549 0.576471 
0.592157 0.92549 0.576471 0.592157 0.92549 0.576471 
0.592157 0.92549 0.576471 0.592157 0.92549 0.576471 
0.592157 0.92549 0.576471 0.592157 0.92549 0.576471 
0.592157 0.92549 0.576471 0.592157 0.92549 0.576471 
0.592157 0.92549 0.576471 0.592157 0.92549 0.576471 
0.592157 0.92549 0.576471 0.592157 0.92549 0.576471 
0.592157 0.92549 0.576471 0.592157 0.92549 0.576471 
0.592157 0.92549 0.576471 0.592157 0.92549 0.576471 
0.592157 0.92549 0.576471 0.592157 0.92549 0.576471 
0.592157 0.92549 0.576471 0.592157 0.92549 0.576471 
0.592157 0.92549 0.576471 0.592157 0.92549 0.576471 
0.592157 0.92549 0.576471 0.592157 0.92549 0.576471 
0.592157 0.92549 0.576471 0.592157 0.92549 0.576471 
0.592157 0.92549 0.576471 0.592157 0.92549 0.576471 
0.592157 0.92549 0.576471 0.592157 0.92549 0.576471 
0.592157 0.92549 0.576471 0.592157 0.92549 0.576471 
0.592157 0.92549 0.576471 0.592157 0.92549 0.576471 
0.592157 0.92549 0.576471 0.592157 0.92549 0.576471 
0.592157 0.92549 0.576471 0.592157 0.92549 0.576471 
0.592157 0.92549 0.576471 0.592157 0.92549 0.576471 
0.592157 0.92549 0.576471 0.592157 0.92549 0.576471 
0.592157 0.92549 0.576471 0.592157 0.92549 0.576471 
0.592157 0.92549 0.576471 0.592157 0.92549 0.576471 
0.592157 0.92549 0.576471 0.592157 0.92549 0.576471 
0.592157 0.92549 0.576471 0.592157 0.92549 0.576471 
0.592157 0.92549 0.576471 0.592157 0.92549 0.576471 
0.592157 0.92549 0.576471 0.592157 0.92549 0.576471 
0.592157 0.92549 0.576471 0.592157 0.92549 0.576471 
0.592157 0.92549 0.576471 0.592157 0.92549 0.576471 
0.592157 0.92549 0.576471 0.592157 0.92549 0.576471 
0.592157 0.92549 0.576471 0.592157 0.92549 0.576471 
0.592157 0.92549 0.576471 0.592157 0.92549 0.576471 
0.592157 0.92549 0.576471 0.592157 0.92549 0.576471 
0.592157 0.92549 0.576471 0.592157 0.92549 0.576471 
0.592157 0.92549 0.576471 0.592157 0.92549 0.576471 
0.592157 0.92549 0.576471 0.592157 0.92549 0.576471 
0.592157 0.92549 0.576471 0.592157 0.92549 0.576471 
0.592157 0.92549 0.576471 0.592157 0.92549 0.576471 
0.592157 0.92549 0.576471 0.592157 0.92549 0.576471 
0.592157 0.92549 0.576471 0.592157 0.92549 0.576471 
0.592157 0.92549 0.576471 0.592157 0.92549 0.576471 
0.592157 0.92549 0.576471 0.592157 0.92549 0.576471 
0.592157 0.92549 0.576471 0.592157 0.92549 0.576471 
0.592157 0.92549 0.576471 0.592157 0.92549 0.576471 
0.592157 0.92549 0.576471 0.592157 0.92549 0.576471 
0.592157 0.92549 0.576471 0.592157 0.92549 0.576471 
0.592157 0.92549 0.576471 0.592157 0.92549 0.576471 
0.592157 0.92549 0.576471 0.592157 0.92549 0.576471 
0.592157 0.92549 0.576471 0.592157 0.92549 0.576471 
0.592157 0.92549 0.576471 0.592157 0.92549 0.576471 
0.592157 0.92549 0.576471 0.592157 0.92549 0.576471 
0.592157 0.92549 0.576471 0.592157 0.92549 0.576471 
0.592157 0.92549 0.576471 0.592157 0.92549 0.576471 
0.592157 0.92549 0.576471 0.592157 0.92549 0.576471 
0.592157 0.92549 0.576471 0.592157 0.92549 0.576471 
0.592157 0.92549 0.576471 0.592157 0.92549 0.576471 
0.592157 0.92549 0.576471 0.592157 0.92549 0.576471 
0.592157 0.92549 0.576471 0.592157 0.92549 0.576471 
0.592157 0.92549 0.576471 0.592157 0.92549 0.576471 
0.592157 0.92549 0.576471 0.592157 0.92549 0.576471 
0.592157 0.92549 0.576471 0.592157 0.92549 0.576471 
0.592157 0.92549 0.576471 0.592157 0.92549 0.576471 
0.592157 0.92549 0.576471 0.592157 0.92549 0.576471 
0.592157 0.92549 0.576471 0.592157 0.92549 0.576471 
0.592157 0.92549 0.576471 0.592157 0.92549 0.576471 
0.592157 0.92549 0.576471 0.592157 0.92549 0.576471 
0.592157 0.92549 0.576471 0.592157 0.92549 0.576471 
0.592157 0.92549 0.576471 0.592157 0.92549 0.576471 
0.592157 0.92549 0.576471 0.592157 0.92549 0.576471 
0.592157 0.92549 0.576471 0.592157 0.92549 0.576471 
0.592157 0.92549 0.576471 0.592157 0.92549 0.576471 
0.592157 0.92549 0.576471 0.592157 0.92549 0.576471 
0.592157 0.92549 0.576471 0.592157 0.92549 0.576471 
0.592157 0.92549 0.576471 0.592157 0.92549 0.576471 
0.592157 0.92549 0.576471 0.592157 0.92549 0.576471 
0.592157 0.92549 0.576471 0.592157 0.92549 0.576471 
0.592157 0.92549 0.576471 0.592157 0.92549 0.576471 
0.592157 0.92549 0.576471 0.592157 0.92549 0.576471 
0.592157 0.92549 0.576471 0.592157 0.92549 0.576471 
0.592157 0.92549 0.576471 0.592157 0.92549 0.576471 
0.592157 0.92549 0.576471 0.592157 0.92549 0.576471 
0.592157 0.92549 0.576471 0.592157 0.92549 0.576471 
0.592157 0.92549 0.576471 0.592157 0.92549 0.576471 
0.592157 0.92549 0.576471 0.592157 0.92549 0.576471 
0.592157 0.92549 0.576471 0.592157 0.92549 0.576471 
0.592157 0.92549 0.576471 0.592157 0.92549 0.576471 
0.592157 0.92549 0.576471 0.592157 0.92549 0.576471 
0.592157 0.92549 0.576471 0.592157 0.92549 0.576471 
0.592157 0.92549 0.576471 0.592157 0.92549 0.576471 
0.592157 0.92549 0.576471 0.592157 0.92549 0.576471 
0.592157 0.92549 0.576471 0.592157 0.92549 0.576471 
0.592157 0.92549 0.576471 0.592157 0.92549 0.576471 
0.592157 0.92549 0.576471 0.592157 0.92549 0.576471 
0.592157 0.92549 0.576471 0.592157 0.92549 0.576471 
0.592157 0.92549 0.576471 0.592157 0.92549 0.576471 
0.592157 0.92549 0.576471 0.592157 0.92549 0.576471 
0.592157 0.92549 0.576471 0.592157 0.92549 0.576471 
0.592157 0.92549 0.576471 0.592157 0.92549 0.576471 
0.592157 0.92549 0.576471 0.592157 0.92549 0.576471 
0.592157 0.92549 0.576471 0.592157 0.92549 0.576471 
0.592157 0.92549 0.576471 0.592157 0.92549 0.576471 
0.592157 0.92549 0.576471 0.592157 0.92549 0.576471 
0.592157 0.92549 0.576471 0.592157 0.92549 0.576471 
0.592157 0.92549 0.576471 0.592157 0.92549 0.576471 
0.592157 0.92549 0.576471 0.592157 0.92549 0.576471 
0.592157 0.92549 0.576471 0.592157 0.92549 0.576471 
0.592157 0.92549 0.576471 0.592157 0.92549 0.576471 
0.592157 0.92549 0.576471 0.592157 0.92549 0.576471 
0.592157 0.92549 0.576471 0.592157 0.92549 0.576471 
0.592157 0.92549 0.576471 0.592157 0.92549 0.576471 
0.592157 0.92549 0.576471 0.592157 0.92549 0.576471 
0.592157 0.92549 0.576471 0.592157 0.92549 0.576471 
0.592157 0.92549 0.576471 0.592157 0.92549 0.576471 
0.592157 0.92549 0.576471 0.592157 0.92549 0.576471 
0.592157 0.92549 0.576471 0.592157 0.92549 0.576471 
0.592157 0.92549 0.576471 0.592157 0.92549 0.576471 
0.592157 0.92549 0.576471 0.592157 0.92549 0.576471 
0.592157 0.92549 0.576471 0.592157 0.92549 0.576471 
0.592157 0.92549 0.576471 0.592157 0.92549 0.576471 
0.592157 0.92549 0.576471 0.592157 0.92549 0.576471 
0.592157 0.92549 0.576471 0.592157 0.92549 0.576471 
0.592157 0.92549 0.576471 0.592157 0.92549 0.576471 
0.592157 0.92549 0.576471 0.592157 0.92549 0.576471 
0.592157 0.92549 0.576471 0.592157 0.92549 0.576471 
0.592157 0.92549 0.576471 0.592157 0.92549 0.576471 
0.592157 0.92549 0.576471 0.592157 0.92549 0.576471 
0.592157 0.92549 0.576471 0.592157 0.92549 0.576471 
0.592157 0.92549 0.576471 0.592157 0.92549 0.576471 
0.592157 0.92549 0.576471 0.592157 0.92549 0.576471 
0.592157 0.92549 0.576471 0.592157 0.92549 0.576471 
0.592157 0.92549 0.576471 0.592157 0.92549 0.576471 
0.592157 0.92549 0.576471 0.592157 0.92549 0.576471 
0.592157 0.92549 0.576471 0.592157 0.92549 0.576471 
0.592157 0.92549 0.576471 0.592157 0.92549 0.576471 
0.592157 0.92549 0.576471 0.592157 0.92549 0.576471 
0.592157 0.92549 0.576471 0.592157 0.92549 0.576471 
0.592157 0.92549 0.576471 0.592157 0.92549 0.576471 
0.592157 0.92549 0.576471 0.592157 0.92549 0.576471 
0.592157 0.92549 0.576471 0.592157 0.92549 0.576471 
0.592157 0.92549 0.576471 0.592157 0.92549 0.576471 
0.592157 0.92549 0.576471 0.592157 0.92549 0.576471 
0.592157 0.92549 0.576471 0.592157 0.92549 0.576471 
0.592157 0.92549 0.576471 0.592157 0.92549 0.576471 
0.592157 0.92549 0.576471 0.592157 0.92549 0.576471 
0.592157 0.92549 0.576471 0.592157 0.92549 0.576471 
0.592157 0.92549 0.576471 0.592157 0.92549 0.576471 
0.592157 0.92549 0.576471 0.592157 0.92549 0.576471 
0.592157 0.92549 0.576471 0.592157 0.92549 0.576471 
0.592157 0.92549 0.576471 0.592157 0.92549 0.576471 
0.592157 0.92549 0.576471 0.592157 0.92549 0.576471 
0.592157 0.92549 0.576471 0.592157 0.92549 0.576471 
0.592157 0.92549 0.576471 0.592157 0.92549 0.576471 
0.592157 0.92549 0.576471 0.592157 0.92549 0.576471 
0.592157 0.92549 0.576471 0.592157 0.92549 0.576471 
0.592157 0.92549 0.576471 0.592157 0.92549 0.576471 
0.592157 0.92549 0.576471 0.592157 0.92549 0.576471 
0.592157 0.92549 0.576471 0.592157 0.92549 0.576471 
0.592157 0.92549 0.576471 0.592157 0.92549 0.576471 
0.592157 0.92549 0.576471 0.592157 0.92549 0.576471 
0.592157 0.92549 0.576471 0.592157 0.92549 0.576471 
0.592157 0.92549 0.576471 0.592157 0.92549 0.576471 
0.592157 0.92549 0.576471 0.592157 0.92549 0.576471 
0.592157 0.92549 0.576471 0.592157 0.92549 0.576471 
0.592157 0.92549 0.576471 0.592157 0.92549 0.576471 
0.592157 0.92549 0.576471 0.592157 0.92549 0.576471 
0.592157 0.92549 0.576471 0.592157 0.92549 0.576471 
0.592157 0.92549 0.576471 0.592157 0.92549 0.576471 
0.592157 0.92549 0.576471 0.592157 0.92549 0.576471 
0.592157 0.92549 0.576471 0.592157 0.92549 0.576471 
0.592157 0.92549 0.576471 0.592157 0.92549 0.576471 
0.592157 0.92549 0.576471 0.592157 0.92549 0.576471 
0.592157 0.92549 0.576471 0.592157 0.92549 0.576471 
0.592157 0.92549 0.576471 0.592157 0.92549 0.576471 
0.592157 0.92549 0.576471 0.592157 0.92549 0.576471 
0.592157 0.92549 0.576471 0.592157 0.92549 0.576471 
0.592157 0.92549 0.576471 0.592157 0.92549 0.576471 
0.592157 0.92549 0.576471 0.592157 0.92549 0.576471 
0.592157 0.92549 0.576471 0.592157 0.92549 0.576471 
0.592157 0.92549 0.576471 0.592157 0.92549 0.576471 
0.592157 0.92549 0.576471 0.592157 0.92549 0.576471 
0.592157 0.92549 0.576471 0.592157 0.92549 0.576471 
0.592157 0.92549 0.576471 0.592157 0.92549 0.576471 
0.592157 0.92549 0.576471 0.592157 0.92549 0.576471 
0.592157 0.92549 0.576471 0.592157 0.92549 0.576471 
0.592157 0.92549 0.576471 0.592157 0.92549 0.576471 
0.592157 0.92549 0.576471 0.592157 0.92549 0.576471 
0.592157 0.92549 0.576471 0.592157 0.92549 0.576471 
0.592157 0.92549 0.576471 0.592157 0.92549 0.576471 
0.592157 0.92549 0.576471 0.592157 0.92549 0.576471 
0.592157 0.92549 0.576471 0.592157 0.92549 0.576471 
0.592157 0.92549 0.576471 0.592157 0.92549 0.576471 
0.592157 0.92549 0.576471 0.592157 0.92549 0.576471 
0.592157 0.92549 0.576471 0.592157 0.92549 0.576471 
0.592157 0.92549 0.576471 0.592157 0.92549 0.576471 
0.592157 0.92549 0.576471 0.592157 0.92549 0.576471 
0.592157 0.92549 0.576471 0.592157 0.92549 0.576471 
0.592157 0.92549 0.576471 0.592157 0.92549 0.576471 
0.592157 0.92549 0.576471 0.592157 0.92549 0.576471 
0.592157 0.92549 0.576471 0.592157 0.92549 0.576471 
0.592157 0.92549 0.576471 0.592157 0.92549 0.576471 
0.592157 0.92549 0.576471 0.592157 0.92549 0.576471 
0.592157 0.92549 0.576471 0.592157 0.92549 0.576471 
0.592157 0.92549 0.576471 0.592157 0.92549 0.576471 
0.592157 0.92549 0.576471 0.592157 0.92549 0.576471 
0.592157 0.92549 0.576471 0.592157 0.92549 0.576471 
0.592157 0.92549 0.576471 0.592157 0.92549 0.576471 
0.592157 0.92549 0.576471 0.592157 0.92549 0.576471 
0.592157 0.92549 0.576471 0.592157 0.92549 0.576471 
0.592157 0.92549 0.576471 0.592157 0.92549 0.576471 
0.592157 0.92549 0.576471 0.592157 0.92549 0.576471 
0.592157 0.92549 0.576471 0.592157 0.92549 0.576471 
0.592157 0.92549 0.576471 0.592157 0.92549 0.576471 
0.592157 0.92549 0.576471 0.592157 0.92549 0.576471 
0.592157 0.92549 0.576471 0.592157 0.92549 0.576471 
0.592157 0.92549 0.576471 0.592157 0.92549 0.576471 
0.592157 0.92549 0.576471 0.592157 0.92549 0.576471 
0.592157 0.92549 0.576471 0.592157 0.92549 0.576471 
0.592157 0.92549 0.576471 0.592157 0.92549 0.576471 
0.592157 0.92549 0.576471 0.592157 0.92549 0.576471 
0.592157 0.92549 0.576471 0.592157 0.92549 0.576471 
0.592157 0.92549 0.576471 0.592157 0.92549 0.576471 
0.592157 0.92549 0.576471 0.592157 0.92549 0.576471 
0.592157 0.92549 0.576471 0.592157 0.92549 0.576471 
0.592157 0.92549 0.576471 0.592157 0.92549 0.576471 
0.592157 0.92549 0.576471 0.592157 0.92549 0.576471 
0.592157 0.92549 0.576471 0.592157 0.92549 0.576471 
0.592157 0.92549 0.576471 0.592157 0.92549 0.576471 
0.592157 0.92549 0.576471 0.592157 0.92549 0.576471 
0.592157 0.92549 0.576471 0.592157 0.92549 0.576471 
0.592157 0.92549 0.576471 0.592157 0.92549 0.576471 
0.592157 0.92549 0.576471 0.592157 0.92549 0.576471 
0.592157 0.92549 0.576471 0.592157 0.92549 0.576471 
0.592157 0.92549 0.576471 0.592157 0.92549 0.576471 
0.592157 0.92549 0.576471 0.592157 0.92549 0.576471 
0.592157 0.92549 0.576471 0.592157 0.92549 0.576471 
0.592157 0.92549 0.576471 0.592157 0.92549 0.576471 
0.592157 0.92549 0.576471 0.592157 0.92549 0.576471 
0.592157 0.92549 0.576471 0.592157 0.92549 0.576471 
0.592157 0.92549 0.576471 0.592157 0.92549 0.576471 
0.592157 0.92549 0.576471 0.592157 0.92549 0.576471 
0.592157 0.92549 0.576471 0.592157 0.92549 0.576471 
0.592157 0.92549 0.576471 0.592157 0.92549 0.576471 
0.592157 0.92549 0.576471 0.592157 0.92549 0.576471 
0.592157 0.92549 0.576471 0.592157 0.92549 0.576471 
0.592157 0.92549 0.576471 0.592157 0.92549 0.576471 
0.592157 0.92549 0.576471 0.592157 0.92549 0.576471 
0.592157 0.92549 0.576471 0.592157 0.92549 0.576471 
0.592157 0.92549 0.576471 0.592157 0.92549 0.576471 
0.592157 0.92549 0.576471 0.592157 0.92549 0.576471 
0.592157 0.92549 0.576471 0.592157 0.92549 0.576471 
0.592157 0.92549 0.576471 0.592157 0.92549 0.576471 
0.592157 0.92549 0.576471 0.592157 0.92549 0.576471 
0.592157 0.92549 0.576471 0.592157 0.92549 0.576471 
0.592157 0.92549 0.576471 0.592157 0.92549 0.576471 
0.592157 0.92549 0.576471 0.592157 0.92549 0.576471 
0.592157 0.92549 0.576471 0.592157 0.92549 0.576471 
0.592157 0.92549 0.576471 0.592157 0.92549 0.576471 
0.592157 0.92549 0.576471 0.592157 0.92549 0.576471 
0.592157 0.92549 0.576471 0.592157 0.92549 0.576471 
0.592157 0.92549 0.576471 0.592157 0.92549 0.576471 
0.592157 0.92549 0.576471 0.592157 0.92549 0.576471 
0.592157 0.92549 0.576471 0.592157 0.92549 0.576471 
0.592157 0.92549 0.576471 0.592157 0.92549 0.576471 
0.592157 0.92549 0.576471 0.592157 0.92549 0.576471 
0.592157 0.92549 0.576471 0.592157 0.92549 0.576471 
0.592157 0.92549 0.576471 0.592157 0.92549 0.576471 
0.592157 0.92549 0.576471 0.592157 0.92549 0.576471 
0.592157 0.92549 0.576471 0.592157 0.92549 0.576471 
0.592157 0.92549 0.576471 0.592157 0.92549 0.576471 
0.592157 0.92549 0.576471 0.592157 0.92549 0.576471 
0.592157 0.92549 0.576471 0.592157 0.92549 0.576471 
0.592157 0.92549 0.576471 0.592157 0.92549 0.576471 
0.592157 0.92549 0.576471 0.592157 0.92549 0.576471 
0.592157 0.92549 0.576471 0.592157 0.92549 0.576471 
0.592157 0.92549 0.576471 0.592157 0.92549 0.576471 
0.592157 0.92549 0.576471 0.592157 0.92549 0.576471 
0.592157 0.92549 0.576471 0.592157 0.92549 0.576471 
0.592157 0.92549 0.576471 0.592157 0.92549 0.576471 
0.592157 0.92549 0.576471 0.592157 0.92549 0.576471 
0.592157 0.92549 0.576471 0.592157 0.92549 0.576471 
0.592157 0.92549 0.576471 0.592157 0.92549 0.576471 
0.592157 0.92549 0.576471 0.592157 0.92549 0.576471 
0.592157 0.92549 0.576471 0.592157 0.92549 0.576471 
0.592157 0.92549 0.576471 0.592157 0.92549 0.576471 
0.592157 0.92549 0.576471 0.592157 0.92549 0.576471 
0.592157 0.92549 0.576471 0.592157 0.92549 0.576471 
0.592157 0.92549 0.576471 0.592157 0.92549 0.576471 
0.592157 0.92549 0.576471 0.592157 0.92549 0.576471 
0.592157 0.92549 0.576471 0.592157 0.92549 0.576471 
0.592157 0.92549 0.576471 0.592157 0.92549 0.576471 
0.592157 0.92549 0.576471 0.592157 0.92549 0.576471 
0.592157 0.92549 0.576471 0.592157 0.92549 0.576471 
0.592157 0.92549 0.576471 0.592157 0.92549 0.576471 
0.592157 0.92549 0.576471 0.592157 0.92549 0.576471 
0.592157 0.92549 0.576471 0.592157 0.92549 0.576471 
0.592157 0.92549 0.576471 0.592157 0.92549 0.576471 
0.592157 0.92549 0.576471 0.592157 0.92549 0.576471 
0.592157 0.92549 0.576471 0.592157 0.92549 0.576471 
0.592157 0.92549 0.576471 0.592157 0.92549 0.576471 
0.592157 0.92549 0.576471 0.592157 0.92549 0.576471 
0.592157 0.92549 0.576471 0.592157 0.92549 0.576471 
0.592157 0.92549 0.576471 0.592157 0.92549 0.576471 
0.592157 0.92549 0.576471 0.592157 0.92549 0.576471 
0.592157 0.92549 0.576471 0.592157 0.92549 0.576471 
0.592157 0.92549 0.576471 0.592157 0.92549 0.576471 
0.592157 0.92549 0.576471 0.592157 0.92549 0.576471 
0.592157 0.92549 0.576471 0.592157 0.92549 0.576471 
0.592157 0.92549 0.576471 0.592157 0.92549 0.576471 
0.592157 0.92549 0.576471 0.592157 0.92549 0.576471 
0.592157 0.92549 0.576471 0.592157 0.92549 0.576471 
0.592157 0.92549 0.576471 0.592157 0.92549 0.576471 
0.592157 0.92549 0.576471 0.592157 0.92549 0.576471 
0.592157 0.92549 0.576471 0.592157 0.92549 0.576471 
0.592157 0.92549 0.576471 0.592157 0.92549 0.576471 
0.592157 0.92549 0.576471 0.592157 0.92549 0.576471 
0.592157 0.92549 0.576471 0.592157 0.92549 0.576471 
0.592157 0.92549 0.576471 0.592157 0.92549 0.576471 
0.592157 0.92549 0.576471 0.592157 0.92549 0.576471 
0.592157 0.92549 0.576471 0.592157 0.92549 0.576471 
0.592157 0.92549 0.576471 0.592157 0.92549 0.576471 
0.592157 0.92549 0.576471 0.592157 0.92549 0.576471 
0.592157 0.92549 0.576471 0.592157 0.92549 0.576471 
0.592157 0.92549 0.576471 0.592157 0.92549 0.576471 
0.592157 0.92549 0.576471 0.592157 0.92549 0.576471 
0.592157 0.92549 0.576471 0.592157 0.92549 0.576471 
0.592157 0.92549 0.576471 0.592157 0.92549 0.576471 
0.592157 0.92549 0.576471 0.592157 0.92549 0.576471 
0.592157 0.92549 0.576471 0.592157 0.92549 0.576471 
0.592157 0.92549 0.576471 0.592157 0.92549 0.576471 
0.592157 0.92549 0.576471 0.592157 0.92549 0.576471 
0.592157 0.92549 0.576471 0.592157 0.92549 0.576471 
0.592157 0.92549 0.576471 0.592157 0.92549 0.576471 
0.592157 0.92549 0.576471 0.592157 0.92549 0.576471 
0.592157 0.92549 0.576471 0.592157 0.92549 0.576471 
0.592157 0.92549 0.576471 0.592157 0.92549 0.576471 
0.592157 0.92549 0.576471 0.592157 0.92549 0.576471 
0.592157 0.92549 0.576471 0.592157 0.92549 0.576471 
0.592157 0.92549 0.576471 0.592157 0.92549 0.576471 
0.592157 0.92549 0.576471 0.592157 0.92549 0.576471 
0.592157 0.92549 0.576471 0.592157 0.92549 0.576471 
0.592157 0.92549 0.576471 0.592157 0.92549 0.576471 
0.592157 0.92549 0.576471 0.592157 0.92549 0.576471 
0.592157 0.92549 0.576471 0.592157 0.92549 0.576471 
0.592157 0.92549 0.576471 0.592157 0.92549 0.576471 
0.592157 0.92549 0.576471 0.592157 0.92549 0.576471 
0.592157 0.92549 0.576471 0.592157 0.92549 0.576471 
0.592157 0.92549 0.576471 0.592157 0.92549 0.576471 
0.592157 0.92549 0.576471 0.592157 0.92549 0.576471 
0.592157 0.92549 0.576471 0.592157 0.92549 0.576471 
0.592157 0.92549 0.576471 0.592157 0.92549 0.576471 
0.592157 0.92549 0.576471 0.592157 0.92549 0.576471 
0.592157 0.92549 0.576471 0.592157 0.92549 0.576471 
0.592157 0.92549 0.576471 0.592157 0.92549 0.576471 
0.592157 0.92549 0.576471 0.592157 0.92549 0.576471 
0.592157 0.92549 0.576471 0.592157 0.92549 0.576471 
0.592157 0.92549 0.576471 0.592157 0.92549 0.576471 
0.592157 0.92549 0.576471 0.592157 0.92549 0.576471 
0.592157 0.92549 0.576471 0.592157 0.92549 0.576471 
0.592157 0.92549 0.576471 0.592157 0.92549 0.576471 
0.592157 0.92549 0.576471 0.592157 0.92549 0.576471 
0.592157 0.92549 0.576471 0.592157 0.92549 0.576471 
0.592157 0.92549 0.576471 0.592157 0.92549 0.576471 
0.592157 0.92549 0.576471 0.592157 0.92549 0.576471 
0.592157 0.92549 0.576471 0.592157 0.92549 0.576471 
0.592157 0.92549 0.576471 0.592157 0.92549 0.576471 
0.592157 0.92549 0.576471 0.592157 0.92549 0.576471 
0.592157 0.92549 0.576471 0.592157 0.92549 0.576471 
0.592157 0.92549 0.576471 0.592157 0.92549 0.576471 
0.592157 0.92549 0.576471 0.592157 0.92549 0.576471 
0.592157 0.92549 0.576471 0.592157 0.92549 0.576471 
0.592157 0.92549 0.576471 0.592157 0.92549 0.576471 
0.592157 0.92549 0.576471 0.592157 0.92549 0.576471 
0.592157 0.92549 0.576471 0.592157 0.92549 0.576471 