# vtk DataFile Version 4.2
vtk output
ASCII
DATASET POLYDATA
POINTS 1327 float
312.61 280.173 72.0546 313.749 280.281 72.229 314.168 280.127 72.3784 
313.041 280.922 72.1219 314.075 281.181 72.6387 309.609 282.991 72.3653 
309.891 282.965 72.4096 314.13 278.047 72.7456 314.735 278.26 73.0172 
311.65 279.894 72.1469 313.801 281.69 72.6795 308.795 282.883 72.5193 
308.332 283.634 72.7826 304.623 284.667 73.2923 304.631 284.524 73.286 
304.462 284.706 73.3819 304.701 284.817 73.3636 314.383 275.872 73.5781 
315.53 278.225 74.0402 315.623 279.733 74.2532 307.586 281.903 72.8112 
314.673 281.502 73.3618 304.737 284.105 73.3239 305.299 284.751 73.3794 
302.703 285.345 73.8909 308.243 285.327 73.7753 314.388 273.705 74.4393 
313.38 283.6 74.0368 299.469 286.955 74.7049 299.228 286.545 74.6982 
298.203 287.469 75.0006 298.797 287.433 74.8998 301.852 287.471 74.751 
314.634 270.06 75.8741 313.351 271.548 75.0984 314.479 271.416 75.3501 
314.942 270.981 75.7503 315.293 282.089 75.0653 314.644 283.473 75.5899 
299.312 285.977 74.7297 294.666 288.595 75.9465 296.503 288.639 75.7106 
295.865 289.228 75.9861 314.313 267.882 76.554 314.513 267.302 76.8512 
313.208 268.564 76.2026 315.007 268.266 76.7661 310.847 271.015 75.8383 
316.249 280.227 76.5327 298.999 284.265 75.3346 296.173 286.558 75.668 
296.196 290.414 76.654 314.466 264.728 77.7387 314.818 264.425 78.0208 
315.173 264.419 78.3449 287.229 290.774 77.9761 286.668 291.607 78.2398 
287.171 291.964 78.2628 314.142 262.225 78.8007 314.599 262.167 78.9507 
312.334 263.817 78.0906 314.85 262.479 78.9176 315.89 266.501 78.609 
302.964 290.025 77.731 304.293 289.811 78.0078 285.661 290.37 78.5172 
285.315 291.275 78.5935 287.592 292.517 78.4935 314.352 260.164 80.2172 
314.811 260.423 80.12 314.973 260.739 79.985 311.546 262.603 78.9704 
314.934 261.937 79.2955 315.831 263.619 79.6431 283.571 290.897 79.2145 
280.081 293.147 80.2015 281.671 293.828 80.1944 314.627 259.595 80.7554 
312.976 260.207 80.1918 315.072 260.435 80.2789 315.281 260.196 80.7645 
316.805 271.911 80.0721 316.848 276.908 80.0632 314.762 285.24 79.6693 
282.349 290.555 79.7068 277.75 293.045 81.0707 277.65 293.522 81.1807 
278.887 293.951 80.8603 314.425 258.578 81.5774 313.442 258.632 81.6116 
314.839 259.179 81.2573 315.923 260.99 81.3903 316.313 262.85 81.2684 
306.707 264.29 81.14 303.045 268.568 81.3047 316.008 283.312 81.2506 
281.124 289.318 80.7833 277.62 292.435 81.1909 279.39 294.763 81.275 
286.69 294.971 80.9614 314.282 257.955 82.2058 313.958 257.639 82.5447 
314.686 257.958 82.3624 315.259 258.617 82.3206 305.272 264.729 82.7505 
275.324 293.968 82.3969 313.747 257.07 83.307 314.493 257.278 83.2167 
312.702 257.258 83.4168 314.795 257.664 82.8756 315.158 257.902 83.1398 
306.874 262.247 83.7302 306.239 262.949 84.0841 297.924 271.273 83.9732 
296.075 272.752 83.4263 296.036 273.824 82.3087 271.88 293.979 83.8946 
293.744 295.114 82.843 281.493 296.514 83.2454 314.219 256.687 84.2129 
314.583 257.031 83.792 314.998 257.333 83.9048 307.204 261.526 84.3507 
295.358 272.692 84.4357 291.755 274.833 84.3555 292.282 275.572 83.2588 
289.619 276.647 83.958 315.557 284.476 83.9216 312.706 287.811 83.624 
309.241 289.825 83.4249 301.658 293.133 83.4034 270.994 293.646 84.3373 
271.187 294.908 84.4567 272.447 295.642 84.3136 290.857 296.031 83.7033 
312.531 256.41 85.2408 313.771 256.447 84.6883 314.504 256.511 84.9616 
315.118 257.22 84.7379 316.381 260.35 84.8052 307.387 260.947 85.7103 
295.638 272.343 85.3833 292.866 273.889 84.8618 291.013 274.598 85.3063 
289.293 275.558 85.198 289.714 274.967 85.7598 314.647 285.874 84.947 
267.685 294.545 85.9441 268.049 295.345 85.9944 313.1 256.077 86.3135 
314.765 256.709 85.0347 314.491 256.455 85.429 311.559 256.434 86.2201 
315.96 258.781 85.5676 291.507 274.019 86.3641 287.508 275.921 85.9529 
268.595 292.716 85.8011 267.026 293.856 86.2887 266.019 294.271 86.7336 
265.902 295.029 86.8548 313.545 256.098 86.5422 313.948 256.179 86.2358 
314.92 256.973 86.3319 308.205 259.817 86.7809 316.135 259.716 86.4553 
307.302 261.261 87.1374 289.283 274.739 86.9597 286.493 275.67 87.4294 
316.069 278.714 86.4498 314.813 285.127 86.306 265.821 293.752 86.9305 
263.355 294.876 88.002 264.217 294.18 87.6258 264.686 295.776 87.6803 
266.468 296.456 87.3507 269.321 297.313 87.1316 311.783 256.39 87.4459 
313.506 256.196 87.0798 314.491 256.546 86.6826 314.311 256.481 86.9974 
310.05 257.786 87.6024 307.182 261.831 87.8538 287.232 275.311 88.1667 
288.412 274.994 87.986 281.249 277.672 87.8447 315.516 280.791 87.1481 
298.885 294.749 87.2599 262.961 295.898 88.4754 263.456 296.405 88.5535 
266.37 297.275 88.1774 270.523 298.395 88.5172 312.444 256.337 87.7579 
314.529 257.178 87.9109 310.747 257.906 88.5628 315.871 260.138 87.9027 
308.275 260.543 88.451 308.372 260.784 88.824 305.956 265.386 89.3077 
291.882 274.204 88.6655 282.654 276.294 89.1326 281.09 276.874 89.0746 
281.9 276.45 89.4151 314.959 277.569 88.6265 315.498 278.402 87.721 
313.866 282.121 88.6794 312.522 285.559 88.2393 305.55 290.859 88.4903 
303.859 291.98 88.3439 261.063 293.598 89.2748 259.54 294.943 89.9114 
293.738 296.756 88.7265 263.352 297.263 89.3569 267.126 297.987 88.8752 
289.445 297.913 88.6556 312.73 256.986 88.4616 313.396 257.193 88.5428 
312.032 257.566 88.8871 313.081 258.078 89.3266 314.926 258.868 88.908 
312.302 258.58 89.6321 315.251 259.232 88.6728 303.049 269.186 89.1873 
315.245 271.238 89.6818 314.864 273.417 89.6489 282.681 276.141 89.6941 
286.847 275.441 89.7218 287.659 275.325 89.6375 314.001 276.19 89.8008 
313.253 278.151 89.9034 273.303 281.31 89.5616 310.707 282.55 90.2189 
311.712 283.621 89.5215 304.038 290.913 89.6049 304.395 290.413 89.8002 
294.377 296.505 89.5618 264.218 297.964 89.9205 276.476 299.511 90.3557 
314.277 258.156 88.9861 314.419 258.8 89.2683 310.326 260.578 90.162 
311.952 261.47 91.1243 315.49 262.977 89.7531 314.741 269.402 90.6456 
283.586 275.948 90.4001 287.856 275.74 90.9816 303.797 287.736 91.3304 
299.164 293.723 90.2517 294.748 296.099 90.6338 258.46 297.178 91.5186 
312.969 261.192 91.0664 314.128 261.81 90.9393 314.474 262.109 90.7941 
314.952 262.25 90.3288 307.822 265.391 91.4092 314.971 266.438 90.6816 
313.971 266.602 91.529 300.392 273.113 91.4274 281.71 276.288 91.5366 
290.366 276.286 92.2887 296.906 294.495 91.2943 297.259 294.065 91.461 
311.854 264.379 91.966 312.71 264.203 91.8201 308.784 266.728 92.3463 
310.55 268.667 92.7246 312.298 268.701 92.2951 303.608 271.849 91.9871 
301.037 273.208 91.8221 294.888 275.718 92.3853 288.392 276.872 93.0431 
305.221 277.252 93.0062 296.778 291.39 93.2158 251.137 295.1 94.0369 
251.302 294.683 93.963 252.832 295.121 93.2947 295.78 294.901 91.7149 
251.132 295.631 94.1775 281.306 299.919 92.928 308.6 269.624 92.7745 
306.224 271.321 92.6303 303.934 274.176 92.9287 305.608 273.525 92.9266 
296.63 275.622 92.6495 303.683 275.125 93.1369 270.936 277.154 94.0672 
278.365 276.51 93.4036 298.575 276.065 93.273 301.019 275.711 93.39 
304.426 275.888 93.1727 300.458 279.314 93.9387 250.057 294.345 94.6932 
249.073 295.226 95.1272 248.632 295.468 95.3833 253.542 297.457 94.1913 
284.617 299.317 93.5723 277.381 300.412 94.3174 269.348 276.487 95.4683 
272.408 276.308 95.2617 274.945 276.432 95.3667 267.863 277.386 95.0053 
290.83 277.823 93.9418 295.185 277.574 93.715 299.828 277.136 93.7961 
281.813 277.617 95.141 292.283 279.1 94.6759 293.395 279.685 94.8011 
295.889 279.096 94.3032 294.746 280.187 94.7044 295.782 279.978 94.5203 
296.728 279.792 94.392 248.194 295.833 95.7627 248.689 296.38 95.7072 
249.64 296.427 95.2388 286.894 298.526 94.0329 270.234 275.844 96.3324 
271.281 275.838 96.5022 291.156 279.657 95.0892 246.131 294.946 96.9139 
248.459 297.211 96.4524 250.552 297.724 95.9358 288.198 297.164 95.1051 
253.249 298.649 96.0451 286.97 298.075 94.9401 284.765 298.992 95.3152 
279.858 300.249 95.8923 266.338 276.147 97.21 267.776 275.816 97.26 
269.463 275.684 96.9966 265.157 276.536 97.216 274.999 276.752 96.9636 
283.585 279.337 96.8199 289.529 282.75 96.4522 288.843 293.584 96.5139 
245.167 295.06 97.5401 286.682 296.283 96.9327 248.568 297.691 96.9455 
285.942 297.825 96.3027 272.383 276.215 98.0032 284.092 280.321 97.4825 
284.461 280.857 97.7002 256.659 281.511 97.8166 244.199 295.911 98.4256 
257.193 300.121 97.8845 283.742 298.548 97.5968 280.43 299.937 97.4742 
274.575 277.338 98.7073 284.794 281.436 97.888 284.825 282.131 98.1851 
242.128 295.367 99.7307 242.369 294.844 99.6112 241.575 295.783 100.162 
243.338 296.102 99.1389 242.6 293.656 99.8101 240.995 296.452 100.779 
245.444 298.579 100.312 276.611 300.774 99.6307 259.938 275.467 101.627 
274.067 278.318 100.895 239.11 294.633 101.88 265.093 275.411 101.905 
238.065 294.889 102.589 239.083 296.887 102.42 277.927 299.679 101.613 
253.138 276.054 103.131 260.24 275.181 103.522 276.628 283.075 103.371 
235.193 295.094 104.621 235.271 295.571 104.536 235.838 295.826 104.233 
238.608 297.52 103.44 276.419 300.406 101.826 274.127 300.942 102.462 
253.477 275.087 104.225 255.589 274.84 104.264 234.086 295.559 105.354 
233.749 295.769 105.629 235.006 296.002 104.825 276.402 299.821 103.109 
251.113 275.186 105.192 254.688 274.579 105.245 233.413 295.719 105.913 
233.125 295.43 106.212 233.157 295.814 106.215 233.557 296.082 105.966 
234.627 296.513 105.392 277.396 298.16 103.841 277.114 298.932 103.514 
273.913 300.171 104.935 260.48 301.318 105.251 250.869 274.437 106.671 
252.569 274.493 106.122 247.235 276.474 105.899 266.761 276.968 105.256 
271.978 280.733 105.742 233.215 294.59 106.306 232.875 295.705 106.531 
232.634 295.759 106.948 234.41 296.862 105.932 274.752 299.191 105.516 
264.812 301.528 105.787 247.811 274.621 107.34 248.424 274.225 107.674 
252.196 274.339 106.792 258.721 275.419 106.696 262.157 276.251 106.644 
232.704 294.11 107.089 232.604 294.604 106.968 232.376 294.937 107.222 
232.611 296.083 107.349 234.773 297.643 107.175 273.895 299.108 106.397 
[...]
POINT_DATA 1327
COLOR_SCALARS scalars 3
0.34902 0.854902 0.670588 0.34902 0.854902 0.670588 0.34902 0.854902 0.670588 
0.34902 0.854902 0.670588 0.34902 0.854902 0.670588 
0.34902 0.854902 0.670588 0.34902 0.854902 0.670588 
0.34902 0.854902 0.670588 0.34902 0.854902 0.670588 
0.34902 0.854902 0.670588 0.34902 0.854902 0.670588 
0.34902 0.854902 0.670588 0.34902 0.854902 0.670588 
0.34902 0.854902 0.670588 0.34902 0.854902 0.670588 
0.34902 0.854902 0.670588 0.34902 0.854902 0.670588 
0.34902 0.854902 0.670588 0.34902 0.854902 0.670588 
0.34902 0.854902 0.670588 0.34902 0.854902 0.670588 
0.34902 0.854902 0.670588 0.34902 0.854902 0.670588 
0.34902 0.854902 0.670588 0.34902 0.854902 0.670588 
0.34902 0.854902 0.670588 0.34902 0.854902 0.670588 
0.34902 0.854902 0.670588 0.34902 0.854902 0.670588 
0.34902 0.854902 0.670588 0.34902 0.854902 0.670588 
0.34902 0.854902 0.670588 0.34902 0.854902 0.670588 
0.34902 0.854902 0.670588 0.34902 0.854902 0.670588 
0.34902 0.854902 0.670588 0.34902 0.854902 0.670588 
0.34902 0.854902 0.670588 0.34902 0.854902 0.670588 
0.34902 0.854902 0.670588 0.34902 0.854902 0.670588 
0.34902 0.854902 0.670588 0.34902 0.854902 0.670588 
0.34902 0.854902 0.670588 0.34902 0.854902 0.670588 
0.34902 0.854902 0.670588 0.34902 0.854902 0.670588 
0.34902 0.854902 0.670588 0.34902 0.854902 0.670588 
0.34902 0.854902 0.670588 0.34902 0.854902 0.670588 
0.34902 0.854902 0.670588 0.34902 0.854902 0.670588 
0.34902 0.854902 0.670588 0.34902 0.854902 0.670588 
0.34902 0.854902 0.670588 0.34902 0.854902 0.670588 
0.34902 0.854902 0.670588 0.34902 0.854902 0.670588 
0.34902 0.854902 0.670588 0.34902 0.854902 0.670588 
0.34902 0.854902 0.670588 0.34902 0.854902 0.670588 
0.34902 0.854902 0.670588 0.34902 0.854902 0.670588 
0.34902 0.854902 0.670588 0.34902 0.854902 0.670588 
0.34902 0.854902 0.670588 0.34902 0.854902 0.670588 
0.34902 0.854902 0.670588 0.34902 0.854902 0.670588 
0.34902 0.854902 0.670588 0.34902 0.854902 0.670588 
0.34902 0.854902 0.670588 0.34902 0.854902 0.670588 
0.34902 0.854902 0.670588 0.34902 0.854902 0.670588 
0.34902 0.854902 0.670588 0.34902 0.854902 0.670588 
0.34902 0.854902 0.670588 0.34902 0.854902 0.670588 
0.34902 0.854902 0.670588 0.34902 0.854902 0.670588 
0.34902 0.854902 0.670588 0.34902 0.854902 0.670588 
0.34902 0.854902 0.670588 0.34902 0.854902 0.670588 
0.34902 0.854902 0.670588 0.34902 0.854902 0.670588 
0.34902 0.854902 0.670588 0.34902 0.854902 0.670588 
0.34902 0.854902 0.670588 0.34902 0.854902 0.670588 
0.34902 0.854902 0.670588 0.34902 0.854902 0.670588 
0.34902 0.854902 0.670588 0.34902 0.854902 0.670588 
0.34902 0.854902 0.670588 0.34902 0.854902 0.670588 
0.34902 0.854902 0.670588 0.34902 0.854902 0.670588 
0.34902 0.854902 0.670588 0.34902 0.854902 0.670588 
0.34902 0.854902 0.670588 0.34902 0.854902 0.670588 
0.34902 0.854902 0.670588 0.34902 0.854902 0.670588 
0.34902 0.854902 0.670588 0.34902 0.854902 0.670588 
0.34902 0.854902 0.670588 0.34902 0.854902 0.670588 
0.34902 0.854902 0.670588 0.34902 0.854902 0.670588 
0.34902 0.854902 0.670588 0.34902 0.854902 0.670588 
0.34902 0.854902 0.670588 0.34902 0.854902 0.670588 
0.34902 0.854902 0.670588 0.34902 0.854902 0.670588 
0.34902 0.854902 0.670588 0.34902 0.854902 0.670588 
0.34902 0.854902 0.670588 0.34902 0.854902 0.670588 
0.34902 0.854902 0.670588 0.34902 0.854902 0.670588 
0.34902 0.854902 0.670588 0.34902 0.854902 0.670588 
0.34902 0.854902 0.670588 0.34902 0.854902 0.670588 
0.34902 0.854902 0.670588 0.34902 0.854902 0.670588 
0.34902 0.854902 0.670588 0.34902 0.854902 0.670588 
0.34902 0.854902 0.670588 0.34902 0.854902 0.670588 
0.34902 0.854902 0.670588 0.34902 0.854902 0.670588 
0.34902 0.854902 0.670588 0.34902 0.854902 0.670588 
0.34902 0.854902 0.670588 0.34902 0.854902 0.670588 
0.34902 0.854902 0.670588 0.34902 0.854902 0.670588 
0.34902 0.854902 0.670588 0.34902 0.854902 0.670588 
0.34902 0.854902 0.670588 0.34902 0.854902 0.670588 
0.34902 0.854902 0.670588 0.34902 0.854902 0.670588 
0.34902 0.854902 0.670588 0.34902 0.854902 0.670588 
0.34902 0.854902 0.670588 0.34902 0.854902 0.670588 
0.34902 0.854902 0.670588 0.34902 0.854902 0.670588 
0.34902 0.854902 0.670588 0.34902 0.854902 0.670588 
0.34902 0.854902 0.670588 0.34902 0.854902 0.670588 
0.34902 0.854902 0.670588 0.34902 0.854902 0.670588 
0.34902 0.854902 0.670588 0.34902 0.854902 0.670588 
0.34902 0.854902 0.670588 0.34902 0.854902 0.670588 
0.34902 0.854902 0.670588 0.34902 0.854902 0.670588 
0.34902 0.854902 0.670588 0.34902 0.854902 0.670588 
0.34902 0.854902 0.670588 0.34902 0.854902 0.670588 
0.34902 0.854902 0.670588 0.34902 0.854902 0.670588 
0.34902 0.854902 0.670588 0.34902 0.854902 0.670588 
0.34902 0.854902 0.670588 0.34902 0.854902 0.670588 
0.34902 0.854902 0.670588 0.34902 0.854902 0.670588 
0.34902 0.854902 0.670588 0.34902 0.854902 0.670588 
0.34902 0.854902 0.670588 0.34902 0.854902 0.670588 
0.34902 0.854902 0.670588 0.34902 0.854902 0.670588 
0.34902 0.854902 0.670588 0.34902 0.854902 0.670588 
0.34902 0.854902 0.670588 0.34902 0.854902 0.670588 
0.34902 0.854902 0.670588 0.34902 0.854902 0.670588 
0.34902 0.854902 0.670588 0.34902 0.854902 0.670588 
0.34902 0.854902 0.670588 0.34902 0.854902 0.670588 
0.34902 0.854902 0.670588 0.34902 0.854902 0.670588 
0.34902 0.854902 0.670588 0.34902 0.854902 0.670588 
0.34902 0.854902 0.670588 0.34902 0.854902 0.670588 
0.34902 0.854902 0.670588 0.34902 0.854902 0.670588 
0.34902 0.854902 0.670588 0.34902 0.854902 0.670588 
0.34902 0.854902 0.670588 0.34902 0.854902 0.670588 
0.34902 0.854902 0.670588 0.34902 0.854902 0.670588 
0.34902 0.854902 0.670588 0.34902 0.854902 0.670588 
0.34902 0.854902 0.670588 0.34902 0.854902 0.670588 
0.34902 0.854902 0.670588 0.34902 0.854902 0.670588 
0.34902 0.854902 0.670588 0.34902 0.854902 0.670588 
0.34902 0.854902 0.670588 0.34902 0.854902 0.670588 
0.34902 0.854902 0.670588 0.34902 0.854902 0.670588 
0.34902 0.854902 0.670588 0.34902 0.854902 0.670588 
0.34902 0.854902 0.670588 0.34902 0.854902 0.670588 
0.34902 0.854902 0.670588 0.34902 0.854902 0.670588 
0.34902 0.854902 0.670588 0.34902 0.854902 0.670588 
0.34902 0.854902 0.670588 0.34902 0.854902 0.670588 
0.34902 0.854902 0.670588 0.34902 0.854902 0.670588 
0.34902 0.854902 0.670588 0.34902 0.854902 0.670588 
0.34902 0.854902 0.670588 0.34902 0.854902 0.670588 
0.34902 0.854902 0.670588 0.34902 0.854902 0.670588 
0.34902 0.854902 0.670588 0.34902 0.854902 0.670588 
0.34902 0.854902 0.670588 0.34902 0.854902 0.670588 
0.34902 0.854902 0.670588 0.34902 0.854902 0.670588 
0.34902 0.854902 0.670588 0.34902 0.854902 0.670588 
0.34902 0.854902 0.670588 0.34902 0.854902 0.670588 
0.34902 0.854902 0.670588 0.34902 0.854902 0.670588 
0.34902 0.854902 0.670588 0.34902 0.854902 0.670588 
0.34902 0.854902 0.670588 0.34902 0.854902 0.670588 
0.34902 0.854902 0.670588 0.34902 0.854902 0.670588 
0.34902 0.854902 0.670588 0.34902 0.854902 0.670588 
0.34902 0.854902 0.670588 0.34902 0.854902 0.670588 
0.34902 0.854902 0.670588 0.34902 0.854902 0.670588 
0.34902 0.854902 0.670588 0.34902 0.854902 0.670588 
0.34902 0.854902 0.670588 0.34902 0.854902 0.670588 
0.34902 0.854902 0.670588 0.34902 0.854902 0.670588 
0.34902 0.854902 0.670588 0.34902 0.854902 0.670588 
0.34902 0.854902 0.670588 0.34902 0.854902 0.670588 
0.34902 0.854902 0.670588 0.34902 0.854902 0.670588 
0.34902 0.854902 0.670588 0.34902 0.854902 0.670588 
0.34902 0.854902 0.670588 0.34902 0.854902 0.670588 
0.34902 0.854902 0.670588 0.34902 0.854902 0.670588 
0.34902 0.854902 0.670588 0.34902 0.854902 0.670588 
0.34902 0.854902 0.670588 0.34902 0.854902 0.670588 
0.34902 0.854902 0.670588 0.34902 0.854902 0.670588 
0.34902 0.854902 0.670588 0.34902 0.854902 0.670588 
0.34902 0.854902 0.670588 0.34902 0.854902 0.670588 
0.34902 0.854902 0.670588 0.34902 0.854902 0.670588 
0.34902 0.854902 0.670588 0.34902 0.854902 0.670588 
0.34902 0.854902 0.670588 0.34902 0.854902 0.670588 
0.34902 0.854902 0.670588 0.34902 0.854902 0.670588 
0.34902 0.854902 0.670588 0.34902 0.854902 0.670588 
0.34902 0.854902 0.670588 0.34902 0.854902 0.670588 
0.34902 0.854902 0.670588 0.34902 0.854902 0.670588 
0.34902 0.854902 0.670588 0.34902 0.854902 0.670588 
0.34902 0.854902 0.670588 0.34902 0.854902 0.670588 
0.34902 0.854902 0.670588 0.34902 0.854902 0.670588 
0.34902 0.854902 0.670588 0.34902 0.854902 0.670588 
0.34902 0.854902 0.670588 0.34902 0.854902 0.670588 
0.34902 0.854902 0.670588 0.34902 0.854902 0.670588 
0.34902 0.854902 0.670588 0.34902 0.854902 0.670588 
0.34902 0.854902 0.670588 0.34902 0.854902 0.670588 
0.34902 0.854902 0.670588 0.34902 0.854902 0.670588 
0.34902 0.854902 0.670588 0.34902 0.854902 0.670588 
0.34902 0.854902 0.670588 0.34902 0.854902 0.670588 
0.34902 0.854902 0.670588 0.34902 0.854902 0.670588 
0.34902 0.854902 0.670588 0.34902 0.854902 0.670588 
0.34902 0.854902 0.670588 0.34902 0.854902 0.670588 
0.34902 0.854902 0.670588 0.34902 0.854902 0.670588 
0.34902 0.854902 0.670588 0.34902 0.854902 0.670588 
0.34902 0.854902 0.670588 0.34902 0.854902 0.670588 
0.34902 0.854902 0.670588 0.34902 0.854902 0.670588 
0.34902 0.854902 0.670588 0.34902 0.854902 0.670588 
0.34902 0.854902 0.670588 0.34902 0.854902 0.670588 
0.34902 0.854902 0.670588 0.34902 0.854902 0.670588 
0.34902 0.854902 0.670588 0.34902 0.854902 0.670588 
0.34902 0.854902 0.670588 0.34902 0.854902 0.670588 
0.34902 0.854902 0.670588 0.34902 0.854902 0.670588 
0.34902 0.854902 0.670588 0.34902 0.854902 0.670588 
0.34902 0.854902 0.670588 0.34902 0.854902 0.670588 
0.34902 0.854902 0.670588 0.34902 0.854902 0.670588 
0.34902 0.854902 0.670588 0.34902 0.854902 0.670588 
0.34902 0.854902 0.670588 0.34902 0.854902 0.670588 
0.34902 0.854902 0.670588 0.34902 0.854902 0.670588 
0.34902 0.854902 0.670588 0.34902 0.854902 0.670588 
0.34902 0.854902 0.670588 0.34902 0.854902 0.670588 
0.34902 0.854902 0.670588 0.34902 0.854902 0.670588 
0.34902 0.854902 0.670588 0.34902 0.854902 0.670588 
0.34902 0.854902 0.670588 0.34902 0.854902 0.670588 
0.34902 0.854902 0.670588 0.34902 0.854902 0.670588 
0.34902 0.854902 0.670588 0.34902 0.854902 0.670588 
0.34902 0.854902 0.670588 0.34902 0.854902 0.670588 
0.34902 0.854902 0.670588 0.34902 0.854902 0.670588 
0.34902 0.854902 0.670588 0.34902 0.854902 0.670588 
0.34902 0.854902 0.670588 0.34902 0.854902 0.670588 
0.34902 0.854902 0.670588 0.34902 0.854902 0.670588 
0.34902 0.854902 0.670588 0.34902 0.854902 0.670588 
0.34902 0.854902 0.670588 0.34902 0.854902 0.670588 
0.34902 0.854902 0.670588 0.34902 0.854902 0.670588 
0.34902 0.854902 0.670588 0.34902 0.854902 0.670588 
0.34902 0.854902 0.670588 0.34902 0.854902 0.670588 
0.34902 0.854902 0.670588 0.34902 0.854902 0.670588 
0.34902 0.854902 0.670588 0.34902 0.854902 0.670588 
0.34902 0.854902 0.670588 0.34902 0.854902 0.670588 
0.34902 0.854902 0.670588 0.34902 0.854902 0.670588 
0.34902 0.854902 0.670588 0.34902 0.854902 0.670588 
0.34902 0.854902 0.670588 0.34902 0.854902 0.670588 
0.34902 0.854902 0.670588 0.34902 0.854902 0.670588 
0.34902 0.854902 0.670588 0.34902 0.854902 0.670588 
0.34902 0.854902 0.670588 0.34902 0.854902 0.670588 
0.34902 0.854902 0.670588 0.34902 0.854902 0.670588 
0.34902 0.854902 0.670588 0.34902 0.854902 0.670588 
0.34902 0.854902 0.670588 0.34902 0.854902 0.670588 
0.34902 0.854902 0.670588 0.34902 0.854902 0.670588 
0.34902 0.854902 0.670588 0.34902 0.854902 0.670588 
0.34902 0.854902 0.670588 0.34902 0.854902 0.670588 
0.34902 0.854902 0.670588 0.34902 0.854902 0.670588 
0.34902 0.854902 0.670588 0.34902 0.854902 0.670588 
0.34902 0.854902 0.670588 0.34902 0.854902 0.670588 
0.34902 0.854902 0.670588 0.34902 0.854902 0.670588 
0.34902 0.854902 0.670588 0.34902 0.854902 0.670588 
0.34902 0.854902 0.670588 0.34902 0.854902 0.670588 
0.34902 0.854902 0.670588 0.34902 0.854902 0.670588 
0.34902 0.854902 0.670588 0.34902 0.854902 0.670588 
0.34902 0.854902 0.670588 0.34902 0.854902 0.670588 
0.34902 0.854902 0.670588 0.34902 0.854902 0.670588 
0.34902 0.854902 0.670588 0.34902 0.854902 0.670588 
0.34902 0.854902 0.670588 0.34902 0.854902 0.670588 
0.34902 0.854902 0.670588 0.34902 0.854902 0.670588 
0.34902 0.854902 0.670588 0.34902 0.854902 0.670588 
0.34902 0.854902 0.670588 0.34902 0.854902 0.670588 
0.34902 0.854902 0.670588 0.34902 0.854902 0.670588 
0.34902 0.854902 0.670588 0.34902 0.854902 0.670588 
0.34902 0.854902 0.670588 0.34902 0.854902 0.670588 
0.34902 0.854902 0.670588 0.34902 0.854902 0.670588 
0.34902 0.854902 0.670588 0.34902 0.854902 0.670588 
0.34902 0.854902 0.670588 0.34902 0.854902 0.670588 
0.34902 0.854902 0.670588 0.34902 0.854902 0.670588 
0.34902 0.854902 0.670588 0.34902 0.854902 0.670588 
0.34902 0.854902 0.670588 0.34902 0.854902 0.670588 
0.34902 0.854902 0.670588 0.34902 0.854902 0.670588 
0.34902 0.854902 0.670588 0.34902 0.854902 0.670588 
0.34902 0.854902 0.670588 0.34902 0.854902 0.670588 
0.34902 0.854902 0.670588 0.34902 0.854902 0.670588 
0.34902 0.854902 0.670588 0.34902 0.854902 0.670588 
0.34902 0.854902 0.670588 0.34902 0.854902 0.670588 
0.34902 0.854902 0.670588 0.34902 0.854902 0.670588 
0.34902 0.854902 0.670588 0.34902 0.854902 0.670588 
0.34902 0.854902 0.670588 0.34902 0.854902 0.670588 
0.34902 0.854902 0.670588 0.34902 0.854902 0.670588 
0.34902 0.854902 0.670588 0.34902 0.854902 0.670588 
0.34902 0.854902 0.670588 0.34902 0.854902 0.670588 
0.34902 0.854902 0.670588 0.34902 0.854902 0.670588 
0.34902 0.854902 0.670588 0.34902 0.854902 0.670588 
0.34902 0.854902 0.670588 0.34902 0.854902 0.670588 
0.34902 0.854902 0.670588 0.34902 0.854902 0.670588 
0.34902 0.854902 0.670588 0.34902 0.854902 0.670588 
0.34902 0.854902 0.670588 0.34902 0.854902 0.670588 
0.34902 0.854902 0.670588 0.34902 0.854902 0.670588 
0.34902 0.854902 0.670588 0.34902 0.854902 0.670588 
0.34902 0.854902 0.670588 0.34902 0.854902 0.670588 
0.34902 0.854902 0.670588 0.34902 0.854902 0.670588 
0.34902 0.854902 0.670588 0.34902 0.854902 0.670588 
0.34902 0.854902 0.670588 0.34902 0.854902 0.670588 
0.34902 0.854902 0.670588 0.34902 0.854902 0.670588 
0.34902 0.854902 0.670588 0.34902 0.854902 0.670588 
0.34902 0.854902 0.670588 0.34902 0.854902 0.670588 
0.34902 0.854902 0.670588 0.34902 0.854902 0.670588 
0.34902 0.854902 0.670588 0.34902 0.854902 0.670588 
0.34902 0.854902 0.670588 0.34902 0.854902 0.670588 
0.34902 0.854902 0.670588 0.34902 0.854902 0.670588 
0.34902 0.854902 0.670588 0.34902 0.854902 0.670588 
0.34902 0.854902 0.670588 0.34902 0.854902 0.670588 
0.34902 0.854902 0.670588 0.34902 0.854902 0.670588 
0.34902 0.854902 0.670588 0.34902 0.854902 0.670588 
0.34902 0.854902 0.670588 0.34902 0.854902 0.670588 
0.34902 0.854902 0.670588 0.34902 0.854902 0.670588 
0.34902 0.854902 0.670588 0.34902 0.854902 0.670588 
0.34902 0.854902 0.670588 0.34902 0.854902 0.670588 
0.34902 0.854902 0.670588 0.34902 0.854902 0.670588 
0.34902 0.854902 0.670588 0.34902 0.854902 0.670588 
0.34902 0.854902 0.670588 0.34902 0.854902 0.670588 
0.34902 0.854902 0.670588 0.34902 0.854902 0.670588 
0.34902 0.854902 0.670588 0.34902 0.854902 0.670588 
0.34902 0.854902 0.670588 0.34902 0.854902 0.670588 
0.34902 0.854902 0.670588 0.34902 0.854902 0.670588 
0.34902 0.854902 0.670588 0.34902 0.854902 0.670588 
0.34902 0.854902 0.670588 0.34902 0.854902 0.670588 
0.34902 0.854902 0.670588 0.34902 0.854902 0.670588 
0.34902 0.854902 0.670588 0.34902 0.854902 0.670588 
0.34902 0.854902 0.670588 0.34902 0.854902 0.670588 
0.34902 0.854902 0.670588 0.34902 0.854902 0.670588 
0.34902 0.854902 0.670588 0.34902 0.854902 0.670588 
0.34902 0.854902 0.670588 0.34902 0.854902 0.670588 
0.34902 0.854902 0.670588 0.34902 0.854902 0.670588 
0.34902 0.854902 0.670588 0.34902 0.854902 0.670588 
0.34902 0.854902 0.670588 0.34902 0.854902 0.670588 
0.34902 0.854902 0.670588 0.34902 0.854902 0.670588 
0.34902 0.854902 0.670588 0.34902 0.854902 0.670588 
0.34902 0.854902 0.670588 0.34902 0.854902 0.670588 
0.34902 0.854902 0.670588 0.34902 0.854902 0.670588 
0.34902 0.854902 0.670588 0.34902 0.854902 0.670588 
0.34902 0.854902 0.670588 0.34902 0.854902 0.670588 
0.34902 0.854902 0.670588 0.34902 0.854902 0.670588 
0.34902 0.854902 0.670588 0.34902 0.854902 0.670588 
0.34902 0.854902 0.670588 0.34902 0.854902 0.670588 
0.34902 0.854902 0.670588 0.34902 0.854902 0.670588 
0.34902 0.854902 0.670588 0.34902 0.854902 0.670588 
0.34902 0.854902 0.670588 0.34902 0.854902 0.670588 
0.34902 0.854902 0.670588 0.34902 0.854902 0.670588 
0.34902 0.854902 0.670588 0.34902 0.854902 0.670588 
0.34902 0.854902 0.670588 0.34902 0.854902 0.670588 
0.34902 0.854902 0.670588 0.34902 0.854902 0.670588 
0.34902 0.854902 0.670588 0.34902 0.854902 0.670588 
0.34902 0.854902 0.670588 0.34902 0.854902 0.670588 
0.34902 0.854902 0.670588 0.34902 0.854902 0.670588 
0.34902 0.854902 0.670588 0.34902 0.854902 0.670588 
0.34902 0.854902 0.670588 0.34902 0.854902 0.670588 
0.34902 0.854902 0.670588 0.34902 0.854902 0.670588 
0.34902 0.854902 0.670588 0.34902 0.854902 0.670588 
0.34902 0.854902 0.670588 0.34902 0.854902 0.670588 
0.34902 0.854902 0.670588 0.34902 0.854902 0.670588 
0.34902 0.854902 0.670588 0.34902 0.854902 0.670588 
0.34902 0.854902 0.670588 0.34902 0.854902 0.670588 
0.34902 0.854902 0.670588 0.34902 0.854902 0.670588 
0.34902 0.854902 0.670588 0.34902 0.854902 0.670588 
0.34902 0.854902 0.670588 0.34902 0.854902 0.670588 
0.34902 0.854902 0.670588 0.34902 0.854902 0.670588 
0.34902 0.854902 0.670588 0.34902 0.854902 0.670588 
0.34902 0.854902 0.670588 0.34902 0.854902 0.670588 
0.34902 0.854902 0.670588 0.34902 0.854902 0.670588 
0.34902 0.854902 0.670588 0.34902 0.854902 0.670588 
0.34902 0.854902 0.670588 0.34902 0.854902 0.670588 
0.34902 0.854902 0.670588 0.34902 0.854902 0.670588 
0.34902 0.854902 0.670588 0.34902 0.854902 0.670588 
0.34902 0.854902 0.670588 0.34902 0.854902 0.670588 
0.34902 0.854902 0.670588 0.34902 0.854902 0.670588 
0.34902 0.854902 0.670588 0.34902 0.854902 0.670588 
0.34902 0.854902 0.670588 0.34902 0.854902 0.670588 
0.34902 0.854902 0.670588 0.34902 0.854902 0.670588 
0.34902 0.854902 0.670588 0.34902 0.854902 0.670588 
0.34902 0.854902 0.670588 0.34902 0.854902 0.670588 
0.34902 0.854902 0.670588 0.34902 0.854902 0.670588 
0.34902 0.854902 0.670588 0.34902 0.854902 0.670588 
0.34902 0.854902 0.670588 0.34902 0.854902 0.670588 
0.34902 0.854902 0.670588 0.34902 0.854902 0.670588 
0.34902 0.854902 0.670588 0.34902 0.854902 0.670588 
0.34902 0.854902 0.670588 0.34902 0.854902 0.670588 
0.34902 0.854902 0.670588 0.34902 0.854902 0.670588 
0.34902 0.854902 0.670588 0.34902 0.854902 0.670588 
0.34902 0.854902 0.670588 0.34902 0.854902 0.670588 
0.34902 0.854902 0.670588 0.34902 0.854902 0.670588 
0.34902 0.854902 0.670588 0.34902 0.854902 0.670588 
0.34902 0.854902 0.670588 0.34902 0.854902 0.670588 
0.34902 0.854902 0.670588 0.34902 0.854902 0.670588 
0.34902 0.854902 0.670588 0.34902 0.854902 0.670588 
0.34902 0.854902 0.670588 0.34902 0.854902 0.670588 
0.34902 0.854902 0.670588 0.34902 0.854902 0.670588 
0.34902 0.854902 0.670588 0.34902 0.854902 0.670588 
0.34902 0.854902 0.670588 0.34902 0.854902 0.670588 
0.34902 0.854902 0.670588 0.34902 0.854902 0.670588 
0.34902 0.854902 0.670588 0.34902 0.854902 0.670588 
0.34902 0.854902 0.670588 0.34902 0.854902 0.670588 
0.34902 0.854902 0.670588 0.34902 0.854902 0.670588 
0.34902 0.854902 0.670588 0.34902 0.854902 0.670588 
0.34902 0.854902 0.670588 0.34902 0.854902 0.670588 
0.34902 0.854902 0.670588 0.34902 0.854902 0.670588 
0.34902 0.854902 0.670588 0.34902 0.854902 0.670588 
0.34902 0.854902 0.670588 0.34902 0.854902 0.670588 
0.34902 0.854902 0.670588 0.34902 0.854902 0.670588 
0.34902 0.854902 0.670588 0.34902 0.854902 0.670588 
0.34902 0.854902 0.670588 0.34902 0.854902 0.670588 
0.34902 0.854902 0.670588 0.34902 0.854902 0.670588 
0.34902 0.854902 0.670588 0.34902 0.854902 0.670588 
0.34902 0.854902 0.670588 0.34902 0.854902 0.670588 
0.34902 0.854902 0.670588 0.34902 0.854902 0.670588 
0.34902 0.854902 0.670588 0.34902 0.854902 0.670588 
0.34902 0.854902 0.670588 0.34902 0.854902 0.670588 