# vtk DataFile Version 4.2
vtk output
ASCII
DATASET POLYDATA
POINTS 15982 float
279.548 174.322 100.811 281.209 174.921 100.596 280.749 174.467 100.913 
281.697 175.056 100.617 281.661 174.886 100.782 281.942 175.116 100.72 
282.19 175.32 100.78 280.49 175.974 100.168 282.215 175.955 100.443 
282.439 175.606 100.741 282.613 175.995 100.647 282.665 175.852 100.829 
281.666 176.545 100.179 282.869 176.166 100.834 282.756 177.196 100.484 
279.603 180.584 100.363 283.059 179.911 100.791 277.164 172.482 101.722 
278.88 173.224 101.664 278.082 173.808 100.935 280.929 174.368 101.554 
281.161 174.536 101.612 282.39 175.544 101.015 284.03 178.35 101.83 
284.215 179.055 101.713 282.195 180.71 100.679 283.878 179.969 101.342 
277.407 183.181 101.378 276.669 171.791 102.197 277.153 172.072 102.182 
274.611 172.638 102.121 278.205 172.64 102.188 282.145 175.994 102.414 
284.106 178.575 102.368 284.877 179.698 102.372 285.176 179.994 102.684 
284.513 179.978 102.416 284.609 179.73 102.23 284.839 180.02 102.684 
284.981 180.006 102.537 285.191 180.164 102.7 285.324 180.335 102.966 
285.161 180.435 102.782 285.33 180.539 102.956 279.588 185.318 101.836 
273.722 169.817 103.954 274.334 170.021 103.825 274.771 171.019 102.987 
276.706 171.758 102.325 276.444 171.545 102.843 272.229 172.803 103.119 
272.548 175.148 102.632 284.463 179.416 102.571 284.321 179.427 102.872 
284.696 179.482 102.598 284.565 179.838 103.125 284.721 180.438 102.611 
284.929 179.93 103.03 285.022 180.929 102.808 285.106 183.757 104.027 
275.633 186.903 103.295 279.865 187.427 102.555 282.746 187.421 103.299 
277.317 188.354 103.186 283.504 194.004 103.017 283.504 194.004 103.018 
283.504 194.004 103.017 283.505 194.004 103.017 283.505 194.004 103.017 
283.505 194.004 103.018 283.504 194.004 103.017 283.505 194.005 103.018 
272.757 168.448 104.985 272.349 168.504 104.979 273.243 168.756 104.711 
273.031 168.516 104.947 273.333 168.681 104.879 272.233 169.085 104.569 
273.318 169.164 104.431 273.544 168.961 104.678 274.806 169.957 104.189 
271.67 169.899 104.335 275.077 170.141 104.279 275.461 170.532 104.223 
284.096 179.571 103.841 284.834 180.096 103.589 285.514 181.71 104.015 
284.549 185.768 104.272 283.344 188.206 104.005 283.006 189.779 104.207 
283.335 190.209 104.73 283.045 190.465 104.394 283.211 190.623 104.622 
277.945 191.212 104.258 281.336 190.983 103.976 283.057 190.798 104.516 
281.754 191.413 104.359 282.679 191.173 104.515 282.931 191.023 104.574 
280.199 192.251 104.805 283.504 194.004 103.018 283.505 194.004 103.018 
281.287 192.422 105.331 271.967 167.983 105.576 271.281 167.678 105.877 
271.125 168.092 105.521 272.677 168.271 105.369 270.874 168.275 105.478 
273.595 168.869 105.037 274.413 169.689 105.518 275.625 170.869 104.845 
285.198 181.078 104.562 284.425 186.997 104.849 283.292 190.621 104.806 
282.987 191.254 105.367 283.068 191.301 105.997 283.143 190.889 104.774 
271.046 167.229 106.288 270.969 167.07 106.422 271.079 167.116 106.414 
270.274 167.268 106.508 271.322 167.315 106.459 272.727 168.195 105.894 
274.556 170.14 106.188 285.367 181.922 104.919 284.124 189.138 106.021 
268.483 166.981 107.401 270.533 166.837 107.155 268.316 167.667 107.137 
271.584 167.451 107.409 273.197 168.68 106.395 267.952 168.569 106.987 
275.58 172.527 107.141 285.245 185.822 107.304 283.673 190.589 107.37 
276.853 194.65 107.276 276.409 195.375 108.065 269.104 165.716 108.072 
268.778 165.824 108.173 269.226 165.706 108.118 268.079 165.702 108.674 
269.8 166.068 108.249 271.359 167.546 108.512 273.306 169.288 107.366 
275.673 173.531 107.876 284.886 188.242 108.309 266.866 164.725 109.929 
267.142 165.036 109.572 266.56 165.119 109.729 267.756 165.176 109.39 
268.777 165.578 108.958 266.975 188.016 108.329 277.84 196.278 109.571 
266.95 164.312 110.537 267.324 164.402 110.513 262.522 184.315 109.796 
285.037 186.891 110.203 285.132 187.903 110.081 285.136 187.483 110.334 
265.57 163.471 111.801 265.21 163.459 111.76 264.944 163.648 111.615 
267.33 164.373 111.354 261.156 182.072 110.548 285.03 187.537 111.054 
264.953 163.122 112.149 264.879 162.978 112.295 264.985 163.005 112.285 
265.213 163.157 112.321 263.744 163.369 112.503 267.207 164.365 112.233 
283.744 186.176 112.021 284.347 186.261 111.37 281.712 193.906 111.237 
282.122 193.647 111.621 263.203 162.457 113.634 264.439 162.828 113.025 
265.125 163.026 112.97 261.29 166.163 112.777 283.224 186.06 112.266 
284.502 187.208 112.334 284.348 187.246 112.627 259.921 193.49 113.125 
262.952 162.332 113.915 262.404 162.386 114.215 267.679 165.732 113.584 
284.511 191.851 113.512 261.596 197.456 113.956 261.929 161.766 115.116 
261.754 161.798 115.208 261.391 161.802 115.447 262.618 162.003 114.893 
284.816 191.881 114.799 284.226 193.906 114.636 281.633 195.886 113.88 
261.157 161.575 115.867 261.872 161.716 115.267 261.228 161.569 115.931 
260.367 162.069 115.922 261.745 161.705 115.627 264.868 163.41 115.523 
275.201 185.569 116.438 282.933 189.491 115.884 283.975 189.845 115.479 
283.8 189.996 115.783 284.29 189.957 115.136 285.34 194.94 116.456 
283.012 196.325 115.249 259.232 161.085 117.844 260.849 161.605 116.45 
284.435 191.08 115.949 284.991 193.463 116.836 285.384 194.641 117.028 
285.644 195.226 116.948 286.028 196.134 117.344 285.997 196.329 117.333 
284.874 197.289 117.061 285.958 196.528 117.467 285.169 197.594 117.661 
258.935 160.829 118.253 258.838 160.97 118.16 258.971 160.832 118.355 
259.424 161.017 118.235 257.695 161.494 118.288 261.161 161.582 117.432 
262.062 162.075 117.822 263.234 163.309 118.112 284.094 191.944 117.142 
284.469 193.099 117.691 284.758 193.451 117.513 285.863 195.795 117.585 
286.012 196.062 117.486 286.027 196.323 117.518 285.889 196.618 117.758 
285.734 196.996 117.82 285.146 197.97 118.29 285.482 197.371 118.031 
284.163 199.739 118.736 284.596 199.213 118.782 257.334 160.511 119.793 
257.22 160.662 119.506 258.555 160.848 118.798 261.897 162.459 118.835 
255.16 164.223 118.74 283.502 193.483 118.88 284.216 194.243 118.849 
283.182 200.722 118.63 275.56 203.379 117.993 274.597 203.888 118.278 
273.095 204.585 118.778 253.424 205.606 119.493 257.445 160.399 120.223 
257.896 160.458 120.116 258.484 160.665 119.999 284.467 195.482 119.444 
284.936 196.155 119.174 283.761 201.448 120.347 281.85 205.154 120.466 
281.548 206.168 120.857 257.327 160.337 121.32 255.691 160.98 120.342 
269.639 187.739 121.216 271.016 190.916 121.512 283.731 201.541 121.068 
281.718 196.449 121.715 282.642 196.195 121.134 283.171 197.375 121.432 
283.89 198.084 121.042 283.541 201.932 121.634 283.416 202.888 121.783 
282.816 205.713 121.882 282.923 205.675 122.167 278.92 207.877 121.729 
254.866 159.957 122.951 256.451 160.352 123.353 266.391 186.175 123.699 
266.965 188.299 123.723 267.695 190.069 123.646 267.909 190.989 123.692 
268.274 191.438 123.434 268.023 191.477 123.591 268.153 191.771 123.596 
268.4 192.189 123.712 269.404 193.195 123.457 269.189 194.512 124.261 
280.197 197.671 122.937 282.802 200.175 122.661 282.901 203.024 123.255 
282.982 205.331 122.35 282.524 206.734 123.22 277.027 209.032 122.69 
282.048 207.994 122.9 282.158 207.946 123.089 279.968 209.281 123.419 
282.04 208.176 123.126 281.898 208.347 123.265 253.187 159.661 124.083 
253.233 159.653 124.177 255.403 159.965 123.43 255.51 160.073 123.859 
250.947 161.68 123.931 266.454 187.874 124.45 266.784 188.359 123.935 
267.97 191.625 123.609 267.918 191.628 123.623 267.935 191.531 123.697 
267.986 191.699 123.663 268.09 191.835 123.85 267.962 191.681 123.611 
268.756 195.006 124.589 268.729 195.033 124.606 268.724 195.014 124.612 
268.75 194.969 124.649 268.78 195.06 124.62 268.907 194.959 124.596 
268.866 195.246 124.729 268.717 194.811 124.867 269.634 198.022 125.526 
282.775 202.957 123.575 282.684 202.9 123.696 246.843 208.907 123.749 
282.261 207.629 123.229 282.053 208.146 123.418 281.934 208.316 123.653 
281.13 208.884 123.891 281.689 208.5 123.601 284 211.009 124.017 
284 211.009 124.017 284 211.009 124.017 284 211.009 124.017 
284 211.009 124.017 251.259 159.646 125.527 252.839 159.722 124.7 
251.18 160.466 124.705 265.197 185.42 124.934 266.776 188.376 123.968 
267.923 191.642 123.635 268.746 195.055 124.709 269.186 197.727 126.063 
269.382 198.912 126.35 270.035 199.221 125.77 269.868 199.421 125.992 
271.247 199.583 125.447 281.418 202.663 124.722 281.192 207.21 125.503 
281.262 208.361 124.792 280.956 208.99 124.551 280.376 209.767 124.904 
281.835 208.306 123.89 277.727 210.877 124.621 279.645 210.383 124.726 
280.185 210.587 125.21 280.331 210.335 125.44 284 211.009 124.018 
279.832 210.881 125.217 280.342 210.914 125.446 280.235 210.995 125.367 
280.386 211.123 125.42 280.402 211.081 125.415 280.44 211.138 125.427 
279.565 211.144 125.491 280.25 211.115 125.477 280.397 211.137 125.455 
250.948 159.607 125.84 251.406 159.389 126.297 255.048 160.365 125.05 
248.268 163.383 125.627 269.002 198.093 126.729 269.662 199.525 126.305 
279.784 201.587 125.244 275.309 201.543 126.157 280.216 210.742 125.804 
280.297 211.075 125.54 280.413 211.095 125.45 278.882 211.628 126.183 
279.394 211.313 125.926 279.969 211.12 125.683 282.504 213.007 126.015 
282.504 213.007 126.015 282.504 213.007 126.015 282.505 213.006 126.015 
282.505 213.006 126.015 282.505 213.006 126.015 282.504 213.007 126.015 
282.505 213.007 126.015 251.278 159.349 127.297 264.946 187.189 126.642 
268.831 198.212 127.776 241.853 208.841 126.952 243.412 211.749 127.376 
279.237 211.41 126.502 278.668 212.087 126.847 279.733 211.072 126.128 
280.09 210.944 125.843 277.803 212.445 126.734 278.536 212.617 127.043 
278.818 212.626 127.053 282.504 213.007 126.015 282.505 213.006 126.015 
250.358 213.541 127.5 276.265 213.143 127.152 278 212.739 127.293 
278.557 212.703 127.228 278.835 212.766 127.152 278.83 212.788 127.112 
279.041 212.88 127.079 279.065 212.9 127.085 193.143 260.361 128.574 
192.741 260.585 128.573 196.135 261.101 128.403 196.632 260.847 128.546 
[...]
POINT_DATA 15982
COLOR_SCALARS scalars 3
0.521569 0.6 0.8 0.521569 0.6 0.8 0.521569 0.6 0.8 
0.521569 0.6 0.8 0.521569 0.6 0.8 
0.521569 0.6 0.8 0.521569 0.6 0.8 
0.521569 0.6 0.8 0.521569 0.6 0.8 
0.521569 0.6 0.8 0.521569 0.6 0.8 
0.521569 0.6 0.8 0.521569 0.6 0.8 
0.521569 0.6 0.8 0.521569 0.6 0.8 
0.521569 0.6 0.8 0.521569 0.6 0.8 
0.521569 0.6 0.8 0.521569 0.6 0.8 
0.521569 0.6 0.8 0.521569 0.6 0.8 
0.521569 0.6 0.8 0.521569 0.6 0.8 
0.521569 0.6 0.8 0.521569 0.6 0.8 
0.521569 0.6 0.8 0.521569 0.6 0.8 
0.521569 0.6 0.8 0.521569 0.6 0.8 
0.521569 0.6 0.8 0.521569 0.6 0.8 
0.521569 0.6 0.8 0.521569 0.6 0.8 
0.521569 0.6 0.8 0.521569 0.6 0.8 
0.521569 0.6 0.8 0.521569 0.6 0.8 
0.521569 0.6 0.8 0.521569 0.6 0.8 
0.521569 0.6 0.8 0.521569 0.6 0.8 
0.521569 0.6 0.8 0.521569 0.6 0.8 
0.521569 0.6 0.8 0.521569 0.6 0.8 
0.521569 0.6 0.8 0.521569 0.6 0.8 
0.521569 0.6 0.8 0.521569 0.6 0.8 
0.521569 0.6 0.8 0.521569 0.6 0.8 
0.521569 0.6 0.8 0.521569 0.6 0.8 
0.521569 0.6 0.8 0.521569 0.6 0.8 
0.521569 0.6 0.8 0.521569 0.6 0.8 
0.521569 0.6 0.8 0.521569 0.6 0.8 
0.521569 0.6 0.8 0.521569 0.6 0.8 
0.521569 0.6 0.8 0.521569 0.6 0.8 
0.521569 0.6 0.8 0.521569 0.6 0.8 
0.521569 0.6 0.8 0.521569 0.6 0.8 
0.521569 0.6 0.8 0.521569 0.6 0.8 
0.521569 0.6 0.8 0.521569 0.6 0.8 
0.521569 0.6 0.8 0.521569 0.6 0.8 
0.521569 0.6 0.8 0.521569 0.6 0.8 
0.521569 0.6 0.8 0.521569 0.6 0.8 
0.521569 0.6 0.8 0.521569 0.6 0.8 
0.521569 0.6 0.8 0.521569 0.6 0.8 
0.521569 0.6 0.8 0.521569 0.6 0.8 
0.521569 0.6 0.8 0.521569 0.6 0.8 
0.521569 0.6 0.8 0.521569 0.6 0.8 
0.521569 0.6 0.8 0.521569 0.6 0.8 
0.521569 0.6 0.8 0.521569 0.6 0.8 
0.521569 0.6 0.8 0.521569 0.6 0.8 
0.521569 0.6 0.8 0.521569 0.6 0.8 
0.521569 0.6 0.8 0.521569 0.6 0.8 
0.521569 0.6 0.8 0.521569 0.6 0.8 
0.521569 0.6 0.8 0.521569 0.6 0.8 
0.521569 0.6 0.8 0.521569 0.6 0.8 
0.521569 0.6 0.8 0.521569 0.6 0.8 
0.521569 0.6 0.8 0.521569 0.6 0.8 
0.521569 0.6 0.8 0.521569 0.6 0.8 
0.521569 0.6 0.8 0.521569 0.6 0.8 
0.521569 0.6 0.8 0.521569 0.6 0.8 
0.521569 0.6 0.8 0.521569 0.6 0.8 
0.521569 0.6 0.8 0.521569 0.6 0.8 
0.521569 0.6 0.8 0.521569 0.6 0.8 
0.521569 0.6 0.8 0.521569 0.6 0.8 
0.521569 0.6 0.8 0.521569 0.6 0.8 
0.521569 0.6 0.8 0.521569 0.6 0.8 
0.521569 0.6 0.8 0.521569 0.6 0.8 
0.521569 0.6 0.8 0.521569 0.6 0.8 
0.521569 0.6 0.8 0.521569 0.6 0.8 
0.521569 0.6 0.8 0.521569 0.6 0.8 
0.521569 0.6 0.8 0.521569 0.6 0.8 
0.521569 0.6 0.8 0.521569 0.6 0.8 
0.521569 0.6 0.8 0.521569 0.6 0.8 
0.521569 0.6 0.8 0.521569 0.6 0.8 
0.521569 0.6 0.8 0.521569 0.6 0.8 
0.521569 0.6 0.8 0.521569 0.6 0.8 
0.521569 0.6 0.8 0.521569 0.6 0.8 
0.521569 0.6 0.8 0.521569 0.6 0.8 
0.521569 0.6 0.8 0.521569 0.6 0.8 
0.521569 0.6 0.8 0.521569 0.6 0.8 
0.521569 0.6 0.8 0.521569 0.6 0.8 
0.521569 0.6 0.8 0.521569 0.6 0.8 
0.521569 0.6 0.8 0.521569 0.6 0.8 
0.521569 0.6 0.8 0.521569 0.6 0.8 
0.521569 0.6 0.8 0.521569 0.6 0.8 
0.521569 0.6 0.8 0.521569 0.6 0.8 
0.521569 0.6 0.8 0.521569 0.6 0.8 
0.521569 0.6 0.8 0.521569 0.6 0.8 
0.521569 0.6 0.8 0.521569 0.6 0.8 
0.521569 0.6 0.8 0.521569 0.6 0.8 
0.521569 0.6 0.8 0.521569 0.6 0.8 
0.521569 0.6 0.8 0.521569 0.6 0.8 
0.521569 0.6 0.8 0.521569 0.6 0.8 
0.521569 0.6 0.8 0.521569 0.6 0.8 
0.521569 0.6 0.8 0.521569 0.6 0.8 
0.521569 0.6 0.8 0.521569 0.6 0.8 
0.521569 0.6 0.8 0.521569 0.6 0.8 
0.521569 0.6 0.8 0.521569 0.6 0.8 
0.521569 0.6 0.8 0.521569 0.6 0.8 
0.521569 0.6 0.8 0.521569 0.6 0.8 
0.521569 0.6 0.8 0.521569 0.6 0.8 
0.521569 0.6 0.8 0.521569 0.6 0.8 
0.521569 0.6 0.8 0.521569 0.6 0.8 
0.521569 0.6 0.8 0.521569 0.6 0.8 
0.521569 0.6 0.8 0.521569 0.6 0.8 
0.521569 0.6 0.8 0.521569 0.6 0.8 
0.521569 0.6 0.8 0.521569 0.6 0.8 
0.521569 0.6 0.8 0.521569 0.6 0.8 
0.521569 0.6 0.8 0.521569 0.6 0.8 
0.521569 0.6 0.8 0.521569 0.6 0.8 
0.521569 0.6 0.8 0.521569 0.6 0.8 
0.521569 0.6 0.8 0.521569 0.6 0.8 
0.521569 0.6 0.8 0.521569 0.6 0.8 
0.521569 0.6 0.8 0.521569 0.6 0.8 
0.521569 0.6 0.8 0.521569 0.6 0.8 
0.521569 0.6 0.8 0.521569 0.6 0.8 
0.521569 0.6 0.8 0.521569 0.6 0.8 
0.521569 0.6 0.8 0.521569 0.6 0.8 
0.521569 0.6 0.8 0.521569 0.6 0.8 
0.521569 0.6 0.8 0.521569 0.6 0.8 
0.521569 0.6 0.8 0.521569 0.6 0.8 
0.521569 0.6 0.8 0.521569 0.6 0.8 
0.521569 0.6 0.8 0.521569 0.6 0.8 
0.521569 0.6 0.8 0.521569 0.6 0.8 
0.521569 0.6 0.8 0.521569 0.6 0.8 
0.521569 0.6 0.8 0.521569 0.6 0.8 
0.521569 0.6 0.8 0.521569 0.6 0.8 
0.521569 0.6 0.8 0.521569 0.6 0.8 
0.521569 0.6 0.8 0.521569 0.6 0.8 
0.521569 0.6 0.8 0.521569 0.6 0.8 
0.521569 0.6 0.8 0.521569 0.6 0.8 
0.521569 0.6 0.8 0.521569 0.6 0.8 
0.521569 0.6 0.8 0.521569 0.6 0.8 
0.521569 0.6 0.8 0.521569 0.6 0.8 
0.521569 0.6 0.8 0.521569 0.6 0.8 
0.521569 0.6 0.8 0.521569 0.6 0.8 
0.521569 0.6 0.8 0.521569 0.6 0.8 
0.521569 0.6 0.8 0.521569 0.6 0.8 
0.521569 0.6 0.8 0.521569 0.6 0.8 
0.521569 0.6 0.8 0.521569 0.6 0.8 
0.521569 0.6 0.8 0.521569 0.6 0.8 
0.521569 0.6 0.8 0.521569 0.6 0.8 
0.521569 0.6 0.8 0.521569 0.6 0.8 
0.521569 0.6 0.8 0.521569 0.6 0.8 
0.521569 0.6 0.8 0.521569 0.6 0.8 
0.521569 0.6 0.8 0.521569 0.6 0.8 
0.521569 0.6 0.8 0.521569 0.6 0.8 
0.521569 0.6 0.8 0.521569 0.6 0.8 
0.521569 0.6 0.8 0.521569 0.6 0.8 
0.521569 0.6 0.8 0.521569 0.6 0.8 
0.521569 0.6 0.8 0.521569 0.6 0.8 
0.521569 0.6 0.8 0.521569 0.6 0.8 
0.521569 0.6 0.8 0.521569 0.6 0.8 
0.521569 0.6 0.8 0.521569 0.6 0.8 
0.521569 0.6 0.8 0.521569 0.6 0.8 
0.521569 0.6 0.8 0.521569 0.6 0.8 
0.521569 0.6 0.8 0.521569 0.6 0.8 
0.521569 0.6 0.8 0.521569 0.6 0.8 
0.521569 0.6 0.8 0.521569 0.6 0.8 
0.521569 0.6 0.8 0.521569 0.6 0.8 
0.521569 0.6 0.8 0.521569 0.6 0.8 
0.521569 0.6 0.8 0.521569 0.6 0.8 
0.521569 0.6 0.8 0.521569 0.6 0.8 
0.521569 0.6 0.8 0.521569 0.6 0.8 
0.521569 0.6 0.8 0.521569 0.6 0.8 
0.521569 0.6 0.8 0.521569 0.6 0.8 
0.521569 0.6 0.8 0.521569 0.6 0.8 
0.521569 0.6 0.8 0.521569 0.6 0.8 
0.521569 0.6 0.8 0.521569 0.6 0.8 
0.521569 0.6 0.8 0.521569 0.6 0.8 
0.521569 0.6 0.8 0.521569 0.6 0.8 
0.521569 0.6 0.8 0.521569 0.6 0.8 
0.521569 0.6 0.8 0.521569 0.6 0.8 
0.521569 0.6 0.8 0.521569 0.6 0.8 
0.521569 0.6 0.8 0.521569 0.6 0.8 
0.521569 0.6 0.8 0.521569 0.6 0.8 
0.521569 0.6 0.8 0.521569 0.6 0.8 
0.521569 0.6 0.8 0.521569 0.6 0.8 
0.521569 0.6 0.8 0.521569 0.6 0.8 
0.521569 0.6 0.8 0.521569 0.6 0.8 
0.521569 0.6 0.8 0.521569 0.6 0.8 
0.521569 0.6 0.8 0.521569 0.6 0.8 
0.521569 0.6 0.8 0.521569 0.6 0.8 
0.521569 0.6 0.8 0.521569 0.6 0.8 
0.521569 0.6 0.8 0.521569 0.6 0.8 
0.521569 0.6 0.8 0.521569 0.6 0.8 
0.521569 0.6 0.8 0.521569 0.6 0.8 
0.521569 0.6 0.8 0.521569 0.6 0.8 
0.521569 0.6 0.8 0.521569 0.6 0.8 
0.521569 0.6 0.8 0.521569 0.6 0.8 
0.521569 0.6 0.8 0.521569 0.6 0.8 
0.521569 0.6 0.8 0.521569 0.6 0.8 
0.521569 0.6 0.8 0.521569 0.6 0.8 
0.521569 0.6 0.8 0.521569 0.6 0.8 
0.521569 0.6 0.8 0.521569 0.6 0.8 
0.521569 0.6 0.8 0.521569 0.6 0.8 
0.521569 0.6 0.8 0.521569 0.6 0.8 
0.521569 0.6 0.8 0.521569 0.6 0.8 
0.521569 0.6 0.8 0.521569 0.6 0.8 
0.521569 0.6 0.8 0.521569 0.6 0.8 
0.521569 0.6 0.8 0.521569 0.6 0.8 
0.521569 0.6 0.8 0.521569 0.6 0.8 
0.521569 0.6 0.8 0.521569 0.6 0.8 
0.521569 0.6 0.8 0.521569 0.6 0.8 
0.521569 0.6 0.8 0.521569 0.6 0.8 
0.521569 0.6 0.8 0.521569 0.6 0.8 
0.521569 0.6 0.8 0.521569 0.6 0.8 
0.521569 0.6 0.8 0.521569 0.6 0.8 
0.521569 0.6 0.8 0.521569 0.6 0.8 
0.521569 0.6 0.8 0.521569 0.6 0.8 
0.521569 0.6 0.8 0.521569 0.6 0.8 
0.521569 0.6 0.8 0.521569 0.6 0.8 
0.521569 0.6 0.8 0.521569 0.6 0.8 
0.521569 0.6 0.8 0.521569 0.6 0.8 
0.521569 0.6 0.8 0.521569 0.6 0.8 
0.521569 0.6 0.8 0.521569 0.6 0.8 
0.521569 0.6 0.8 0.521569 0.6 0.8 
0.521569 0.6 0.8 0.521569 0.6 0.8 
0.521569 0.6 0.8 0.521569 0.6 0.8 
0.521569 0.6 0.8 0.521569 0.6 0.8 
0.521569 0.6 0.8 0.521569 0.6 0.8 
0.521569 0.6 0.8 0.521569 0.6 0.8 
0.521569 0.6 0.8 0.521569 0.6 0.8 
0.521569 0.6 0.8 0.521569 0.6 0.8 
0.521569 0.6 0.8 0.521569 0.6 0.8 
0.521569 0.6 0.8 0.521569 0.6 0.8 
0.521569 0.6 0.8 0.521569 0.6 0.8 
0.521569 0.6 0.8 0.521569 0.6 0.8 
0.521569 0.6 0.8 0.521569 0.6 0.8 
0.521569 0.6 0.8 0.521569 0.6 0.8 
0.521569 0.6 0.8 0.521569 0.6 0.8 
0.521569 0.6 0.8 0.521569 0.6 0.8 
0.521569 0.6 0.8 0.521569 0.6 0.8 
0.521569 0.6 0.8 0.521569 0.6 0.8 
0.521569 0.6 0.8 0.521569 0.6 0.8 
0.521569 0.6 0.8 0.521569 0.6 0.8 
0.521569 0.6 0.8 0.521569 0.6 0.8 
0.521569 0.6 0.8 0.521569 0.6 0.8 
0.521569 0.6 0.8 0.521569 0.6 0.8 
0.521569 0.6 0.8 0.521569 0.6 0.8 
0.521569 0.6 0.8 0.521569 0.6 0.8 
0.521569 0.6 0.8 0.521569 0.6 0.8 
0.521569 0.6 0.8 0.521569 0.6 0.8 
0.521569 0.6 0.8 0.521569 0.6 0.8 
0.521569 0.6 0.8 0.521569 0.6 0.8 
0.521569 0.6 0.8 0.521569 0.6 0.8 
0.521569 0.6 0.8 0.521569 0.6 0.8 
0.521569 0.6 0.8 0.521569 0.6 0.8 
0.521569 0.6 0.8 0.521569 0.6 0.8 
0.521569 0.6 0.8 0.521569 0.6 0.8 
0.521569 0.6 0.8 0.521569 0.6 0.8 
0.521569 0.6 0.8 0.521569 0.6 0.8 
0.521569 0.6 0.8 0.521569 0.6 0.8 
0.521569 0.6 0.8 0.521569 0.6 0.8 
0.521569 0.6 0.8 0.521569 0.6 0.8 
0.521569 0.6 0.8 0.521569 0.6 0.8 
0.521569 0.6 0.8 0.521569 0.6 0.8 
0.521569 0.6 0.8 0.521569 0.6 0.8 
0.521569 0.6 0.8 0.521569 0.6 0.8 
0.521569 0.6 0.8 0.521569 0.6 0.8 
0.521569 0.6 0.8 0.521569 0.6 0.8 
0.521569 0.6 0.8 0.521569 0.6 0.8 
0.521569 0.6 0.8 0.521569 0.6 0.8 
0.521569 0.6 0.8 0.521569 0.6 0.8 
0.521569 0.6 0.8 0.521569 0.6 0.8 
0.521569 0.6 0.8 0.521569 0.6 0.8 
0.521569 0.6 0.8 0.521569 0.6 0.8 
0.521569 0.6 0.8 0.521569 0.6 0.8 
0.521569 0.6 0.8 0.521569 0.6 0.8 
0.521569 0.6 0.8 0.521569 0.6 0.8 
0.521569 0.6 0.8 0.521569 0.6 0.8 
0.521569 0.6 0.8 0.521569 0.6 0.8 
0.521569 0.6 0.8 0.521569 0.6 0.8 
0.521569 0.6 0.8 0.521569 0.6 0.8 
0.521569 0.6 0.8 0.521569 0.6 0.8 
0.521569 0.6 0.8 0.521569 0.6 0.8 
0.521569 0.6 0.8 0.521569 0.6 0.8 
0.521569 0.6 0.8 0.521569 0.6 0.8 
0.521569 0.6 0.8 0.521569 0.6 0.8 
0.521569 0.6 0.8 0.521569 0.6 0.8 
0.521569 0.6 0.8 0.521569 0.6 0.8 
0.521569 0.6 0.8 0.521569 0.6 0.8 
0.521569 0.6 0.8 0.521569 0.6 0.8 
0.521569 0.6 0.8 0.521569 0.6 0.8 
0.521569 0.6 0.8 0.521569 0.6 0.8 
0.521569 0.6 0.8 0.521569 0.6 0.8 
0.521569 0.6 0.8 0.521569 0.6 0.8 
0.521569 0.6 0.8 0.521569 0.6 0.8 
0.521569 0.6 0.8 0.521569 0.6 0.8 
0.521569 0.6 0.8 0.521569 0.6 0.8 
0.521569 0.6 0.8 0.521569 0.6 0.8 
0.521569 0.6 0.8 0.521569 0.6 0.8 
0.521569 0.6 0.8 0.521569 0.6 0.8 
0.521569 0.6 0.8 0.521569 0.6 0.8 
0.521569 0.6 0.8 0.521569 0.6 0.8 
0.521569 0.6 0.8 0.521569 0.6 0.8 
0.521569 0.6 0.8 0.521569 0.6 0.8 
0.521569 0.6 0.8 0.521569 0.6 0.8 
0.521569 0.6 0.8 0.521569 0.6 0.8 
0.521569 0.6 0.8 0.521569 0.6 0.8 
0.521569 0.6 0.8 0.521569 0.6 0.8 
0.521569 0.6 0.8 0.521569 0.6 0.8 
0.521569 0.6 0.8 0.521569 0.6 0.8 
0.521569 0.6 0.8 0.521569 0.6 0.8 
0.521569 0.6 0.8 0.521569 0.6 0.8 
0.521569 0.6 0.8 0.521569 0.6 0.8 
0.521569 0.6 0.8 0.521569 0.6 0.8 
0.521569 0.6 0.8 0.521569 0.6 0.8 
0.521569 0.6 0.8 0.521569 0.6 0.8 
0.521569 0.6 0.8 0.521569 0.6 0.8 
0.521569 0.6 0.8 0.521569 0.6 0.8 
0.521569 0.6 0.8 0.521569 0.6 0.8 
0.521569 0.6 0.8 0.521569 0.6 0.8 
0.521569 0.6 0.8 0.521569 0.6 0.8 
0.521569 0.6 0.8 0.521569 0.6 0.8 
0.521569 0.6 0.8 0.521569 0.6 0.8 
0.521569 0.6 0.8 0.521569 0.6 0.8 
0.521569 0.6 0.8 0.521569 0.6 0.8 
0.521569 0.6 0.8 0.521569 0.6 0.8 
0.521569 0.6 0.8 0.521569 0.6 0.8 
0.521569 0.6 0.8 0.521569 0.6 0.8 
0.521569 0.6 0.8 0.521569 0.6 0.8 
0.521569 0.6 0.8 0.521569 0.6 0.8 
0.521569 0.6 0.8 0.521569 0.6 0.8 
0.521569 0.6 0.8 0.521569 0.6 0.8 
0.521569 0.6 0.8 0.521569 0.6 0.8 
0.521569 0.6 0.8 0.521569 0.6 0.8 
0.521569 0.6 0.8 0.521569 0.6 0.8 
0.521569 0.6 0.8 0.521569 0.6 0.8 
0.521569 0.6 0.8 0.521569 0.6 0.8 
0.521569 0.6 0.8 0.521569 0.6 0.8 
0.521569 0.6 0.8 0.521569 0.6 0.8 
0.521569 0.6 0.8 0.521569 0.6 0.8 
0.521569 0.6 0.8 0.521569 0.6 0.8 
0.521569 0.6 0.8 0.521569 0.6 0.8 
0.521569 0.6 0.8 0.521569 0.6 0.8 
0.521569 0.6 0.8 0.521569 0.6 0.8 
0.521569 0.6 0.8 0.521569 0.6 0.8 
0.521569 0.6 0.8 0.521569 0.6 0.8 
0.521569 0.6 0.8 0.521569 0.6 0.8 
0.521569 0.6 0.8 0.521569 0.6 0.8 
0.521569 0.6 0.8 0.521569 0.6 0.8 
0.521569 0.6 0.8 0.521569 0.6 0.8 
0.521569 0.6 0.8 0.521569 0.6 0.8 
0.521569 0.6 0.8 0.521569 0.6 0.8 
0.521569 0.6 0.8 0.521569 0.6 0.8 
0.521569 0.6 0.8 0.521569 0.6 0.8 
0.521569 0.6 0.8 0.521569 0.6 0.8 
0.521569 0.6 0.8 0.521569 0.6 0.8 
0.521569 0.6 0.8 0.521569 0.6 0.8 
0.521569 0.6 0.8 0.521569 0.6 0.8 
0.521569 0.6 0.8 0.521569 0.6 0.8 
0.521569 0.6 0.8 0.521569 0.6 0.8 
0.521569 0.6 0.8 0.521569 0.6 0.8 
0.521569 0.6 0.8 0.521569 0.6 0.8 
0.521569 0.6 0.8 0.521569 0.6 0.8 
0.521569 0.6 0.8 0.521569 0.6 0.8 
0.521569 0.6 0.8 0.521569 0.6 0.8 
0.521569 0.6 0.8 0.521569 0.6 0.8 
0.521569 0.6 0.8 0.521569 0.6 0.8 
0.521569 0.6 0.8 0.521569 0.6 0.8 
0.521569 0.6 0.8 0.521569 0.6 0.8 
0.521569 0.6 0.8 0.521569 0.6 0.8 
0.521569 0.6 0.8 0.521569 0.6 0.8 
0.521569 0.6 0.8 0.521569 0.6 0.8 
0.521569 0.6 0.8 0.521569 0.6 0.8 
0.521569 0.6 0.8 0.521569 0.6 0.8 
0.521569 0.6 0.8 0.521569 0.6 0.8 
0.521569 0.6 0.8 0.521569 0.6 0.8 
0.521569 0.6 0.8 0.521569 0.6 0.8 
0.521569 0.6 0.8 0.521569 0.6 0.8 
0.521569 0.6 0.8 0.521569 0.6 0.8 
0.521569 0.6 0.8 0.521569 0.6 0.8 
0.521569 0.6 0.8 0.521569 0.6 0.8 
0.521569 0.6 0.8 0.521569 0.6 0.8 
0.521569 0.6 0.8 0.521569 0.6 0.8 
0.521569 0.6 0.8 0.521569 0.6 0.8 
0.521569 0.6 0.8 0.521569 0.6 0.8 
0.521569 0.6 0.8 0.521569 0.6 0.8 
0.521569 0.6 0.8 0.521569 0.6 0.8 
0.521569 0.6 0.8 0.521569 0.6 0.8 
0.521569 0.6 0.8 0.521569 0.6 0.8 
0.521569 0.6 0.8 0.521569 0.6 0.8 
0.521569 0.6 0.8 0.521569 0.6 0.8 
0.521569 0.6 0.8 0.521569 0.6 0.8 
0.521569 0.6 0.8 0.521569 0.6 0.8 
0.521569 0.6 0.8 0.521569 0.6 0.8 
0.521569 0.6 0.8 0.521569 0.6 0.8 
0.521569 0.6 0.8 0.521569 0.6 0.8 
0.521569 0.6 0.8 0.521569 0.6 0.8 
0.521569 0.6 0.8 0.521569 0.6 0.8 
0.521569 0.6 0.8 0.521569 0.6 0.8 
0.521569 0.6 0.8 0.521569 0.6 0.8 
0.521569 0.6 0.8 0.521569 0.6 0.8 
0.521569 0.6 0.8 0.521569 0.6 0.8 
0.521569 0.6 0.8 0.521569 0.6 0.8 
0.521569 0.6 0.8 0.521569 0.6 0.8 
0.521569 0.6 0.8 0.521569 0.6 0.8 
0.521569 0.6 0.8 0.521569 0.6 0.8 
0.521569 0.6 0.8 0.521569 0.6 0.8 
0.521569 0.6 0.8 0.521569 0.6 0.8 
0.521569 0.6 0.8 0.521569 0.6 0.8 
0.521569 0.6 0.8 0.521569 0.6 0.8 
0.521569 0.6 0.8 0.521569 0.6 0.8 
0.521569 0.6 0.8 0.521569 0.6 0.8 
0.521569 0.6 0.8 0.521569 0.6 0.8 
0.521569 0.6 0.8 0.521569 0.6 0.8 
0.521569 0.6 0.8 0.521569 0.6 0.8 
0.521569 0.6 0.8 0.521569 0.6 0.8 
0.521569 0.6 0.8 0.521569 0.6 0.8 
0.521569 0.6 0.8 0.521569 0.6 0.8 
0.521569 0.6 0.8 0.521569 0.6 0.8 
0.521569 0.6 0.8 0.521569 0.6 0.8 
0.521569 0.6 0.8 0.521569 0.6 0.8 
0.521569 0.6 0.8 0.521569 0.6 0.8 
0.521569 0.6 0.8 0.521569 0.6 0.8 
0.521569 0.6 0.8 0.521569 0.6 0.8 
0.521569 0.6 0.8 0.521569 0.6 0.8 
0.521569 0.6 0.8 0.521569 0.6 0.8 
0.521569 0.6 0.8 0.521569 0.6 0.8 
0.521569 0.6 0.8 0.521569 0.6 0.8 
0.521569 0.6 0.8 0.521569 0.6 0.8 
0.521569 0.6 0.8 0.521569 0.6 0.8 
0.521569 0.6 0.8 0.521569 0.6 0.8 
0.521569 0.6 0.8 0.521569 0.6 0.8 
0.521569 0.6 0.8 0.521569 0.6 0.8 
0.521569 0.6 0.8 0.521569 0.6 0.8 
0.521569 0.6 0.8 0.521569 0.6 0.8 
0.521569 0.6 0.8 0.521569 0.6 0.8 
0.521569 0.6 0.8 0.521569 0.6 0.8 
0.521569 0.6 0.8 0.521569 0.6 0.8 
0.521569 0.6 0.8 0.521569 0.6 0.8 
0.521569 0.6 0.8 0.521569 0.6 0.8 
0.521569 0.6 0.8 0.521569 0.6 0.8 
0.521569 0.6 0.8 0.521569 0.6 0.8 
0.521569 0.6 0.8 0.521569 0.6 0.8 
0.521569 0.6 0.8 0.521569 0.6 0.8 
0.521569 0.6 0.8 0.521569 0.6 0.8 
0.521569 0.6 0.8 0.521569 0.6 0.8 
0.521569 0.6 0.8 0.521569 0.6 0.8 
0.521569 0.6 0.8 0.521569 0.6 0.8 
0.521569 0.6 0.8 0.521569 0.6 0.8 
0.521569 0.6 0.8 0.521569 0.6 0.8 
0.521569 0.6 0.8 0.521569 0.6 0.8 
0.521569 0.6 0.8 0.521569 0.6 0.8 
0.521569 0.6 0.8 0.521569 0.6 0.8 
0.521569 0.6 0.8 0.521569 0.6 0.8 
0.521569 0.6 0.8 0.521569 0.6 0.8 
0.521569 0.6 0.8 0.521569 0.6 0.8 
0.521569 0.6 0.8 0.521569 0.6 0.8 
0.521569 0.6 0.8 0.521569 0.6 0.8 
0.521569 0.6 0.8 0.521569 0.6 0.8 
0.521569 0.6 0.8 0.521569 0.6 0.8 
0.521569 0.6 0.8 0.521569 0.6 0.8 
0.521569 0.6 0.8 0.521569 0.6 0.8 
0.521569 0.6 0.8 0.521569 0.6 0.8 
0.521569 0.6 0.8 0.521569 0.6 0.8 
0.521569 0.6 0.8 0.521569 0.6 0.8 
0.521569 0.6 0.8 0.521569 0.6 0.8 
0.521569 0.6 0.8 0.521569 0.6 0.8 
0.521569 0.6 0.8 0.521569 0.6 0.8 
0.521569 0.6 0.8 0.521569 0.6 0.8 
0.521569 0.6 0.8 0.521569 0.6 0.8 
0.521569 0.6 0.8 0.521569 0.6 0.8 
0.521569 0.6 0.8 0.521569 0.6 0.8 
0.521569 0.6 0.8 0.521569 0.6 0.8 
0.521569 0.6 0.8 0.521569 0.6 0.8 
0.521569 0.6 0.8 0.521569 0.6 0.8 
0.521569 0.6 0.8 0.521569 0.6 0.8 
0.521569 0.6 0.8 0.521569 0.6 0.8 
0.521569 0.6 0.8 0.521569 0.6 0.8 
0.521569 0.6 0.8 0.521569 0.6 0.8 
0.521569 0.6 0.8 0.521569 0.6 0.8 
0.521569 0.6 0.8 0.521569 0.6 0.8 
0.521569 0.6 0.8 0.521569 0.6 0.8 
0.521569 0.6 0.8 0.521569 0.6 0.8 
0.521569 0.6 0.8 0.521569 0.6 0.8 
0.521569 0.6 0.8 0.521569 0.6 0.8 
0.521569 0.6 0.8 0.521569 0.6 0.8 
0.521569 0.6 0.8 0.521569 0.6 0.8 
0.521569 0.6 0.8 0.521569 0.6 0.8 
0.521569 0.6 0.8 0.521569 0.6 0.8 
0.521569 0.6 0.8 0.521569 0.6 0.8 
0.521569 0.6 0.8 0.521569 0.6 0.8 
0.521569 0.6 0.8 0.521569 0.6 0.8 
0.521569 0.6 0.8 0.521569 0.6 0.8 
0.521569 0.6 0.8 0.521569 0.6 0.8 
0.521569 0.6 0.8 0.521569 0.6 0.8 
0.521569 0.6 0.8 0.521569 0.6 0.8 
0.521569 0.6 0.8 0.521569 0.6 0.8 
0.521569 0.6 0.8 0.521569 0.6 0.8 
0.521569 0.6 0.8 0.521569 0.6 0.8 
0.521569 0.6 0.8 0.521569 0.6 0.8 
0.521569 0.6 0.8 0.521569 0.6 0.8 
0.521569 0.6 0.8 0.521569 0.6 0.8 
0.521569 0.6 0.8 0.521569 0.6 0.8 
0.521569 0.6 0.8 0.521569 0.6 0.8 
0.521569 0.6 0.8 0.521569 0.6 0.8 
0.521569 0.6 0.8 0.521569 0.6 0.8 
0.521569 0.6 0.8 0.521569 0.6 0.8 
0.521569 0.6 0.8 0.521569 0.6 0.8 
0.521569 0.6 0.8 0.521569 0.6 0.8 
0.521569 0.6 0.8 0.521569 0.6 0.8 
0.521569 0.6 0.8 0.521569 0.6 0.8 
0.521569 0.6 0.8 0.521569 0.6 0.8 
0.521569 0.6 0.8 0.521569 0.6 0.8 
0.521569 0.6 0.8 0.521569 0.6 0.8 
0.521569 0.6 0.8 0.521569 0.6 0.8 
0.521569 0.6 0.8 0.521569 0.6 0.8 
0.521569 0.6 0.8 0.521569 0.6 0.8 
0.521569 0.6 0.8 0.521569 0.6 0.8 
0.521569 0.6 0.8 0.521569 0.6 0.8 
0.521569 0.6 0.8 0.521569 0.6 0.8 
0.521569 0.6 0.8 0.521569 0.6 0.8 
0.521569 0.6 0.8 0.521569 0.6 0.8 
0.521569 0.6 0.8 0.521569 0.6 0.8 
0.521569 0.6 0.8 0.521569 0.6 0.8 
0.521569 0.6 0.8 0.521569 0.6 0.8 
0.521569 0.6 0.8 0.521569 0.6 0.8 
0.521569 0.6 0.8 0.521569 0.6 0.8 
0.521569 0.6 0.8 0.521569 0.6 0.8 
0.521569 0.6 0.8 0.521569 0.6 0.8 
0.521569 0.6 0.8 0.521569 0.6 0.8 
0.521569 0.6 0.8 0.521569 0.6 0.8 
0.521569 0.6 0.8 0.521569 0.6 0.8 
0.521569 0.6 0.8 0.521569 0.6 0.8 
0.521569 0.6 0.8 0.521569 0.6 0.8 
0.521569 0.6 0.8 0.521569 0.6 0.8 
0.521569 0.6 0.8 0.521569 0.6 0.8 
0.521569 0.6 0.8 0.521569 0.6 0.8 
0.521569 0.6 0.8 0.521569 0.6 0.8 
0.521569 0.6 0.8 0.521569 0.6 0.8 
0.521569 0.6 0.8 0.521569 0.6 0.8 
0.521569 0.6 0.8 0.521569 0.6 0.8 
0.521569 0.6 0.8 0.521569 0.6 0.8 
0.521569 0.6 0.8 0.521569 0.6 0.8 
0.521569 0.6 0.8 0.521569 0.6 0.8 
0.521569 0.6 0.8 0.521569 0.6 0.8 
0.521569 0.6 0.8 0.521569 0.6 0.8 
0.521569 0.6 0.8 0.521569 0.6 0.8 
0.521569 0.6 0.8 0.521569 0.6 0.8 
0.521569 0.6 0.8 0.521569 0.6 0.8 
0.521569 0.6 0.8 0.521569 0.6 0.8 
0.521569 0.6 0.8 0.521569 0.6 0.8 
0.521569 0.6 0.8 0.521569 0.6 0.8 
0.521569 0.6 0.8 0.521569 0.6 0.8 
0.521569 0.6 0.8 0.521569 0.6 0.8 
0.521569 0.6 0.8 0.521569 0.6 0.8 
0.521569 0.6 0.8 0.521569 0.6 0.8 
0.521569 0.6 0.8 0.521569 0.6 0.8 
0.521569 0.6 0.8 0.521569 0.6 0.8 
0.521569 0.6 0.8 0.521569 0.6 0.8 
0.521569 0.6 0.8 0.521569 0.6 0.8 
0.521569 0.6 0.8 0.521569 0.6 0.8 
0.521569 0.6 0.8 0.521569 0.6 0.8 
0.521569 0.6 0.8 0.521569 0.6 0.8 
0.521569 0.6 0.8 0.521569 0.6 0.8 
0.521569 0.6 0.8 0.521569 0.6 0.8 
0.521569 0.6 0.8 0.521569 0.6 0.8 
0.521569 0.6 0.8 0.521569 0.6 0.8 
0.521569 0.6 0.8 0.521569 0.6 0.8 
0.521569 0.6 0.8 0.521569 0.6 0.8 
0.521569 0.6 0.8 0.521569 0.6 0.8 
0.521569 0.6 0.8 0.521569 0.6 0.8 
0.521569 0.6 0.8 0.521569 0.6 0.8 
0.521569 0.6 0.8 0.521569 0.6 0.8 
0.521569 0.6 0.8 0.521569 0.6 0.8 
0.521569 0.6 0.8 0.521569 0.6 0.8 
0.521569 0.6 0.8 0.521569 0.6 0.8 
0.521569 0.6 0.8 0.521569 0.6 0.8 
0.521569 0.6 0.8 0.521569 0.6 0.8 
0.521569 0.6 0.8 0.521569 0.6 0.8 
0.521569 0.6 0.8 0.521569 0.6 0.8 