# vtk DataFile Version 4.2
vtk output
ASCII
DATASET POLYDATA
POINTS 2529 float
279.541 174.324 100.808 281.186 174.926 100.584 280.734 174.473 100.907 
281.666 175.065 100.601 281.632 174.897 100.769 281.904 175.128 100.702 
282.136 175.335 100.756 278.877 175.817 100.293 280.466 175.975 100.158 
282.137 175.956 100.404 282.365 175.621 100.707 282.51 176.002 100.597 
282.563 175.869 100.784 281.597 176.54 100.149 282.137 176.536 100.282 
282.732 176.178 100.772 282.806 176.54 100.7 282.862 176.482 100.922 
282.026 177.907 100.184 282.903 177.794 100.618 283.134 177.787 100.989 
283.117 178.364 100.869 279.293 179.642 100.204 283.127 179.085 100.985 
282.997 179.643 100.953 277.164 172.482 101.721 277.922 172.561 101.918 
278.081 173.808 100.935 279.774 173.858 101.395 282.306 175.565 100.982 
282.951 177.278 101.823 283.195 178.017 101.759 283.259 178.1 101.386 
283.273 179.406 101.419 282.969 180.878 101.625 283.131 180.288 101.462 
277.982 182.476 101.085 276.669 171.791 102.197 277.153 172.072 102.182 
277.71 172.319 102.31 274.611 172.638 102.121 278.473 172.873 101.903 
280.844 174.428 101.846 283.297 178.557 101.67 282.027 183.056 101.669 
282.371 183.428 102.094 281.819 184.201 102.02 279.519 185.315 101.861 
273.722 169.817 103.954 274.334 170.021 103.825 274.771 171.019 102.987 
275.738 170.853 103.622 276.706 171.759 102.325 276.444 171.545 102.843 
277.941 172.479 102.69 272.229 172.803 103.119 283.057 179.221 102.882 
283.115 180.825 103.094 282.734 183.315 102.546 282.782 184.212 102.977 
282.978 184.699 103.557 276.469 187.638 103.202 279.567 188.051 102.772 
281.013 188.888 103.166 283.504 194.004 103.017 283.504 194.004 103.018 
283.504 194.004 103.017 283.505 194.004 103.017 283.505 194.004 103.017 
283.505 194.004 103.018 283.504 194.004 103.017 283.505 194.005 103.018 
272.757 168.448 104.985 272.349 168.504 104.979 273.243 168.756 104.711 
273.031 168.516 104.947 273.333 168.681 104.879 272.233 169.085 104.569 
273.318 169.164 104.431 273.544 168.961 104.678 274.806 169.957 104.189 
271.67 169.899 104.335 275.077 170.141 104.279 275.461 170.532 104.223 
282.284 178.905 104.054 282.702 179.39 103.691 283.118 184.212 104.049 
282.841 188.089 104.016 283.057 187.592 104.308 281.747 189.025 103.431 
282.064 190.307 103.856 282.977 189.951 104.403 282.829 190.264 104.273 
282.984 190.3 104.49 281.879 190.791 104.026 282.305 190.636 104.076 
282.876 190.547 104.441 281.005 191.374 104.254 282.547 190.973 104.5 
282.772 190.78 104.538 279.131 192.733 105.255 283.504 194.004 103.018 
283.505 194.004 103.018 280.606 192.411 105.207 281.183 192.282 105.384 
271.967 167.983 105.576 271.281 167.678 105.877 271.125 168.092 105.521 
272.677 168.271 105.369 270.874 168.275 105.478 273.595 168.869 105.037 
283.031 183.055 104.56 283.173 185.115 105.249 273.384 185.621 104.064 
283.192 187.117 104.679 283.167 189.581 105.044 275.561 191.629 105.381 
277.541 192.93 105.578 281.719 192.155 106.059 271.046 167.229 106.288 
270.969 167.07 106.422 271.079 167.116 106.414 270.274 167.268 106.508 
271.322 167.315 106.459 272.727 168.195 105.894 275.989 171.917 105.842 
282.711 183.117 105.556 282.894 184.455 105.884 283.215 185.713 105.235 
275.872 192.615 105.868 276.34 193.538 106.366 278.888 193.879 106.734 
279.742 193.543 106.729 268.483 166.981 107.401 270.533 166.837 107.155 
268.316 167.667 107.137 271.584 167.451 107.409 273.197 168.68 106.395 
267.952 168.569 106.987 282.146 184.173 107.187 269.837 185.877 106.2 
282.904 189.719 106.613 277.525 194.379 107.04 276.405 195.349 108.082 
269.104 165.716 108.072 268.778 165.824 108.173 269.226 165.706 108.118 
268.079 165.702 108.674 269.8 166.068 108.249 273.306 169.288 107.366 
266.469 185.856 107.868 276.969 195.989 108.937 266.961 164.503 110.166 
266.866 164.725 109.929 267.637 164.787 109.892 267.142 165.036 109.572 
266.56 165.119 109.729 267.756 165.176 109.39 268.108 165.054 109.856 
268.777 165.578 108.958 277.785 196.169 109.646 266.95 164.312 110.537 
267.324 164.402 110.513 281.572 191.068 109.684 274.07 196.914 110.368 
276.468 197.058 110.413 276.709 197.23 110.85 265.57 163.471 111.801 
265.21 163.459 111.76 264.944 163.648 111.615 261.156 182.072 110.548 
281.035 186.897 110.525 281.734 189.126 109.78 279.189 195.513 111.197 
277.158 197.148 111.09 277.734 196.94 111.46 264.953 163.122 112.149 
264.879 162.978 112.295 264.985 163.005 112.285 265.213 163.157 112.321 
263.744 163.369 112.503 266.4 163.811 112.495 267.37 164.463 111.932 
263.203 162.457 113.634 264.439 162.828 113.025 267.528 165.057 112.918 
261.29 166.163 112.777 259.921 193.49 113.126 279.4 195.703 113.074 
262.952 162.332 113.915 262.404 162.386 114.215 261.002 163.747 114.075 
267.679 165.732 113.584 269.482 169.563 114.021 259.171 192.259 113.202 
266.668 199.16 113.988 268.435 199.859 114.32 269.982 199.97 114.429 
261.929 161.766 115.116 261.754 161.798 115.208 261.391 161.802 115.447 
262.618 162.003 114.893 280.124 191.51 114.552 257.365 195.641 114.859 
279.808 195.403 115.404 264.059 198.597 114.099 277.557 197.76 114.15 
278.682 197.081 115.151 274.047 199.662 115.14 270.219 200.921 115.761 
261.157 161.575 115.867 261.872 161.716 115.267 261.228 161.569 115.931 
260.367 162.069 115.922 261.745 161.705 115.627 264.868 163.41 115.523 
261.533 200.589 115.773 262.013 201.087 116.157 259.232 161.085 117.844 
260.849 161.605 116.45 278.286 189.408 116.652 279.138 190.187 116.095 
279.961 195.522 117.052 279.237 196.673 116.402 278.109 197.68 116.534 
276.763 198.558 117.297 272.692 200.683 117.04 261.984 201.715 116.763 
270.512 201.339 116.755 270.84 201.345 117.087 258.935 160.829 118.253 
258.838 160.97 118.16 258.971 160.832 118.355 259.424 161.017 118.235 
257.695 161.494 118.288 261.161 161.582 117.432 262.062 162.075 117.822 
273.959 187.091 118.135 277.389 190.098 117.958 279.888 195.472 117.975 
271.317 201.273 118.063 262.138 202.807 118.061 267.243 201.979 118.178 
258.845 204.092 118.743 257.334 160.511 119.793 257.22 160.662 119.506 
258.555 160.848 118.798 261.897 162.459 118.835 255.16 164.223 118.74 
279.892 194.202 118.15 278.321 197.423 118.551 277.125 198.127 118.782 
261.668 203.226 118.485 251.747 204.328 119.376 256.693 204.429 118.789 
262.121 203.802 119.758 257.445 160.399 120.223 257.896 160.458 120.116 
258.484 160.665 119.999 279.411 193.819 118.756 279.385 195.973 119.07 
277.112 197.779 119.645 273.188 200.114 119.55 268.449 201.819 119.779 
258.403 205.566 120.28 252.372 206.65 120.486 254.045 206.88 120.632 
255.683 206.963 120.946 257.327 160.337 121.32 255.691 160.98 120.342 
258.061 160.562 120.96 254.33 161.519 120.973 275.145 193.934 121.17 
279.179 194.946 119.473 278.804 195.923 119.973 278.451 196.254 120.194 
277.156 197.335 120.345 275.07 198.6 120.361 271.711 200.817 119.654 
268.54 201.646 120.647 248.29 203.507 120.842 259.098 205.667 120.926 
257.831 160.817 122.284 271.101 192.447 122.009 276.175 195.213 121.274 
278.13 195.408 120.654 276.881 196.76 120.929 276.167 197.225 120.931 
274.818 198.405 120.705 274.752 197.938 121.04 270.935 200.273 121.284 
260.911 204.994 121.67 254.222 159.963 123.143 254.866 159.957 122.951 
256.594 160.285 122.952 256.451 160.352 123.353 266.177 183.62 122.976 
266.039 187.321 124.272 266.094 188.133 124.291 267.378 190.019 123.851 
245.821 190.478 122.074 267.76 190.976 123.783 268.186 191.446 123.474 
267.944 191.48 123.633 268.099 191.785 123.613 268.361 192.22 123.699 
268.718 192.745 123.671 278.277 195.718 120.596 270.406 196.958 123.223 
275.619 196.212 121.418 271.658 197.503 122.441 274.589 197.156 121.435 
270.974 199.064 122.297 261.906 204.564 123.228 248.22 209.49 123.622 
253.81 209.641 123.795 253.187 159.661 124.083 253.233 159.653 124.177 
255.403 159.965 123.43 257.403 161.118 123.385 250.947 161.68 123.931 
258.436 163.136 124.065 265.553 185.273 124.192 265.818 187.8 124.841 
265.416 187.965 124.875 265.556 188.177 124.846 265.977 188.463 124.841 
265.986 188.235 125.192 265.523 188.226 124.824 266.593 189.192 124.388 
267.913 191.631 123.638 267.864 191.632 123.652 267.862 191.533 123.737 
267.932 191.707 123.687 268.031 191.849 123.867 267.912 191.687 123.636 
268.704 195.092 124.461 268.677 195.115 124.485 268.672 195.096 124.493 
268.693 195.057 124.519 268.575 194.063 124.736 268.72 195.154 124.478 
268.836 195.074 124.412 268.773 195.369 124.536 268.64 194.904 124.73 
268.931 196.159 124.537 269.3 196.56 124.123 268.814 196.773 124.792 
270.386 198.498 122.914 268.211 200.175 123.692 246.843 208.892 123.771 
255.528 208.809 123.699 249.642 210.793 124.491 251.259 159.646 125.527 
252.839 159.722 124.7 254.01 159.797 124.438 251.18 160.466 124.705 
265.067 186.328 125.302 265.427 187.078 125.319 264.251 187.751 125.687 
264.242 187.714 125.717 265.326 188.07 124.932 266.244 188.738 125.376 
264.287 187.792 125.683 267.15 190.423 125.458 267.87 191.646 123.663 
268.678 195.148 124.572 267.74 198.651 125.894 267.992 198.142 125.946 
261.773 204.453 124.936 250.948 159.607 125.84 251.406 159.389 126.297 
248.268 163.383 125.627 263.594 187.448 126.269 263.242 187.151 126.676 
263.583 187.452 126.322 263.804 187.622 126.094 263.174 187.541 126.637 
266.729 199.623 125.978 266.701 199.624 126.016 266.719 199.607 126.022 
266.786 199.588 126.025 266.698 199.674 125.995 266.815 199.687 125.875 
266.588 199.845 126.045 267.005 199.434 126.194 266.208 200.198 126.148 
265.431 200.695 126.194 261.878 204.108 125.7 256.219 208.917 125.729 
253.443 210.732 125.64 245.283 211.295 126.185 251.278 159.349 127.297 
257.982 168.139 127.108 263.025 185.783 126.826 262.318 185.991 127.561 
262.271 186.398 127.591 263.273 186.685 126.812 263.654 186.426 126.61 
264.169 186.519 126.332 262.821 187.102 126.951 263.298 187.212 126.911 
263.354 187.316 126.624 264.354 187.008 126.521 265.138 187.443 126.144 
263.338 187.44 126.613 262.889 187.465 127.131 262.406 187.552 127.224 
262.528 187.609 127.196 262.13 187.672 127.417 262.242 187.686 127.347 
[...]
POINT_DATA 2529
COLOR_SCALARS scalars 3
0.521569 0.6 0.8 0.521569 0.6 0.8 0.521569 0.6 0.8 
0.521569 0.6 0.8 0.521569 0.6 0.8 
0.521569 0.6 0.8 0.521569 0.6 0.8 
0.521569 0.6 0.8 0.521569 0.6 0.8 
0.521569 0.6 0.8 0.521569 0.6 0.8 
0.521569 0.6 0.8 0.521569 0.6 0.8 
0.521569 0.6 0.8 0.521569 0.6 0.8 
0.521569 0.6 0.8 0.521569 0.6 0.8 
0.521569 0.6 0.8 0.521569 0.6 0.8 
0.521569 0.6 0.8 0.521569 0.6 0.8 
0.521569 0.6 0.8 0.521569 0.6 0.8 
0.521569 0.6 0.8 0.521569 0.6 0.8 
0.521569 0.6 0.8 0.521569 0.6 0.8 
0.521569 0.6 0.8 0.521569 0.6 0.8 
0.521569 0.6 0.8 0.521569 0.6 0.8 
0.521569 0.6 0.8 0.521569 0.6 0.8 
0.521569 0.6 0.8 0.521569 0.6 0.8 
0.521569 0.6 0.8 0.521569 0.6 0.8 
0.521569 0.6 0.8 0.521569 0.6 0.8 
0.521569 0.6 0.8 0.521569 0.6 0.8 
0.521569 0.6 0.8 0.521569 0.6 0.8 
0.521569 0.6 0.8 0.521569 0.6 0.8 
0.521569 0.6 0.8 0.521569 0.6 0.8 
0.521569 0.6 0.8 0.521569 0.6 0.8 
0.521569 0.6 0.8 0.521569 0.6 0.8 
0.521569 0.6 0.8 0.521569 0.6 0.8 
0.521569 0.6 0.8 0.521569 0.6 0.8 
0.521569 0.6 0.8 0.521569 0.6 0.8 
0.521569 0.6 0.8 0.521569 0.6 0.8 
0.521569 0.6 0.8 0.521569 0.6 0.8 
0.521569 0.6 0.8 0.521569 0.6 0.8 
0.521569 0.6 0.8 0.521569 0.6 0.8 
0.521569 0.6 0.8 0.521569 0.6 0.8 
0.521569 0.6 0.8 0.521569 0.6 0.8 
0.521569 0.6 0.8 0.521569 0.6 0.8 
0.521569 0.6 0.8 0.521569 0.6 0.8 
0.521569 0.6 0.8 0.521569 0.6 0.8 
0.521569 0.6 0.8 0.521569 0.6 0.8 
0.521569 0.6 0.8 0.521569 0.6 0.8 
0.521569 0.6 0.8 0.521569 0.6 0.8 
0.521569 0.6 0.8 0.521569 0.6 0.8 
0.521569 0.6 0.8 0.521569 0.6 0.8 
0.521569 0.6 0.8 0.521569 0.6 0.8 
0.521569 0.6 0.8 0.521569 0.6 0.8 
0.521569 0.6 0.8 0.521569 0.6 0.8 
0.521569 0.6 0.8 0.521569 0.6 0.8 
0.521569 0.6 0.8 0.521569 0.6 0.8 
0.521569 0.6 0.8 0.521569 0.6 0.8 
0.521569 0.6 0.8 0.521569 0.6 0.8 
0.521569 0.6 0.8 0.521569 0.6 0.8 
0.521569 0.6 0.8 0.521569 0.6 0.8 
0.521569 0.6 0.8 0.521569 0.6 0.8 
0.521569 0.6 0.8 0.521569 0.6 0.8 
0.521569 0.6 0.8 0.521569 0.6 0.8 
0.521569 0.6 0.8 0.521569 0.6 0.8 
0.521569 0.6 0.8 0.521569 0.6 0.8 
0.521569 0.6 0.8 0.521569 0.6 0.8 
0.521569 0.6 0.8 0.521569 0.6 0.8 
0.521569 0.6 0.8 0.521569 0.6 0.8 
0.521569 0.6 0.8 0.521569 0.6 0.8 
0.521569 0.6 0.8 0.521569 0.6 0.8 
0.521569 0.6 0.8 0.521569 0.6 0.8 
0.521569 0.6 0.8 0.521569 0.6 0.8 
0.521569 0.6 0.8 0.521569 0.6 0.8 
0.521569 0.6 0.8 0.521569 0.6 0.8 
0.521569 0.6 0.8 0.521569 0.6 0.8 
0.521569 0.6 0.8 0.521569 0.6 0.8 
0.521569 0.6 0.8 0.521569 0.6 0.8 
0.521569 0.6 0.8 0.521569 0.6 0.8 
0.521569 0.6 0.8 0.521569 0.6 0.8 
0.521569 0.6 0.8 0.521569 0.6 0.8 
0.521569 0.6 0.8 0.521569 0.6 0.8 
0.521569 0.6 0.8 0.521569 0.6 0.8 
0.521569 0.6 0.8 0.521569 0.6 0.8 
0.521569 0.6 0.8 0.521569 0.6 0.8 
0.521569 0.6 0.8 0.521569 0.6 0.8 
0.521569 0.6 0.8 0.521569 0.6 0.8 
0.521569 0.6 0.8 0.521569 0.6 0.8 
0.521569 0.6 0.8 0.521569 0.6 0.8 
0.521569 0.6 0.8 0.521569 0.6 0.8 
0.521569 0.6 0.8 0.521569 0.6 0.8 
0.521569 0.6 0.8 0.521569 0.6 0.8 
0.521569 0.6 0.8 0.521569 0.6 0.8 
0.521569 0.6 0.8 0.521569 0.6 0.8 
0.521569 0.6 0.8 0.521569 0.6 0.8 
0.521569 0.6 0.8 0.521569 0.6 0.8 
0.521569 0.6 0.8 0.521569 0.6 0.8 
0.521569 0.6 0.8 0.521569 0.6 0.8 
0.521569 0.6 0.8 0.521569 0.6 0.8 
0.521569 0.6 0.8 0.521569 0.6 0.8 
0.521569 0.6 0.8 0.521569 0.6 0.8 
0.521569 0.6 0.8 0.521569 0.6 0.8 
0.521569 0.6 0.8 0.521569 0.6 0.8 
0.521569 0.6 0.8 0.521569 0.6 0.8 
0.521569 0.6 0.8 0.521569 0.6 0.8 
0.521569 0.6 0.8 0.521569 0.6 0.8 
0.521569 0.6 0.8 0.521569 0.6 0.8 
0.521569 0.6 0.8 0.521569 0.6 0.8 
0.521569 0.6 0.8 0.521569 0.6 0.8 
0.521569 0.6 0.8 0.521569 0.6 0.8 
0.521569 0.6 0.8 0.521569 0.6 0.8 
0.521569 0.6 0.8 0.521569 0.6 0.8 
0.521569 0.6 0.8 0.521569 0.6 0.8 
0.521569 0.6 0.8 0.521569 0.6 0.8 
0.521569 0.6 0.8 0.521569 0.6 0.8 
0.521569 0.6 0.8 0.521569 0.6 0.8 
0.521569 0.6 0.8 0.521569 0.6 0.8 
0.521569 0.6 0.8 0.521569 0.6 0.8 
0.521569 0.6 0.8 0.521569 0.6 0.8 
0.521569 0.6 0.8 0.521569 0.6 0.8 
0.521569 0.6 0.8 0.521569 0.6 0.8 
0.521569 0.6 0.8 0.521569 0.6 0.8 
0.521569 0.6 0.8 0.521569 0.6 0.8 
0.521569 0.6 0.8 0.521569 0.6 0.8 
0.521569 0.6 0.8 0.521569 0.6 0.8 
0.521569 0.6 0.8 0.521569 0.6 0.8 
0.521569 0.6 0.8 0.521569 0.6 0.8 
0.521569 0.6 0.8 0.521569 0.6 0.8 
0.521569 0.6 0.8 0.521569 0.6 0.8 
0.521569 0.6 0.8 0.521569 0.6 0.8 
0.521569 0.6 0.8 0.521569 0.6 0.8 
0.521569 0.6 0.8 0.521569 0.6 0.8 
0.521569 0.6 0.8 0.521569 0.6 0.8 
0.521569 0.6 0.8 0.521569 0.6 0.8 
0.521569 0.6 0.8 0.521569 0.6 0.8 
0.521569 0.6 0.8 0.521569 0.6 0.8 
0.521569 0.6 0.8 0.521569 0.6 0.8 
0.521569 0.6 0.8 0.521569 0.6 0.8 
0.521569 0.6 0.8 0.521569 0.6 0.8 
0.521569 0.6 0.8 0.521569 0.6 0.8 
0.521569 0.6 0.8 0.521569 0.6 0.8 
0.521569 0.6 0.8 0.521569 0.6 0.8 
0.521569 0.6 0.8 0.521569 0.6 0.8 
0.521569 0.6 0.8 0.521569 0.6 0.8 
0.521569 0.6 0.8 0.521569 0.6 0.8 
0.521569 0.6 0.8 0.521569 0.6 0.8 
0.521569 0.6 0.8 0.521569 0.6 0.8 
0.521569 0.6 0.8 0.521569 0.6 0.8 
0.521569 0.6 0.8 0.521569 0.6 0.8 
0.521569 0.6 0.8 0.521569 0.6 0.8 
0.521569 0.6 0.8 0.521569 0.6 0.8 
0.521569 0.6 0.8 0.521569 0.6 0.8 
0.521569 0.6 0.8 0.521569 0.6 0.8 
0.521569 0.6 0.8 0.521569 0.6 0.8 
0.521569 0.6 0.8 0.521569 0.6 0.8 
0.521569 0.6 0.8 0.521569 0.6 0.8 
0.521569 0.6 0.8 0.521569 0.6 0.8 
0.521569 0.6 0.8 0.521569 0.6 0.8 
0.521569 0.6 0.8 0.521569 0.6 0.8 
0.521569 0.6 0.8 0.521569 0.6 0.8 
0.521569 0.6 0.8 0.521569 0.6 0.8 
0.521569 0.6 0.8 0.521569 0.6 0.8 
0.521569 0.6 0.8 0.521569 0.6 0.8 
0.521569 0.6 0.8 0.521569 0.6 0.8 
0.521569 0.6 0.8 0.521569 0.6 0.8 
0.521569 0.6 0.8 0.521569 0.6 0.8 
0.521569 0.6 0.8 0.521569 0.6 0.8 
0.521569 0.6 0.8 0.521569 0.6 0.8 
0.521569 0.6 0.8 0.521569 0.6 0.8 
0.521569 0.6 0.8 0.521569 0.6 0.8 
0.521569 0.6 0.8 0.521569 0.6 0.8 
0.521569 0.6 0.8 0.521569 0.6 0.8 
0.521569 0.6 0.8 0.521569 0.6 0.8 
0.521569 0.6 0.8 0.521569 0.6 0.8 
0.521569 0.6 0.8 0.521569 0.6 0.8 
0.521569 0.6 0.8 0.521569 0.6 0.8 
0.521569 0.6 0.8 0.521569 0.6 0.8 
0.521569 0.6 0.8 0.521569 0.6 0.8 
0.521569 0.6 0.8 0.521569 0.6 0.8 
0.521569 0.6 0.8 0.521569 0.6 0.8 
0.521569 0.6 0.8 0.521569 0.6 0.8 
0.521569 0.6 0.8 0.521569 0.6 0.8 
0.521569 0.6 0.8 0.521569 0.6 0.8 
0.521569 0.6 0.8 0.521569 0.6 0.8 
0.521569 0.6 0.8 0.521569 0.6 0.8 
0.521569 0.6 0.8 0.521569 0.6 0.8 
0.521569 0.6 0.8 0.521569 0.6 0.8 
0.521569 0.6 0.8 0.521569 0.6 0.8 
0.521569 0.6 0.8 0.521569 0.6 0.8 
0.521569 0.6 0.8 0.521569 0.6 0.8 
0.521569 0.6 0.8 0.521569 0.6 0.8 
0.521569 0.6 0.8 0.521569 0.6 0.8 
0.521569 0.6 0.8 0.521569 0.6 0.8 
0.521569 0.6 0.8 0.521569 0.6 0.8 
0.521569 0.6 0.8 0.521569 0.6 0.8 
0.521569 0.6 0.8 0.521569 0.6 0.8 
0.521569 0.6 0.8 0.521569 0.6 0.8 
0.521569 0.6 0.8 0.521569 0.6 0.8 
0.521569 0.6 0.8 0.521569 0.6 0.8 
0.521569 0.6 0.8 0.521569 0.6 0.8 
0.521569 0.6 0.8 0.521569 0.6 0.8 
0.521569 0.6 0.8 0.521569 0.6 0.8 
0.521569 0.6 0.8 0.521569 0.6 0.8 
0.521569 0.6 0.8 0.521569 0.6 0.8 
0.521569 0.6 0.8 0.521569 0.6 0.8 
0.521569 0.6 0.8 0.521569 0.6 0.8 
0.521569 0.6 0.8 0.521569 0.6 0.8 
0.521569 0.6 0.8 0.521569 0.6 0.8 
0.521569 0.6 0.8 0.521569 0.6 0.8 
0.521569 0.6 0.8 0.521569 0.6 0.8 
0.521569 0.6 0.8 0.521569 0.6 0.8 
0.521569 0.6 0.8 0.521569 0.6 0.8 
0.521569 0.6 0.8 0.521569 0.6 0.8 
0.521569 0.6 0.8 0.521569 0.6 0.8 
0.521569 0.6 0.8 0.521569 0.6 0.8 
0.521569 0.6 0.8 0.521569 0.6 0.8 
0.521569 0.6 0.8 0.521569 0.6 0.8 
0.521569 0.6 0.8 0.521569 0.6 0.8 
0.521569 0.6 0.8 0.521569 0.6 0.8 
0.521569 0.6 0.8 0.521569 0.6 0.8 
0.521569 0.6 0.8 0.521569 0.6 0.8 
0.521569 0.6 0.8 0.521569 0.6 0.8 
0.521569 0.6 0.8 0.521569 0.6 0.8 
0.521569 0.6 0.8 0.521569 0.6 0.8 
0.521569 0.6 0.8 0.521569 0.6 0.8 
0.521569 0.6 0.8 0.521569 0.6 0.8 
0.521569 0.6 0.8 0.521569 0.6 0.8 
0.521569 0.6 0.8 0.521569 0.6 0.8 
0.521569 0.6 0.8 0.521569 0.6 0.8 
0.521569 0.6 0.8 0.521569 0.6 0.8 
0.521569 0.6 0.8 0.521569 0.6 0.8 
0.521569 0.6 0.8 0.521569 0.6 0.8 
0.521569 0.6 0.8 0.521569 0.6 0.8 
0.521569 0.6 0.8 0.521569 0.6 0.8 
0.521569 0.6 0.8 0.521569 0.6 0.8 
0.521569 0.6 0.8 0.521569 0.6 0.8 
0.521569 0.6 0.8 0.521569 0.6 0.8 
0.521569 0.6 0.8 0.521569 0.6 0.8 
0.521569 0.6 0.8 0.521569 0.6 0.8 
0.521569 0.6 0.8 0.521569 0.6 0.8 
0.521569 0.6 0.8 0.521569 0.6 0.8 
0.521569 0.6 0.8 0.521569 0.6 0.8 
0.521569 0.6 0.8 0.521569 0.6 0.8 
0.521569 0.6 0.8 0.521569 0.6 0.8 
0.521569 0.6 0.8 0.521569 0.6 0.8 
0.521569 0.6 0.8 0.521569 0.6 0.8 
0.521569 0.6 0.8 0.521569 0.6 0.8 
0.521569 0.6 0.8 0.521569 0.6 0.8 
0.521569 0.6 0.8 0.521569 0.6 0.8 
0.521569 0.6 0.8 0.521569 0.6 0.8 
0.521569 0.6 0.8 0.521569 0.6 0.8 
0.521569 0.6 0.8 0.521569 0.6 0.8 
0.521569 0.6 0.8 0.521569 0.6 0.8 
0.521569 0.6 0.8 0.521569 0.6 0.8 
0.521569 0.6 0.8 0.521569 0.6 0.8 
0.521569 0.6 0.8 0.521569 0.6 0.8 
0.521569 0.6 0.8 0.521569 0.6 0.8 
0.521569 0.6 0.8 0.521569 0.6 0.8 
0.521569 0.6 0.8 0.521569 0.6 0.8 
0.521569 0.6 0.8 0.521569 0.6 0.8 
0.521569 0.6 0.8 0.521569 0.6 0.8 
0.521569 0.6 0.8 0.521569 0.6 0.8 
0.521569 0.6 0.8 0.521569 0.6 0.8 
0.521569 0.6 0.8 0.521569 0.6 0.8 
0.521569 0.6 0.8 0.521569 0.6 0.8 
0.521569 0.6 0.8 0.521569 0.6 0.8 
0.521569 0.6 0.8 0.521569 0.6 0.8 
0.521569 0.6 0.8 0.521569 0.6 0.8 
0.521569 0.6 0.8 0.521569 0.6 0.8 
0.521569 0.6 0.8 0.521569 0.6 0.8 
0.521569 0.6 0.8 0.521569 0.6 0.8 
0.521569 0.6 0.8 0.521569 0.6 0.8 
0.521569 0.6 0.8 0.521569 0.6 0.8 
0.521569 0.6 0.8 0.521569 0.6 0.8 
0.521569 0.6 0.8 0.521569 0.6 0.8 
0.521569 0.6 0.8 0.521569 0.6 0.8 
0.521569 0.6 0.8 0.521569 0.6 0.8 
0.521569 0.6 0.8 0.521569 0.6 0.8 
0.521569 0.6 0.8 0.521569 0.6 0.8 
0.521569 0.6 0.8 0.521569 0.6 0.8 
0.521569 0.6 0.8 0.521569 0.6 0.8 
0.521569 0.6 0.8 0.521569 0.6 0.8 
0.521569 0.6 0.8 0.521569 0.6 0.8 
0.521569 0.6 0.8 0.521569 0.6 0.8 
0.521569 0.6 0.8 0.521569 0.6 0.8 
0.521569 0.6 0.8 0.521569 0.6 0.8 
0.521569 0.6 0.8 0.521569 0.6 0.8 
0.521569 0.6 0.8 0.521569 0.6 0.8 
0.521569 0.6 0.8 0.521569 0.6 0.8 
0.521569 0.6 0.8 0.521569 0.6 0.8 
0.521569 0.6 0.8 0.521569 0.6 0.8 
0.521569 0.6 0.8 0.521569 0.6 0.8 
0.521569 0.6 0.8 0.521569 0.6 0.8 
0.521569 0.6 0.8 0.521569 0.6 0.8 
0.521569 0.6 0.8 0.521569 0.6 0.8 
0.521569 0.6 0.8 0.521569 0.6 0.8 
0.521569 0.6 0.8 0.521569 0.6 0.8 
0.521569 0.6 0.8 0.521569 0.6 0.8 
0.521569 0.6 0.8 0.521569 0.6 0.8 
0.521569 0.6 0.8 0.521569 0.6 0.8 
0.521569 0.6 0.8 0.521569 0.6 0.8 
0.521569 0.6 0.8 0.521569 0.6 0.8 
0.521569 0.6 0.8 0.521569 0.6 0.8 
0.521569 0.6 0.8 0.521569 0.6 0.8 
0.521569 0.6 0.8 0.521569 0.6 0.8 
0.521569 0.6 0.8 0.521569 0.6 0.8 
0.521569 0.6 0.8 0.521569 0.6 0.8 
0.521569 0.6 0.8 0.521569 0.6 0.8 
0.521569 0.6 0.8 0.521569 0.6 0.8 
0.521569 0.6 0.8 0.521569 0.6 0.8 
0.521569 0.6 0.8 0.521569 0.6 0.8 
0.521569 0.6 0.8 0.521569 0.6 0.8 
0.521569 0.6 0.8 0.521569 0.6 0.8 
0.521569 0.6 0.8 0.521569 0.6 0.8 
0.521569 0.6 0.8 0.521569 0.6 0.8 
0.521569 0.6 0.8 0.521569 0.6 0.8 
0.521569 0.6 0.8 0.521569 0.6 0.8 
0.521569 0.6 0.8 0.521569 0.6 0.8 
0.521569 0.6 0.8 0.521569 0.6 0.8 
0.521569 0.6 0.8 0.521569 0.6 0.8 
0.521569 0.6 0.8 0.521569 0.6 0.8 
0.521569 0.6 0.8 0.521569 0.6 0.8 
0.521569 0.6 0.8 0.521569 0.6 0.8 
0.521569 0.6 0.8 0.521569 0.6 0.8 
0.521569 0.6 0.8 0.521569 0.6 0.8 
0.521569 0.6 0.8 0.521569 0.6 0.8 
0.521569 0.6 0.8 0.521569 0.6 0.8 
0.521569 0.6 0.8 0.521569 0.6 0.8 
0.521569 0.6 0.8 0.521569 0.6 0.8 
0.521569 0.6 0.8 0.521569 0.6 0.8 
0.521569 0.6 0.8 0.521569 0.6 0.8 
0.521569 0.6 0.8 0.521569 0.6 0.8 
0.521569 0.6 0.8 0.521569 0.6 0.8 
0.521569 0.6 0.8 0.521569 0.6 0.8 
0.521569 0.6 0.8 0.521569 0.6 0.8 
0.521569 0.6 0.8 0.521569 0.6 0.8 
0.521569 0.6 0.8 0.521569 0.6 0.8 
0.521569 0.6 0.8 0.521569 0.6 0.8 
0.521569 0.6 0.8 0.521569 0.6 0.8 
0.521569 0.6 0.8 0.521569 0.6 0.8 
0.521569 0.6 0.8 0.521569 0.6 0.8 
0.521569 0.6 0.8 0.521569 0.6 0.8 
0.521569 0.6 0.8 0.521569 0.6 0.8 
0.521569 0.6 0.8 0.521569 0.6 0.8 
0.521569 0.6 0.8 0.521569 0.6 0.8 
0.521569 0.6 0.8 0.521569 0.6 0.8 
0.521569 0.6 0.8 0.521569 0.6 0.8 
0.521569 0.6 0.8 0.521569 0.6 0.8 
0.521569 0.6 0.8 0.521569 0.6 0.8 
0.521569 0.6 0.8 0.521569 0.6 0.8 
0.521569 0.6 0.8 0.521569 0.6 0.8 
0.521569 0.6 0.8 0.521569 0.6 0.8 
0.521569 0.6 0.8 0.521569 0.6 0.8 
0.521569 0.6 0.8 0.521569 0.6 0.8 
0.521569 0.6 0.8 0.521569 0.6 0.8 
0.521569 0.6 0.8 0.521569 0.6 0.8 
0.521569 0.6 0.8 0.521569 0.6 0.8 
0.521569 0.6 0.8 0.521569 0.6 0.8 
0.521569 0.6 0.8 0.521569 0.6 0.8 
0.521569 0.6 0.8 0.521569 0.6 0.8 
0.521569 0.6 0.8 0.521569 0.6 0.8 
0.521569 0.6 0.8 0.521569 0.6 0.8 
0.521569 0.6 0.8 0.521569 0.6 0.8 
0.521569 0.6 0.8 0.521569 0.6 0.8 
0.521569 0.6 0.8 0.521569 0.6 0.8 
0.521569 0.6 0.8 0.521569 0.6 0.8 
0.521569 0.6 0.8 0.521569 0.6 0.8 
0.521569 0.6 0.8 0.521569 0.6 0.8 
0.521569 0.6 0.8 0.521569 0.6 0.8 
0.521569 0.6 0.8 0.521569 0.6 0.8 
0.521569 0.6 0.8 0.521569 0.6 0.8 
0.521569 0.6 0.8 0.521569 0.6 0.8 
0.521569 0.6 0.8 0.521569 0.6 0.8 
0.521569 0.6 0.8 0.521569 0.6 0.8 
0.521569 0.6 0.8 0.521569 0.6 0.8 
0.521569 0.6 0.8 0.521569 0.6 0.8 
0.521569 0.6 0.8 0.521569 0.6 0.8 
0.521569 0.6 0.8 0.521569 0.6 0.8 
0.521569 0.6 0.8 0.521569 0.6 0.8 
0.521569 0.6 0.8 0.521569 0.6 0.8 
0.521569 0.6 0.8 0.521569 0.6 0.8 
0.521569 0.6 0.8 0.521569 0.6 0.8 
0.521569 0.6 0.8 0.521569 0.6 0.8 
0.521569 0.6 0.8 0.521569 0.6 0.8 
0.521569 0.6 0.8 0.521569 0.6 0.8 
0.521569 0.6 0.8 0.521569 0.6 0.8 
0.521569 0.6 0.8 0.521569 0.6 0.8 
0.521569 0.6 0.8 0.521569 0.6 0.8 
0.521569 0.6 0.8 0.521569 0.6 0.8 
0.521569 0.6 0.8 0.521569 0.6 0.8 
0.521569 0.6 0.8 0.521569 0.6 0.8 
0.521569 0.6 0.8 0.521569 0.6 0.8 
0.521569 0.6 0.8 0.521569 0.6 0.8 
0.521569 0.6 0.8 0.521569 0.6 0.8 
0.521569 0.6 0.8 0.521569 0.6 0.8 
0.521569 0.6 0.8 0.521569 0.6 0.8 
0.521569 0.6 0.8 0.521569 0.6 0.8 
0.521569 0.6 0.8 0.521569 0.6 0.8 
0.521569 0.6 0.8 0.521569 0.6 0.8 
0.521569 0.6 0.8 0.521569 0.6 0.8 
0.521569 0.6 0.8 0.521569 0.6 0.8 
0.521569 0.6 0.8 0.521569 0.6 0.8 
0.521569 0.6 0.8 0.521569 0.6 0.8 
0.521569 0.6 0.8 0.521569 0.6 0.8 
0.521569 0.6 0.8 0.521569 0.6 0.8 
0.521569 0.6 0.8 0.521569 0.6 0.8 
0.521569 0.6 0.8 0.521569 0.6 0.8 
0.521569 0.6 0.8 0.521569 0.6 0.8 
0.521569 0.6 0.8 0.521569 0.6 0.8 
0.521569 0.6 0.8 0.521569 0.6 0.8 
0.521569 0.6 0.8 0.521569 0.6 0.8 
0.521569 0.6 0.8 0.521569 0.6 0.8 
0.521569 0.6 0.8 0.521569 0.6 0.8 
0.521569 0.6 0.8 0.521569 0.6 0.8 
0.521569 0.6 0.8 0.521569 0.6 0.8 
0.521569 0.6 0.8 0.521569 0.6 0.8 
0.521569 0.6 0.8 0.521569 0.6 0.8 
0.521569 0.6 0.8 0.521569 0.6 0.8 
0.521569 0.6 0.8 0.521569 0.6 0.8 
0.521569 0.6 0.8 0.521569 0.6 0.8 
0.521569 0.6 0.8 0.521569 0.6 0.8 
0.521569 0.6 0.8 0.521569 0.6 0.8 
0.521569 0.6 0.8 0.521569 0.6 0.8 
0.521569 0.6 0.8 0.521569 0.6 0.8 
0.521569 0.6 0.8 0.521569 0.6 0.8 
0.521569 0.6 0.8 0.521569 0.6 0.8 
0.521569 0.6 0.8 0.521569 0.6 0.8 
0.521569 0.6 0.8 0.521569 0.6 0.8 
0.521569 0.6 0.8 0.521569 0.6 0.8 
0.521569 0.6 0.8 0.521569 0.6 0.8 
0.521569 0.6 0.8 0.521569 0.6 0.8 
0.521569 0.6 0.8 0.521569 0.6 0.8 
0.521569 0.6 0.8 0.521569 0.6 0.8 
0.521569 0.6 0.8 0.521569 0.6 0.8 
0.521569 0.6 0.8 0.521569 0.6 0.8 
0.521569 0.6 0.8 0.521569 0.6 0.8 
0.521569 0.6 0.8 0.521569 0.6 0.8 
0.521569 0.6 0.8 0.521569 0.6 0.8 
0.521569 0.6 0.8 0.521569 0.6 0.8 
0.521569 0.6 0.8 0.521569 0.6 0.8 
0.521569 0.6 0.8 0.521569 0.6 0.8 
0.521569 0.6 0.8 0.521569 0.6 0.8 
0.521569 0.6 0.8 0.521569 0.6 0.8 
0.521569 0.6 0.8 0.521569 0.6 0.8 
0.521569 0.6 0.8 0.521569 0.6 0.8 
0.521569 0.6 0.8 0.521569 0.6 0.8 
0.521569 0.6 0.8 0.521569 0.6 0.8 
0.521569 0.6 0.8 0.521569 0.6 0.8 
0.521569 0.6 0.8 0.521569 0.6 0.8 
0.521569 0.6 0.8 0.521569 0.6 0.8 
0.521569 0.6 0.8 0.521569 0.6 0.8 
0.521569 0.6 0.8 0.521569 0.6 0.8 
0.521569 0.6 0.8 0.521569 0.6 0.8 
0.521569 0.6 0.8 0.521569 0.6 0.8 
0.521569 0.6 0.8 0.521569 0.6 0.8 
0.521569 0.6 0.8 0.521569 0.6 0.8 
0.521569 0.6 0.8 0.521569 0.6 0.8 
0.521569 0.6 0.8 0.521569 0.6 0.8 
0.521569 0.6 0.8 0.521569 0.6 0.8 
0.521569 0.6 0.8 0.521569 0.6 0.8 
0.521569 0.6 0.8 0.521569 0.6 0.8 
0.521569 0.6 0.8 0.521569 0.6 0.8 
0.521569 0.6 0.8 0.521569 0.6 0.8 
0.521569 0.6 0.8 0.521569 0.6 0.8 
0.521569 0.6 0.8 0.521569 0.6 0.8 
0.521569 0.6 0.8 0.521569 0.6 0.8 
0.521569 0.6 0.8 0.521569 0.6 0.8 
0.521569 0.6 0.8 0.521569 0.6 0.8 
0.521569 0.6 0.8 0.521569 0.6 0.8 
0.521569 0.6 0.8 0.521569 0.6 0.8 
0.521569 0.6 0.8 0.521569 0.6 0.8 
0.521569 0.6 0.8 0.521569 0.6 0.8 
0.521569 0.6 0.8 0.521569 0.6 0.8 
0.521569 0.6 0.8 0.521569 0.6 0.8 
0.521569 0.6 0.8 0.521569 0.6 0.8 
0.521569 0.6 0.8 0.521569 0.6 0.8 
0.521569 0.6 0.8 0.521569 0.6 0.8 
0.521569 0.6 0.8 0.521569 0.6 0.8 
0.521569 0.6 0.8 0.521569 0.6 0.8 
0.521569 0.6 0.8 0.521569 0.6 0.8 
0.521569 0.6 0.8 0.521569 0.6 0.8 
0.521569 0.6 0.8 0.521569 0.6 0.8 
0.521569 0.6 0.8 0.521569 0.6 0.8 
0.521569 0.6 0.8 0.521569 0.6 0.8 
0.521569 0.6 0.8 0.521569 0.6 0.8 
0.521569 0.6 0.8 0.521569 0.6 0.8 
0.521569 0.6 0.8 0.521569 0.6 0.8 
0.521569 0.6 0.8 0.521569 0.6 0.8 
0.521569 0.6 0.8 0.521569 0.6 0.8 
0.521569 0.6 0.8 0.521569 0.6 0.8 
0.521569 0.6 0.8 0.521569 0.6 0.8 
0.521569 0.6 0.8 0.521569 0.6 0.8 
0.521569 0.6 0.8 0.521569 0.6 0.8 
0.521569 0.6 0.8 0.521569 0.6 0.8 
0.521569 0.6 0.8 0.521569 0.6 0.8 
0.521569 0.6 0.8 0.521569 0.6 0.8 
0.521569 0.6 0.8 0.521569 0.6 0.8 
0.521569 0.6 0.8 0.521569 0.6 0.8 
0.521569 0.6 0.8 0.521569 0.6 0.8 
0.521569 0.6 0.8 0.521569 0.6 0.8 
0.521569 0.6 0.8 0.521569 0.6 0.8 
0.521569 0.6 0.8 0.521569 0.6 0.8 
0.521569 0.6 0.8 0.521569 0.6 0.8 
0.521569 0.6 0.8 0.521569 0.6 0.8 
0.521569 0.6 0.8 0.521569 0.6 0.8 
0.521569 0.6 0.8 0.521569 0.6 0.8 
0.521569 0.6 0.8 0.521569 0.6 0.8 
0.521569 0.6 0.8 0.521569 0.6 0.8 
0.521569 0.6 0.8 0.521569 0.6 0.8 
0.521569 0.6 0.8 0.521569 0.6 0.8 
0.521569 0.6 0.8 0.521569 0.6 0.8 
0.521569 0.6 0.8 0.521569 0.6 0.8 
0.521569 0.6 0.8 0.521569 0.6 0.8 
0.521569 0.6 0.8 0.521569 0.6 0.8 
0.521569 0.6 0.8 0.521569 0.6 0.8 
0.521569 0.6 0.8 0.521569 0.6 0.8 
0.521569 0.6 0.8 0.521569 0.6 0.8 
0.521569 0.6 0.8 0.521569 0.6 0.8 
0.521569 0.6 0.8 0.521569 0.6 0.8 
0.521569 0.6 0.8 0.521569 0.6 0.8 
0.521569 0.6 0.8 0.521569 0.6 0.8 
0.521569 0.6 0.8 0.521569 0.6 0.8 
0.521569 0.6 0.8 0.521569 0.6 0.8 
0.521569 0.6 0.8 0.521569 0.6 0.8 
0.521569 0.6 0.8 0.521569 0.6 0.8 
0.521569 0.6 0.8 0.521569 0.6 0.8 
0.521569 0.6 0.8 0.521569 0.6 0.8 
0.521569 0.6 0.8 0.521569 0.6 0.8 
0.521569 0.6 0.8 0.521569 0.6 0.8 
0.521569 0.6 0.8 0.521569 0.6 0.8 
0.521569 0.6 0.8 0.521569 0.6 0.8 
0.521569 0.6 0.8 0.521569 0.6 0.8 
0.521569 0.6 0.8 0.521569 0.6 0.8 
0.521569 0.6 0.8 0.521569 0.6 0.8 
0.521569 0.6 0.8 0.521569 0.6 0.8 
0.521569 0.6 0.8 0.521569 0.6 0.8 
0.521569 0.6 0.8 0.521569 0.6 0.8 
0.521569 0.6 0.8 0.521569 0.6 0.8 
0.521569 0.6 0.8 0.521569 0.6 0.8 
0.521569 0.6 0.8 0.521569 0.6 0.8 
0.521569 0.6 0.8 0.521569 0.6 0.8 
0.521569 0.6 0.8 0.521569 0.6 0.8 
0.521569 0.6 0.8 0.521569 0.6 0.8 
0.521569 0.6 0.8 0.521569 0.6 0.8 
0.521569 0.6 0.8 0.521569 0.6 0.8 
0.521569 0.6 0.8 0.521569 0.6 0.8 
0.521569 0.6 0.8 0.521569 0.6 0.8 
0.521569 0.6 0.8 0.521569 0.6 0.8 
0.521569 0.6 0.8 0.521569 0.6 0.8 
0.521569 0.6 0.8 0.521569 0.6 0.8 
0.521569 0.6 0.8 0.521569 0.6 0.8 
0.521569 0.6 0.8 0.521569 0.6 0.8 
0.521569 0.6 0.8 0.521569 0.6 0.8 
0.521569 0.6 0.8 0.521569 0.6 0.8 
0.521569 0.6 0.8 0.521569 0.6 0.8 
0.521569 0.6 0.8 0.521569 0.6 0.8 
0.521569 0.6 0.8 0.521569 0.6 0.8 
0.521569 0.6 0.8 0.521569 0.6 0.8 
0.521569 0.6 0.8 0.521569 0.6 0.8 
0.521569 0.6 0.8 0.521569 0.6 0.8 
0.521569 0.6 0.8 0.521569 0.6 0.8 
0.521569 0.6 0.8 0.521569 0.6 0.8 
0.521569 0.6 0.8 0.521569 0.6 0.8 
0.521569 0.6 0.8 0.521569 0.6 0.8 
0.521569 0.6 0.8 0.521569 0.6 0.8 
0.521569 0.6 0.8 0.521569 0.6 0.8 
0.521569 0.6 0.8 0.521569 0.6 0.8 
0.521569 0.6 0.8 0.521569 0.6 0.8 
0.521569 0.6 0.8 0.521569 0.6 0.8 
0.521569 0.6 0.8 0.521569 0.6 0.8 
0.521569 0.6 0.8 0.521569 0.6 0.8 
0.521569 0.6 0.8 0.521569 0.6 0.8 
0.521569 0.6 0.8 0.521569 0.6 0.8 
0.521569 0.6 0.8 0.521569 0.6 0.8 
0.521569 0.6 0.8 0.521569 0.6 0.8 
0.521569 0.6 0.8 0.521569 0.6 0.8 
0.521569 0.6 0.8 0.521569 0.6 0.8 
0.521569 0.6 0.8 0.521569 0.6 0.8 
0.521569 0.6 0.8 0.521569 0.6 0.8 