# vtk DataFile Version 4.2
vtk output
ASCII
DATASET POLYDATA
POINTS 2283 float
411.522 105.971 70.7133 411.507 105.949 70.7694 411.527 105.991 70.6992 
411.487 105.863 70.8577 411.538 105.957 70.7476 411.553 105.856 70.8916 
410.355 105.612 71.2988 410.356 105.608 71.341 410.336 105.642 71.2653 
410.472 105.558 71.3651 410.412 105.504 71.4974 410.731 105.519 71.3968 
410.557 105.344 71.576 411.109 105.569 71.298 411.372 105.621 71.1272 
411.498 105.309 71.4489 410.392 105.63 71.2909 410.58 105.6 71.4421 
410.966 105.616 71.5321 411.302 105.676 71.4548 411.519 105.945 70.7906 
411.456 105.794 71.0713 411.612 105.652 71.2481 411.547 105.86 70.9375 
410.924 104.517 71.908 411.481 103.975 72.4052 410.234 104.738 72.3212 
410.039 104.686 72.693 410.589 104.858 71.8832 410.945 104.976 71.6245 
410.393 105.626 71.3331 410.474 105.541 71.5689 410.451 105.229 72.1299 
411.885 105.206 71.94 410.834 105.542 71.9553 411.67 105.619 71.6837 
412.447 105.546 72.5013 412.455 105.566 72.5614 412.504 105.567 72.5518 
412.533 105.539 72.6573 410.058 103.214 73.0819 411.208 103.593 72.5716 
411.067 103.121 72.9215 409.464 103.521 73.5284 409.382 103.778 73.6853 
410.061 103.792 72.7767 409.774 104.437 73.2742 412.247 105.428 72.4147 
412.565 105.052 72.9338 411.915 105.553 72.5836 412.369 105.529 72.736 
412.51 105.537 72.7382 411.225 101.81 74.1301 410.966 102.063 73.8333 
411.566 101.976 74.0903 410.232 102.689 73.428 411.325 102.726 73.3091 
409.459 103.142 73.718 409.241 102.994 74.1924 409.188 103.672 74.1687 
412.447 104.152 73.11 409.68 104.53 73.8734 412.91 104.878 73.7881 
412.485 105.365 73.4039 414.004 107.013 73.0087 414.004 107.013 73.0087 
414.004 107.013 73.0087 414.004 107.013 73.0088 414.004 107.013 73.0088 
409.679 102.302 74.1572 412.268 102.479 74.1076 412.561 103.26 73.7603 
409.192 103.871 74.3309 409.557 104.444 74.4489 409.873 104.775 74.8551 
413.238 104.608 74.3977 414.004 107.013 73.0088 410.872 100.625 75.8999 
409.921 100.988 75.8665 408.714 101.967 76.0598 413.493 104.04 74.9789 
411.413 105.469 75.6571 411.223 100.379 76.3261 408.924 100.999 76.9803 
408.392 102.294 76.5138 409.004 103.755 76.5598 410.975 105.366 76.6354 
413.729 104.647 76.6029 415.009 107.004 76.0131 415.009 107.004 76.0131 
415.009 107.004 76.0132 415.009 107.004 76.0132 415.009 107.004 76.0131 
409.665 99.8072 78.0816 409.462 100.195 77.5662 413.375 101.214 76.9807 
413.52 101.735 76.6433 414.145 103.463 77.1622 409.381 104.225 77.2029 
410.303 104.986 77.4042 410.883 105.296 77.2679 414.081 104.457 77.2813 
413.959 104.645 77.2365 411.948 105.505 77.4888 413.223 105.2 77.3712 
415.009 107.004 76.0132 410.644 99.1497 78.94 412.139 99.494 78.4545 
409.038 99.802 78.7492 408.185 101.276 78.1656 414.374 103.944 77.8919 
413.752 104.929 78.3119 412.219 98.9645 79.4887 408.32 100.225 79.1734 
413.67 100.415 78.9229 407.92 101.112 79.3886 408.002 101.627 78.9165 
408.08 102.137 79.2405 414.576 102.624 78.9552 410.379 104.902 79.5516 
414.183 104.55 79.2234 412.738 105.463 79.4585 412.821 99.0981 79.8953 
411.262 98.6845 80.0092 414.344 101.105 79.9722 414.626 101.702 80.1061 
408.285 102.693 79.7103 414.773 102.715 80.0533 408.985 103.719 79.8967 
413.335 105.303 80.326 411.11 98.2022 81.6776 412.535 98.6939 80.8774 
413.306 99.2739 80.595 407.436 100.201 81.5072 414.188 100.4 80.8185 
414.753 101.673 80.7002 414.849 102.036 80.9842 408.207 102.677 80.7381 
413.861 105.02 81.2159 409.904 98.1497 82.0237 408.166 98.9924 81.6232 
408.593 98.4894 82.201 413.924 99.7366 81.6106 407.576 99.4674 82.0236 
407.339 100.529 81.8388 414.838 101.473 81.7765 407.582 101.584 81.7161 
408.486 103.18 82.2845 414.623 104.084 82.0501 414.305 104.619 82.1215 
410.506 97.6996 83.5132 412.483 98.3632 82.4559 413.021 98.7589 81.9623 
407.546 98.8437 83.2816 407.976 98.5165 83.0883 407.667 102.141 83.2484 
409.397 104.131 83.3884 414.878 103.48 82.9631 411.668 105.446 83.9257 
412.857 105.527 83.4902 413.91 105.069 83.2165 414.116 99.5342 83.6022 
414.516 100.087 83.8247 406.982 101.056 84.2907 410.48 104.935 84.5726 
414.347 104.677 84.121 412.259 105.585 84.6587 413.409 105.41 84.3405 
408.798 97.2165 85.9729 406.602 98.0339 86.2857 406.549 99.1233 85.3104 
414.822 100.656 84.5894 413.908 105.167 85.2446 412.246 97.5014 85.8439 
405.902 98.474 87.1686 414.589 100.034 85.222 415.113 102.157 85.7027 
410.928 97.003 87.0201 412.833 97.7393 86.431 414.893 100.713 86.4359 
411.603 105.567 87.7972 413.233 105.671 86.9991 413.781 105.453 87.3149 
405.7 97.6046 88.8476 405.417 97.8988 88.8713 405.334 98.3955 88.6272 
405.249 99.0681 88.7153 413.384 105.698 87.8915 405.026 97.9933 89.6556 
413.874 98.5722 88.6606 405.03 99.3538 89.5347 414.042 105.551 89.1192 
404.621 97.9854 90.526 404.667 98.3121 90.1583 404.569 98.628 90.3706 
404.977 99.8033 90.324 414.39 105.025 89.8209 414.205 105.394 89.4934 
414.022 105.533 89.5671 404.318 97.7313 91.9029 411.514 96.9136 90.364 
413.413 98.0312 90.1112 404.343 98.0287 91.1909 414.544 104.483 90.7533 
410.918 105.529 90.7879 414.029 104.978 91.5341 411.427 105.724 91.3475 
412.068 105.811 91.4846 413.455 105.458 91.0317 403.986 97.6178 93.0873 
405.819 96.6792 92.8329 411.496 96.8878 91.3154 413.413 98.0479 91.0537 
409.257 104.783 91.8042 414.3 104.428 92.1863 412.391 105.819 92.0734 
413.001 105.615 92.4018 403.528 97.4745 94.296 409.871 96.4857 92.7795 
412.846 97.5791 91.5336 403.588 97.6743 93.8292 403.565 98.1422 93.562 
414.716 103.281 92.2122 411.578 105.953 93.1334 413.39 105.368 93.5582 
411.907 106.085 94.0546 403.091 98.8601 94.9498 411.707 106.3 95.4295 
412.814 105.907 95.8025 411.396 96.8809 95.1841 413.29 98.1542 94.8816 
402.531 98.3866 96.1915 403.105 99.4016 95.5194 414.011 99.4997 95.5085 
403.751 100.709 96.047 413.149 105.613 96.0667 413.254 105.397 96.5222 
412.393 106.186 96.4658 402.335 97.5288 97.6352 403.151 96.8633 97.975 
406.254 96.3021 97.2502 412.723 97.6534 95.3853 402.401 98.1102 96.6337 
414.082 100.387 96.6616 413.679 104.42 96.8552 410.661 106.457 96.7577 
412.456 106.237 97.2441 403.687 96.5729 98.6725 413.987 102.25 97.5843 
410.056 106.668 98.1253 401.141 97.7417 99.8034 402.056 96.8171 100.131 
409.676 96.5122 98.508 402.155 100.052 98.5981 406.163 104.629 98.6791 
408.869 106.573 98.8146 412.169 105.79 99.781 410.523 106.99 99.4327 
411.243 106.748 100.039 413.371 99.5562 99.6048 409.741 107.306 100.108 
409.983 107.422 100.466 411.525 106.496 100.532 410.417 107.317 100.634 
411.012 106.967 100.813 402.206 96.3584 101.427 400.331 98.1068 100.848 
411.402 106.609 101.192 411.525 106.381 101.689 409.365 107.791 101.233 
410.482 107.458 101.547 378.959 153.185 102.806 378.935 158.919 102.544 
379.884 160.414 102.157 379.389 161.68 102.239 378.932 162.94 102.458 
379.395 167.688 102.174 378.929 168.953 102.422 379.393 169.69 102.169 
378.926 170.955 102.418 379.902 170.41 102.028 379.39 171.69 102.168 
379.388 172.688 102.168 378.918 173.951 102.419 379.378 174.68 102.173 
379.862 176.375 102.048 378.876 177.878 102.455 378.955 181.525 102.619 
379.429 181.533 102.382 378.407 189.305 102.977 378.557 189.993 102.888 
400.283 96.5773 102.561 399.28 97.0125 102.75 411.055 97.1728 100.706 
407.48 107.532 101.651 410.261 107.844 102.26 379.111 145.656 103.81 
378.971 146.217 103.766 379.612 146.484 103.601 379.721 148.277 103.366 
378.802 149.942 103.418 379.222 150.794 103.139 380.11 153.903 102.64 
380.419 161.123 102.121 378.508 170.202 102.782 380.44 173.111 101.991 
378.49 175.192 102.782 378.458 179.066 102.836 380.156 180.831 102.198 
380.014 182.872 102.429 378.769 184.981 103.007 379.063 186.859 102.849 
378.562 186.735 103.061 378.612 187.497 103.005 378.06 188.907 103.305 
379.135 188.858 102.794 377.727 193.992 103.465 378.037 194.246 103.417 
377.67 195.707 103.804 392.85 95.7623 104.91 392.576 95.8451 104.999 
393.073 95.5421 105.021 394.811 96.1048 104.616 397.561 96.1238 104.438 
399.783 95.9646 104.169 396.316 96.9441 104.003 397.988 97.1851 103.352 
411.599 97.6445 101.356 412.145 98.2188 101.615 397.781 97.8229 103.276 
412.362 98.6179 101.896 412.055 98.2886 102.2 399.471 99.1012 102.026 
412.594 99.1454 101.882 412.478 99.5044 102.525 400.804 101.235 102.108 
408.596 108.604 102.489 407.758 109.503 103.229 409.359 108.993 103.231 
409.864 108.94 103.942 408.753 111.476 104.325 408.606 111.774 104.406 
408.801 111.756 104.531 379.314 141.356 104.515 379.175 140.905 104.652 
379.718 142.472 104.343 378.611 146.292 104.027 380.082 146.938 103.605 
378.405 150.044 103.707 378.327 151.464 103.614 381.363 155.961 102.772 
378.157 161.39 103.307 377.823 164.604 103.85 381.606 174.482 102.175 
381.31 181.209 102.377 377.854 185.635 103.811 378.239 186.258 103.343 
380.278 187.168 102.769 377.414 190.189 103.879 380.845 189.724 103.162 
379.063 194.549 103.484 379.373 194.17 103.475 378.501 195.253 103.577 
378.988 195.336 103.679 376.578 201.091 105.233 376.789 200.962 105.141 
376.633 201.318 105.307 392.195 95.4617 105.308 391.929 95.4619 105.413 
393.059 95.3025 105.245 393.315 95.1647 105.451 391.996 95.5608 105.326 
392.182 95.7669 105.27 394.621 96.8203 104.496 394.754 97.1911 104.497 
396.654 98.0717 103.896 396.311 98.1931 104.108 410.781 107.383 103.943 
410.5 107.927 103.882 407.707 111.172 104.09 409.157 111.579 105.058 
408.096 112.469 104.892 408.397 112.569 105.143 408.723 112.23 104.963 
379.358 138.865 105.163 379.251 138.403 105.347 379.756 140.112 104.876 
378.701 141.497 104.816 378.391 143.785 104.661 378.264 146.448 104.416 
377.89 148.602 104.797 380.605 149.138 103.415 378.141 149.343 104.173 
384.108 184.455 104.084 377.077 192.273 104.111 381.678 191.619 103.983 
376.745 198.647 104.841 376.568 201.593 105.527 391.825 95.4332 105.585 
391.872 95.5917 105.478 391.838 95.8522 105.749 399.296 95.5458 105.573 
393.357 96.9842 105.081 410.915 97.5659 103.325 394.319 97.8088 105.009 
395.208 98.651 105.007 401.355 104.3 104.368 409.311 111.492 105.805 
407.055 112.891 105.343 408.898 112.176 105.304 408.045 113.147 105.736 
[...]
POINT_DATA 2283
COLOR_SCALARS scalars 3
0.447059 0.835294 0.411765 0.447059 0.835294 0.411765 0.447059 0.835294 0.411765 
0.447059 0.835294 0.411765 0.447059 0.835294 0.411765 
0.447059 0.835294 0.411765 0.447059 0.835294 0.411765 
0.447059 0.835294 0.411765 0.447059 0.835294 0.411765 
0.447059 0.835294 0.411765 0.447059 0.835294 0.411765 
0.447059 0.835294 0.411765 0.447059 0.835294 0.411765 
0.447059 0.835294 0.411765 0.447059 0.835294 0.411765 
0.447059 0.835294 0.411765 0.447059 0.835294 0.411765 
0.447059 0.835294 0.411765 0.447059 0.835294 0.411765 
0.447059 0.835294 0.411765 0.447059 0.835294 0.411765 
0.447059 0.835294 0.411765 0.447059 0.835294 0.411765 
0.447059 0.835294 0.411765 0.447059 0.835294 0.411765 
0.447059 0.835294 0.411765 0.447059 0.835294 0.411765 
0.447059 0.835294 0.411765 0.447059 0.835294 0.411765 
0.447059 0.835294 0.411765 0.447059 0.835294 0.411765 
0.447059 0.835294 0.411765 0.447059 0.835294 0.411765 
0.447059 0.835294 0.411765 0.447059 0.835294 0.411765 
0.447059 0.835294 0.411765 0.447059 0.835294 0.411765 
0.447059 0.835294 0.411765 0.447059 0.835294 0.411765 
0.447059 0.835294 0.411765 0.447059 0.835294 0.411765 
0.447059 0.835294 0.411765 0.447059 0.835294 0.411765 
0.447059 0.835294 0.411765 0.447059 0.835294 0.411765 
0.447059 0.835294 0.411765 0.447059 0.835294 0.411765 
0.447059 0.835294 0.411765 0.447059 0.835294 0.411765 
0.447059 0.835294 0.411765 0.447059 0.835294 0.411765 
0.447059 0.835294 0.411765 0.447059 0.835294 0.411765 
0.447059 0.835294 0.411765 0.447059 0.835294 0.411765 
0.447059 0.835294 0.411765 0.447059 0.835294 0.411765 
0.447059 0.835294 0.411765 0.447059 0.835294 0.411765 
0.447059 0.835294 0.411765 0.447059 0.835294 0.411765 
0.447059 0.835294 0.411765 0.447059 0.835294 0.411765 
0.447059 0.835294 0.411765 0.447059 0.835294 0.411765 
0.447059 0.835294 0.411765 0.447059 0.835294 0.411765 
0.447059 0.835294 0.411765 0.447059 0.835294 0.411765 
0.447059 0.835294 0.411765 0.447059 0.835294 0.411765 
0.447059 0.835294 0.411765 0.447059 0.835294 0.411765 
0.447059 0.835294 0.411765 0.447059 0.835294 0.411765 
0.447059 0.835294 0.411765 0.447059 0.835294 0.411765 
0.447059 0.835294 0.411765 0.447059 0.835294 0.411765 
0.447059 0.835294 0.411765 0.447059 0.835294 0.411765 
0.447059 0.835294 0.411765 0.447059 0.835294 0.411765 
0.447059 0.835294 0.411765 0.447059 0.835294 0.411765 
0.447059 0.835294 0.411765 0.447059 0.835294 0.411765 
0.447059 0.835294 0.411765 0.447059 0.835294 0.411765 
0.447059 0.835294 0.411765 0.447059 0.835294 0.411765 
0.447059 0.835294 0.411765 0.447059 0.835294 0.411765 
0.447059 0.835294 0.411765 0.447059 0.835294 0.411765 
0.447059 0.835294 0.411765 0.447059 0.835294 0.411765 
0.447059 0.835294 0.411765 0.447059 0.835294 0.411765 
0.447059 0.835294 0.411765 0.447059 0.835294 0.411765 
0.447059 0.835294 0.411765 0.447059 0.835294 0.411765 
0.447059 0.835294 0.411765 0.447059 0.835294 0.411765 
0.447059 0.835294 0.411765 0.447059 0.835294 0.411765 
0.447059 0.835294 0.411765 0.447059 0.835294 0.411765 
0.447059 0.835294 0.411765 0.447059 0.835294 0.411765 
0.447059 0.835294 0.411765 0.447059 0.835294 0.411765 
0.447059 0.835294 0.411765 0.447059 0.835294 0.411765 
0.447059 0.835294 0.411765 0.447059 0.835294 0.411765 
0.447059 0.835294 0.411765 0.447059 0.835294 0.411765 
0.447059 0.835294 0.411765 0.447059 0.835294 0.411765 
0.447059 0.835294 0.411765 0.447059 0.835294 0.411765 
0.447059 0.835294 0.411765 0.447059 0.835294 0.411765 
0.447059 0.835294 0.411765 0.447059 0.835294 0.411765 
0.447059 0.835294 0.411765 0.447059 0.835294 0.411765 
0.447059 0.835294 0.411765 0.447059 0.835294 0.411765 
0.447059 0.835294 0.411765 0.447059 0.835294 0.411765 
0.447059 0.835294 0.411765 0.447059 0.835294 0.411765 
0.447059 0.835294 0.411765 0.447059 0.835294 0.411765 
0.447059 0.835294 0.411765 0.447059 0.835294 0.411765 
0.447059 0.835294 0.411765 0.447059 0.835294 0.411765 
0.447059 0.835294 0.411765 0.447059 0.835294 0.411765 
0.447059 0.835294 0.411765 0.447059 0.835294 0.411765 
0.447059 0.835294 0.411765 0.447059 0.835294 0.411765 
0.447059 0.835294 0.411765 0.447059 0.835294 0.411765 
0.447059 0.835294 0.411765 0.447059 0.835294 0.411765 
0.447059 0.835294 0.411765 0.447059 0.835294 0.411765 
0.447059 0.835294 0.411765 0.447059 0.835294 0.411765 
0.447059 0.835294 0.411765 0.447059 0.835294 0.411765 
0.447059 0.835294 0.411765 0.447059 0.835294 0.411765 
0.447059 0.835294 0.411765 0.447059 0.835294 0.411765 
0.447059 0.835294 0.411765 0.447059 0.835294 0.411765 
0.447059 0.835294 0.411765 0.447059 0.835294 0.411765 
0.447059 0.835294 0.411765 0.447059 0.835294 0.411765 
0.447059 0.835294 0.411765 0.447059 0.835294 0.411765 
0.447059 0.835294 0.411765 0.447059 0.835294 0.411765 
0.447059 0.835294 0.411765 0.447059 0.835294 0.411765 
0.447059 0.835294 0.411765 0.447059 0.835294 0.411765 
0.447059 0.835294 0.411765 0.447059 0.835294 0.411765 
0.447059 0.835294 0.411765 0.447059 0.835294 0.411765 
0.447059 0.835294 0.411765 0.447059 0.835294 0.411765 
0.447059 0.835294 0.411765 0.447059 0.835294 0.411765 
0.447059 0.835294 0.411765 0.447059 0.835294 0.411765 
0.447059 0.835294 0.411765 0.447059 0.835294 0.411765 
0.447059 0.835294 0.411765 0.447059 0.835294 0.411765 
0.447059 0.835294 0.411765 0.447059 0.835294 0.411765 
0.447059 0.835294 0.411765 0.447059 0.835294 0.411765 
0.447059 0.835294 0.411765 0.447059 0.835294 0.411765 
0.447059 0.835294 0.411765 0.447059 0.835294 0.411765 
0.447059 0.835294 0.411765 0.447059 0.835294 0.411765 
0.447059 0.835294 0.411765 0.447059 0.835294 0.411765 
0.447059 0.835294 0.411765 0.447059 0.835294 0.411765 
0.447059 0.835294 0.411765 0.447059 0.835294 0.411765 
0.447059 0.835294 0.411765 0.447059 0.835294 0.411765 
0.447059 0.835294 0.411765 0.447059 0.835294 0.411765 
0.447059 0.835294 0.411765 0.447059 0.835294 0.411765 
0.447059 0.835294 0.411765 0.447059 0.835294 0.411765 
0.447059 0.835294 0.411765 0.447059 0.835294 0.411765 
0.447059 0.835294 0.411765 0.447059 0.835294 0.411765 
0.447059 0.835294 0.411765 0.447059 0.835294 0.411765 
0.447059 0.835294 0.411765 0.447059 0.835294 0.411765 
0.447059 0.835294 0.411765 0.447059 0.835294 0.411765 
0.447059 0.835294 0.411765 0.447059 0.835294 0.411765 
0.447059 0.835294 0.411765 0.447059 0.835294 0.411765 
0.447059 0.835294 0.411765 0.447059 0.835294 0.411765 
0.447059 0.835294 0.411765 0.447059 0.835294 0.411765 
0.447059 0.835294 0.411765 0.447059 0.835294 0.411765 
0.447059 0.835294 0.411765 0.447059 0.835294 0.411765 
0.447059 0.835294 0.411765 0.447059 0.835294 0.411765 
0.447059 0.835294 0.411765 0.447059 0.835294 0.411765 
0.447059 0.835294 0.411765 0.447059 0.835294 0.411765 
0.447059 0.835294 0.411765 0.447059 0.835294 0.411765 
0.447059 0.835294 0.411765 0.447059 0.835294 0.411765 
0.447059 0.835294 0.411765 0.447059 0.835294 0.411765 
0.447059 0.835294 0.411765 0.447059 0.835294 0.411765 
0.447059 0.835294 0.411765 0.447059 0.835294 0.411765 
0.447059 0.835294 0.411765 0.447059 0.835294 0.411765 
0.447059 0.835294 0.411765 0.447059 0.835294 0.411765 
0.447059 0.835294 0.411765 0.447059 0.835294 0.411765 
0.447059 0.835294 0.411765 0.447059 0.835294 0.411765 
0.447059 0.835294 0.411765 0.447059 0.835294 0.411765 
0.447059 0.835294 0.411765 0.447059 0.835294 0.411765 
0.447059 0.835294 0.411765 0.447059 0.835294 0.411765 
0.447059 0.835294 0.411765 0.447059 0.835294 0.411765 
0.447059 0.835294 0.411765 0.447059 0.835294 0.411765 
0.447059 0.835294 0.411765 0.447059 0.835294 0.411765 
0.447059 0.835294 0.411765 0.447059 0.835294 0.411765 
0.447059 0.835294 0.411765 0.447059 0.835294 0.411765 
0.447059 0.835294 0.411765 0.447059 0.835294 0.411765 
0.447059 0.835294 0.411765 0.447059 0.835294 0.411765 
0.447059 0.835294 0.411765 0.447059 0.835294 0.411765 
0.447059 0.835294 0.411765 0.447059 0.835294 0.411765 
0.447059 0.835294 0.411765 0.447059 0.835294 0.411765 
0.447059 0.835294 0.411765 0.447059 0.835294 0.411765 
0.447059 0.835294 0.411765 0.447059 0.835294 0.411765 
0.447059 0.835294 0.411765 0.447059 0.835294 0.411765 
0.447059 0.835294 0.411765 0.447059 0.835294 0.411765 
0.447059 0.835294 0.411765 0.447059 0.835294 0.411765 
0.447059 0.835294 0.411765 0.447059 0.835294 0.411765 
0.447059 0.835294 0.411765 0.447059 0.835294 0.411765 
0.447059 0.835294 0.411765 0.447059 0.835294 0.411765 
0.447059 0.835294 0.411765 0.447059 0.835294 0.411765 
0.447059 0.835294 0.411765 0.447059 0.835294 0.411765 
0.447059 0.835294 0.411765 0.447059 0.835294 0.411765 
0.447059 0.835294 0.411765 0.447059 0.835294 0.411765 
0.447059 0.835294 0.411765 0.447059 0.835294 0.411765 
0.447059 0.835294 0.411765 0.447059 0.835294 0.411765 
0.447059 0.835294 0.411765 0.447059 0.835294 0.411765 
0.447059 0.835294 0.411765 0.447059 0.835294 0.411765 
0.447059 0.835294 0.411765 0.447059 0.835294 0.411765 
0.447059 0.835294 0.411765 0.447059 0.835294 0.411765 
0.447059 0.835294 0.411765 0.447059 0.835294 0.411765 
0.447059 0.835294 0.411765 0.447059 0.835294 0.411765 
0.447059 0.835294 0.411765 0.447059 0.835294 0.411765 
0.447059 0.835294 0.411765 0.447059 0.835294 0.411765 
0.447059 0.835294 0.411765 0.447059 0.835294 0.411765 
0.447059 0.835294 0.411765 0.447059 0.835294 0.411765 
0.447059 0.835294 0.411765 0.447059 0.835294 0.411765 
0.447059 0.835294 0.411765 0.447059 0.835294 0.411765 
0.447059 0.835294 0.411765 0.447059 0.835294 0.411765 
0.447059 0.835294 0.411765 0.447059 0.835294 0.411765 
0.447059 0.835294 0.411765 0.447059 0.835294 0.411765 
0.447059 0.835294 0.411765 0.447059 0.835294 0.411765 
0.447059 0.835294 0.411765 0.447059 0.835294 0.411765 
0.447059 0.835294 0.411765 0.447059 0.835294 0.411765 
0.447059 0.835294 0.411765 0.447059 0.835294 0.411765 
0.447059 0.835294 0.411765 0.447059 0.835294 0.411765 
0.447059 0.835294 0.411765 0.447059 0.835294 0.411765 
0.447059 0.835294 0.411765 0.447059 0.835294 0.411765 
0.447059 0.835294 0.411765 0.447059 0.835294 0.411765 
0.447059 0.835294 0.411765 0.447059 0.835294 0.411765 
0.447059 0.835294 0.411765 0.447059 0.835294 0.411765 
0.447059 0.835294 0.411765 0.447059 0.835294 0.411765 
0.447059 0.835294 0.411765 0.447059 0.835294 0.411765 
0.447059 0.835294 0.411765 0.447059 0.835294 0.411765 
0.447059 0.835294 0.411765 0.447059 0.835294 0.411765 
0.447059 0.835294 0.411765 0.447059 0.835294 0.411765 
0.447059 0.835294 0.411765 0.447059 0.835294 0.411765 
0.447059 0.835294 0.411765 0.447059 0.835294 0.411765 
0.447059 0.835294 0.411765 0.447059 0.835294 0.411765 
0.447059 0.835294 0.411765 0.447059 0.835294 0.411765 
0.447059 0.835294 0.411765 0.447059 0.835294 0.411765 
0.447059 0.835294 0.411765 0.447059 0.835294 0.411765 
0.447059 0.835294 0.411765 0.447059 0.835294 0.411765 
0.447059 0.835294 0.411765 0.447059 0.835294 0.411765 
0.447059 0.835294 0.411765 0.447059 0.835294 0.411765 
0.447059 0.835294 0.411765 0.447059 0.835294 0.411765 
0.447059 0.835294 0.411765 0.447059 0.835294 0.411765 
0.447059 0.835294 0.411765 0.447059 0.835294 0.411765 
0.447059 0.835294 0.411765 0.447059 0.835294 0.411765 
0.447059 0.835294 0.411765 0.447059 0.835294 0.411765 
0.447059 0.835294 0.411765 0.447059 0.835294 0.411765 
0.447059 0.835294 0.411765 0.447059 0.835294 0.411765 
0.447059 0.835294 0.411765 0.447059 0.835294 0.411765 
0.447059 0.835294 0.411765 0.447059 0.835294 0.411765 
0.447059 0.835294 0.411765 0.447059 0.835294 0.411765 
0.447059 0.835294 0.411765 0.447059 0.835294 0.411765 
0.447059 0.835294 0.411765 0.447059 0.835294 0.411765 
0.447059 0.835294 0.411765 0.447059 0.835294 0.411765 
0.447059 0.835294 0.411765 0.447059 0.835294 0.411765 
0.447059 0.835294 0.411765 0.447059 0.835294 0.411765 
0.447059 0.835294 0.411765 0.447059 0.835294 0.411765 
0.447059 0.835294 0.411765 0.447059 0.835294 0.411765 
0.447059 0.835294 0.411765 0.447059 0.835294 0.411765 
0.447059 0.835294 0.411765 0.447059 0.835294 0.411765 
0.447059 0.835294 0.411765 0.447059 0.835294 0.411765 
0.447059 0.835294 0.411765 0.447059 0.835294 0.411765 
0.447059 0.835294 0.411765 0.447059 0.835294 0.411765 
0.447059 0.835294 0.411765 0.447059 0.835294 0.411765 
0.447059 0.835294 0.411765 0.447059 0.835294 0.411765 
0.447059 0.835294 0.411765 0.447059 0.835294 0.411765 
0.447059 0.835294 0.411765 0.447059 0.835294 0.411765 
0.447059 0.835294 0.411765 0.447059 0.835294 0.411765 
0.447059 0.835294 0.411765 0.447059 0.835294 0.411765 
0.447059 0.835294 0.411765 0.447059 0.835294 0.411765 
0.447059 0.835294 0.411765 0.447059 0.835294 0.411765 
0.447059 0.835294 0.411765 0.447059 0.835294 0.411765 
0.447059 0.835294 0.411765 0.447059 0.835294 0.411765 
0.447059 0.835294 0.411765 0.447059 0.835294 0.411765 
0.447059 0.835294 0.411765 0.447059 0.835294 0.411765 
0.447059 0.835294 0.411765 0.447059 0.835294 0.411765 
0.447059 0.835294 0.411765 0.447059 0.835294 0.411765 
0.447059 0.835294 0.411765 0.447059 0.835294 0.411765 
0.447059 0.835294 0.411765 0.447059 0.835294 0.411765 
0.447059 0.835294 0.411765 0.447059 0.835294 0.411765 
0.447059 0.835294 0.411765 0.447059 0.835294 0.411765 
0.447059 0.835294 0.411765 0.447059 0.835294 0.411765 
0.447059 0.835294 0.411765 0.447059 0.835294 0.411765 
0.447059 0.835294 0.411765 0.447059 0.835294 0.411765 
0.447059 0.835294 0.411765 0.447059 0.835294 0.411765 
0.447059 0.835294 0.411765 0.447059 0.835294 0.411765 
0.447059 0.835294 0.411765 0.447059 0.835294 0.411765 
0.447059 0.835294 0.411765 0.447059 0.835294 0.411765 
0.447059 0.835294 0.411765 0.447059 0.835294 0.411765 
0.447059 0.835294 0.411765 0.447059 0.835294 0.411765 
0.447059 0.835294 0.411765 0.447059 0.835294 0.411765 
0.447059 0.835294 0.411765 0.447059 0.835294 0.411765 
0.447059 0.835294 0.411765 0.447059 0.835294 0.411765 
0.447059 0.835294 0.411765 0.447059 0.835294 0.411765 
0.447059 0.835294 0.411765 0.447059 0.835294 0.411765 
0.447059 0.835294 0.411765 0.447059 0.835294 0.411765 
0.447059 0.835294 0.411765 0.447059 0.835294 0.411765 
0.447059 0.835294 0.411765 0.447059 0.835294 0.411765 
0.447059 0.835294 0.411765 0.447059 0.835294 0.411765 
0.447059 0.835294 0.411765 0.447059 0.835294 0.411765 
0.447059 0.835294 0.411765 0.447059 0.835294 0.411765 
0.447059 0.835294 0.411765 0.447059 0.835294 0.411765 
0.447059 0.835294 0.411765 0.447059 0.835294 0.411765 
0.447059 0.835294 0.411765 0.447059 0.835294 0.411765 
0.447059 0.835294 0.411765 0.447059 0.835294 0.411765 
0.447059 0.835294 0.411765 0.447059 0.835294 0.411765 
0.447059 0.835294 0.411765 0.447059 0.835294 0.411765 
0.447059 0.835294 0.411765 0.447059 0.835294 0.411765 
0.447059 0.835294 0.411765 0.447059 0.835294 0.411765 
0.447059 0.835294 0.411765 0.447059 0.835294 0.411765 
0.447059 0.835294 0.411765 0.447059 0.835294 0.411765 
0.447059 0.835294 0.411765 0.447059 0.835294 0.411765 
0.447059 0.835294 0.411765 0.447059 0.835294 0.411765 
0.447059 0.835294 0.411765 0.447059 0.835294 0.411765 
0.447059 0.835294 0.411765 0.447059 0.835294 0.411765 
0.447059 0.835294 0.411765 0.447059 0.835294 0.411765 
0.447059 0.835294 0.411765 0.447059 0.835294 0.411765 
0.447059 0.835294 0.411765 0.447059 0.835294 0.411765 
0.447059 0.835294 0.411765 0.447059 0.835294 0.411765 
0.447059 0.835294 0.411765 0.447059 0.835294 0.411765 
0.447059 0.835294 0.411765 0.447059 0.835294 0.411765 
0.447059 0.835294 0.411765 0.447059 0.835294 0.411765 
0.447059 0.835294 0.411765 0.447059 0.835294 0.411765 
0.447059 0.835294 0.411765 0.447059 0.835294 0.411765 
0.447059 0.835294 0.411765 0.447059 0.835294 0.411765 
0.447059 0.835294 0.411765 0.447059 0.835294 0.411765 
0.447059 0.835294 0.411765 0.447059 0.835294 0.411765 
0.447059 0.835294 0.411765 0.447059 0.835294 0.411765 
0.447059 0.835294 0.411765 0.447059 0.835294 0.411765 
0.447059 0.835294 0.411765 0.447059 0.835294 0.411765 
0.447059 0.835294 0.411765 0.447059 0.835294 0.411765 
0.447059 0.835294 0.411765 0.447059 0.835294 0.411765 
0.447059 0.835294 0.411765 0.447059 0.835294 0.411765 
0.447059 0.835294 0.411765 0.447059 0.835294 0.411765 
0.447059 0.835294 0.411765 0.447059 0.835294 0.411765 
0.447059 0.835294 0.411765 0.447059 0.835294 0.411765 
0.447059 0.835294 0.411765 0.447059 0.835294 0.411765 
0.447059 0.835294 0.411765 0.447059 0.835294 0.411765 
0.447059 0.835294 0.411765 0.447059 0.835294 0.411765 
0.447059 0.835294 0.411765 0.447059 0.835294 0.411765 
0.447059 0.835294 0.411765 0.447059 0.835294 0.411765 
0.447059 0.835294 0.411765 0.447059 0.835294 0.411765 
0.447059 0.835294 0.411765 0.447059 0.835294 0.411765 
0.447059 0.835294 0.411765 0.447059 0.835294 0.411765 
0.447059 0.835294 0.411765 0.447059 0.835294 0.411765 
0.447059 0.835294 0.411765 0.447059 0.835294 0.411765 
0.447059 0.835294 0.411765 0.447059 0.835294 0.411765 
0.447059 0.835294 0.411765 0.447059 0.835294 0.411765 
0.447059 0.835294 0.411765 0.447059 0.835294 0.411765 
0.447059 0.835294 0.411765 0.447059 0.835294 0.411765 
0.447059 0.835294 0.411765 0.447059 0.835294 0.411765 
0.447059 0.835294 0.411765 0.447059 0.835294 0.411765 
0.447059 0.835294 0.411765 0.447059 0.835294 0.411765 
0.447059 0.835294 0.411765 0.447059 0.835294 0.411765 
0.447059 0.835294 0.411765 0.447059 0.835294 0.411765 
0.447059 0.835294 0.411765 0.447059 0.835294 0.411765 
0.447059 0.835294 0.411765 0.447059 0.835294 0.411765 
0.447059 0.835294 0.411765 0.447059 0.835294 0.411765 
0.447059 0.835294 0.411765 0.447059 0.835294 0.411765 
0.447059 0.835294 0.411765 0.447059 0.835294 0.411765 
0.447059 0.835294 0.411765 0.447059 0.835294 0.411765 
0.447059 0.835294 0.411765 0.447059 0.835294 0.411765 
0.447059 0.835294 0.411765 0.447059 0.835294 0.411765 
0.447059 0.835294 0.411765 0.447059 0.835294 0.411765 
0.447059 0.835294 0.411765 0.447059 0.835294 0.411765 
0.447059 0.835294 0.411765 0.447059 0.835294 0.411765 
0.447059 0.835294 0.411765 0.447059 0.835294 0.411765 
0.447059 0.835294 0.411765 0.447059 0.835294 0.411765 
0.447059 0.835294 0.411765 0.447059 0.835294 0.411765 
0.447059 0.835294 0.411765 0.447059 0.835294 0.411765 
0.447059 0.835294 0.411765 0.447059 0.835294 0.411765 
0.447059 0.835294 0.411765 0.447059 0.835294 0.411765 
0.447059 0.835294 0.411765 0.447059 0.835294 0.411765 
0.447059 0.835294 0.411765 0.447059 0.835294 0.411765 
0.447059 0.835294 0.411765 0.447059 0.835294 0.411765 
0.447059 0.835294 0.411765 0.447059 0.835294 0.411765 
0.447059 0.835294 0.411765 0.447059 0.835294 0.411765 
0.447059 0.835294 0.411765 0.447059 0.835294 0.411765 
0.447059 0.835294 0.411765 0.447059 0.835294 0.411765 
0.447059 0.835294 0.411765 0.447059 0.835294 0.411765 
0.447059 0.835294 0.411765 0.447059 0.835294 0.411765 
0.447059 0.835294 0.411765 0.447059 0.835294 0.411765 
0.447059 0.835294 0.411765 0.447059 0.835294 0.411765 
0.447059 0.835294 0.411765 0.447059 0.835294 0.411765 
0.447059 0.835294 0.411765 0.447059 0.835294 0.411765 
0.447059 0.835294 0.411765 0.447059 0.835294 0.411765 
0.447059 0.835294 0.411765 0.447059 0.835294 0.411765 
0.447059 0.835294 0.411765 0.447059 0.835294 0.411765 
0.447059 0.835294 0.411765 0.447059 0.835294 0.411765 
0.447059 0.835294 0.411765 0.447059 0.835294 0.411765 
0.447059 0.835294 0.411765 0.447059 0.835294 0.411765 
0.447059 0.835294 0.411765 0.447059 0.835294 0.411765 
0.447059 0.835294 0.411765 0.447059 0.835294 0.411765 
0.447059 0.835294 0.411765 0.447059 0.835294 0.411765 
0.447059 0.835294 0.411765 0.447059 0.835294 0.411765 
0.447059 0.835294 0.411765 0.447059 0.835294 0.411765 
0.447059 0.835294 0.411765 0.447059 0.835294 0.411765 
0.447059 0.835294 0.411765 0.447059 0.835294 0.411765 
0.447059 0.835294 0.411765 0.447059 0.835294 0.411765 
0.447059 0.835294 0.411765 0.447059 0.835294 0.411765 
0.447059 0.835294 0.411765 0.447059 0.835294 0.411765 
0.447059 0.835294 0.411765 0.447059 0.835294 0.411765 
0.447059 0.835294 0.411765 0.447059 0.835294 0.411765 
0.447059 0.835294 0.411765 0.447059 0.835294 0.411765 
0.447059 0.835294 0.411765 0.447059 0.835294 0.411765 
0.447059 0.835294 0.411765 0.447059 0.835294 0.411765 
0.447059 0.835294 0.411765 0.447059 0.835294 0.411765 
0.447059 0.835294 0.411765 0.447059 0.835294 0.411765 