# vtk DataFile Version 4.2
vtk output
ASCII
DATASET POLYDATA
POINTS 456 float
492.7 204.699 184.955 492.61 204.492 185.098 492.961 204.829 184.827 
492.83 204.515 184.942 493.274 204.891 184.774 493.552 204.842 184.823 
492.754 204.917 184.975 492.956 205.057 184.871 493.137 205.224 184.958 
493.528 205.327 185.005 492.606 203.992 185.475 492.99 204.246 185.058 
493.251 204.247 185.042 492.436 204.521 185.699 492.685 204.988 185.226 
492.903 205.149 185.078 493.868 205.266 184.955 494.486 205.068 185.119 
494.834 205.304 185.302 494.088 205.51 185.207 493.153 203.576 185.715 
492.93 203.274 186.149 492.375 204.14 186.068 496.064 203.882 186.175 
497.197 205.13 186.208 492.764 205.192 185.826 492.852 205.293 186.156 
497.552 205.668 186.289 496.525 206.096 186.11 497.973 206.101 186.498 
495.698 206.339 186.238 496.424 206.534 186.446 497.19 206.511 186.478 
497.762 206.437 186.546 493.447 202.429 186.97 492.489 203.168 186.886 
497.076 204.015 186.573 499.011 205.722 187.045 499.105 206.562 187.166 
496.63 206.895 186.928 496.53 207.045 187.38 498.755 206.909 187.183 
499.269 206.93 187.391 499.544 206.787 187.475 497.843 207.212 187.365 
499.203 207.192 187.626 493.226 201.829 187.846 494.001 201.623 188.016 
493.104 202.192 187.414 492.336 203.784 187.822 492.475 204.373 187.817 
492.553 204.699 187.389 499.656 205.161 187.839 499.364 205.625 187.339 
499.968 206.749 187.828 500.325 206.498 188.159 500.061 207.081 188.088 
497.087 207.315 187.871 494.911 201.315 188.718 492.796 201.77 188.276 
492.605 202.048 188.196 492.388 202.319 188.477 492.357 203.424 188.889 
492.721 204.562 188.376 493.783 205.705 188.006 500.288 205.555 188.338 
494.49 206.043 188.337 500.773 206.795 188.761 500.678 207.035 188.763 
497.633 207.516 188.585 498.424 207.649 188.556 498.994 207.668 188.482 
500.263 207.508 188.867 500.702 207.259 189.086 492.781 201.55 188.804 
492.387 201.644 189.48 492.32 202.76 189.648 498.902 203.432 188.663 
492.506 203.734 189.234 500.933 206.558 189.007 497.298 207.362 189.572 
501.269 206.718 189.879 499.893 207.876 189.35 500.277 207.91 189.79 
500.669 207.741 189.914 500.982 207.5 190.034 494.895 200.09 190.886 
492.364 201.513 190.136 492.908 203.927 190.022 494.034 205.314 189.512 
496.357 206.819 189.816 500.315 207.951 190.636 501.296 207.242 190.543 
500.637 207.866 190.438 493.215 199.698 191.722 493 199.825 191.605 
492.588 200.459 191.337 492.385 201.585 191.723 501.228 205.291 190.129 
501.631 205.685 191.028 500.493 207.893 191.195 493.054 199.301 192.942 
492.633 199.986 191.977 492.537 199.854 192.477 492.395 200.888 192.555 
499.445 201.872 191.926 500.599 207.722 191.84 501.414 207.408 191.906 
492.656 199.576 192.853 492.488 199.809 192.985 492.444 200.52 193.611 
492.788 201.601 193.283 499.299 207.116 192.857 500.017 207.501 192.539 
502.211 206.536 193.478 501.235 207.584 192.027 494.055 198.409 194.429 
495.142 198.53 194.316 493.265 201.669 194.105 502.387 204.826 193.789 
502.602 205.538 194.176 500.805 207.293 193.533 501.877 206.891 193.953 
493.78 198.005 195.53 493.289 198.297 195.319 495.642 198.163 195.424 
492.716 199.074 194.921 497.184 199.105 194.58 492.511 199.703 194.719 
499.283 205.936 194.796 493.737 197.622 196.93 493.408 197.855 196.364 
494.743 197.59 196.616 493.183 197.995 196.46 493.953 201.296 195.716 
501.878 202.577 195.412 502.928 205.414 195.894 501.463 206.658 195.355 
502.406 206.366 195.605 493.459 197.675 197.439 493.169 197.995 196.921 
495.352 197.565 197.222 493.239 199.28 197.346 493.599 200.066 196.945 
494.543 201.064 196.746 500.869 201.042 196.034 502.967 205.571 196.404 
503.123 205.175 197.027 502.75 205.951 196.26 502.485 206.167 196.247 
502.77 205.851 196.688 493.408 197.671 198.002 493.729 197.444 198.167 
495.342 197.513 197.701 493.154 198.294 197.822 496.472 197.925 197.596 
493.636 199.385 197.949 503.235 204.509 197.273 502.373 205.631 197.271 
493.988 197.273 198.93 493.793 197.362 198.68 494.184 197.233 198.87 
497.157 198.187 198.248 494.35 199.851 198.217 494.648 199.782 198.551 
502.519 201.939 198.216 503.182 203.668 197.881 503.017 203.025 198.084 
503.213 203.887 198.316 501.932 204.731 198.434 502.622 205.043 198.223 
494.036 197.31 199.135 493.831 197.438 199.023 494.214 197.271 199.084 
494.484 197.378 199.182 493.582 197.634 198.927 493.393 197.796 198.69 
495.463 197.601 198.851 496.082 197.888 199.071 493.364 197.956 198.797 
496.517 197.989 198.874 493.353 198.138 198.712 502.179 201.378 198.867 
503.062 202.75 198.825 502.947 204.441 198.713 502.815 204.898 198.328 
494.033 197.39 199.212 494.235 197.387 199.246 493.779 197.673 199.179 
494.123 197.577 199.294 496.139 198.12 199.361 493.75 197.868 199.231 
493.66 198.059 199.117 493.94 198.325 199.161 499.317 199.512 199.421 
501.228 200.562 199.546 497.803 201.027 199.357 498.665 200.962 199.819 
502.316 201.45 199.618 499.568 201.119 200.13 503.05 202.557 199.815 
494.024 197.848 199.341 498.723 199.628 199.843 501.749 201.183 200.374 
499.45 200.599 200.196 500.187 200.906 200.365 502.249 201.462 200.231 
502.911 202.127 199.935 500.575 201.892 200.259 500.891 201.742 200.473 
501.828 202.448 200.451 502.986 202.917 200.319 502.976 203.231 200.098 
503.014 203.063 200.34 502.679 203.373 200.014 502.93 203.114 200.309 
501.231 200.952 200.41 500.908 201.386 200.541 501.619 201.463 200.652 
502.192 201.608 200.632 502.075 201.664 200.783 502.578 201.838 200.46 
502.752 202.185 200.543 502.047 201.789 200.799 501.851 201.92 200.706 
502.791 202.536 200.531 502.779 202.909 200.408 502.973 202.998 200.4 
502.301 201.861 200.789 502.512 201.917 200.688 502.771 201.864 254.083 
502.629 201.801 254.055 502.787 201.847 254.203 502.74 201.923 254.063 
502.621 201.882 254.056 502.852 202.076 254.247 502.629 202.027 254.161 
502.44 201.662 254.155 502.999 202.328 254.661 502.956 202.535 254.463 
503.057 202.545 254.475 502.737 202.711 254.705 494.838 197.661 255.786 
494.638 197.697 255.835 495.055 197.746 255.765 494.995 197.613 255.883 
495.294 197.791 255.842 500.039 200.427 255.145 501.417 200.947 254.834 
501.119 200.652 255.092 499.024 200.505 255.372 502.503 201.6 254.761 
503.064 202.91 255.092 502.78 203.144 255.139 502.532 203.384 255.396 
503.051 203.267 255.254 503.152 203.205 255.214 503.151 203.317 255.303 
503.057 203.461 255.533 494.054 197.362 256.183 493.948 197.243 256.367 
493.838 197.363 256.346 494.159 197.248 256.264 493.882 197.567 256.242 
493.691 197.498 256.541 493.659 197.731 256.497 494.833 197.439 256.178 
495.823 198.104 255.933 495.899 197.828 256.334 493.802 197.788 256.277 
493.881 197.983 256.272 494.574 197.968 255.918 495.284 198.302 255.835 
496.095 198.61 255.817 497.236 198.55 256.158 497.829 198.719 256.351 
495.39 199.024 255.965 498.634 199.217 256.043 499.419 199.558 255.864 
497.714 199.823 255.673 498.292 201.07 255.838 499.433 201.6 255.561 
502.873 202.085 255.412 503.014 202.433 255.688 503.098 202.869 255.769 
503.152 203.283 255.374 503.104 203.464 255.923 502.793 203.867 256.079 
493.92 197.21 256.574 493.782 197.314 256.573 494.117 197.192 256.472 
493.564 197.703 256.809 495.333 197.53 256.482 493.701 197.933 256.452 
500.651 200.185 256.122 497.006 200.76 256.36 502.761 202.098 256.187 
500.583 203 255.987 501.764 203.972 256.337 502.427 204.76 257.053 
502.681 204.826 257.158 502.527 205.03 257.369 493.916 197.374 257.28 
494.867 197.332 257.173 495.767 197.606 257.352 493.884 198.881 256.906 
494.911 199.836 256.829 501.05 200.605 257.214 503.056 203.131 256.988 
497.054 198.166 257.747 495.801 201.151 257.604 500.83 204.88 258.015 
501.399 205.059 257.829 502.44 205.67 258.542 502.225 205.868 258.917 
502.695 205.491 258.444 493.252 198.089 258.66 493.397 197.93 258.844 
498.619 199.117 258.611 495.181 201.512 258.689 502.661 203.539 259.154 
501.478 205.932 259.2 502.824 205.405 259.015 492.944 198.736 259.842 
492.719 199.19 260.115 492.606 199.529 260.592 492.696 199.468 260.054 
493.067 200.218 259.813 493.859 201.008 259.504 500.676 206.073 259.925 
502.554 205.772 259.557 501.805 206.475 260.58 501.832 206.617 261.148 
493.687 198.001 259.688 494.178 197.892 259.633 492.999 198.762 260.64 
494.965 198.188 260.392 492.591 199.544 261.167 493.086 201.086 260.801 
500.485 206.813 261.512 501.807 206.721 261.705 493.117 198.811 261.201 
492.54 199.872 261.97 492.441 200.501 262.085 497.448 199.873 262.226 
492.554 200.619 261.46 500.074 207.281 262.833 501.975 206.552 261.859 
493.648 198.722 261.599 492.556 199.963 262.718 492.751 199.836 263.037 
492.389 201.118 262.984 498 206.428 262.88 498.814 207.109 263.387 
501.945 206.448 262.383 493.793 199.439 263.21 492.49 201.672 263.066 
492.659 202.143 263.294 493.187 203.142 263.645 501.097 204.148 263.98 
500.431 207.697 264.156 493.24 199.903 263.998 492.733 200.692 264.836 
492.415 201.203 265.017 498.203 201.962 265.194 492.706 203.05 264.571 
497.236 207.16 265.4 500.182 207.947 265.217 500.921 207.722 265.163 
493.295 200.477 265.247 494.522 200.429 265.381 492.328 201.605 265.392 
492.296 202.178 265.609 492.408 202.833 265.513 499.281 203.245 265.91 
497.332 207.379 266.079 501.199 207.314 265.16 499.283 207.86 265.633 
501.026 207.574 265.37 500.18 207.936 265.674 500.492 207.885 265.629 
493.543 200.593 265.581 493.265 201.29 266.63 492.327 202.271 266.359 
492.422 202.496 267.046 492.695 204.064 266.541 497.507 207.487 267.146 
500.904 207.584 265.704 500.68 207.595 265.973 500.867 207.473 265.874 
499.969 207.872 266.131 493.034 201.655 267.075 492.732 202.085 267.274 
492.389 203.063 267.542 499.489 205.062 267.475 498.626 207.527 267.242 
493.646 201.677 267.445 492.915 202.466 268.102 494.846 202.39 268.333 
492.757 203.078 268.698 492.386 203.881 268.654 492.538 204.425 268.032 
492.431 204.373 268.708 492.616 204.77 268.463 493.357 205.568 268.399 
493.167 205.508 268.886 494.483 206.269 268.611 499.326 206.655 267.818 
496.243 207.095 268.316 497.536 207.281 268.101 498.129 207.221 268.004 
[...]
POINT_DATA 456
COLOR_SCALARS scalars 3
1 0.701961 0.85098 1 0.701961 0.85098 1 0.701961 0.85098 
1 0.701961 0.85098 1 0.701961 0.85098 
1 0.701961 0.85098 1 0.701961 0.85098 
1 0.701961 0.85098 1 0.701961 0.85098 
1 0.701961 0.85098 1 0.701961 0.85098 
1 0.701961 0.85098 1 0.701961 0.85098 
1 0.701961 0.85098 1 0.701961 0.85098 
1 0.701961 0.85098 1 0.701961 0.85098 
1 0.701961 0.85098 1 0.701961 0.85098 
1 0.701961 0.85098 1 0.701961 0.85098 
1 0.701961 0.85098 1 0.701961 0.85098 
1 0.701961 0.85098 1 0.701961 0.85098 
1 0.701961 0.85098 1 0.701961 0.85098 
1 0.701961 0.85098 1 0.701961 0.85098 
1 0.701961 0.85098 1 0.701961 0.85098 
1 0.701961 0.85098 1 0.701961 0.85098 
1 0.701961 0.85098 1 0.701961 0.85098 
1 0.701961 0.85098 1 0.701961 0.85098 
1 0.701961 0.85098 1 0.701961 0.85098 
1 0.701961 0.85098 1 0.701961 0.85098 
1 0.701961 0.85098 1 0.701961 0.85098 
1 0.701961 0.85098 1 0.701961 0.85098 
1 0.701961 0.85098 1 0.701961 0.85098 
1 0.701961 0.85098 1 0.701961 0.85098 
1 0.701961 0.85098 1 0.701961 0.85098 
1 0.701961 0.85098 1 0.701961 0.85098 
1 0.701961 0.85098 1 0.701961 0.85098 
1 0.701961 0.85098 1 0.701961 0.85098 
1 0.701961 0.85098 1 0.701961 0.85098 
1 0.701961 0.85098 1 0.701961 0.85098 
1 0.701961 0.85098 1 0.701961 0.85098 
1 0.701961 0.85098 1 0.701961 0.85098 
1 0.701961 0.85098 1 0.701961 0.85098 
1 0.701961 0.85098 1 0.701961 0.85098 
1 0.701961 0.85098 1 0.701961 0.85098 
1 0.701961 0.85098 1 0.701961 0.85098 
1 0.701961 0.85098 1 0.701961 0.85098 
1 0.701961 0.85098 1 0.701961 0.85098 
1 0.701961 0.85098 1 0.701961 0.85098 
1 0.701961 0.85098 1 0.701961 0.85098 
1 0.701961 0.85098 1 0.701961 0.85098 
1 0.701961 0.85098 1 0.701961 0.85098 
1 0.701961 0.85098 1 0.701961 0.85098 
1 0.701961 0.85098 1 0.701961 0.85098 
1 0.701961 0.85098 1 0.701961 0.85098 
1 0.701961 0.85098 1 0.701961 0.85098 
1 0.701961 0.85098 1 0.701961 0.85098 
1 0.701961 0.85098 1 0.701961 0.85098 
1 0.701961 0.85098 1 0.701961 0.85098 
1 0.701961 0.85098 1 0.701961 0.85098 
1 0.701961 0.85098 1 0.701961 0.85098 
1 0.701961 0.85098 1 0.701961 0.85098 
1 0.701961 0.85098 1 0.701961 0.85098 
1 0.701961 0.85098 1 0.701961 0.85098 
1 0.701961 0.85098 1 0.701961 0.85098 
1 0.701961 0.85098 1 0.701961 0.85098 
1 0.701961 0.85098 1 0.701961 0.85098 
1 0.701961 0.85098 1 0.701961 0.85098 
1 0.701961 0.85098 1 0.701961 0.85098 
1 0.701961 0.85098 1 0.701961 0.85098 
1 0.701961 0.85098 1 0.701961 0.85098 
1 0.701961 0.85098 1 0.701961 0.85098 
1 0.701961 0.85098 1 0.701961 0.85098 
1 0.701961 0.85098 1 0.701961 0.85098 
1 0.701961 0.85098 1 0.701961 0.85098 
1 0.701961 0.85098 1 0.701961 0.85098 
1 0.701961 0.85098 1 0.701961 0.85098 
1 0.701961 0.85098 1 0.701961 0.85098 
1 0.701961 0.85098 1 0.701961 0.85098 
1 0.701961 0.85098 1 0.701961 0.85098 
1 0.701961 0.85098 1 0.701961 0.85098 
1 0.701961 0.85098 1 0.701961 0.85098 
1 0.701961 0.85098 1 0.701961 0.85098 
1 0.701961 0.85098 1 0.701961 0.85098 
1 0.701961 0.85098 1 0.701961 0.85098 
1 0.701961 0.85098 1 0.701961 0.85098 
1 0.701961 0.85098 1 0.701961 0.85098 
1 0.701961 0.85098 1 0.701961 0.85098 
1 0.701961 0.85098 1 0.701961 0.85098 
1 0.701961 0.85098 1 0.701961 0.85098 
1 0.701961 0.85098 1 0.701961 0.85098 
1 0.701961 0.85098 1 0.701961 0.85098 
1 0.701961 0.85098 1 0.701961 0.85098 
1 0.701961 0.85098 1 0.701961 0.85098 
1 0.701961 0.85098 1 0.701961 0.85098 
1 0.701961 0.85098 1 0.701961 0.85098 
1 0.701961 0.85098 1 0.701961 0.85098 
1 0.701961 0.85098 1 0.701961 0.85098 
1 0.701961 0.85098 1 0.701961 0.85098 
1 0.701961 0.85098 1 0.701961 0.85098 
1 0.701961 0.85098 1 0.701961 0.85098 
1 0.701961 0.85098 1 0.701961 0.85098 
1 0.701961 0.85098 1 0.701961 0.85098 
1 0.701961 0.85098 1 0.701961 0.85098 
1 0.701961 0.85098 1 0.701961 0.85098 
1 0.701961 0.85098 1 0.701961 0.85098 
1 0.701961 0.85098 1 0.701961 0.85098 
1 0.701961 0.85098 1 0.701961 0.85098 
1 0.701961 0.85098 1 0.701961 0.85098 
1 0.701961 0.85098 1 0.701961 0.85098 
1 0.701961 0.85098 1 0.701961 0.85098 
1 0.701961 0.85098 1 0.701961 0.85098 
1 0.701961 0.85098 1 0.701961 0.85098 
1 0.701961 0.85098 1 0.701961 0.85098 
1 0.701961 0.85098 1 0.701961 0.85098 
1 0.701961 0.85098 1 0.701961 0.85098 
1 0.701961 0.85098 1 0.701961 0.85098 
1 0.701961 0.85098 1 0.701961 0.85098 
1 0.701961 0.85098 1 0.701961 0.85098 
1 0.701961 0.85098 1 0.701961 0.85098 
1 0.701961 0.85098 1 0.701961 0.85098 
1 0.701961 0.85098 1 0.701961 0.85098 
1 0.701961 0.85098 1 0.701961 0.85098 
1 0.701961 0.85098 1 0.701961 0.85098 
1 0.701961 0.85098 1 0.701961 0.85098 
1 0.701961 0.85098 1 0.701961 0.85098 
1 0.701961 0.85098 1 0.701961 0.85098 
1 0.701961 0.85098 1 0.701961 0.85098 
1 0.701961 0.85098 1 0.701961 0.85098 
1 0.701961 0.85098 1 0.701961 0.85098 
1 0.701961 0.85098 1 0.701961 0.85098 
1 0.701961 0.85098 1 0.701961 0.85098 
1 0.701961 0.85098 1 0.701961 0.85098 
1 0.701961 0.85098 1 0.701961 0.85098 
1 0.701961 0.85098 1 0.701961 0.85098 
1 0.701961 0.85098 1 0.701961 0.85098 
1 0.701961 0.85098 1 0.701961 0.85098 
1 0.701961 0.85098 1 0.701961 0.85098 
1 0.701961 0.85098 1 0.701961 0.85098 
1 0.701961 0.85098 1 0.701961 0.85098 
1 0.701961 0.85098 1 0.701961 0.85098 
1 0.701961 0.85098 1 0.701961 0.85098 
1 0.701961 0.85098 1 0.701961 0.85098 
1 0.701961 0.85098 1 0.701961 0.85098 
1 0.701961 0.85098 1 0.701961 0.85098 
1 0.701961 0.85098 1 0.701961 0.85098 
1 0.701961 0.85098 1 0.701961 0.85098 
1 0.701961 0.85098 1 0.701961 0.85098 
1 0.701961 0.85098 1 0.701961 0.85098 
1 0.701961 0.85098 1 0.701961 0.85098 
1 0.701961 0.85098 1 0.701961 0.85098 
1 0.701961 0.85098 1 0.701961 0.85098 
1 0.701961 0.85098 1 0.701961 0.85098 
1 0.701961 0.85098 1 0.701961 0.85098 
1 0.701961 0.85098 1 0.701961 0.85098 
1 0.701961 0.85098 1 0.701961 0.85098 
1 0.701961 0.85098 1 0.701961 0.85098 
1 0.701961 0.85098 1 0.701961 0.85098 
1 0.701961 0.85098 1 0.701961 0.85098 
1 0.701961 0.85098 1 0.701961 0.85098 
1 0.701961 0.85098 1 0.701961 0.85098 
1 0.701961 0.85098 1 0.701961 0.85098 
1 0.701961 0.85098 1 0.701961 0.85098 
1 0.701961 0.85098 1 0.701961 0.85098 
1 0.701961 0.85098 1 0.701961 0.85098 
1 0.701961 0.85098 1 0.701961 0.85098 
1 0.701961 0.85098 1 0.701961 0.85098 
1 0.701961 0.85098 1 0.701961 0.85098 
1 0.701961 0.85098 1 0.701961 0.85098 
1 0.701961 0.85098 1 0.701961 0.85098 
1 0.701961 0.85098 1 0.701961 0.85098 
1 0.701961 0.85098 1 0.701961 0.85098 
1 0.701961 0.85098 1 0.701961 0.85098 
1 0.701961 0.85098 1 0.701961 0.85098 
1 0.701961 0.85098 1 0.701961 0.85098 
1 0.701961 0.85098 1 0.701961 0.85098 
1 0.701961 0.85098 1 0.701961 0.85098 
1 0.701961 0.85098 1 0.701961 0.85098 
1 0.701961 0.85098 1 0.701961 0.85098 
1 0.701961 0.85098 1 0.701961 0.85098 
1 0.701961 0.85098 1 0.701961 0.85098 
1 0.701961 0.85098 1 0.701961 0.85098 
1 0.701961 0.85098 1 0.701961 0.85098 
1 0.701961 0.85098 1 0.701961 0.85098 
1 0.701961 0.85098 1 0.701961 0.85098 
1 0.701961 0.85098 1 0.701961 0.85098 
1 0.701961 0.85098 1 0.701961 0.85098 
1 0.701961 0.85098 1 0.701961 0.85098 
1 0.701961 0.85098 1 0.701961 0.85098 
1 0.701961 0.85098 1 0.701961 0.85098 
1 0.701961 0.85098 1 0.701961 0.85098 
1 0.701961 0.85098 1 0.701961 0.85098 
1 0.701961 0.85098 1 0.701961 0.85098 
1 0.701961 0.85098 1 0.701961 0.85098 
1 0.701961 0.85098 1 0.701961 0.85098 
1 0.701961 0.85098 1 0.701961 0.85098 
1 0.701961 0.85098 1 0.701961 0.85098 
1 0.701961 0.85098 1 0.701961 0.85098 
1 0.701961 0.85098 1 0.701961 0.85098 
1 0.701961 0.85098 1 0.701961 0.85098 
1 0.701961 0.85098 1 0.701961 0.85098 
1 0.701961 0.85098 1 0.701961 0.85098 
1 0.701961 0.85098 1 0.701961 0.85098 
1 0.701961 0.85098 1 0.701961 0.85098 
1 0.701961 0.85098 1 0.701961 0.85098 
1 0.701961 0.85098 1 0.701961 0.85098 
1 0.701961 0.85098 1 0.701961 0.85098 
1 0.701961 0.85098 1 0.701961 0.85098 
1 0.701961 0.85098 1 0.701961 0.85098 
1 0.701961 0.85098 1 0.701961 0.85098 
1 0.701961 0.85098 1 0.701961 0.85098 
1 0.701961 0.85098 1 0.701961 0.85098 
1 0.701961 0.85098 1 0.701961 0.85098 
1 0.701961 0.85098 1 0.701961 0.85098 
1 0.701961 0.85098 1 0.701961 0.85098 
1 0.701961 0.85098 1 0.701961 0.85098 
1 0.701961 0.85098 1 0.701961 0.85098 
1 0.701961 0.85098 1 0.701961 0.85098 
1 0.701961 0.85098 1 0.701961 0.85098 
1 0.701961 0.85098 1 0.701961 0.85098 
1 0.701961 0.85098 1 0.701961 0.85098 
1 0.701961 0.85098 1 0.701961 0.85098 
1 0.701961 0.85098 1 0.701961 0.85098 
1 0.701961 0.85098 1 0.701961 0.85098 
1 0.701961 0.85098 1 0.701961 0.85098 
1 0.701961 0.85098 1 0.701961 0.85098 
1 0.701961 0.85098 1 0.701961 0.85098 
1 0.701961 0.85098 1 0.701961 0.85098 
1 0.701961 0.85098 1 0.701961 0.85098 
1 0.701961 0.85098 1 0.701961 0.85098 
1 0.701961 0.85098 1 0.701961 0.85098 
1 0.701961 0.85098 1 0.701961 0.85098 
1 0.701961 0.85098 1 0.701961 0.85098 
1 0.701961 0.85098 1 0.701961 0.85098 
1 0.701961 0.85098 1 0.701961 0.85098 
1 0.701961 0.85098 1 0.701961 0.85098 
1 0.701961 0.85098 1 0.701961 0.85098 
1 0.701961 0.85098 
NORMALS Normals float
-0.716633 0.0384213 -0.696391 -0.818498 -0.21074 -0.534462 -0.296199 -0.0664379 -0.952813 
-0.283402 -0.378845 -0.881 -0.00882156 0.0962833 -0.995315 0.247726 -0.16349 -0.954936 
-0.703143 0.389752 -0.594713 -0.344908 0.4813 -0.805847 -0.287982 0.831455 -0.475131 
-0.114186 0.76834 -0.629774 -0.524796 -0.632158 -0.570058 -0.245794 -0.616593 -0.74793 
0.0754876 -0.551504 -0.83075 -0.965421 0.245499 -0.0877077 -0.780212 0.555409 -0.287733 
-0.449484 0.863423 -0.229049 0.180928 0.390394 -0.902695 0.383626 -0.251273 -0.888647 
0.319343 0.270397 -0.908243 0.00271571 0.801497 -0.597993 0.0747726 -0.718718 -0.69127 
-0.230046 -0.775193 -0.588349 -0.995061 0.0217608 -0.0968554 0.28837 -0.568346 -0.770601 
0.388991 -0.14763 -0.909336 -0.783972 0.620486 -0.0196495 -0.477963 0.876 -0.0646249 
0.414379 0.00617146 -0.910084 0.177085 0.413691 -0.893029 0.41197 0.0963752 -0.906086 
-0.0886994 0.84858 -0.521579 -0.206851 0.822179 -0.530315 0.114842 0.616653 -0.778813 
0.247635 0.53685 -0.806516 -0.162393 -0.748408 -0.64305 -0.785918 -0.501801 -0.361288 
0.500421 -0.453387 -0.737577 0.529093 -0.00513136 -0.848548 0.46726 0.209446 -0.858953 
-0.104347 0.8761 -0.470702 -0.418774 0.866089 -0.272981 0.205702 0.629365 -0.749391 
0.38997 0.519778 -0.760101 0.556731 0.339318 -0.75823 -0.00360239 0.878838 -0.477107 
0.194452 0.805836 -0.5593 -0.225258 -0.83869 -0.495841 -0.0392298 -0.861134 -0.506862 
-0.487023 -0.653224 -0.579747 -0.992283 0.113436 0.0500589 -0.930916 0.315957 0.183211 
-0.872083 0.479298 0.0987204 0.66467 -0.351506 -0.659285 0.615123 -0.229384 -0.754326 
0.699099 0.0613394 -0.712389 0.737525 0.0504324 -0.673434 0.511014 0.623688 -0.591505 
-0.263502 0.953476 -0.14646 0.159221 -0.841137 -0.516854 -0.454133 -0.78793 -0.415849 
-0.78183 -0.479929 -0.398008 -0.957468 -0.197824 -0.21005 -0.973855 0.159189 0.162066 
-0.798646 0.539244 0.267171 -0.600689 0.764916 0.232543 0.782098 -0.272405 -0.560463 
-0.443538 0.893964 0.0640576 0.837398 0.1052 -0.536374 0.759485 0.406217 -0.508104 
-0.267201 0.960435 -0.078538 -0.10969 0.978481 -0.174766 0.140102 0.896332 -0.420667 
0.462957 0.76882 -0.44112 0.699222 0.614423 -0.365477 -0.458276 -0.808495 -0.369214 
-0.891053 -0.402212 -0.210359 -0.985329 0.126866 0.114157 0.540398 -0.664196 -0.51654 
-0.917227 0.261922 0.300153 0.911834 0.160315 -0.377964 -0.312672 0.93681 0.156921 
0.934479 0.0587129 -0.351143 0.178432 0.959928 -0.216103 0.196078 0.970029 -0.143519 
0.564414 0.782219 -0.263764 0.795503 0.531346 -0.291282 0.140755 -0.860614 -0.489419 
-0.994123 -0.103563 0.0315325 -0.829582 0.4273 0.359456 -0.566267 0.761529 0.315303 
-0.469192 0.847562 0.247987 -0.199566 0.967315 0.156447 0.881233 0.43067 -0.194812 
0.35737 0.933312 -0.0348728 -0.310612 -0.880138 -0.358995 -0.441297 -0.794342 -0.417466 
-0.946594 -0.29765 -0.123951 -0.937096 0.335232 0.0973144 0.842185 -0.379659 -0.382863 
0.945875 -0.177617 -0.27161 0.168046 0.978113 0.1227 -0.362123 -0.866783 -0.342861 
-0.880862 -0.422697 -0.213093 -0.765968 -0.571023 -0.29534 -0.999642 -0.0203228 0.0173785 
0.644397 -0.658019 -0.389568 -0.251674 0.947645 0.196544 0.754235 0.643146 -0.132263 
-0.685268 -0.693565 -0.222206 -0.982221 -0.172139 -0.0749055 -0.96203 0.186448 0.199335 
-0.799576 0.548331 0.244972 -0.440386 0.84221 0.311035 -0.17783 0.9504 0.255178 
0.891138 0.432466 -0.137282 0.47891 0.877003 0.0388722 -0.260933 -0.871864 -0.414447 
0.165565 -0.888693 -0.427567 -0.680188 0.640097 0.35724 0.918119 -0.253527 -0.304601 
0.966615 -0.0582179 -0.249532 0.131274 0.97363 0.18658 0.431072 0.890712 0.144254 
-0.193177 -0.91659 -0.350066 -0.508332 -0.778286 -0.368605 0.331334 -0.897543 -0.290919 
-0.847037 -0.513665 -0.136661 0.453144 -0.80129 -0.390633 -0.993246 -0.0833218 0.0807471 
-0.435009 0.70202 0.563857 -0.247192 -0.958972 -0.138811 -0.406858 -0.890047 -0.205628 
-0.00381088 -0.968053 -0.250715 -0.770849 -0.615296 -0.164931 -0.568609 0.727295 0.384352 
0.78427 -0.526612 -0.328024 0.940398 0.313575 -0.13161 -0.113855 0.889812 0.441895 
0.737428 0.675229 -0.0162968 -0.796521 -0.601426 -0.061979 -0.758971 -0.650533 -0.0277405 
0.283451 -0.951692 -0.11806 -0.798215 0.477187 0.36762 -0.550288 0.731981 0.40173 
-0.398698 0.807162 0.43535 0.632746 -0.721188 -0.281992 0.874578 0.484812 0.00837318 
0.946942 0.278631 0.160204 0.843258 0.532939 0.0699489 0.0843608 0.90588 0.415049 
0.73196 0.638675 0.237336 -0.81214 -0.582818 -0.0274102 -0.312436 -0.940449 -0.133936 
0.283671 -0.956671 -0.0656662 -0.985723 -0.0529291 0.159838 0.448598 -0.878788 -0.162765 
-0.686492 0.557098 0.467301 0.997563 0.0634471 0.0290188 -0.0494253 0.87816 0.475806 
-0.372924 -0.914079 0.159335 -0.56479 -0.823567 0.0524435 0.0305433 -0.999532 -0.00148529 
0.581269 -0.796997 0.164079 -0.500561 0.737587 0.453215 -0.40065 0.737866 0.54317 
0.729714 -0.620247 -0.28777 0.994115 -0.106818 -0.0180358 0.938584 -0.288124 -0.189855 
0.985597 0.0647425 0.156228 -0.412689 0.721385 0.556139 0.10258 0.771057 0.628449 
-0.330341 -0.802243 0.497274 -0.644215 -0.578061 0.500832 0.0294599 -0.936759 0.348734 
0.257036 -0.864232 0.432476 -0.751424 -0.48983 0.442073 -0.907011 -0.364485 0.210905 
0.299218 -0.918024 0.260192 0.32535 -0.887026 0.327616 -0.90175 -0.112994 0.417228 
0.449275 -0.844981 0.290103 -0.814437 0.289061 0.503126 0.69093 -0.699382 -0.182976 
0.927075 -0.362892 -0.094027 0.522853 0.635732 0.567864 0.592506 0.691826 0.41269 
-0.438994 -0.423344 0.792505 0.0506579 -0.533354 0.844374 -0.5172 -0.400468 0.756393 
-0.282744 -0.267685 0.921086 0.277816 -0.627934 0.726992 -0.65655 -0.0454553 0.752912 
-0.642612 0.294767 0.707222 -0.512534 0.446615 0.733378 0.490976 -0.855489 0.164562 
0.509624 -0.855148 0.0948927 -0.357817 0.618872 0.69926 -0.320712 0.652506 0.686572 
0.701281 -0.712798 0.0111308 -0.433535 0.557743 0.707792 0.981465 0.0661832 0.179852 
-0.15265 -0.0941204 0.983788 0.125203 -0.536475 0.834577 0.446535 -0.78313 0.432797 
-0.23471 -0.00622334 0.972046 -0.204849 -0.0209437 0.978569 0.594543 -0.77338 0.220004 
0.894205 -0.434449 0.107942 -0.473249 0.446278 0.75952 -0.345682 0.378203 0.858759 
-0.333039 0.464574 0.820522 0.912326 -0.133189 0.387197 0.754414 0.545382 0.365264 
0.791002 0.371781 0.485895 -0.264459 0.721908 0.639461 0.0318077 0.712285 0.701169 
0.293342 -0.718869 0.630221 -0.232303 -0.0288954 0.972214 -0.111823 -0.249614 0.961867 
0.456465 -0.715557 0.528789 0.172091 -0.483123 0.858474 0.72143 -0.637401 0.270662 
0.770947 -0.207762 0.60206 -0.159542 0.0739208 0.98442 -0.340268 0.334801 0.878707 
0.456408 0.139113 0.878828 -0.0267858 0.342807 0.939024 0.385321 0.111224 0.916055 
0.209418 0.0534381 0.976365 0.614197 -0.450017 0.648265 0.652223 -0.623243 -0.431478 
0.0916748 -0.307795 -0.947026 0.85263 -0.513629 -0.0959591 0.232598 0.309718 -0.92194 
-0.376203 0.236356 -0.895884 0.827372 0.0878411 -0.554743 -0.17101 0.58025 -0.796283 
0.0877712 -0.676492 -0.731201 0.936623 -0.350314 0.00410641 -0.0874743 0.654142 -0.751296 
0.552591 0.461503 -0.694016 -0.037157 0.734759 -0.67731 -0.0326694 -0.607786 -0.793428 
-0.320474 0.0539929 -0.945717 0.0802549 -0.159986 -0.983851 0.27 -0.804823 -0.528546 
0.412901 -0.740056 -0.530877 -0.171732 -0.139332 -0.975241 0.435775 -0.843345 -0.314434 
0.317097 -0.77384 -0.548289 -0.247584 0.266008 -0.931634 0.645736 -0.762587 -0.038555 
0.9196 0.142855 -0.365963 0.101087 0.687432 -0.719179 -0.249882 0.685756 -0.683592 
-0.0227358 0.638638 -0.769171 0.747052 0.279147 -0.603316 0.652528 0.632453 -0.417385 
0.408085 0.812907 -0.415511 -0.409009 -0.325545 -0.852486 -0.411414 -0.82087 -0.396121 
-0.716851 -0.435994 -0.54409 -0.0232882 -0.869553 -0.49329 -0.619185 -0.114502 -0.776852 
-0.88205 -0.29211 -0.369674 -0.884757 -0.0833281 -0.458543 0.268039 -0.905087 -0.330109 
0.29949 -0.40861 -0.862174 0.420699 -0.86319 -0.279132 -0.690508 0.0541888 -0.721292 
-0.4756 0.26869 -0.837622 -0.345634 0.19347 -0.918208 -0.0490452 0.077774 -0.995764 
0.0410734 -0.256613 -0.965641 0.344867 -0.768656 -0.538734 0.380281 -0.876417 -0.295432 
-0.364135 0.435516 -0.823244 0.219683 -0.726436 -0.651176 0.391305 -0.883713 -0.256772 
-0.284811 0.231592 -0.930187 -0.337111 0.36628 -0.867292 -0.396515 0.425882 -0.813266 
0.889024 -0.457753 0.0098869 0.957323 -0.286257 0.0398578 0.986167 -0.165745 0.00197199 
0.995028 0.0413134 0.09062 0.982715 0.172815 0.0663789 0.431374 0.762939 -0.481497 
-0.353373 -0.935458 0.00679215 -0.739155 -0.669499 -0.0736261 0.0732632 -0.995003 -0.0678402 
-0.970536 -0.0531704 -0.235017 0.35583 -0.915865 -0.185948 -0.804369 0.339754 -0.487399 
0.595729 -0.803013 0.0166146 -0.399924 0.628977 -0.66667 0.826286 -0.528598 0.194515 
-0.411683 0.659086 -0.629383 -0.173107 0.745815 -0.643268 -0.25554 0.738059 -0.624474 
0.359465 0.706545 -0.609573 0.112592 0.841814 -0.527894 -0.174568 -0.938472 0.297986 
0.238141 -0.956648 0.167672 0.244955 -0.948746 0.199694 -0.727508 0.442831 -0.524054 
-0.519942 0.614075 -0.593778 0.64371 -0.72875 0.233583 0.94237 -0.265013 0.204223 
0.410491 -0.910514 0.0496051 -0.345331 0.734029 -0.584763 -0.494874 0.67962 -0.541494 
-0.277684 0.766678 -0.578875 -0.00264389 0.887478 -0.460842 0.264438 0.927638 -0.263743 
0.681222 0.687979 -0.250244 -0.873254 -0.483447 0.0608837 -0.54495 -0.81522 0.196077 
0.561006 -0.802516 0.203077 -0.480787 0.687322 -0.544456 0.866723 -0.383821 0.318548 
-0.197916 0.869595 -0.452364 0.937505 0.333711 0.0985986 -0.863417 -0.504488 0.0017632 
-0.94771 -0.282484 -0.148486 -0.988623 -0.12996 -0.0757235 -0.970195 -0.0313403 -0.240289 
-0.792104 0.42699 -0.436178 -0.680588 0.51814 -0.518007 -0.324953 0.864231 -0.384071 
0.730889 0.681809 -0.0306187 -0.0357206 0.951087 -0.306851 0.5454 0.832491 -0.097449 
-0.477779 -0.832312 0.281042 -0.0737837 -0.961667 0.264106 -0.788549 -0.604856 0.111083 
0.137102 -0.919462 0.3685 -0.888262 -0.448186 0.100603 -0.751362 0.559028 -0.350631 
-0.38768 0.823373 -0.414442 0.441375 0.891719 -0.10013 -0.618537 -0.741581 0.259748 
-0.935888 -0.347877 0.055632 -0.987009 0.135779 -0.0858958 0.331205 -0.85846 0.391598 
-0.869571 0.402191 -0.286512 -0.111142 0.930971 -0.347764 0.898673 0.417206 0.135373 
-0.151876 -0.898614 0.411615 -0.912995 -0.36817 0.175758 -0.662905 -0.690625 0.289127 
-0.997826 0.0658107 0.00362962 -0.470549 0.769655 -0.431526 -0.347872 0.888611 -0.298924 
0.932919 0.298347 0.201622 -0.0968719 -0.91936 0.381303 -0.902451 0.36081 -0.235368 
-0.887735 0.409717 -0.209899 -0.656703 0.628237 -0.417206 0.907194 -0.161228 0.388592 
0.00687991 0.968891 -0.247393 -0.551873 -0.756099 0.351783 -0.681304 -0.636348 0.361781 
-0.920751 -0.375791 0.104876 0.496769 -0.716312 0.490018 -0.892226 0.37693 -0.248712 
-0.564416 0.792256 -0.231875 0.00895154 0.997795 -0.0657618 0.512411 0.858678 -0.0103524 
-0.357586 -0.802896 0.476959 0.188884 -0.852596 0.48724 -0.9661 -0.239845 0.095529 
-0.988214 0.125521 -0.0876223 -0.971077 0.219064 -0.0949801 0.605127 -0.652009 0.456844 
-0.475265 0.879571 -0.021878 0.953109 0.189243 0.236158 -0.253651 0.959386 -0.123452 
0.850711 0.474777 0.225559 0.168837 0.974524 0.14764 0.369844 0.89457 0.250918 