# vtk DataFile Version 4.2
vtk output
ASCII
DATASET POLYDATA
POINTS 595 float
385.151 143.085 138.674 386.163 142.889 138.821 386.681 143.062 138.935 
386.521 142.851 138.932 386.738 142.891 139.079 385.375 143.957 138.394 
385.853 143.76 138.516 382.034 144.843 138.42 386.59 143.909 138.845 
386.846 143.659 139.096 380.928 146.045 138.215 382.759 145.669 138.081 
384.828 145.119 138.235 386.468 144.54 138.832 380.154 146.759 138.19 
385.733 145.579 138.586 386.132 145.887 138.902 386.464 145.586 139.107 
379.443 149.1 138.049 384.847 147.736 138.969 377.594 150.215 138.37 
381.216 150.142 138.429 384.315 142.605 139.493 386.314 142.666 139.001 
386.118 142.556 139.131 386.576 142.704 139.08 386.425 142.585 139.192 
386.689 142.74 139.267 383.547 142.923 139.197 386.854 143.008 139.256 
386.957 143.399 139.411 379.727 144.707 139.514 380.653 144.971 138.794 
386.946 143.918 139.337 386.822 145.004 139.534 385.977 146.411 139.01 
376.217 148.636 139.268 386.479 146.231 139.632 377.182 149.099 138.632 
384.864 148.504 139.782 375.26 151.541 139.041 382.278 150.987 139.394 
382.862 150.856 139.681 383.216 150.6 139.799 372.588 154.174 139.685 
372.234 153.644 140.049 371.939 154.367 140.097 373.164 154.391 139.387 
374.41 154.125 139.121 378.264 153.184 139.142 380.093 153.25 139.924 
372.185 155.14 139.751 373.489 155.036 139.289 374.356 156.331 139.488 
376.3 156.512 140.131 371.117 157.487 139.975 372.061 157.5 139.688 
372.605 157.283 139.598 375.731 157.104 140.204 371.525 158.282 139.889 
371.758 158.612 139.947 373.166 158.232 139.876 373.793 158.126 139.995 
372.251 158.686 139.973 383.876 142.612 139.814 383.352 142.725 139.825 
384.418 142.556 139.857 386.495 142.595 139.363 381.806 143.333 140.115 
382.905 142.941 139.658 386.626 142.722 139.477 386.923 143.232 139.702 
387.042 143.479 139.679 387.047 143.396 139.766 378.319 145.45 140.41 
386.971 143.912 139.694 387.029 143.555 139.804 377.814 145.82 140.623 
377.304 146.258 140.468 376.412 147.06 140.479 376.565 147.529 139.687 
386.488 146.288 139.876 374.333 149.569 140.489 373.421 150.6 140.769 
384.531 149.089 140.109 383.001 150.952 139.991 372.032 152.85 140.639 
381.643 152.228 140.083 382.84 151.216 140.385 380.541 153.127 140.119 
370.712 156.177 140.607 378.431 155.039 140.252 376.854 156.35 140.258 
370.211 157.906 140.725 369.842 157.681 141.164 377.479 156.283 140.74 
375.579 157.908 140.67 369.814 159.677 141.039 369.357 160.012 141.375 
373.525 159.431 140.624 369.693 160.24 141.187 369.841 160.724 141.32 
371.891 160.712 141.163 383.558 142.707 140.068 384.107 142.664 140.134 
385.49 142.606 139.89 381.855 143.34 140.404 382.231 143.235 140.549 
384.987 142.858 140.418 379.612 144.658 140.838 380.935 144.028 140.856 
385.815 143.097 140.352 386.739 143.277 139.945 386.968 143.405 139.851 
386.838 143.669 139.994 378.982 145.029 140.927 377.867 145.818 140.989 
386.64 144.969 140.168 376.794 146.672 141.002 375.382 148.152 140.883 
386.401 146.25 140.148 386.161 146.366 140.471 386.306 145.955 140.444 
384.837 148.543 140.611 372.07 152.476 140.926 371.983 152.422 141.386 
383.18 150.838 140.631 371.468 153.733 141.131 370.684 155.38 141.171 
370.61 155.224 141.699 379.933 153.961 140.904 369.563 157.804 141.61 
369.014 159.265 141.808 368.838 159.134 142.245 376.467 157.591 141.414 
374.534 159.377 141.148 375.415 158.661 141.391 368.995 160.543 141.778 
368.625 161.357 142.267 370.368 162.012 142.057 382.506 143.331 140.763 
383.164 143.282 140.822 384.066 143.274 140.847 384.856 143.159 140.683 
380.066 144.483 141.047 382.602 143.727 141.107 384.453 143.945 141.287 
385.493 143.49 140.695 378.843 145.21 141.098 380.046 144.793 141.296 
384.836 144.089 141.254 377.74 146.004 141.165 377.703 146.299 141.418 
386.247 145.353 140.575 376.048 147.686 141.671 375.519 148.065 141.497 
384.199 148.513 141.314 372.308 151.829 141.752 370.933 154.537 142.091 
369.35 157.844 142.242 368.332 160.455 142.734 368.239 161.062 142.719 
368.533 162.7 142.96 371.27 162.837 143.034 370.089 163.131 142.916 
382.214 144.96 141.766 384.49 144.406 141.433 378.433 146.984 142.231 
376.528 147.675 142.039 384.738 146.279 141.447 375.629 148.62 142.428 
376.529 148.764 142.918 373.741 150.288 142.626 372.763 151.315 142.531 
381.442 150.657 142.529 371.955 152.575 142.499 379.998 153.402 142.313 
380.333 152.719 142.507 370.713 155.219 143.066 370.279 155.856 142.697 
378.415 155.537 142.374 376.125 158.198 142.598 368.142 160.518 143.328 
367.788 162.012 143.75 373.278 161.249 142.574 367.753 163.408 144.295 
370.278 163.599 143.415 371.57 163.128 143.618 369.866 164.01 143.768 
373.59 150.551 142.769 379.169 150.415 143.563 372.672 151.561 142.728 
379.729 151.904 143.226 372.119 153.086 143.356 371.383 154.476 143.495 
378.396 154.708 143.216 368.433 159.633 143.79 375.9 158.284 143.288 
367.914 161.108 144.413 374.458 160.106 143.793 367.623 162.275 144.301 
367.514 162.935 144.566 372.476 162.521 143.853 372.34 162.739 144.295 
367.618 163.898 144.776 368.935 164.253 144.111 370.082 164.34 144.25 
367.842 164.423 145.02 375.03 151.051 143.796 378.009 150.653 143.791 
374.181 151.777 143.939 375.518 151.613 144.205 376.129 151.694 144.26 
372.699 152.465 143.467 378.407 151.899 143.821 372.021 154.032 143.955 
378.723 153.387 143.455 372.584 154.456 144.573 376.083 155.138 144.62 
375.991 155.963 144.524 368.611 159.867 144.951 367.28 163.159 145.264 
367.191 163.676 145.362 367.088 163.945 145.664 367.117 164.296 145.852 
371.124 163.964 144.717 367.758 164.838 145.559 369.97 164.828 145.015 
370.415 164.593 145.053 368.551 165.198 145.654 375.101 153.45 144.755 
373.873 155.375 145.143 374.203 156.435 145.348 374.635 157.225 145.148 
375.202 157.51 144.687 369.279 158.903 145.047 374.4 158.725 145.031 
373.843 159.985 145.004 372.296 162.579 145.537 371.281 163.835 145.694 
367.398 165.032 146.318 368.771 165.419 146.238 371.17 157.787 145.529 
373.003 157.514 145.679 370.245 159.39 146.111 370.855 159.408 146.345 
373.17 158.638 145.773 370.042 160.274 146.556 369.294 160.705 146.466 
367.033 163.628 146.4 367.151 163.552 146.77 366.859 164.086 146.574 
366.82 164.2 146.821 366.795 164.327 146.723 366.901 164.401 146.489 
366.834 164.496 146.769 367.034 164.726 146.778 367.273 165.04 146.923 
367.824 165.519 146.975 368.673 165.563 146.658 369.747 165.05 146.463 
367.967 165.607 146.864 368.459 165.64 146.808 370.965 160.449 146.819 
368.762 161.467 146.716 367.117 163.741 146.964 367.765 163.019 147.025 
366.823 164.402 146.893 366.929 164.233 147.004 366.873 164.555 146.888 
366.991 164.541 147.044 370.714 164.132 146.761 367.27 164.86 147.155 
367.376 165.122 147.072 370.398 164.393 146.909 368.065 165.578 147.038 
368.247 165.441 147.231 368.387 165.59 147.009 368.663 165.555 146.883 
369.091 165.236 147.09 371.246 161.339 146.974 367.149 164.33 147.207 
370.197 163.647 147.465 369.737 163.926 147.659 367.179 164.585 147.225 
367.466 164.547 147.381 370.019 164.116 147.455 367.606 164.954 147.397 
367.762 165.195 147.376 367.88 165.05 147.5 369.469 164.739 147.397 
368.054 165.241 147.416 368.477 165.187 147.423 369.017 165.035 147.364 
369.485 163.289 147.727 368.894 163.919 147.762 368.313 164.57 147.67 
368.791 164.399 147.732 368.814 164.165 307.369 369.039 163.802 307.397 
369.367 163.881 307.368 368.666 164.423 307.425 368.46 164.519 307.57 
368.939 164.45 307.387 369.463 164.133 307.39 369.291 164.426 307.421 
369.409 164.638 307.588 369.552 162.749 307.671 369.503 162.234 307.847 
370.175 162.584 307.723 371.093 162.309 308.03 368.354 163.187 307.892 
368.548 162.711 308.018 371.412 162.442 308.271 370.246 163.478 307.662 
370.728 163.435 307.942 368.168 164.367 307.794 371.042 163.615 308.249 
368.028 164.717 307.995 367.868 164.755 308.182 368.373 164.807 307.817 
369.025 165.198 308.149 369.557 160.991 308.48 369.127 161.158 308.618 
371.158 161.521 308.2 367.44 163.406 308.838 371.599 163.122 308.648 
367.419 164.311 308.85 371.029 163.853 308.39 369.972 164.726 308.121 
370.945 164.116 308.663 368.096 165.365 308.773 368.322 165.362 308.366 
368.663 165.413 308.337 368.956 165.418 308.458 369.41 165.236 308.659 
368.242 165.453 308.595 368.741 165.516 308.558 371.91 157.847 309.502 
373.792 157.656 309.698 372.45 158.865 309.25 374.562 157.977 310.008 
373.504 159.087 309.598 370.38 160.372 308.623 370.992 160.313 308.632 
372.147 161.116 308.877 368.028 161.425 309.556 373.226 161.154 309.915 
367.305 163.479 309.264 372.182 162.546 309.18 367.289 163.981 309.158 
372.269 162.775 309.614 368.095 165.26 309.205 369.084 165.377 309.125 
369.598 165.201 309.234 372.609 156.001 310.158 370.212 157.671 310.273 
374.574 158.438 310.087 374.929 158.587 310.449 374.837 159.151 310.65 
367.573 161.931 310.38 373.162 161.589 310.15 367.286 163.295 309.779 
373.212 161.769 310.674 367.334 164.311 309.764 367.441 164.593 309.847 
367.58 164.812 309.721 368.403 165.199 309.738 374.067 151.458 311.754 
378.448 150.758 311.537 373.761 152.843 311.229 375.562 152.535 311.051 
379.151 151.965 311.759 376.065 153.247 310.973 376.633 153.92 311.077 
377.308 153.632 311.283 378.073 154.716 311.9 368.158 159.977 311.233 
375.089 159.199 311.071 367.887 160.692 311.373 374.164 160.527 311.09 
375.111 159.44 311.546 373.669 161.261 311.224 372.739 162.441 310.787 
372.246 163.025 310.93 367.454 164.356 310.125 367.694 164.142 310.672 
367.851 164.608 310.522 370.519 164.625 310.475 367.913 164.84 310.261 
376.304 149.155 312.204 378.686 148.915 312.067 373.908 150.23 312.777 
374.886 150.331 312.049 373.099 151.537 312.387 378.518 154.824 312.269 
376.317 157.564 311.672 368.545 158.946 311.759 367.945 160.745 312.018 
367.74 161.35 311.505 375.077 159.636 312.226 368.272 164.191 311.356 
368.095 164.757 310.556 368.469 164.41 311.221 368.931 164.418 311.313 
369.186 164.731 310.813 381.088 145.218 313.416 382.613 145.167 313.404 
383.759 144.989 313.568 384.217 145.703 313.587 384.631 146.563 313.796 
[...]
POINT_DATA 595
COLOR_SCALARS scalars 3
1 0.478431 1 1 0.478431 1 1 0.478431 1 
1 0.478431 1 1 0.478431 1 
1 0.478431 1 1 0.478431 1 
1 0.478431 1 1 0.478431 1 
1 0.478431 1 1 0.478431 1 
1 0.478431 1 1 0.478431 1 
1 0.478431 1 1 0.478431 1 
1 0.478431 1 1 0.478431 1 
1 0.478431 1 1 0.478431 1 
1 0.478431 1 1 0.478431 1 
1 0.478431 1 1 0.478431 1 
1 0.478431 1 1 0.478431 1 
1 0.478431 1 1 0.478431 1 
1 0.478431 1 1 0.478431 1 
1 0.478431 1 1 0.478431 1 
1 0.478431 1 1 0.478431 1 
1 0.478431 1 1 0.478431 1 
1 0.478431 1 1 0.478431 1 
1 0.478431 1 1 0.478431 1 
1 0.478431 1 1 0.478431 1 
1 0.478431 1 1 0.478431 1 
1 0.478431 1 1 0.478431 1 
1 0.478431 1 1 0.478431 1 
1 0.478431 1 1 0.478431 1 
1 0.478431 1 1 0.478431 1 
1 0.478431 1 1 0.478431 1 
1 0.478431 1 1 0.478431 1 
1 0.478431 1 1 0.478431 1 
1 0.478431 1 1 0.478431 1 
1 0.478431 1 1 0.478431 1 
1 0.478431 1 1 0.478431 1 
1 0.478431 1 1 0.478431 1 
1 0.478431 1 1 0.478431 1 
1 0.478431 1 1 0.478431 1 
1 0.478431 1 1 0.478431 1 
1 0.478431 1 1 0.478431 1 
1 0.478431 1 1 0.478431 1 
1 0.478431 1 1 0.478431 1 
1 0.478431 1 1 0.478431 1 
1 0.478431 1 1 0.478431 1 
1 0.478431 1 1 0.478431 1 
1 0.478431 1 1 0.478431 1 
1 0.478431 1 1 0.478431 1 
1 0.478431 1 1 0.478431 1 
1 0.478431 1 1 0.478431 1 
1 0.478431 1 1 0.478431 1 
1 0.478431 1 1 0.478431 1 
1 0.478431 1 1 0.478431 1 
1 0.478431 1 1 0.478431 1 
1 0.478431 1 1 0.478431 1 
1 0.478431 1 1 0.478431 1 
1 0.478431 1 1 0.478431 1 
1 0.478431 1 1 0.478431 1 
1 0.478431 1 1 0.478431 1 
1 0.478431 1 1 0.478431 1 
1 0.478431 1 1 0.478431 1 
1 0.478431 1 1 0.478431 1 
1 0.478431 1 1 0.478431 1 
1 0.478431 1 1 0.478431 1 
1 0.478431 1 1 0.478431 1 
1 0.478431 1 1 0.478431 1 
1 0.478431 1 1 0.478431 1 
1 0.478431 1 1 0.478431 1 
1 0.478431 1 1 0.478431 1 
1 0.478431 1 1 0.478431 1 
1 0.478431 1 1 0.478431 1 
1 0.478431 1 1 0.478431 1 
1 0.478431 1 1 0.478431 1 
1 0.478431 1 1 0.478431 1 
1 0.478431 1 1 0.478431 1 
1 0.478431 1 1 0.478431 1 
1 0.478431 1 1 0.478431 1 
1 0.478431 1 1 0.478431 1 
1 0.478431 1 1 0.478431 1 
1 0.478431 1 1 0.478431 1 
1 0.478431 1 1 0.478431 1 
1 0.478431 1 1 0.478431 1 
1 0.478431 1 1 0.478431 1 
1 0.478431 1 1 0.478431 1 
1 0.478431 1 1 0.478431 1 
1 0.478431 1 1 0.478431 1 
1 0.478431 1 1 0.478431 1 
1 0.478431 1 1 0.478431 1 
1 0.478431 1 1 0.478431 1 
1 0.478431 1 1 0.478431 1 
1 0.478431 1 1 0.478431 1 
1 0.478431 1 1 0.478431 1 
1 0.478431 1 1 0.478431 1 
1 0.478431 1 1 0.478431 1 
1 0.478431 1 1 0.478431 1 
1 0.478431 1 1 0.478431 1 
1 0.478431 1 1 0.478431 1 
1 0.478431 1 1 0.478431 1 
1 0.478431 1 1 0.478431 1 
1 0.478431 1 1 0.478431 1 
1 0.478431 1 1 0.478431 1 
1 0.478431 1 1 0.478431 1 
1 0.478431 1 1 0.478431 1 
1 0.478431 1 1 0.478431 1 
1 0.478431 1 1 0.478431 1 
1 0.478431 1 1 0.478431 1 
1 0.478431 1 1 0.478431 1 
1 0.478431 1 1 0.478431 1 
1 0.478431 1 1 0.478431 1 
1 0.478431 1 1 0.478431 1 
1 0.478431 1 1 0.478431 1 
1 0.478431 1 1 0.478431 1 
1 0.478431 1 1 0.478431 1 
1 0.478431 1 1 0.478431 1 
1 0.478431 1 1 0.478431 1 
1 0.478431 1 1 0.478431 1 
1 0.478431 1 1 0.478431 1 
1 0.478431 1 1 0.478431 1 
1 0.478431 1 1 0.478431 1 
1 0.478431 1 1 0.478431 1 
1 0.478431 1 1 0.478431 1 
1 0.478431 1 1 0.478431 1 
1 0.478431 1 1 0.478431 1 
1 0.478431 1 1 0.478431 1 
1 0.478431 1 1 0.478431 1 
1 0.478431 1 1 0.478431 1 
1 0.478431 1 1 0.478431 1 
1 0.478431 1 1 0.478431 1 
1 0.478431 1 1 0.478431 1 
1 0.478431 1 1 0.478431 1 
1 0.478431 1 1 0.478431 1 
1 0.478431 1 1 0.478431 1 
1 0.478431 1 1 0.478431 1 
1 0.478431 1 1 0.478431 1 
1 0.478431 1 1 0.478431 1 
1 0.478431 1 1 0.478431 1 
1 0.478431 1 1 0.478431 1 
1 0.478431 1 1 0.478431 1 
1 0.478431 1 1 0.478431 1 
1 0.478431 1 1 0.478431 1 
1 0.478431 1 1 0.478431 1 
1 0.478431 1 1 0.478431 1 
1 0.478431 1 1 0.478431 1 
1 0.478431 1 1 0.478431 1 
1 0.478431 1 1 0.478431 1 
1 0.478431 1 1 0.478431 1 
1 0.478431 1 1 0.478431 1 
1 0.478431 1 1 0.478431 1 
1 0.478431 1 1 0.478431 1 
1 0.478431 1 1 0.478431 1 
1 0.478431 1 1 0.478431 1 
1 0.478431 1 1 0.478431 1 
1 0.478431 1 1 0.478431 1 
1 0.478431 1 1 0.478431 1 
1 0.478431 1 1 0.478431 1 
1 0.478431 1 1 0.478431 1 
1 0.478431 1 1 0.478431 1 
1 0.478431 1 1 0.478431 1 
1 0.478431 1 1 0.478431 1 
1 0.478431 1 1 0.478431 1 
1 0.478431 1 1 0.478431 1 
1 0.478431 1 1 0.478431 1 
1 0.478431 1 1 0.478431 1 
1 0.478431 1 1 0.478431 1 
1 0.478431 1 1 0.478431 1 
1 0.478431 1 1 0.478431 1 
1 0.478431 1 1 0.478431 1 
1 0.478431 1 1 0.478431 1 
1 0.478431 1 1 0.478431 1 
1 0.478431 1 1 0.478431 1 
1 0.478431 1 1 0.478431 1 
1 0.478431 1 1 0.478431 1 
1 0.478431 1 1 0.478431 1 
1 0.478431 1 1 0.478431 1 
1 0.478431 1 1 0.478431 1 
1 0.478431 1 1 0.478431 1 
1 0.478431 1 1 0.478431 1 
1 0.478431 1 1 0.478431 1 
1 0.478431 1 1 0.478431 1 
1 0.478431 1 1 0.478431 1 
1 0.478431 1 1 0.478431 1 
1 0.478431 1 1 0.478431 1 
1 0.478431 1 1 0.478431 1 
1 0.478431 1 1 0.478431 1 
1 0.478431 1 1 0.478431 1 
1 0.478431 1 1 0.478431 1 
1 0.478431 1 1 0.478431 1 
1 0.478431 1 1 0.478431 1 
1 0.478431 1 1 0.478431 1 
1 0.478431 1 1 0.478431 1 
1 0.478431 1 1 0.478431 1 
1 0.478431 1 1 0.478431 1 
1 0.478431 1 1 0.478431 1 
1 0.478431 1 1 0.478431 1 
1 0.478431 1 1 0.478431 1 
1 0.478431 1 1 0.478431 1 
1 0.478431 1 1 0.478431 1 
1 0.478431 1 1 0.478431 1 
1 0.478431 1 1 0.478431 1 
1 0.478431 1 1 0.478431 1 
1 0.478431 1 1 0.478431 1 
1 0.478431 1 1 0.478431 1 
1 0.478431 1 1 0.478431 1 
1 0.478431 1 1 0.478431 1 
1 0.478431 1 1 0.478431 1 
1 0.478431 1 1 0.478431 1 
1 0.478431 1 1 0.478431 1 
1 0.478431 1 1 0.478431 1 
1 0.478431 1 1 0.478431 1 
1 0.478431 1 1 0.478431 1 
1 0.478431 1 1 0.478431 1 
1 0.478431 1 1 0.478431 1 
1 0.478431 1 1 0.478431 1 
1 0.478431 1 1 0.478431 1 
1 0.478431 1 1 0.478431 1 
1 0.478431 1 1 0.478431 1 
1 0.478431 1 1 0.478431 1 
1 0.478431 1 1 0.478431 1 
1 0.478431 1 1 0.478431 1 
1 0.478431 1 1 0.478431 1 
1 0.478431 1 1 0.478431 1 
1 0.478431 1 1 0.478431 1 
1 0.478431 1 1 0.478431 1 
1 0.478431 1 1 0.478431 1 
1 0.478431 1 1 0.478431 1 
1 0.478431 1 1 0.478431 1 
1 0.478431 1 1 0.478431 1 
1 0.478431 1 1 0.478431 1 
1 0.478431 1 1 0.478431 1 
1 0.478431 1 1 0.478431 1 
1 0.478431 1 1 0.478431 1 
1 0.478431 1 1 0.478431 1 
1 0.478431 1 1 0.478431 1 
1 0.478431 1 1 0.478431 1 
1 0.478431 1 1 0.478431 1 
1 0.478431 1 1 0.478431 1 
1 0.478431 1 1 0.478431 1 
1 0.478431 1 1 0.478431 1 
1 0.478431 1 1 0.478431 1 
1 0.478431 1 1 0.478431 1 
1 0.478431 1 1 0.478431 1 
1 0.478431 1 1 0.478431 1 
1 0.478431 1 1 0.478431 1 
1 0.478431 1 1 0.478431 1 
1 0.478431 1 1 0.478431 1 
1 0.478431 1 1 0.478431 1 
1 0.478431 1 1 0.478431 1 
1 0.478431 1 1 0.478431 1 
1 0.478431 1 1 0.478431 1 
1 0.478431 1 1 0.478431 1 
1 0.478431 1 1 0.478431 1 
1 0.478431 1 1 0.478431 1 
1 0.478431 1 1 0.478431 1 
1 0.478431 1 1 0.478431 1 
1 0.478431 1 1 0.478431 1 
1 0.478431 1 1 0.478431 1 
1 0.478431 1 1 0.478431 1 
1 0.478431 1 1 0.478431 1 
1 0.478431 1 1 0.478431 1 
1 0.478431 1 1 0.478431 1 
1 0.478431 1 1 0.478431 1 
1 0.478431 1 1 0.478431 1 
1 0.478431 1 1 0.478431 1 
1 0.478431 1 1 0.478431 1 
1 0.478431 1 1 0.478431 1 
1 0.478431 1 1 0.478431 1 
1 0.478431 1 1 0.478431 1 
1 0.478431 1 1 0.478431 1 
1 0.478431 1 1 0.478431 1 
1 0.478431 1 1 0.478431 1 
1 0.478431 1 1 0.478431 1 
1 0.478431 1 1 0.478431 1 
1 0.478431 1 1 0.478431 1 
1 0.478431 1 1 0.478431 1 
1 0.478431 1 1 0.478431 1 
1 0.478431 1 1 0.478431 1 
1 0.478431 1 1 0.478431 1 
1 0.478431 1 1 0.478431 1 
1 0.478431 1 1 0.478431 1 
1 0.478431 1 1 0.478431 1 
1 0.478431 1 1 0.478431 1 
1 0.478431 1 1 0.478431 1 
1 0.478431 1 1 0.478431 1 
1 0.478431 1 1 0.478431 1 
1 0.478431 1 1 0.478431 1 
1 0.478431 1 1 0.478431 1 
1 0.478431 1 1 0.478431 1 
1 0.478431 1 1 0.478431 1 
1 0.478431 1 1 0.478431 1 
1 0.478431 1 1 0.478431 1 
1 0.478431 1 1 0.478431 1 
1 0.478431 1 1 0.478431 1 
1 0.478431 1 1 0.478431 1 
1 0.478431 1 1 0.478431 1 
1 0.478431 1 1 0.478431 1 
1 0.478431 1 1 0.478431 1 
1 0.478431 1 1 0.478431 1 
1 0.478431 1 1 0.478431 1 
1 0.478431 1 1 0.478431 1 
1 0.478431 1 1 0.478431 1 
1 0.478431 1 1 0.478431 1 
1 0.478431 1 1 0.478431 1 

NORMALS Normals float
-0.0695658 -0.45249 -0.889052 0.162276 -0.391761 -0.905643 0.622456 -0.161322 -0.765848 
0.38812 -0.458255 -0.799603 0.738567 -0.450018 -0.501999 0.0367648 -0.202168 -0.97866 
0.301439 -0.0482342 -0.952265 -0.168813 -0.361892 -0.916808 0.584883 0.033916 -0.810408 
0.858035 0.000609541 -0.51359 -0.248025 -0.27776 -0.92808 -0.0922916 -0.198046 -0.975838 
0.123307 0.0276015 -0.991985 0.575899 0.160742 -0.801563 -0.322139 -0.288255 -0.90174 
0.424061 0.19152 -0.885151 0.646434 0.296472 -0.703013 0.695519 0.218375 -0.684519 
-0.0770164 -0.0871143 -0.993217 0.50275 0.442816 -0.742399 -0.217477 0.0897736 -0.971928 
0.214608 0.366675 -0.905258 -0.100501 -0.975383 -0.196285 0.172462 -0.721756 -0.670317 
-0.0191072 -0.892815 -0.450017 0.498453 -0.707639 -0.500791 0.332593 -0.904889 -0.265626 
0.705278 -0.703563 -0.0870755 -0.283038 -0.76423 -0.579518 0.934535 -0.309878 -0.174987 
0.969512 -0.182835 -0.16315 -0.50857 -0.760008 -0.404653 -0.324951 -0.421194 -0.84676 
0.910326 0.120446 -0.395978 0.979191 0.202592 0.0118503 0.506571 0.404059 -0.761657 
-0.482272 -0.343799 -0.805739 0.811816 0.44079 -0.38296 -0.351043 -0.265921 -0.897805 
0.793454 0.586199 -0.163708 -0.266019 -0.0392783 -0.963167 0.459216 0.548101 -0.699075 
0.479461 0.673236 -0.562913 0.715549 0.560518 -0.416904 -0.461367 -0.146599 -0.875014 
-0.546566 -0.2983 -0.782485 -0.737929 -0.240512 -0.630567 -0.331139 -0.192583 -0.92372 
-0.163576 -0.0574487 -0.984857 0.207224 0.317765 -0.925248 0.526582 0.579528 -0.62198 
-0.536359 -0.0946744 -0.838663 -0.227175 0.073925 -0.971044 0.170265 0.323499 -0.930784 
0.342866 0.553388 -0.759081 -0.480461 -0.0936195 -0.872005 -0.156598 0.0747426 -0.98483 
-0.0386486 0.109285 -0.993259 0.547656 0.520239 -0.655304 -0.26728 0.239842 -0.933294 
-0.108298 0.483204 -0.868784 0.0858105 0.322307 -0.942738 0.282825 0.452178 -0.845899 
0.0800493 0.456829 -0.885946 -0.169035 -0.984972 -0.0354568 -0.323197 -0.944176 -0.0638286 
-0.0156277 -0.985497 0.168971 0.238844 -0.936521 0.256673 -0.464467 -0.876789 -0.124545 
-0.422714 -0.899248 -0.112544 0.69937 -0.621077 0.353758 0.793161 -0.584947 0.169507 
0.977288 -0.0932585 -0.19029 0.917305 -0.308751 0.251442 -0.616246 -0.781347 -0.0986814 
0.979075 0.169916 0.111988 0.894654 0.0927949 0.437016 -0.62526 -0.772713 -0.109382 
-0.613612 -0.749298 -0.249065 -0.693482 -0.70842 -0.131237 -0.557123 -0.543894 -0.62753 
0.90913 0.360703 0.208269 -0.755932 -0.58311 -0.297572 -0.73142 -0.509835 -0.452872 
0.764109 0.643247 -0.0486939 0.640355 0.701053 -0.313799 -0.806225 -0.355534 -0.47286 
0.547128 0.701421 -0.456793 0.636786 0.747751 -0.188076 0.482632 0.533716 -0.694416 
-0.801942 -0.212163 -0.558459 0.597582 0.618062 -0.51078 0.403491 0.629186 -0.664319 
-0.696658 0.0295716 -0.716793 -0.79247 -0.288354 -0.537441 0.605264 0.700336 -0.378397 
0.541814 0.504793 -0.672028 -0.533437 0.0427564 -0.844758 -0.633737 0.122775 -0.763743 
0.261101 0.538822 -0.800935 -0.407612 0.26197 -0.874771 -0.317113 0.386899 -0.86588 
0.0449212 0.612758 -0.788993 -0.218441 -0.898863 0.379906 -0.061263 -0.863516 0.500586 
0.218137 -0.776624 0.590992 -0.414027 -0.759445 0.501822 -0.286977 -0.886862 0.362106 
0.152496 -0.76735 0.622832 -0.447882 -0.828633 0.335811 -0.365113 -0.782476 0.504404 
0.285078 -0.637136 0.716092 0.412272 -0.405915 0.815638 0.628358 -0.334713 0.702235 
0.68666 0.0354885 0.726112 -0.529218 -0.833863 0.156846 -0.393011 -0.751076 0.530497 
0.694979 -0.0784036 0.714743 -0.440708 -0.723921 0.530768 -0.731187 -0.673003 -0.111503 
0.867669 0.300328 0.396174 0.73459 0.382447 0.560456 0.81607 0.134129 0.562174 
0.761513 0.486448 0.428331 -0.839203 -0.438093 -0.3222 -0.89405 -0.436523 -0.100605 
0.734013 0.650729 0.19436 -0.870733 -0.27426 -0.408174 -0.820885 -0.360495 -0.442936 
-0.930897 -0.34894 -0.108035 0.666713 0.734104 -0.128783 -0.822967 -0.240892 -0.514487 
-0.812954 -0.164929 -0.558483 -0.902128 -0.20084 -0.381874 0.801618 0.555998 -0.219717 
0.489259 0.686278 -0.53819 0.668961 0.571154 -0.475683 -0.740731 0.0872494 -0.666112 
-0.580662 0.250584 -0.774622 -0.0160191 0.629731 -0.776648 -0.273547 -0.643471 0.714925 
-0.051129 -0.693584 0.718559 -0.0391872 -0.612187 0.789741 0.201513 -0.602127 0.772552 
-0.409776 -0.834647 0.368034 -0.178834 -0.584907 0.79114 -0.0196352 -0.42817 0.903485 
0.368858 -0.408889 0.834717 -0.481109 -0.754209 0.446881 -0.275626 -0.607408 0.745041 
0.328772 -0.361437 0.872509 -0.566569 -0.770429 0.292299 -0.276506 -0.600766 0.750083 
0.499853 -0.129593 0.85636 -0.641709 -0.694612 0.325153 -0.63507 -0.695996 0.335076 
0.575619 0.266522 0.773065 -0.798479 -0.60092 0.0364127 -0.884613 -0.454975 -0.102264 
-0.861911 -0.448327 -0.236879 -0.884239 -0.22061 -0.411646 -0.882688 -0.0537502 -0.466876 
-0.485756 0.439063 -0.75582 0.373591 0.699813 -0.608844 0.107955 0.688041 -0.717597 
-0.013293 -0.407068 0.913301 0.0458807 -0.230426 0.972008 -0.221325 -0.508088 0.832383 
-0.283946 -0.62281 0.729028 0.44624 -0.0486274 0.893591 -0.364572 -0.697522 0.616888 
-0.179542 -0.585892 0.79025 -0.554291 -0.625298 0.549331 -0.585984 -0.634712 0.50375 
0.60623 0.181159 0.774382 -0.837465 -0.452536 0.306371 0.740915 0.527847 0.415238 
0.62751 0.391472 0.673039 -0.849307 -0.334865 0.408096 -0.931302 -0.331366 0.151242 
0.76604 0.507081 0.395033 0.809574 0.586968 -0.0075627 -0.95588 -0.272639 -0.109365 
-0.925043 0.0222955 -0.379207 0.719689 0.667621 -0.190606 -0.772989 0.299722 -0.559156 
0.140672 0.696632 -0.703502 0.457643 0.751894 -0.474572 0.353595 0.673887 -0.648727 
-0.585509 -0.62759 0.513137 0.234135 -0.0998664 0.967061 -0.68193 -0.570886 0.45723 
0.338916 0.0393315 0.939994 -0.664233 -0.467199 0.58354 -0.7587 -0.392025 0.520279 
0.676993 0.320215 0.662679 -0.907212 -0.416766 0.057205 0.810599 0.547681 0.207305 
-0.933547 -0.349211 0.0808793 0.790147 0.581544 0.193584 -0.968577 -0.0739834 -0.237456 
-0.951294 0.0107667 -0.308095 0.642438 0.695867 -0.321003 0.753186 0.654749 -0.0633598 
-0.763022 0.336154 -0.552085 -0.201255 0.662673 -0.721361 0.265867 0.793982 -0.546725 
-0.547097 0.621758 -0.560448 -0.210081 -0.492135 0.84479 0.113908 -0.261995 0.958323 
-0.376134 -0.455769 0.80672 -0.130775 -0.418471 0.898766 0.100048 -0.288732 0.952168 
-0.516196 -0.526931 0.675192 0.371943 0.055446 0.926598 -0.691812 -0.389867 0.607782 
0.633516 0.250384 0.732096 -0.393044 -0.378201 0.838141 0.340715 0.0802376 0.936737 
0.361926 0.0514795 0.930784 -0.779352 -0.478829 0.404145 -0.952254 -0.128065 -0.277147 
-0.854832 0.223933 -0.468099 -0.91361 0.164638 -0.371766 -0.813374 0.366317 -0.451924 
0.653588 0.752018 -0.0853922 -0.562329 0.631469 -0.533885 0.275212 0.897969 -0.34338 
0.620588 0.761811 -0.185782 -0.163722 0.869246 -0.466482 -0.0533488 -0.213858 0.975407 
0.0660248 -0.23248 0.970358 0.385163 -0.100036 0.917411 0.486807 0.0394969 0.872616 
0.653607 0.21194 0.726553 -0.592934 -0.55024 0.587933 0.552674 0.147297 0.820278 
0.717823 0.310404 0.623201 0.80623 0.557306 0.198502 0.699926 0.709723 0.07998 
-0.632144 0.715698 -0.296933 0.304651 0.921827 -0.239631 -0.204095 -0.387097 0.899167 
0.125194 -0.130935 0.983454 -0.310789 -0.552327 0.773527 0.0368453 -0.546981 0.836334 
0.344484 -0.052641 0.937315 -0.420328 -0.458309 0.78312 -0.337001 -0.412016 0.846566 
-0.88077 -0.459485 0.11453 -0.774522 -0.583692 0.243762 -0.974468 -0.170961 -0.145549 
-0.922564 -0.274742 0.27091 -0.992903 0.0477491 -0.108924 -0.86806 0.3507 -0.351398 
-0.891993 0.436646 -0.116996 -0.764502 0.643998 0.0283235 -0.767558 0.632146 0.106053 
-0.408719 0.800818 0.437766 0.513186 0.855529 -0.0686284 0.534887 0.816303 0.218051 
-0.337096 0.937654 -0.0846846 0.110342 0.991216 -0.072909 -0.0404677 -0.329661 0.943232 
-0.533786 -0.466758 0.705131 -0.721002 -0.426523 0.546109 -0.544005 -0.511268 0.66533 
-0.911597 0.105147 0.39741 -0.729825 -0.145497 0.667972 -0.791441 0.534024 0.297388 
-0.719591 0.316123 0.618268 0.729092 0.54107 0.419127 -0.702445 0.422716 0.57261 
-0.69079 0.678855 0.248926 0.655495 0.604304 0.452928 -0.166956 0.865807 0.471702 
0.0391575 0.727839 0.68463 0.127658 0.90361 0.408891 0.431597 0.824544 0.365856 
0.48903 0.718296 0.494875 0.222084 -0.255057 0.941076 -0.556957 -0.117012 0.822257 
0.56165 0.162865 0.811187 0.320545 0.200553 0.925759 -0.584678 0.19687 0.787016 
-0.388174 -0.07399 0.918611 0.534378 0.360672 0.764432 -0.536486 0.311926 0.784146 
-0.405736 0.584991 0.702256 -0.218465 0.306059 0.926607 0.360137 0.568782 0.739451 
-0.107044 0.638995 0.761726 0.157192 0.549548 0.820541 0.358905 0.607819 0.708338 
0.0677105 -0.152959 0.98591 -0.327048 -0.310295 0.892612 -0.0184352 0.2189 0.975573 
0.0173562 0.119188 0.99272 -0.315188 -0.0934022 -0.944422 -0.0706904 -0.246153 -0.96665 
0.0398498 -0.187546 -0.981447 -0.34795 0.237031 -0.907054 -0.495878 0.299013 -0.815289 
-0.0581914 0.544536 -0.836716 0.345114 0.20381 -0.916165 0.118566 0.195558 -0.973498 
0.431201 0.58094 -0.690343 -0.0564067 -0.244186 -0.968087 -0.306551 -0.407751 -0.860096 
0.14551 -0.239522 -0.959925 0.487156 0.042702 -0.87227 -0.468615 -0.297386 -0.831842 
-0.552701 -0.470691 -0.68773 0.64357 0.0805288 -0.761139 0.400495 0.111027 -0.909548 
0.52849 0.198004 -0.825526 -0.694387 0.0264379 -0.719116 0.850608 0.270337 -0.450981 
-0.599245 0.370605 -0.709618 -0.737094 0.32706 -0.591375 -0.426383 0.554505 -0.714648 
0.176657 0.748268 -0.639443 -0.243234 -0.518111 -0.819999 -0.54447 -0.51606 -0.661236 
0.326205 -0.250243 -0.911575 -0.863204 -0.276254 -0.422567 0.720164 0.328891 -0.610897 
-0.881427 0.405805 -0.241679 0.715011 0.422165 -0.557257 0.572791 0.753707 -0.322235 
0.795414 0.545922 -0.263223 -0.697498 0.716322 -0.0194704 -0.282691 0.697029 -0.658966 
-0.0161335 0.833317 -0.55256 0.327048 0.864477 -0.38173 0.438351 0.86869 -0.230707 
-0.469967 0.855815 -0.216131 0.112173 0.991842 -0.0605455 -0.0470669 -0.254602 -0.9659 
0.271799 -0.0801401 -0.959011 0.0404332 -0.264856 -0.96344 0.576171 0.129849 -0.806949 
0.486881 0.0726332 -0.870443 -0.153336 -0.485443 -0.860717 0.149276 -0.331818 -0.931458 
0.583386 -0.0211947 -0.811919 -0.719613 -0.464945 -0.515736 0.821138 0.312821 -0.477363 
-0.985042 -0.133431 -0.109031 0.811806 0.296888 -0.502821 -0.917344 0.0222888 -0.397472 
0.799343 0.556926 -0.225575 -0.395565 0.899315 0.186443 0.150962 0.971908 0.180568 
0.399132 0.911056 0.103298 -0.130978 -0.341179 -0.930829 -0.520575 -0.471226 -0.712003 
0.529169 0.206089 -0.823108 0.715517 0.249134 -0.652662 0.647475 0.475662 -0.595417 
-0.971412 -0.230355 -0.0574118 0.84604 0.446844 -0.290768 -0.990208 -0.122274 0.0673522 
0.850315 0.524531 0.0427983 -0.982943 0.152321 0.103064 -0.877421 0.458529 0.141008 
-0.662119 0.738865 0.125211 -0.0981087 0.934057 0.343384 -0.213558 -0.51553 -0.829832 
0.0988644 -0.216969 -0.971159 -0.271249 -0.328968 -0.904546 0.028334 -0.22358 -0.974274 
0.358405 0.013444 -0.933469 0.132202 -0.16308 -0.977715 0.284921 -0.0247029 -0.958232 
0.384717 0.000729157 -0.923034 0.551795 0.218779 -0.804772 -0.849943 -0.402781 -0.339654 
0.850711 0.425535 -0.308563 -0.737147 -0.621313 -0.265677 0.781533 0.520203 -0.344376 
0.81918 0.53875 -0.196702 0.797757 0.588815 -0.129922 0.856865 0.515323 -0.0149934 
0.707882 0.662978 0.243648 -0.870537 0.287106 0.39967 -0.741038 0.412842 0.529551 
-0.662824 0.53001 0.528917 0.444439 0.864679 0.234105 -0.625137 0.678167 0.386385 
-0.24535 -0.516995 -0.820073 0.177494 -0.258201 -0.949646 -0.34105 -0.682637 -0.646291 
-0.356349 -0.509783 -0.783031 -0.61304 -0.467764 -0.636694 0.593431 0.339974 -0.729559 
0.747889 0.394631 -0.533787 -0.9163 -0.389726 -0.0922364 -0.875742 -0.407993 0.258105 
-0.996119 -0.0879854 0.00248289 0.841706 0.522789 0.134991 -0.506982 0.581713 0.636065 
-0.39105 0.72733 0.563978 -0.206589 0.709688 0.673546 -0.0333509 0.786462 0.616738 
0.0465325 0.882965 0.467126 -0.0201104 -0.351498 -0.935973 -0.0231617 -0.3169 -0.948176 
0.153846 -0.330004 -0.931359 0.300311 0.0198227 -0.953635 0.534999 0.250707 -0.806798 