# vtk DataFile Version 4.2
vtk output
ASCII
DATASET POLYDATA
POINTS 1023 float
397.575 209.917 152.793 398.127 210.199 152.667 397.661 210.632 152.6 
397.579 211.038 152.578 397.467 209.305 153.222 397.434 209.173 153.462 
397.149 209.317 153.37 397.857 209.114 153.385 398.995 209.282 153.287 
398.699 209.112 153.341 398.97 209.143 153.435 397.029 209.579 153.203 
396.882 209.507 153.434 396.713 209.786 153.332 397.313 209.531 153.07 
398.98 209.632 153.111 399.255 209.299 153.403 399.538 209.474 153.48 
399.781 209.703 153.435 399.92 210.012 153.345 400.039 209.942 153.499 
396.428 210.673 153.246 396.28 210.57 153.504 396.205 210.935 153.426 
400.338 210.345 153.5 396.147 211.319 153.505 396.253 211.72 153.414 
396.343 212.294 153.495 398.653 213.197 152.661 400.628 213.141 152.929 
397.744 213.793 152.953 399.887 213.97 152.745 401.984 213.907 153.402 
397.401 215.718 153.513 397.413 209.236 153.647 397.124 209.325 153.555 
397.776 209.139 153.604 398.632 209.073 153.484 398.936 209.179 153.577 
396.657 209.816 153.54 399.247 209.296 153.545 399.534 209.541 153.636 
399.834 209.746 153.586 396.291 210.658 153.713 396.166 210.966 153.616 
400.5 210.481 153.689 400.666 210.688 153.616 396.145 211.365 153.692 
401.11 211.38 153.864 396.179 211.783 153.62 401.892 212.45 154.032 
396.419 212.915 153.926 402.865 213.797 154.393 396.577 213.725 153.713 
396.662 214.118 153.876 403.603 214.945 154.4 404.355 217.272 154.078 
405.379 217.434 154.823 397.549 217.838 154.137 403.69 218.063 153.719 
398.581 218.825 153.765 398.179 219.872 154.168 397.969 220.134 154.389 
401.663 219.805 153.616 398.228 220.454 154.29 398.496 220.928 154.308 
405.03 220.363 154.178 399.018 221.1 154.185 397.199 209.514 153.785 
398.167 209.265 153.762 397.163 209.877 153.987 396.554 210.568 153.925 
397.978 210.101 154.22 400.379 210.544 153.885 396.815 211.479 154.305 
396.763 212.082 154.327 402.616 213.473 154.478 403.617 214.932 154.749 
397.205 216.029 154.606 404.968 216.596 154.986 406.44 219.649 154.894 
406.729 219.063 155.514 397.717 220.002 154.695 407.938 220.504 156.081 
407.203 221.274 155.071 408.216 220.961 156.041 397.767 221.99 155.156 
408.346 222.763 155.745 397.687 223.334 155.549 407.709 223.556 155.433 
397.871 224.188 155.673 399.076 224.802 155.362 402.973 225.01 155.008 
399.418 225.401 155.555 386.885 244.685 155.58 382.688 245.452 155.617 
383.017 246.718 155.213 387.064 245.751 155.746 385.354 246.789 155.379 
386.044 246.606 155.584 381.915 248.195 155.319 386.266 247.118 155.887 
384.166 248.209 155.296 385.514 248.301 155.948 382.452 249.926 155.444 
399.892 212.753 155.143 399.107 213.577 155.375 398.368 214.324 155.362 
401.338 214.151 155.478 397.749 215.377 155.188 399.731 215.299 155.882 
404.037 215.837 155.397 399.002 216.113 155.905 404.519 216.225 155.333 
405.299 217.153 155.507 405.656 217.514 155.494 406.652 218.92 155.888 
407.143 219.453 156.032 397.573 221.237 155.657 408.763 221.681 156.545 
409.375 222.902 156.73 409.409 223.145 156.697 397.638 223.57 155.748 
397.645 223.575 156.055 408.69 224.066 156.117 398.135 225.29 156.546 
398.639 225.322 155.854 398.393 225.72 156.401 400.665 226.928 156.267 
388.482 242.042 156.774 389.801 242.009 156.512 391.3 241.689 156.545 
383.732 243.7 156.405 391.281 242.613 156.43 381.596 244.58 156.555 
390.928 243.194 156.41 380.901 245.236 156.526 391.279 243.449 156.59 
387.355 245.923 155.96 387.179 246.344 156.099 387.29 246.452 156.398 
385.925 248.027 156.128 380.211 251.957 156.357 382.493 251.355 155.826 
380.47 252.388 156.288 381.535 253.173 156.237 383.206 252.685 156.436 
381.014 254.072 156.485 381.854 254.433 156.635 403.542 215.745 155.608 
399.326 218.343 156.52 405.74 218.821 156.578 407.066 219.5 156.271 
406.948 219.682 156.603 399.075 220.946 157.043 398.338 221.874 156.845 
409.291 222.534 157.095 398.034 223.093 156.793 409.463 222.88 157.02 
409.621 223.303 157.299 409.722 223.919 157.416 409.523 225.426 157.266 
398.348 225.872 156.975 409.501 226.856 157.704 398.53 226.285 156.94 
398.52 226.355 157.153 398.743 226.583 157.094 402.018 228.34 156.969 
392.193 239.724 157.679 391.624 240.132 157.63 392.687 239.618 157.563 
393.326 239.492 157.517 390.233 240.978 157.536 389.744 241.291 157.257 
391.14 240.763 157.148 395.408 239.697 157.528 385.425 242.829 156.959 
387.894 242.137 157.065 389.071 241.657 157.243 395.117 240.726 157.349 
383.828 243.411 157.387 384.834 243.074 157.167 380.715 244.506 157.383 
381.753 244.229 156.918 382.312 243.88 157.314 392.409 242.719 156.775 
380.462 244.733 157.434 391.665 243.873 157.124 393.457 243.26 157.676 
379.7 246.487 157.107 388.503 245.316 156.464 391.321 244.176 157.289 
391.97 243.876 157.589 379.517 246.851 157.271 387.844 245.914 156.551 
386.807 247.027 156.717 379.592 249 156.79 385.854 248.399 156.882 
379.343 252.201 157.475 379.838 251.727 156.639 384.579 251.104 156.759 
379.404 253.83 157.663 383.279 253.471 157.005 379.885 254.237 157.13 
382.681 254.148 156.942 383.409 253.486 157.302 379.629 254.88 157.603 
381.462 255.171 156.97 382.124 255.323 157.42 382.421 255.057 157.488 
380.136 255.942 157.529 380.268 256.065 157.54 380.689 255.762 157.309 
381.504 255.752 157.416 381.79 255.62 157.54 380.538 256.048 157.52 
381.198 255.929 157.496 404.402 220.959 157.983 408.209 221.421 157.317 
409.458 222.957 157.393 410.543 225.889 158.887 398.603 226.453 157.319 
398.672 226.588 157.259 398.773 226.612 157.382 408.972 228.008 157.895 
399.513 227.005 157.443 401.246 228.314 157.95 402.21 229.739 158.465 
402.83 230.327 158.131 403.051 231.181 158.401 403.511 231.451 158.331 
403.258 231.847 158.584 404.037 231.332 158.201 394.132 238.469 158.218 
394.589 237.963 158.715 392.447 239.193 158.32 396.911 238.045 158.44 
397.284 238.278 158.423 391.533 240.089 158.153 395.815 239.366 157.758 
389.733 241.273 157.503 390.135 241.117 157.782 388.694 241.96 157.559 
383.019 243.644 157.485 382.588 243.928 157.796 386.539 242.759 157.571 
396.872 241.228 158.133 380.619 244.551 157.577 380.74 244.546 157.8 
381.224 244.355 157.898 381.729 244.106 157.668 395.438 242.094 157.734 
379.985 245.565 157.68 395.982 242.499 158.312 379.695 246.005 157.568 
379.724 246.036 157.792 379.565 246.344 157.677 395.491 242.784 158.528 
388.611 245.213 157.355 379.374 247.81 157.572 379.35 248.633 157.722 
386.557 246.99 157.315 385.85 247.602 157.601 379.311 249.687 157.721 
384.643 250.879 157.25 379.427 254.458 158.003 379.574 254.99 157.786 
379.501 254.828 157.952 382.621 254.783 157.606 382.145 255.346 157.63 
382.397 255.054 157.693 380.149 256.04 157.612 380.149 255.969 157.733 
381.458 255.86 157.572 381.226 255.94 157.666 381.847 255.511 157.762 
380.309 256.108 157.639 380.521 256.106 157.678 407.951 223.502 159.008 
398.758 225.309 157.526 399.687 226.327 157.955 400.952 227.178 158.435 
401.901 228.831 158.81 402.228 229.777 159.309 402.328 230.843 159.096 
402.705 231.792 158.873 402.127 232.003 159.483 408.015 231.728 160.013 
402.368 233.096 159.236 404.163 232.792 158.902 401.577 234.127 159.454 
401.286 233.63 159.716 398.847 235.895 159.656 402.67 234.634 159.316 
404.377 235.036 160.009 396.825 237.25 159.045 399.619 236.508 159.227 
403.195 235.737 159.682 393.094 238.615 158.836 400.827 236.725 159.24 
390.496 241.26 158.206 399.278 239.388 158.93 387.397 242.702 157.726 
400.094 240.083 159.51 390.229 242.352 158.352 398.03 241.249 158.79 
399.785 240.822 159.761 380.561 244.828 157.963 381.301 244.524 158.152 
382.165 244.572 158.352 398.615 241.697 159.504 381.094 244.8 158.264 
391.823 243.158 158.576 380.014 245.978 158.064 386.498 244.653 158.089 
388.431 244.372 157.914 396.382 242.678 159.153 383.262 245.993 158.77 
379.485 248.479 158.115 379.639 248.843 158.338 383.299 251.496 158.425 
382.704 252.657 158.461 383.651 252.376 157.837 379.495 254.178 158.168 
379.586 254.954 158.053 379.77 254.983 158.163 382.043 254.805 158.105 
380.332 255.465 158.151 380.667 255.711 158.03 381.045 255.532 158.099 
382.112 255.175 157.853 380.354 256.052 157.761 380.613 255.977 157.822 
410.332 225.485 159.562 410.602 226.346 159.941 402.394 226.683 159.325 
403.684 226.585 159.919 410.669 227.439 159.777 410.72 227.172 159.992 
402.398 228.583 159.572 410.205 228.689 159.801 402.453 229.708 159.992 
402.68 230.167 160.795 402.184 230.902 159.971 408.817 231.028 160.136 
401.608 232.306 160.192 401.149 232.839 160.395 400.526 233.789 160.242 
400.435 233.584 160.585 397.973 235.951 160.107 397.401 236.201 160.335 
398.528 235.739 159.944 399.34 234.703 160.647 394.518 237.716 159.572 
395.675 237.179 160.258 392.813 239.216 159.211 402.018 238.945 160.277 
393.064 240.14 159.747 401.866 239.541 160.557 393.048 240.804 159.765 
400.977 240.327 160.267 400.501 240.664 160.159 401.102 240.483 160.591 
393.68 242.049 159.812 398.889 241.752 159.842 381.708 245.217 158.572 
397.596 242.404 159.785 398.108 242.191 160.307 396.898 242.594 159.716 
380.255 248.14 158.652 381.408 247.447 158.877 380.676 248.659 158.832 
381.805 249.841 158.984 382.346 250.442 158.898 380.046 252.695 158.625 
380.509 252.297 158.79 382.811 251.15 158.698 382.281 252.01 158.736 
380.456 253.855 158.62 381.42 253.132 158.747 380.04 254.758 158.354 
410.397 226.205 160.286 410.237 226.358 160.62 407.601 226.772 161.498 
404.046 227.765 160.67 410.561 228.006 160.808 410.266 228.943 160.7 
401.984 231.507 161.015 409.41 230.552 160.593 409.964 229.634 160.967 
401.499 232.24 161.662 400.919 232.833 161.497 399.289 234.521 161.293 
407.565 232.878 161.054 406.082 234.442 161.16 393.985 238.409 159.96 
394.334 238.698 160.483 394.791 238.955 160.934 394.234 240.115 160.572 
393.63 241.127 160.071 401.826 239.856 160.962 400.859 240.733 160.726 
400.716 240.83 161.109 395.764 242.191 160.561 396.687 242.496 160.167 
409.884 226.278 160.791 409.625 226.59 161.172 410.466 226.977 160.824 
410.542 227.344 160.9 410.546 227.724 160.992 410.418 228.069 161.232 
[...]
POINT_DATA 1023
COLOR_SCALARS scalars 3
1 0.729412 0.52549 1 0.729412 0.52549 1 0.729412 0.52549 
1 0.729412 0.52549 1 0.729412 0.52549 
1 0.729412 0.52549 1 0.729412 0.52549 
1 0.729412 0.52549 1 0.729412 0.52549 
1 0.729412 0.52549 1 0.729412 0.52549 
1 0.729412 0.52549 1 0.729412 0.52549 
1 0.729412 0.52549 1 0.729412 0.52549 
1 0.729412 0.52549 1 0.729412 0.52549 
1 0.729412 0.52549 1 0.729412 0.52549 
1 0.729412 0.52549 1 0.729412 0.52549 
1 0.729412 0.52549 1 0.729412 0.52549 
1 0.729412 0.52549 1 0.729412 0.52549 
1 0.729412 0.52549 1 0.729412 0.52549 
1 0.729412 0.52549 1 0.729412 0.52549 
1 0.729412 0.52549 1 0.729412 0.52549 
1 0.729412 0.52549 1 0.729412 0.52549 
1 0.729412 0.52549 1 0.729412 0.52549 
1 0.729412 0.52549 1 0.729412 0.52549 
1 0.729412 0.52549 1 0.729412 0.52549 
1 0.729412 0.52549 1 0.729412 0.52549 
1 0.729412 0.52549 1 0.729412 0.52549 
1 0.729412 0.52549 1 0.729412 0.52549 
1 0.729412 0.52549 1 0.729412 0.52549 
1 0.729412 0.52549 1 0.729412 0.52549 
1 0.729412 0.52549 1 0.729412 0.52549 
1 0.729412 0.52549 1 0.729412 0.52549 
1 0.729412 0.52549 1 0.729412 0.52549 
1 0.729412 0.52549 1 0.729412 0.52549 
1 0.729412 0.52549 1 0.729412 0.52549 
1 0.729412 0.52549 1 0.729412 0.52549 
1 0.729412 0.52549 1 0.729412 0.52549 
1 0.729412 0.52549 1 0.729412 0.52549 
1 0.729412 0.52549 1 0.729412 0.52549 
1 0.729412 0.52549 1 0.729412 0.52549 
1 0.729412 0.52549 1 0.729412 0.52549 
1 0.729412 0.52549 1 0.729412 0.52549 
1 0.729412 0.52549 1 0.729412 0.52549 
1 0.729412 0.52549 1 0.729412 0.52549 
1 0.729412 0.52549 1 0.729412 0.52549 
1 0.729412 0.52549 1 0.729412 0.52549 
1 0.729412 0.52549 1 0.729412 0.52549 
1 0.729412 0.52549 1 0.729412 0.52549 
1 0.729412 0.52549 1 0.729412 0.52549 
1 0.729412 0.52549 1 0.729412 0.52549 
1 0.729412 0.52549 1 0.729412 0.52549 
1 0.729412 0.52549 1 0.729412 0.52549 
1 0.729412 0.52549 1 0.729412 0.52549 
1 0.729412 0.52549 1 0.729412 0.52549 
1 0.729412 0.52549 1 0.729412 0.52549 
1 0.729412 0.52549 1 0.729412 0.52549 
1 0.729412 0.52549 1 0.729412 0.52549 
1 0.729412 0.52549 1 0.729412 0.52549 
1 0.729412 0.52549 1 0.729412 0.52549 
1 0.729412 0.52549 1 0.729412 0.52549 
1 0.729412 0.52549 1 0.729412 0.52549 
1 0.729412 0.52549 1 0.729412 0.52549 
1 0.729412 0.52549 1 0.729412 0.52549 
1 0.729412 0.52549 1 0.729412 0.52549 
1 0.729412 0.52549 1 0.729412 0.52549 
1 0.729412 0.52549 1 0.729412 0.52549 
1 0.729412 0.52549 1 0.729412 0.52549 
1 0.729412 0.52549 1 0.729412 0.52549 
1 0.729412 0.52549 1 0.729412 0.52549 
1 0.729412 0.52549 1 0.729412 0.52549 
1 0.729412 0.52549 1 0.729412 0.52549 
1 0.729412 0.52549 1 0.729412 0.52549 
1 0.729412 0.52549 1 0.729412 0.52549 
1 0.729412 0.52549 1 0.729412 0.52549 
1 0.729412 0.52549 1 0.729412 0.52549 
1 0.729412 0.52549 1 0.729412 0.52549 
1 0.729412 0.52549 1 0.729412 0.52549 
1 0.729412 0.52549 1 0.729412 0.52549 
1 0.729412 0.52549 1 0.729412 0.52549 
1 0.729412 0.52549 1 0.729412 0.52549 
1 0.729412 0.52549 1 0.729412 0.52549 
1 0.729412 0.52549 1 0.729412 0.52549 
1 0.729412 0.52549 1 0.729412 0.52549 
1 0.729412 0.52549 1 0.729412 0.52549 
1 0.729412 0.52549 1 0.729412 0.52549 
1 0.729412 0.52549 1 0.729412 0.52549 
1 0.729412 0.52549 1 0.729412 0.52549 
1 0.729412 0.52549 1 0.729412 0.52549 
1 0.729412 0.52549 1 0.729412 0.52549 
1 0.729412 0.52549 1 0.729412 0.52549 
1 0.729412 0.52549 1 0.729412 0.52549 
1 0.729412 0.52549 1 0.729412 0.52549 
1 0.729412 0.52549 1 0.729412 0.52549 
1 0.729412 0.52549 1 0.729412 0.52549 
1 0.729412 0.52549 1 0.729412 0.52549 
1 0.729412 0.52549 1 0.729412 0.52549 
1 0.729412 0.52549 1 0.729412 0.52549 
1 0.729412 0.52549 1 0.729412 0.52549 
1 0.729412 0.52549 1 0.729412 0.52549 
1 0.729412 0.52549 1 0.729412 0.52549 
1 0.729412 0.52549 1 0.729412 0.52549 
1 0.729412 0.52549 1 0.729412 0.52549 
1 0.729412 0.52549 1 0.729412 0.52549 
1 0.729412 0.52549 1 0.729412 0.52549 
1 0.729412 0.52549 1 0.729412 0.52549 
1 0.729412 0.52549 1 0.729412 0.52549 
1 0.729412 0.52549 1 0.729412 0.52549 
1 0.729412 0.52549 1 0.729412 0.52549 
1 0.729412 0.52549 1 0.729412 0.52549 
1 0.729412 0.52549 1 0.729412 0.52549 
1 0.729412 0.52549 1 0.729412 0.52549 
1 0.729412 0.52549 1 0.729412 0.52549 
1 0.729412 0.52549 1 0.729412 0.52549 
1 0.729412 0.52549 1 0.729412 0.52549 
1 0.729412 0.52549 1 0.729412 0.52549 
1 0.729412 0.52549 1 0.729412 0.52549 
1 0.729412 0.52549 1 0.729412 0.52549 
1 0.729412 0.52549 1 0.729412 0.52549 
1 0.729412 0.52549 1 0.729412 0.52549 
1 0.729412 0.52549 1 0.729412 0.52549 
1 0.729412 0.52549 1 0.729412 0.52549 
1 0.729412 0.52549 1 0.729412 0.52549 
1 0.729412 0.52549 1 0.729412 0.52549 
1 0.729412 0.52549 1 0.729412 0.52549 
1 0.729412 0.52549 1 0.729412 0.52549 
1 0.729412 0.52549 1 0.729412 0.52549 
1 0.729412 0.52549 1 0.729412 0.52549 
1 0.729412 0.52549 1 0.729412 0.52549 
1 0.729412 0.52549 1 0.729412 0.52549 
1 0.729412 0.52549 1 0.729412 0.52549 
1 0.729412 0.52549 1 0.729412 0.52549 
1 0.729412 0.52549 1 0.729412 0.52549 
1 0.729412 0.52549 1 0.729412 0.52549 
1 0.729412 0.52549 1 0.729412 0.52549 
1 0.729412 0.52549 1 0.729412 0.52549 
1 0.729412 0.52549 1 0.729412 0.52549 
1 0.729412 0.52549 1 0.729412 0.52549 
1 0.729412 0.52549 1 0.729412 0.52549 
1 0.729412 0.52549 1 0.729412 0.52549 
1 0.729412 0.52549 1 0.729412 0.52549 
1 0.729412 0.52549 1 0.729412 0.52549 
1 0.729412 0.52549 1 0.729412 0.52549 
1 0.729412 0.52549 1 0.729412 0.52549 
1 0.729412 0.52549 1 0.729412 0.52549 
1 0.729412 0.52549 1 0.729412 0.52549 
1 0.729412 0.52549 1 0.729412 0.52549 
1 0.729412 0.52549 1 0.729412 0.52549 
1 0.729412 0.52549 1 0.729412 0.52549 
1 0.729412 0.52549 1 0.729412 0.52549 
1 0.729412 0.52549 1 0.729412 0.52549 
1 0.729412 0.52549 1 0.729412 0.52549 
1 0.729412 0.52549 1 0.729412 0.52549 
1 0.729412 0.52549 1 0.729412 0.52549 
1 0.729412 0.52549 1 0.729412 0.52549 
1 0.729412 0.52549 1 0.729412 0.52549 
1 0.729412 0.52549 1 0.729412 0.52549 
1 0.729412 0.52549 1 0.729412 0.52549 
1 0.729412 0.52549 1 0.729412 0.52549 
1 0.729412 0.52549 1 0.729412 0.52549 
1 0.729412 0.52549 1 0.729412 0.52549 
1 0.729412 0.52549 1 0.729412 0.52549 
1 0.729412 0.52549 1 0.729412 0.52549 
1 0.729412 0.52549 1 0.729412 0.52549 
1 0.729412 0.52549 1 0.729412 0.52549 
1 0.729412 0.52549 1 0.729412 0.52549 
1 0.729412 0.52549 1 0.729412 0.52549 
1 0.729412 0.52549 1 0.729412 0.52549 
1 0.729412 0.52549 1 0.729412 0.52549 
1 0.729412 0.52549 1 0.729412 0.52549 
1 0.729412 0.52549 1 0.729412 0.52549 
1 0.729412 0.52549 1 0.729412 0.52549 
1 0.729412 0.52549 1 0.729412 0.52549 
1 0.729412 0.52549 1 0.729412 0.52549 
1 0.729412 0.52549 1 0.729412 0.52549 
1 0.729412 0.52549 1 0.729412 0.52549 
1 0.729412 0.52549 1 0.729412 0.52549 
1 0.729412 0.52549 1 0.729412 0.52549 
1 0.729412 0.52549 1 0.729412 0.52549 
1 0.729412 0.52549 1 0.729412 0.52549 
1 0.729412 0.52549 1 0.729412 0.52549 
1 0.729412 0.52549 1 0.729412 0.52549 
1 0.729412 0.52549 1 0.729412 0.52549 
1 0.729412 0.52549 1 0.729412 0.52549 
1 0.729412 0.52549 1 0.729412 0.52549 
1 0.729412 0.52549 1 0.729412 0.52549 
1 0.729412 0.52549 1 0.729412 0.52549 
1 0.729412 0.52549 1 0.729412 0.52549 
1 0.729412 0.52549 1 0.729412 0.52549 
1 0.729412 0.52549 1 0.729412 0.52549 
1 0.729412 0.52549 1 0.729412 0.52549 
1 0.729412 0.52549 1 0.729412 0.52549 
1 0.729412 0.52549 1 0.729412 0.52549 
1 0.729412 0.52549 1 0.729412 0.52549 
1 0.729412 0.52549 1 0.729412 0.52549 
1 0.729412 0.52549 1 0.729412 0.52549 
1 0.729412 0.52549 1 0.729412 0.52549 
1 0.729412 0.52549 1 0.729412 0.52549 
1 0.729412 0.52549 1 0.729412 0.52549 
1 0.729412 0.52549 1 0.729412 0.52549 
1 0.729412 0.52549 1 0.729412 0.52549 
1 0.729412 0.52549 1 0.729412 0.52549 
1 0.729412 0.52549 1 0.729412 0.52549 
1 0.729412 0.52549 1 0.729412 0.52549 
1 0.729412 0.52549 1 0.729412 0.52549 
1 0.729412 0.52549 1 0.729412 0.52549 
1 0.729412 0.52549 1 0.729412 0.52549 
1 0.729412 0.52549 1 0.729412 0.52549 
1 0.729412 0.52549 1 0.729412 0.52549 
1 0.729412 0.52549 1 0.729412 0.52549 
1 0.729412 0.52549 1 0.729412 0.52549 
1 0.729412 0.52549 1 0.729412 0.52549 
1 0.729412 0.52549 1 0.729412 0.52549 
1 0.729412 0.52549 1 0.729412 0.52549 
1 0.729412 0.52549 1 0.729412 0.52549 
1 0.729412 0.52549 1 0.729412 0.52549 
1 0.729412 0.52549 1 0.729412 0.52549 
1 0.729412 0.52549 1 0.729412 0.52549 
1 0.729412 0.52549 1 0.729412 0.52549 
1 0.729412 0.52549 1 0.729412 0.52549 
1 0.729412 0.52549 1 0.729412 0.52549 
1 0.729412 0.52549 1 0.729412 0.52549 
1 0.729412 0.52549 1 0.729412 0.52549 
1 0.729412 0.52549 1 0.729412 0.52549 
1 0.729412 0.52549 1 0.729412 0.52549 
1 0.729412 0.52549 1 0.729412 0.52549 
1 0.729412 0.52549 1 0.729412 0.52549 
1 0.729412 0.52549 1 0.729412 0.52549 
1 0.729412 0.52549 1 0.729412 0.52549 
1 0.729412 0.52549 1 0.729412 0.52549 
1 0.729412 0.52549 1 0.729412 0.52549 
1 0.729412 0.52549 1 0.729412 0.52549 
1 0.729412 0.52549 1 0.729412 0.52549 
1 0.729412 0.52549 1 0.729412 0.52549 
1 0.729412 0.52549 1 0.729412 0.52549 
1 0.729412 0.52549 1 0.729412 0.52549 
1 0.729412 0.52549 1 0.729412 0.52549 
1 0.729412 0.52549 1 0.729412 0.52549 
1 0.729412 0.52549 1 0.729412 0.52549 
1 0.729412 0.52549 1 0.729412 0.52549 
1 0.729412 0.52549 1 0.729412 0.52549 
1 0.729412 0.52549 1 0.729412 0.52549 
1 0.729412 0.52549 1 0.729412 0.52549 
1 0.729412 0.52549 1 0.729412 0.52549 
1 0.729412 0.52549 1 0.729412 0.52549 
1 0.729412 0.52549 1 0.729412 0.52549 
1 0.729412 0.52549 1 0.729412 0.52549 
1 0.729412 0.52549 1 0.729412 0.52549 
1 0.729412 0.52549 1 0.729412 0.52549 
1 0.729412 0.52549 1 0.729412 0.52549 
1 0.729412 0.52549 1 0.729412 0.52549 
1 0.729412 0.52549 1 0.729412 0.52549 
1 0.729412 0.52549 1 0.729412 0.52549 
1 0.729412 0.52549 1 0.729412 0.52549 
1 0.729412 0.52549 1 0.729412 0.52549 
1 0.729412 0.52549 1 0.729412 0.52549 
1 0.729412 0.52549 1 0.729412 0.52549 
1 0.729412 0.52549 1 0.729412 0.52549 
1 0.729412 0.52549 1 0.729412 0.52549 
1 0.729412 0.52549 1 0.729412 0.52549 
1 0.729412 0.52549 1 0.729412 0.52549 
1 0.729412 0.52549 1 0.729412 0.52549 
1 0.729412 0.52549 1 0.729412 0.52549 
1 0.729412 0.52549 1 0.729412 0.52549 
1 0.729412 0.52549 1 0.729412 0.52549 
1 0.729412 0.52549 1 0.729412 0.52549 
1 0.729412 0.52549 1 0.729412 0.52549 
1 0.729412 0.52549 1 0.729412 0.52549 
1 0.729412 0.52549 1 0.729412 0.52549 
1 0.729412 0.52549 1 0.729412 0.52549 
1 0.729412 0.52549 1 0.729412 0.52549 
1 0.729412 0.52549 1 0.729412 0.52549 
1 0.729412 0.52549 1 0.729412 0.52549 
1 0.729412 0.52549 1 0.729412 0.52549 
1 0.729412 0.52549 1 0.729412 0.52549 
1 0.729412 0.52549 1 0.729412 0.52549 
1 0.729412 0.52549 1 0.729412 0.52549 
1 0.729412 0.52549 1 0.729412 0.52549 
1 0.729412 0.52549 1 0.729412 0.52549 
1 0.729412 0.52549 1 0.729412 0.52549 
1 0.729412 0.52549 1 0.729412 0.52549 
1 0.729412 0.52549 1 0.729412 0.52549 
1 0.729412 0.52549 1 0.729412 0.52549 
1 0.729412 0.52549 1 0.729412 0.52549 
1 0.729412 0.52549 1 0.729412 0.52549 
1 0.729412 0.52549 1 0.729412 0.52549 
1 0.729412 0.52549 1 0.729412 0.52549 
1 0.729412 0.52549 1 0.729412 0.52549 
1 0.729412 0.52549 1 0.729412 0.52549 
1 0.729412 0.52549 1 0.729412 0.52549 
1 0.729412 0.52549 1 0.729412 0.52549 
1 0.729412 0.52549 1 0.729412 0.52549 
1 0.729412 0.52549 1 0.729412 0.52549 
1 0.729412 0.52549 1 0.729412 0.52549 
1 0.729412 0.52549 1 0.729412 0.52549 
1 0.729412 0.52549 1 0.729412 0.52549 
1 0.729412 0.52549 1 0.729412 0.52549 
1 0.729412 0.52549 1 0.729412 0.52549 
1 0.729412 0.52549 1 0.729412 0.52549 
1 0.729412 0.52549 1 0.729412 0.52549 
1 0.729412 0.52549 1 0.729412 0.52549 
1 0.729412 0.52549 1 0.729412 0.52549 
1 0.729412 0.52549 1 0.729412 0.52549 
1 0.729412 0.52549 1 0.729412 0.52549 
1 0.729412 0.52549 1 0.729412 0.52549 
1 0.729412 0.52549 1 0.729412 0.52549 
1 0.729412 0.52549 1 0.729412 0.52549 
1 0.729412 0.52549 1 0.729412 0.52549 
1 0.729412 0.52549 1 0.729412 0.52549 
1 0.729412 0.52549 1 0.729412 0.52549 
1 0.729412 0.52549 1 0.729412 0.52549 
1 0.729412 0.52549 1 0.729412 0.52549 
1 0.729412 0.52549 1 0.729412 0.52549 
1 0.729412 0.52549 1 0.729412 0.52549 
1 0.729412 0.52549 1 0.729412 0.52549 
1 0.729412 0.52549 1 0.729412 0.52549 
1 0.729412 0.52549 1 0.729412 0.52549 
1 0.729412 0.52549 1 0.729412 0.52549 
1 0.729412 0.52549 1 0.729412 0.52549 
1 0.729412 0.52549 1 0.729412 0.52549 
1 0.729412 0.52549 1 0.729412 0.52549 
1 0.729412 0.52549 1 0.729412 0.52549 
1 0.729412 0.52549 1 0.729412 0.52549 
1 0.729412 0.52549 1 0.729412 0.52549 
1 0.729412 0.52549 1 0.729412 0.52549 
1 0.729412 0.52549 1 0.729412 0.52549 
1 0.729412 0.52549 1 0.729412 0.52549 
1 0.729412 0.52549 1 0.729412 0.52549 
1 0.729412 0.52549 1 0.729412 0.52549 
1 0.729412 0.52549 1 0.729412 0.52549 
1 0.729412 0.52549 1 0.729412 0.52549 
1 0.729412 0.52549 1 0.729412 0.52549 
1 0.729412 0.52549 1 0.729412 0.52549 
1 0.729412 0.52549 1 0.729412 0.52549 
1 0.729412 0.52549 1 0.729412 0.52549 
1 0.729412 0.52549 1 0.729412 0.52549 
1 0.729412 0.52549 1 0.729412 0.52549 
1 0.729412 0.52549 1 0.729412 0.52549 
1 0.729412 0.52549 1 0.729412 0.52549 
1 0.729412 0.52549 1 0.729412 0.52549 
1 0.729412 0.52549 1 0.729412 0.52549 
1 0.729412 0.52549 1 0.729412 0.52549 
1 0.729412 0.52549 1 0.729412 0.52549 
1 0.729412 0.52549 1 0.729412 0.52549 
1 0.729412 0.52549 1 0.729412 0.52549 
1 0.729412 0.52549 1 0.729412 0.52549 
1 0.729412 0.52549 1 0.729412 0.52549 
1 0.729412 0.52549 1 0.729412 0.52549 
1 0.729412 0.52549 1 0.729412 0.52549 
1 0.729412 0.52549 1 0.729412 0.52549 
1 0.729412 0.52549 1 0.729412 0.52549 
1 0.729412 0.52549 1 0.729412 0.52549 
1 0.729412 0.52549 1 0.729412 0.52549 
1 0.729412 0.52549 1 0.729412 0.52549 
1 0.729412 0.52549 1 0.729412 0.52549 
1 0.729412 0.52549 1 0.729412 0.52549 
1 0.729412 0.52549 1 0.729412 0.52549 
1 0.729412 0.52549 1 0.729412 0.52549 
1 0.729412 0.52549 1 0.729412 0.52549 
1 0.729412 0.52549 1 0.729412 0.52549 
1 0.729412 0.52549 1 0.729412 0.52549 
1 0.729412 0.52549 1 0.729412 0.52549 
1 0.729412 0.52549 1 0.729412 0.52549 
1 0.729412 0.52549 1 0.729412 0.52549 
1 0.729412 0.52549 1 0.729412 0.52549 
1 0.729412 0.52549 1 0.729412 0.52549 
1 0.729412 0.52549 1 0.729412 0.52549 
1 0.729412 0.52549 1 0.729412 0.52549 
1 0.729412 0.52549 1 0.729412 0.52549 
1 0.729412 0.52549 1 0.729412 0.52549 
1 0.729412 0.52549 1 0.729412 0.52549 
1 0.729412 0.52549 1 0.729412 0.52549 
1 0.729412 0.52549 1 0.729412 0.52549 
1 0.729412 0.52549 1 0.729412 0.52549 
1 0.729412 0.52549 1 0.729412 0.52549 
1 0.729412 0.52549 1 0.729412 0.52549 
1 0.729412 0.52549 1 0.729412 0.52549 
1 0.729412 0.52549 1 0.729412 0.52549 
1 0.729412 0.52549 1 0.729412 0.52549 
1 0.729412 0.52549 1 0.729412 0.52549 
1 0.729412 0.52549 1 0.729412 0.52549 
1 0.729412 0.52549 1 0.729412 0.52549 
1 0.729412 0.52549 1 0.729412 0.52549 
1 0.729412 0.52549 1 0.729412 0.52549 
1 0.729412 0.52549 1 0.729412 0.52549 
1 0.729412 0.52549 1 0.729412 0.52549 
1 0.729412 0.52549 1 0.729412 0.52549 
1 0.729412 0.52549 1 0.729412 0.52549 
1 0.729412 0.52549 1 0.729412 0.52549 
1 0.729412 0.52549 1 0.729412 0.52549 
1 0.729412 0.52549 1 0.729412 0.52549 
1 0.729412 0.52549 1 0.729412 0.52549 
1 0.729412 0.52549 1 0.729412 0.52549 
1 0.729412 0.52549 1 0.729412 0.52549 
1 0.729412 0.52549 1 0.729412 0.52549 
1 0.729412 0.52549 1 0.729412 0.52549 
1 0.729412 0.52549 1 0.729412 0.52549 
1 0.729412 0.52549 1 0.729412 0.52549 
1 0.729412 0.52549 1 0.729412 0.52549 
1 0.729412 0.52549 1 0.729412 0.52549 
1 0.729412 0.52549 1 0.729412 0.52549 
1 0.729412 0.52549 1 0.729412 0.52549 
1 0.729412 0.52549 1 0.729412 0.52549 
1 0.729412 0.52549 1 0.729412 0.52549 
1 0.729412 0.52549 1 0.729412 0.52549 
1 0.729412 0.52549 1 0.729412 0.52549 
1 0.729412 0.52549 1 0.729412 0.52549 
1 0.729412 0.52549 1 0.729412 0.52549 
1 0.729412 0.52549 1 0.729412 0.52549 
1 0.729412 0.52549 1 0.729412 0.52549 
1 0.729412 0.52549 1 0.729412 0.52549 
1 0.729412 0.52549 1 0.729412 0.52549 
1 0.729412 0.52549 1 0.729412 0.52549 
1 0.729412 0.52549 1 0.729412 0.52549 
1 0.729412 0.52549 1 0.729412 0.52549 
1 0.729412 0.52549 1 0.729412 0.52549 
1 0.729412 0.52549 1 0.729412 0.52549 
1 0.729412 0.52549 1 0.729412 0.52549 
1 0.729412 0.52549 1 0.729412 0.52549 
1 0.729412 0.52549 1 0.729412 0.52549 
1 0.729412 0.52549 1 0.729412 0.52549 
1 0.729412 0.52549 1 0.729412 0.52549 
1 0.729412 0.52549 1 0.729412 0.52549 
1 0.729412 0.52549 1 0.729412 0.52549 
1 0.729412 0.52549 1 0.729412 0.52549 
1 0.729412 0.52549 1 0.729412 0.52549 
1 0.729412 0.52549 1 0.729412 0.52549 
1 0.729412 0.52549 1 0.729412 0.52549 
1 0.729412 0.52549 1 0.729412 0.52549 
1 0.729412 0.52549 1 0.729412 0.52549 
1 0.729412 0.52549 1 0.729412 0.52549 
1 0.729412 0.52549 1 0.729412 0.52549 
1 0.729412 0.52549 1 0.729412 0.52549 
1 0.729412 0.52549 1 0.729412 0.52549 
1 0.729412 0.52549 1 0.729412 0.52549 
1 0.729412 0.52549 1 0.729412 0.52549 
1 0.729412 0.52549 1 0.729412 0.52549 
1 0.729412 0.52549 1 0.729412 0.52549 
1 0.729412 0.52549 1 0.729412 0.52549 
1 0.729412 0.52549 1 0.729412 0.52549 
1 0.729412 0.52549 1 0.729412 0.52549 
1 0.729412 0.52549 1 0.729412 0.52549 
1 0.729412 0.52549 1 0.729412 0.52549 
1 0.729412 0.52549 1 0.729412 0.52549 
1 0.729412 0.52549 1 0.729412 0.52549 
1 0.729412 0.52549 1 0.729412 0.52549 
1 0.729412 0.52549 1 0.729412 0.52549 
1 0.729412 0.52549 1 0.729412 0.52549 
1 0.729412 0.52549 1 0.729412 0.52549 
1 0.729412 0.52549 1 0.729412 0.52549 
1 0.729412 0.52549 1 0.729412 0.52549 
1 0.729412 0.52549 1 0.729412 0.52549 
1 0.729412 0.52549 1 0.729412 0.52549 
1 0.729412 0.52549 1 0.729412 0.52549 
1 0.729412 0.52549 1 0.729412 0.52549 
1 0.729412 0.52549 1 0.729412 0.52549 
1 0.729412 0.52549 1 0.729412 0.52549 
1 0.729412 0.52549 1 0.729412 0.52549 
1 0.729412 0.52549 1 0.729412 0.52549 
1 0.729412 0.52549 1 0.729412 0.52549 
1 0.729412 0.52549 1 0.729412 0.52549 
1 0.729412 0.52549 1 0.729412 0.52549 
1 0.729412 0.52549 1 0.729412 0.52549 
1 0.729412 0.52549 1 0.729412 0.52549 
1 0.729412 0.52549 1 0.729412 0.52549 
1 0.729412 0.52549 1 0.729412 0.52549 
1 0.729412 0.52549 1 0.729412 0.52549 
1 0.729412 0.52549 1 0.729412 0.52549 
1 0.729412 0.52549 1 0.729412 0.52549 
1 0.729412 0.52549 1 0.729412 0.52549 
1 0.729412 0.52549 1 0.729412 0.52549 
1 0.729412 0.52549 1 0.729412 0.52549 
1 0.729412 0.52549 1 0.729412 0.52549 
1 0.729412 0.52549 1 0.729412 0.52549 
1 0.729412 0.52549 1 0.729412 0.52549 
1 0.729412 0.52549 1 0.729412 0.52549 
1 0.729412 0.52549 1 0.729412 0.52549 
1 0.729412 0.52549 1 0.729412 0.52549 
1 0.729412 0.52549 1 0.729412 0.52549 
1 0.729412 0.52549 1 0.729412 0.52549 
1 0.729412 0.52549 1 0.729412 0.52549 
1 0.729412 0.52549 1 0.729412 0.52549 
1 0.729412 0.52549 1 0.729412 0.52549 
1 0.729412 0.52549 1 0.729412 0.52549 
1 0.729412 0.52549 1 0.729412 0.52549 
1 0.729412 0.52549 1 0.729412 0.52549 
1 0.729412 0.52549 1 0.729412 0.52549 
1 0.729412 0.52549 1 0.729412 0.52549 
1 0.729412 0.52549 1 0.729412 0.52549 
1 0.729412 0.52549 1 0.729412 0.52549 
1 0.729412 0.52549 1 0.729412 0.52549 
1 0.729412 0.52549 1 0.729412 0.52549 
1 0.729412 0.52549 1 0.729412 0.52549 
1 0.729412 0.52549 1 0.729412 0.52549 
1 0.729412 0.52549 1 0.729412 0.52549 
1 0.729412 0.52549 1 0.729412 0.52549 
1 0.729412 0.52549 1 0.729412 0.52549 
1 0.729412 0.52549 1 0.729412 0.52549 
1 0.729412 0.52549 1 0.729412 0.52549 
1 0.729412 0.52549 1 0.729412 0.52549 
1 0.729412 0.52549 1 0.729412 0.52549 
1 0.729412 0.52549 1 0.729412 0.52549 
1 0.729412 0.52549 1 0.729412 0.52549 
1 0.729412 0.52549 1 0.729412 0.52549 
1 0.729412 0.52549 1 0.729412 0.52549 
1 0.729412 0.52549 1 0.729412 0.52549 
1 0.729412 0.52549 1 0.729412 0.52549 
1 0.729412 0.52549 1 0.729412 0.52549 
1 0.729412 0.52549 1 0.729412 0.52549 
1 0.729412 0.52549 1 0.729412 0.52549 
1 0.729412 0.52549 1 0.729412 0.52549 
1 0.729412 0.52549 1 0.729412 0.52549 
1 0.729412 0.52549 1 0.729412 0.52549 
1 0.729412 0.52549 1 0.729412 0.52549 
1 0.729412 0.52549 1 0.729412 0.52549 
1 0.729412 0.52549 1 0.729412 0.52549 
1 0.729412 0.52549 1 0.729412 0.52549 
1 0.729412 0.52549 1 0.729412 0.52549 
