# vtk DataFile Version 4.2
vtk output
ASCII
DATASET POLYDATA
POINTS 283 float
425.704 182.51 211.765 427.678 182.799 211.477 428.827 182.244 211.806 
425.014 183.1 211.814 429.662 182.769 211.723 427.937 183.969 211.279 
430.117 183.379 211.724 429.937 183.823 211.626 425.042 184.587 211.68 
425.152 184.976 211.71 426.96 184.674 211.332 429.06 184.337 211.403 
425.494 185.217 211.655 425.994 185.23 211.554 428.287 185.145 211.464 
429.76 185.075 211.706 424.506 181.589 212.662 424.158 181.88 212.693 
431.286 182.178 212.745 423.53 184.937 212.792 424.652 184.811 211.961 
424.007 185.774 212.656 424.381 186.043 212.548 431.095 186.344 212.75 
426.152 186.927 212.484 427.155 187.404 212.639 430.943 186.787 212.897 
429.686 187.621 213.045 425.944 180.167 213.602 428.973 179.735 213.971 
424.706 180.591 213.51 426.634 180.725 212.81 429.944 180.489 213.393 
423.054 181.626 213.718 432.717 182.273 213.903 432.806 185.575 213.989 
433.081 185.109 214.254 423.091 186.486 213.799 431.632 187.253 213.647 
431.143 180.633 213.879 422.865 180.961 214.627 432.45 181.49 214.075 
422.242 181.642 214.843 421.655 183.637 215.174 422.028 184.583 214.518 
433.135 186.091 214.673 423.391 187.211 214.276 432.524 187.227 214.5 
425.582 188.592 214.6 428.967 189.083 214.629 423.312 180.254 215.726 
425.473 179.34 215.662 428.835 179.189 215.302 422.121 181.352 215.822 
432.885 181.724 214.588 421.754 182.434 215.412 421.616 185.074 215.927 
422.305 186.443 215.598 433.587 185.797 215.889 424.413 188.346 215.218 
429.561 189.309 215.16 430.867 189.029 215.227 424.038 179.693 216.996 
431.149 179.781 215.377 422.831 180.487 216.826 432.299 180.649 215.407 
433.603 183.06 216.152 432.37 188.252 215.967 427.824 189.844 216.887 
429.19 189.766 216.486 427.618 178.611 217.013 431.363 179.753 216.761 
421.472 185.218 217.601 433.58 186.308 217.307 422.403 186.922 217.507 
432.927 187.733 217.591 431.621 189.005 216.605 426.321 189.642 217.492 
427.026 189.815 217.63 433.49 182.606 217.702 421.821 186.033 218.13 
430.231 189.668 217.512 424.162 179.775 219.171 429.916 179.121 217.986 
421.745 182.246 218.25 433.623 183.609 218.634 421.424 184.195 218.464 
422.743 187.099 219.179 432.374 188.368 218.62 425.443 189.272 219.153 
431.417 189.201 217.979 428.003 189.817 218.742 430.967 179.669 218.661 
433.104 182.232 219.272 421.603 184.261 219.135 433.514 185.341 219.515 
421.868 185.268 219.58 432.206 188.405 219.207 431.576 188.922 219.101 
425.532 179.648 220.349 430.197 179.572 219.569 431.844 180.694 220.072 
422.404 182.326 220.084 432.72 182.268 220.461 421.93 184.969 219.859 
433.051 186.644 220.35 423.477 187.114 220.657 432.55 187.22 220.675 
430.987 188.793 220.158 426.582 189.199 220.449 430.746 189.071 219.742 
426.494 179.705 220.791 428.41 179.908 221.118 425.445 180.453 221.377 
430.116 180.135 220.738 431.329 180.85 220.916 423.409 181.603 220.93 
423.617 181.871 221.297 432.646 185.419 221.331 424.571 187.717 221.291 
432.29 187.233 221.036 432.222 187.026 221.286 425.659 188.337 221.336 
424.938 181.559 222.021 430.301 181.46 222.3 424.06 183.981 222.211 
431.701 184.512 222.375 423.396 185.051 221.602 430.946 186.925 222.185 
429.162 187.544 222.35 426.886 181.83 222.9 427.544 181.641 222.844 
429.661 181.895 222.853 430.374 182.602 222.94 425.198 183.286 222.829 
425.754 185.774 223.072 429.539 186.327 223.059 427.294 186.693 223.055 
428.937 182.62 223.303 426.808 183.773 223.498 428.004 184.119 223.679 
429.415 183.853 223.498 427.021 185.616 223.453 429.045 185.104 223.545 
428.554 182.956 231.75 426.741 183.159 231.87 427.828 183.713 231.539 
429.689 182.845 231.995 426.964 184.272 231.632 430.111 183.684 232.034 
428.644 184.651 231.563 429.976 184.419 231.957 426.706 185.301 231.774 
427.761 185.297 231.634 426.671 181.784 232.493 427.083 181.297 232.773 
430.854 181.864 232.932 425.466 186.146 232.616 426.222 187.121 232.876 
424.259 181.533 233.747 431.685 181.666 233.596 431.836 181.416 233.941 
423.943 181.748 233.889 423.331 185.886 234.081 432.441 185.552 233.799 
423.832 186.437 233.783 431.305 187.366 233.558 426.381 188.468 234.163 
425.786 180.132 234.284 424.061 180.999 234.437 432.527 182.383 234.045 
432.99 183.51 234.321 422.325 184.315 234.98 433.242 185.233 234.781 
423.56 186.421 234.06 430.599 188.21 233.973 427.756 189.423 235.252 
425.081 179.772 235.476 428.146 179.155 235.716 423.88 180.464 235.487 
432.678 181.555 234.951 422.623 181.806 235.435 421.781 183.299 235.974 
433.661 184.382 235.8 423.513 187.317 235 432.543 187.182 234.905 
425.049 188.674 235.444 430.142 189.252 235.283 429.564 179.193 236.083 
431.079 179.856 235.371 422.656 181.219 236.337 433.058 181.76 235.856 
425.693 189.339 236.491 430.842 189.197 235.816 427.011 189.782 236.947 
425.627 179.076 237.374 433.451 182.453 236.868 422.672 187.219 237.53 
432.627 188.108 236.973 427.535 178.559 238.22 422.755 180.727 238.494 
431.927 180.188 237.22 432.828 181.212 237.182 421.5 182.707 237.924 
421.566 185.484 238.75 433.887 185.817 238.219 433.417 187.052 237.998 
427.666 178.585 238.558 424.087 179.831 239.607 421.952 181.733 239.195 
421.329 183.506 238.794 421.402 184.797 239.217 433.89 185.263 238.961 
433.983 185.741 238.756 433.947 185.969 238.7 433.997 185.866 238.859 
421.817 186.138 238.757 433.712 186.39 238.683 433.912 185.975 238.942 
421.994 186.456 239.124 422.428 186.993 239.402 433.001 187.731 238.909 
432.213 188.532 238.677 431.165 179.726 238.96 433.72 184.49 239.57 
433.947 185.747 238.997 433.718 185.853 239.416 424.106 188.408 240.04 
425.69 189.392 239.417 429.994 179.576 240.328 422.203 181.913 240.589 
432.498 181.558 240.487 433.449 185.383 240.266 421.848 185.402 240.816 
422.731 187.007 240.772 422.925 187.295 240.569 432.537 187.718 240.385 
431.831 188.178 240.554 428.269 189.293 240.551 424.353 180.125 241.275 
431.565 180.625 240.628 422.892 181.498 241.473 422.032 183.219 241.243 
432.967 183.114 240.976 421.984 185.392 241.173 432.41 187.167 241.236 
432.603 186.788 241.22 423.362 187.184 241.445 426.433 188.381 241.643 
431.563 187.723 241.525 429.558 189.119 240.522 425.479 180.019 241.762 
423.737 180.898 241.861 427.959 180.273 242.217 422.791 181.984 241.72 
431.837 182.89 242.348 432.737 183.358 241.449 422.468 183.927 241.971 
422.193 185.231 241.503 423.038 185.125 242.371 432.161 184.958 242.33 
432.21 185.416 242.243 424.04 186.927 242.185 426.112 187.536 242.423 
427.493 187.946 242.242 429.866 188.086 241.836 427.018 180.685 242.642 
423.61 181.758 242.362 429.799 181.843 243.104 424.243 182.261 242.9 
430.376 182.473 243.235 431.208 184.851 243.019 424.459 185.628 243.132 
426.333 186.968 242.891 427.196 186.843 243.05 427.822 187.353 242.731 
428.971 186.456 243.198 427.258 182.553 243.593 424.869 183.725 243.38 
426.319 183.446 243.692 428.623 183.774 243.804 430.089 183.637 243.537 
428.398 185.19 243.7 
POLYGONS 558 2232
3 0 10 1 
3 0 3 8 
3 10 0 8 
3 2 1 5 
3 4 2 5 
3 5 1 10 
3 4 5 11 
3 6 4 7 
3 7 4 11 
3 10 8 13 
3 13 8 9 
3 7 11 15 
3 12 13 9 
3 11 5 14 
3 14 5 10 
3 11 14 27 
3 15 11 27 
3 16 0 31 
3 1 2 29 
3 2 18 32 
3 29 2 32 
3 16 17 3 
3 0 16 3 
3 1 31 0 
3 4 18 2 
3 6 18 4 
3 20 3 17 
3 19 20 17 
3 3 20 8 
3 8 20 9 
3 21 22 19 
3 19 22 20 
3 9 20 12 
3 20 22 12 
3 15 6 7 
3 15 23 6 
3 12 22 13 
3 13 24 10 
3 10 27 14 
3 27 23 15 
3 24 13 22 
3 24 25 10 
3 27 10 25 
3 26 23 27 
3 31 51 28 
3 31 29 51 
3 30 33 17 
3 30 17 16 
3 31 30 16 
3 28 30 31 
3 29 31 1 
3 18 34 39 
3 39 34 41 
3 17 33 43 
3 18 6 36 
3 36 34 18 
3 44 19 43 
3 43 19 17 
3 6 23 36 
3 21 19 44 
3 37 21 44 
3 35 36 23 
3 21 37 22 
3 45 35 23 
3 38 45 23 
3 37 46 22 
3 22 48 24 
3 48 25 24 
3 26 38 23 
3 45 38 47 
3 48 22 46 
3 25 48 27 
3 26 27 38 
3 27 48 49 
3 38 27 49 
3 29 52 51 
3 33 30 40 
3 32 39 63 
3 29 32 63 
3 32 18 39 
3 40 42 33 
3 41 34 54 
3 33 42 43 
3 36 54 34 
3 44 43 56 
3 56 37 44 
3 36 35 45 
3 57 37 56 
3 37 57 46 
3 46 59 48 
3 38 49 60 
3 61 38 60 
3 30 51 50 
3 28 51 30 
3 51 52 70 
3 29 63 52 
3 50 53 40 
3 30 50 40 
3 65 63 39 
3 40 53 42 
3 41 65 39 
3 41 54 65 
3 42 55 43 
3 54 36 66 
3 36 45 58 
3 38 67 47 
3 45 47 67 
3 58 45 67 
3 61 67 38 
3 69 49 68 
3 60 49 69 
3 51 62 64 
3 50 51 64 
3 64 53 50 
3 42 53 55 
3 53 86 55 
3 55 86 43 
3 54 66 65 
3 66 36 58 
3 43 86 56 
3 86 72 56 
3 74 57 56 
3 48 59 77 
3 49 48 77 
3 67 61 76 
3 61 60 69 
3 61 69 76 
3 51 70 62 
3 62 70 82 
3 52 71 70 
3 63 71 52 
3 65 71 63 
3 53 84 86 
3 84 53 64 
3 66 58 73 
3 74 56 72 
3 58 67 73 
3 73 67 75 
3 46 57 74 
3 59 74 87 
3 59 46 74 
3 49 77 78 
3 49 78 68 
3 76 69 81 
3 62 82 64 
3 71 83 70 
3 101 71 65 
3 65 66 79 
3 79 66 73 
3 80 74 72 
3 95 73 88 
3 80 87 74 
3 73 75 88 
3 59 87 77 
3 75 67 76 
3 90 75 76 
3 77 89 78 
3 68 78 91 
3 69 68 91 
3 69 91 81 
3 90 76 81 
3 70 99 82 
3 64 102 84 
3 93 101 65 
3 65 79 93 
3 93 79 85 
3 79 73 85 
3 85 73 95 
3 86 94 72 
3 72 94 80 
3 94 96 80 
3 87 122 89 
3 87 89 77 
3 88 75 90 
3 98 88 90 
3 78 89 91 
3 81 91 90 
3 70 111 99 
3 83 100 70 
3 92 100 71 
3 71 100 83 
3 82 116 102 
3 64 82 102 
3 92 101 100 
3 71 101 92 
3 93 85 95 
3 84 94 86 
3 96 87 80 
3 127 87 96 
3 95 88 105 
3 106 87 127 
3 105 88 107 
3 106 122 87 
3 107 88 97 
3 89 122 109 
3 88 98 97 
3 89 109 91 
3 91 98 90 
3 99 116 82 
3 93 103 101 
3 102 94 84 
3 103 93 118 
3 118 93 95 
3 94 104 96 
3 96 104 127 
3 108 128 97 
3 128 107 97 
3 97 110 108 
3 97 98 110 
3 98 91 110 
3 111 70 114 
3 112 111 114 
3 70 100 114 
3 113 116 99 
3 111 113 99 
3 100 115 114 
3 101 115 100 
3 116 113 117 
3 101 103 115 
3 102 127 94 
3 94 127 104 
3 118 95 105 
3 120 121 107 
3 107 121 105 
3 106 119 122 
3 121 120 128 
3 107 128 120 
3 109 108 110 
3 110 91 109 
3 113 111 123 
3 111 112 131 
3 112 114 131 
3 131 114 115 
3 113 123 117 
3 111 130 123 
3 131 130 111 
3 131 115 124 
3 134 117 123 
3 124 103 133 
3 124 115 103 
3 117 125 116 
3 125 117 134 
3 103 118 133 
3 125 127 102 
3 116 125 102 
3 126 133 118 
3 128 126 118 
3 121 128 118 
3 118 105 121 
3 122 137 109 
3 137 129 109 
3 128 108 129 
3 108 109 129 
3 124 132 131 
3 123 130 134 
3 124 133 132 
3 134 135 127 
3 125 134 127 
3 126 141 133 
3 127 135 106 
3 126 128 141 
3 119 106 135 
3 141 128 136 
3 122 119 135 
3 137 122 135 
3 137 142 129 
3 142 136 129 
3 136 128 129 
3 131 139 130 
3 139 131 138 
3 138 131 132 
3 130 139 134 
3 138 140 139 
3 132 141 138 
3 132 133 141 
3 134 139 135 
3 140 135 139 
3 138 143 140 
3 141 143 138 
3 140 142 135 
3 143 142 140 
3 141 136 143 
3 142 137 135 
3 143 136 142 
3 146 144 145 
3 148 146 145 
3 146 148 153 
3 153 148 152 
3 144 146 150 
3 150 146 153 
3 147 144 150 
3 151 149 147 
3 150 151 147 
3 151 150 153 
3 154 145 155 
3 159 154 155 
3 155 145 147 
3 147 156 155 
3 154 159 145 
3 144 147 145 
3 157 145 159 
3 156 149 151 
3 147 149 156 
3 156 151 171 
3 148 157 152 
3 145 157 148 
3 164 171 151 
3 166 164 151 
3 157 158 152 
3 152 175 153 
3 152 158 175 
3 151 153 175 
3 175 166 151 
3 156 160 189 
3 155 156 189 
3 156 170 160 
3 172 162 181 
3 159 162 157 
3 157 162 172 
3 156 171 170 
3 173 171 164 
3 172 163 165 
3 172 165 157 
3 165 184 157 
3 157 184 158 
3 167 158 184 
3 158 167 175 
3 175 167 176 
3 189 168 155 
3 159 169 162 
3 168 169 155 
3 169 159 155 
3 189 160 161 
3 180 160 170 
3 180 161 160 
3 174 165 163 
3 173 164 185 
3 174 163 184 
3 165 174 184 
3 164 166 185 
3 184 186 167 
3 175 176 187 
3 177 168 195 
3 189 178 168 
3 168 178 195 
3 169 179 162 
3 162 179 181 
3 177 179 169 
3 168 177 169 
3 189 161 180 
3 172 181 182 
3 170 171 183 
3 172 182 163 
3 171 173 183 
3 173 185 183 
3 185 166 175 
3 167 186 194 
3 176 167 194 
3 189 188 178 
3 181 179 190 
3 180 170 191 
3 182 181 203 
3 170 183 196 
3 182 184 163 
3 186 184 197 
3 175 198 185 
3 186 197 192 
3 186 192 194 
3 193 175 187 
3 193 198 175 
3 192 197 194 
3 176 194 187 
3 179 177 195 
3 178 188 195 
3 181 190 203 
3 189 191 202 
3 180 191 189 
3 191 170 196 
3 182 204 197 
3 197 184 182 
3 183 185 205 
3 198 205 185 
3 179 195 200 
3 195 188 199 
3 188 223 199 
3 189 223 188 
3 190 179 200 
3 189 201 223 
3 201 189 202 
3 200 203 190 
3 202 191 196 
3 203 210 182 
3 182 210 204 
3 197 204 216 
3 206 205 198 
3 222 206 198 
3 197 228 194 
3 187 194 193 
3 195 208 200 
3 199 229 207 
3 199 223 229 
3 200 230 209 
3 200 209 203 
3 202 196 224 
3 196 183 224 
3 224 183 212 
3 210 211 204 
3 213 205 214 
3 213 212 205 
3 212 183 205 
3 213 214 215 
3 216 204 234 
3 234 204 211 
3 214 217 218 
3 214 205 217 
3 205 206 217 
3 215 214 218 
3 216 234 219 
3 219 220 216 
3 220 197 216 
3 217 206 221 
3 221 206 222 
3 193 222 198 
3 193 194 222 
3 199 207 195 
3 200 208 230 
3 195 251 208 
3 207 251 195 
3 203 209 210 
3 223 201 202 
3 225 212 213 
3 225 226 212 
3 226 224 212 
3 213 215 225 
3 218 226 225 
3 218 217 226 
3 217 221 226 
3 215 218 225 
3 219 234 220 
3 220 234 235 
3 197 220 235 
3 197 227 228 
3 194 228 238 
3 194 250 222 
3 208 239 230 
3 208 251 239 
3 207 229 251 
3 240 229 223 
3 223 231 240 
3 223 202 231 
3 230 242 209 
3 231 202 243 
3 243 202 224 
3 210 233 211 
3 211 233 234 
3 224 226 232 
3 226 221 232 
3 234 247 235 
3 197 235 227 
3 236 221 237 
3 228 227 238 
3 250 237 222 
3 237 221 222 
3 194 238 250 
3 230 239 252 
3 251 252 239 
3 252 241 230 
3 230 241 242 
3 209 242 210 
3 242 244 210 
3 210 244 233 
3 233 244 234 
3 245 246 221 
3 221 246 232 
3 245 236 249 
3 221 236 245 
3 227 235 247 
3 249 236 237 
3 248 238 227 
3 249 237 265 
3 265 237 250 
3 251 229 253 
3 266 251 253 
3 241 267 254 
3 252 267 241 
3 240 253 229 
3 231 255 240 
3 241 254 242 
3 231 243 255 
3 242 254 257 
3 267 257 254 
3 256 255 243 
3 281 255 256 
3 242 258 244 
3 258 242 257 
3 260 281 256 
3 243 224 256 
3 259 258 257 
3 260 256 261 
3 224 232 261 
3 256 224 261 
3 244 258 259 
3 261 232 246 
3 234 262 247 
3 234 259 262 
3 234 244 259 
3 246 245 249 
3 246 249 261 
3 227 247 262 
3 263 227 262 
3 248 227 263 
3 264 238 248 
3 275 238 264 
3 250 238 275 
3 265 250 275 
3 267 252 269 
3 251 269 252 
3 240 268 253 
3 268 240 255 
3 268 255 270 
3 267 269 257 
3 255 281 270 
3 261 271 260 
3 271 281 260 
3 272 262 259 
3 271 261 249 
3 263 262 272 
3 263 273 248 
3 263 272 273 
3 248 274 275 
3 273 274 248 
3 271 249 276 
3 275 264 248 
3 265 275 276 
3 249 265 276 
3 251 279 269 
3 251 266 277 
3 279 251 277 
3 266 253 277 
3 277 253 268 
3 268 270 281 
3 269 278 257 
3 279 278 269 
3 277 282 279 
3 268 280 277 
3 281 280 268 
3 279 272 278 
3 272 259 257 
3 272 257 278 
3 282 272 279 
3 280 282 277 
3 281 271 280 
3 273 272 282 
3 274 273 282 
3 280 276 282 
3 271 276 280 
3 282 275 274 
3 276 275 282 

POINT_DATA 283
COLOR_SCALARS scalars 3
1 0.729412 0.52549 1 0.729412 0.52549 1 0.729412 0.52549 
1 0.729412 0.52549 1 0.729412 0.52549 
1 0.729412 0.52549 1 0.729412 0.52549 
1 0.729412 0.52549 1 0.729412 0.52549 
1 0.729412 0.52549 1 0.729412 0.52549 
1 0.729412 0.52549 1 0.729412 0.52549 
1 0.729412 0.52549 1 0.729412 0.52549 
1 0.729412 0.52549 1 0.729412 0.52549 
1 0.729412 0.52549 1 0.729412 0.52549 
1 0.729412 0.52549 1 0.729412 0.52549 
1 0.729412 0.52549 1 0.729412 0.52549 
1 0.729412 0.52549 1 0.729412 0.52549 
1 0.729412 0.52549 1 0.729412 0.52549 
1 0.729412 0.52549 1 0.729412 0.52549 
1 0.729412 0.52549 1 0.729412 0.52549 
1 0.729412 0.52549 1 0.729412 0.52549 
1 0.729412 0.52549 1 0.729412 0.52549 
1 0.729412 0.52549 1 0.729412 0.52549 
1 0.729412 0.52549 1 0.729412 0.52549 
1 0.729412 0.52549 1 0.729412 0.52549 
1 0.729412 0.52549 1 0.729412 0.52549 
1 0.729412 0.52549 1 0.729412 0.52549 
1 0.729412 0.52549 1 0.729412 0.52549 
1 0.729412 0.52549 1 0.729412 0.52549 
1 0.729412 0.52549 1 0.729412 0.52549 
1 0.729412 0.52549 1 0.729412 0.52549 
1 0.729412 0.52549 1 0.729412 0.52549 
1 0.729412 0.52549 1 0.729412 0.52549 
1 0.729412 0.52549 1 0.729412 0.52549 
1 0.729412 0.52549 1 0.729412 0.52549 
1 0.729412 0.52549 1 0.729412 0.52549 
1 0.729412 0.52549 1 0.729412 0.52549 
1 0.729412 0.52549 1 0.729412 0.52549 
1 0.729412 0.52549 1 0.729412 0.52549 
1 0.729412 0.52549 1 0.729412 0.52549 
1 0.729412 0.52549 1 0.729412 0.52549 
1 0.729412 0.52549 1 0.729412 0.52549 
1 0.729412 0.52549 1 0.729412 0.52549 
1 0.729412 0.52549 1 0.729412 0.52549 
1 0.729412 0.52549 1 0.729412 0.52549 
1 0.729412 0.52549 1 0.729412 0.52549 
1 0.729412 0.52549 1 0.729412 0.52549 
1 0.729412 0.52549 1 0.729412 0.52549 
1 0.729412 0.52549 1 0.729412 0.52549 
1 0.729412 0.52549 1 0.729412 0.52549 
1 0.729412 0.52549 1 0.729412 0.52549 
1 0.729412 0.52549 1 0.729412 0.52549 
1 0.729412 0.52549 1 0.729412 0.52549 
1 0.729412 0.52549 1 0.729412 0.52549 
1 0.729412 0.52549 1 0.729412 0.52549 
1 0.729412 0.52549 1 0.729412 0.52549 
1 0.729412 0.52549 1 0.729412 0.52549 
1 0.729412 0.52549 1 0.729412 0.52549 
1 0.729412 0.52549 1 0.729412 0.52549 
1 0.729412 0.52549 1 0.729412 0.52549 
1 0.729412 0.52549 1 0.729412 0.52549 
1 0.729412 0.52549 1 0.729412 0.52549 
1 0.729412 0.52549 1 0.729412 0.52549 
1 0.729412 0.52549 1 0.729412 0.52549 
1 0.729412 0.52549 1 0.729412 0.52549 
1 0.729412 0.52549 1 0.729412 0.52549 
1 0.729412 0.52549 1 0.729412 0.52549 
1 0.729412 0.52549 1 0.729412 0.52549 
1 0.729412 0.52549 1 0.729412 0.52549 
1 0.729412 0.52549 1 0.729412 0.52549 
1 0.729412 0.52549 1 0.729412 0.52549 
1 0.729412 0.52549 1 0.729412 0.52549 
1 0.729412 0.52549 1 0.729412 0.52549 
1 0.729412 0.52549 1 0.729412 0.52549 
1 0.729412 0.52549 1 0.729412 0.52549 
1 0.729412 0.52549 1 0.729412 0.52549 
1 0.729412 0.52549 1 0.729412 0.52549 
1 0.729412 0.52549 1 0.729412 0.52549 
1 0.729412 0.52549 1 0.729412 0.52549 
1 0.729412 0.52549 1 0.729412 0.52549 
1 0.729412 0.52549 1 0.729412 0.52549 
1 0.729412 0.52549 1 0.729412 0.52549 
1 0.729412 0.52549 1 0.729412 0.52549 
1 0.729412 0.52549 1 0.729412 0.52549 
1 0.729412 0.52549 1 0.729412 0.52549 
1 0.729412 0.52549 1 0.729412 0.52549 
1 0.729412 0.52549 1 0.729412 0.52549 
1 0.729412 0.52549 1 0.729412 0.52549 
1 0.729412 0.52549 1 0.729412 0.52549 
1 0.729412 0.52549 1 0.729412 0.52549 
1 0.729412 0.52549 1 0.729412 0.52549 
1 0.729412 0.52549 1 0.729412 0.52549 
1 0.729412 0.52549 1 0.729412 0.52549 
1 0.729412 0.52549 1 0.729412 0.52549 
1 0.729412 0.52549 1 0.729412 0.52549 
1 0.729412 0.52549 1 0.729412 0.52549 
1 0.729412 0.52549 1 0.729412 0.52549 
1 0.729412 0.52549 1 0.729412 0.52549 
1 0.729412 0.52549 1 0.729412 0.52549 
1 0.729412 0.52549 1 0.729412 0.52549 
1 0.729412 0.52549 1 0.729412 0.52549 
1 0.729412 0.52549 1 0.729412 0.52549 
1 0.729412 0.52549 1 0.729412 0.52549 
1 0.729412 0.52549 1 0.729412 0.52549 
1 0.729412 0.52549 1 0.729412 0.52549 
1 0.729412 0.52549 1 0.729412 0.52549 
1 0.729412 0.52549 1 0.729412 0.52549 
1 0.729412 0.52549 1 0.729412 0.52549 
1 0.729412 0.52549 1 0.729412 0.52549 
1 0.729412 0.52549 1 0.729412 0.52549 
1 0.729412 0.52549 1 0.729412 0.52549 
1 0.729412 0.52549 1 0.729412 0.52549 
1 0.729412 0.52549 1 0.729412 0.52549 
1 0.729412 0.52549 1 0.729412 0.52549 
1 0.729412 0.52549 1 0.729412 0.52549 
1 0.729412 0.52549 1 0.729412 0.52549 
1 0.729412 0.52549 1 0.729412 0.52549 
1 0.729412 0.52549 1 0.729412 0.52549 
1 0.729412 0.52549 1 0.729412 0.52549 
1 0.729412 0.52549 1 0.729412 0.52549 
1 0.729412 0.52549 1 0.729412 0.52549 
1 0.729412 0.52549 1 0.729412 0.52549 
1 0.729412 0.52549 1 0.729412 0.52549 
1 0.729412 0.52549 1 0.729412 0.52549 
1 0.729412 0.52549 1 0.729412 0.52549 
1 0.729412 0.52549 1 0.729412 0.52549 
1 0.729412 0.52549 1 0.729412 0.52549 
1 0.729412 0.52549 1 0.729412 0.52549 
1 0.729412 0.52549 1 0.729412 0.52549 
1 0.729412 0.52549 1 0.729412 0.52549 
1 0.729412 0.52549 1 0.729412 0.52549 
1 0.729412 0.52549 1 0.729412 0.52549 
1 0.729412 0.52549 1 0.729412 0.52549 
1 0.729412 0.52549 1 0.729412 0.52549 
1 0.729412 0.52549 1 0.729412 0.52549 
1 0.729412 0.52549 1 0.729412 0.52549 
1 0.729412 0.52549 1 0.729412 0.52549 
1 0.729412 0.52549 1 0.729412 0.52549 
1 0.729412 0.52549 1 0.729412 0.52549 
1 0.729412 0.52549 1 0.729412 0.52549 
1 0.729412 0.52549 1 0.729412 0.52549 
1 0.729412 0.52549 1 0.729412 0.52549 
1 0.729412 0.52549 1 0.729412 0.52549 
1 0.729412 0.52549 1 0.729412 0.52549 
1 0.729412 0.52549 1 0.729412 0.52549 
1 0.729412 0.52549 1 0.729412 0.52549 

NORMALS Normals float
-0.176398 -0.299962 -0.9375 -0.0169576 -0.385003 -0.92276 0.131955 -0.492957 -0.859989 
-0.4436 -0.192867 -0.875227 0.217908 -0.26467 -0.939397 0.0614532 -0.0778023 -0.995073 
0.544657 -0.0254204 -0.838274 0.361316 -0.00635977 -0.932422 -0.310421 0.0301773 -0.95012 
-0.369968 0.25517 -0.893315 -0.0695441 0.207168 -0.97583 0.157482 0.138331 -0.977785 
-0.348149 0.404585 -0.845637 -0.167657 0.316554 -0.93364 0.079182 0.319667 -0.944216 
0.363047 0.270895 -0.891523 -0.345169 -0.518681 -0.782195 -0.608276 -0.271031 -0.746018 
0.476444 -0.373927 -0.795726 -0.634077 0.0320132 -0.772607 -0.571457 0.163242 -0.804232 
-0.596542 0.246177 -0.763894 -0.391267 0.470764 -0.790753 0.51123 0.25364 -0.821164 
-0.180395 0.575373 -0.797749 -0.0516388 0.637172 -0.768989 0.334799 0.480611 -0.810508 
0.116872 0.584406 -0.803001 -0.01822 -0.877985 -0.478341 0.068807 -0.800982 -0.594722 
-0.376849 -0.740906 -0.555916 -0.0307875 -0.722012 -0.691195 0.273115 -0.694896 -0.665228 
-0.662643 -0.38831 -0.640406 0.696024 -0.273371 -0.663942 0.699271 0.156224 -0.697577 
0.818344 -0.00177562 -0.574726 -0.727042 0.423938 -0.540079 0.465757 0.599524 -0.650877 
0.458949 -0.640191 -0.616053 -0.620067 -0.678001 -0.394755 0.628934 -0.542908 -0.556501 
-0.825807 -0.368148 -0.427212 -0.881519 -0.0664179 -0.467453 -0.825169 0.163386 -0.540741 
0.815023 0.31086 -0.488983 -0.575911 0.702593 -0.41796 0.711347 0.507189 -0.486564 
-0.244927 0.807782 -0.536189 -0.0502076 0.874468 -0.482478 -0.514512 -0.830336 -0.214055 
-0.197036 -0.932136 -0.303808 0.125089 -0.956757 -0.262618 -0.852095 -0.510857 -0.113836 
0.887928 -0.345135 -0.304081 -0.952538 -0.244075 -0.181929 -0.94512 0.253934 -0.205585 
-0.822494 0.519764 -0.230973 0.95924 0.196597 -0.203 -0.523813 0.834621 -0.170378 
0.160116 0.854249 -0.494592 0.380275 0.839704 -0.38767 -0.414541 -0.9077 -0.0650858 
0.390144 -0.861769 -0.324255 -0.649512 -0.75951 0.0357568 0.750344 -0.649319 -0.123973 
0.97706 -0.182612 -0.109578 0.753281 0.604935 -0.258112 -0.129161 0.968625 -0.21233 
0.124477 0.974474 -0.186831 -0.0266082 -0.9965 0.079242 0.44572 -0.895012 -0.0169474 
-0.95676 0.28985 0.0244598 0.977314 0.210836 0.0201544 -0.782216 0.618944 -0.071043 
0.794981 0.606634 0.00104695 0.502733 0.855202 -0.126053 -0.356671 0.919798 -0.163575 
-0.231513 0.96553 -0.118971 0.959142 -0.281753 0.0257264 -0.906893 0.403361 0.121837 
0.257935 0.966096 0.0113607 -0.531021 -0.813654 0.23661 0.30423 -0.94876 0.0854275 
-0.910188 -0.371568 0.183016 0.98509 -0.109502 0.132692 -0.996558 -0.0734883 0.0383486 
-0.711483 0.667232 0.220441 0.808639 0.572649 0.134824 -0.382336 0.905887 0.182178 
0.490641 0.867384 0.0831705 0.0622835 0.984981 0.161041 0.433915 -0.890355 0.137788 
0.902301 -0.346172 0.256938 -0.934002 0.00578395 0.357222 0.961185 0.0916529 0.260235 
-0.859266 0.333269 0.388064 0.587316 0.717434 0.374631 0.451377 0.86768 0.208302 
-0.315702 -0.850943 0.419796 0.286025 -0.913501 0.28932 0.678684 -0.686125 0.261955 
-0.804731 -0.361338 0.471002 0.763901 -0.36063 0.535165 -0.839576 0.0695548 0.538771 
0.871874 0.320914 0.369933 -0.671794 0.564215 0.479951 0.627951 0.698597 0.342987 
0.334496 0.782664 0.524928 -0.046058 0.857469 0.51247 0.295263 0.883736 0.363084 
-0.0368236 -0.832365 0.553003 0.118281 -0.854799 0.5053 -0.316075 -0.646136 0.694698 
0.188686 -0.86815 0.459035 0.428322 -0.713448 0.554556 -0.660205 -0.491986 0.56752 
-0.601256 -0.359726 0.713505 0.817909 -0.0230269 0.574886 -0.525828 0.627581 0.574149 
0.312063 0.87234 0.37635 0.67193 0.370829 0.64109 -0.403428 0.761841 0.506797 
-0.290722 -0.491918 0.820669 0.373299 -0.626745 0.683988 -0.664092 -0.0423455 0.746451 
0.616678 -0.0220378 0.786907 -0.697892 0.162318 0.697567 0.408102 0.55898 0.721799 
0.143457 0.614155 0.776037 -0.206377 -0.471763 0.857233 0.0454795 -0.621197 0.782334 
0.202536 -0.46082 0.864074 0.557124 -0.329598 0.762219 -0.431255 -0.118652 0.894394 
-0.394629 0.254315 0.882945 0.273144 0.344669 0.898107 -0.0771412 0.546486 0.833908 
0.0445958 -0.263336 0.963673 -0.172027 -0.184033 0.967749 -0.0662851 -0.035999 0.997151 
0.320818 -0.0366091 0.946433 -0.0450452 0.279707 0.959028 0.128336 0.0895521 0.987679 
0.0469601 -0.487685 -0.871756 -0.269599 -0.404775 -0.87377 -0.0522796 -0.106587 -0.992928 
0.196431 -0.412761 -0.889406 -0.327244 -0.018312 -0.944762 0.561674 -0.0597346 -0.825199 
0.191874 0.0584323 -0.979679 0.443234 0.173334 -0.879488 -0.21372 0.368616 -0.90468 
0.0493918 0.323913 -0.944797 -0.198711 -0.494443 -0.846192 -0.0615901 -0.645297 -0.761445 
0.50449 -0.342288 -0.792672 -0.526157 0.169352 -0.833354 -0.231461 0.594519 -0.770047 
-0.462802 -0.420068 -0.780613 0.547645 -0.510623 -0.662834 0.563724 -0.602451 -0.565038 
-0.682085 -0.321422 -0.656847 -0.813972 0.261222 -0.518857 0.697361 0.18609 -0.692141 
-0.500861 0.23476 -0.833082 0.492355 0.465424 -0.735504 -0.245775 0.784482 -0.569371 
-0.149826 -0.82778 -0.540678 -0.515805 -0.645429 -0.563353 0.832846 -0.235759 -0.500784 
0.764562 -0.0807587 -0.639471 -0.688612 -0.0843458 -0.720208 0.885731 0.176656 -0.429271 
-0.734038 0.402654 -0.546863 0.252642 0.691199 -0.677064 -0.049389 0.883474 -0.46587 
-0.367658 -0.852821 -0.370842 0.0232677 -0.921528 -0.387615 -0.619359 -0.717924 -0.317774 
0.7613 -0.49604 -0.417572 -0.782282 -0.425356 -0.455089 -0.955481 0.139832 -0.259815 
0.983238 -0.0501574 -0.175293 -0.651876 0.577833 -0.491088 0.803067 0.46615 -0.371198 
-0.418825 0.833819 -0.359627 0.179106 0.921511 -0.344584 0.160929 -0.969528 -0.184707 
0.411729 -0.812794 -0.412122 -0.757304 -0.613754 -0.223151 0.870977 -0.446383 -0.205284 
-0.420741 0.904736 -0.0665582 0.413272 0.890386 -0.190837 -0.0875032 0.993363 -0.0746516 
-0.283173 -0.955486 -0.0828197 0.958169 -0.271566 -0.0903542 -0.715043 0.692267 -0.0973684 
0.756303 0.604777 -0.249501 0.130834 -0.991035 -0.0270592 -0.680394 -0.732599 -0.0190353 
0.657867 -0.752246 -0.0365705 0.842756 -0.536258 0.0468045 -0.910959 -0.390895 -0.131741 
-0.956278 0.279908 -0.0847522 0.958083 0.195637 -0.209292 0.867423 0.484623 -0.112775 
-0.0438251 -0.97997 0.194263 -0.458702 -0.873356 0.163836 -0.89558 -0.426573 0.126383 
-0.992604 -0.0738184 0.096374 -0.964565 0.242254 0.104537 0.983406 -0.136532 0.119464 
0.994186 -0.086071 -0.0647036 0.930128 0.355829 -0.0908132 0.972763 0.18417 0.140759 
-0.899821 0.436191 0.00767155 0.874775 0.474404 0.0985331 0.838242 0.43831 0.324399 
-0.872921 0.475968 0.107065 -0.73805 0.674638 0.0120616 0.823698 0.516736 0.233466 
0.523004 0.849519 0.0691628 0.527668 -0.841975 0.112446 0.951263 -0.133533 0.27797 
0.933659 -0.00103416 0.358162 0.881284 0.237082 0.408817 -0.421804 0.820227 0.386406 
-0.357508 0.923302 0.140364 0.287361 -0.905354 0.312661 -0.746257 -0.61764 0.248235 
0.776589 -0.534983 0.332719 0.882616 0.163329 0.440809 -0.94105 0.206449 0.267963 
-0.820681 0.428961 0.377459 -0.64338 0.73873 0.200851 0.689903 0.6165 0.379423 
0.463881 0.804485 0.370969 -0.00264411 0.880609 0.473836 -0.480036 -0.811883 0.332281 
0.516344 -0.686231 0.512324 -0.729391 -0.502835 0.463838 -0.89015 -0.183306 0.417172 
0.875324 -0.304429 0.375673 -0.841554 0.231996 0.487816 0.746224 0.393605 0.536867 
0.751841 0.309969 0.58194 -0.587095 0.608747 0.533616 -0.14287 0.717519 0.681729 
0.447921 0.525103 0.723626 0.201324 0.90209 0.38171 -0.185288 -0.782901 0.593914 
-0.484737 -0.663709 0.569667 0.151811 -0.709475 0.688185 -0.724879 -0.313915 0.613195 
0.647928 -0.344164 0.679515 0.789158 -0.0543883 0.611777 -0.634861 -0.0766359 0.768816 
-0.772308 0.165316 0.613361 -0.608716 0.310292 0.730194 0.665105 -0.0815311 0.742285 
0.739099 0.133829 0.660168 -0.487562 0.519436 0.701761 -0.231793 0.657791 0.716647 
-0.00237072 0.693744 0.720218 0.198626 0.722872 0.661819 -0.0601579 -0.563703 0.823784 
-0.558688 -0.365343 0.744575 0.257623 -0.479187 0.839053 -0.325727 -0.337076 0.883335 
0.39529 -0.333823 0.85575 0.406174 0.185655 0.894737 -0.318235 0.247132 0.915233 
-0.0961057 0.502294 0.85934 -0.0508169 0.511434 0.857819 0.0221099 0.614957 0.78825 
0.233573 0.384183 0.893223 -0.0665389 -0.310154 0.948355 -0.369835 -0.046067 0.927955 
-0.151779 -0.16009 0.975364 0.162655 0.0103948 0.986628 0.409733 -0.0797372 0.908714 
-6.82311e-05 0.216714 0.976235 
