# vtk DataFile Version 4.2
vtk output
ASCII
DATASET POLYDATA
POINTS 1924 float
338.076 182.75 26.1068 334.059 184.339 25.8842 338.449 183.596 26.323 
340.185 183.215 26.6852 331.222 184.99 25.7509 335.596 184.326 26.0093 
337.52 184.045 26.2896 338.178 184.069 26.5196 328.938 185.809 25.7149 
332.701 185.509 25.892 336.895 184.597 26.467 326.464 187.065 25.6545 
333.323 186.014 26.3446 324.633 187.999 25.718 326.366 187.698 25.696 
326.688 188.137 25.8425 327.454 188.158 26.0493 325.718 188.836 26.0423 
327.07 188.702 26.303 326.586 189.012 26.4354 344.839 179.657 27.144 
345.659 179.793 27.2993 346.971 179.544 27.6795 347.26 179.571 27.8722 
345.709 180.512 27.6878 334.332 182.951 26.186 330.036 184.807 25.8771 
338.249 184.285 26.7937 337.878 184.561 26.9831 339.742 183.754 27.1199 
323.97 185.688 26.1728 325.712 185.32 26.1111 326.097 186.513 25.7378 
321.586 188.15 25.9392 331.422 187.133 26.6897 332.086 187.021 27.0448 
305.213 190.252 27.0205 319.253 189.069 26.0054 321.202 188.787 25.9961 
312.371 189.847 26.3199 319.853 189.683 26.0901 321.765 189.401 26.1471 
328.013 188.757 27.0292 312.205 191.148 26.2161 323.444 189.867 26.5751 
324.177 189.95 26.8378 326.031 189.372 26.7708 304.896 191.752 26.4823 
319.059 190.994 26.3967 321.137 190.72 26.7212 323.658 190.262 27.0583 
305.156 192.266 26.4258 319.741 191.701 27.0453 321.482 191.128 27.1757 
315.51 192.912 26.7704 315.826 193.18 27.0874 317.751 192.495 27.0082 
317.361 192.832 27.2047 352.946 175.55 28.7323 352.889 175.449 28.7033 
352.679 175.606 28.703 353.121 175.528 28.8222 349.02 177.345 27.9438 
350.357 176.995 28.2698 351.31 176.668 28.5954 353.207 175.584 28.9646 
350.645 177.354 28.5611 348.679 178.295 28.0298 346.217 180.372 27.9382 
346.789 180.148 28.273 347.309 179.735 28.1602 339.091 184.246 27.7733 
319.518 186.015 26.6679 337.013 185.117 27.6215 309.012 187.958 28.1938 
310.202 188.2 27.4654 310.62 187.65 27.838 311.935 187.722 27.3101 
313.348 186.947 27.483 314.708 187.332 26.8701 307.76 188.701 27.7627 
313.234 188.341 26.6741 304.08 189.835 28.0968 303.623 190.177 27.8556 
310.592 189.35 26.7425 302.438 191.111 27.6002 301.673 191.12 27.9042 
304.257 190.579 27.1467 327.921 188.944 27.5378 298.536 192.206 28.1673 
300.961 191.358 28.0384 303.924 191.206 26.9475 324.96 190.079 27.7473 
296.275 192.955 28.1682 301.002 192.607 27.2626 292.838 193.491 28.7464 
292.311 193.866 28.5124 296.909 193.746 27.5849 302.541 193.177 26.8414 
319.887 191.981 27.4222 320.95 191.766 27.8819 291.363 194.46 28.3785 
290.761 194.296 28.7501 296.406 194.266 27.5042 300.273 194.184 27.0404 
291.551 194.916 28.1361 298.867 195.452 27.1533 303.888 194.773 26.7498 
307.666 194.682 26.6935 315.81 193.658 27.7197 311.773 194.779 27.4697 
313.509 194.577 27.8043 305.139 196.742 27.2826 312.332 195.06 27.9029 
306.503 196.813 27.5091 307.5 197.129 28.016 356.025 173.523 29.873 
355.992 173.408 29.8416 352.718 175.244 28.7511 352.013 175.34 28.6511 
353.492 174.937 29.0002 353.975 174.71 29.2107 350.945 175.687 28.455 
351.923 175.974 28.6681 353.904 175.049 29.3436 352.45 176.204 29.1783 
346.074 177.725 27.7399 350.277 177.877 28.9571 322.836 182.095 28.7407 
323.911 181.977 28.4731 332.631 181.027 27.4124 320.533 183.004 28.8285 
322.782 182.926 27.9376 325.734 182.54 27.6276 322.293 183.737 27.4616 
340.332 183.714 28.0706 338.204 184.674 28.6404 312.173 186.651 28.3079 
308.379 188.051 28.4197 333.388 186.7 27.9486 307.367 188.74 27.8911 
331.904 187.335 28.3735 304.543 189.488 28.6517 307.184 188.624 28.3248 
329.824 188.208 28.2629 301.45 190.841 28.3391 303.33 189.938 28.6304 
324.168 190.457 28.0085 325.657 189.887 28.2264 297.432 192.049 28.8271 
320.099 192.294 28.6696 321.504 191.644 28.212 290.028 194.954 28.6016 
290.575 193.929 29.2339 317.99 193.064 28.0308 285.924 195.544 29.6126 
285.879 196.049 29.2226 286.857 195.34 29.3583 288.339 194.998 29.1004 
291.863 195.544 27.9435 286.259 196.225 28.9811 286.472 196.57 28.8364 
289.396 196.205 28.3498 290.407 196.318 28.1526 313.239 195.121 28.4889 
311.594 195.944 28.9398 309.436 196.753 28.3454 302.672 198.857 28.6157 
303.801 198.825 28.8016 304.425 198.586 28.5154 358.078 171.617 30.4158 
358.091 171.562 30.4313 357.964 171.622 30.4167 358.122 171.566 30.4862 
356.172 172.976 29.9377 357.965 171.682 30.4662 354.726 173.724 29.4828 
336.864 175.874 29.9908 355.307 174.029 29.9083 353.575 175.53 29.5181 
331.441 178.179 29.8774 333.161 177.83 29.4607 333.529 177.232 29.9103 
330.991 179.467 28.7933 325.074 180.997 29.4312 348.607 179.125 29.1033 
322.747 181.539 29.8614 322.227 181.873 29.5083 321.652 182.038 29.8182 
321.03 182.512 29.3204 318.149 183.752 29.2821 343.561 182.116 29.0823 
339.514 184.081 28.9627 311.239 186.659 29.0791 312.538 186.008 29.41 
308.527 187.812 28.8812 309.594 187.282 29.3303 332.505 187.04 28.8992 
304.477 189.404 29.2467 307.046 188.507 29.0385 301.449 190.609 28.7717 
326.315 189.627 28.692 327.672 189.045 28.9238 302.012 190.258 29.4573 
324.015 190.586 28.6053 324.905 190.11 29.2853 297.245 191.826 29.469 
292.409 193.056 30.0405 294.136 192.701 29.5659 321.414 191.732 28.8519 
288.889 194.555 29.2837 290.241 193.843 29.6003 317.886 193.259 28.5916 
317.433 193.473 28.8991 318.757 192.89 29.2257 287.557 194.844 29.5971 
282.46 196.547 30.2319 282.158 196.972 30.0219 313.129 195.303 29.0248 
314.457 194.729 29.2252 280.644 197.679 30.4799 280.575 197.978 30.3913 
282.864 197.684 29.561 310.896 196.353 29.0615 311.795 195.977 29.5815 
280.73 198.169 30.2332 298.856 198.327 27.9319 282.087 198.737 29.6996 
295.919 199.111 28.3048 306.351 198.301 29.3148 307.651 197.798 29.3843 
294.86 200.581 29.0014 297.354 201.009 29.4572 299.788 200.896 30.0116 
346.617 170.59 31.2097 346.528 170.469 31.4065 344.46 171.717 31.0852 
345.578 171.792 30.6177 358.037 171.412 30.5391 358.03 170.863 30.8395 
358.233 171.37 30.6236 358.245 171.213 30.7883 358.275 171.363 30.6839 
357.455 171.795 30.3912 358.21 171.458 30.6068 340.318 173.692 30.9557 
341.319 173.185 31.0074 357.831 171.827 30.6223 357.424 172.279 30.6752 
333.92 176.739 30.3311 353.616 175.635 29.9382 354.446 175.058 30.5953 
332.468 177.26 30.6214 340.672 176.334 28.9634 352.063 176.789 30.0184 
352.737 176.306 30.3145 350.822 177.688 29.7938 351.63 177.119 30.3404 
329.299 178.906 30.3126 323.309 181.237 30.4347 324.13 180.99 30.2142 
322.123 181.707 30.3891 318.675 183.336 30.3902 316.652 184.201 30.2059 
317.339 183.925 30.0888 314.517 185.133 30.2085 338.541 184.295 29.9349 
311.663 186.313 29.9909 307.78 188.156 29.6262 304.097 189.548 29.5191 
305.314 189.173 30.0118 306.106 188.929 30.0714 329.424 188.175 29.533 
304.215 189.645 30.2037 326.693 189.178 29.8586 325.392 189.782 29.6836 
296.362 191.936 30.3607 293.269 192.779 30.4786 320.452 191.939 29.8385 
288.085 194.379 30.0011 317.722 193.185 29.9409 283.423 195.81 30.5837 
286.344 194.774 30.5165 281.298 196.641 30.9847 280.426 197.93 30.677 
311.542 196.058 30.0518 280.263 198.302 30.8783 308.468 197.53 29.9568 
280.645 199.021 30.4629 281.779 199.287 29.8944 280.218 199.713 31.2138 
280.899 199.646 30.4546 281.909 200.525 30.26 299.922 201.079 30.4257 
296.963 202.173 30.8303 353.761 166.363 31.8103 353.787 166.266 31.8696 
353.659 166.369 31.8766 353.771 166.57 31.7675 350.571 168.429 31.6381 
347.829 169.87 31.5261 358.76 169.962 31.6992 343.87 171.684 31.5218 
346.278 171.407 30.792 358.415 170.84 31.3747 358.25 171.376 30.8357 
358.945 170.153 32.1102 341.549 172.71 31.4148 341.871 172.468 31.5809 
346.263 172.404 30.179 358.021 171.712 31.0673 357.957 171.936 31.562 
356.824 173.147 31.4119 354.675 174.898 31.1046 333.007 176.86 31.0703 
350.432 177.909 30.6179 322.133 181.737 30.9902 344.483 181.448 30.5866 
319.35 183.114 30.8953 316.522 184.302 30.6316 339.839 183.667 30.2081 
313.618 185.541 30.7053 312.504 186.136 30.9073 335.261 185.617 30.1296 
332.983 186.574 29.9753 307.811 188.292 30.3954 306.418 189.072 30.8743 
326.427 188.996 30.4193 295.593 192.158 30.5641 321.797 191.317 29.9147 
292.49 193.03 31.2946 287.953 194.222 30.4772 290.012 193.627 30.9587 
286.053 194.718 31.0413 314.865 194.403 30.2314 315.608 193.768 30.7517 
282.316 195.952 31.248 312.295 195.47 30.6346 305.95 198.577 30.5366 
279.965 199.68 31.6944 301.753 200.448 30.8982 303.047 199.83 31.1413 
280.249 200.817 31.6217 288.982 202.32 30.0231 297.436 202.084 30.9465 
297.685 202.099 31.4859 285.273 203.881 31.0522 292.127 204.116 31.6966 
371.824 148.547 33.7442 371.859 148.423 33.7805 371.651 148.586 33.8106 
363.262 158.187 33.0307 363.306 158.082 33.0659 362.491 159.039 32.9849 
362.547 158.901 33.0231 357.239 163.221 33.2308 358.582 162.962 32.7467 
355.506 164.882 32.5816 355.406 164.483 33.0741 355.093 164.777 32.8583 
353.904 166.09 32.0614 350.579 167.677 32.6598 360.085 167.057 32.4219 
360.565 166.995 32.7989 357.299 166.8 31.5897 359.415 167.819 32.1194 
347.971 169.163 32.2902 359.984 168.195 32.7572 353.458 169.457 30.6359 
358.661 170.8 32.2053 339.585 173.516 32.2201 337.078 174.821 31.791 
338.304 174.153 32.0196 336.384 175.2 32.0492 334.174 176.282 31.942 
353.888 175.266 31.9417 332.224 177.192 31.7221 332.91 176.868 31.727 
330.483 178.117 31.8142 329.803 178.418 31.4029 350.327 177.809 31.2856 
350.935 177.329 31.579 326.995 179.74 31.5339 325.61 180.332 31.7631 
322.848 181.496 31.4385 324.428 180.9 31.7382 318.114 183.692 31.0274 
318.586 183.614 31.3428 341.37 182.569 31.2545 317.455 184.313 31.4819 
316.666 184.437 31.1006 338.354 183.686 31.3805 315.237 185.232 31.3531 
311.492 186.956 31.4134 329.948 186.769 31.3941 320.887 190.577 31.3937 
323.263 189.536 31.294 294.859 192.506 31.4873 287.646 194.219 31.4692 
317.385 192.705 30.9723 282.38 195.782 31.8021 286.213 194.644 31.7045 
281.31 196.416 32.0233 312.584 194.706 31.4523 280.013 198.612 31.8519 
303.678 199.497 31.3264 303.172 199.655 31.7119 279.94 200.502 32.0723 
280.229 201.788 32.4537 299.149 201.557 31.683 280.233 202.771 32.922 
[...]
POINT_DATA 1924
COLOR_SCALARS scalars 3
0.054902 0.588235 0.517647 0.054902 0.588235 0.517647 0.054902 0.588235 0.517647 
0.054902 0.588235 0.517647 0.054902 0.588235 0.517647 
0.054902 0.588235 0.517647 0.054902 0.588235 0.517647 
0.054902 0.588235 0.517647 0.054902 0.588235 0.517647 
0.054902 0.588235 0.517647 0.054902 0.588235 0.517647 
0.054902 0.588235 0.517647 0.054902 0.588235 0.517647 
0.054902 0.588235 0.517647 0.054902 0.588235 0.517647 
0.054902 0.588235 0.517647 0.054902 0.588235 0.517647 
0.054902 0.588235 0.517647 0.054902 0.588235 0.517647 
0.054902 0.588235 0.517647 0.054902 0.588235 0.517647 
0.054902 0.588235 0.517647 0.054902 0.588235 0.517647 
0.054902 0.588235 0.517647 0.054902 0.588235 0.517647 
0.054902 0.588235 0.517647 0.054902 0.588235 0.517647 
0.054902 0.588235 0.517647 0.054902 0.588235 0.517647 
0.054902 0.588235 0.517647 0.054902 0.588235 0.517647 
0.054902 0.588235 0.517647 0.054902 0.588235 0.517647 
0.054902 0.588235 0.517647 0.054902 0.588235 0.517647 
0.054902 0.588235 0.517647 0.054902 0.588235 0.517647 
0.054902 0.588235 0.517647 0.054902 0.588235 0.517647 
0.054902 0.588235 0.517647 0.054902 0.588235 0.517647 
0.054902 0.588235 0.517647 0.054902 0.588235 0.517647 
0.054902 0.588235 0.517647 0.054902 0.588235 0.517647 
0.054902 0.588235 0.517647 0.054902 0.588235 0.517647 
0.054902 0.588235 0.517647 0.054902 0.588235 0.517647 
0.054902 0.588235 0.517647 0.054902 0.588235 0.517647 
0.054902 0.588235 0.517647 0.054902 0.588235 0.517647 
0.054902 0.588235 0.517647 0.054902 0.588235 0.517647 
0.054902 0.588235 0.517647 0.054902 0.588235 0.517647 
0.054902 0.588235 0.517647 0.054902 0.588235 0.517647 
0.054902 0.588235 0.517647 0.054902 0.588235 0.517647 
0.054902 0.588235 0.517647 0.054902 0.588235 0.517647 
0.054902 0.588235 0.517647 0.054902 0.588235 0.517647 
0.054902 0.588235 0.517647 0.054902 0.588235 0.517647 
0.054902 0.588235 0.517647 0.054902 0.588235 0.517647 
0.054902 0.588235 0.517647 0.054902 0.588235 0.517647 
0.054902 0.588235 0.517647 0.054902 0.588235 0.517647 
0.054902 0.588235 0.517647 0.054902 0.588235 0.517647 
0.054902 0.588235 0.517647 0.054902 0.588235 0.517647 
0.054902 0.588235 0.517647 0.054902 0.588235 0.517647 
0.054902 0.588235 0.517647 0.054902 0.588235 0.517647 
0.054902 0.588235 0.517647 0.054902 0.588235 0.517647 
0.054902 0.588235 0.517647 0.054902 0.588235 0.517647 
0.054902 0.588235 0.517647 0.054902 0.588235 0.517647 
0.054902 0.588235 0.517647 0.054902 0.588235 0.517647 
0.054902 0.588235 0.517647 0.054902 0.588235 0.517647 
0.054902 0.588235 0.517647 0.054902 0.588235 0.517647 
0.054902 0.588235 0.517647 0.054902 0.588235 0.517647 
0.054902 0.588235 0.517647 0.054902 0.588235 0.517647 
0.054902 0.588235 0.517647 0.054902 0.588235 0.517647 
0.054902 0.588235 0.517647 0.054902 0.588235 0.517647 
0.054902 0.588235 0.517647 0.054902 0.588235 0.517647 
0.054902 0.588235 0.517647 0.054902 0.588235 0.517647 
0.054902 0.588235 0.517647 0.054902 0.588235 0.517647 
0.054902 0.588235 0.517647 0.054902 0.588235 0.517647 
0.054902 0.588235 0.517647 0.054902 0.588235 0.517647 
0.054902 0.588235 0.517647 0.054902 0.588235 0.517647 
0.054902 0.588235 0.517647 0.054902 0.588235 0.517647 
0.054902 0.588235 0.517647 0.054902 0.588235 0.517647 
0.054902 0.588235 0.517647 0.054902 0.588235 0.517647 
0.054902 0.588235 0.517647 0.054902 0.588235 0.517647 
0.054902 0.588235 0.517647 0.054902 0.588235 0.517647 
0.054902 0.588235 0.517647 0.054902 0.588235 0.517647 
0.054902 0.588235 0.517647 0.054902 0.588235 0.517647 
0.054902 0.588235 0.517647 0.054902 0.588235 0.517647 
0.054902 0.588235 0.517647 0.054902 0.588235 0.517647 
0.054902 0.588235 0.517647 0.054902 0.588235 0.517647 
0.054902 0.588235 0.517647 0.054902 0.588235 0.517647 
0.054902 0.588235 0.517647 0.054902 0.588235 0.517647 
0.054902 0.588235 0.517647 0.054902 0.588235 0.517647 
0.054902 0.588235 0.517647 0.054902 0.588235 0.517647 
0.054902 0.588235 0.517647 0.054902 0.588235 0.517647 
0.054902 0.588235 0.517647 0.054902 0.588235 0.517647 
0.054902 0.588235 0.517647 0.054902 0.588235 0.517647 
0.054902 0.588235 0.517647 0.054902 0.588235 0.517647 
0.054902 0.588235 0.517647 0.054902 0.588235 0.517647 
0.054902 0.588235 0.517647 0.054902 0.588235 0.517647 
0.054902 0.588235 0.517647 0.054902 0.588235 0.517647 
0.054902 0.588235 0.517647 0.054902 0.588235 0.517647 
0.054902 0.588235 0.517647 0.054902 0.588235 0.517647 
0.054902 0.588235 0.517647 0.054902 0.588235 0.517647 
0.054902 0.588235 0.517647 0.054902 0.588235 0.517647 
0.054902 0.588235 0.517647 0.054902 0.588235 0.517647 
0.054902 0.588235 0.517647 0.054902 0.588235 0.517647 
0.054902 0.588235 0.517647 0.054902 0.588235 0.517647 
0.054902 0.588235 0.517647 0.054902 0.588235 0.517647 
0.054902 0.588235 0.517647 0.054902 0.588235 0.517647 
0.054902 0.588235 0.517647 0.054902 0.588235 0.517647 
0.054902 0.588235 0.517647 0.054902 0.588235 0.517647 
0.054902 0.588235 0.517647 0.054902 0.588235 0.517647 
0.054902 0.588235 0.517647 0.054902 0.588235 0.517647 
0.054902 0.588235 0.517647 0.054902 0.588235 0.517647 
0.054902 0.588235 0.517647 0.054902 0.588235 0.517647 
0.054902 0.588235 0.517647 0.054902 0.588235 0.517647 
0.054902 0.588235 0.517647 0.054902 0.588235 0.517647 
0.054902 0.588235 0.517647 0.054902 0.588235 0.517647 
0.054902 0.588235 0.517647 0.054902 0.588235 0.517647 
0.054902 0.588235 0.517647 0.054902 0.588235 0.517647 
0.054902 0.588235 0.517647 0.054902 0.588235 0.517647 
0.054902 0.588235 0.517647 0.054902 0.588235 0.517647 
0.054902 0.588235 0.517647 0.054902 0.588235 0.517647 
0.054902 0.588235 0.517647 0.054902 0.588235 0.517647 
0.054902 0.588235 0.517647 0.054902 0.588235 0.517647 
0.054902 0.588235 0.517647 0.054902 0.588235 0.517647 
0.054902 0.588235 0.517647 0.054902 0.588235 0.517647 
0.054902 0.588235 0.517647 0.054902 0.588235 0.517647 
0.054902 0.588235 0.517647 0.054902 0.588235 0.517647 
0.054902 0.588235 0.517647 0.054902 0.588235 0.517647 
0.054902 0.588235 0.517647 0.054902 0.588235 0.517647 
0.054902 0.588235 0.517647 0.054902 0.588235 0.517647 
0.054902 0.588235 0.517647 0.054902 0.588235 0.517647 
0.054902 0.588235 0.517647 0.054902 0.588235 0.517647 
0.054902 0.588235 0.517647 0.054902 0.588235 0.517647 
0.054902 0.588235 0.517647 0.054902 0.588235 0.517647 
0.054902 0.588235 0.517647 0.054902 0.588235 0.517647 
0.054902 0.588235 0.517647 0.054902 0.588235 0.517647 
0.054902 0.588235 0.517647 0.054902 0.588235 0.517647 
0.054902 0.588235 0.517647 0.054902 0.588235 0.517647 
0.054902 0.588235 0.517647 0.054902 0.588235 0.517647 
0.054902 0.588235 0.517647 0.054902 0.588235 0.517647 
0.054902 0.588235 0.517647 0.054902 0.588235 0.517647 
0.054902 0.588235 0.517647 0.054902 0.588235 0.517647 
0.054902 0.588235 0.517647 0.054902 0.588235 0.517647 
0.054902 0.588235 0.517647 0.054902 0.588235 0.517647 
0.054902 0.588235 0.517647 0.054902 0.588235 0.517647 
0.054902 0.588235 0.517647 0.054902 0.588235 0.517647 
0.054902 0.588235 0.517647 0.054902 0.588235 0.517647 
0.054902 0.588235 0.517647 0.054902 0.588235 0.517647 
0.054902 0.588235 0.517647 0.054902 0.588235 0.517647 
0.054902 0.588235 0.517647 0.054902 0.588235 0.517647 
0.054902 0.588235 0.517647 0.054902 0.588235 0.517647 
0.054902 0.588235 0.517647 0.054902 0.588235 0.517647 
0.054902 0.588235 0.517647 0.054902 0.588235 0.517647 
0.054902 0.588235 0.517647 0.054902 0.588235 0.517647 
0.054902 0.588235 0.517647 0.054902 0.588235 0.517647 
0.054902 0.588235 0.517647 0.054902 0.588235 0.517647 
0.054902 0.588235 0.517647 0.054902 0.588235 0.517647 
0.054902 0.588235 0.517647 0.054902 0.588235 0.517647 
0.054902 0.588235 0.517647 0.054902 0.588235 0.517647 
0.054902 0.588235 0.517647 0.054902 0.588235 0.517647 
0.054902 0.588235 0.517647 0.054902 0.588235 0.517647 
0.054902 0.588235 0.517647 0.054902 0.588235 0.517647 
0.054902 0.588235 0.517647 0.054902 0.588235 0.517647 
0.054902 0.588235 0.517647 0.054902 0.588235 0.517647 
0.054902 0.588235 0.517647 0.054902 0.588235 0.517647 
0.054902 0.588235 0.517647 0.054902 0.588235 0.517647 
0.054902 0.588235 0.517647 0.054902 0.588235 0.517647 
0.054902 0.588235 0.517647 0.054902 0.588235 0.517647 
0.054902 0.588235 0.517647 0.054902 0.588235 0.517647 
0.054902 0.588235 0.517647 0.054902 0.588235 0.517647 
0.054902 0.588235 0.517647 0.054902 0.588235 0.517647 
0.054902 0.588235 0.517647 0.054902 0.588235 0.517647 
0.054902 0.588235 0.517647 0.054902 0.588235 0.517647 
0.054902 0.588235 0.517647 0.054902 0.588235 0.517647 
0.054902 0.588235 0.517647 0.054902 0.588235 0.517647 
0.054902 0.588235 0.517647 0.054902 0.588235 0.517647 
0.054902 0.588235 0.517647 0.054902 0.588235 0.517647 
0.054902 0.588235 0.517647 0.054902 0.588235 0.517647 
0.054902 0.588235 0.517647 0.054902 0.588235 0.517647 
0.054902 0.588235 0.517647 0.054902 0.588235 0.517647 
0.054902 0.588235 0.517647 0.054902 0.588235 0.517647 
0.054902 0.588235 0.517647 0.054902 0.588235 0.517647 
0.054902 0.588235 0.517647 0.054902 0.588235 0.517647 
0.054902 0.588235 0.517647 0.054902 0.588235 0.517647 
0.054902 0.588235 0.517647 0.054902 0.588235 0.517647 
0.054902 0.588235 0.517647 0.054902 0.588235 0.517647 
0.054902 0.588235 0.517647 0.054902 0.588235 0.517647 
0.054902 0.588235 0.517647 0.054902 0.588235 0.517647 
0.054902 0.588235 0.517647 0.054902 0.588235 0.517647 
0.054902 0.588235 0.517647 0.054902 0.588235 0.517647 
0.054902 0.588235 0.517647 0.054902 0.588235 0.517647 
0.054902 0.588235 0.517647 0.054902 0.588235 0.517647 
0.054902 0.588235 0.517647 0.054902 0.588235 0.517647 
0.054902 0.588235 0.517647 0.054902 0.588235 0.517647 
0.054902 0.588235 0.517647 0.054902 0.588235 0.517647 
0.054902 0.588235 0.517647 0.054902 0.588235 0.517647 
0.054902 0.588235 0.517647 0.054902 0.588235 0.517647 
0.054902 0.588235 0.517647 0.054902 0.588235 0.517647 
0.054902 0.588235 0.517647 0.054902 0.588235 0.517647 
0.054902 0.588235 0.517647 0.054902 0.588235 0.517647 
0.054902 0.588235 0.517647 0.054902 0.588235 0.517647 
0.054902 0.588235 0.517647 0.054902 0.588235 0.517647 
0.054902 0.588235 0.517647 0.054902 0.588235 0.517647 
0.054902 0.588235 0.517647 0.054902 0.588235 0.517647 
0.054902 0.588235 0.517647 0.054902 0.588235 0.517647 
0.054902 0.588235 0.517647 0.054902 0.588235 0.517647 
0.054902 0.588235 0.517647 0.054902 0.588235 0.517647 
0.054902 0.588235 0.517647 0.054902 0.588235 0.517647 
0.054902 0.588235 0.517647 0.054902 0.588235 0.517647 
0.054902 0.588235 0.517647 0.054902 0.588235 0.517647 
0.054902 0.588235 0.517647 0.054902 0.588235 0.517647 
0.054902 0.588235 0.517647 0.054902 0.588235 0.517647 
0.054902 0.588235 0.517647 0.054902 0.588235 0.517647 
0.054902 0.588235 0.517647 0.054902 0.588235 0.517647 
0.054902 0.588235 0.517647 0.054902 0.588235 0.517647 
0.054902 0.588235 0.517647 0.054902 0.588235 0.517647 
0.054902 0.588235 0.517647 0.054902 0.588235 0.517647 
0.054902 0.588235 0.517647 0.054902 0.588235 0.517647 
0.054902 0.588235 0.517647 0.054902 0.588235 0.517647 
0.054902 0.588235 0.517647 0.054902 0.588235 0.517647 
0.054902 0.588235 0.517647 0.054902 0.588235 0.517647 
0.054902 0.588235 0.517647 0.054902 0.588235 0.517647 
0.054902 0.588235 0.517647 0.054902 0.588235 0.517647 
0.054902 0.588235 0.517647 0.054902 0.588235 0.517647 
0.054902 0.588235 0.517647 0.054902 0.588235 0.517647 
0.054902 0.588235 0.517647 0.054902 0.588235 0.517647 
0.054902 0.588235 0.517647 0.054902 0.588235 0.517647 
0.054902 0.588235 0.517647 0.054902 0.588235 0.517647 
0.054902 0.588235 0.517647 0.054902 0.588235 0.517647 
0.054902 0.588235 0.517647 0.054902 0.588235 0.517647 
0.054902 0.588235 0.517647 0.054902 0.588235 0.517647 
0.054902 0.588235 0.517647 0.054902 0.588235 0.517647 
0.054902 0.588235 0.517647 0.054902 0.588235 0.517647 
0.054902 0.588235 0.517647 0.054902 0.588235 0.517647 
0.054902 0.588235 0.517647 0.054902 0.588235 0.517647 
0.054902 0.588235 0.517647 0.054902 0.588235 0.517647 
0.054902 0.588235 0.517647 0.054902 0.588235 0.517647 
0.054902 0.588235 0.517647 0.054902 0.588235 0.517647 
0.054902 0.588235 0.517647 0.054902 0.588235 0.517647 
0.054902 0.588235 0.517647 0.054902 0.588235 0.517647 
0.054902 0.588235 0.517647 0.054902 0.588235 0.517647 
0.054902 0.588235 0.517647 0.054902 0.588235 0.517647 
0.054902 0.588235 0.517647 0.054902 0.588235 0.517647 
0.054902 0.588235 0.517647 0.054902 0.588235 0.517647 
0.054902 0.588235 0.517647 0.054902 0.588235 0.517647 
0.054902 0.588235 0.517647 0.054902 0.588235 0.517647 
0.054902 0.588235 0.517647 0.054902 0.588235 0.517647 
0.054902 0.588235 0.517647 0.054902 0.588235 0.517647 
0.054902 0.588235 0.517647 0.054902 0.588235 0.517647 
0.054902 0.588235 0.517647 0.054902 0.588235 0.517647 
0.054902 0.588235 0.517647 0.054902 0.588235 0.517647 
0.054902 0.588235 0.517647 0.054902 0.588235 0.517647 
0.054902 0.588235 0.517647 0.054902 0.588235 0.517647 
0.054902 0.588235 0.517647 0.054902 0.588235 0.517647 
0.054902 0.588235 0.517647 0.054902 0.588235 0.517647 
0.054902 0.588235 0.517647 0.054902 0.588235 0.517647 
0.054902 0.588235 0.517647 0.054902 0.588235 0.517647 
0.054902 0.588235 0.517647 0.054902 0.588235 0.517647 
0.054902 0.588235 0.517647 0.054902 0.588235 0.517647 
0.054902 0.588235 0.517647 0.054902 0.588235 0.517647 
0.054902 0.588235 0.517647 0.054902 0.588235 0.517647 
0.054902 0.588235 0.517647 0.054902 0.588235 0.517647 
0.054902 0.588235 0.517647 0.054902 0.588235 0.517647 
0.054902 0.588235 0.517647 0.054902 0.588235 0.517647 
0.054902 0.588235 0.517647 0.054902 0.588235 0.517647 
0.054902 0.588235 0.517647 0.054902 0.588235 0.517647 
0.054902 0.588235 0.517647 0.054902 0.588235 0.517647 
0.054902 0.588235 0.517647 0.054902 0.588235 0.517647 
0.054902 0.588235 0.517647 0.054902 0.588235 0.517647 
0.054902 0.588235 0.517647 0.054902 0.588235 0.517647 
0.054902 0.588235 0.517647 0.054902 0.588235 0.517647 
0.054902 0.588235 0.517647 0.054902 0.588235 0.517647 
0.054902 0.588235 0.517647 0.054902 0.588235 0.517647 
0.054902 0.588235 0.517647 0.054902 0.588235 0.517647 
0.054902 0.588235 0.517647 0.054902 0.588235 0.517647 
0.054902 0.588235 0.517647 0.054902 0.588235 0.517647 
0.054902 0.588235 0.517647 0.054902 0.588235 0.517647 
0.054902 0.588235 0.517647 0.054902 0.588235 0.517647 
0.054902 0.588235 0.517647 0.054902 0.588235 0.517647 
0.054902 0.588235 0.517647 0.054902 0.588235 0.517647 
0.054902 0.588235 0.517647 0.054902 0.588235 0.517647 
0.054902 0.588235 0.517647 0.054902 0.588235 0.517647 
0.054902 0.588235 0.517647 0.054902 0.588235 0.517647 
0.054902 0.588235 0.517647 0.054902 0.588235 0.517647 
0.054902 0.588235 0.517647 0.054902 0.588235 0.517647 
0.054902 0.588235 0.517647 0.054902 0.588235 0.517647 
0.054902 0.588235 0.517647 0.054902 0.588235 0.517647 
0.054902 0.588235 0.517647 0.054902 0.588235 0.517647 
0.054902 0.588235 0.517647 0.054902 0.588235 0.517647 
0.054902 0.588235 0.517647 0.054902 0.588235 0.517647 
0.054902 0.588235 0.517647 0.054902 0.588235 0.517647 
0.054902 0.588235 0.517647 0.054902 0.588235 0.517647 
0.054902 0.588235 0.517647 0.054902 0.588235 0.517647 
0.054902 0.588235 0.517647 0.054902 0.588235 0.517647 
0.054902 0.588235 0.517647 0.054902 0.588235 0.517647 
0.054902 0.588235 0.517647 0.054902 0.588235 0.517647 
0.054902 0.588235 0.517647 0.054902 0.588235 0.517647 
0.054902 0.588235 0.517647 0.054902 0.588235 0.517647 
0.054902 0.588235 0.517647 0.054902 0.588235 0.517647 
0.054902 0.588235 0.517647 0.054902 0.588235 0.517647 
0.054902 0.588235 0.517647 0.054902 0.588235 0.517647 
0.054902 0.588235 0.517647 0.054902 0.588235 0.517647 
0.054902 0.588235 0.517647 0.054902 0.588235 0.517647 
0.054902 0.588235 0.517647 0.054902 0.588235 0.517647 
0.054902 0.588235 0.517647 0.054902 0.588235 0.517647 
0.054902 0.588235 0.517647 0.054902 0.588235 0.517647 
0.054902 0.588235 0.517647 0.054902 0.588235 0.517647 
0.054902 0.588235 0.517647 0.054902 0.588235 0.517647 
0.054902 0.588235 0.517647 0.054902 0.588235 0.517647 
0.054902 0.588235 0.517647 0.054902 0.588235 0.517647 
0.054902 0.588235 0.517647 0.054902 0.588235 0.517647 
0.054902 0.588235 0.517647 0.054902 0.588235 0.517647 
0.054902 0.588235 0.517647 0.054902 0.588235 0.517647 
0.054902 0.588235 0.517647 0.054902 0.588235 0.517647 
0.054902 0.588235 0.517647 0.054902 0.588235 0.517647 
0.054902 0.588235 0.517647 0.054902 0.588235 0.517647 
0.054902 0.588235 0.517647 0.054902 0.588235 0.517647 
0.054902 0.588235 0.517647 0.054902 0.588235 0.517647 
0.054902 0.588235 0.517647 0.054902 0.588235 0.517647 
0.054902 0.588235 0.517647 0.054902 0.588235 0.517647 
0.054902 0.588235 0.517647 0.054902 0.588235 0.517647 
0.054902 0.588235 0.517647 0.054902 0.588235 0.517647 
0.054902 0.588235 0.517647 0.054902 0.588235 0.517647 
0.054902 0.588235 0.517647 0.054902 0.588235 0.517647 
0.054902 0.588235 0.517647 0.054902 0.588235 0.517647 
0.054902 0.588235 0.517647 0.054902 0.588235 0.517647 
0.054902 0.588235 0.517647 0.054902 0.588235 0.517647 
0.054902 0.588235 0.517647 0.054902 0.588235 0.517647 
0.054902 0.588235 0.517647 0.054902 0.588235 0.517647 
0.054902 0.588235 0.517647 0.054902 0.588235 0.517647 
0.054902 0.588235 0.517647 0.054902 0.588235 0.517647 
0.054902 0.588235 0.517647 0.054902 0.588235 0.517647 
0.054902 0.588235 0.517647 0.054902 0.588235 0.517647 
0.054902 0.588235 0.517647 0.054902 0.588235 0.517647 
0.054902 0.588235 0.517647 0.054902 0.588235 0.517647 
0.054902 0.588235 0.517647 0.054902 0.588235 0.517647 
0.054902 0.588235 0.517647 0.054902 0.588235 0.517647 
0.054902 0.588235 0.517647 0.054902 0.588235 0.517647 
0.054902 0.588235 0.517647 0.054902 0.588235 0.517647 
0.054902 0.588235 0.517647 0.054902 0.588235 0.517647 
0.054902 0.588235 0.517647 0.054902 0.588235 0.517647 
0.054902 0.588235 0.517647 0.054902 0.588235 0.517647 
0.054902 0.588235 0.517647 0.054902 0.588235 0.517647 
0.054902 0.588235 0.517647 0.054902 0.588235 0.517647 
0.054902 0.588235 0.517647 0.054902 0.588235 0.517647 
0.054902 0.588235 0.517647 0.054902 0.588235 0.517647 
0.054902 0.588235 0.517647 0.054902 0.588235 0.517647 
0.054902 0.588235 0.517647 0.054902 0.588235 0.517647 
0.054902 0.588235 0.517647 0.054902 0.588235 0.517647 
0.054902 0.588235 0.517647 0.054902 0.588235 0.517647 
0.054902 0.588235 0.517647 0.054902 0.588235 0.517647 
0.054902 0.588235 0.517647 0.054902 0.588235 0.517647 
0.054902 0.588235 0.517647 0.054902 0.588235 0.517647 
0.054902 0.588235 0.517647 0.054902 0.588235 0.517647 
0.054902 0.588235 0.517647 0.054902 0.588235 0.517647 
0.054902 0.588235 0.517647 0.054902 0.588235 0.517647 
0.054902 0.588235 0.517647 0.054902 0.588235 0.517647 
0.054902 0.588235 0.517647 0.054902 0.588235 0.517647 
0.054902 0.588235 0.517647 0.054902 0.588235 0.517647 
0.054902 0.588235 0.517647 0.054902 0.588235 0.517647 
0.054902 0.588235 0.517647 0.054902 0.588235 0.517647 
0.054902 0.588235 0.517647 0.054902 0.588235 0.517647 
0.054902 0.588235 0.517647 0.054902 0.588235 0.517647 
0.054902 0.588235 0.517647 0.054902 0.588235 0.517647 
0.054902 0.588235 0.517647 0.054902 0.588235 0.517647 
0.054902 0.588235 0.517647 0.054902 0.588235 0.517647 
0.054902 0.588235 0.517647 0.054902 0.588235 0.517647 
0.054902 0.588235 0.517647 0.054902 0.588235 0.517647 
0.054902 0.588235 0.517647 0.054902 0.588235 0.517647 
0.054902 0.588235 0.517647 0.054902 0.588235 0.517647 
0.054902 0.588235 0.517647 0.054902 0.588235 0.517647 
0.054902 0.588235 0.517647 0.054902 0.588235 0.517647 
0.054902 0.588235 0.517647 0.054902 0.588235 0.517647 
0.054902 0.588235 0.517647 0.054902 0.588235 0.517647 
0.054902 0.588235 0.517647 0.054902 0.588235 0.517647 
0.054902 0.588235 0.517647 0.054902 0.588235 0.517647 
0.054902 0.588235 0.517647 0.054902 0.588235 0.517647 
0.054902 0.588235 0.517647 0.054902 0.588235 0.517647 
0.054902 0.588235 0.517647 0.054902 0.588235 0.517647 
0.054902 0.588235 0.517647 0.054902 0.588235 0.517647 
0.054902 0.588235 0.517647 0.054902 0.588235 0.517647 
0.054902 0.588235 0.517647 0.054902 0.588235 0.517647 
0.054902 0.588235 0.517647 0.054902 0.588235 0.517647 