# vtk DataFile Version 4.2
vtk output
ASCII
DATASET POLYDATA
POINTS 1833 float
335.493 185.46 33.088 335.411 185.377 33.0642 335.298 185.532 33.1154 
332.831 186.39 32.8952 332.885 186.263 32.8661 335.513 185.526 33.2024 
331.046 187.083 32.8388 331.058 186.981 32.8055 330.829 187.068 32.8715 
331.261 186.997 32.8828 331.026 187.175 32.9672 341.562 182.36 33.8752 
341.524 182.226 33.8309 341.316 182.451 33.8723 339.434 183.324 33.6753 
335.606 184.999 33.101 333.002 185.901 32.8695 334.057 185.444 32.9479 
334.9 185.472 33.0845 336.219 185.069 33.4291 331.085 186.668 32.7959 
332.047 186.259 32.8093 333.946 186.099 33.3452 335.105 185.727 33.3594 
330.202 187.015 32.8923 331.962 186.797 33.0665 332.735 186.726 33.3383 
325.688 188.585 33.0396 326.118 188.1 32.9615 327.081 188.458 33.3007 
330.543 187.332 33.1709 325.201 188.931 33.1539 327.452 188.516 33.508 
320.971 190.52 33.0186 325.945 189.239 33.5752 321.556 190.936 33.3448 
318.667 192.094 33.6295 318.402 192.169 33.6896 346.103 179.51 34.7874 
346.145 179.389 34.7626 345.875 179.542 34.7561 343.312 180.863 34.0832 
343.367 180.518 34.04 343.767 180.89 34.2873 345.999 179.657 34.8963 
341.755 181.748 33.8513 342.122 180.977 33.8318 343.687 181.189 34.4278 
336.875 182.567 33.2955 338.343 182.168 33.4155 340.071 182.431 33.6412 
342.519 181.872 34.3063 343.333 181.491 34.5023 337.045 183.871 33.387 
340.815 182.812 34.0671 340.051 183.268 33.9827 326.486 185.166 33.0046 
338.016 184.124 33.9298 320.685 186.445 33.0662 316.81 187.79 33.2297 
333.288 186.561 33.4912 315.85 188.553 33.2 323.852 187.579 32.7772 
328.174 187.427 33.0942 317.497 189.347 32.8792 321.861 188.714 32.8279 
329.075 188.002 33.8347 315.343 190.399 33.0889 318.144 189.917 32.8709 
323.872 188.892 33.0736 327.072 189.133 34.1376 313.807 190.545 33.2304 
315.375 191.214 33.1504 317.041 190.806 33.0537 319.585 190.146 32.8947 
324.016 189.889 33.7758 323.067 190.533 33.813 325.205 189.747 34.0466 
312.683 191.988 33.4112 315.901 191.694 33.2831 317.654 191.293 33.2193 
314.824 192.423 33.4995 316.444 192.303 33.6436 319.992 191.683 33.8395 
315.843 193.262 34.3066 351.653 165.698 35.8932 350 166.009 34.0174 
350 166.009 34.0175 350 166.009 34.0175 350 166.009 34.0175 
350 166.009 34.0175 347.316 168.7 35.6968 347.131 168.744 35.7342 
347.759 168.55 35.7408 345.448 169.555 35.8429 347.135 169.018 35.6392 
350.332 176.381 35.6654 348.53 177.655 35.1682 348.492 177.503 35.1892 
348.626 177.684 35.2051 348.705 177.595 35.2253 348.717 177.656 35.227 
346.21 179.057 34.7671 348.388 177.742 35.2475 348.657 177.687 35.3285 
345.412 179.42 34.6054 342.443 180.302 33.8875 345.221 180.121 34.9148 
336.211 181.234 33.5606 344.268 180.967 34.7412 322.526 183.106 34.6774 
326.443 183.228 33.7152 322.528 184.329 33.7459 314.635 186.211 35.0271 
314.05 186.366 35.3126 315.776 186.569 34.1145 314.075 187.57 34.0846 
312.119 188.757 34.1529 308.21 189.79 35.132 307.788 190.217 34.903 
309.396 189.955 34.4923 309.759 189.265 34.9037 306.265 190.615 35.2173 
310.773 190.229 33.9023 312.267 189.853 33.6188 312.949 189.634 33.5226 
302.77 192.177 34.9676 303.25 191.603 35.3978 306.382 191.854 34.3271 
312.011 190.478 33.5297 302.359 192.787 34.6622 304.117 192.589 34.4592 
307.642 192.282 33.9939 307.325 193.029 33.9536 319.441 192.287 34.3491 
306.111 193.858 34.0412 301.858 195.024 34.3303 307.623 194.396 34.1134 
305.061 195.916 34.5381 308.983 195.624 34.9579 308.543 195.973 35.1554 
359.635 159.433 36.8959 359.625 159.329 37.0172 359.51 159.544 36.9301 
359.835 159.352 36.9365 359.647 159.544 36.8693 354.869 164.104 36.3415 
353.94 164.309 36.3827 353.58 164.207 36.6325 355.19 164.22 36.2699 
353.831 164.776 36.1773 352.401 165.668 35.9532 350 166.009 34.0175 
348.027 167.712 36.3174 349.016 167.568 35.9756 349.538 167.086 36.1795 
346.835 168.769 35.9216 346.008 169.06 36.1211 348.506 168.733 35.5713 
345.545 170.54 35.5133 356.764 171.443 36.8386 356.668 171.378 36.7629 
356.596 171.585 36.8343 339.923 173.656 35.7743 355.418 172.534 36.51 
355.331 172.438 36.4575 337.4 174.937 35.9258 353.121 173.924 36.0176 
335.445 176.077 35.9168 338.236 175.692 35.1835 339.003 175.39 35.1458 
351.952 173.959 35.6526 353.574 174.279 36.4629 333.477 177.124 35.9406 
348.614 176.935 35.2092 349.706 176.432 35.5014 330.375 178.887 35.7858 
333.791 178.48 34.8548 338.169 177.863 34.374 347.714 177.696 35.1021 
348.937 177.376 35.4775 349.744 176.973 35.935 348.349 177.972 35.7224 
347.503 178.489 35.4378 327.091 180.643 35.5003 338.544 179.299 33.948 
346.436 179.525 35.2933 327.719 181.371 34.6215 344.418 181.13 35.626 
321.55 182.776 35.5392 340.21 183.58 34.9356 314.876 185.67 35.7595 
310.144 188.68 35.3462 307.687 189.92 35.2577 307.972 189.607 35.5078 
305.696 190.749 35.3089 305.97 190.435 35.6046 327.853 189.222 35.3147 
303.798 191.084 35.9427 298.095 192.655 36.2655 297.558 193.108 35.9336 
290.563 194.184 36.1905 292.446 194.251 35.9068 298.228 193.921 35.2207 
286.864 194.554 36.628 286.281 194.975 36.2767 287.832 194.491 36.482 
291.168 194.971 35.5635 293.942 194.743 35.4482 317.296 193.546 35.7823 
282.21 196.145 36.4203 281.99 195.991 36.794 281.864 196.33 36.5446 
283.133 195.556 36.5459 284.192 195.807 36.0252 282.033 196.498 36.3197 
282.444 196.464 36.1471 283.795 196.368 35.8395 285.552 196.26 35.6388 
294.167 196.116 35.0533 283.443 196.949 35.7719 293.782 197.346 35.0479 
306.898 197.059 35.8014 303.578 198.075 36.0951 370.171 146.731 37.7434 
369.44 147.72 37.515 369.271 147.733 37.5693 370.342 146.768 37.719 
369.051 148.008 37.615 368.144 149.502 37.5227 368.113 149.257 37.6604 
368.407 149.413 37.5359 367.358 150.316 37.5833 367.527 150.242 37.555 
365.37 153.093 37.689 365.247 153.182 37.7205 365.623 152.84 37.7489 
365.337 153.412 37.6531 364.351 155.151 37.3568 361.907 156.609 37.5106 
362.586 156.593 37.2241 362.136 157.069 37.1457 362.551 157.005 37.0946 
361.917 157.586 37.0735 361.441 158.011 37.132 359.536 159.73 36.8981 
358.526 160.955 37.0929 359.484 160.108 36.9579 357.328 162.264 37.0401 
353.866 163.814 36.9664 355.239 164.427 36.2111 355.573 164.257 36.3219 
350.515 166.578 36.1714 350.401 166.006 36.8113 348.413 167.049 37.0351 
347.881 167.55 36.6876 350.619 167.453 35.776 344.174 169.785 36.9023 
348.599 170.414 35.3028 355.496 171.827 36.4413 338.144 173.811 36.6011 
349.322 172.618 35.2146 354.731 172.778 36.4049 356.275 171.994 37.0566 
355.227 173.028 37.0112 335.139 175.742 36.4568 352.66 175.244 36.8915 
332.474 177.035 36.7562 350.558 176.727 36.6386 348.726 177.992 36.4978 
327.118 179.751 36.8272 325.946 180.552 36.3776 321.745 182.295 36.3925 
313.164 186.488 36.2231 336.955 185.412 36.3747 308.037 189.402 35.8753 
305.955 190.214 36.1069 326.51 189.903 35.8287 302.63 191.073 36.7464 
290.883 193.488 37.0557 294.658 193.118 36.8511 296.468 192.88 36.5909 
288.519 193.99 36.9819 282.281 195.588 37.2032 282.914 195.314 37.0749 
284.262 195.028 36.7405 281.491 196.758 36.7857 282.452 197.483 36.0406 
281.339 197.853 36.9226 281.516 198.302 36.7451 291.822 198.987 35.4064 
295.666 198.843 35.4762 306.537 197.506 36.4277 282.263 199.919 36.7468 
300.118 199.122 36.29 282.865 200.171 36.5103 295.326 200.867 36.6584 
369.468 147.087 37.9267 369.965 147.27 37.6705 367.734 149.83 37.623 
368.735 148.663 37.6405 367.804 150.472 37.5547 367.115 151.112 37.6725 
366.634 150.859 38.0245 365.007 153.282 37.8974 364.612 154.394 37.62 
365.889 154.19 37.5285 363.601 155.371 37.5882 365.659 154.862 37.499 
362.336 155.858 38.0024 362.845 157.297 37.0976 360.705 158.29 37.3554 
361.082 159.081 37.0404 357.428 161.685 37.5059 358.013 161.966 37.073 
355.838 162.784 37.472 356.845 163.16 36.8798 358.007 163.033 36.9041 
352.571 164.459 37.0705 359.393 164.169 37.1158 355.525 166.678 36.157 
348.329 166.815 37.6885 344.653 169.312 37.2209 357.276 168.508 36.8559 
358.408 169.043 37.8494 358.966 168.633 38.2234 357.834 169.928 37.7479 
340.438 171.908 37.8906 335.425 174.967 37.6115 325.335 180.534 37.1814 
323.008 181.511 37.3951 343.372 181.943 36.8789 309.955 188.253 36.5597 
290.596 193.336 37.4581 285.701 194.394 37.2246 281.477 196.28 37.282 
281.567 196.036 37.7037 282.05 195.554 37.8669 283.463 194.896 37.5702 
281.34 196.433 37.5725 281.155 197.972 37.357 304.281 198.488 37.1647 
281.845 199.945 37.1657 281.392 200.748 38.2519 285.195 201.23 36.2526 
281.539 201.622 38.0787 281.679 201.794 37.9868 281.92 202.311 38.056 
290.351 202.33 36.9142 284.869 203.449 37.2584 288.981 203.13 37.3357 
290.014 202.981 37.4298 373.827 142.866 39.157 372.834 142.872 39.4448 
373.954 143.826 38.9406 372.063 145.891 38.1192 368.444 147.885 38.2364 
368.429 147.565 38.565 367.559 148.808 38.5918 369.206 151.259 37.931 
367.357 153.132 37.671 365.865 155.437 37.6295 359.886 158.281 38.2401 
365.272 158.407 38.2061 363.635 160.67 38.1055 360.179 164.113 37.3924 
363.393 162.516 38.9836 350.015 165.82 37.5982 361.665 164.892 38.8402 
359.039 166.427 37.3371 357.305 171.44 38.186 335.984 174.52 38.1122 
332.905 176.3 37.9617 347.349 179.159 37.6392 318.262 183.761 38.2848 
306.444 189.755 37.9748 296.997 192.213 37.8424 294.253 192.648 38.4443 
286.534 193.783 38.6942 289.835 193.277 38.1437 281.202 196.885 37.6886 
281.095 197.53 37.7977 304.265 198.771 38.0055 281.894 203.556 39.1649 
282.71 204.233 38.4678 283.003 204.622 38.5376 287.599 204.828 38.7355 
377.143 138.449 40.6211 375.822 139.879 40.0106 375.699 139.785 40.0367 
376.274 139.736 40.1155 375.217 140.328 40.0392 374.146 141.787 39.6502 
375.017 141.135 39.7851 375.236 142.679 39.5257 372.178 147.076 38.3241 
370.033 151.177 38.3152 371.243 150.693 38.9242 364.017 153.402 39.1877 
368.825 153.276 38.409 370.2 152.606 39.1399 368.766 154.019 38.7321 
362.535 155.179 38.823 363.061 154.399 39.5302 369.43 154.458 39.8376 
368.577 155.618 39.9189 366.472 157.696 38.899 358.336 159.769 38.7723 
367.259 157.388 39.6897 365.806 159.75 40.0887 353.375 163.411 38.7346 
347.388 167.168 39.6098 346.535 167.762 39.2209 356.088 172.853 38.9679 
[...]
POINT_DATA 1833
COLOR_SCALARS scalars 3
0.054902 0.588235 0.517647 0.054902 0.588235 0.517647 0.054902 0.588235 0.517647 
0.054902 0.588235 0.517647 0.054902 0.588235 0.517647 
0.054902 0.588235 0.517647 0.054902 0.588235 0.517647 
0.054902 0.588235 0.517647 0.054902 0.588235 0.517647 
0.054902 0.588235 0.517647 0.054902 0.588235 0.517647 
0.054902 0.588235 0.517647 0.054902 0.588235 0.517647 
0.054902 0.588235 0.517647 0.054902 0.588235 0.517647 
0.054902 0.588235 0.517647 0.054902 0.588235 0.517647 
0.054902 0.588235 0.517647 0.054902 0.588235 0.517647 
0.054902 0.588235 0.517647 0.054902 0.588235 0.517647 
0.054902 0.588235 0.517647 0.054902 0.588235 0.517647 
0.054902 0.588235 0.517647 0.054902 0.588235 0.517647 
0.054902 0.588235 0.517647 0.054902 0.588235 0.517647 
0.054902 0.588235 0.517647 0.054902 0.588235 0.517647 
0.054902 0.588235 0.517647 0.054902 0.588235 0.517647 
0.054902 0.588235 0.517647 0.054902 0.588235 0.517647 
0.054902 0.588235 0.517647 0.054902 0.588235 0.517647 
0.054902 0.588235 0.517647 0.054902 0.588235 0.517647 
0.054902 0.588235 0.517647 0.054902 0.588235 0.517647 
0.054902 0.588235 0.517647 0.054902 0.588235 0.517647 
0.054902 0.588235 0.517647 0.054902 0.588235 0.517647 
0.054902 0.588235 0.517647 0.054902 0.588235 0.517647 
0.054902 0.588235 0.517647 0.054902 0.588235 0.517647 
0.054902 0.588235 0.517647 0.054902 0.588235 0.517647 
0.054902 0.588235 0.517647 0.054902 0.588235 0.517647 
0.054902 0.588235 0.517647 0.054902 0.588235 0.517647 
0.054902 0.588235 0.517647 0.054902 0.588235 0.517647 
0.054902 0.588235 0.517647 0.054902 0.588235 0.517647 
0.054902 0.588235 0.517647 0.054902 0.588235 0.517647 
0.054902 0.588235 0.517647 0.054902 0.588235 0.517647 
0.054902 0.588235 0.517647 0.054902 0.588235 0.517647 
0.054902 0.588235 0.517647 0.054902 0.588235 0.517647 
0.054902 0.588235 0.517647 0.054902 0.588235 0.517647 
0.054902 0.588235 0.517647 0.054902 0.588235 0.517647 
0.054902 0.588235 0.517647 0.054902 0.588235 0.517647 
0.054902 0.588235 0.517647 0.054902 0.588235 0.517647 
0.054902 0.588235 0.517647 0.054902 0.588235 0.517647 
0.054902 0.588235 0.517647 0.054902 0.588235 0.517647 
0.054902 0.588235 0.517647 0.054902 0.588235 0.517647 
0.054902 0.588235 0.517647 0.054902 0.588235 0.517647 
0.054902 0.588235 0.517647 0.054902 0.588235 0.517647 
0.054902 0.588235 0.517647 0.054902 0.588235 0.517647 
0.054902 0.588235 0.517647 0.054902 0.588235 0.517647 
0.054902 0.588235 0.517647 0.054902 0.588235 0.517647 
0.054902 0.588235 0.517647 0.054902 0.588235 0.517647 
0.054902 0.588235 0.517647 0.054902 0.588235 0.517647 
0.054902 0.588235 0.517647 0.054902 0.588235 0.517647 
0.054902 0.588235 0.517647 0.054902 0.588235 0.517647 
0.054902 0.588235 0.517647 0.054902 0.588235 0.517647 
0.054902 0.588235 0.517647 0.054902 0.588235 0.517647 
0.054902 0.588235 0.517647 0.054902 0.588235 0.517647 
0.054902 0.588235 0.517647 0.054902 0.588235 0.517647 
0.054902 0.588235 0.517647 0.054902 0.588235 0.517647 
0.054902 0.588235 0.517647 0.054902 0.588235 0.517647 
0.054902 0.588235 0.517647 0.054902 0.588235 0.517647 
0.054902 0.588235 0.517647 0.054902 0.588235 0.517647 
0.054902 0.588235 0.517647 0.054902 0.588235 0.517647 
0.054902 0.588235 0.517647 0.054902 0.588235 0.517647 
0.054902 0.588235 0.517647 0.054902 0.588235 0.517647 
0.054902 0.588235 0.517647 0.054902 0.588235 0.517647 
0.054902 0.588235 0.517647 0.054902 0.588235 0.517647 
0.054902 0.588235 0.517647 0.054902 0.588235 0.517647 
0.054902 0.588235 0.517647 0.054902 0.588235 0.517647 
0.054902 0.588235 0.517647 0.054902 0.588235 0.517647 
0.054902 0.588235 0.517647 0.054902 0.588235 0.517647 
0.054902 0.588235 0.517647 0.054902 0.588235 0.517647 
0.054902 0.588235 0.517647 0.054902 0.588235 0.517647 
0.054902 0.588235 0.517647 0.054902 0.588235 0.517647 
0.054902 0.588235 0.517647 0.054902 0.588235 0.517647 
0.054902 0.588235 0.517647 0.054902 0.588235 0.517647 
0.054902 0.588235 0.517647 0.054902 0.588235 0.517647 
0.054902 0.588235 0.517647 0.054902 0.588235 0.517647 
0.054902 0.588235 0.517647 0.054902 0.588235 0.517647 
0.054902 0.588235 0.517647 0.054902 0.588235 0.517647 
0.054902 0.588235 0.517647 0.054902 0.588235 0.517647 
0.054902 0.588235 0.517647 0.054902 0.588235 0.517647 
0.054902 0.588235 0.517647 0.054902 0.588235 0.517647 
0.054902 0.588235 0.517647 0.054902 0.588235 0.517647 
0.054902 0.588235 0.517647 0.054902 0.588235 0.517647 
0.054902 0.588235 0.517647 0.054902 0.588235 0.517647 
0.054902 0.588235 0.517647 0.054902 0.588235 0.517647 
0.054902 0.588235 0.517647 0.054902 0.588235 0.517647 
0.054902 0.588235 0.517647 0.054902 0.588235 0.517647 
0.054902 0.588235 0.517647 0.054902 0.588235 0.517647 
0.054902 0.588235 0.517647 0.054902 0.588235 0.517647 
0.054902 0.588235 0.517647 0.054902 0.588235 0.517647 
0.054902 0.588235 0.517647 0.054902 0.588235 0.517647 
0.054902 0.588235 0.517647 0.054902 0.588235 0.517647 
0.054902 0.588235 0.517647 0.054902 0.588235 0.517647 
0.054902 0.588235 0.517647 0.054902 0.588235 0.517647 
0.054902 0.588235 0.517647 0.054902 0.588235 0.517647 
0.054902 0.588235 0.517647 0.054902 0.588235 0.517647 
0.054902 0.588235 0.517647 0.054902 0.588235 0.517647 
0.054902 0.588235 0.517647 0.054902 0.588235 0.517647 
0.054902 0.588235 0.517647 0.054902 0.588235 0.517647 
0.054902 0.588235 0.517647 0.054902 0.588235 0.517647 
0.054902 0.588235 0.517647 0.054902 0.588235 0.517647 
0.054902 0.588235 0.517647 0.054902 0.588235 0.517647 
0.054902 0.588235 0.517647 0.054902 0.588235 0.517647 
0.054902 0.588235 0.517647 0.054902 0.588235 0.517647 
0.054902 0.588235 0.517647 0.054902 0.588235 0.517647 
0.054902 0.588235 0.517647 0.054902 0.588235 0.517647 
0.054902 0.588235 0.517647 0.054902 0.588235 0.517647 
0.054902 0.588235 0.517647 0.054902 0.588235 0.517647 
0.054902 0.588235 0.517647 0.054902 0.588235 0.517647 
0.054902 0.588235 0.517647 0.054902 0.588235 0.517647 
0.054902 0.588235 0.517647 0.054902 0.588235 0.517647 
0.054902 0.588235 0.517647 0.054902 0.588235 0.517647 
0.054902 0.588235 0.517647 0.054902 0.588235 0.517647 
0.054902 0.588235 0.517647 0.054902 0.588235 0.517647 
0.054902 0.588235 0.517647 0.054902 0.588235 0.517647 
0.054902 0.588235 0.517647 0.054902 0.588235 0.517647 
0.054902 0.588235 0.517647 0.054902 0.588235 0.517647 
0.054902 0.588235 0.517647 0.054902 0.588235 0.517647 
0.054902 0.588235 0.517647 0.054902 0.588235 0.517647 
0.054902 0.588235 0.517647 0.054902 0.588235 0.517647 
0.054902 0.588235 0.517647 0.054902 0.588235 0.517647 
0.054902 0.588235 0.517647 0.054902 0.588235 0.517647 
0.054902 0.588235 0.517647 0.054902 0.588235 0.517647 
0.054902 0.588235 0.517647 0.054902 0.588235 0.517647 
0.054902 0.588235 0.517647 0.054902 0.588235 0.517647 
0.054902 0.588235 0.517647 0.054902 0.588235 0.517647 
0.054902 0.588235 0.517647 0.054902 0.588235 0.517647 
0.054902 0.588235 0.517647 0.054902 0.588235 0.517647 
0.054902 0.588235 0.517647 0.054902 0.588235 0.517647 
0.054902 0.588235 0.517647 0.054902 0.588235 0.517647 
0.054902 0.588235 0.517647 0.054902 0.588235 0.517647 
0.054902 0.588235 0.517647 0.054902 0.588235 0.517647 
0.054902 0.588235 0.517647 0.054902 0.588235 0.517647 
0.054902 0.588235 0.517647 0.054902 0.588235 0.517647 
0.054902 0.588235 0.517647 0.054902 0.588235 0.517647 
0.054902 0.588235 0.517647 0.054902 0.588235 0.517647 
0.054902 0.588235 0.517647 0.054902 0.588235 0.517647 
0.054902 0.588235 0.517647 0.054902 0.588235 0.517647 
0.054902 0.588235 0.517647 0.054902 0.588235 0.517647 
0.054902 0.588235 0.517647 0.054902 0.588235 0.517647 
0.054902 0.588235 0.517647 0.054902 0.588235 0.517647 
0.054902 0.588235 0.517647 0.054902 0.588235 0.517647 
0.054902 0.588235 0.517647 0.054902 0.588235 0.517647 
0.054902 0.588235 0.517647 0.054902 0.588235 0.517647 
0.054902 0.588235 0.517647 0.054902 0.588235 0.517647 
0.054902 0.588235 0.517647 0.054902 0.588235 0.517647 
0.054902 0.588235 0.517647 0.054902 0.588235 0.517647 
0.054902 0.588235 0.517647 0.054902 0.588235 0.517647 
0.054902 0.588235 0.517647 0.054902 0.588235 0.517647 
0.054902 0.588235 0.517647 0.054902 0.588235 0.517647 
0.054902 0.588235 0.517647 0.054902 0.588235 0.517647 
0.054902 0.588235 0.517647 0.054902 0.588235 0.517647 
0.054902 0.588235 0.517647 0.054902 0.588235 0.517647 
0.054902 0.588235 0.517647 0.054902 0.588235 0.517647 
0.054902 0.588235 0.517647 0.054902 0.588235 0.517647 
0.054902 0.588235 0.517647 0.054902 0.588235 0.517647 
0.054902 0.588235 0.517647 0.054902 0.588235 0.517647 
0.054902 0.588235 0.517647 0.054902 0.588235 0.517647 
0.054902 0.588235 0.517647 0.054902 0.588235 0.517647 
0.054902 0.588235 0.517647 0.054902 0.588235 0.517647 
0.054902 0.588235 0.517647 0.054902 0.588235 0.517647 
0.054902 0.588235 0.517647 0.054902 0.588235 0.517647 
0.054902 0.588235 0.517647 0.054902 0.588235 0.517647 
0.054902 0.588235 0.517647 0.054902 0.588235 0.517647 
0.054902 0.588235 0.517647 0.054902 0.588235 0.517647 
0.054902 0.588235 0.517647 0.054902 0.588235 0.517647 
0.054902 0.588235 0.517647 0.054902 0.588235 0.517647 
0.054902 0.588235 0.517647 0.054902 0.588235 0.517647 
0.054902 0.588235 0.517647 0.054902 0.588235 0.517647 
0.054902 0.588235 0.517647 0.054902 0.588235 0.517647 
0.054902 0.588235 0.517647 0.054902 0.588235 0.517647 
0.054902 0.588235 0.517647 0.054902 0.588235 0.517647 
0.054902 0.588235 0.517647 0.054902 0.588235 0.517647 
0.054902 0.588235 0.517647 0.054902 0.588235 0.517647 
0.054902 0.588235 0.517647 0.054902 0.588235 0.517647 
0.054902 0.588235 0.517647 0.054902 0.588235 0.517647 
0.054902 0.588235 0.517647 0.054902 0.588235 0.517647 
0.054902 0.588235 0.517647 0.054902 0.588235 0.517647 
0.054902 0.588235 0.517647 0.054902 0.588235 0.517647 
0.054902 0.588235 0.517647 0.054902 0.588235 0.517647 
0.054902 0.588235 0.517647 0.054902 0.588235 0.517647 
0.054902 0.588235 0.517647 0.054902 0.588235 0.517647 
0.054902 0.588235 0.517647 0.054902 0.588235 0.517647 
0.054902 0.588235 0.517647 0.054902 0.588235 0.517647 
0.054902 0.588235 0.517647 0.054902 0.588235 0.517647 
0.054902 0.588235 0.517647 0.054902 0.588235 0.517647 
0.054902 0.588235 0.517647 0.054902 0.588235 0.517647 
0.054902 0.588235 0.517647 0.054902 0.588235 0.517647 
0.054902 0.588235 0.517647 0.054902 0.588235 0.517647 
0.054902 0.588235 0.517647 0.054902 0.588235 0.517647 
0.054902 0.588235 0.517647 0.054902 0.588235 0.517647 
0.054902 0.588235 0.517647 0.054902 0.588235 0.517647 
0.054902 0.588235 0.517647 0.054902 0.588235 0.517647 
0.054902 0.588235 0.517647 0.054902 0.588235 0.517647 
0.054902 0.588235 0.517647 0.054902 0.588235 0.517647 
0.054902 0.588235 0.517647 0.054902 0.588235 0.517647 
0.054902 0.588235 0.517647 0.054902 0.588235 0.517647 
0.054902 0.588235 0.517647 0.054902 0.588235 0.517647 
0.054902 0.588235 0.517647 0.054902 0.588235 0.517647 
0.054902 0.588235 0.517647 0.054902 0.588235 0.517647 
0.054902 0.588235 0.517647 0.054902 0.588235 0.517647 
0.054902 0.588235 0.517647 0.054902 0.588235 0.517647 
0.054902 0.588235 0.517647 0.054902 0.588235 0.517647 
0.054902 0.588235 0.517647 0.054902 0.588235 0.517647 
0.054902 0.588235 0.517647 0.054902 0.588235 0.517647 
0.054902 0.588235 0.517647 0.054902 0.588235 0.517647 
0.054902 0.588235 0.517647 0.054902 0.588235 0.517647 
0.054902 0.588235 0.517647 0.054902 0.588235 0.517647 
0.054902 0.588235 0.517647 0.054902 0.588235 0.517647 
0.054902 0.588235 0.517647 0.054902 0.588235 0.517647 
0.054902 0.588235 0.517647 0.054902 0.588235 0.517647 
0.054902 0.588235 0.517647 0.054902 0.588235 0.517647 
0.054902 0.588235 0.517647 0.054902 0.588235 0.517647 
0.054902 0.588235 0.517647 0.054902 0.588235 0.517647 
0.054902 0.588235 0.517647 0.054902 0.588235 0.517647 
0.054902 0.588235 0.517647 0.054902 0.588235 0.517647 
0.054902 0.588235 0.517647 0.054902 0.588235 0.517647 
0.054902 0.588235 0.517647 0.054902 0.588235 0.517647 
0.054902 0.588235 0.517647 0.054902 0.588235 0.517647 
0.054902 0.588235 0.517647 0.054902 0.588235 0.517647 
0.054902 0.588235 0.517647 0.054902 0.588235 0.517647 
0.054902 0.588235 0.517647 0.054902 0.588235 0.517647 
0.054902 0.588235 0.517647 0.054902 0.588235 0.517647 
0.054902 0.588235 0.517647 0.054902 0.588235 0.517647 
0.054902 0.588235 0.517647 0.054902 0.588235 0.517647 
0.054902 0.588235 0.517647 0.054902 0.588235 0.517647 
0.054902 0.588235 0.517647 0.054902 0.588235 0.517647 
0.054902 0.588235 0.517647 0.054902 0.588235 0.517647 
0.054902 0.588235 0.517647 0.054902 0.588235 0.517647 
0.054902 0.588235 0.517647 0.054902 0.588235 0.517647 
0.054902 0.588235 0.517647 0.054902 0.588235 0.517647 
0.054902 0.588235 0.517647 0.054902 0.588235 0.517647 
0.054902 0.588235 0.517647 0.054902 0.588235 0.517647 
0.054902 0.588235 0.517647 0.054902 0.588235 0.517647 
0.054902 0.588235 0.517647 0.054902 0.588235 0.517647 
0.054902 0.588235 0.517647 0.054902 0.588235 0.517647 
0.054902 0.588235 0.517647 0.054902 0.588235 0.517647 
0.054902 0.588235 0.517647 0.054902 0.588235 0.517647 
0.054902 0.588235 0.517647 0.054902 0.588235 0.517647 
0.054902 0.588235 0.517647 0.054902 0.588235 0.517647 
0.054902 0.588235 0.517647 0.054902 0.588235 0.517647 
0.054902 0.588235 0.517647 0.054902 0.588235 0.517647 
0.054902 0.588235 0.517647 0.054902 0.588235 0.517647 
0.054902 0.588235 0.517647 0.054902 0.588235 0.517647 
0.054902 0.588235 0.517647 0.054902 0.588235 0.517647 
0.054902 0.588235 0.517647 0.054902 0.588235 0.517647 
0.054902 0.588235 0.517647 0.054902 0.588235 0.517647 
0.054902 0.588235 0.517647 0.054902 0.588235 0.517647 
0.054902 0.588235 0.517647 0.054902 0.588235 0.517647 
0.054902 0.588235 0.517647 0.054902 0.588235 0.517647 
0.054902 0.588235 0.517647 0.054902 0.588235 0.517647 
0.054902 0.588235 0.517647 0.054902 0.588235 0.517647 
0.054902 0.588235 0.517647 0.054902 0.588235 0.517647 
0.054902 0.588235 0.517647 0.054902 0.588235 0.517647 
0.054902 0.588235 0.517647 0.054902 0.588235 0.517647 
0.054902 0.588235 0.517647 0.054902 0.588235 0.517647 
0.054902 0.588235 0.517647 0.054902 0.588235 0.517647 
0.054902 0.588235 0.517647 0.054902 0.588235 0.517647 
0.054902 0.588235 0.517647 0.054902 0.588235 0.517647 
0.054902 0.588235 0.517647 0.054902 0.588235 0.517647 
0.054902 0.588235 0.517647 0.054902 0.588235 0.517647 
0.054902 0.588235 0.517647 0.054902 0.588235 0.517647 
0.054902 0.588235 0.517647 0.054902 0.588235 0.517647 
0.054902 0.588235 0.517647 0.054902 0.588235 0.517647 
0.054902 0.588235 0.517647 0.054902 0.588235 0.517647 
0.054902 0.588235 0.517647 0.054902 0.588235 0.517647 
0.054902 0.588235 0.517647 0.054902 0.588235 0.517647 
0.054902 0.588235 0.517647 0.054902 0.588235 0.517647 
0.054902 0.588235 0.517647 0.054902 0.588235 0.517647 
0.054902 0.588235 0.517647 0.054902 0.588235 0.517647 
0.054902 0.588235 0.517647 0.054902 0.588235 0.517647 
0.054902 0.588235 0.517647 0.054902 0.588235 0.517647 
0.054902 0.588235 0.517647 0.054902 0.588235 0.517647 
0.054902 0.588235 0.517647 0.054902 0.588235 0.517647 
0.054902 0.588235 0.517647 0.054902 0.588235 0.517647 
0.054902 0.588235 0.517647 0.054902 0.588235 0.517647 
0.054902 0.588235 0.517647 0.054902 0.588235 0.517647 
0.054902 0.588235 0.517647 0.054902 0.588235 0.517647 
0.054902 0.588235 0.517647 0.054902 0.588235 0.517647 
0.054902 0.588235 0.517647 0.054902 0.588235 0.517647 
0.054902 0.588235 0.517647 0.054902 0.588235 0.517647 
0.054902 0.588235 0.517647 0.054902 0.588235 0.517647 
0.054902 0.588235 0.517647 0.054902 0.588235 0.517647 
0.054902 0.588235 0.517647 0.054902 0.588235 0.517647 
0.054902 0.588235 0.517647 0.054902 0.588235 0.517647 
0.054902 0.588235 0.517647 0.054902 0.588235 0.517647 
0.054902 0.588235 0.517647 0.054902 0.588235 0.517647 
0.054902 0.588235 0.517647 0.054902 0.588235 0.517647 
0.054902 0.588235 0.517647 0.054902 0.588235 0.517647 
0.054902 0.588235 0.517647 0.054902 0.588235 0.517647 
0.054902 0.588235 0.517647 0.054902 0.588235 0.517647 
0.054902 0.588235 0.517647 0.054902 0.588235 0.517647 
0.054902 0.588235 0.517647 0.054902 0.588235 0.517647 
0.054902 0.588235 0.517647 0.054902 0.588235 0.517647 
0.054902 0.588235 0.517647 0.054902 0.588235 0.517647 
0.054902 0.588235 0.517647 0.054902 0.588235 0.517647 
0.054902 0.588235 0.517647 0.054902 0.588235 0.517647 
0.054902 0.588235 0.517647 0.054902 0.588235 0.517647 
0.054902 0.588235 0.517647 0.054902 0.588235 0.517647 
0.054902 0.588235 0.517647 0.054902 0.588235 0.517647 
0.054902 0.588235 0.517647 0.054902 0.588235 0.517647 
0.054902 0.588235 0.517647 0.054902 0.588235 0.517647 
0.054902 0.588235 0.517647 0.054902 0.588235 0.517647 
0.054902 0.588235 0.517647 0.054902 0.588235 0.517647 
0.054902 0.588235 0.517647 0.054902 0.588235 0.517647 
0.054902 0.588235 0.517647 0.054902 0.588235 0.517647 
0.054902 0.588235 0.517647 0.054902 0.588235 0.517647 
0.054902 0.588235 0.517647 0.054902 0.588235 0.517647 
0.054902 0.588235 0.517647 0.054902 0.588235 0.517647 
0.054902 0.588235 0.517647 0.054902 0.588235 0.517647 
0.054902 0.588235 0.517647 0.054902 0.588235 0.517647 
0.054902 0.588235 0.517647 0.054902 0.588235 0.517647 
0.054902 0.588235 0.517647 0.054902 0.588235 0.517647 
0.054902 0.588235 0.517647 0.054902 0.588235 0.517647 
0.054902 0.588235 0.517647 0.054902 0.588235 0.517647 
0.054902 0.588235 0.517647 0.054902 0.588235 0.517647 
0.054902 0.588235 0.517647 0.054902 0.588235 0.517647 
0.054902 0.588235 0.517647 0.054902 0.588235 0.517647 
0.054902 0.588235 0.517647 0.054902 0.588235 0.517647 
0.054902 0.588235 0.517647 0.054902 0.588235 0.517647 
0.054902 0.588235 0.517647 0.054902 0.588235 0.517647 
0.054902 0.588235 0.517647 0.054902 0.588235 0.517647 
0.054902 0.588235 0.517647 0.054902 0.588235 0.517647 
0.054902 0.588235 0.517647 0.054902 0.588235 0.517647 
0.054902 0.588235 0.517647 0.054902 0.588235 0.517647 
0.054902 0.588235 0.517647 0.054902 0.588235 0.517647 
0.054902 0.588235 0.517647 0.054902 0.588235 0.517647 
0.054902 0.588235 0.517647 0.054902 0.588235 0.517647 
0.054902 0.588235 0.517647 0.054902 0.588235 0.517647 
0.054902 0.588235 0.517647 0.054902 0.588235 0.517647 
0.054902 0.588235 0.517647 0.054902 0.588235 0.517647 
0.054902 0.588235 0.517647 0.054902 0.588235 0.517647 
0.054902 0.588235 0.517647 0.054902 0.588235 0.517647 
0.054902 0.588235 0.517647 0.054902 0.588235 0.517647 
0.054902 0.588235 0.517647 0.054902 0.588235 0.517647 
0.054902 0.588235 0.517647 0.054902 0.588235 0.517647 
0.054902 0.588235 0.517647 0.054902 0.588235 0.517647 
0.054902 0.588235 0.517647 0.054902 0.588235 0.517647 
0.054902 0.588235 0.517647 0.054902 0.588235 0.517647 
0.054902 0.588235 0.517647 0.054902 0.588235 0.517647 
0.054902 0.588235 0.517647 0.054902 0.588235 0.517647 
0.054902 0.588235 0.517647 0.054902 0.588235 0.517647 
0.054902 0.588235 0.517647 0.054902 0.588235 0.517647 
0.054902 0.588235 0.517647 0.054902 0.588235 0.517647 
0.054902 0.588235 0.517647 0.054902 0.588235 0.517647 
0.054902 0.588235 0.517647 0.054902 0.588235 0.517647 
0.054902 0.588235 0.517647 0.054902 0.588235 0.517647 
0.054902 0.588235 0.517647 0.054902 0.588235 0.517647 
0.054902 0.588235 0.517647 0.054902 0.588235 0.517647 
0.054902 0.588235 0.517647 0.054902 0.588235 0.517647 
0.054902 0.588235 0.517647 0.054902 0.588235 0.517647 
0.054902 0.588235 0.517647 0.054902 0.588235 0.517647 
0.054902 0.588235 0.517647 0.054902 0.588235 0.517647 
0.054902 0.588235 0.517647 0.054902 0.588235 0.517647 
0.054902 0.588235 0.517647 0.054902 0.588235 0.517647 
0.054902 0.588235 0.517647 0.054902 0.588235 0.517647 
0.054902 0.588235 0.517647 0.054902 0.588235 0.517647 
0.054902 0.588235 0.517647 0.054902 0.588235 0.517647 
0.054902 0.588235 0.517647 0.054902 0.588235 0.517647 
0.054902 0.588235 0.517647 0.054902 0.588235 0.517647 
0.054902 0.588235 0.517647 0.054902 0.588235 0.517647 
0.054902 0.588235 0.517647 0.054902 0.588235 0.517647 
0.054902 0.588235 0.517647 0.054902 0.588235 0.517647 
0.054902 0.588235 0.517647 0.054902 0.588235 0.517647 
0.054902 0.588235 0.517647 0.054902 0.588235 0.517647 
0.054902 0.588235 0.517647 0.054902 0.588235 0.517647 