# vtk DataFile Version 4.2
vtk output
ASCII
DATASET POLYDATA
POINTS 4305 float
430.012 210.666 42.8745 424.065 216.577 43.2569 433.584 215.648 42.6705 
424.681 219.326 42.9505 428.877 219.909 42.3354 433.211 222.362 42.7959 
424.489 223.851 43.2582 425.368 225.011 43.1404 429.505 225.555 42.8 
434.63 204.917 44.0004 435.915 208.964 43.5462 423.532 211.502 44.349 
425.292 212.233 43.3737 423.447 224.231 43.8804 432.657 228.612 43.4508 
425.47 229.542 44.2768 429.773 230.957 43.8662 436.421 201.805 44.9865 
438.522 202.728 45.0484 427.171 204.124 45.0299 439.924 203.97 45.1396 
428.415 205.357 44.3032 421.203 220.67 45.1545 421.983 221.883 44.5964 
422.187 223.959 44.767 439.211 229.61 44.8316 425.254 231.822 45.1899 
427.665 234.009 45.1867 427.211 201.142 46.2375 425.209 203.415 46.2216 
441.341 215.356 44.93 421.07 215.564 45.5161 441.242 223.372 45.0022 
421.781 227.897 46.3428 425.815 234.426 46.0828 429.941 235.05 45.1333 
431.679 236.547 45.5177 434.469 198.447 46.2809 421.249 208.3 47.7024 
420.128 222.632 46.6927 443.51 230.058 46.4657 423.722 233.446 47.0673 
425.532 236.09 47.1419 437.741 238.669 46.4595 440.39 195.929 48.0197 
425.904 198.895 48.1671 447.507 209.581 47.7886 418.675 217.757 48.5055 
419.963 224.77 47.5532 440.878 240.926 47.7188 429.839 241.4 48.2306 
435.426 242.435 47.7537 430.39 195.974 48.145 426.449 197.132 49.0066 
447.372 199.549 49.0153 423.605 200.349 49.3385 448.089 220.216 48.1516 
420.913 230.483 48.9761 425.8 238.718 48.7454 433.877 244.557 48.9988 
417.969 221.368 50.169 422.896 236.183 50.026 423.748 237.583 49.947 
426.945 241.07 49.6378 446.142 243.241 49.9173 432.01 245.537 50.0763 
441.813 191.043 51.3473 449.327 196.474 51.1397 425.243 240.316 50.5775 
432.917 247.648 51.2344 439.282 248.429 50.859 434.844 189.676 51.9887 
440.364 189.792 52.0239 429.015 191.539 51.9937 446.198 193.081 51.4445 
422.522 198.849 52.0836 420.603 204.043 52.0592 453.235 204.335 51.2121 
417.001 215.688 52.6078 419.102 229.014 52.0207 452.909 230.082 51.3649 
445.532 248.755 51.8608 423.626 195.557 53.0456 417.527 223.845 52.5114 
424.098 240.949 52.8344 451.198 246.585 52.9856 435.946 251.262 53.217 
445.094 251.133 53.0656 440.997 188.036 53.7154 430.237 188.806 53.9378 
451.914 194.689 53.5899 456.18 202.16 53.5099 457.34 204.147 53.8917 
416.508 217.675 54.4287 417.117 223.872 54.063 426.428 245.128 53.9148 
429.168 247.822 53.7111 453.601 194.105 55.187 417.1 211.205 54.9837 
459.485 210.713 54.8824 455.614 244.093 54.6507 440.976 253.249 54.2591 
444.934 186.707 56.2856 448.691 188.886 56.0267 425.288 190.21 56.0045 
459.939 218.936 55.5171 451.459 251.889 55.3642 433.586 253.26 56.0876 
446.276 254.558 55.7979 438.975 184.467 57.1983 428.545 186.522 57.1231 
455.391 192.873 57.685 426.216 247.465 57.3284 455.918 249.23 56.3067 
435.004 255.092 57.4177 461.121 202.41 57.5957 418.071 229.02 58.0213 
461.092 238.87 57.5236 423.848 243.841 57.705 442.907 257.478 58.2729 
425.154 187.275 59.3637 416.425 222.696 59.2846 430.374 253.096 58.4145 
455.761 254.631 59.2579 432.93 255.467 59.3212 438.213 258.003 59.6716 
433.973 182.865 59.5917 461.531 198.528 60.0809 465.113 208.568 59.9317 
416.91 225.258 60.468 437.866 181.433 61.2536 448.792 185.091 60.6877 
453.18 187.997 60.7724 457.608 191.999 61.0278 421.44 192.921 60.8122 
416.557 209.177 60.8042 428.251 209.386 62.3601 428.016 209.301 62.5447 
427.924 208.769 62.524 428.194 208.831 62.4253 428.583 209.107 62.3594 
428.26 209.989 62.4382 428.518 210.472 62.325 428.383 210.379 62.4587 
429.116 210.667 62.2139 428.6 210.784 62.3691 428.888 211.076 62.3068 
428.804 211.156 62.419 429.109 211.544 62.4067 429.773 211.871 62.3295 
466.564 213.671 60.99 431.95 255.834 60.9057 448.855 259.315 60.9264 
446.191 183.014 61.8995 427.386 183.545 61.9132 450.902 185.563 61.9227 
426.886 205.704 63.2151 426.635 205.517 63.4162 426.611 205.053 63.5249 
427.251 205.882 63.0813 426.882 206.166 63.1615 427.583 205.944 63.0511 
427.724 206.548 62.889 426.903 206.594 63.1801 426.715 206.261 63.4817 
428.338 207.403 62.7193 427.244 207.42 62.9549 427.265 207.71 63.0735 
427.596 208.327 62.7806 429.114 209.26 62.4176 467.046 209.185 62.0405 
428.564 210.78 62.4915 431.335 211.521 62.671 430.974 212.747 62.519 
430.236 213.072 62.612 429.972 212.843 62.8443 430.77 213.584 62.6016 
431.138 213.56 62.5926 430.853 214.138 62.7582 430.754 214.27 62.9685 
431.088 214.98 63.0674 431.349 215.428 63.0585 431.66 215.751 63.0216 
431.643 215.947 63.2125 431.932 216.375 63.1696 432.254 216.889 63.2658 
432.653 217.276 63.2913 422.498 241.673 62.3575 463.096 249.294 61.5625 
426.461 204.025 63.9787 426.367 204.438 63.8409 426.219 204.177 64.0427 
427.241 204.833 63.5205 426.257 204.424 63.9486 426.409 204.877 63.8807 
426.544 205.587 63.8288 416.924 206.39 62.9858 426.796 206.512 63.5175 
429.204 207.283 62.9365 430.227 213.102 63.1992 430.935 214.61 63.1872 
431.467 215.512 63.3879 431.907 216.333 63.4875 432.205 216.935 63.5025 
432.575 217.505 63.5165 433.418 219.039 63.6655 433.355 219.08 63.7576 
433.565 219.438 63.794 433.827 219.689 63.7903 434.331 220.287 63.9286 
434.796 220.637 64.0541 434.395 220.67 64.0721 468.46 228.519 63.0063 
468.396 234.471 63.1549 467.701 240.033 63.0835 465.217 246.088 62.2872 
429.344 254.676 63.438 459.492 255.943 63.0701 453.665 259.513 62.8838 
437.54 260.146 63.4309 465.545 201.065 63.9335 426.486 202.913 64.7547 
426.269 202.449 65.2939 426.398 202.196 65.3279 427.083 202.65 64.8065 
428.218 203.107 64.6501 426.342 203.971 64.702 431.027 204.819 64.5952 
426.563 205.425 64.1215 433.037 206.933 64.5986 427.989 208.864 63.402 
433.396 208.877 64.1186 430.326 212.735 63.5891 435.498 212.499 64.4161 
430.966 214.369 63.4261 436.151 214.645 64.5213 431.833 215.832 63.7095 
435.623 217.911 64.1144 416.332 218.996 63.9878 433.525 219.372 63.889 
435.678 220.705 64.3215 469.034 220.921 63.5895 434.666 221.149 64.2907 
435.965 222.101 64.6168 417.102 223.888 64.1387 435.357 222.183 64.662 
435.801 222.847 64.9907 436.154 223.159 64.9663 462.903 252.936 63.725 
444.098 262.306 64.3402 433.336 179.831 64.7277 461.606 194.392 64.1891 
426.546 201.686 65.6513 426.783 203.948 65.6113 428.827 209.348 64.0156 
430.637 212.261 64.1557 431.274 211.262 65.1694 432.2 214.12 64.7536 
436.935 221.086 64.8935 435.994 223.089 65.2995 436.368 223.713 65.2185 
436.268 223.646 65.3365 436.56 224.145 65.4225 436.808 224.541 65.5884 
437.104 224.923 65.7288 437.398 225.11 65.7669 437.555 225.552 66.0865 
426.792 251.365 64.6336 431.368 257.136 65.1203 458.974 257.229 64.0081 
441.057 179.053 66.5944 443.586 179.768 66.4433 423.436 184.765 65.4175 
457.532 189.038 65.6739 426.067 199.965 67.1541 425.962 199.496 67.5705 
426.398 200.358 66.6891 426.653 199.816 67.003 426.929 200.443 66.4813 
427.647 200.126 66.7372 426.091 200.569 66.8397 426.071 200.969 66.9743 
466.912 201.695 65.915 426.423 202.938 65.9166 469.045 207.461 65.7599 
435.754 222.056 65.4719 436.404 223.677 65.6062 436.499 223.374 65.8544 
436.626 224.23 65.5875 438.154 226.377 66.3713 438.029 226.325 66.4916 
438.807 226.906 66.6227 438.371 226.872 66.6587 438.781 227.522 67.0295 
439.009 227.476 66.8632 439.015 227.725 66.9998 425.213 248.276 66.3077 
433.965 259.341 66.3265 448.959 263.083 65.6891 442.391 263.262 66.603 
434.239 178.424 67.4698 426.25 181.398 66.4923 424.393 183.002 66.3032 
424.348 182.486 67.0951 420.879 189.924 66.9151 419.305 196.472 67.1584 
425.823 199.037 68.1931 425.827 199.502 68.2097 428.246 200.15 66.8374 
426.785 202.453 66.8794 438.235 206.908 67.6959 416.355 210.255 66.7212 
471.141 216.157 66.6998 417.051 220.076 67.088 435.675 220.278 65.8617 
440.52 221.943 67.0683 439.445 228.041 67.188 440.448 228.374 67.6992 
439.486 228.746 67.5942 439.723 228.954 67.6359 440.053 229.271 67.8053 
440.04 229.462 67.922 471.068 237.035 66.7658 469.049 246.327 67.0164 
467.966 247.981 66.4761 458.899 259.016 66.3944 438.039 261.976 67.315 
455.87 261.291 66.8326 446.388 264.249 67.7638 443.409 179.176 68.1315 
460.952 191.68 67.8098 426.517 197.911 68.6366 464.949 197.157 67.3041 
425.894 198.134 68.6774 425.791 197.719 69.1823 425.959 197.71 68.9833 
425.881 199.6 68.4315 436.674 203.798 68.186 441.466 213.779 68.2642 
416.711 216.228 67.6765 442.121 225.509 68.3884 439.04 227.571 67.5716 
439.483 228.728 67.7242 440.041 229.545 68.2585 440.244 229.93 68.3273 
440.663 230.268 68.4463 440.517 230.277 68.4704 440.97 230.779 68.8503 
422.072 237.936 68.1605 428.333 254.048 68.1389 438.188 177.976 68.9881 
423.387 182.691 68.3843 451.363 182.919 68.9527 421.532 186.004 68.8465 
425.874 197.307 69.4962 425.714 197.294 69.8899 425.834 196.849 70.0676 
429.776 197.381 69.8782 425.692 197.778 69.9363 417.711 199.968 69.0044 
426.221 199.266 69.4334 417.029 203.823 69.3738 416.85 205.945 69.3627 
435.741 209.532 69.4032 472.045 212.529 69.6131 417.795 221.549 68.4363 
442.404 229.644 69.222 441.438 230.999 69.0125 441.438 231.466 69.3531 
441.517 231.493 69.2576 441.654 231.904 69.4673 441.744 232.097 69.6149 
441.823 232.219 69.6143 471.159 244.512 69.5712 469.973 247.17 69.2033 
467.295 252.086 69.2374 466.167 253.313 68.7127 443.642 264.466 69.4223 
446.637 264.935 69.8313 425.959 196.379 70.4608 425.861 195.893 71.0808 
426.588 195.922 70.732 426.439 198.816 70.2558 468.973 202.824 69.7428 
417.243 213.847 70.1487 473.239 224.207 69.6504 440.407 225.293 69.1085 
473.433 229.747 70.1161 442.56 231.705 69.8454 442.45 231.961 69.8872 
441.866 232.372 69.6981 441.95 232.464 69.7674 442.049 232.434 69.8155 
453.241 263.766 69.564 448.776 264.957 70 429.581 177.234 70.9727 
434.02 176.955 71.5889 427.366 177.869 70.8697 428.803 177.436 70.8793 
425.139 179.12 70.9181 456.608 186.789 71.3214 425.98 195.414 71.4932 
425.871 194.943 72.0938 425.645 195.928 71.9413 464.946 195.759 70.8457 
425.815 196.971 71.4881 435.481 198.264 72.101 438.575 201.215 71.6583 
441.79 205.566 71.2027 436.35 207.261 71.4138 443.548 208.363 71.4966 
[...]
POINT_DATA 4305
COLOR_SCALARS scalars 3
1 0.988235 0.568627 1 0.988235 0.568627 1 0.988235 0.568627 
1 0.988235 0.568627 1 0.988235 0.568627 
1 0.988235 0.568627 1 0.988235 0.568627 
1 0.988235 0.568627 1 0.988235 0.568627 
1 0.988235 0.568627 1 0.988235 0.568627 
1 0.988235 0.568627 1 0.988235 0.568627 
1 0.988235 0.568627 1 0.988235 0.568627 
1 0.988235 0.568627 1 0.988235 0.568627 
1 0.988235 0.568627 1 0.988235 0.568627 
1 0.988235 0.568627 1 0.988235 0.568627 
1 0.988235 0.568627 1 0.988235 0.568627 
1 0.988235 0.568627 1 0.988235 0.568627 
1 0.988235 0.568627 1 0.988235 0.568627 
1 0.988235 0.568627 1 0.988235 0.568627 
1 0.988235 0.568627 1 0.988235 0.568627 
1 0.988235 0.568627 1 0.988235 0.568627 
1 0.988235 0.568627 1 0.988235 0.568627 
1 0.988235 0.568627 1 0.988235 0.568627 
1 0.988235 0.568627 1 0.988235 0.568627 
1 0.988235 0.568627 1 0.988235 0.568627 
1 0.988235 0.568627 1 0.988235 0.568627 
1 0.988235 0.568627 1 0.988235 0.568627 
1 0.988235 0.568627 1 0.988235 0.568627 
1 0.988235 0.568627 1 0.988235 0.568627 
1 0.988235 0.568627 1 0.988235 0.568627 
1 0.988235 0.568627 1 0.988235 0.568627 
1 0.988235 0.568627 1 0.988235 0.568627 
1 0.988235 0.568627 1 0.988235 0.568627 
1 0.988235 0.568627 1 0.988235 0.568627 
1 0.988235 0.568627 1 0.988235 0.568627 
1 0.988235 0.568627 1 0.988235 0.568627 
1 0.988235 0.568627 1 0.988235 0.568627 
1 0.988235 0.568627 1 0.988235 0.568627 
1 0.988235 0.568627 1 0.988235 0.568627 
1 0.988235 0.568627 1 0.988235 0.568627 
1 0.988235 0.568627 1 0.988235 0.568627 
1 0.988235 0.568627 1 0.988235 0.568627 
1 0.988235 0.568627 1 0.988235 0.568627 
1 0.988235 0.568627 1 0.988235 0.568627 
1 0.988235 0.568627 1 0.988235 0.568627 
1 0.988235 0.568627 1 0.988235 0.568627 
1 0.988235 0.568627 1 0.988235 0.568627 
1 0.988235 0.568627 1 0.988235 0.568627 
1 0.988235 0.568627 1 0.988235 0.568627 
1 0.988235 0.568627 1 0.988235 0.568627 
1 0.988235 0.568627 1 0.988235 0.568627 
1 0.988235 0.568627 1 0.988235 0.568627 
1 0.988235 0.568627 1 0.988235 0.568627 
1 0.988235 0.568627 1 0.988235 0.568627 
1 0.988235 0.568627 1 0.988235 0.568627 
1 0.988235 0.568627 1 0.988235 0.568627 
1 0.988235 0.568627 1 0.988235 0.568627 
1 0.988235 0.568627 1 0.988235 0.568627 
1 0.988235 0.568627 1 0.988235 0.568627 
1 0.988235 0.568627 1 0.988235 0.568627 
1 0.988235 0.568627 1 0.988235 0.568627 
1 0.988235 0.568627 1 0.988235 0.568627 
1 0.988235 0.568627 1 0.988235 0.568627 
1 0.988235 0.568627 1 0.988235 0.568627 
1 0.988235 0.568627 1 0.988235 0.568627 
1 0.988235 0.568627 1 0.988235 0.568627 
1 0.988235 0.568627 1 0.988235 0.568627 
1 0.988235 0.568627 1 0.988235 0.568627 
1 0.988235 0.568627 1 0.988235 0.568627 
1 0.988235 0.568627 1 0.988235 0.568627 
1 0.988235 0.568627 1 0.988235 0.568627 
1 0.988235 0.568627 1 0.988235 0.568627 
1 0.988235 0.568627 1 0.988235 0.568627 
1 0.988235 0.568627 1 0.988235 0.568627 
1 0.988235 0.568627 1 0.988235 0.568627 
1 0.988235 0.568627 1 0.988235 0.568627 
1 0.988235 0.568627 1 0.988235 0.568627 
1 0.988235 0.568627 1 0.988235 0.568627 
1 0.988235 0.568627 1 0.988235 0.568627 
1 0.988235 0.568627 1 0.988235 0.568627 
1 0.988235 0.568627 1 0.988235 0.568627 
1 0.988235 0.568627 1 0.988235 0.568627 
1 0.988235 0.568627 1 0.988235 0.568627 
1 0.988235 0.568627 1 0.988235 0.568627 
1 0.988235 0.568627 1 0.988235 0.568627 
1 0.988235 0.568627 1 0.988235 0.568627 
1 0.988235 0.568627 1 0.988235 0.568627 
1 0.988235 0.568627 1 0.988235 0.568627 
1 0.988235 0.568627 1 0.988235 0.568627 
1 0.988235 0.568627 1 0.988235 0.568627 
1 0.988235 0.568627 1 0.988235 0.568627 
1 0.988235 0.568627 1 0.988235 0.568627 
1 0.988235 0.568627 1 0.988235 0.568627 
1 0.988235 0.568627 1 0.988235 0.568627 
1 0.988235 0.568627 1 0.988235 0.568627 
1 0.988235 0.568627 1 0.988235 0.568627 
1 0.988235 0.568627 1 0.988235 0.568627 
1 0.988235 0.568627 1 0.988235 0.568627 
1 0.988235 0.568627 1 0.988235 0.568627 
1 0.988235 0.568627 1 0.988235 0.568627 
1 0.988235 0.568627 1 0.988235 0.568627 
1 0.988235 0.568627 1 0.988235 0.568627 
1 0.988235 0.568627 1 0.988235 0.568627 
1 0.988235 0.568627 1 0.988235 0.568627 
1 0.988235 0.568627 1 0.988235 0.568627 
1 0.988235 0.568627 1 0.988235 0.568627 
1 0.988235 0.568627 1 0.988235 0.568627 
1 0.988235 0.568627 1 0.988235 0.568627 
1 0.988235 0.568627 1 0.988235 0.568627 
1 0.988235 0.568627 1 0.988235 0.568627 
1 0.988235 0.568627 1 0.988235 0.568627 
1 0.988235 0.568627 1 0.988235 0.568627 
1 0.988235 0.568627 1 0.988235 0.568627 
1 0.988235 0.568627 1 0.988235 0.568627 
1 0.988235 0.568627 1 0.988235 0.568627 
1 0.988235 0.568627 1 0.988235 0.568627 
1 0.988235 0.568627 1 0.988235 0.568627 
1 0.988235 0.568627 1 0.988235 0.568627 
1 0.988235 0.568627 1 0.988235 0.568627 
1 0.988235 0.568627 1 0.988235 0.568627 
1 0.988235 0.568627 1 0.988235 0.568627 
1 0.988235 0.568627 1 0.988235 0.568627 
1 0.988235 0.568627 1 0.988235 0.568627 
1 0.988235 0.568627 1 0.988235 0.568627 
1 0.988235 0.568627 1 0.988235 0.568627 
1 0.988235 0.568627 1 0.988235 0.568627 
1 0.988235 0.568627 1 0.988235 0.568627 
1 0.988235 0.568627 1 0.988235 0.568627 
1 0.988235 0.568627 1 0.988235 0.568627 
1 0.988235 0.568627 1 0.988235 0.568627 
1 0.988235 0.568627 1 0.988235 0.568627 
1 0.988235 0.568627 1 0.988235 0.568627 
1 0.988235 0.568627 1 0.988235 0.568627 
1 0.988235 0.568627 1 0.988235 0.568627 
1 0.988235 0.568627 1 0.988235 0.568627 
1 0.988235 0.568627 1 0.988235 0.568627 
1 0.988235 0.568627 1 0.988235 0.568627 
1 0.988235 0.568627 1 0.988235 0.568627 
1 0.988235 0.568627 1 0.988235 0.568627 
1 0.988235 0.568627 1 0.988235 0.568627 
1 0.988235 0.568627 1 0.988235 0.568627 
1 0.988235 0.568627 1 0.988235 0.568627 
1 0.988235 0.568627 1 0.988235 0.568627 
1 0.988235 0.568627 1 0.988235 0.568627 
1 0.988235 0.568627 1 0.988235 0.568627 
1 0.988235 0.568627 1 0.988235 0.568627 
1 0.988235 0.568627 1 0.988235 0.568627 
1 0.988235 0.568627 1 0.988235 0.568627 
1 0.988235 0.568627 1 0.988235 0.568627 
1 0.988235 0.568627 1 0.988235 0.568627 
1 0.988235 0.568627 1 0.988235 0.568627 
1 0.988235 0.568627 1 0.988235 0.568627 
1 0.988235 0.568627 1 0.988235 0.568627 
1 0.988235 0.568627 1 0.988235 0.568627 
1 0.988235 0.568627 1 0.988235 0.568627 
1 0.988235 0.568627 1 0.988235 0.568627 
1 0.988235 0.568627 1 0.988235 0.568627 
1 0.988235 0.568627 1 0.988235 0.568627 
1 0.988235 0.568627 1 0.988235 0.568627 
1 0.988235 0.568627 1 0.988235 0.568627 
1 0.988235 0.568627 1 0.988235 0.568627 
1 0.988235 0.568627 1 0.988235 0.568627 
1 0.988235 0.568627 1 0.988235 0.568627 
1 0.988235 0.568627 1 0.988235 0.568627 
1 0.988235 0.568627 1 0.988235 0.568627 
1 0.988235 0.568627 1 0.988235 0.568627 
1 0.988235 0.568627 1 0.988235 0.568627 
1 0.988235 0.568627 1 0.988235 0.568627 
1 0.988235 0.568627 1 0.988235 0.568627 
1 0.988235 0.568627 1 0.988235 0.568627 
1 0.988235 0.568627 1 0.988235 0.568627 
1 0.988235 0.568627 1 0.988235 0.568627 
1 0.988235 0.568627 1 0.988235 0.568627 
1 0.988235 0.568627 1 0.988235 0.568627 
1 0.988235 0.568627 1 0.988235 0.568627 
1 0.988235 0.568627 1 0.988235 0.568627 
1 0.988235 0.568627 1 0.988235 0.568627 
1 0.988235 0.568627 1 0.988235 0.568627 
1 0.988235 0.568627 1 0.988235 0.568627 
1 0.988235 0.568627 1 0.988235 0.568627 
1 0.988235 0.568627 1 0.988235 0.568627 
1 0.988235 0.568627 1 0.988235 0.568627 
1 0.988235 0.568627 1 0.988235 0.568627 
1 0.988235 0.568627 1 0.988235 0.568627 
1 0.988235 0.568627 1 0.988235 0.568627 
1 0.988235 0.568627 1 0.988235 0.568627 
1 0.988235 0.568627 1 0.988235 0.568627 
1 0.988235 0.568627 1 0.988235 0.568627 
1 0.988235 0.568627 1 0.988235 0.568627 
1 0.988235 0.568627 1 0.988235 0.568627 
1 0.988235 0.568627 1 0.988235 0.568627 
1 0.988235 0.568627 1 0.988235 0.568627 
1 0.988235 0.568627 1 0.988235 0.568627 
1 0.988235 0.568627 1 0.988235 0.568627 
1 0.988235 0.568627 1 0.988235 0.568627 
1 0.988235 0.568627 1 0.988235 0.568627 
1 0.988235 0.568627 1 0.988235 0.568627 
1 0.988235 0.568627 1 0.988235 0.568627 
1 0.988235 0.568627 1 0.988235 0.568627 
1 0.988235 0.568627 1 0.988235 0.568627 
1 0.988235 0.568627 1 0.988235 0.568627 
1 0.988235 0.568627 1 0.988235 0.568627 
1 0.988235 0.568627 1 0.988235 0.568627 
1 0.988235 0.568627 1 0.988235 0.568627 
1 0.988235 0.568627 1 0.988235 0.568627 
1 0.988235 0.568627 1 0.988235 0.568627 
1 0.988235 0.568627 1 0.988235 0.568627 
1 0.988235 0.568627 1 0.988235 0.568627 
1 0.988235 0.568627 1 0.988235 0.568627 
1 0.988235 0.568627 1 0.988235 0.568627 
1 0.988235 0.568627 1 0.988235 0.568627 
1 0.988235 0.568627 1 0.988235 0.568627 
1 0.988235 0.568627 1 0.988235 0.568627 
1 0.988235 0.568627 1 0.988235 0.568627 
1 0.988235 0.568627 1 0.988235 0.568627 
1 0.988235 0.568627 1 0.988235 0.568627 
1 0.988235 0.568627 1 0.988235 0.568627 
1 0.988235 0.568627 1 0.988235 0.568627 
1 0.988235 0.568627 1 0.988235 0.568627 
1 0.988235 0.568627 1 0.988235 0.568627 
1 0.988235 0.568627 1 0.988235 0.568627 
1 0.988235 0.568627 1 0.988235 0.568627 
1 0.988235 0.568627 1 0.988235 0.568627 
1 0.988235 0.568627 1 0.988235 0.568627 
1 0.988235 0.568627 1 0.988235 0.568627 
1 0.988235 0.568627 1 0.988235 0.568627 
1 0.988235 0.568627 1 0.988235 0.568627 
1 0.988235 0.568627 1 0.988235 0.568627 
1 0.988235 0.568627 1 0.988235 0.568627 
1 0.988235 0.568627 1 0.988235 0.568627 
1 0.988235 0.568627 1 0.988235 0.568627 
1 0.988235 0.568627 1 0.988235 0.568627 
1 0.988235 0.568627 1 0.988235 0.568627 
1 0.988235 0.568627 1 0.988235 0.568627 
1 0.988235 0.568627 1 0.988235 0.568627 
1 0.988235 0.568627 1 0.988235 0.568627 
1 0.988235 0.568627 1 0.988235 0.568627 
1 0.988235 0.568627 1 0.988235 0.568627 
1 0.988235 0.568627 1 0.988235 0.568627 
1 0.988235 0.568627 1 0.988235 0.568627 
1 0.988235 0.568627 1 0.988235 0.568627 
1 0.988235 0.568627 1 0.988235 0.568627 
1 0.988235 0.568627 1 0.988235 0.568627 
1 0.988235 0.568627 1 0.988235 0.568627 
1 0.988235 0.568627 1 0.988235 0.568627 
1 0.988235 0.568627 1 0.988235 0.568627 
1 0.988235 0.568627 1 0.988235 0.568627 
1 0.988235 0.568627 1 0.988235 0.568627 
1 0.988235 0.568627 1 0.988235 0.568627 
1 0.988235 0.568627 1 0.988235 0.568627 
1 0.988235 0.568627 1 0.988235 0.568627 
1 0.988235 0.568627 1 0.988235 0.568627 
1 0.988235 0.568627 1 0.988235 0.568627 
1 0.988235 0.568627 1 0.988235 0.568627 
1 0.988235 0.568627 1 0.988235 0.568627 
1 0.988235 0.568627 1 0.988235 0.568627 
1 0.988235 0.568627 1 0.988235 0.568627 
1 0.988235 0.568627 1 0.988235 0.568627 
1 0.988235 0.568627 1 0.988235 0.568627 
1 0.988235 0.568627 1 0.988235 0.568627 
1 0.988235 0.568627 1 0.988235 0.568627 
1 0.988235 0.568627 1 0.988235 0.568627 
1 0.988235 0.568627 1 0.988235 0.568627 
1 0.988235 0.568627 1 0.988235 0.568627 
1 0.988235 0.568627 1 0.988235 0.568627 
1 0.988235 0.568627 1 0.988235 0.568627 
1 0.988235 0.568627 1 0.988235 0.568627 
1 0.988235 0.568627 1 0.988235 0.568627 
1 0.988235 0.568627 1 0.988235 0.568627 
1 0.988235 0.568627 1 0.988235 0.568627 
1 0.988235 0.568627 1 0.988235 0.568627 
1 0.988235 0.568627 1 0.988235 0.568627 
1 0.988235 0.568627 1 0.988235 0.568627 
1 0.988235 0.568627 1 0.988235 0.568627 
1 0.988235 0.568627 1 0.988235 0.568627 
1 0.988235 0.568627 1 0.988235 0.568627 
1 0.988235 0.568627 1 0.988235 0.568627 
1 0.988235 0.568627 1 0.988235 0.568627 
1 0.988235 0.568627 1 0.988235 0.568627 
1 0.988235 0.568627 1 0.988235 0.568627 
1 0.988235 0.568627 1 0.988235 0.568627 
1 0.988235 0.568627 1 0.988235 0.568627 
1 0.988235 0.568627 1 0.988235 0.568627 
1 0.988235 0.568627 1 0.988235 0.568627 
1 0.988235 0.568627 1 0.988235 0.568627 
1 0.988235 0.568627 1 0.988235 0.568627 
1 0.988235 0.568627 1 0.988235 0.568627 
1 0.988235 0.568627 1 0.988235 0.568627 
1 0.988235 0.568627 1 0.988235 0.568627 
1 0.988235 0.568627 1 0.988235 0.568627 
1 0.988235 0.568627 1 0.988235 0.568627 
1 0.988235 0.568627 1 0.988235 0.568627 
1 0.988235 0.568627 1 0.988235 0.568627 
1 0.988235 0.568627 1 0.988235 0.568627 
1 0.988235 0.568627 1 0.988235 0.568627 
1 0.988235 0.568627 1 0.988235 0.568627 
1 0.988235 0.568627 1 0.988235 0.568627 
1 0.988235 0.568627 1 0.988235 0.568627 
1 0.988235 0.568627 1 0.988235 0.568627 
1 0.988235 0.568627 1 0.988235 0.568627 
1 0.988235 0.568627 1 0.988235 0.568627 
1 0.988235 0.568627 1 0.988235 0.568627 
1 0.988235 0.568627 1 0.988235 0.568627 
1 0.988235 0.568627 1 0.988235 0.568627 
1 0.988235 0.568627 1 0.988235 0.568627 
1 0.988235 0.568627 1 0.988235 0.568627 
1 0.988235 0.568627 1 0.988235 0.568627 
1 0.988235 0.568627 1 0.988235 0.568627 
1 0.988235 0.568627 1 0.988235 0.568627 
1 0.988235 0.568627 1 0.988235 0.568627 
1 0.988235 0.568627 1 0.988235 0.568627 
1 0.988235 0.568627 1 0.988235 0.568627 
1 0.988235 0.568627 1 0.988235 0.568627 
1 0.988235 0.568627 1 0.988235 0.568627 
1 0.988235 0.568627 1 0.988235 0.568627 
1 0.988235 0.568627 1 0.988235 0.568627 
1 0.988235 0.568627 1 0.988235 0.568627 
1 0.988235 0.568627 1 0.988235 0.568627 
1 0.988235 0.568627 1 0.988235 0.568627 
1 0.988235 0.568627 1 0.988235 0.568627 
1 0.988235 0.568627 1 0.988235 0.568627 
1 0.988235 0.568627 1 0.988235 0.568627 
1 0.988235 0.568627 1 0.988235 0.568627 
1 0.988235 0.568627 1 0.988235 0.568627 
1 0.988235 0.568627 1 0.988235 0.568627 
1 0.988235 0.568627 1 0.988235 0.568627 
1 0.988235 0.568627 1 0.988235 0.568627 
1 0.988235 0.568627 1 0.988235 0.568627 
1 0.988235 0.568627 1 0.988235 0.568627 
1 0.988235 0.568627 1 0.988235 0.568627 
1 0.988235 0.568627 1 0.988235 0.568627 
1 0.988235 0.568627 1 0.988235 0.568627 
1 0.988235 0.568627 1 0.988235 0.568627 
1 0.988235 0.568627 1 0.988235 0.568627 
1 0.988235 0.568627 1 0.988235 0.568627 
1 0.988235 0.568627 1 0.988235 0.568627 
1 0.988235 0.568627 1 0.988235 0.568627 
1 0.988235 0.568627 1 0.988235 0.568627 
1 0.988235 0.568627 1 0.988235 0.568627 
1 0.988235 0.568627 1 0.988235 0.568627 
1 0.988235 0.568627 1 0.988235 0.568627 
1 0.988235 0.568627 1 0.988235 0.568627 
1 0.988235 0.568627 1 0.988235 0.568627 
1 0.988235 0.568627 1 0.988235 0.568627 
1 0.988235 0.568627 1 0.988235 0.568627 
1 0.988235 0.568627 1 0.988235 0.568627 
1 0.988235 0.568627 1 0.988235 0.568627 
1 0.988235 0.568627 1 0.988235 0.568627 
1 0.988235 0.568627 1 0.988235 0.568627 
1 0.988235 0.568627 1 0.988235 0.568627 
1 0.988235 0.568627 1 0.988235 0.568627 
1 0.988235 0.568627 1 0.988235 0.568627 
1 0.988235 0.568627 1 0.988235 0.568627 
1 0.988235 0.568627 1 0.988235 0.568627 
1 0.988235 0.568627 1 0.988235 0.568627 
1 0.988235 0.568627 1 0.988235 0.568627 
1 0.988235 0.568627 1 0.988235 0.568627 
1 0.988235 0.568627 1 0.988235 0.568627 
1 0.988235 0.568627 1 0.988235 0.568627 
1 0.988235 0.568627 1 0.988235 0.568627 
1 0.988235 0.568627 1 0.988235 0.568627 
1 0.988235 0.568627 1 0.988235 0.568627 
1 0.988235 0.568627 1 0.988235 0.568627 
1 0.988235 0.568627 1 0.988235 0.568627 
1 0.988235 0.568627 1 0.988235 0.568627 
1 0.988235 0.568627 1 0.988235 0.568627 
1 0.988235 0.568627 1 0.988235 0.568627 
1 0.988235 0.568627 1 0.988235 0.568627 
1 0.988235 0.568627 1 0.988235 0.568627 
1 0.988235 0.568627 1 0.988235 0.568627 
1 0.988235 0.568627 1 0.988235 0.568627 
1 0.988235 0.568627 1 0.988235 0.568627 
1 0.988235 0.568627 1 0.988235 0.568627 
1 0.988235 0.568627 1 0.988235 0.568627 
1 0.988235 0.568627 1 0.988235 0.568627 
1 0.988235 0.568627 1 0.988235 0.568627 
1 0.988235 0.568627 1 0.988235 0.568627 
1 0.988235 0.568627 1 0.988235 0.568627 
1 0.988235 0.568627 1 0.988235 0.568627 
1 0.988235 0.568627 1 0.988235 0.568627 
1 0.988235 0.568627 1 0.988235 0.568627 
1 0.988235 0.568627 1 0.988235 0.568627 
1 0.988235 0.568627 1 0.988235 0.568627 
1 0.988235 0.568627 1 0.988235 0.568627 
1 0.988235 0.568627 1 0.988235 0.568627 
1 0.988235 0.568627 1 0.988235 0.568627 
1 0.988235 0.568627 1 0.988235 0.568627 
1 0.988235 0.568627 1 0.988235 0.568627 
1 0.988235 0.568627 1 0.988235 0.568627 
1 0.988235 0.568627 1 0.988235 0.568627 
1 0.988235 0.568627 1 0.988235 0.568627 
1 0.988235 0.568627 1 0.988235 0.568627 
1 0.988235 0.568627 1 0.988235 0.568627 
1 0.988235 0.568627 1 0.988235 0.568627 
1 0.988235 0.568627 1 0.988235 0.568627 
1 0.988235 0.568627 1 0.988235 0.568627 
1 0.988235 0.568627 1 0.988235 0.568627 
1 0.988235 0.568627 1 0.988235 0.568627 
1 0.988235 0.568627 1 0.988235 0.568627 
1 0.988235 0.568627 1 0.988235 0.568627 
1 0.988235 0.568627 1 0.988235 0.568627 
1 0.988235 0.568627 1 0.988235 0.568627 
1 0.988235 0.568627 1 0.988235 0.568627 
1 0.988235 0.568627 1 0.988235 0.568627 
1 0.988235 0.568627 1 0.988235 0.568627 
1 0.988235 0.568627 1 0.988235 0.568627 
1 0.988235 0.568627 1 0.988235 0.568627 
1 0.988235 0.568627 1 0.988235 0.568627 
1 0.988235 0.568627 1 0.988235 0.568627 
1 0.988235 0.568627 1 0.988235 0.568627 
1 0.988235 0.568627 1 0.988235 0.568627 
1 0.988235 0.568627 1 0.988235 0.568627 
1 0.988235 0.568627 1 0.988235 0.568627 
1 0.988235 0.568627 1 0.988235 0.568627 
1 0.988235 0.568627 1 0.988235 0.568627 
1 0.988235 0.568627 1 0.988235 0.568627 
1 0.988235 0.568627 1 0.988235 0.568627 
1 0.988235 0.568627 1 0.988235 0.568627 
1 0.988235 0.568627 1 0.988235 0.568627 
1 0.988235 0.568627 1 0.988235 0.568627 
1 0.988235 0.568627 1 0.988235 0.568627 
1 0.988235 0.568627 1 0.988235 0.568627 
1 0.988235 0.568627 1 0.988235 0.568627 
1 0.988235 0.568627 1 0.988235 0.568627 
1 0.988235 0.568627 1 0.988235 0.568627 
1 0.988235 0.568627 1 0.988235 0.568627 
1 0.988235 0.568627 1 0.988235 0.568627 
1 0.988235 0.568627 1 0.988235 0.568627 
1 0.988235 0.568627 1 0.988235 0.568627 
1 0.988235 0.568627 1 0.988235 0.568627 
1 0.988235 0.568627 1 0.988235 0.568627 
1 0.988235 0.568627 1 0.988235 0.568627 
1 0.988235 0.568627 1 0.988235 0.568627 
1 0.988235 0.568627 1 0.988235 0.568627 
1 0.988235 0.568627 1 0.988235 0.568627 
1 0.988235 0.568627 1 0.988235 0.568627 
1 0.988235 0.568627 1 0.988235 0.568627 
1 0.988235 0.568627 1 0.988235 0.568627 
1 0.988235 0.568627 1 0.988235 0.568627 
1 0.988235 0.568627 1 0.988235 0.568627 
1 0.988235 0.568627 1 0.988235 0.568627 
1 0.988235 0.568627 1 0.988235 0.568627 
1 0.988235 0.568627 1 0.988235 0.568627 
1 0.988235 0.568627 1 0.988235 0.568627 
1 0.988235 0.568627 1 0.988235 0.568627 
1 0.988235 0.568627 1 0.988235 0.568627 
1 0.988235 0.568627 1 0.988235 0.568627 
1 0.988235 0.568627 1 0.988235 0.568627 
1 0.988235 0.568627 1 0.988235 0.568627 
1 0.988235 0.568627 1 0.988235 0.568627 
1 0.988235 0.568627 1 0.988235 0.568627 
1 0.988235 0.568627 1 0.988235 0.568627 
1 0.988235 0.568627 1 0.988235 0.568627 
1 0.988235 0.568627 1 0.988235 0.568627 
1 0.988235 0.568627 1 0.988235 0.568627 
1 0.988235 0.568627 1 0.988235 0.568627 
1 0.988235 0.568627 1 0.988235 0.568627 
1 0.988235 0.568627 1 0.988235 0.568627 
1 0.988235 0.568627 1 0.988235 0.568627 
1 0.988235 0.568627 1 0.988235 0.568627 
1 0.988235 0.568627 1 0.988235 0.568627 
1 0.988235 0.568627 1 0.988235 0.568627 
1 0.988235 0.568627 1 0.988235 0.568627 
1 0.988235 0.568627 1 0.988235 0.568627 
1 0.988235 0.568627 1 0.988235 0.568627 
1 0.988235 0.568627 1 0.988235 0.568627 
1 0.988235 0.568627 1 0.988235 0.568627 
1 0.988235 0.568627 1 0.988235 0.568627 
1 0.988235 0.568627 1 0.988235 0.568627 
1 0.988235 0.568627 1 0.988235 0.568627 
1 0.988235 0.568627 1 0.988235 0.568627 
1 0.988235 0.568627 1 0.988235 0.568627 
1 0.988235 0.568627 1 0.988235 0.568627 
1 0.988235 0.568627 1 0.988235 0.568627 
1 0.988235 0.568627 1 0.988235 0.568627 
1 0.988235 0.568627 1 0.988235 0.568627 
1 0.988235 0.568627 1 0.988235 0.568627 
1 0.988235 0.568627 1 0.988235 0.568627 
1 0.988235 0.568627 1 0.988235 0.568627 
1 0.988235 0.568627 1 0.988235 0.568627 
1 0.988235 0.568627 1 0.988235 0.568627 
1 0.988235 0.568627 1 0.988235 0.568627 
1 0.988235 0.568627 1 0.988235 0.568627 
1 0.988235 0.568627 1 0.988235 0.568627 
1 0.988235 0.568627 1 0.988235 0.568627 
1 0.988235 0.568627 1 0.988235 0.568627 
1 0.988235 0.568627 1 0.988235 0.568627 
1 0.988235 0.568627 1 0.988235 0.568627 
1 0.988235 0.568627 1 0.988235 0.568627 
1 0.988235 0.568627 1 0.988235 0.568627 
1 0.988235 0.568627 1 0.988235 0.568627 