# vtk DataFile Version 4.2
vtk output
ASCII
DATASET POLYDATA
POINTS 901 float
358.596 244.457 173.943 358.948 244.499 173.97 358.149 245.009 173.923 
358.941 245.349 173.846 358.374 246.508 173.854 359.246 247.052 173.969 
358.895 242.969 174.333 359.108 242.401 174.517 357.72 243.513 174.296 
359.372 243.472 174.302 359.78 243.095 174.506 359.794 246.037 174.108 
358.46 250.758 174.599 359.364 250.306 174.499 358.715 239.23 175.791 
359.987 239.901 175.486 358.526 240.817 175.036 356.923 241.343 175.245 
357.506 241.276 175.035 360.582 240.612 175.422 356.617 242.062 175.141 
360.805 245.15 174.691 355.971 248.165 175.094 357.015 247.795 174.483 
356.873 251.775 175.319 358.103 251.441 174.856 361.3 251.444 175.264 
359.932 252.672 175.041 358.907 255.101 175.519 357.653 238.908 176.486 
361.91 238.819 176.969 356.797 239.328 176.564 355.141 241.381 176.446 
362.234 241.679 176.204 362.418 253.523 176.068 362.378 255.486 176.242 
361.501 238.286 177.112 362.273 239.036 177.227 362.328 238.751 177.619 
363.301 241.816 177.171 363.072 252.134 176.406 356.345 256.6 176.931 
362.937 257.01 176.685 362.578 258.769 176.852 357.9 238.167 178.008 
360.591 238.019 177.777 361.998 238.441 177.541 362.159 238.499 177.871 
362.597 238.838 178.174 363.135 239.362 178.432 363.74 240.392 178.433 
363.946 241.102 178.324 364.113 255.057 177.295 360.822 261.689 177.741 
359.276 237.967 178.587 356.41 238.687 178.759 357.302 238.382 178.954 
362.205 238.569 178.963 362.892 238.992 178.572 363.826 240.181 178.925 
363.496 239.66 178.97 364.68 241.975 179.391 351.275 243.437 179.45 
365.501 246.704 179.042 365.601 248.707 178.935 351.922 252.538 178.958 
365.184 254.196 178.266 361.036 238.191 178.829 360.779 238.363 179.434 
363.035 239.151 179.372 354.625 239.415 180.636 364.282 240.889 179.809 
365.253 242.963 179.966 366.327 266.355 180.447 359.495 238.604 180.173 
364.252 241.023 180.45 350.337 241.918 181.427 365.149 242.538 180.488 
365.278 242.819 180.291 365.793 244.147 180.79 349.337 247.347 180.946 
367.06 249.624 181.217 350.345 253.953 180.668 367.652 258.575 180.821 
353.851 261.644 180.895 354.717 263.236 181.373 362.247 267.187 181.068 
367.834 267.385 181.523 366.199 268.246 181.29 364.948 269.336 182.004 
367.341 268.874 181.918 354.955 239.376 182.048 357.038 239.377 181.791 
362.438 239.745 180.86 363.829 240.836 181.097 365.115 242.573 180.828 
364.852 242.43 181.201 365.232 242.977 181.135 366.221 244.955 181.474 
366.745 246.224 181.949 367.301 249.505 182.414 367.627 253.971 181.783 
349.422 255.718 182.151 351.231 259.203 181.616 369.333 262.01 182.504 
369.017 267.19 182.347 367.272 270.193 182.644 351.139 240.373 182.585 
363.933 243.4 183.038 365.421 244.217 182.471 365.825 244.453 182.074 
366.145 244.821 181.799 366.784 246.212 182.429 366.837 246.502 182.727 
367.067 247.267 182.248 348.106 251.549 182.856 367.765 252.789 183.155 
351.94 263 183.541 352.599 263.828 183.662 355.896 265.02 182.16 
354.596 265.683 183.766 369.763 269.396 183.758 355.831 239.844 184.246 
358.026 241.173 184.371 347.565 243.764 184.121 365.257 244.543 183.013 
366.423 245.69 182.85 366.675 246.029 182.692 367.643 252.275 183.771 
369.496 258.599 184.114 352.915 265.054 184.928 366.345 272.505 184.85 
368.018 272.235 184.497 369.3 271.81 184.755 350.673 239.699 185.193 
346.356 246.276 185.31 366.52 247.649 183.832 348.282 257.326 184.847 
369.529 258.261 184.559 370.812 262.746 185.089 370.984 267.22 184.811 
355.951 267.765 185.394 370.985 270.289 185.608 370.365 271.406 185.452 
366.892 273.282 185.822 368.994 273.045 185.732 368.034 273.529 186.134 
354.374 239.444 185.658 355.907 240.29 185.979 366.451 251.265 186.18 
367.226 252.387 185.618 349.205 260.464 185.914 371.553 265.098 186.086 
369.941 273.066 186.511 370.495 272.786 186.705 370.739 260.938 186.499 
346.353 241.873 187.789 345.002 248.55 188.208 364.068 249.886 188.248 
369.435 257.83 187.694 370.836 260.889 187.755 352.822 238.515 189.833 
350.572 238.628 188.809 348.042 239.696 188.648 363.353 249.763 189.268 
346.418 254.916 188.897 372.678 266.845 188.932 354.117 267.709 188.494 
371.571 272.969 188.829 351.236 238.298 189.707 346.589 240.635 189.317 
369.682 275.27 190.753 352.888 238.18 191.41 348.909 238.37 191.207 
350.304 238.207 190.522 354.808 239.707 191.47 344.344 243.723 190.686 
364.127 251.722 191.03 373.135 269.527 191.35 370.129 275.131 190.936 
369.162 275.567 191.768 343.713 246.43 192.589 368.044 275.644 192.091 
370.305 275.24 191.656 370.757 275.05 191.944 351.383 237.46 193.593 
356.998 242.534 193.43 343.786 244.036 193.066 372.762 272.853 193.751 
344.235 241.71 194.165 353.449 268.079 194.269 347.407 238.087 194.276 
360.773 248.496 195.284 366.937 256.561 195.191 372.422 273.869 194.855 
371.061 275.232 194.378 371.61 274.893 195.013 369.249 275.954 195.187 
348.625 237.269 195.64 354.424 239.049 195.926 362.108 250.505 196.464 
369.488 260.072 195.839 370.227 261.181 195.767 373.4 269.984 196.072 
373.356 271.742 196.534 363.287 274.764 195.99 368.459 276.057 196.291 
370.536 275.64 195.602 353.4 237.948 197.138 345.075 239.675 196.25 
343.878 249.286 196.806 366.092 275.753 196.899 371.158 275.389 196.256 
347.496 237.071 198.525 352.804 237.42 197.736 373.673 271.657 198.604 
346.28 237.739 199.192 373.104 267.589 198.351 348.692 236.281 200.107 
352.666 236.738 199.92 352.937 237.034 199.537 373.869 271.028 199.766 
356.969 271.671 199.879 368.296 276.149 200.237 351.266 236.004 200.633 
353.958 237.516 201.051 344.105 241.027 201.095 373.99 271.551 201.372 
372.993 274.277 200.826 352.011 235.761 202.165 344.774 239.439 201.532 
366.841 256.365 202.295 373.542 268.27 201.779 373.992 270.272 201.51 
373.982 272.24 202.394 372.621 274.822 202.079 349.483 235.203 203.838 
373.66 268.246 202.894 350.723 235.055 204.095 351.443 235.218 203.826 
343.795 247.444 204.048 373.144 274.4 204.278 371.439 275.65 203.702 
348.58 235.295 204.742 349.845 234.824 205.296 343.895 242.759 205.027 
374.28 271.608 205.132 373.924 273.132 205.259 372.118 275.338 204.144 
372.428 275.134 204.754 366.329 255.002 205.291 374.347 269.935 205.87 
347.308 235.792 207.247 345.355 238.277 206.564 344.544 240.223 206.647 
371.501 262.357 206.984 356.732 271.806 207.651 374.409 271.714 207.029 
372.308 275.163 206.212 373.079 274.473 207.423 370.739 275.786 206.252 
348.265 234.992 208.122 361.743 247.563 208.224 344.675 251.425 208.581 
374.229 272.632 208.029 372.965 274.533 208.12 352.323 233.804 209.802 
349.524 234.302 208.498 344.286 242.084 208.666 344.115 243.959 208.783 
373.831 273.474 208.964 350.885 233.639 210.119 345.145 239.187 209.838 
373.239 274.098 209.736 366.974 275.317 209.821 372.563 274.593 209.739 
346.593 256.649 211.516 374.956 270.302 210.676 374.84 271.235 211.604 
358.561 273.065 211.453 350.792 233.284 212.644 353.222 233.593 211.381 
373.708 273.31 211.899 374.136 272.691 212.621 352.625 232.832 213.308 
352.641 232.683 213.947 353.869 233.74 211.97 354.867 234.249 212.684 
347.198 236.05 213.031 361.363 274.137 213.293 371.718 274.575 211.801 
353.466 232.836 213.751 348.825 234.438 213.939 345.004 251.375 213.87 
374.298 262.994 213.271 357.996 272.53 213.816 355.722 232.589 215.796 
355.76 232.362 216.146 354.663 232.995 214.485 355.069 232.574 215.482 
355.761 232.879 215.581 350.706 233.23 215.829 355.965 233.042 215.803 
349.452 234.081 215.605 356.299 234.601 215.119 373.917 272.461 214.497 
366.398 274.406 214.55 370.267 274.207 214.299 355.848 232.255 216.546 
355.517 232.36 216.108 356.002 232.321 216.52 356.039 232.232 216.803 
355.988 232.582 216.339 356.019 232.309 216.754 345.919 239.749 216.102 
348.777 259.748 216.372 374.988 263.256 215.715 375.441 266.018 215.949 
360.017 273.335 215.997 355.788 232.338 216.594 355.952 232.263 216.934 
355.995 232.2 216.99 356.109 232.277 217.236 352.517 232.485 217.157 
355.533 232.327 216.808 355.979 232.617 216.66 356.051 232.342 217.05 
356.425 233.103 217.309 356.926 234.593 217.167 375.367 267.055 216.91 
373.923 271.277 216.786 356.015 232.198 217.568 355.885 232.21 217.318 
356.166 232.331 217.798 355.455 232.207 217.413 356.001 232.481 217.112 
356.292 232.622 217.666 350.945 233.489 218.138 356.861 233.871 218.168 
345.333 247.026 217.55 357.97 271.402 217.622 372.558 271.389 218.069 
359.461 272.545 217.184 370.744 272.184 218.01 364.193 273.525 217.134 
354.713 232.224 218.521 349.078 235.592 218.731 345.916 242.361 218.276 
373.685 259.381 217.861 351.041 261.609 219.211 375.278 265.239 218.763 
375.173 266.228 218.759 361.432 272.725 218.022 364.07 272.715 218.458 
362.832 273.171 217.647 355.718 232.242 218.524 356.309 232.738 218.961 
355.287 232.288 218.929 358.171 237.447 219.505 349.004 257.07 219.949 
372.917 257.62 219.854 375.039 262.447 219.527 353.488 265.143 219.32 
355.917 268.564 218.946 357.341 269.625 219.217 364.555 271.321 220.029 
355.757 232.417 219.16 358.002 236.992 220.541 347.205 241.805 220.607 
364.085 245.472 220.656 374.052 259.443 220.536 351.221 260.805 220.267 
356.514 266.974 220.74 355.88 232.667 219.623 354.77 232.959 220.795 
353.367 233.517 221.297 356.697 234.322 220.62 351.352 235.139 221.355 
357.536 236.431 221.515 357.926 236.981 221.136 359.247 239.273 221.281 
348.261 240.091 221.272 361.118 241.58 221.625 347.157 244.334 221.172 
351.433 260.604 220.639 351.796 259.959 221.355 374.6 260.738 220.749 
374.773 262.706 221.341 372.898 267.682 221.641 354.796 233.207 221.183 
355.683 233.326 220.831 353.142 233.799 221.47 354.849 233.605 221.542 
355.947 233.794 221.153 356.349 234.396 221.272 353.553 234.258 222.008 
357.136 236.007 221.854 358.087 237.756 222.147 351.285 237.389 222.748 
358.404 238.427 222.494 358.917 238.963 222.207 361.796 242.115 222.603 
364.738 245.754 222.598 371.545 255.208 222.617 374.299 260.355 221.869 
355.742 261.604 223.075 374.401 263.822 222.155 373.709 265.88 222.347 
360.676 265.957 223.026 371.938 266.533 222.993 355.311 234.21 221.906 
[...]
POINT_DATA 901
COLOR_SCALARS scalars 3
1 0.729412 0.52549 1 0.729412 0.52549 1 0.729412 0.52549 
1 0.729412 0.52549 1 0.729412 0.52549 
1 0.729412 0.52549 1 0.729412 0.52549 
1 0.729412 0.52549 1 0.729412 0.52549 
1 0.729412 0.52549 1 0.729412 0.52549 
1 0.729412 0.52549 1 0.729412 0.52549 
1 0.729412 0.52549 1 0.729412 0.52549 
1 0.729412 0.52549 1 0.729412 0.52549 
1 0.729412 0.52549 1 0.729412 0.52549 
1 0.729412 0.52549 1 0.729412 0.52549 
1 0.729412 0.52549 1 0.729412 0.52549 
1 0.729412 0.52549 1 0.729412 0.52549 
1 0.729412 0.52549 1 0.729412 0.52549 
1 0.729412 0.52549 1 0.729412 0.52549 
1 0.729412 0.52549 1 0.729412 0.52549 
1 0.729412 0.52549 1 0.729412 0.52549 
1 0.729412 0.52549 1 0.729412 0.52549 
1 0.729412 0.52549 1 0.729412 0.52549 
1 0.729412 0.52549 1 0.729412 0.52549 
1 0.729412 0.52549 1 0.729412 0.52549 
1 0.729412 0.52549 1 0.729412 0.52549 
1 0.729412 0.52549 1 0.729412 0.52549 
1 0.729412 0.52549 1 0.729412 0.52549 
1 0.729412 0.52549 1 0.729412 0.52549 
1 0.729412 0.52549 1 0.729412 0.52549 
1 0.729412 0.52549 1 0.729412 0.52549 
1 0.729412 0.52549 1 0.729412 0.52549 
1 0.729412 0.52549 1 0.729412 0.52549 
1 0.729412 0.52549 1 0.729412 0.52549 
1 0.729412 0.52549 1 0.729412 0.52549 
1 0.729412 0.52549 1 0.729412 0.52549 
1 0.729412 0.52549 1 0.729412 0.52549 
1 0.729412 0.52549 1 0.729412 0.52549 
1 0.729412 0.52549 1 0.729412 0.52549 
1 0.729412 0.52549 1 0.729412 0.52549 
1 0.729412 0.52549 1 0.729412 0.52549 
1 0.729412 0.52549 1 0.729412 0.52549 
1 0.729412 0.52549 1 0.729412 0.52549 
1 0.729412 0.52549 1 0.729412 0.52549 
1 0.729412 0.52549 1 0.729412 0.52549 
1 0.729412 0.52549 1 0.729412 0.52549 
1 0.729412 0.52549 1 0.729412 0.52549 
1 0.729412 0.52549 1 0.729412 0.52549 
1 0.729412 0.52549 1 0.729412 0.52549 
1 0.729412 0.52549 1 0.729412 0.52549 
1 0.729412 0.52549 1 0.729412 0.52549 
1 0.729412 0.52549 1 0.729412 0.52549 
1 0.729412 0.52549 1 0.729412 0.52549 
1 0.729412 0.52549 1 0.729412 0.52549 
1 0.729412 0.52549 1 0.729412 0.52549 
1 0.729412 0.52549 1 0.729412 0.52549 
1 0.729412 0.52549 1 0.729412 0.52549 
1 0.729412 0.52549 1 0.729412 0.52549 
1 0.729412 0.52549 1 0.729412 0.52549 
1 0.729412 0.52549 1 0.729412 0.52549 
1 0.729412 0.52549 1 0.729412 0.52549 
1 0.729412 0.52549 1 0.729412 0.52549 
1 0.729412 0.52549 1 0.729412 0.52549 
1 0.729412 0.52549 1 0.729412 0.52549 
1 0.729412 0.52549 1 0.729412 0.52549 
1 0.729412 0.52549 1 0.729412 0.52549 
1 0.729412 0.52549 1 0.729412 0.52549 
1 0.729412 0.52549 1 0.729412 0.52549 
1 0.729412 0.52549 1 0.729412 0.52549 
1 0.729412 0.52549 1 0.729412 0.52549 
1 0.729412 0.52549 1 0.729412 0.52549 
1 0.729412 0.52549 1 0.729412 0.52549 
1 0.729412 0.52549 1 0.729412 0.52549 
1 0.729412 0.52549 1 0.729412 0.52549 
1 0.729412 0.52549 1 0.729412 0.52549 
1 0.729412 0.52549 1 0.729412 0.52549 
1 0.729412 0.52549 1 0.729412 0.52549 
1 0.729412 0.52549 1 0.729412 0.52549 
1 0.729412 0.52549 1 0.729412 0.52549 
1 0.729412 0.52549 1 0.729412 0.52549 
1 0.729412 0.52549 1 0.729412 0.52549 
1 0.729412 0.52549 1 0.729412 0.52549 
1 0.729412 0.52549 1 0.729412 0.52549 
1 0.729412 0.52549 1 0.729412 0.52549 
1 0.729412 0.52549 1 0.729412 0.52549 
1 0.729412 0.52549 1 0.729412 0.52549 
1 0.729412 0.52549 1 0.729412 0.52549 
1 0.729412 0.52549 1 0.729412 0.52549 
1 0.729412 0.52549 1 0.729412 0.52549 
1 0.729412 0.52549 1 0.729412 0.52549 
1 0.729412 0.52549 1 0.729412 0.52549 
1 0.729412 0.52549 1 0.729412 0.52549 
1 0.729412 0.52549 1 0.729412 0.52549 
1 0.729412 0.52549 1 0.729412 0.52549 
1 0.729412 0.52549 1 0.729412 0.52549 
1 0.729412 0.52549 1 0.729412 0.52549 
1 0.729412 0.52549 1 0.729412 0.52549 
1 0.729412 0.52549 1 0.729412 0.52549 
1 0.729412 0.52549 1 0.729412 0.52549 
1 0.729412 0.52549 1 0.729412 0.52549 
1 0.729412 0.52549 1 0.729412 0.52549 
1 0.729412 0.52549 1 0.729412 0.52549 
1 0.729412 0.52549 1 0.729412 0.52549 
1 0.729412 0.52549 1 0.729412 0.52549 
1 0.729412 0.52549 1 0.729412 0.52549 
1 0.729412 0.52549 1 0.729412 0.52549 
1 0.729412 0.52549 1 0.729412 0.52549 
1 0.729412 0.52549 1 0.729412 0.52549 
1 0.729412 0.52549 1 0.729412 0.52549 
1 0.729412 0.52549 1 0.729412 0.52549 
1 0.729412 0.52549 1 0.729412 0.52549 
1 0.729412 0.52549 1 0.729412 0.52549 
1 0.729412 0.52549 1 0.729412 0.52549 
1 0.729412 0.52549 1 0.729412 0.52549 
1 0.729412 0.52549 1 0.729412 0.52549 
1 0.729412 0.52549 1 0.729412 0.52549 
1 0.729412 0.52549 1 0.729412 0.52549 
1 0.729412 0.52549 1 0.729412 0.52549 
1 0.729412 0.52549 1 0.729412 0.52549 
1 0.729412 0.52549 1 0.729412 0.52549 
1 0.729412 0.52549 1 0.729412 0.52549 
1 0.729412 0.52549 1 0.729412 0.52549 
1 0.729412 0.52549 1 0.729412 0.52549 
1 0.729412 0.52549 1 0.729412 0.52549 
1 0.729412 0.52549 1 0.729412 0.52549 
1 0.729412 0.52549 1 0.729412 0.52549 
1 0.729412 0.52549 1 0.729412 0.52549 
1 0.729412 0.52549 1 0.729412 0.52549 
1 0.729412 0.52549 1 0.729412 0.52549 
1 0.729412 0.52549 1 0.729412 0.52549 
1 0.729412 0.52549 1 0.729412 0.52549 
1 0.729412 0.52549 1 0.729412 0.52549 
1 0.729412 0.52549 1 0.729412 0.52549 
1 0.729412 0.52549 1 0.729412 0.52549 
1 0.729412 0.52549 1 0.729412 0.52549 
1 0.729412 0.52549 1 0.729412 0.52549 
1 0.729412 0.52549 1 0.729412 0.52549 
1 0.729412 0.52549 1 0.729412 0.52549 
1 0.729412 0.52549 1 0.729412 0.52549 
1 0.729412 0.52549 1 0.729412 0.52549 
1 0.729412 0.52549 1 0.729412 0.52549 
1 0.729412 0.52549 1 0.729412 0.52549 
1 0.729412 0.52549 1 0.729412 0.52549 
1 0.729412 0.52549 1 0.729412 0.52549 
1 0.729412 0.52549 1 0.729412 0.52549 
1 0.729412 0.52549 1 0.729412 0.52549 
1 0.729412 0.52549 1 0.729412 0.52549 
1 0.729412 0.52549 1 0.729412 0.52549 
1 0.729412 0.52549 1 0.729412 0.52549 
1 0.729412 0.52549 1 0.729412 0.52549 
1 0.729412 0.52549 1 0.729412 0.52549 
1 0.729412 0.52549 1 0.729412 0.52549 
1 0.729412 0.52549 1 0.729412 0.52549 
1 0.729412 0.52549 1 0.729412 0.52549 
1 0.729412 0.52549 1 0.729412 0.52549 
1 0.729412 0.52549 1 0.729412 0.52549 
1 0.729412 0.52549 1 0.729412 0.52549 
1 0.729412 0.52549 1 0.729412 0.52549 
1 0.729412 0.52549 1 0.729412 0.52549 
1 0.729412 0.52549 1 0.729412 0.52549 
1 0.729412 0.52549 1 0.729412 0.52549 
1 0.729412 0.52549 1 0.729412 0.52549 
1 0.729412 0.52549 1 0.729412 0.52549 
1 0.729412 0.52549 1 0.729412 0.52549 
1 0.729412 0.52549 1 0.729412 0.52549 
1 0.729412 0.52549 1 0.729412 0.52549 
1 0.729412 0.52549 1 0.729412 0.52549 
1 0.729412 0.52549 1 0.729412 0.52549 
1 0.729412 0.52549 1 0.729412 0.52549 
1 0.729412 0.52549 1 0.729412 0.52549 
1 0.729412 0.52549 1 0.729412 0.52549 
1 0.729412 0.52549 1 0.729412 0.52549 
1 0.729412 0.52549 1 0.729412 0.52549 
1 0.729412 0.52549 1 0.729412 0.52549 
1 0.729412 0.52549 1 0.729412 0.52549 
1 0.729412 0.52549 1 0.729412 0.52549 
1 0.729412 0.52549 1 0.729412 0.52549 
1 0.729412 0.52549 1 0.729412 0.52549 
1 0.729412 0.52549 1 0.729412 0.52549 
1 0.729412 0.52549 1 0.729412 0.52549 
1 0.729412 0.52549 1 0.729412 0.52549 
1 0.729412 0.52549 1 0.729412 0.52549 
1 0.729412 0.52549 1 0.729412 0.52549 
1 0.729412 0.52549 1 0.729412 0.52549 
1 0.729412 0.52549 1 0.729412 0.52549 
1 0.729412 0.52549 1 0.729412 0.52549 
1 0.729412 0.52549 1 0.729412 0.52549 
1 0.729412 0.52549 1 0.729412 0.52549 
1 0.729412 0.52549 1 0.729412 0.52549 
1 0.729412 0.52549 1 0.729412 0.52549 
1 0.729412 0.52549 1 0.729412 0.52549 
1 0.729412 0.52549 1 0.729412 0.52549 
1 0.729412 0.52549 1 0.729412 0.52549 
1 0.729412 0.52549 1 0.729412 0.52549 
1 0.729412 0.52549 1 0.729412 0.52549 
1 0.729412 0.52549 1 0.729412 0.52549 
1 0.729412 0.52549 1 0.729412 0.52549 
1 0.729412 0.52549 1 0.729412 0.52549 
1 0.729412 0.52549 1 0.729412 0.52549 
1 0.729412 0.52549 1 0.729412 0.52549 
1 0.729412 0.52549 1 0.729412 0.52549 
1 0.729412 0.52549 1 0.729412 0.52549 
1 0.729412 0.52549 1 0.729412 0.52549 
1 0.729412 0.52549 1 0.729412 0.52549 
1 0.729412 0.52549 1 0.729412 0.52549 
1 0.729412 0.52549 1 0.729412 0.52549 
1 0.729412 0.52549 1 0.729412 0.52549 
1 0.729412 0.52549 1 0.729412 0.52549 
1 0.729412 0.52549 1 0.729412 0.52549 
1 0.729412 0.52549 1 0.729412 0.52549 
1 0.729412 0.52549 1 0.729412 0.52549 
1 0.729412 0.52549 1 0.729412 0.52549 
1 0.729412 0.52549 1 0.729412 0.52549 
1 0.729412 0.52549 1 0.729412 0.52549 
1 0.729412 0.52549 1 0.729412 0.52549 
1 0.729412 0.52549 1 0.729412 0.52549 
1 0.729412 0.52549 1 0.729412 0.52549 
1 0.729412 0.52549 1 0.729412 0.52549 
1 0.729412 0.52549 1 0.729412 0.52549 
1 0.729412 0.52549 1 0.729412 0.52549 
1 0.729412 0.52549 1 0.729412 0.52549 
1 0.729412 0.52549 1 0.729412 0.52549 
1 0.729412 0.52549 1 0.729412 0.52549 
1 0.729412 0.52549 1 0.729412 0.52549 
1 0.729412 0.52549 1 0.729412 0.52549 
1 0.729412 0.52549 1 0.729412 0.52549 
1 0.729412 0.52549 1 0.729412 0.52549 
1 0.729412 0.52549 1 0.729412 0.52549 
1 0.729412 0.52549 1 0.729412 0.52549 
1 0.729412 0.52549 1 0.729412 0.52549 
1 0.729412 0.52549 1 0.729412 0.52549 
1 0.729412 0.52549 1 0.729412 0.52549 
1 0.729412 0.52549 1 0.729412 0.52549 
1 0.729412 0.52549 1 0.729412 0.52549 
1 0.729412 0.52549 1 0.729412 0.52549 
1 0.729412 0.52549 1 0.729412 0.52549 
1 0.729412 0.52549 1 0.729412 0.52549 
1 0.729412 0.52549 1 0.729412 0.52549 
1 0.729412 0.52549 1 0.729412 0.52549 
1 0.729412 0.52549 1 0.729412 0.52549 
1 0.729412 0.52549 1 0.729412 0.52549 
1 0.729412 0.52549 1 0.729412 0.52549 
1 0.729412 0.52549 1 0.729412 0.52549 
1 0.729412 0.52549 1 0.729412 0.52549 
1 0.729412 0.52549 1 0.729412 0.52549 
1 0.729412 0.52549 1 0.729412 0.52549 
1 0.729412 0.52549 1 0.729412 0.52549 
1 0.729412 0.52549 1 0.729412 0.52549 
1 0.729412 0.52549 1 0.729412 0.52549 
1 0.729412 0.52549 1 0.729412 0.52549 
1 0.729412 0.52549 1 0.729412 0.52549 
1 0.729412 0.52549 1 0.729412 0.52549 
1 0.729412 0.52549 1 0.729412 0.52549 
1 0.729412 0.52549 1 0.729412 0.52549 
1 0.729412 0.52549 1 0.729412 0.52549 
1 0.729412 0.52549 1 0.729412 0.52549 
1 0.729412 0.52549 1 0.729412 0.52549 
1 0.729412 0.52549 1 0.729412 0.52549 
1 0.729412 0.52549 1 0.729412 0.52549 
1 0.729412 0.52549 1 0.729412 0.52549 
1 0.729412 0.52549 1 0.729412 0.52549 
1 0.729412 0.52549 1 0.729412 0.52549 
1 0.729412 0.52549 1 0.729412 0.52549 
1 0.729412 0.52549 1 0.729412 0.52549 
1 0.729412 0.52549 1 0.729412 0.52549 
1 0.729412 0.52549 1 0.729412 0.52549 
1 0.729412 0.52549 1 0.729412 0.52549 
1 0.729412 0.52549 1 0.729412 0.52549 
1 0.729412 0.52549 1 0.729412 0.52549 
1 0.729412 0.52549 1 0.729412 0.52549 
1 0.729412 0.52549 1 0.729412 0.52549 
1 0.729412 0.52549 1 0.729412 0.52549 
1 0.729412 0.52549 1 0.729412 0.52549 
1 0.729412 0.52549 1 0.729412 0.52549 
1 0.729412 0.52549 1 0.729412 0.52549 
1 0.729412 0.52549 1 0.729412 0.52549 
1 0.729412 0.52549 1 0.729412 0.52549 
1 0.729412 0.52549 1 0.729412 0.52549 
1 0.729412 0.52549 1 0.729412 0.52549 
1 0.729412 0.52549 1 0.729412 0.52549 
1 0.729412 0.52549 1 0.729412 0.52549 
1 0.729412 0.52549 1 0.729412 0.52549 
1 0.729412 0.52549 1 0.729412 0.52549 
1 0.729412 0.52549 1 0.729412 0.52549 
1 0.729412 0.52549 1 0.729412 0.52549 
1 0.729412 0.52549 1 0.729412 0.52549 
1 0.729412 0.52549 1 0.729412 0.52549 
1 0.729412 0.52549 1 0.729412 0.52549 
1 0.729412 0.52549 1 0.729412 0.52549 
1 0.729412 0.52549 1 0.729412 0.52549 
1 0.729412 0.52549 1 0.729412 0.52549 
1 0.729412 0.52549 1 0.729412 0.52549 
1 0.729412 0.52549 1 0.729412 0.52549 
1 0.729412 0.52549 1 0.729412 0.52549 
1 0.729412 0.52549 1 0.729412 0.52549 
1 0.729412 0.52549 1 0.729412 0.52549 
1 0.729412 0.52549 1 0.729412 0.52549 
1 0.729412 0.52549 1 0.729412 0.52549 
1 0.729412 0.52549 1 0.729412 0.52549 
1 0.729412 0.52549 1 0.729412 0.52549 
1 0.729412 0.52549 1 0.729412 0.52549 
1 0.729412 0.52549 1 0.729412 0.52549 
1 0.729412 0.52549 1 0.729412 0.52549 
1 0.729412 0.52549 1 0.729412 0.52549 
1 0.729412 0.52549 1 0.729412 0.52549 
1 0.729412 0.52549 1 0.729412 0.52549 
1 0.729412 0.52549 1 0.729412 0.52549 
1 0.729412 0.52549 1 0.729412 0.52549 
1 0.729412 0.52549 1 0.729412 0.52549 
1 0.729412 0.52549 1 0.729412 0.52549 
1 0.729412 0.52549 1 0.729412 0.52549 
1 0.729412 0.52549 1 0.729412 0.52549 
1 0.729412 0.52549 1 0.729412 0.52549 
1 0.729412 0.52549 1 0.729412 0.52549 
1 0.729412 0.52549 1 0.729412 0.52549 
1 0.729412 0.52549 1 0.729412 0.52549 
1 0.729412 0.52549 1 0.729412 0.52549 
1 0.729412 0.52549 1 0.729412 0.52549 
1 0.729412 0.52549 1 0.729412 0.52549 
1 0.729412 0.52549 1 0.729412 0.52549 
1 0.729412 0.52549 1 0.729412 0.52549 
1 0.729412 0.52549 1 0.729412 0.52549 
1 0.729412 0.52549 1 0.729412 0.52549 
1 0.729412 0.52549 1 0.729412 0.52549 
1 0.729412 0.52549 1 0.729412 0.52549 
1 0.729412 0.52549 1 0.729412 0.52549 
1 0.729412 0.52549 1 0.729412 0.52549 
1 0.729412 0.52549 1 0.729412 0.52549 
1 0.729412 0.52549 1 0.729412 0.52549 
1 0.729412 0.52549 1 0.729412 0.52549 
1 0.729412 0.52549 1 0.729412 0.52549 
1 0.729412 0.52549 1 0.729412 0.52549 
1 0.729412 0.52549 1 0.729412 0.52549 
1 0.729412 0.52549 1 0.729412 0.52549 
1 0.729412 0.52549 1 0.729412 0.52549 
1 0.729412 0.52549 1 0.729412 0.52549 
1 0.729412 0.52549 1 0.729412 0.52549 
1 0.729412 0.52549 1 0.729412 0.52549 
1 0.729412 0.52549 1 0.729412 0.52549 
1 0.729412 0.52549 1 0.729412 0.52549 
1 0.729412 0.52549 1 0.729412 0.52549 
1 0.729412 0.52549 1 0.729412 0.52549 
1 0.729412 0.52549 1 0.729412 0.52549 
1 0.729412 0.52549 1 0.729412 0.52549 
1 0.729412 0.52549 1 0.729412 0.52549 
1 0.729412 0.52549 1 0.729412 0.52549 
1 0.729412 0.52549 1 0.729412 0.52549 
1 0.729412 0.52549 1 0.729412 0.52549 
1 0.729412 0.52549 1 0.729412 0.52549 
1 0.729412 0.52549 1 0.729412 0.52549 
1 0.729412 0.52549 1 0.729412 0.52549 
1 0.729412 0.52549 1 0.729412 0.52549 
1 0.729412 0.52549 1 0.729412 0.52549 
1 0.729412 0.52549 1 0.729412 0.52549 
1 0.729412 0.52549 1 0.729412 0.52549 
1 0.729412 0.52549 1 0.729412 0.52549 
1 0.729412 0.52549 1 0.729412 0.52549 
1 0.729412 0.52549 1 0.729412 0.52549 
1 0.729412 0.52549 1 0.729412 0.52549 
1 0.729412 0.52549 1 0.729412 0.52549 
1 0.729412 0.52549 1 0.729412 0.52549 
1 0.729412 0.52549 1 0.729412 0.52549 
1 0.729412 0.52549 1 0.729412 0.52549 
1 0.729412 0.52549 1 0.729412 0.52549 
1 0.729412 0.52549 1 0.729412 0.52549 
1 0.729412 0.52549 1 0.729412 0.52549 
1 0.729412 0.52549 1 0.729412 0.52549 
1 0.729412 0.52549 1 0.729412 0.52549 
1 0.729412 0.52549 1 0.729412 0.52549 
1 0.729412 0.52549 1 0.729412 0.52549 
1 0.729412 0.52549 1 0.729412 0.52549 
1 0.729412 0.52549 1 0.729412 0.52549 
1 0.729412 0.52549 1 0.729412 0.52549 
1 0.729412 0.52549 1 0.729412 0.52549 
1 0.729412 0.52549 1 0.729412 0.52549 
1 0.729412 0.52549 1 0.729412 0.52549 
1 0.729412 0.52549 1 0.729412 0.52549 
1 0.729412 0.52549 1 0.729412 0.52549 
1 0.729412 0.52549 1 0.729412 0.52549 
1 0.729412 0.52549 1 0.729412 0.52549 
1 0.729412 0.52549 1 0.729412 0.52549 
1 0.729412 0.52549 1 0.729412 0.52549 
1 0.729412 0.52549 1 0.729412 0.52549 
1 0.729412 0.52549 1 0.729412 0.52549 
1 0.729412 0.52549 1 0.729412 0.52549 
1 0.729412 0.52549 1 0.729412 0.52549 
1 0.729412 0.52549 1 0.729412 0.52549 
1 0.729412 0.52549 1 0.729412 0.52549 
1 0.729412 0.52549 1 0.729412 0.52549 
1 0.729412 0.52549 1 0.729412 0.52549 
1 0.729412 0.52549 1 0.729412 0.52549 
1 0.729412 0.52549 1 0.729412 0.52549 
1 0.729412 0.52549 1 0.729412 0.52549 
1 0.729412 0.52549 1 0.729412 0.52549 
1 0.729412 0.52549 1 0.729412 0.52549 
1 0.729412 0.52549 1 0.729412 0.52549 
1 0.729412 0.52549 1 0.729412 0.52549 
1 0.729412 0.52549 1 0.729412 0.52549 
1 0.729412 0.52549 1 0.729412 0.52549 
1 0.729412 0.52549 1 0.729412 0.52549 
1 0.729412 0.52549 1 0.729412 0.52549 
1 0.729412 0.52549 1 0.729412 0.52549 
1 0.729412 0.52549 1 0.729412 0.52549 
1 0.729412 0.52549 1 0.729412 0.52549 
1 0.729412 0.52549 1 0.729412 0.52549 
1 0.729412 0.52549 1 0.729412 0.52549 
1 0.729412 0.52549 1 0.729412 0.52549 
1 0.729412 0.52549 1 0.729412 0.52549 
1 0.729412 0.52549 1 0.729412 0.52549 
1 0.729412 0.52549 1 0.729412 0.52549 
1 0.729412 0.52549 1 0.729412 0.52549 
1 0.729412 0.52549 1 0.729412 0.52549 
1 0.729412 0.52549 1 0.729412 0.52549 
1 0.729412 0.52549 1 0.729412 0.52549 
1 0.729412 0.52549 1 0.729412 0.52549 
1 0.729412 0.52549 1 0.729412 0.52549 
1 0.729412 0.52549 1 0.729412 0.52549 
1 0.729412 0.52549 1 0.729412 0.52549 
1 0.729412 0.52549 1 0.729412 0.52549 
1 0.729412 0.52549 1 0.729412 0.52549 
1 0.729412 0.52549 1 0.729412 0.52549 
1 0.729412 0.52549 1 0.729412 0.52549 
1 0.729412 0.52549 1 0.729412 0.52549 
1 0.729412 0.52549 1 0.729412 0.52549 
1 0.729412 0.52549 1 0.729412 0.52549 
1 0.729412 0.52549 1 0.729412 0.52549 
1 0.729412 0.52549 1 0.729412 0.52549 
1 0.729412 0.52549 1 0.729412 0.52549 
1 0.729412 0.52549 1 0.729412 0.52549 
1 0.729412 0.52549 1 0.729412 0.52549 
1 0.729412 0.52549 1 0.729412 0.52549 
1 0.729412 0.52549 1 0.729412 0.52549 
1 0.729412 0.52549 1 0.729412 0.52549 
1 0.729412 0.52549 1 0.729412 0.52549 
1 0.729412 0.52549 1 0.729412 0.52549 
1 0.729412 0.52549 1 0.729412 0.52549 
1 0.729412 0.52549 1 0.729412 0.52549 
1 0.729412 0.52549 1 0.729412 0.52549 
1 0.729412 0.52549 1 0.729412 0.52549 
1 0.729412 0.52549 1 0.729412 0.52549 
1 0.729412 0.52549 1 0.729412 0.52549 
1 0.729412 0.52549 1 0.729412 0.52549 
1 0.729412 0.52549 1 0.729412 0.52549 
1 0.729412 0.52549 1 0.729412 0.52549 
1 0.729412 0.52549 1 0.729412 0.52549 
1 0.729412 0.52549 1 0.729412 0.52549 
1 0.729412 0.52549 1 0.729412 0.52549 
1 0.729412 0.52549 1 0.729412 0.52549 
1 0.729412 0.52549 1 0.729412 0.52549 
1 0.729412 0.52549 1 0.729412 0.52549 
1 0.729412 0.52549 1 0.729412 0.52549 
1 0.729412 0.52549 1 0.729412 0.52549 
1 0.729412 0.52549 1 0.729412 0.52549 
1 0.729412 0.52549 1 0.729412 0.52549 
1 0.729412 0.52549 1 0.729412 0.52549 

NORMALS Normals float
0.00305391 -0.208705 -0.977974 0.163567 -0.194286 -0.967212 -0.228071 -0.0522323 -0.972243 
0.182339 -0.0705061 -0.980705 -0.183348 0.0729687 -0.980336 0.326346 0.111757 -0.938621 
0.0211067 -0.27122 -0.962286 -0.0339942 -0.244529 -0.969046 -0.306679 -0.174001 -0.935773 
0.308699 -0.10635 -0.945195 0.392216 -0.115038 -0.912652 0.362495 0.0406654 -0.931098 
-0.148633 0.216451 -0.964913 0.0491267 0.200901 -0.978379 -0.107777 -0.709463 -0.696453 
0.308525 -0.453957 -0.835904 -0.0707379 -0.384958 -0.920219 -0.396244 -0.303934 -0.86638 
-0.269631 -0.32851 -0.905196 0.34986 -0.325236 -0.878533 -0.429341 -0.229779 -0.873423 
0.527159 -0.0438632 -0.848634 -0.593977 0.0724347 -0.801215 -0.343695 0.096152 -0.934146 
-0.33834 0.230547 -0.912345 -0.120557 0.322021 -0.939025 0.517328 0.0532273 -0.85413 
0.145982 0.229663 -0.96226 0.0200251 0.235462 -0.971677 -0.276323 -0.79648 -0.537834 
0.588636 -0.339498 -0.733654 -0.490253 -0.634117 -0.597952 -0.602641 -0.370302 -0.706895 
0.62465 -0.197395 -0.755544 0.42493 0.107197 -0.898857 0.395768 0.000729057 -0.91835 
0.290945 -0.78115 -0.552409 0.741705 -0.368276 -0.560576 0.74063 -0.581897 -0.335949 
0.772576 -0.144817 -0.618187 0.607211 0.0407791 -0.793493 -0.446068 0.33764 -0.828869 
0.418852 0.158221 -0.894164 0.500454 0.205592 -0.840998 -0.226119 -0.962748 -0.14828 
0.087559 -0.992898 -0.0805434 0.530376 -0.812034 -0.243518 0.575296 -0.812396 -0.0951186 
0.725498 -0.626852 -0.284092 0.777821 -0.565991 -0.273219 0.788117 -0.331565 -0.518591 
0.863446 -0.28317 -0.417463 0.623891 0.0161124 -0.781346 -0.134947 0.446495 -0.884552 
-0.0445898 -0.978734 0.200229 -0.425691 -0.901363 0.0795755 -0.253661 -0.901986 0.349397 
0.391618 -0.909711 0.138066 0.675038 -0.733081 -0.0831627 0.846635 -0.532017 0.012956 
0.81221 -0.573359 -0.107583 0.909273 -0.331773 -0.251296 -0.69851 -0.238048 -0.674846 
0.834936 -0.140679 -0.532064 0.72889 -0.0363286 -0.683666 -0.676686 0.130336 -0.724644 
0.699607 0.0140895 -0.714389 0.142838 -0.967673 0.207862 0.146748 -0.903269 0.4032 
0.595663 -0.742321 0.306831 -0.215778 -0.967876 -0.129054 0.874023 -0.483441 -0.0486748 
0.894318 -0.333286 -0.298523 0.211073 0.323987 -0.922215 -0.0134693 -0.886146 0.463211 
0.834199 -0.531502 0.14703 -0.689868 -0.509278 -0.514507 0.842402 -0.536682 0.0482885 