# vtk DataFile Version 4.2
vtk output
ASCII
DATASET POLYDATA
POINTS 577 float
448.44 214.502 204.006 452.055 214.683 204.222 446.585 215.709 204.295 
451.409 216.406 204.233 447.253 217.26 204.59 448.099 210.277 205.38 
451.874 210.473 205.457 444.583 212.003 205.305 447.031 218.16 205.277 
453.481 218.22 205.157 455.231 218.056 205.376 446.085 218.897 206.15 
454.324 218.617 205.519 445.842 209.228 206.408 453.265 209.374 206.514 
442.671 213.012 206.022 458.51 214.04 205.944 443.218 216.945 205.95 
443.399 218.176 206.692 456.597 218.601 205.972 455.852 219.212 206.239 
447.848 219.882 207.219 449.57 219.845 206.916 454.61 219.534 206.481 
443.59 208.763 207.442 447.488 208.475 206.865 460.497 211.526 207.419 
461.654 216.623 206.783 441.397 217.804 208.046 458.226 219.475 206.958 
455.733 219.977 207.221 457.353 219.894 207.139 456.745 220.113 207.295 
444.913 207.621 208.405 451.439 207.524 208.195 458.376 209.449 208.208 
440.517 210.512 208.421 464.702 213.015 208.181 465.404 213.859 208.077 
439.864 215.005 208.418 466.395 215.222 208.042 467.221 216.126 208.166 
440.094 216.565 208.628 441.727 218.283 208.16 441.815 218.618 208.558 
443.899 219.822 209.145 439.244 210.982 209.612 469.882 213.798 209.566 
471.308 214.624 209.567 470.06 215.272 209.027 469.786 216.104 208.819 
472.953 216.534 209.703 439.53 217.168 210.046 469.567 218.494 209.067 
468.514 219.257 209.316 472.308 218.977 209.81 467.31 219.937 209.824 
454.971 207.398 209.918 439.784 209.429 210.025 464.706 210.391 210.692 
467.328 211.59 210.368 469.853 212.361 210.825 438.522 212.402 210.171 
438.098 213.609 210.874 475.22 216.235 211.104 473.49 217.993 209.884 
475.073 217.632 210.669 473.622 219.009 210.134 466.85 220.386 210.503 
469.042 220.19 210.279 473.206 219.507 210.291 449.275 206.203 211.505 
439.659 208.748 211.269 468.455 211.418 211.47 473.832 214.263 211.281 
474.819 215.216 211.339 476.731 220.028 211.822 472.356 220.728 211.477 
440.42 207.861 211.955 475.987 215.412 212.549 477.538 217.606 212.462 
478.735 219.07 213.126 478.128 219.801 212.652 472.172 221.082 212.247 
477.423 221.073 212.756 478.553 220.88 213.269 476.249 221.482 212.806 
477.073 221.464 213 437.565 210.657 213.255 468.3 211.011 212.724 
474.661 213.954 213.239 437.225 214.22 213.917 477.089 216.105 213.149 
438.44 216.918 213.201 478.525 218.084 213.238 441.866 219.851 213.821 
479.688 220.384 214.234 476.098 221.773 213.259 476.103 221.981 213.784 
479.688 221.111 214.331 479.086 221.785 214.168 451.088 206.274 213.99 
437.686 210.242 213.514 477.788 216.371 214.218 437.929 216.404 214.77 
478.414 217.358 213.762 438.789 217.652 214.655 458.981 220.896 213.979 
472.7 221.539 213.923 480.025 221.708 214.973 479.358 222.434 215.112 
479.22 222.653 215.551 479.681 222.219 215.069 438.354 208.858 215.266 
477.949 216.287 215.191 479.532 218.568 215.052 480.164 219.873 215.261 
480.191 220.194 215.036 480.407 221.66 215.93 479.934 222.275 215.488 
479.594 222.697 216.07 479.952 222.443 215.976 442.96 206.508 215.861 
437.11 211.431 215.652 437.285 215.092 215.906 480.418 220.321 216.071 
480.512 221.39 216.365 480.204 222.28 216.49 439.093 208.254 216.973 
440.686 207.368 217.341 438.531 208.705 217.248 438.201 209.05 217.188 
470.726 211.737 217.272 473.425 221.806 216.614 480.368 222.041 217.054 
478.507 222.982 216.956 479.811 222.745 217.255 444.136 206.421 217.347 
447.072 206.44 218.195 438.385 208.936 217.651 459.315 208.218 217.905 
437.361 210.811 217.246 437.147 213.936 218.222 440.386 219.031 218.196 
441.653 219.639 218.51 480.278 219.923 217.355 443.178 220.154 218.11 
480.473 221.196 217.562 478.787 222.99 218.028 479.213 222.95 217.984 
446.328 206.763 218.988 451.726 206.777 218.45 458.397 208.245 218.919 
463.958 209.577 218.425 437.249 211.78 218.353 476.939 215.407 218.462 
440.391 218.931 219.055 444.808 220.378 218.682 447.378 220.748 218.439 
446.862 220.651 218.926 478.474 222.917 218.34 479.932 222.619 218.23 
479.749 222.701 218.443 479.904 222.515 218.607 479.426 222.803 218.474 
442.072 207.472 219.353 442.94 207.309 219.301 439.902 208.567 219.904 
456.62 207.924 219.204 457.398 208.363 219.838 438.853 209.52 219.829 
460.856 208.902 219.202 462.384 209.43 219.584 477.476 216.272 219.581 
439.928 218.366 220.139 479.63 219.561 219.461 450.299 220.28 219.587 
456.091 220.074 219.362 460.003 219.963 219.323 470.775 220.657 219.315 
479.956 222.28 218.775 477.994 222.532 219.239 478.493 222.586 219.27 
479.831 222.396 218.883 443.636 207.583 219.958 446.578 207.494 220.248 
448.141 207.54 220.378 451.535 207.207 219.808 458.186 208.925 220.476 
468.055 211.469 220.285 470.937 212.503 220.29 437.808 215.12 220.32 
478.922 218.373 220.119 442.035 219.35 220.513 449.144 219.978 220.459 
452.946 219.894 220.159 470.193 220.37 219.627 479.91 220.917 219.244 
477.091 221.868 220.085 479.284 221.986 219.628 478.87 222.077 219.757 
452.686 207.743 220.523 444.044 208.517 221.048 448.133 208.679 221.458 
455.21 208.494 220.807 440.075 209.73 221.029 447.797 209.131 221.717 
459.179 209.489 220.895 461.627 209.635 220.384 438.638 210.554 220.59 
453.31 209.522 221.96 463.038 210.217 220.66 437.917 211.843 220.458 
453.287 210.447 222.267 456.992 211.488 222.357 466.073 211.125 220.661 
470.122 212.542 220.984 457.977 212.114 222.399 472.164 213.41 220.954 
438.109 214.681 221.134 463.419 214.415 222.364 463.331 215.433 222.311 
476.83 216.219 220.391 477.847 217.657 220.732 439.338 217.256 221.269 
469.823 218.088 221.693 462.554 218.664 221.011 469.672 218.737 221.261 
473.161 218.775 221.745 478.599 218.708 220.603 478.55 219.246 220.757 
440.462 218.413 220.986 441.566 218.897 221.103 470.539 219.434 220.849 
477.624 220.8 220.963 478.386 220.993 220.637 478.019 221.065 220.747 
451.275 208.398 221.419 448.485 209.776 222.054 458.212 209.909 221.433 
461.741 210.111 220.924 462.802 210.674 221.163 443.135 211.352 222.508 
458.942 211.437 222.09 438.327 212.655 221.197 440.878 212.397 222.569 
442.076 212.194 222.731 438.492 213.55 221.567 468.349 213.118 221.794 
469.676 212.998 221.64 444.523 213.433 223.11 469.36 214.141 222.119 
469.94 213.81 222.069 472.016 214.208 221.846 471.324 215.096 222.191 
473.414 215.041 221.827 468.937 215.912 222.199 473.201 215.512 222.087 
475.156 216.546 221.665 453.396 216.546 222.653 456.473 216.574 222.312 
462.586 216.658 222.026 448.979 217.831 222.502 449.385 217.436 222.652 
452.793 217.842 222.264 453.721 217.631 222.264 455.295 217.516 222.131 
475.834 217.934 221.686 476.667 217.905 221.41 440.876 217.905 221.795 
442.204 218.489 221.766 443.89 218.544 221.982 444.19 217.967 222.402 
451.548 218.567 221.921 452.499 218.487 221.892 454.376 218.268 221.849 
475.766 218.744 221.685 478.059 218.66 220.954 444.44 219.063 221.522 
448.414 219.115 221.612 453.075 218.992 221.393 455.157 218.744 221.399 
476.531 220.186 221.307 440.655 214.596 222.814 439.739 215.393 222.39 
446.936 214.866 223.16 473.422 215.349 222.011 449.659 215.781 223.003 
439.807 216.881 221.918 443.698 216.594 222.929 452.394 216.693 222.719 
441.771 217.359 222.405 440.97 214.6 232.356 439.353 215.592 233.289 
441.106 215.138 232.355 441.124 215.691 232.48 441.726 215.827 232.359 
443.616 216.625 232.435 455.984 208.485 234.559 445.058 209.977 233.116 
458.595 209.607 234.045 459.762 209.484 234.375 440.09 210.499 233.617 
460.127 210.466 233.603 460.508 210.847 233.467 461.539 210.031 234.126 
461.646 210.53 233.797 462.783 210.9 233.786 464.769 210.692 234.619 
438.849 211.36 233.885 440.942 211.773 232.897 462.843 211.456 233.468 
463.256 211.877 233.349 465.744 211.75 233.894 464.676 212.358 233.34 
467.547 211.997 234.108 467.721 212.588 233.771 470.004 212.681 234.356 
438.227 212.223 234.143 468.509 213.449 233.493 442.231 214.212 232.289 
472.478 214.711 233.689 473.909 214.535 234.281 438.714 214.463 233.617 
452.918 214.872 232.523 459.984 214.78 232.919 475.002 215.057 234.415 
475.457 215.363 234.394 469.905 215.682 233.124 471.967 216.168 233.215 
475.007 216.299 233.751 451.634 216.59 232.702 453.617 216.549 232.768 
472.17 216.912 233.183 473.895 217.001 233.342 474.859 217.043 233.521 
477.09 216.99 234.325 439.751 217.261 233.995 443.101 217.794 233.014 
477.653 217.611 234.47 440.886 218.388 234.333 444.758 218.395 233.253 
448.489 218.11 233.168 451.3 218.109 233.261 455.269 217.971 233.379 
459.804 217.619 233.5 475.613 218.59 233.57 442.859 219.305 234.532 
447.418 218.885 233.656 450.484 218.838 233.709 477.027 219.09 233.974 
454.154 207.94 234.976 447.373 208.11 234.401 456.908 208.511 234.93 
462.402 209.597 235.144 456.691 210.219 233.597 438.231 210.57 234.881 
455.209 210.954 233.184 466.342 211.008 234.914 468.264 211.756 234.663 
462.422 212.534 233.175 463.426 212.543 233.212 469.849 212.341 234.736 
463.033 214.198 233.115 437.636 214.065 235.016 475.725 215.392 234.556 
462.675 216.003 233.306 471.043 217.194 233.29 477.431 217.192 234.463 
438.858 216.762 234.804 463.486 217.694 233.866 460.849 218.472 234.102 
462.404 218.598 234.294 471.577 218.654 233.821 478.929 218.971 235.035 
441.845 219.106 234.824 451.88 219.224 234.167 464.204 218.881 234.65 
443.925 219.851 235.186 478.308 220.625 234.759 478.003 221.915 235.231 
478.704 221.784 235.345 446.454 207.129 235.696 438.854 209.561 235.19 
461.755 209.356 235.29 465.488 210.353 235.78 478.626 218.089 235.146 
479.203 219.144 235.276 461.17 219.384 235.062 447.008 220.325 235.398 
480.109 220.623 236.276 479.872 221.153 236.012 479.05 222.142 235.732 
479.883 221.491 236.195 478.821 222.468 235.944 478.73 222.714 236.365 
479.189 222.463 236.038 479.4 222.309 236.073 479.404 222.519 236.297 
479.209 218.553 235.675 479.408 218.579 236.195 449.318 220.644 236.696 
452.279 220.39 236.418 461.628 220.132 236.485 480.34 221.085 236.963 
478.745 222.87 236.808 480.031 222.117 236.982 479.468 222.639 236.716 
444.883 206.525 236.925 440.168 207.735 236.996 438.44 208.816 237.362 
[...]
POINT_DATA 577
COLOR_SCALARS scalars 3
1 0.701961 0.85098 1 0.701961 0.85098 1 0.701961 0.85098 
1 0.701961 0.85098 1 0.701961 0.85098 
1 0.701961 0.85098 1 0.701961 0.85098 
1 0.701961 0.85098 1 0.701961 0.85098 
1 0.701961 0.85098 1 0.701961 0.85098 
1 0.701961 0.85098 1 0.701961 0.85098 
1 0.701961 0.85098 1 0.701961 0.85098 
1 0.701961 0.85098 1 0.701961 0.85098 
1 0.701961 0.85098 1 0.701961 0.85098 
1 0.701961 0.85098 1 0.701961 0.85098 
1 0.701961 0.85098 1 0.701961 0.85098 
1 0.701961 0.85098 1 0.701961 0.85098 
1 0.701961 0.85098 1 0.701961 0.85098 
1 0.701961 0.85098 1 0.701961 0.85098 
1 0.701961 0.85098 1 0.701961 0.85098 
1 0.701961 0.85098 1 0.701961 0.85098 
1 0.701961 0.85098 1 0.701961 0.85098 
1 0.701961 0.85098 1 0.701961 0.85098 
1 0.701961 0.85098 1 0.701961 0.85098 
1 0.701961 0.85098 1 0.701961 0.85098 
1 0.701961 0.85098 1 0.701961 0.85098 
1 0.701961 0.85098 1 0.701961 0.85098 
1 0.701961 0.85098 1 0.701961 0.85098 
1 0.701961 0.85098 1 0.701961 0.85098 
1 0.701961 0.85098 1 0.701961 0.85098 
1 0.701961 0.85098 1 0.701961 0.85098 
1 0.701961 0.85098 1 0.701961 0.85098 
1 0.701961 0.85098 1 0.701961 0.85098 
1 0.701961 0.85098 1 0.701961 0.85098 
1 0.701961 0.85098 1 0.701961 0.85098 
1 0.701961 0.85098 1 0.701961 0.85098 
1 0.701961 0.85098 1 0.701961 0.85098 
1 0.701961 0.85098 1 0.701961 0.85098 
1 0.701961 0.85098 1 0.701961 0.85098 
1 0.701961 0.85098 1 0.701961 0.85098 
1 0.701961 0.85098 1 0.701961 0.85098 
1 0.701961 0.85098 1 0.701961 0.85098 
1 0.701961 0.85098 1 0.701961 0.85098 
1 0.701961 0.85098 1 0.701961 0.85098 
1 0.701961 0.85098 1 0.701961 0.85098 
1 0.701961 0.85098 1 0.701961 0.85098 
1 0.701961 0.85098 1 0.701961 0.85098 
1 0.701961 0.85098 1 0.701961 0.85098 
1 0.701961 0.85098 1 0.701961 0.85098 
1 0.701961 0.85098 1 0.701961 0.85098 
1 0.701961 0.85098 1 0.701961 0.85098 
1 0.701961 0.85098 1 0.701961 0.85098 
1 0.701961 0.85098 1 0.701961 0.85098 
1 0.701961 0.85098 1 0.701961 0.85098 
1 0.701961 0.85098 1 0.701961 0.85098 
1 0.701961 0.85098 1 0.701961 0.85098 
1 0.701961 0.85098 1 0.701961 0.85098 
1 0.701961 0.85098 1 0.701961 0.85098 
1 0.701961 0.85098 1 0.701961 0.85098 
1 0.701961 0.85098 1 0.701961 0.85098 
1 0.701961 0.85098 1 0.701961 0.85098 
1 0.701961 0.85098 1 0.701961 0.85098 
1 0.701961 0.85098 1 0.701961 0.85098 
1 0.701961 0.85098 1 0.701961 0.85098 
1 0.701961 0.85098 1 0.701961 0.85098 
1 0.701961 0.85098 1 0.701961 0.85098 
1 0.701961 0.85098 1 0.701961 0.85098 
1 0.701961 0.85098 1 0.701961 0.85098 
1 0.701961 0.85098 1 0.701961 0.85098 
1 0.701961 0.85098 1 0.701961 0.85098 
1 0.701961 0.85098 1 0.701961 0.85098 
1 0.701961 0.85098 1 0.701961 0.85098 
1 0.701961 0.85098 1 0.701961 0.85098 
1 0.701961 0.85098 1 0.701961 0.85098 
1 0.701961 0.85098 1 0.701961 0.85098 
1 0.701961 0.85098 1 0.701961 0.85098 
1 0.701961 0.85098 1 0.701961 0.85098 
1 0.701961 0.85098 1 0.701961 0.85098 
1 0.701961 0.85098 1 0.701961 0.85098 
1 0.701961 0.85098 1 0.701961 0.85098 
1 0.701961 0.85098 1 0.701961 0.85098 
1 0.701961 0.85098 1 0.701961 0.85098 
1 0.701961 0.85098 1 0.701961 0.85098 
1 0.701961 0.85098 1 0.701961 0.85098 
1 0.701961 0.85098 1 0.701961 0.85098 
1 0.701961 0.85098 1 0.701961 0.85098 
1 0.701961 0.85098 1 0.701961 0.85098 
1 0.701961 0.85098 1 0.701961 0.85098 
1 0.701961 0.85098 1 0.701961 0.85098 
1 0.701961 0.85098 1 0.701961 0.85098 
1 0.701961 0.85098 1 0.701961 0.85098 
1 0.701961 0.85098 1 0.701961 0.85098 
1 0.701961 0.85098 1 0.701961 0.85098 
1 0.701961 0.85098 1 0.701961 0.85098 
1 0.701961 0.85098 1 0.701961 0.85098 
1 0.701961 0.85098 1 0.701961 0.85098 
1 0.701961 0.85098 1 0.701961 0.85098 
1 0.701961 0.85098 1 0.701961 0.85098 
1 0.701961 0.85098 1 0.701961 0.85098 
1 0.701961 0.85098 1 0.701961 0.85098 
1 0.701961 0.85098 1 0.701961 0.85098 
1 0.701961 0.85098 1 0.701961 0.85098 
1 0.701961 0.85098 1 0.701961 0.85098 
1 0.701961 0.85098 1 0.701961 0.85098 
1 0.701961 0.85098 1 0.701961 0.85098 
1 0.701961 0.85098 1 0.701961 0.85098 
1 0.701961 0.85098 1 0.701961 0.85098 
1 0.701961 0.85098 1 0.701961 0.85098 
1 0.701961 0.85098 1 0.701961 0.85098 
1 0.701961 0.85098 1 0.701961 0.85098 
1 0.701961 0.85098 1 0.701961 0.85098 
1 0.701961 0.85098 1 0.701961 0.85098 
1 0.701961 0.85098 1 0.701961 0.85098 
1 0.701961 0.85098 1 0.701961 0.85098 
1 0.701961 0.85098 1 0.701961 0.85098 
1 0.701961 0.85098 1 0.701961 0.85098 
1 0.701961 0.85098 1 0.701961 0.85098 
1 0.701961 0.85098 1 0.701961 0.85098 
1 0.701961 0.85098 1 0.701961 0.85098 
1 0.701961 0.85098 1 0.701961 0.85098 
1 0.701961 0.85098 1 0.701961 0.85098 
1 0.701961 0.85098 1 0.701961 0.85098 
1 0.701961 0.85098 1 0.701961 0.85098 
1 0.701961 0.85098 1 0.701961 0.85098 
1 0.701961 0.85098 1 0.701961 0.85098 
1 0.701961 0.85098 1 0.701961 0.85098 
1 0.701961 0.85098 1 0.701961 0.85098 
1 0.701961 0.85098 1 0.701961 0.85098 
1 0.701961 0.85098 1 0.701961 0.85098 
1 0.701961 0.85098 1 0.701961 0.85098 
1 0.701961 0.85098 1 0.701961 0.85098 
1 0.701961 0.85098 1 0.701961 0.85098 
1 0.701961 0.85098 1 0.701961 0.85098 
1 0.701961 0.85098 1 0.701961 0.85098 
1 0.701961 0.85098 1 0.701961 0.85098 
1 0.701961 0.85098 1 0.701961 0.85098 
1 0.701961 0.85098 1 0.701961 0.85098 
1 0.701961 0.85098 1 0.701961 0.85098 
1 0.701961 0.85098 1 0.701961 0.85098 
1 0.701961 0.85098 1 0.701961 0.85098 
1 0.701961 0.85098 1 0.701961 0.85098 
1 0.701961 0.85098 1 0.701961 0.85098 
1 0.701961 0.85098 1 0.701961 0.85098 
1 0.701961 0.85098 1 0.701961 0.85098 
1 0.701961 0.85098 1 0.701961 0.85098 
1 0.701961 0.85098 1 0.701961 0.85098 
1 0.701961 0.85098 1 0.701961 0.85098 
1 0.701961 0.85098 1 0.701961 0.85098 
1 0.701961 0.85098 1 0.701961 0.85098 
1 0.701961 0.85098 1 0.701961 0.85098 
1 0.701961 0.85098 1 0.701961 0.85098 
1 0.701961 0.85098 1 0.701961 0.85098 
1 0.701961 0.85098 1 0.701961 0.85098 
1 0.701961 0.85098 1 0.701961 0.85098 
1 0.701961 0.85098 1 0.701961 0.85098 
1 0.701961 0.85098 1 0.701961 0.85098 
1 0.701961 0.85098 1 0.701961 0.85098 
1 0.701961 0.85098 1 0.701961 0.85098 
1 0.701961 0.85098 1 0.701961 0.85098 
1 0.701961 0.85098 1 0.701961 0.85098 
1 0.701961 0.85098 1 0.701961 0.85098 
1 0.701961 0.85098 1 0.701961 0.85098 
1 0.701961 0.85098 1 0.701961 0.85098 
1 0.701961 0.85098 1 0.701961 0.85098 
1 0.701961 0.85098 1 0.701961 0.85098 
1 0.701961 0.85098 1 0.701961 0.85098 
1 0.701961 0.85098 1 0.701961 0.85098 
1 0.701961 0.85098 1 0.701961 0.85098 
1 0.701961 0.85098 1 0.701961 0.85098 
1 0.701961 0.85098 1 0.701961 0.85098 
1 0.701961 0.85098 1 0.701961 0.85098 
1 0.701961 0.85098 1 0.701961 0.85098 
1 0.701961 0.85098 1 0.701961 0.85098 
1 0.701961 0.85098 1 0.701961 0.85098 
1 0.701961 0.85098 1 0.701961 0.85098 
1 0.701961 0.85098 1 0.701961 0.85098 
1 0.701961 0.85098 1 0.701961 0.85098 
1 0.701961 0.85098 1 0.701961 0.85098 
1 0.701961 0.85098 1 0.701961 0.85098 
1 0.701961 0.85098 1 0.701961 0.85098 
1 0.701961 0.85098 1 0.701961 0.85098 
1 0.701961 0.85098 1 0.701961 0.85098 
1 0.701961 0.85098 1 0.701961 0.85098 
1 0.701961 0.85098 1 0.701961 0.85098 
1 0.701961 0.85098 1 0.701961 0.85098 
1 0.701961 0.85098 1 0.701961 0.85098 
1 0.701961 0.85098 1 0.701961 0.85098 
1 0.701961 0.85098 1 0.701961 0.85098 
1 0.701961 0.85098 1 0.701961 0.85098 
1 0.701961 0.85098 1 0.701961 0.85098 
1 0.701961 0.85098 1 0.701961 0.85098 
1 0.701961 0.85098 1 0.701961 0.85098 
1 0.701961 0.85098 1 0.701961 0.85098 
1 0.701961 0.85098 1 0.701961 0.85098 
1 0.701961 0.85098 1 0.701961 0.85098 
1 0.701961 0.85098 1 0.701961 0.85098 
1 0.701961 0.85098 1 0.701961 0.85098 
1 0.701961 0.85098 1 0.701961 0.85098 
1 0.701961 0.85098 1 0.701961 0.85098 
1 0.701961 0.85098 1 0.701961 0.85098 
1 0.701961 0.85098 1 0.701961 0.85098 
1 0.701961 0.85098 1 0.701961 0.85098 
1 0.701961 0.85098 1 0.701961 0.85098 
1 0.701961 0.85098 1 0.701961 0.85098 
1 0.701961 0.85098 1 0.701961 0.85098 
1 0.701961 0.85098 1 0.701961 0.85098 
1 0.701961 0.85098 1 0.701961 0.85098 
1 0.701961 0.85098 1 0.701961 0.85098 
1 0.701961 0.85098 1 0.701961 0.85098 
1 0.701961 0.85098 1 0.701961 0.85098 
1 0.701961 0.85098 1 0.701961 0.85098 
1 0.701961 0.85098 1 0.701961 0.85098 
1 0.701961 0.85098 1 0.701961 0.85098 
1 0.701961 0.85098 1 0.701961 0.85098 
1 0.701961 0.85098 1 0.701961 0.85098 
1 0.701961 0.85098 1 0.701961 0.85098 
1 0.701961 0.85098 1 0.701961 0.85098 
1 0.701961 0.85098 1 0.701961 0.85098 
1 0.701961 0.85098 1 0.701961 0.85098 
1 0.701961 0.85098 1 0.701961 0.85098 
1 0.701961 0.85098 1 0.701961 0.85098 
1 0.701961 0.85098 1 0.701961 0.85098 
1 0.701961 0.85098 1 0.701961 0.85098 
1 0.701961 0.85098 1 0.701961 0.85098 
1 0.701961 0.85098 1 0.701961 0.85098 
1 0.701961 0.85098 1 0.701961 0.85098 
1 0.701961 0.85098 1 0.701961 0.85098 
1 0.701961 0.85098 1 0.701961 0.85098 
1 0.701961 0.85098 1 0.701961 0.85098 
1 0.701961 0.85098 1 0.701961 0.85098 
1 0.701961 0.85098 1 0.701961 0.85098 
1 0.701961 0.85098 1 0.701961 0.85098 
1 0.701961 0.85098 1 0.701961 0.85098 
1 0.701961 0.85098 1 0.701961 0.85098 
1 0.701961 0.85098 1 0.701961 0.85098 
1 0.701961 0.85098 1 0.701961 0.85098 
1 0.701961 0.85098 1 0.701961 0.85098 
1 0.701961 0.85098 1 0.701961 0.85098 
1 0.701961 0.85098 1 0.701961 0.85098 
1 0.701961 0.85098 1 0.701961 0.85098 
1 0.701961 0.85098 1 0.701961 0.85098 
1 0.701961 0.85098 1 0.701961 0.85098 
1 0.701961 0.85098 1 0.701961 0.85098 
1 0.701961 0.85098 1 0.701961 0.85098 
1 0.701961 0.85098 1 0.701961 0.85098 
1 0.701961 0.85098 1 0.701961 0.85098 
1 0.701961 0.85098 1 0.701961 0.85098 
1 0.701961 0.85098 1 0.701961 0.85098 
1 0.701961 0.85098 1 0.701961 0.85098 
1 0.701961 0.85098 1 0.701961 0.85098 
1 0.701961 0.85098 1 0.701961 0.85098 
1 0.701961 0.85098 1 0.701961 0.85098 
1 0.701961 0.85098 1 0.701961 0.85098 
1 0.701961 0.85098 1 0.701961 0.85098 
1 0.701961 0.85098 1 0.701961 0.85098 
1 0.701961 0.85098 1 0.701961 0.85098 
1 0.701961 0.85098 1 0.701961 0.85098 
1 0.701961 0.85098 1 0.701961 0.85098 
1 0.701961 0.85098 1 0.701961 0.85098 
1 0.701961 0.85098 1 0.701961 0.85098 
1 0.701961 0.85098 1 0.701961 0.85098 
1 0.701961 0.85098 1 0.701961 0.85098 
1 0.701961 0.85098 1 0.701961 0.85098 
1 0.701961 0.85098 1 0.701961 0.85098 
1 0.701961 0.85098 1 0.701961 0.85098 
1 0.701961 0.85098 1 0.701961 0.85098 
1 0.701961 0.85098 1 0.701961 0.85098 
1 0.701961 0.85098 1 0.701961 0.85098 
1 0.701961 0.85098 1 0.701961 0.85098 
1 0.701961 0.85098 1 0.701961 0.85098 
1 0.701961 0.85098 1 0.701961 0.85098 
1 0.701961 0.85098 1 0.701961 0.85098 
1 0.701961 0.85098 1 0.701961 0.85098 
1 0.701961 0.85098 1 0.701961 0.85098 
1 0.701961 0.85098 1 0.701961 0.85098 
1 0.701961 0.85098 1 0.701961 0.85098 
1 0.701961 0.85098 1 0.701961 0.85098 
1 0.701961 0.85098 1 0.701961 0.85098 
1 0.701961 0.85098 1 0.701961 0.85098 
1 0.701961 0.85098 1 0.701961 0.85098 
1 0.701961 0.85098 1 0.701961 0.85098 
1 0.701961 0.85098 1 0.701961 0.85098 
1 0.701961 0.85098 1 0.701961 0.85098 
1 0.701961 0.85098 1 0.701961 0.85098 
1 0.701961 0.85098 1 0.701961 0.85098 
1 0.701961 0.85098 1 0.701961 0.85098 
1 0.701961 0.85098 1 0.701961 0.85098 
1 0.701961 0.85098 1 0.701961 0.85098 
1 0.701961 0.85098 1 0.701961 0.85098 
1 0.701961 0.85098 1 0.701961 0.85098 
1 0.701961 0.85098 1 0.701961 0.85098 
1 0.701961 0.85098 1 0.701961 0.85098 
1 0.701961 0.85098 1 0.701961 0.85098 

NORMALS Normals float
-0.00814646 -0.203951 -0.978947 0.136485 -0.0376917 -0.989925 -0.339282 0.238504 -0.909947 
0.0680792 0.310986 -0.947973 -0.128835 0.298376 -0.945713 -0.0283606 -0.542953 -0.839284 
0.172102 -0.418508 -0.891758 -0.274504 -0.330467 -0.903017 -0.148581 0.627624 -0.764206 
0.0892537 0.47194 -0.877101 0.222103 0.374359 -0.900292 -0.277661 0.661074 -0.697055 
0.133072 0.627898 -0.766835 -0.124071 -0.583526 -0.802561 0.168501 -0.68875 -0.705146 
-0.635878 0.00859448 -0.771742 0.246867 -0.235186 -0.940077 -0.660151 0.286861 -0.694198 
-0.508347 0.570262 -0.645279 0.197077 0.409366 -0.890831 0.0482992 0.636764 -0.769545 
-0.135085 0.89552 -0.424023 -0.0147772 0.883277 -0.468619 0.0354611 0.687477 -0.72534 
-0.384033 -0.635196 -0.670108 -0.0478761 -0.647983 -0.760149 0.30132 -0.43397 -0.849044 
0.277943 -0.00333505 -0.960592 -0.666007 0.503858 -0.550056 0.182726 0.622757 -0.760779 
0.0281323 0.668206 -0.743444 0.0845437 0.644873 -0.759599 0.0573325 0.806327 -0.588684 
-0.230276 -0.85112 -0.471771 0.102125 -0.861822 -0.496823 0.265626 -0.621852 -0.736711 
-0.592988 -0.373376 -0.713411 0.34772 -0.426609 -0.834922 0.338648 -0.419852 -0.842046 
-0.804439 0.138557 -0.57765 0.385659 0.0080948 -0.922606 0.311453 -0.125834 -0.941893 
-0.690202 0.336817 -0.640449 -0.493107 0.69323 -0.52562 -0.596116 0.712859 -0.369428 
-0.189285 0.956638 -0.221391 -0.857638 -0.203034 -0.472477 0.213915 -0.442692 -0.870784 
0.359974 -0.388229 -0.84835 0.108322 -0.272586 -0.956014 0.201605 -0.0810119 -0.976111 
0.361521 -0.135933 -0.922402 -0.804059 0.485892 -0.342633 0.117135 0.275159 -0.954236 
0.0132134 0.566114 -0.824221 0.174325 0.385887 -0.905926 0.104408 0.641225 -0.760217 
0.287742 -0.928956 -0.232905 -0.583099 -0.623714 -0.520554 0.359556 -0.75059 -0.554378 
0.273048 -0.76652 -0.581285 0.414875 -0.729188 -0.544209 -0.809707 -0.0654836 -0.58317 
-0.856942 0.0890173 -0.507668 0.572205 -0.258465 -0.778317 0.30113 0.0793692 -0.950275 
0.511335 -0.0272971 -0.858948 0.291667 0.263918 -0.91939 0.0811071 0.912081 -0.401907 
0.0949944 0.752632 -0.651553 0.130277 0.581274 -0.803212 -0.0276519 -0.981977 -0.186969 
-0.745379 -0.568861 -0.347574 0.321573 -0.886934 -0.331571 0.437439 -0.742857 -0.506766 
0.517056 -0.488496 -0.702869 0.485373 0.187557 -0.853953 0.0732668 0.835175 -0.545082 
-0.436221 -0.85197 -0.289583 0.64738 -0.652613 -0.393695 0.644596 -0.334513 -0.687457 
0.746748 -0.094662 -0.658336 0.554423 0.133289 -0.821492 -0.133487 0.953796 -0.269174 
0.339996 0.544041 -0.767086 0.565812 0.337643 -0.752232 0.20414 0.78655 -0.582808 
0.229969 0.754476 -0.61472 -0.922905 -0.200356 -0.32879 0.28127 -0.935512 -0.213788 
0.555231 -0.796543 -0.239246 -0.929073 0.272544 -0.250087 0.698085 -0.577759 -0.422934 
-0.790031 0.58811 -0.173137 0.78054 -0.34399 -0.521946 -0.4471 0.887765 -0.109429 
0.789058 -0.124733 -0.601522 0.0698445 0.883573 -0.463055 0.0378723 0.949408 -0.311753 
0.708301 0.257739 -0.657176 0.454169 0.577573 -0.678336 0.120812 -0.992242 -0.0293397 
-0.82932 -0.531027 -0.173895 0.635799 -0.724353 -0.266593 -0.861898 0.479936 -0.163688 
0.757202 -0.54326 -0.362649 -0.788822 0.61326 -0.040886 -0.0112411 0.997919 0.0634922 
-0.244526 0.949252 -0.197809 0.867993 0.210017 -0.449978 0.135188 0.859714 -0.49256 
0.0710467 0.922484 -0.379441 0.551698 0.602785 -0.576437 -0.716372 -0.693957 -0.0723507 
0.720296 -0.686502 -0.0994438 0.867471 -0.468164 -0.168277 0.883462 -0.378426 -0.276206 
0.905401 -0.0868933 -0.415569 0.916712 0.315874 -0.244667 0.617526 0.705155 -0.34845 
0.415406 0.890773 -0.184285 0.707544 0.678038 -0.199113 -0.182791 -0.980066 0.0778388 
-0.979663 -0.166094 -0.112573 -0.945141 0.32363 0.0444174 0.980306 -0.134383 -0.144714 
0.993257 0.0484012 -0.105347 0.808921 0.580657 -0.0921165 -0.577164 -0.813638 0.0698218 
-0.404288 -0.910838 0.0832223 -0.660189 -0.749227 0.0530059 -0.812732 -0.582453 0.0146477 
0.381162 -0.922183 0.0655287 -0.300145 0.951108 0.072851 0.919142 0.38135 0.0987438 
-0.145542 0.982287 -0.118025 0.522502 0.851559 -0.0428861 -0.112824 -0.961597 0.250205 
0.0221536 -0.967787 0.250795 -0.73898 -0.621031 0.261206 0.136256 -0.990551 -0.0155809 
-0.949685 -0.291987 0.113327 -0.989596 0.0215651 0.142249 -0.576434 0.817125 0.00549722 
-0.407731 0.902821 0.136633 0.942936 -0.315474 0.106524 -0.273702 0.961157 0.0355571 
0.982948 0.0344674 0.180625 0.00805192 0.99273 0.120092 0.217437 0.970104 0.107795 
-0.0533681 -0.87879 0.474216 0.14715 -0.963018 0.225707 0.120949 -0.959322 0.255094 
0.232171 -0.961847 0.144731 -0.947806 -0.194875 0.252363 0.600712 -0.794501 0.0889589 
-0.704455 0.707892 0.0513098 -0.142787 0.975205 0.169078 -0.000618971 0.988929 0.148389 
-0.0772251 0.942385 0.325493 -0.111464 0.966493 0.231228 0.75873 0.645116 0.0903011 
0.435331 0.854831 0.2824 0.72948 0.5992 0.329876 0.239822 0.93016 0.278007 
-0.222993 -0.838554 0.497093 -0.213652 -0.871331 0.44174 -0.436589 -0.803091 0.405505 
-0.0250153 -0.906595 0.421259 -0.192495 -0.898901 0.393603 -0.73054 -0.527203 0.434014 
0.202379 -0.928413 0.311597 0.211512 -0.933624 0.289152 0.708498 -0.637933 0.301781 
-0.60577 0.775642 0.177263 0.875205 -0.193598 0.443324 0.136044 0.893946 0.427027 
0.0234703 0.902329 0.430408 0.132299 0.924139 0.35842 -0.178789 0.821144 0.541994 
0.921807 0.24518 0.300266 -0.228115 0.897238 0.378057 0.12353 0.833622 0.538345 
0.543592 0.607014 0.579691 -0.143365 -0.82672 0.54404 -0.0251031 -0.795928 0.604871 
0.0242962 -0.79264 0.609206 0.0532711 -0.885858 0.460888 0.0103624 -0.719569 0.694344 
0.242662 -0.853293 0.461527 0.369818 -0.783445 0.499448 -0.926337 0.28089 0.251 
0.778943 -0.423339 0.462635 -0.208179 0.896935 0.390089 0.0166967 0.869942 0.492872 
0.0379311 0.866915 0.497011 -0.11649 0.81019 0.574476 0.878526 0.0680782 0.472818 
-0.0025023 0.729535 0.683939 0.506309 0.493369 0.707275 0.139526 0.674376 0.725086 
0.126554 -0.888723 0.440631 -0.114794 -0.635538 0.763488 0.130856 -0.610818 0.780883 
0.201387 -0.641936 0.739839 -0.344432 -0.52232 0.780095 -0.124504 -0.508575 0.851968 
0.197842 -0.732268 0.651646 0.0746888 -0.809099 0.582907 -0.633593 -0.416606 0.65192 
0.133665 -0.477718 0.868285 0.183981 -0.819594 0.542601 -0.868741 -0.249632 0.427754 
0.0852512 -0.231138 0.969179 0.0322512 -0.445537 0.894682 0.238861 -0.764664 0.598527 
0.255926 -0.810217 0.527304 0.0465234 -0.0836275 0.99541 0.439966 -0.791411 0.42438 
-0.786447 0.141515 0.601228 -0.0126629 -0.0489745 0.99872 0.0301713 0.18157 0.982915 
0.515045 -0.655772 0.551989 0.506419 -0.484612 0.713226 -0.769865 0.542605 0.335987 
-0.0897954 0.277318 0.956573 0.105453 0.721806 0.684014 -0.158779 0.528765 0.833785 
-0.0586763 0.52021 0.85202 0.632272 -0.276182 0.723848 0.661325 -0.0441165 0.748801 
-0.482613 0.741195 0.466599 -0.319793 0.796116 0.513744 -0.117587 0.670037 0.732955 
0.0849357 0.416021 0.90538 0.41302 0.271767 0.869228 0.223085 0.59181 0.774593 
0.0162105 -0.668712 0.743344 0.0549978 -0.423242 0.904346 0.0481087 -0.540423 0.840017 
0.125021 -0.711968 0.690993 0.135309 -0.627314 0.766922 -0.0195312 -0.421846 0.906457 
0.123393 -0.409407 0.903969 -0.787756 -0.14885 0.597733 -0.307726 -0.24204 0.920174 
-0.128826 -0.185841 0.974098 -0.610388 -0.0925234 0.78668 0.0523219 -0.413072 0.909194 
0.237816 -0.624976 0.743538 0.00056509 -0.158473 0.987363 -0.016387 -0.132366 0.991066 
0.0741162 -0.310751 0.947597 0.254977 -0.504195 0.82509 0.0603625 -0.0503991 0.996903 
0.326176 -0.53962 0.776157 -0.113626 0.106539 0.987795 0.116443 -0.154556 0.981098 
0.339532 -0.27007 0.900988 0.144901 0.24075 0.95971 0.0481206 0.238988 0.96983 
0.0243281 0.255207 0.96658 0.0499372 0.481209 0.875182 0.0983252 0.389164 0.915906 
0.0656982 0.448968 0.891129 0.146735 0.422284 0.894508 0.106136 0.319798 0.941522 
0.269007 -0.198328 0.942497 0.324892 -0.261424 0.908902 -0.35874 0.596514 0.717967 
-0.169641 0.592537 0.787479 -0.127399 0.663617 0.737145 -0.0321052 0.458137 0.888301 
0.0679583 0.531715 0.844192 -0.00411524 0.609026 0.79314 0.0872694 0.577443 0.811754 
0.109926 0.0262553 0.993593 0.438414 -0.154705 0.885359 -0.0377294 0.723617 0.689169 
0.113672 0.702565 0.702482 0.0761825 0.681375 0.727959 0.0510654 0.658632 0.75073 
0.190302 0.213072 0.958324 -0.232743 0.107551 0.966573 -0.499085 0.0799704 0.862855 
0.0106056 -0.0523544 0.998572 0.225987 -0.373652 0.899619 0.0587692 0.111246 0.992054 
-0.445786 0.363145 0.818169 -0.0999117 0.21561 0.971355 0.017466 0.27258 0.961975 
-0.230282 0.441784 0.867062 -0.620533 0.0297275 -0.783616 -0.557188 0.27671 -0.782926 
-0.273291 0.117072 -0.954781 -0.594317 0.289249 -0.750414 -0.152785 0.288213 -0.945299 
0.0521421 0.2056 -0.977246 0.136979 -0.734675 -0.664447 -0.0313749 -0.410769 -0.9112 