# vtk DataFile Version 4.2
vtk output
ASCII
DATASET POLYDATA
POINTS 679 float
343.083 164.968 130.548 344.419 165.016 130.449 344.825 164.728 130.652 
337.8 165.872 130.45 343.396 165.401 130.274 345.452 165.061 130.596 
346.021 165.308 130.749 336.125 166.322 130.327 335.778 166.244 130.443 
335.703 166.477 130.395 338.373 166.326 130.238 343.181 165.778 130.238 
342.961 164.724 130.848 345.033 164.39 131.048 346.688 164.69 131.069 
334.266 165.903 131.29 333.924 166.145 131.025 335.729 166.005 130.705 
346.53 164.985 130.936 332.678 166.465 131.154 332.41 166.766 131.149 
335.081 166.422 130.598 345.366 166.093 130.663 332.823 166.921 131.005 
335.427 166.883 130.517 340.594 167.108 130.413 335.69 167.457 130.681 
340.202 167.41 130.547 343.325 164.309 131.5 347.303 164.088 131.681 
331.137 166.318 131.918 334.97 165.7 131.604 341.859 164.624 131.714 
347.061 165.707 131.207 329.348 167.314 132.28 331.63 167.036 131.456 
341.768 167.29 130.612 329.603 167.483 132.181 329.688 167.769 132.265 
337.039 168.052 130.943 340.979 167.987 131.033 335.455 168.479 131.346 
349.17 163.445 132.647 345.481 163.734 132.079 350.073 164.159 132.774 
330.955 166.223 132.142 330.628 166.25 132.411 349.549 164.909 132.36 
328.9 166.945 132.666 328.44 166.93 132.946 329.96 166.416 132.761 
328.171 167.014 133.025 327.842 167.392 133.23 347.967 166.911 132.195 
328.497 167.949 132.998 330.997 168.706 132.361 352.231 161.047 134.418 
350.837 162.628 133.546 350.399 162.127 133.668 351.697 162.712 133.807 
352.307 162.407 134.124 347.736 163.263 132.55 352.616 163.608 134.27 
328.08 166.932 133.264 327.674 166.97 133.619 330.163 166.306 133.339 
351.764 165.582 134.184 327.608 167.147 133.485 327.442 167.061 133.708 
327.309 167.836 133.791 340.73 169.324 132.382 353.378 159.638 135.223 
353.119 159.795 135.068 352.447 160.199 134.78 353.471 160.503 135.069 
349.41 161.924 133.884 353.723 162.492 135.294 352.692 164.06 134.389 
342.43 164.065 134.276 341.752 164.365 133.829 328.547 166.644 134.139 
326.624 167.275 134.9 327.002 167.802 134.076 348.983 168.542 134.159 
347.729 169.208 134.255 331.912 170.767 134.26 353.937 159.544 135.82 
354.073 160.215 135.806 351.116 160.339 134.778 348.624 161.719 134.345 
326.437 167.267 135.241 326.263 167.338 135.379 326.072 167.726 135.508 
326.894 167.123 135.255 329.807 166.63 135.066 333.548 166.264 135.073 
334.353 166.177 135.135 337.465 165.573 135.205 326.536 167.85 134.69 
350.795 167.803 134.838 352.887 157.709 136.354 353.319 157.865 136.374 
353.739 158.308 136.345 354.109 158.137 136.902 354.366 158.881 136.893 
354.541 162.187 136.923 345.481 162.396 135.556 353.562 165.201 136.245 
325.889 167.81 135.854 325.97 167.694 135.991 325.841 167.952 136.113 
335.158 166.148 135.73 335.518 166.098 136.026 325.905 167.938 135.815 
326.057 168.063 135.604 327.2 169.755 135.726 353.087 155.237 138.029 
353.336 155.207 138.191 352.894 156.028 137.491 351.848 156.527 137.297 
353.779 156.092 137.777 354.001 156.364 137.896 351.177 157.095 137.156 
326.015 167.694 136.441 325.85 167.924 136.479 326.245 167.585 136.562 
336.99 165.707 136.729 352.497 167.068 136.493 348.754 170.141 137.021 
332.908 172.945 137.238 352.916 154.799 138.568 353.224 154.918 138.561 
353.835 155.57 138.299 353.891 155.87 138.063 354.391 157.411 138.161 
354.71 159.107 138.168 354.707 162.153 138.338 339.761 164.487 137.779 
325.918 167.899 136.809 326.055 168.027 137.298 331.347 167.103 137.781 
325.863 169.046 138.39 327.854 167.801 138.715 329.463 167.527 138.73 
326.209 169.639 137.239 351.418 168.518 137.844 351.582 154.91 139.008 
352.598 154.625 139.115 353.34 154.902 139.002 353.693 155.22 138.835 
353.843 155.458 138.587 353.881 155.597 138.945 354.124 156.176 138.734 
353.676 165.424 138.691 325.908 168.429 137.591 326.648 168.11 138.379 
325.654 169.3 139.182 326.302 168.606 139.2 352.365 167.619 138.751 
325.638 169.474 139.085 330.531 173.892 139.948 351.247 154.93 139.364 
351.023 154.907 139.837 352.078 154.617 139.682 352.909 154.657 139.251 
349.94 155.4 140.063 353.609 155.171 139.158 348.986 156.034 140.066 
343.463 161.129 139.621 341.169 162.828 139.66 353.244 166.169 139.423 
327.517 168.192 140.279 325.581 169.77 139.43 351.278 154.807 140.094 
351.813 154.691 140.047 352.814 154.671 139.594 350 155.34 140.997 
350.769 155.107 140.848 352.058 154.78 140.314 352.538 154.882 140.302 
353.018 154.932 139.866 352.887 155.048 140.287 354.351 160.725 140.072 
351.519 168.04 140.613 326.285 171.796 140.587 351.305 155.153 141.044 
352.048 155.03 140.726 352.397 155.318 140.954 353.196 155.762 140.726 
352.965 155.839 141.015 346.386 156.896 142.5 345.844 157.201 142.163 
345.612 157.492 141.794 353.512 157.6 141.076 353.567 158.511 141.204 
333.045 166.453 141.281 351.093 167.937 141.525 347.831 156.352 142.682 
347.244 156.52 142.595 350.901 155.949 142.07 350.462 156.212 142.474 
352.933 156.265 141.221 351.935 158.501 142.709 352.029 160.314 142.907 
351.304 165.328 142.871 351.468 166.941 141.83 347.718 169.917 143.372 
325.528 171.776 142.523 326.562 173.119 143.156 348.974 156.454 142.97 
345.919 157.273 143.679 346.6 157.081 143.561 349.052 156.806 143.356 
344.078 158.077 144.106 349.759 157.286 143.476 342.65 158.905 143.754 
350.655 158.265 143.439 348.935 168.113 143.884 342.623 173.255 143.24 
337.296 175.84 144.125 348.056 157.188 143.795 343.623 158.341 144.456 
344.089 158.191 144.584 346.881 157.666 144.39 349.332 158.093 144.003 
347.925 168.995 144.33 324.687 171.184 145.223 325.077 170.263 145.28 
324.931 171.768 144.603 344.413 158.259 144.875 345.614 158.847 145.565 
346.632 168.765 146.161 324.714 170.976 146.036 324.648 171.122 145.625 
345.491 170.596 146.072 330.026 175.832 146.382 334.35 176.944 146.48 
340.409 160.167 146.295 346.563 166.044 147.149 325.641 169.778 146.392 
324.89 170.825 146.867 345.675 169.906 146.73 324.66 172.028 147.119 
328.16 174.89 147.195 332.172 176.8 147.162 336.292 176.861 146.973 
339.919 160.716 147.141 343.726 160.497 147.14 324.73 171.291 147.389 
325.86 173.491 147.366 325.87 173.462 147.817 327.402 174.44 147.463 
340.884 174.789 147.45 339.255 175.837 147.203 338.238 161.733 147.878 
339.837 161.436 148.098 344.887 166.7 148.835 324.749 171.917 148.191 
325.079 172.587 148.294 325.34 172.883 148.249 326.226 173.525 148.497 
333.882 177.495 149.253 337.915 162.484 149.018 333.966 164.291 149.756 
332.25 165.319 150.166 343.53 164.612 149.513 325.014 171.697 148.786 
324.856 171.861 148.564 343.223 171.737 149.557 324.875 172.084 148.487 
325.247 172.661 148.583 325.376 172.565 148.883 337.886 176.662 149.528 
335.29 177.547 149.7 337.405 163.646 150.569 325.944 171.012 149.824 
326.406 172.811 149.736 342.484 172.13 150.702 332.464 177.014 150.768 
340.483 165.516 151.806 342.231 167.127 151.392 327.162 170.054 151.37 
326.987 170.5 151.424 340.411 174.731 151.425 338.245 176.192 151.878 
333.545 177.357 151.49 334.463 165.2 152.228 332.162 166.176 152.517 
330.79 167.266 153.211 329.102 168.116 152.264 341.068 168.752 153.022 
327.34 171.089 151.919 334.178 177.089 152.641 336.262 176.954 152.447 
335.605 165.371 152.727 328.569 169.435 153.294 341.141 170.218 153.14 
340.3 173.542 153.431 330.705 174.522 154.188 339.632 174.533 153.393 
332.023 176.036 153.804 339.36 173.387 154.58 338.809 174.045 154.73 
333.363 176.371 154.232 333.725 176.225 154.593 331.684 168.34 155.612 
337.674 168.079 155.184 329.771 170.114 155.192 338.66 170.708 155.497 
338.587 172.315 155.465 337.308 175.028 154.971 336.617 175.219 155.153 
332.032 175.094 155.709 332.501 175.436 155.48 335.662 167.886 155.652 
334.265 168.203 156.143 336.273 169.524 156.564 337.495 170.054 156.073 
331.319 173.722 156.216 336.187 173.316 156.7 335.763 173.919 156.598 
332.085 174.885 156.153 332.302 174.822 156.384 333.844 175.07 156.16 
335.143 170.369 157.264 335.372 171.897 157.297 331.698 173.724 156.692 
334.684 173.421 157.133 331.881 174.319 156.625 332.085 174.277 156.766 
333.329 174.335 156.884 332.71 174.857 156.421 333.083 170.613 157.333 
333.804 170.418 157.359 331.691 171.653 157.048 332.205 171.711 157.33 
331.796 172.333 157.087 332.147 172.163 157.442 332.351 172.139 157.529 
332.802 172.212 157.517 332.394 172.357 157.536 332.191 172.381 157.449 
332.422 172.787 157.372 332.444 173.549 157.167 333.467 173.36 157.32 
332.259 172.259 157.541 332.074 170.18 298.255 333.51 169.976 298.008 
331.487 170.781 298.388 332.805 170.805 297.846 334.893 170.967 297.854 
331.848 172.078 298.156 333.083 171.841 297.751 332.314 172.583 298.035 
334.802 172.115 297.869 331.733 173.122 298.495 333.762 173.605 298.179 
330.963 169.944 298.937 330.679 170.129 299.047 336.205 170.868 298.443 
331.002 173.452 299.474 334.928 173.239 298.164 331.866 173.931 298.961 
335.659 173.655 298.581 334.063 174.461 298.754 331.915 168.282 299.61 
330.454 169.203 299.856 330.135 169.614 299.744 329.847 169.717 299.955 
329.643 170.005 300.107 332.541 174.91 299.557 336.806 174.918 299.818 
336.232 175.395 300.075 337.807 168.353 299.935 329.95 169.445 300.057 
338.691 172.077 300.043 331.346 175.143 301.146 332.136 167.244 300.698 
338.22 167.789 300.579 339.403 167.864 301.245 329.258 169.501 301.002 
328.86 170.575 301.15 329.074 170.939 300.867 340.261 171.643 301.399 
337.485 175.239 300.591 336.276 176.301 301.389 334.533 176.712 301.855 
339.941 167.478 301.909 328.178 170.176 302.324 328.553 170.751 301.644 
328.893 172.62 302.076 332.074 176.403 302.728 332.355 166.102 302.627 
341.213 166.21 303.407 341.811 166.852 303.583 329.173 168.055 302.984 
342.074 167.71 303.571 327.99 169.899 302.779 327.6 170.077 303.395 
327.841 171.168 302.918 341.477 172.676 303.249 337.687 176.335 302.872 
337.301 163.918 304.24 339.272 164.128 304.135 334.776 164.388 304.485 
340.321 164.921 303.794 341.003 165.283 303.868 342.949 168.028 304.351 
327.012 170.768 304.12 327.749 172.397 303.696 342.135 172.442 304.211 
340.436 174.456 303.477 333.328 177.282 304.076 333.825 177.355 303.891 
[...]
POINT_DATA 679
COLOR_SCALARS scalars 3
1 0.564706 0.623529 1 0.564706 0.623529 1 0.564706 0.623529 
1 0.564706 0.623529 1 0.564706 0.623529 
1 0.564706 0.623529 1 0.564706 0.623529 
1 0.564706 0.623529 1 0.564706 0.623529 
1 0.564706 0.623529 1 0.564706 0.623529 
1 0.564706 0.623529 1 0.564706 0.623529 
1 0.564706 0.623529 1 0.564706 0.623529 
1 0.564706 0.623529 1 0.564706 0.623529 
1 0.564706 0.623529 1 0.564706 0.623529 
1 0.564706 0.623529 1 0.564706 0.623529 
1 0.564706 0.623529 1 0.564706 0.623529 
1 0.564706 0.623529 1 0.564706 0.623529 
1 0.564706 0.623529 1 0.564706 0.623529 
1 0.564706 0.623529 1 0.564706 0.623529 
1 0.564706 0.623529 1 0.564706 0.623529 
1 0.564706 0.623529 1 0.564706 0.623529 
1 0.564706 0.623529 1 0.564706 0.623529 
1 0.564706 0.623529 1 0.564706 0.623529 
1 0.564706 0.623529 1 0.564706 0.623529 
1 0.564706 0.623529 1 0.564706 0.623529 
1 0.564706 0.623529 1 0.564706 0.623529 
1 0.564706 0.623529 1 0.564706 0.623529 
1 0.564706 0.623529 1 0.564706 0.623529 
1 0.564706 0.623529 1 0.564706 0.623529 
1 0.564706 0.623529 1 0.564706 0.623529 
1 0.564706 0.623529 1 0.564706 0.623529 
1 0.564706 0.623529 1 0.564706 0.623529 
1 0.564706 0.623529 1 0.564706 0.623529 
1 0.564706 0.623529 1 0.564706 0.623529 
1 0.564706 0.623529 1 0.564706 0.623529 
1 0.564706 0.623529 1 0.564706 0.623529 
1 0.564706 0.623529 1 0.564706 0.623529 
1 0.564706 0.623529 1 0.564706 0.623529 
1 0.564706 0.623529 1 0.564706 0.623529 
1 0.564706 0.623529 1 0.564706 0.623529 
1 0.564706 0.623529 1 0.564706 0.623529 
1 0.564706 0.623529 1 0.564706 0.623529 
1 0.564706 0.623529 1 0.564706 0.623529 
1 0.564706 0.623529 1 0.564706 0.623529 
1 0.564706 0.623529 1 0.564706 0.623529 
1 0.564706 0.623529 1 0.564706 0.623529 
1 0.564706 0.623529 1 0.564706 0.623529 
1 0.564706 0.623529 1 0.564706 0.623529 
1 0.564706 0.623529 1 0.564706 0.623529 
1 0.564706 0.623529 1 0.564706 0.623529 
1 0.564706 0.623529 1 0.564706 0.623529 
1 0.564706 0.623529 1 0.564706 0.623529 
1 0.564706 0.623529 1 0.564706 0.623529 
1 0.564706 0.623529 1 0.564706 0.623529 
1 0.564706 0.623529 1 0.564706 0.623529 
1 0.564706 0.623529 1 0.564706 0.623529 
1 0.564706 0.623529 1 0.564706 0.623529 
1 0.564706 0.623529 1 0.564706 0.623529 
1 0.564706 0.623529 1 0.564706 0.623529 
1 0.564706 0.623529 1 0.564706 0.623529 
1 0.564706 0.623529 1 0.564706 0.623529 
1 0.564706 0.623529 1 0.564706 0.623529 
1 0.564706 0.623529 1 0.564706 0.623529 
1 0.564706 0.623529 1 0.564706 0.623529 
1 0.564706 0.623529 1 0.564706 0.623529 
1 0.564706 0.623529 1 0.564706 0.623529 
1 0.564706 0.623529 1 0.564706 0.623529 
1 0.564706 0.623529 1 0.564706 0.623529 
1 0.564706 0.623529 1 0.564706 0.623529 
1 0.564706 0.623529 1 0.564706 0.623529 
1 0.564706 0.623529 1 0.564706 0.623529 
1 0.564706 0.623529 1 0.564706 0.623529 
1 0.564706 0.623529 1 0.564706 0.623529 
1 0.564706 0.623529 1 0.564706 0.623529 
1 0.564706 0.623529 1 0.564706 0.623529 
1 0.564706 0.623529 1 0.564706 0.623529 
1 0.564706 0.623529 1 0.564706 0.623529 
1 0.564706 0.623529 1 0.564706 0.623529 
1 0.564706 0.623529 1 0.564706 0.623529 
1 0.564706 0.623529 1 0.564706 0.623529 
1 0.564706 0.623529 1 0.564706 0.623529 
1 0.564706 0.623529 1 0.564706 0.623529 
1 0.564706 0.623529 1 0.564706 0.623529 
1 0.564706 0.623529 1 0.564706 0.623529 
1 0.564706 0.623529 1 0.564706 0.623529 
1 0.564706 0.623529 1 0.564706 0.623529 
1 0.564706 0.623529 1 0.564706 0.623529 
1 0.564706 0.623529 1 0.564706 0.623529 
1 0.564706 0.623529 1 0.564706 0.623529 
1 0.564706 0.623529 1 0.564706 0.623529 
1 0.564706 0.623529 1 0.564706 0.623529 
1 0.564706 0.623529 1 0.564706 0.623529 
1 0.564706 0.623529 1 0.564706 0.623529 
1 0.564706 0.623529 1 0.564706 0.623529 
1 0.564706 0.623529 1 0.564706 0.623529 
1 0.564706 0.623529 1 0.564706 0.623529 
1 0.564706 0.623529 1 0.564706 0.623529 
1 0.564706 0.623529 1 0.564706 0.623529 
1 0.564706 0.623529 1 0.564706 0.623529 
1 0.564706 0.623529 1 0.564706 0.623529 
1 0.564706 0.623529 1 0.564706 0.623529 
1 0.564706 0.623529 1 0.564706 0.623529 
1 0.564706 0.623529 1 0.564706 0.623529 
1 0.564706 0.623529 1 0.564706 0.623529 
1 0.564706 0.623529 1 0.564706 0.623529 
1 0.564706 0.623529 1 0.564706 0.623529 
1 0.564706 0.623529 1 0.564706 0.623529 
1 0.564706 0.623529 1 0.564706 0.623529 
1 0.564706 0.623529 1 0.564706 0.623529 
1 0.564706 0.623529 1 0.564706 0.623529 
1 0.564706 0.623529 1 0.564706 0.623529 
1 0.564706 0.623529 1 0.564706 0.623529 
1 0.564706 0.623529 1 0.564706 0.623529 
1 0.564706 0.623529 1 0.564706 0.623529 
1 0.564706 0.623529 1 0.564706 0.623529 
1 0.564706 0.623529 1 0.564706 0.623529 
1 0.564706 0.623529 1 0.564706 0.623529 
1 0.564706 0.623529 1 0.564706 0.623529 
1 0.564706 0.623529 1 0.564706 0.623529 
1 0.564706 0.623529 1 0.564706 0.623529 
1 0.564706 0.623529 1 0.564706 0.623529 
1 0.564706 0.623529 1 0.564706 0.623529 
1 0.564706 0.623529 1 0.564706 0.623529 
1 0.564706 0.623529 1 0.564706 0.623529 
1 0.564706 0.623529 1 0.564706 0.623529 
1 0.564706 0.623529 1 0.564706 0.623529 
1 0.564706 0.623529 1 0.564706 0.623529 
1 0.564706 0.623529 1 0.564706 0.623529 
1 0.564706 0.623529 1 0.564706 0.623529 
1 0.564706 0.623529 1 0.564706 0.623529 
1 0.564706 0.623529 1 0.564706 0.623529 
1 0.564706 0.623529 1 0.564706 0.623529 
1 0.564706 0.623529 1 0.564706 0.623529 
1 0.564706 0.623529 1 0.564706 0.623529 
1 0.564706 0.623529 1 0.564706 0.623529 
1 0.564706 0.623529 1 0.564706 0.623529 
1 0.564706 0.623529 1 0.564706 0.623529 
1 0.564706 0.623529 1 0.564706 0.623529 
1 0.564706 0.623529 1 0.564706 0.623529 
1 0.564706 0.623529 1 0.564706 0.623529 
1 0.564706 0.623529 1 0.564706 0.623529 
1 0.564706 0.623529 1 0.564706 0.623529 
1 0.564706 0.623529 1 0.564706 0.623529 
1 0.564706 0.623529 1 0.564706 0.623529 
1 0.564706 0.623529 1 0.564706 0.623529 
1 0.564706 0.623529 1 0.564706 0.623529 
1 0.564706 0.623529 1 0.564706 0.623529 
1 0.564706 0.623529 1 0.564706 0.623529 
1 0.564706 0.623529 1 0.564706 0.623529 
1 0.564706 0.623529 1 0.564706 0.623529 
1 0.564706 0.623529 1 0.564706 0.623529 
1 0.564706 0.623529 1 0.564706 0.623529 
1 0.564706 0.623529 1 0.564706 0.623529 
1 0.564706 0.623529 1 0.564706 0.623529 
1 0.564706 0.623529 1 0.564706 0.623529 
1 0.564706 0.623529 1 0.564706 0.623529 
1 0.564706 0.623529 1 0.564706 0.623529 
1 0.564706 0.623529 1 0.564706 0.623529 
1 0.564706 0.623529 1 0.564706 0.623529 
1 0.564706 0.623529 1 0.564706 0.623529 
1 0.564706 0.623529 1 0.564706 0.623529 
1 0.564706 0.623529 1 0.564706 0.623529 
1 0.564706 0.623529 1 0.564706 0.623529 
1 0.564706 0.623529 1 0.564706 0.623529 
1 0.564706 0.623529 1 0.564706 0.623529 
1 0.564706 0.623529 1 0.564706 0.623529 
1 0.564706 0.623529 1 0.564706 0.623529 
1 0.564706 0.623529 1 0.564706 0.623529 
1 0.564706 0.623529 1 0.564706 0.623529 
1 0.564706 0.623529 1 0.564706 0.623529 
1 0.564706 0.623529 1 0.564706 0.623529 
1 0.564706 0.623529 1 0.564706 0.623529 
1 0.564706 0.623529 1 0.564706 0.623529 
1 0.564706 0.623529 1 0.564706 0.623529 
1 0.564706 0.623529 1 0.564706 0.623529 
1 0.564706 0.623529 1 0.564706 0.623529 
1 0.564706 0.623529 1 0.564706 0.623529 
1 0.564706 0.623529 1 0.564706 0.623529 
1 0.564706 0.623529 1 0.564706 0.623529 
1 0.564706 0.623529 1 0.564706 0.623529 
1 0.564706 0.623529 1 0.564706 0.623529 
1 0.564706 0.623529 1 0.564706 0.623529 
1 0.564706 0.623529 1 0.564706 0.623529 
1 0.564706 0.623529 1 0.564706 0.623529 
1 0.564706 0.623529 1 0.564706 0.623529 
1 0.564706 0.623529 1 0.564706 0.623529 
1 0.564706 0.623529 1 0.564706 0.623529 
1 0.564706 0.623529 1 0.564706 0.623529 
1 0.564706 0.623529 1 0.564706 0.623529 
1 0.564706 0.623529 1 0.564706 0.623529 
1 0.564706 0.623529 1 0.564706 0.623529 
1 0.564706 0.623529 1 0.564706 0.623529 
1 0.564706 0.623529 1 0.564706 0.623529 
1 0.564706 0.623529 1 0.564706 0.623529 
1 0.564706 0.623529 1 0.564706 0.623529 
1 0.564706 0.623529 1 0.564706 0.623529 
1 0.564706 0.623529 1 0.564706 0.623529 
1 0.564706 0.623529 1 0.564706 0.623529 
1 0.564706 0.623529 1 0.564706 0.623529 
1 0.564706 0.623529 1 0.564706 0.623529 
1 0.564706 0.623529 1 0.564706 0.623529 
1 0.564706 0.623529 1 0.564706 0.623529 
1 0.564706 0.623529 1 0.564706 0.623529 
1 0.564706 0.623529 1 0.564706 0.623529 
1 0.564706 0.623529 1 0.564706 0.623529 
1 0.564706 0.623529 1 0.564706 0.623529 
1 0.564706 0.623529 1 0.564706 0.623529 
1 0.564706 0.623529 1 0.564706 0.623529 
1 0.564706 0.623529 1 0.564706 0.623529 
1 0.564706 0.623529 1 0.564706 0.623529 
1 0.564706 0.623529 1 0.564706 0.623529 
1 0.564706 0.623529 1 0.564706 0.623529 
1 0.564706 0.623529 1 0.564706 0.623529 
1 0.564706 0.623529 1 0.564706 0.623529 
1 0.564706 0.623529 1 0.564706 0.623529 
1 0.564706 0.623529 1 0.564706 0.623529 
1 0.564706 0.623529 1 0.564706 0.623529 
1 0.564706 0.623529 1 0.564706 0.623529 
1 0.564706 0.623529 1 0.564706 0.623529 
1 0.564706 0.623529 1 0.564706 0.623529 
1 0.564706 0.623529 1 0.564706 0.623529 
1 0.564706 0.623529 1 0.564706 0.623529 
1 0.564706 0.623529 1 0.564706 0.623529 
1 0.564706 0.623529 1 0.564706 0.623529 
1 0.564706 0.623529 1 0.564706 0.623529 
1 0.564706 0.623529 1 0.564706 0.623529 
1 0.564706 0.623529 1 0.564706 0.623529 
1 0.564706 0.623529 1 0.564706 0.623529 
1 0.564706 0.623529 1 0.564706 0.623529 
1 0.564706 0.623529 1 0.564706 0.623529 
1 0.564706 0.623529 1 0.564706 0.623529 
1 0.564706 0.623529 1 0.564706 0.623529 
1 0.564706 0.623529 1 0.564706 0.623529 
1 0.564706 0.623529 1 0.564706 0.623529 
1 0.564706 0.623529 1 0.564706 0.623529 
1 0.564706 0.623529 1 0.564706 0.623529 
1 0.564706 0.623529 1 0.564706 0.623529 
1 0.564706 0.623529 1 0.564706 0.623529 
1 0.564706 0.623529 1 0.564706 0.623529 
1 0.564706 0.623529 1 0.564706 0.623529 
1 0.564706 0.623529 1 0.564706 0.623529 
1 0.564706 0.623529 1 0.564706 0.623529 
1 0.564706 0.623529 1 0.564706 0.623529 
1 0.564706 0.623529 1 0.564706 0.623529 
1 0.564706 0.623529 1 0.564706 0.623529 
1 0.564706 0.623529 1 0.564706 0.623529 
1 0.564706 0.623529 1 0.564706 0.623529 
1 0.564706 0.623529 1 0.564706 0.623529 
1 0.564706 0.623529 1 0.564706 0.623529 
1 0.564706 0.623529 1 0.564706 0.623529 
1 0.564706 0.623529 1 0.564706 0.623529 
1 0.564706 0.623529 1 0.564706 0.623529 
1 0.564706 0.623529 1 0.564706 0.623529 
1 0.564706 0.623529 1 0.564706 0.623529 
1 0.564706 0.623529 1 0.564706 0.623529 
1 0.564706 0.623529 1 0.564706 0.623529 
1 0.564706 0.623529 1 0.564706 0.623529 
1 0.564706 0.623529 1 0.564706 0.623529 
1 0.564706 0.623529 1 0.564706 0.623529 
1 0.564706 0.623529 1 0.564706 0.623529 
1 0.564706 0.623529 1 0.564706 0.623529 
1 0.564706 0.623529 1 0.564706 0.623529 
1 0.564706 0.623529 1 0.564706 0.623529 
1 0.564706 0.623529 1 0.564706 0.623529 
1 0.564706 0.623529 1 0.564706 0.623529 
1 0.564706 0.623529 1 0.564706 0.623529 
1 0.564706 0.623529 1 0.564706 0.623529 
1 0.564706 0.623529 1 0.564706 0.623529 
1 0.564706 0.623529 1 0.564706 0.623529 
1 0.564706 0.623529 1 0.564706 0.623529 
1 0.564706 0.623529 1 0.564706 0.623529 
1 0.564706 0.623529 1 0.564706 0.623529 
1 0.564706 0.623529 1 0.564706 0.623529 
1 0.564706 0.623529 1 0.564706 0.623529 
1 0.564706 0.623529 1 0.564706 0.623529 
1 0.564706 0.623529 1 0.564706 0.623529 
1 0.564706 0.623529 1 0.564706 0.623529 
1 0.564706 0.623529 1 0.564706 0.623529 
1 0.564706 0.623529 1 0.564706 0.623529 
1 0.564706 0.623529 1 0.564706 0.623529 
1 0.564706 0.623529 1 0.564706 0.623529 
1 0.564706 0.623529 1 0.564706 0.623529 
1 0.564706 0.623529 1 0.564706 0.623529 
1 0.564706 0.623529 1 0.564706 0.623529 
1 0.564706 0.623529 1 0.564706 0.623529 
1 0.564706 0.623529 1 0.564706 0.623529 
1 0.564706 0.623529 1 0.564706 0.623529 
1 0.564706 0.623529 1 0.564706 0.623529 
1 0.564706 0.623529 1 0.564706 0.623529 
1 0.564706 0.623529 1 0.564706 0.623529 
1 0.564706 0.623529 1 0.564706 0.623529 
1 0.564706 0.623529 1 0.564706 0.623529 
1 0.564706 0.623529 1 0.564706 0.623529 
1 0.564706 0.623529 1 0.564706 0.623529 
1 0.564706 0.623529 1 0.564706 0.623529 
1 0.564706 0.623529 1 0.564706 0.623529 
1 0.564706 0.623529 1 0.564706 0.623529 
1 0.564706 0.623529 1 0.564706 0.623529 
1 0.564706 0.623529 1 0.564706 0.623529 
1 0.564706 0.623529 1 0.564706 0.623529 
1 0.564706 0.623529 1 0.564706 0.623529 
1 0.564706 0.623529 1 0.564706 0.623529 
1 0.564706 0.623529 1 0.564706 0.623529 
1 0.564706 0.623529 1 0.564706 0.623529 
1 0.564706 0.623529 1 0.564706 0.623529 
1 0.564706 0.623529 1 0.564706 0.623529 
1 0.564706 0.623529 1 0.564706 0.623529 
1 0.564706 0.623529 1 0.564706 0.623529 
1 0.564706 0.623529 1 0.564706 0.623529 
1 0.564706 0.623529 1 0.564706 0.623529 
1 0.564706 0.623529 1 0.564706 0.623529 
1 0.564706 0.623529 1 0.564706 0.623529 
1 0.564706 0.623529 1 0.564706 0.623529 
1 0.564706 0.623529 1 0.564706 0.623529 
1 0.564706 0.623529 1 0.564706 0.623529 
1 0.564706 0.623529 1 0.564706 0.623529 
1 0.564706 0.623529 1 0.564706 0.623529 
1 0.564706 0.623529 1 0.564706 0.623529 
1 0.564706 0.623529 1 0.564706 0.623529 
1 0.564706 0.623529 1 0.564706 0.623529 
1 0.564706 0.623529 1 0.564706 0.623529 
1 0.564706 0.623529 1 0.564706 0.623529 
1 0.564706 0.623529 1 0.564706 0.623529 
1 0.564706 0.623529 1 0.564706 0.623529 
1 0.564706 0.623529 1 0.564706 0.623529 
1 0.564706 0.623529 1 0.564706 0.623529 
1 0.564706 0.623529 1 0.564706 0.623529 
1 0.564706 0.623529 1 0.564706 0.623529 
1 0.564706 0.623529 1 0.564706 0.623529 
1 0.564706 0.623529 1 0.564706 0.623529 
1 0.564706 0.623529 1 0.564706 0.623529 
1 0.564706 0.623529 1 0.564706 0.623529 
1 0.564706 0.623529 1 0.564706 0.623529 
1 0.564706 0.623529 1 0.564706 0.623529 
1 0.564706 0.623529 1 0.564706 0.623529 
1 0.564706 0.623529 1 0.564706 0.623529 
1 0.564706 0.623529 1 0.564706 0.623529 
1 0.564706 0.623529 1 0.564706 0.623529 
1 0.564706 0.623529 1 0.564706 0.623529 
1 0.564706 0.623529 1 0.564706 0.623529 
1 0.564706 0.623529 1 0.564706 0.623529 
1 0.564706 0.623529 1 0.564706 0.623529 
1 0.564706 0.623529 1 0.564706 0.623529 
1 0.564706 0.623529 1 0.564706 0.623529 

NORMALS Normals float
-0.139942 -0.656849 -0.740923 0.0141768 -0.44735 -0.894247 0.04271 -0.662026 -0.748263 
-0.12364 -0.855886 -0.502167 -0.0848724 -0.281177 -0.955895 0.211508 -0.303589 -0.929031 
0.263958 0.0865438 -0.960644 -0.0758992 -0.0671846 -0.99485 -0.235324 -0.505112 -0.830352 
-0.233174 -0.0599155 -0.970587 0.013838 -0.0397492 -0.999114 0.0468911 -0.0300969 -0.998446 
-0.200459 -0.787198 -0.583211 -0.047202 -0.788517 -0.6132 0.31117 -0.354713 -0.881676 
-0.125495 -0.834576 -0.536408 -0.133975 -0.699795 -0.701667 -0.163431 -0.752566 -0.637914 
0.42505 -0.131938 -0.895502 -0.289844 -0.5465 -0.785702 -0.357375 -0.201106 -0.912052 
-0.25427 -0.314018 -0.914734 0.245342 0.504988 -0.827523 -0.243302 0.128387 -0.961416 
-0.201724 0.24826 -0.947457 0.094094 0.283662 -0.954297 -0.122867 0.398424 -0.908934 
-0.00606473 0.502906 -0.86432 -0.14906 -0.906037 -0.396078 0.273694 -0.542084 -0.794504 
-0.404262 -0.564664 -0.719532 -0.0841831 -0.976916 -0.196336 -0.278916 -0.888116 -0.365316 
0.36996 0.249203 -0.895001 -0.47796 0.0210659 -0.878129 -0.359063 -0.0364566 -0.932601 
0.145154 0.31728 -0.937157 -0.389575 0.236211 -0.890189 -0.376484 0.525723 -0.762807 
-0.000554626 0.533117 -0.846041 0.119911 0.646546 -0.753392 -0.109231 0.65345 -0.749047 
0.181886 -0.594304 -0.783403 -0.145364 -0.857078 -0.494254 0.409681 -0.266165 -0.872535 
-0.236161 -0.903982 -0.356433 -0.365008 -0.867797 -0.337191 0.521627 0.216469 -0.825255 
-0.294715 -0.830717 -0.472284 -0.242256 -0.902364 -0.356442 -0.354808 -0.927248 -0.119673 
-0.522328 -0.473742 -0.709043 -0.652959 0.10257 -0.750416 0.371855 0.493932 -0.785974 
-0.436788 0.59834 -0.671718 -0.26276 0.544158 -0.796774 0.334089 -0.302425 -0.892706 
0.106656 -0.332251 -0.937141 0.103712 -0.377916 -0.920013 0.392769 -0.165195 -0.904678 
0.483822 -0.202792 -0.851347 -0.0446728 -0.793052 -0.607513 0.578007 0.00717051 -0.816 
-0.229608 -0.95588 -0.18323 -0.287334 -0.936157 -0.202604 -0.113277 -0.989199 0.0930196 
0.584821 0.243037 -0.773898 -0.661548 -0.412136 -0.626497 -0.72523 -0.475626 -0.497818 
-0.638901 0.386802 -0.664974 0.0778828 0.760615 -0.644515 0.491735 -0.468419 -0.734017 
0.355282 -0.414026 -0.838067 -0.00822502 -0.54064 -0.841214 0.615246 -0.121593 -0.778902 
-0.0480488 -0.505798 -0.861313 0.812147 0.0878792 -0.576797 0.69537 0.211078 -0.686955 
-0.462094 -0.880746 -0.10371 -0.340552 -0.937421 -0.0725731 -0.260933 -0.96402 -0.0507952 
-0.625679 -0.687514 -0.368578 -0.658308 0.462567 -0.593854 0.474594 0.626987 -0.617776 
0.348118 0.810728 -0.470674 -0.124988 0.77972 -0.613527 0.841815 -0.272786 -0.465764 
0.793378 -0.0865546 -0.602544 -0.23826 -0.597037 -0.766015 -0.278422 -0.77428 -0.568305 
-0.399112 -0.906463 -0.137964 -0.655208 -0.74218 -0.140966 -0.863113 -0.224247 -0.452493 
-0.272842 -0.955328 0.113607 -0.124891 -0.974226 0.187844 -0.132877 -0.956317 0.260387 
-0.0297052 -0.984073 0.175268 -0.262323 -0.958283 0.113488 -0.819476 0.140206 -0.555699 
0.577475 0.641341 -0.505177 0.0789002 -0.523195 -0.848553 0.316874 -0.519286 -0.793683 
0.480259 -0.421073 -0.769447 0.802066 -0.345703 -0.487011 0.863973 -0.273872 -0.422546 
0.950921 0.0364502 -0.30728 -0.337488 -0.906349 -0.254231 0.861727 0.403809 -0.307188 
-0.926277 -0.316013 -0.205296 -0.711695 -0.701438 0.0384006 -0.996166 0.0342747 -0.0804901 
-0.0962758 -0.994374 -0.0441771 -0.0924051 -0.992837 -0.0757375 -0.909272 0.195951 -0.367189 
-0.823004 0.386043 -0.416695 -0.513606 0.707101 -0.486022 0.215279 -0.619944 -0.754535 
0.46706 -0.710355 -0.526546 -0.0430087 -0.581616 -0.812326 -0.268767 -0.635972 -0.723397 
0.551733 -0.420519 -0.720246 0.8237 -0.230717 -0.517965 -0.315132 -0.570193 -0.758664 
-0.663592 -0.734893 0.139921 -0.936179 -0.329167 0.123362 -0.43706 -0.867365 0.238026 
-0.314737 -0.949125 -0.0101316 0.682651 0.691028 -0.23763 0.533393 0.843148 0.06777 
0.0985749 0.838369 -0.536116 -0.0259588 -0.868572 -0.494883 0.49439 -0.811539 -0.31142 
0.635368 -0.555723 -0.536172 0.878931 -0.369623 -0.301429 0.953385 -0.183908 -0.239237 
0.990264 -0.125065 -0.0611209 0.978164 0.185136 0.0944428 -0.371785 -0.907914 -0.193566 
-0.785383 -0.554195 0.275756 -0.753892 -0.570123 0.326505 -0.199329 -0.977162 0.0736384 
-0.960026 -0.279011 0.0224058 -0.279939 -0.953754 0.109488 -0.0425678 -0.985218 0.165931 
-0.820241 0.51463 -0.249722 0.59255 0.793058 -0.141224 -0.362107 -0.809364 -0.462395 
-0.0630673 -0.983967 -0.166827 0.547142 -0.830658 -0.103162 0.76711 -0.640577 -0.0347011 
0.784055 -0.58381 -0.21077 0.924491 -0.320727 0.206036 0.953484 -0.210166 0.216098 
0.921214 0.386993 0.0400158 -0.92544 -0.317201 0.207229 -0.282058 -0.932041 0.22747 
-0.86161 -0.50539 0.0470142 -0.602023 -0.748388 0.27836 0.728738 0.679962 0.0811905 
-0.896947 0.341752 -0.280519 -0.286562 0.87758 -0.384364 -0.434988 -0.833193 -0.341431 
-0.347966 -0.933828 -0.0829726 -0.0714132 -0.996666 0.0394679 0.388814 -0.920692 0.033902 
-0.44933 -0.883039 -0.13544 0.725018 -0.580682 0.370347 -0.516816 -0.752205 -0.408765 
-0.484637 -0.661341 -0.572498 -0.428497 -0.791594 -0.435625 0.875315 0.406244 0.262278 
-0.358103 -0.911025 0.204439 -0.964125 0.126208 -0.233524 -0.177758 -0.947088 0.267258 
-0.178194 -0.98159 0.0687657 0.318782 -0.912157 0.257582 -0.255217 -0.92656 0.276316 
-0.271111 -0.939081 0.211248 0.0302958 -0.915804 0.400481 0.294477 -0.867197 0.401564 
0.445741 -0.809559 0.382008 0.519924 -0.684765 0.510662 0.890051 0.0174549 0.455526 
0.792399 0.552481 0.258591 -0.661233 0.648786 -0.376627 0.000530606 -0.845827 0.533458 
0.141151 -0.824034 0.548675 0.308581 -0.637449 0.706001 0.688732 -0.514606 0.510713 
0.568411 -0.516421 0.640483 -0.373289 -0.925542 -0.063466 -0.42794 -0.886464 -0.176207 
-0.489352 -0.793182 -0.362486 0.761479 -0.228406 0.606614 0.833758 -0.0663185 0.548133 
-0.436751 -0.86437 -0.249224 0.582123 0.648314 0.490736 -0.160632 -0.835783 0.525037 
-0.280222 -0.917014 0.283832 0.156021 -0.72586 0.669914 0.38479 -0.483789 0.786057 
0.465203 -0.352095 0.812167 0.627082 -0.180631 0.757721 0.640862 0.00623274 0.767631 