# vtk DataFile Version 4.2
vtk output
ASCII
DATASET POLYDATA
POINTS 6933 float
279.132 215.106 40.457 277.954 215.184 40.506 279.11 215.689 40.146 
281.631 215.465 40.5006 282.268 215.617 40.4896 280.567 216.483 39.8628 
281.68 216.551 39.8916 283.92 216.81 40.105 280.616 217.13 39.6843 
281.026 217.585 39.6164 284.763 216.788 40.3524 285.961 217.818 39.9929 
288.388 218.267 40.3097 284.388 218.952 39.4392 288.532 219.391 39.7605 
289.682 218.721 40.382 290.902 219.652 40.1209 289.359 220.205 39.6129 
291.735 219.583 40.4056 286.155 220.552 39.4085 291.448 221.183 39.6089 
294.685 221.115 40.2439 288.476 221.883 39.3548 297.369 222.132 40.2507 
291.254 222.926 39.3088 296.672 223.244 39.575 297.893 222.524 40.1252 
297.909 223.286 39.7412 299.102 223.574 39.7985 295.165 223.961 39.2896 
297.43 224.083 39.415 299.704 224.323 39.5781 302.382 224.105 40.1114 
302.813 225.192 39.6724 305.667 225.144 40.1914 295.43 225.428 39.277 
297.791 225.632 39.2341 308.918 226.579 39.9554 301.894 226.75 39.2696 
306.3 226.988 39.493 309.673 227.149 39.8526 310.872 227.373 39.9465 
311.606 226.917 40.3367 312.933 227.674 40.0964 314.151 227.398 40.4629 
314.485 228.25 40.0705 316.086 228.567 40.2097 316.611 228.49 40.401 
308.648 228.549 39.4845 310.81 228.699 39.6043 312.926 228.849 39.7359 
314.963 228.918 39.9294 315.851 228.943 40.0476 277.717 214.382 41.1987 
278.731 214.094 41.4688 279.91 214.563 40.9245 280.577 214.665 41.0124 
275.964 215.878 40.9975 277.163 216.133 40.4352 283.374 215.713 40.8037 
284.666 216.359 40.6694 278.629 218.026 39.9918 284.952 220.074 39.4437 
292.913 219.979 40.5015 286.318 221.39 39.5002 287.017 221.335 39.4097 
295.849 221.256 40.4489 304.414 224.353 40.485 307.668 225.308 40.5356 
308.01 225.105 40.8532 310.617 226.174 40.6274 300.046 227.318 39.3074 
312.385 226.571 40.8361 315.186 227.48 40.6792 316.071 227.65 40.8516 
297.414 228.355 39.8204 305.095 229.029 39.4432 307.186 229.186 39.4705 
313.532 229.541 39.7181 315.556 229.522 39.9076 317.646 229.602 40.2532 
318.687 229.413 40.5402 320.668 229.093 41.1472 322.984 229.813 41.0113 
309.949 230.051 39.623 316.215 230.172 39.94 317.248 230.186 40.072 
319.395 230.208 40.3816 321.563 230.329 40.604 323.667 229.747 41.1534 
324.707 230.442 40.9496 325.932 230.823 40.9818 322.135 230.977 40.4889 
323.791 231.648 40.5364 276.66 214.496 41.6113 274.864 215.672 41.819 
283.418 215.369 41.2513 283.665 215.143 41.7899 273.909 216.524 41.8937 
273.12 217.488 41.9576 272.461 217.267 42.3946 287.345 216.81 41.4991 
273.024 217.996 41.894 274.397 218 41.3937 290.473 218.146 41.3436 
273.945 218.571 41.5573 275.78 219.387 41.0998 297.326 221.193 41.1451 
286.048 222.296 39.789 298.945 221.967 40.9723 299.405 221.694 41.5411 
303.234 223.034 41.5513 289.967 225.108 39.9539 310.079 225.371 41.3694 
318.027 227.805 41.4788 319.347 228.281 41.4683 324.965 229.243 41.9378 
327.922 230.589 41.7485 300.765 230.9 40.3561 311.304 231.526 39.9278 
329.352 230.872 41.9891 331.793 231.888 42.1743 331.681 231.719 42.17 
331.838 231.739 42.3072 324.454 232.337 40.5604 327.264 232.46 40.8828 
329.975 232.298 41.5136 315.849 233.004 40.3198 326.106 233.1 40.7235 
328.782 233.023 41.1337 318.609 233.812 40.5736 322.72 233.84 40.645 
331.519 233.275 42.122 326.401 234.521 40.9422 329.093 234.372 41.2879 
331.807 233.698 42.4673 277.074 213.871 42.207 274.512 215.295 42.3352 
273.527 216.264 42.2212 273.437 215.876 42.5547 285.591 215.812 41.9604 
288.594 217.003 41.9561 270.66 218.724 42.9472 271.277 218.974 42.6274 
272.173 219.561 42.298 273.476 219.905 41.9355 294.312 219.286 42.1487 
298.103 220.809 42.1726 304.072 222.907 42.2162 313.033 225.885 41.9852 
316.983 226.874 42.2612 322.215 228.311 42.4709 326.992 229.642 42.3014 
329.311 230.436 42.3244 332.114 232.003 42.8077 307.963 234.242 41.0415 
332.359 233.059 43.1728 331.144 234.7 42.1768 328.605 235.775 41.507 
330.077 236.537 42.1497 331.892 235.683 43.1708 279.621 213.234 43.14 
274.163 215.047 42.8557 269.031 218.601 43.8044 269.824 219.573 43.2729 
268.272 220.069 43.8679 269.374 220.036 43.4518 270.86 221.453 43.2005 
305.76 222.919 43.2521 321.688 227.911 42.8844 327.139 228.994 43.3458 
329.926 229.956 43.2805 331.669 231.298 42.783 332.301 232.001 43.4185 
332.575 233.308 43.7311 332.592 234.868 44.0399 317.849 238.122 42.1606 
331.548 237.48 43.4778 331.545 238.248 43.757 324.954 239.703 42.7167 
330.664 239.084 43.4821 328.767 239.856 43.1141 276.753 213.048 44.1213 
281.898 213.452 43.9902 269.346 217.64 44.1021 265.811 219.797 44.9409 
267.363 220.486 44.2538 272.447 223.653 43.6096 314.989 225.428 44.1562 
332.71 232.731 44.3424 330.916 240.487 44.2698 268.95 217.275 44.7002 
263.905 219.531 45.9673 263.869 220.025 45.7762 264.215 220.349 45.5454 
302.493 221.049 45.0184 265.588 221.88 45.0864 310.951 223.918 44.947 
311.98 224.253 44.9189 320.461 226.796 44.5896 325.102 227.854 44.8651 
329.905 229.346 44.5089 331.211 230.124 44.3972 331.851 230.829 44.0327 
332.401 231.411 44.7787 333.004 233.68 45.2983 332.834 237.322 45.6168 
332.715 238.273 45.7059 331.291 241.007 44.8015 326.979 242.143 43.9381 
331.528 242.344 45.6813 307.301 243.341 44.8245 329.04 243.457 44.9392 
330.658 243.125 45.4319 278.456 211.452 46.9217 279.873 211.602 46.8522 
280.581 211.822 46.7289 273.498 213.67 46.0752 267.84 216.521 46.5293 
263.194 219.175 46.5902 295.023 217.891 45.8042 262.028 220.353 46.5501 
263.675 221.258 45.7577 332.566 231.411 45.6579 332.646 240.359 46.6086 
331.144 243.592 46.039 330.79 244.472 46.2484 319.595 245.871 45.404 
325.541 245.859 45.6262 329.186 245.348 45.9728 280.164 211.298 47.6105 
267.643 216.233 47.22 262.513 219.669 46.6345 259.546 220.307 47.7074 
258.097 221.132 47.9495 259.826 222.772 47.2803 263.861 224.972 46.5862 
331.374 229.663 46.0286 332.684 241.506 47.4186 332.45 243.158 47.719 
295.98 244.711 46.7356 331.146 244.945 46.8018 330.896 245.692 47.0494 
330.161 246.64 47.1537 331.655 245.673 47.8843 311.496 247.788 46.499 
275.881 211.754 47.9141 260.254 219.627 47.799 260.855 218.8 48.2277 
255.99 221.394 48.7802 255.312 221.266 49.1237 257.766 223.089 48.0236 
311.458 223.002 48.2966 329.72 228.402 47.5028 331.244 229.308 47.1028 
331.762 229.7 47.1601 328.284 248.031 47.2789 330.359 247.696 48.0781 
331.922 246.068 48.8923 304.119 248.9 47.5202 277.812 210.561 49.3472 
290.406 214.859 49.2604 257.605 219.25 49.396 259.646 218.653 49.056 
254.088 221.884 49.5119 253.489 222.456 49.6459 256.68 222.665 48.4193 
255.408 223.35 48.9776 332.048 229.959 47.4534 333.315 234.899 49.559 
333.121 239.26 48.7948 289.298 246.458 48.8038 323.627 251.045 48.2858 
318.546 251.854 48.4822 327.836 251.052 49.0145 279.455 209.826 50.9542 
281.836 211.028 49.7331 252.043 221.802 50.3968 253.021 220.601 50.5878 
254.056 220.563 50.0931 251.692 222.11 50.4603 253.586 224.251 49.8001 
256.924 226.135 49.245 332.896 242.451 50.518 331.119 249.272 50.2973 
299.638 251.894 49.3547 330.213 250.967 50.4237 328.816 252.037 50.098 
278.605 209.789 51.3321 280.752 209.915 51.9691 275.49 211.033 50.6614 
281.803 210.62 50.9538 255.162 219.167 50.8633 249.702 221.527 51.4852 
246.989 222.42 51.9236 246.412 222.185 52.1737 248.091 221.846 51.8343 
248.477 223.699 51.4238 251.295 224.1 50.6673 250.759 225.394 51.1187 
330.716 228.186 50.0179 331.861 248.222 51.5718 331.666 248.986 51.6743 
330.705 251.281 51.4329 309.419 255.735 50.5751 279.114 209.531 52.5873 
277.227 210.051 51.6818 267.425 214.611 51.3815 253.881 219.048 51.7764 
252.629 219.581 51.7312 249.196 221.191 51.8322 248.887 220.602 52.3847 
250.948 220.238 51.9052 244.396 222.397 52.7286 328.666 226.805 51.829 
331.371 228.471 50.7324 332.302 229.53 51.3182 332.993 231.111 51.912 
331.656 249.396 52.3427 288.832 252.193 51.338 331.157 250.915 52.148 
330.006 253.421 52.4591 293.568 255.213 51.7418 326.572 254.988 51.2177 
328.511 254.978 52.2126 326.899 256.092 52.1123 283.401 210.841 52.7239 
249.748 219.545 53.2055 244.864 221.475 53.0442 246.488 221.169 52.6824 
237.545 222.367 54.291 238.186 221.975 54.2953 239.459 222.409 53.9474 
241.693 222.487 53.5139 241.065 221.888 53.8558 308.995 221.048 52.9255 
240.588 223.168 53.6127 240.987 223.581 53.5413 243.634 223.208 52.9257 
244.319 224.901 52.9743 317.043 223.589 52.9366 331.898 228.841 51.4667 
331.591 228.402 51.8587 332.468 229.547 52.4895 332.959 239.891 53.1485 
275.303 248.527 52.7517 331.662 249.522 53.557 330.223 253.702 53.4406 
329.113 255.45 53.4515 328.288 256.376 53.3426 319.48 258.744 52.542 
325.872 258.293 53.2902 252.588 218.303 53.8079 240.587 221.344 54.2642 
240.187 220.878 54.7291 242.362 221.333 53.8733 243.769 220.652 54.0734 
245.745 220.307 53.8035 234.847 222.499 54.9869 236.013 222.364 54.7075 
235.587 221.921 54.9843 235.442 222.768 54.7907 237.112 223.131 54.3419 
237.72 223.382 54.196 239.435 223.54 53.8557 239.991 224.161 53.8398 
242.994 225.178 53.4298 322.528 224.678 54.411 329.75 226.845 53.5003 
332.85 230.177 53.9748 333.111 231.68 53.5606 332.133 247.028 53.8104 
331.926 248.29 53.6812 330.644 253.062 54.2563 329.96 254.808 54.8568 
329.347 255.949 54.4637 329.283 256.262 54.9105 328.247 257.782 54.7258 
325.9 259.428 54.1825 303.431 260.807 53.5683 278.58 209.227 55.5891 
280.805 209.322 55.2356 244.512 219.956 54.682 231.903 221.657 56.0163 
233.906 221.552 55.6773 236.354 220.882 55.6074 237.263 220.755 55.5171 
238.421 221.078 54.8812 309.506 220.773 55.106 228.297 221.992 56.5798 
229.098 221.756 56.506 232.877 222.476 55.5083 228.763 222.739 56.272 
229.819 222.863 56.0149 230.904 223.327 55.7656 231.273 222.916 55.7189 
235.674 223.439 54.7623 315.411 222.819 54.28 232.252 223.662 55.5439 
232.962 223.649 55.4164 238.984 225.115 54.3802 244.867 227.454 53.8769 
330.916 227.334 53.8034 330.427 253.468 55.4138 329.892 255.086 55.429 
327.987 259.109 56.0352 298.596 261.787 54.483 322.771 262.268 55.259 
310.099 263.248 54.8696 274.782 210.249 56.2161 256.195 216.63 55.3193 
[...]
POINT_DATA 6933
COLOR_SCALARS scalars 3
0.415686 0.796078 0.729412 0.415686 0.796078 0.729412 0.415686 0.796078 0.729412 
0.415686 0.796078 0.729412 0.415686 0.796078 0.729412 
0.415686 0.796078 0.729412 0.415686 0.796078 0.729412 
0.415686 0.796078 0.729412 0.415686 0.796078 0.729412 
0.415686 0.796078 0.729412 0.415686 0.796078 0.729412 
0.415686 0.796078 0.729412 0.415686 0.796078 0.729412 
0.415686 0.796078 0.729412 0.415686 0.796078 0.729412 
0.415686 0.796078 0.729412 0.415686 0.796078 0.729412 
0.415686 0.796078 0.729412 0.415686 0.796078 0.729412 
0.415686 0.796078 0.729412 0.415686 0.796078 0.729412 
0.415686 0.796078 0.729412 0.415686 0.796078 0.729412 
0.415686 0.796078 0.729412 0.415686 0.796078 0.729412 
0.415686 0.796078 0.729412 0.415686 0.796078 0.729412 
0.415686 0.796078 0.729412 0.415686 0.796078 0.729412 
0.415686 0.796078 0.729412 0.415686 0.796078 0.729412 
0.415686 0.796078 0.729412 0.415686 0.796078 0.729412 
0.415686 0.796078 0.729412 0.415686 0.796078 0.729412 
0.415686 0.796078 0.729412 0.415686 0.796078 0.729412 
0.415686 0.796078 0.729412 0.415686 0.796078 0.729412 
0.415686 0.796078 0.729412 0.415686 0.796078 0.729412 
0.415686 0.796078 0.729412 0.415686 0.796078 0.729412 
0.415686 0.796078 0.729412 0.415686 0.796078 0.729412 
0.415686 0.796078 0.729412 0.415686 0.796078 0.729412 
0.415686 0.796078 0.729412 0.415686 0.796078 0.729412 
0.415686 0.796078 0.729412 0.415686 0.796078 0.729412 
0.415686 0.796078 0.729412 0.415686 0.796078 0.729412 
0.415686 0.796078 0.729412 0.415686 0.796078 0.729412 
0.415686 0.796078 0.729412 0.415686 0.796078 0.729412 
0.415686 0.796078 0.729412 0.415686 0.796078 0.729412 
0.415686 0.796078 0.729412 0.415686 0.796078 0.729412 
0.415686 0.796078 0.729412 0.415686 0.796078 0.729412 
0.415686 0.796078 0.729412 0.415686 0.796078 0.729412 
0.415686 0.796078 0.729412 0.415686 0.796078 0.729412 
0.415686 0.796078 0.729412 0.415686 0.796078 0.729412 
0.415686 0.796078 0.729412 0.415686 0.796078 0.729412 
0.415686 0.796078 0.729412 0.415686 0.796078 0.729412 
0.415686 0.796078 0.729412 0.415686 0.796078 0.729412 
0.415686 0.796078 0.729412 0.415686 0.796078 0.729412 
0.415686 0.796078 0.729412 0.415686 0.796078 0.729412 
0.415686 0.796078 0.729412 0.415686 0.796078 0.729412 
0.415686 0.796078 0.729412 0.415686 0.796078 0.729412 
0.415686 0.796078 0.729412 0.415686 0.796078 0.729412 
0.415686 0.796078 0.729412 0.415686 0.796078 0.729412 
0.415686 0.796078 0.729412 0.415686 0.796078 0.729412 
0.415686 0.796078 0.729412 0.415686 0.796078 0.729412 
0.415686 0.796078 0.729412 0.415686 0.796078 0.729412 
0.415686 0.796078 0.729412 0.415686 0.796078 0.729412 
0.415686 0.796078 0.729412 0.415686 0.796078 0.729412 
0.415686 0.796078 0.729412 0.415686 0.796078 0.729412 
0.415686 0.796078 0.729412 0.415686 0.796078 0.729412 
0.415686 0.796078 0.729412 0.415686 0.796078 0.729412 
0.415686 0.796078 0.729412 0.415686 0.796078 0.729412 
0.415686 0.796078 0.729412 0.415686 0.796078 0.729412 
0.415686 0.796078 0.729412 0.415686 0.796078 0.729412 
0.415686 0.796078 0.729412 0.415686 0.796078 0.729412 
0.415686 0.796078 0.729412 0.415686 0.796078 0.729412 
0.415686 0.796078 0.729412 0.415686 0.796078 0.729412 
0.415686 0.796078 0.729412 0.415686 0.796078 0.729412 
0.415686 0.796078 0.729412 0.415686 0.796078 0.729412 
0.415686 0.796078 0.729412 0.415686 0.796078 0.729412 
0.415686 0.796078 0.729412 0.415686 0.796078 0.729412 
0.415686 0.796078 0.729412 0.415686 0.796078 0.729412 
0.415686 0.796078 0.729412 0.415686 0.796078 0.729412 
0.415686 0.796078 0.729412 0.415686 0.796078 0.729412 
0.415686 0.796078 0.729412 0.415686 0.796078 0.729412 
0.415686 0.796078 0.729412 0.415686 0.796078 0.729412 
0.415686 0.796078 0.729412 0.415686 0.796078 0.729412 
0.415686 0.796078 0.729412 0.415686 0.796078 0.729412 
0.415686 0.796078 0.729412 0.415686 0.796078 0.729412 
0.415686 0.796078 0.729412 0.415686 0.796078 0.729412 
0.415686 0.796078 0.729412 0.415686 0.796078 0.729412 
0.415686 0.796078 0.729412 0.415686 0.796078 0.729412 
0.415686 0.796078 0.729412 0.415686 0.796078 0.729412 
0.415686 0.796078 0.729412 0.415686 0.796078 0.729412 
0.415686 0.796078 0.729412 0.415686 0.796078 0.729412 
0.415686 0.796078 0.729412 0.415686 0.796078 0.729412 
0.415686 0.796078 0.729412 0.415686 0.796078 0.729412 
0.415686 0.796078 0.729412 0.415686 0.796078 0.729412 
0.415686 0.796078 0.729412 0.415686 0.796078 0.729412 
0.415686 0.796078 0.729412 0.415686 0.796078 0.729412 
0.415686 0.796078 0.729412 0.415686 0.796078 0.729412 
0.415686 0.796078 0.729412 0.415686 0.796078 0.729412 
0.415686 0.796078 0.729412 0.415686 0.796078 0.729412 
0.415686 0.796078 0.729412 0.415686 0.796078 0.729412 
0.415686 0.796078 0.729412 0.415686 0.796078 0.729412 
0.415686 0.796078 0.729412 0.415686 0.796078 0.729412 
0.415686 0.796078 0.729412 0.415686 0.796078 0.729412 
0.415686 0.796078 0.729412 0.415686 0.796078 0.729412 
0.415686 0.796078 0.729412 0.415686 0.796078 0.729412 
0.415686 0.796078 0.729412 0.415686 0.796078 0.729412 
0.415686 0.796078 0.729412 0.415686 0.796078 0.729412 
0.415686 0.796078 0.729412 0.415686 0.796078 0.729412 
0.415686 0.796078 0.729412 0.415686 0.796078 0.729412 
0.415686 0.796078 0.729412 0.415686 0.796078 0.729412 
0.415686 0.796078 0.729412 0.415686 0.796078 0.729412 
0.415686 0.796078 0.729412 0.415686 0.796078 0.729412 
0.415686 0.796078 0.729412 0.415686 0.796078 0.729412 
0.415686 0.796078 0.729412 0.415686 0.796078 0.729412 
0.415686 0.796078 0.729412 0.415686 0.796078 0.729412 
0.415686 0.796078 0.729412 0.415686 0.796078 0.729412 
0.415686 0.796078 0.729412 0.415686 0.796078 0.729412 
0.415686 0.796078 0.729412 0.415686 0.796078 0.729412 
0.415686 0.796078 0.729412 0.415686 0.796078 0.729412 
0.415686 0.796078 0.729412 0.415686 0.796078 0.729412 
0.415686 0.796078 0.729412 0.415686 0.796078 0.729412 
0.415686 0.796078 0.729412 0.415686 0.796078 0.729412 
0.415686 0.796078 0.729412 0.415686 0.796078 0.729412 
0.415686 0.796078 0.729412 0.415686 0.796078 0.729412 
0.415686 0.796078 0.729412 0.415686 0.796078 0.729412 
0.415686 0.796078 0.729412 0.415686 0.796078 0.729412 
0.415686 0.796078 0.729412 0.415686 0.796078 0.729412 
0.415686 0.796078 0.729412 0.415686 0.796078 0.729412 
0.415686 0.796078 0.729412 0.415686 0.796078 0.729412 
0.415686 0.796078 0.729412 0.415686 0.796078 0.729412 
0.415686 0.796078 0.729412 0.415686 0.796078 0.729412 
0.415686 0.796078 0.729412 0.415686 0.796078 0.729412 
0.415686 0.796078 0.729412 0.415686 0.796078 0.729412 
0.415686 0.796078 0.729412 0.415686 0.796078 0.729412 
0.415686 0.796078 0.729412 0.415686 0.796078 0.729412 
0.415686 0.796078 0.729412 0.415686 0.796078 0.729412 
0.415686 0.796078 0.729412 0.415686 0.796078 0.729412 
0.415686 0.796078 0.729412 0.415686 0.796078 0.729412 
0.415686 0.796078 0.729412 0.415686 0.796078 0.729412 
0.415686 0.796078 0.729412 0.415686 0.796078 0.729412 
0.415686 0.796078 0.729412 0.415686 0.796078 0.729412 
0.415686 0.796078 0.729412 0.415686 0.796078 0.729412 
0.415686 0.796078 0.729412 0.415686 0.796078 0.729412 
0.415686 0.796078 0.729412 0.415686 0.796078 0.729412 
0.415686 0.796078 0.729412 0.415686 0.796078 0.729412 
0.415686 0.796078 0.729412 0.415686 0.796078 0.729412 
0.415686 0.796078 0.729412 0.415686 0.796078 0.729412 
0.415686 0.796078 0.729412 0.415686 0.796078 0.729412 
0.415686 0.796078 0.729412 0.415686 0.796078 0.729412 
0.415686 0.796078 0.729412 0.415686 0.796078 0.729412 
0.415686 0.796078 0.729412 0.415686 0.796078 0.729412 
0.415686 0.796078 0.729412 0.415686 0.796078 0.729412 
0.415686 0.796078 0.729412 0.415686 0.796078 0.729412 
0.415686 0.796078 0.729412 0.415686 0.796078 0.729412 
0.415686 0.796078 0.729412 0.415686 0.796078 0.729412 
0.415686 0.796078 0.729412 0.415686 0.796078 0.729412 
0.415686 0.796078 0.729412 0.415686 0.796078 0.729412 
0.415686 0.796078 0.729412 0.415686 0.796078 0.729412 
0.415686 0.796078 0.729412 0.415686 0.796078 0.729412 
0.415686 0.796078 0.729412 0.415686 0.796078 0.729412 
0.415686 0.796078 0.729412 0.415686 0.796078 0.729412 
0.415686 0.796078 0.729412 0.415686 0.796078 0.729412 
0.415686 0.796078 0.729412 0.415686 0.796078 0.729412 
0.415686 0.796078 0.729412 0.415686 0.796078 0.729412 
0.415686 0.796078 0.729412 0.415686 0.796078 0.729412 
0.415686 0.796078 0.729412 0.415686 0.796078 0.729412 
0.415686 0.796078 0.729412 0.415686 0.796078 0.729412 
0.415686 0.796078 0.729412 0.415686 0.796078 0.729412 
0.415686 0.796078 0.729412 0.415686 0.796078 0.729412 
0.415686 0.796078 0.729412 0.415686 0.796078 0.729412 
0.415686 0.796078 0.729412 0.415686 0.796078 0.729412 
0.415686 0.796078 0.729412 0.415686 0.796078 0.729412 
0.415686 0.796078 0.729412 0.415686 0.796078 0.729412 
0.415686 0.796078 0.729412 0.415686 0.796078 0.729412 
0.415686 0.796078 0.729412 0.415686 0.796078 0.729412 
0.415686 0.796078 0.729412 0.415686 0.796078 0.729412 
0.415686 0.796078 0.729412 0.415686 0.796078 0.729412 
0.415686 0.796078 0.729412 0.415686 0.796078 0.729412 
0.415686 0.796078 0.729412 0.415686 0.796078 0.729412 
0.415686 0.796078 0.729412 0.415686 0.796078 0.729412 
0.415686 0.796078 0.729412 0.415686 0.796078 0.729412 
0.415686 0.796078 0.729412 0.415686 0.796078 0.729412 
0.415686 0.796078 0.729412 0.415686 0.796078 0.729412 
0.415686 0.796078 0.729412 0.415686 0.796078 0.729412 
0.415686 0.796078 0.729412 0.415686 0.796078 0.729412 
0.415686 0.796078 0.729412 0.415686 0.796078 0.729412 
0.415686 0.796078 0.729412 0.415686 0.796078 0.729412 
0.415686 0.796078 0.729412 0.415686 0.796078 0.729412 
0.415686 0.796078 0.729412 0.415686 0.796078 0.729412 
0.415686 0.796078 0.729412 0.415686 0.796078 0.729412 
0.415686 0.796078 0.729412 0.415686 0.796078 0.729412 
0.415686 0.796078 0.729412 0.415686 0.796078 0.729412 
0.415686 0.796078 0.729412 0.415686 0.796078 0.729412 
0.415686 0.796078 0.729412 0.415686 0.796078 0.729412 
0.415686 0.796078 0.729412 0.415686 0.796078 0.729412 
0.415686 0.796078 0.729412 0.415686 0.796078 0.729412 
0.415686 0.796078 0.729412 0.415686 0.796078 0.729412 
0.415686 0.796078 0.729412 0.415686 0.796078 0.729412 
0.415686 0.796078 0.729412 0.415686 0.796078 0.729412 
0.415686 0.796078 0.729412 0.415686 0.796078 0.729412 
0.415686 0.796078 0.729412 0.415686 0.796078 0.729412 
0.415686 0.796078 0.729412 0.415686 0.796078 0.729412 
0.415686 0.796078 0.729412 0.415686 0.796078 0.729412 
0.415686 0.796078 0.729412 0.415686 0.796078 0.729412 
0.415686 0.796078 0.729412 0.415686 0.796078 0.729412 
0.415686 0.796078 0.729412 0.415686 0.796078 0.729412 
0.415686 0.796078 0.729412 0.415686 0.796078 0.729412 
0.415686 0.796078 0.729412 0.415686 0.796078 0.729412 
0.415686 0.796078 0.729412 0.415686 0.796078 0.729412 
0.415686 0.796078 0.729412 0.415686 0.796078 0.729412 
0.415686 0.796078 0.729412 0.415686 0.796078 0.729412 
0.415686 0.796078 0.729412 0.415686 0.796078 0.729412 
0.415686 0.796078 0.729412 0.415686 0.796078 0.729412 
0.415686 0.796078 0.729412 0.415686 0.796078 0.729412 
0.415686 0.796078 0.729412 0.415686 0.796078 0.729412 
0.415686 0.796078 0.729412 0.415686 0.796078 0.729412 
0.415686 0.796078 0.729412 0.415686 0.796078 0.729412 
0.415686 0.796078 0.729412 0.415686 0.796078 0.729412 
0.415686 0.796078 0.729412 0.415686 0.796078 0.729412 
0.415686 0.796078 0.729412 0.415686 0.796078 0.729412 
0.415686 0.796078 0.729412 0.415686 0.796078 0.729412 
0.415686 0.796078 0.729412 0.415686 0.796078 0.729412 
0.415686 0.796078 0.729412 0.415686 0.796078 0.729412 
0.415686 0.796078 0.729412 0.415686 0.796078 0.729412 
0.415686 0.796078 0.729412 0.415686 0.796078 0.729412 
0.415686 0.796078 0.729412 0.415686 0.796078 0.729412 
0.415686 0.796078 0.729412 0.415686 0.796078 0.729412 
0.415686 0.796078 0.729412 0.415686 0.796078 0.729412 
0.415686 0.796078 0.729412 0.415686 0.796078 0.729412 
0.415686 0.796078 0.729412 0.415686 0.796078 0.729412 
0.415686 0.796078 0.729412 0.415686 0.796078 0.729412 
0.415686 0.796078 0.729412 0.415686 0.796078 0.729412 
0.415686 0.796078 0.729412 0.415686 0.796078 0.729412 
0.415686 0.796078 0.729412 0.415686 0.796078 0.729412 
0.415686 0.796078 0.729412 0.415686 0.796078 0.729412 
0.415686 0.796078 0.729412 0.415686 0.796078 0.729412 
0.415686 0.796078 0.729412 0.415686 0.796078 0.729412 
0.415686 0.796078 0.729412 0.415686 0.796078 0.729412 
0.415686 0.796078 0.729412 0.415686 0.796078 0.729412 
0.415686 0.796078 0.729412 0.415686 0.796078 0.729412 
0.415686 0.796078 0.729412 0.415686 0.796078 0.729412 
0.415686 0.796078 0.729412 0.415686 0.796078 0.729412 
0.415686 0.796078 0.729412 0.415686 0.796078 0.729412 
0.415686 0.796078 0.729412 0.415686 0.796078 0.729412 
0.415686 0.796078 0.729412 0.415686 0.796078 0.729412 
0.415686 0.796078 0.729412 0.415686 0.796078 0.729412 
0.415686 0.796078 0.729412 0.415686 0.796078 0.729412 
0.415686 0.796078 0.729412 0.415686 0.796078 0.729412 
0.415686 0.796078 0.729412 0.415686 0.796078 0.729412 
0.415686 0.796078 0.729412 0.415686 0.796078 0.729412 
0.415686 0.796078 0.729412 0.415686 0.796078 0.729412 
0.415686 0.796078 0.729412 0.415686 0.796078 0.729412 
0.415686 0.796078 0.729412 0.415686 0.796078 0.729412 
0.415686 0.796078 0.729412 0.415686 0.796078 0.729412 
0.415686 0.796078 0.729412 0.415686 0.796078 0.729412 
0.415686 0.796078 0.729412 0.415686 0.796078 0.729412 
0.415686 0.796078 0.729412 0.415686 0.796078 0.729412 
0.415686 0.796078 0.729412 0.415686 0.796078 0.729412 
0.415686 0.796078 0.729412 0.415686 0.796078 0.729412 
0.415686 0.796078 0.729412 0.415686 0.796078 0.729412 
0.415686 0.796078 0.729412 0.415686 0.796078 0.729412 
0.415686 0.796078 0.729412 0.415686 0.796078 0.729412 
0.415686 0.796078 0.729412 0.415686 0.796078 0.729412 
0.415686 0.796078 0.729412 0.415686 0.796078 0.729412 
0.415686 0.796078 0.729412 0.415686 0.796078 0.729412 
0.415686 0.796078 0.729412 0.415686 0.796078 0.729412 
0.415686 0.796078 0.729412 0.415686 0.796078 0.729412 
0.415686 0.796078 0.729412 0.415686 0.796078 0.729412 
0.415686 0.796078 0.729412 0.415686 0.796078 0.729412 
0.415686 0.796078 0.729412 0.415686 0.796078 0.729412 
0.415686 0.796078 0.729412 0.415686 0.796078 0.729412 
0.415686 0.796078 0.729412 0.415686 0.796078 0.729412 
0.415686 0.796078 0.729412 0.415686 0.796078 0.729412 
0.415686 0.796078 0.729412 0.415686 0.796078 0.729412 
0.415686 0.796078 0.729412 0.415686 0.796078 0.729412 
0.415686 0.796078 0.729412 0.415686 0.796078 0.729412 
0.415686 0.796078 0.729412 0.415686 0.796078 0.729412 
0.415686 0.796078 0.729412 0.415686 0.796078 0.729412 
0.415686 0.796078 0.729412 0.415686 0.796078 0.729412 
0.415686 0.796078 0.729412 0.415686 0.796078 0.729412 
0.415686 0.796078 0.729412 0.415686 0.796078 0.729412 
0.415686 0.796078 0.729412 0.415686 0.796078 0.729412 
0.415686 0.796078 0.729412 0.415686 0.796078 0.729412 
0.415686 0.796078 0.729412 0.415686 0.796078 0.729412 
0.415686 0.796078 0.729412 0.415686 0.796078 0.729412 
0.415686 0.796078 0.729412 0.415686 0.796078 0.729412 
0.415686 0.796078 0.729412 0.415686 0.796078 0.729412 
0.415686 0.796078 0.729412 0.415686 0.796078 0.729412 
0.415686 0.796078 0.729412 0.415686 0.796078 0.729412 
0.415686 0.796078 0.729412 0.415686 0.796078 0.729412 
0.415686 0.796078 0.729412 0.415686 0.796078 0.729412 
0.415686 0.796078 0.729412 0.415686 0.796078 0.729412 
0.415686 0.796078 0.729412 0.415686 0.796078 0.729412 
0.415686 0.796078 0.729412 0.415686 0.796078 0.729412 
0.415686 0.796078 0.729412 0.415686 0.796078 0.729412 
0.415686 0.796078 0.729412 0.415686 0.796078 0.729412 
0.415686 0.796078 0.729412 0.415686 0.796078 0.729412 
0.415686 0.796078 0.729412 0.415686 0.796078 0.729412 
0.415686 0.796078 0.729412 0.415686 0.796078 0.729412 
0.415686 0.796078 0.729412 0.415686 0.796078 0.729412 
0.415686 0.796078 0.729412 0.415686 0.796078 0.729412 
0.415686 0.796078 0.729412 0.415686 0.796078 0.729412 
0.415686 0.796078 0.729412 0.415686 0.796078 0.729412 
0.415686 0.796078 0.729412 0.415686 0.796078 0.729412 
0.415686 0.796078 0.729412 0.415686 0.796078 0.729412 
0.415686 0.796078 0.729412 0.415686 0.796078 0.729412 
0.415686 0.796078 0.729412 0.415686 0.796078 0.729412 
0.415686 0.796078 0.729412 0.415686 0.796078 0.729412 
0.415686 0.796078 0.729412 0.415686 0.796078 0.729412 
0.415686 0.796078 0.729412 0.415686 0.796078 0.729412 
0.415686 0.796078 0.729412 0.415686 0.796078 0.729412 
0.415686 0.796078 0.729412 0.415686 0.796078 0.729412 
0.415686 0.796078 0.729412 0.415686 0.796078 0.729412 
0.415686 0.796078 0.729412 0.415686 0.796078 0.729412 
0.415686 0.796078 0.729412 0.415686 0.796078 0.729412 
0.415686 0.796078 0.729412 0.415686 0.796078 0.729412 
0.415686 0.796078 0.729412 0.415686 0.796078 0.729412 
0.415686 0.796078 0.729412 0.415686 0.796078 0.729412 
0.415686 0.796078 0.729412 0.415686 0.796078 0.729412 
0.415686 0.796078 0.729412 0.415686 0.796078 0.729412 
0.415686 0.796078 0.729412 0.415686 0.796078 0.729412 
0.415686 0.796078 0.729412 0.415686 0.796078 0.729412 
0.415686 0.796078 0.729412 0.415686 0.796078 0.729412 
0.415686 0.796078 0.729412 0.415686 0.796078 0.729412 
0.415686 0.796078 0.729412 0.415686 0.796078 0.729412 
0.415686 0.796078 0.729412 0.415686 0.796078 0.729412 
0.415686 0.796078 0.729412 0.415686 0.796078 0.729412 
0.415686 0.796078 0.729412 0.415686 0.796078 0.729412 
0.415686 0.796078 0.729412 0.415686 0.796078 0.729412 
0.415686 0.796078 0.729412 0.415686 0.796078 0.729412 
0.415686 0.796078 0.729412 0.415686 0.796078 0.729412 
0.415686 0.796078 0.729412 0.415686 0.796078 0.729412 
0.415686 0.796078 0.729412 0.415686 0.796078 0.729412 
0.415686 0.796078 0.729412 0.415686 0.796078 0.729412 
0.415686 0.796078 0.729412 0.415686 0.796078 0.729412 
0.415686 0.796078 0.729412 0.415686 0.796078 0.729412 
0.415686 0.796078 0.729412 0.415686 0.796078 0.729412 
0.415686 0.796078 0.729412 0.415686 0.796078 0.729412 
0.415686 0.796078 0.729412 0.415686 0.796078 0.729412 
0.415686 0.796078 0.729412 0.415686 0.796078 0.729412 
0.415686 0.796078 0.729412 0.415686 0.796078 0.729412 
0.415686 0.796078 0.729412 0.415686 0.796078 0.729412 
0.415686 0.796078 0.729412 0.415686 0.796078 0.729412 
0.415686 0.796078 0.729412 0.415686 0.796078 0.729412 
0.415686 0.796078 0.729412 0.415686 0.796078 0.729412 
0.415686 0.796078 0.729412 0.415686 0.796078 0.729412 
0.415686 0.796078 0.729412 0.415686 0.796078 0.729412 
0.415686 0.796078 0.729412 0.415686 0.796078 0.729412 
0.415686 0.796078 0.729412 0.415686 0.796078 0.729412 
0.415686 0.796078 0.729412 0.415686 0.796078 0.729412 
0.415686 0.796078 0.729412 0.415686 0.796078 0.729412 
0.415686 0.796078 0.729412 0.415686 0.796078 0.729412 
0.415686 0.796078 0.729412 0.415686 0.796078 0.729412 
0.415686 0.796078 0.729412 0.415686 0.796078 0.729412 
0.415686 0.796078 0.729412 0.415686 0.796078 0.729412 
0.415686 0.796078 0.729412 0.415686 0.796078 0.729412 
0.415686 0.796078 0.729412 0.415686 0.796078 0.729412 
0.415686 0.796078 0.729412 0.415686 0.796078 0.729412 
0.415686 0.796078 0.729412 0.415686 0.796078 0.729412 
0.415686 0.796078 0.729412 0.415686 0.796078 0.729412 
0.415686 0.796078 0.729412 0.415686 0.796078 0.729412 
0.415686 0.796078 0.729412 0.415686 0.796078 0.729412 
0.415686 0.796078 0.729412 0.415686 0.796078 0.729412 
0.415686 0.796078 0.729412 0.415686 0.796078 0.729412 
0.415686 0.796078 0.729412 0.415686 0.796078 0.729412 
0.415686 0.796078 0.729412 0.415686 0.796078 0.729412 
0.415686 0.796078 0.729412 0.415686 0.796078 0.729412 
0.415686 0.796078 0.729412 0.415686 0.796078 0.729412 
0.415686 0.796078 0.729412 0.415686 0.796078 0.729412 
0.415686 0.796078 0.729412 0.415686 0.796078 0.729412 
0.415686 0.796078 0.729412 0.415686 0.796078 0.729412 
0.415686 0.796078 0.729412 0.415686 0.796078 0.729412 
0.415686 0.796078 0.729412 0.415686 0.796078 0.729412 
0.415686 0.796078 0.729412 0.415686 0.796078 0.729412 
0.415686 0.796078 0.729412 0.415686 0.796078 0.729412 
0.415686 0.796078 0.729412 0.415686 0.796078 0.729412 
0.415686 0.796078 0.729412 0.415686 0.796078 0.729412 
0.415686 0.796078 0.729412 0.415686 0.796078 0.729412 