# vtk DataFile Version 4.2
vtk output
ASCII
DATASET POLYDATA
POINTS 2302 float
138 124.009 180.017 138 124.009 180.017 138 124.009 180.017 
138 124.009 180.017 138 124.009 180.017 141 121.658 181.669 
141 121.658 181.669 141 121.658 181.669 141 121.658 181.669 
139.37 123.357 181.515 139.37 123.357 181.516 139.37 123.357 181.516 
139.371 123.357 181.515 139.371 123.357 181.515 141 121.658 181.669 
139.371 123.357 181.515 138 124.009 180.017 139.37 123.357 181.516 
139.37 123.357 181.516 139.37 123.357 181.515 139.371 123.357 181.515 
137.394 125.239 181.626 137.394 125.24 181.626 137.393 125.24 181.627 
137.395 125.239 181.626 137.395 125.239 181.625 139.37 123.357 181.516 
137.395 125.239 181.625 137.394 125.24 181.626 137.395 125.239 181.626 
141 121.658 181.67 141 121.658 181.67 141 121.658 181.67 
141 121.658 181.67 141 121.658 181.67 141 121.658 181.669 
139.37 123.357 181.516 139.37 123.357 181.516 139.37 123.357 181.516 
139.371 123.357 181.515 141 121.658 181.669 139.369 123.357 181.516 
139.37 123.357 181.516 139.371 123.357 181.516 137.393 125.24 181.627 
137.393 125.24 181.627 137.394 125.24 181.626 137.395 125.239 181.626 
139.37 123.357 181.516 137.393 125.24 181.627 137.393 125.24 181.628 
137.393 125.24 181.627 137.394 125.24 181.626 137.393 125.24 181.628 
144.272 121.68 184.053 144.492 121.543 184.103 143.966 121.828 183.975 
144.809 121.423 184.209 145.022 121.309 184.276 145.398 121.156 184.392 
145.468 121.099 184.407 146.082 120.867 184.625 141 121.658 181.67 
143.453 122.114 183.862 142.998 122.44 183.803 143.896 121.953 183.988 
144.499 121.635 184.16 145.059 121.332 184.304 141 121.658 181.67 
142.556 122.775 183.758 142.325 122.983 183.749 142.93 122.664 183.844 
143.409 122.292 183.895 143.908 121.958 183.994 139.37 123.357 181.516 
139.37 123.357 181.516 141.971 123.353 183.763 141.434 123.915 183.779 
141.992 123.58 183.825 142.452 123.128 183.823 142.903 122.69 183.831 
139.37 123.357 181.516 141.015 124.377 183.791 140.604 124.838 183.815 
141.111 124.591 183.865 137.393 125.24 181.627 137.394 125.24 181.627 
140.206 125.28 183.807 139.859 125.678 183.816 139.921 125.662 183.788 
137.393 125.24 181.628 139.534 126.03 183.787 139.26 126.344 183.779 
139.355 126.275 183.757 139.038 126.581 183.742 138.859 126.782 183.721 
139.518 126.422 183.85 138.849 126.823 183.716 138.792 126.889 183.724 
146.869 120.386 184.832 147.33 120.101 184.973 146.79 120.413 184.842 
147.569 119.996 185.025 148.128 119.735 185.194 144.796 121.432 184.215 
145.283 121.313 184.45 145.978 120.868 184.6 147.64 120.052 185.057 
144.925 121.508 184.345 145.304 121.402 184.501 142.359 122.943 183.752 
143.711 122.085 183.952 140.859 124.553 183.819 141.172 124.257 183.832 
142.099 123.557 183.874 140.065 125.453 183.837 140.323 125.228 183.872 
141.352 124.958 184.227 141.701 124.134 183.969 139.413 126.184 183.809 
139.637 126.003 183.858 139.664 126.892 184.192 140.134 127.168 184.632 
138.824 126.943 183.764 138.878 126.979 183.802 138.872 126.981 183.811 
139.07 126.929 183.881 139.36 126.862 184.001 138.917 126.989 183.833 
150.699 118.581 186.136 150.921 118.506 186.241 150.459 118.666 186.036 
151.091 118.47 186.333 151.422 118.464 186.576 149.283 119.121 185.568 
148.72 119.38 185.382 149.884 118.905 185.812 149.823 118.915 185.783 
147.151 120.197 184.943 147.464 120.041 185.041 148.043 119.729 185.179 
148.925 119.324 185.451 149.083 119.248 185.514 150.287 118.83 186.045 
147.862 119.956 185.142 148.452 119.586 185.302 144.245 121.889 184.185 
145.114 121.809 184.697 143.377 122.354 183.94 144.696 122.722 185.052 
142.518 123.083 183.868 144.057 123.591 185.252 144.039 123.602 185.208 
141.691 124.094 183.981 143.245 124.459 185.265 143.262 124.435 185.221 
141.121 125.251 184.32 142.329 125.235 185.107 142.503 125.082 185.099 
142.875 124.909 185.197 141.687 125.51 184.809 139.41 126.898 184.086 
140.483 127.823 185.2 140.5 128.187 185.324 139.017 126.953 183.884 
140.449 128.652 185.528 140.413 129.189 185.734 140.469 128.987 185.666 
140.41 129.513 185.868 140.427 129.394 185.819 140.453 129.676 185.959 
140.465 129.737 186.005 140.492 129.86 186.069 154.251 116.855 187.557 
154.201 116.884 187.543 154.363 116.826 187.616 154.523 116.831 187.728 
151.289 118.467 186.484 151.693 118.469 186.796 154.162 117.097 187.659 
151.935 118.56 187.045 147.85 119.831 185.143 148.632 119.443 185.365 
148.842 119.335 185.416 148.765 119.375 185.396 148.715 119.4 185.378 
151.012 118.812 186.562 151.491 118.929 187 148.4 119.623 185.303 
147.454 120.282 185.098 147.961 119.912 185.192 145.618 121.608 184.905 
146.444 121.11 185 146.979 120.653 185.031 144.296 123.316 185.235 
144.527 123.042 185.195 144.903 122.567 185.111 145.493 122.096 185.072 
143.501 124.21 185.289 143.756 123.949 185.284 144.175 123.484 185.254 
144.675 123.084 185.213 145.098 122.578 185.145 144.284 123.549 185.264 
142.968 125.005 185.295 143.432 124.502 185.303 142.005 126.175 185.299 
142.52 125.511 185.283 141.564 127.045 185.461 141.335 128.498 186.041 
141.351 127.65 185.621 140.888 129.95 186.393 141.197 129.762 186.544 
140.612 129.999 186.221 140.765 130.2 186.414 140.898 130.31 186.567 
141.045 130.442 186.728 154.88 116.514 187.76 155.133 116.286 187.773 
154.155 116.957 187.563 154.017 117.215 187.649 154.512 116.821 187.725 
153.27 117.809 187.523 153.689 117.582 187.655 151.577 119.12 187.237 
152.338 118.423 187.271 152.889 118.135 187.459 148.452 119.565 185.318 
151.066 120.164 187.672 151.434 119.695 187.552 147.789 120.027 185.185 
150.336 121.162 187.897 146.892 120.733 185.07 149.926 121.661 187.991 
149.47 122.163 188.005 145.949 121.615 185.061 148.529 123.194 188.089 
148.524 123.174 188.045 144.595 123.039 185.2 145.078 122.578 185.155 
148.03 123.673 188.063 147.553 124.18 188.044 143.784 123.976 185.278 
147.045 124.715 188.066 146.532 125.215 188.039 146.568 125.184 188.004 
142.928 124.906 185.279 146.034 125.662 187.969 145.59 126.105 187.937 
142.53 125.507 185.308 145.159 126.558 187.893 144.758 127.003 187.871 
141.816 126.531 185.394 143.879 127.989 187.747 144.17 127.784 187.794 
141.383 127.63 185.665 143.475 128.453 187.641 143.507 128.39 187.684 
143.099 128.746 187.546 142.747 128.973 187.357 141.935 129.202 186.859 
141.384 130.072 186.833 141.323 130.201 186.832 141.098 130.266 186.698 
141.149 130.535 186.849 141.507 130.67 187.17 158 114.009 188.017 
158 114.009 188.017 158 114.009 188.017 158 114.009 188.017 
155.254 116.183 187.781 158 114.009 188.017 155.297 116.15 187.784 
155.246 116.301 187.857 155.288 116.176 187.796 155.172 116.959 188.276 
155.199 116.505 187.97 154.564 117.615 188.299 153.297 118.593 188.079 
152.533 119.476 188.158 151.415 120.678 188.242 150.76 121.552 188.402 
149.585 122.71 188.4 148.856 123.57 188.47 147.646 124.739 188.405 
146.898 125.653 188.449 145.556 127.03 188.298 144.016 129.225 188.319 
142.511 129.969 187.599 142.46 130.657 187.862 141.999 130.956 187.652 
142.346 131.143 187.981 159.649 114.527 189.639 159.423 114.743 189.657 
159.858 114.373 189.627 158 114.009 188.017 159.011 115.19 189.683 
159.202 114.958 189.678 159.002 115.178 189.705 159.613 114.659 189.65 
159.776 114.474 189.634 155.253 116.248 187.829 158.641 115.56 189.728 
158.169 116.022 189.692 158.7 115.647 189.733 155.103 116.724 188.078 
155.205 116.492 187.972 157.026 116.871 189.487 155.228 117.204 188.515 
155.674 117.538 188.985 156.076 117.204 189.103 153.445 118.257 187.974 
153.822 117.964 188.024 154.677 118.127 188.751 154.639 118.403 188.846 
153.264 118.853 188.262 153.916 118.749 188.626 151.515 120.303 188.082 
151.825 119.969 188.034 152.709 119.984 188.647 151.397 120.907 188.422 
152.012 120.74 188.683 153.401 121.04 189.598 149.729 122.332 188.288 
150.06 122.022 188.274 150.848 122.033 188.796 149.535 122.926 188.546 
150.128 122.773 188.793 151.492 123.123 189.683 147.794 124.351 188.311 
148.133 124.042 188.312 148.936 124.037 188.841 148.864 124.384 188.9 
147.618 124.947 188.561 147.891 125.333 188.825 148.212 124.777 188.803 
145.911 126.406 188.242 147.204 126.05 188.913 147.161 126.325 188.919 
145.294 127.38 188.382 146.857 126.784 189.061 146.464 127.31 189.103 
146.527 127.188 188.976 145.81 127.62 188.799 143.589 128.987 187.995 
144.353 129.073 188.593 143.038 129.582 187.819 144.49 129.817 189.005 
144.497 129.949 188.926 145.633 129.604 189.346 142.52 130.181 187.717 
144.288 130.504 189.115 144.022 130.919 189.098 144.189 130.696 189.057 
142.47 130.791 187.938 143.757 131.092 188.949 143.131 131.182 188.562 
142.83 131.326 188.4 143.53 131.523 188.944 159.593 114.569 189.645 
159.668 114.505 189.642 159.773 114.422 189.634 159.935 114.292 189.623 
159.883 114.334 189.626 159.928 114.297 189.624 159.172 114.992 189.691 
159.317 114.855 189.68 159.526 114.65 189.659 159.755 114.506 189.638 
159.809 114.439 189.635 159.909 114.323 189.626 159.472 114.84 189.682 
159.682 114.589 189.65 158.982 115.496 189.801 159.252 115.117 189.723 
157.341 116.978 189.886 158.475 116.642 190.216 158.721 115.943 189.924 
156.57 118.477 190.14 154.86 119.455 189.605 155.328 118.983 189.619 
151.227 121.445 188.68 154.196 120.844 189.998 154.472 120.01 189.685 
152.107 121.424 189.216 154.385 121.845 190.587 149.327 123.456 188.757 
152.404 123.001 190.195 153.229 122.277 190.25 153.917 122.36 190.632 
150.19 123.448 189.288 150.242 125.078 190.085 151.162 124.39 190.247 
151.809 124.547 190.672 147.123 127.942 189.528 148.124 127.635 190.111 
148.706 127.435 190.398 147.67 128.542 190.288 147.85 127.955 190.111 
145.67 131.323 190.235 146.15 131.026 190.447 143.287 131.451 188.778 
143.874 131.713 189.281 144.023 131.764 189.373 144.726 131.941 189.897 
145.417 131.983 190.339 144.164 131.881 189.527 144.413 131.942 189.712 
161.78 115.333 191.523 161.745 115.361 191.525 161.752 115.391 191.532 
159.603 114.662 189.668 161.607 115.502 191.521 161.426 115.686 191.525 
161.349 115.804 191.502 161.643 115.58 191.543 158.912 115.462 189.814 
[...]
POINT_DATA 2302
COLOR_SCALARS scalars 3
0.184314 0.658824 0.313725 0.184314 0.658824 0.313725 0.184314 0.658824 0.313725 
0.184314 0.658824 0.313725 0.184314 0.658824 0.313725 
0.184314 0.658824 0.313725 0.184314 0.658824 0.313725 
0.184314 0.658824 0.313725 0.184314 0.658824 0.313725 
0.184314 0.658824 0.313725 0.184314 0.658824 0.313725 
0.184314 0.658824 0.313725 0.184314 0.658824 0.313725 
0.184314 0.658824 0.313725 0.184314 0.658824 0.313725 
0.184314 0.658824 0.313725 0.184314 0.658824 0.313725 
0.184314 0.658824 0.313725 0.184314 0.658824 0.313725 
0.184314 0.658824 0.313725 0.184314 0.658824 0.313725 
0.184314 0.658824 0.313725 0.184314 0.658824 0.313725 
0.184314 0.658824 0.313725 0.184314 0.658824 0.313725 
0.184314 0.658824 0.313725 0.184314 0.658824 0.313725 
0.184314 0.658824 0.313725 0.184314 0.658824 0.313725 
0.184314 0.658824 0.313725 0.184314 0.658824 0.313725 
0.184314 0.658824 0.313725 0.184314 0.658824 0.313725 
0.184314 0.658824 0.313725 0.184314 0.658824 0.313725 
0.184314 0.658824 0.313725 0.184314 0.658824 0.313725 
0.184314 0.658824 0.313725 0.184314 0.658824 0.313725 
0.184314 0.658824 0.313725 0.184314 0.658824 0.313725 
0.184314 0.658824 0.313725 0.184314 0.658824 0.313725 
0.184314 0.658824 0.313725 0.184314 0.658824 0.313725 
0.184314 0.658824 0.313725 0.184314 0.658824 0.313725 
0.184314 0.658824 0.313725 0.184314 0.658824 0.313725 
0.184314 0.658824 0.313725 0.184314 0.658824 0.313725 
0.184314 0.658824 0.313725 0.184314 0.658824 0.313725 
0.184314 0.658824 0.313725 0.184314 0.658824 0.313725 
0.184314 0.658824 0.313725 0.184314 0.658824 0.313725 
0.184314 0.658824 0.313725 0.184314 0.658824 0.313725 
0.184314 0.658824 0.313725 0.184314 0.658824 0.313725 
0.184314 0.658824 0.313725 0.184314 0.658824 0.313725 
0.184314 0.658824 0.313725 0.184314 0.658824 0.313725 
0.184314 0.658824 0.313725 0.184314 0.658824 0.313725 
0.184314 0.658824 0.313725 0.184314 0.658824 0.313725 
0.184314 0.658824 0.313725 0.184314 0.658824 0.313725 
0.184314 0.658824 0.313725 0.184314 0.658824 0.313725 
0.184314 0.658824 0.313725 0.184314 0.658824 0.313725 
0.184314 0.658824 0.313725 0.184314 0.658824 0.313725 
0.184314 0.658824 0.313725 0.184314 0.658824 0.313725 
0.184314 0.658824 0.313725 0.184314 0.658824 0.313725 
0.184314 0.658824 0.313725 0.184314 0.658824 0.313725 
0.184314 0.658824 0.313725 0.184314 0.658824 0.313725 
0.184314 0.658824 0.313725 0.184314 0.658824 0.313725 
0.184314 0.658824 0.313725 0.184314 0.658824 0.313725 
0.184314 0.658824 0.313725 0.184314 0.658824 0.313725 
0.184314 0.658824 0.313725 0.184314 0.658824 0.313725 
0.184314 0.658824 0.313725 0.184314 0.658824 0.313725 
0.184314 0.658824 0.313725 0.184314 0.658824 0.313725 
0.184314 0.658824 0.313725 0.184314 0.658824 0.313725 
0.184314 0.658824 0.313725 0.184314 0.658824 0.313725 
0.184314 0.658824 0.313725 0.184314 0.658824 0.313725 
0.184314 0.658824 0.313725 0.184314 0.658824 0.313725 
0.184314 0.658824 0.313725 0.184314 0.658824 0.313725 
0.184314 0.658824 0.313725 0.184314 0.658824 0.313725 
0.184314 0.658824 0.313725 0.184314 0.658824 0.313725 
0.184314 0.658824 0.313725 0.184314 0.658824 0.313725 
0.184314 0.658824 0.313725 0.184314 0.658824 0.313725 
0.184314 0.658824 0.313725 0.184314 0.658824 0.313725 
0.184314 0.658824 0.313725 0.184314 0.658824 0.313725 
0.184314 0.658824 0.313725 0.184314 0.658824 0.313725 
0.184314 0.658824 0.313725 0.184314 0.658824 0.313725 
0.184314 0.658824 0.313725 0.184314 0.658824 0.313725 
0.184314 0.658824 0.313725 0.184314 0.658824 0.313725 
0.184314 0.658824 0.313725 0.184314 0.658824 0.313725 
0.184314 0.658824 0.313725 0.184314 0.658824 0.313725 
0.184314 0.658824 0.313725 0.184314 0.658824 0.313725 
0.184314 0.658824 0.313725 0.184314 0.658824 0.313725 
0.184314 0.658824 0.313725 0.184314 0.658824 0.313725 
0.184314 0.658824 0.313725 0.184314 0.658824 0.313725 
0.184314 0.658824 0.313725 0.184314 0.658824 0.313725 
0.184314 0.658824 0.313725 0.184314 0.658824 0.313725 
0.184314 0.658824 0.313725 0.184314 0.658824 0.313725 
0.184314 0.658824 0.313725 0.184314 0.658824 0.313725 
0.184314 0.658824 0.313725 0.184314 0.658824 0.313725 
0.184314 0.658824 0.313725 0.184314 0.658824 0.313725 
0.184314 0.658824 0.313725 0.184314 0.658824 0.313725 
0.184314 0.658824 0.313725 0.184314 0.658824 0.313725 
0.184314 0.658824 0.313725 0.184314 0.658824 0.313725 
0.184314 0.658824 0.313725 0.184314 0.658824 0.313725 
0.184314 0.658824 0.313725 0.184314 0.658824 0.313725 
0.184314 0.658824 0.313725 0.184314 0.658824 0.313725 
0.184314 0.658824 0.313725 0.184314 0.658824 0.313725 
0.184314 0.658824 0.313725 0.184314 0.658824 0.313725 
0.184314 0.658824 0.313725 0.184314 0.658824 0.313725 
0.184314 0.658824 0.313725 0.184314 0.658824 0.313725 
0.184314 0.658824 0.313725 0.184314 0.658824 0.313725 
0.184314 0.658824 0.313725 0.184314 0.658824 0.313725 
0.184314 0.658824 0.313725 0.184314 0.658824 0.313725 
0.184314 0.658824 0.313725 0.184314 0.658824 0.313725 
0.184314 0.658824 0.313725 0.184314 0.658824 0.313725 
0.184314 0.658824 0.313725 0.184314 0.658824 0.313725 
0.184314 0.658824 0.313725 0.184314 0.658824 0.313725 
0.184314 0.658824 0.313725 0.184314 0.658824 0.313725 
0.184314 0.658824 0.313725 0.184314 0.658824 0.313725 
0.184314 0.658824 0.313725 0.184314 0.658824 0.313725 
0.184314 0.658824 0.313725 0.184314 0.658824 0.313725 
0.184314 0.658824 0.313725 0.184314 0.658824 0.313725 
0.184314 0.658824 0.313725 0.184314 0.658824 0.313725 
0.184314 0.658824 0.313725 0.184314 0.658824 0.313725 
0.184314 0.658824 0.313725 0.184314 0.658824 0.313725 
0.184314 0.658824 0.313725 0.184314 0.658824 0.313725 
0.184314 0.658824 0.313725 0.184314 0.658824 0.313725 
0.184314 0.658824 0.313725 0.184314 0.658824 0.313725 
0.184314 0.658824 0.313725 0.184314 0.658824 0.313725 
0.184314 0.658824 0.313725 0.184314 0.658824 0.313725 
0.184314 0.658824 0.313725 0.184314 0.658824 0.313725 
0.184314 0.658824 0.313725 0.184314 0.658824 0.313725 
0.184314 0.658824 0.313725 0.184314 0.658824 0.313725 
0.184314 0.658824 0.313725 0.184314 0.658824 0.313725 
0.184314 0.658824 0.313725 0.184314 0.658824 0.313725 
0.184314 0.658824 0.313725 0.184314 0.658824 0.313725 
0.184314 0.658824 0.313725 0.184314 0.658824 0.313725 
0.184314 0.658824 0.313725 0.184314 0.658824 0.313725 
0.184314 0.658824 0.313725 0.184314 0.658824 0.313725 
0.184314 0.658824 0.313725 0.184314 0.658824 0.313725 
0.184314 0.658824 0.313725 0.184314 0.658824 0.313725 
0.184314 0.658824 0.313725 0.184314 0.658824 0.313725 
0.184314 0.658824 0.313725 0.184314 0.658824 0.313725 
0.184314 0.658824 0.313725 0.184314 0.658824 0.313725 
0.184314 0.658824 0.313725 0.184314 0.658824 0.313725 
0.184314 0.658824 0.313725 0.184314 0.658824 0.313725 
0.184314 0.658824 0.313725 0.184314 0.658824 0.313725 
0.184314 0.658824 0.313725 0.184314 0.658824 0.313725 
0.184314 0.658824 0.313725 0.184314 0.658824 0.313725 
0.184314 0.658824 0.313725 0.184314 0.658824 0.313725 
0.184314 0.658824 0.313725 0.184314 0.658824 0.313725 
0.184314 0.658824 0.313725 0.184314 0.658824 0.313725 
0.184314 0.658824 0.313725 0.184314 0.658824 0.313725 
0.184314 0.658824 0.313725 0.184314 0.658824 0.313725 
0.184314 0.658824 0.313725 0.184314 0.658824 0.313725 
0.184314 0.658824 0.313725 0.184314 0.658824 0.313725 
0.184314 0.658824 0.313725 0.184314 0.658824 0.313725 
0.184314 0.658824 0.313725 0.184314 0.658824 0.313725 
0.184314 0.658824 0.313725 0.184314 0.658824 0.313725 
0.184314 0.658824 0.313725 0.184314 0.658824 0.313725 
0.184314 0.658824 0.313725 0.184314 0.658824 0.313725 
0.184314 0.658824 0.313725 0.184314 0.658824 0.313725 
0.184314 0.658824 0.313725 0.184314 0.658824 0.313725 
0.184314 0.658824 0.313725 0.184314 0.658824 0.313725 
0.184314 0.658824 0.313725 0.184314 0.658824 0.313725 
0.184314 0.658824 0.313725 0.184314 0.658824 0.313725 
0.184314 0.658824 0.313725 0.184314 0.658824 0.313725 
0.184314 0.658824 0.313725 0.184314 0.658824 0.313725 
0.184314 0.658824 0.313725 0.184314 0.658824 0.313725 
0.184314 0.658824 0.313725 0.184314 0.658824 0.313725 
0.184314 0.658824 0.313725 0.184314 0.658824 0.313725 
0.184314 0.658824 0.313725 0.184314 0.658824 0.313725 
0.184314 0.658824 0.313725 0.184314 0.658824 0.313725 
0.184314 0.658824 0.313725 0.184314 0.658824 0.313725 
0.184314 0.658824 0.313725 0.184314 0.658824 0.313725 
0.184314 0.658824 0.313725 0.184314 0.658824 0.313725 
0.184314 0.658824 0.313725 0.184314 0.658824 0.313725 
0.184314 0.658824 0.313725 0.184314 0.658824 0.313725 
0.184314 0.658824 0.313725 0.184314 0.658824 0.313725 
0.184314 0.658824 0.313725 0.184314 0.658824 0.313725 
0.184314 0.658824 0.313725 0.184314 0.658824 0.313725 
0.184314 0.658824 0.313725 0.184314 0.658824 0.313725 
0.184314 0.658824 0.313725 0.184314 0.658824 0.313725 
0.184314 0.658824 0.313725 0.184314 0.658824 0.313725 
0.184314 0.658824 0.313725 0.184314 0.658824 0.313725 
0.184314 0.658824 0.313725 0.184314 0.658824 0.313725 
0.184314 0.658824 0.313725 0.184314 0.658824 0.313725 
0.184314 0.658824 0.313725 0.184314 0.658824 0.313725 
0.184314 0.658824 0.313725 0.184314 0.658824 0.313725 
0.184314 0.658824 0.313725 0.184314 0.658824 0.313725 
0.184314 0.658824 0.313725 0.184314 0.658824 0.313725 
0.184314 0.658824 0.313725 0.184314 0.658824 0.313725 
0.184314 0.658824 0.313725 0.184314 0.658824 0.313725 
0.184314 0.658824 0.313725 0.184314 0.658824 0.313725 
0.184314 0.658824 0.313725 0.184314 0.658824 0.313725 
0.184314 0.658824 0.313725 0.184314 0.658824 0.313725 
0.184314 0.658824 0.313725 0.184314 0.658824 0.313725 
0.184314 0.658824 0.313725 0.184314 0.658824 0.313725 
0.184314 0.658824 0.313725 0.184314 0.658824 0.313725 
0.184314 0.658824 0.313725 0.184314 0.658824 0.313725 
0.184314 0.658824 0.313725 0.184314 0.658824 0.313725 
0.184314 0.658824 0.313725 0.184314 0.658824 0.313725 
0.184314 0.658824 0.313725 0.184314 0.658824 0.313725 
0.184314 0.658824 0.313725 0.184314 0.658824 0.313725 
0.184314 0.658824 0.313725 0.184314 0.658824 0.313725 
0.184314 0.658824 0.313725 0.184314 0.658824 0.313725 
0.184314 0.658824 0.313725 0.184314 0.658824 0.313725 
0.184314 0.658824 0.313725 0.184314 0.658824 0.313725 
0.184314 0.658824 0.313725 0.184314 0.658824 0.313725 
0.184314 0.658824 0.313725 0.184314 0.658824 0.313725 
0.184314 0.658824 0.313725 0.184314 0.658824 0.313725 
0.184314 0.658824 0.313725 0.184314 0.658824 0.313725 
0.184314 0.658824 0.313725 0.184314 0.658824 0.313725 
0.184314 0.658824 0.313725 0.184314 0.658824 0.313725 
0.184314 0.658824 0.313725 0.184314 0.658824 0.313725 
0.184314 0.658824 0.313725 0.184314 0.658824 0.313725 
0.184314 0.658824 0.313725 0.184314 0.658824 0.313725 
0.184314 0.658824 0.313725 0.184314 0.658824 0.313725 
0.184314 0.658824 0.313725 0.184314 0.658824 0.313725 
0.184314 0.658824 0.313725 0.184314 0.658824 0.313725 
0.184314 0.658824 0.313725 0.184314 0.658824 0.313725 
0.184314 0.658824 0.313725 0.184314 0.658824 0.313725 
0.184314 0.658824 0.313725 0.184314 0.658824 0.313725 
0.184314 0.658824 0.313725 0.184314 0.658824 0.313725 
0.184314 0.658824 0.313725 0.184314 0.658824 0.313725 
0.184314 0.658824 0.313725 0.184314 0.658824 0.313725 
0.184314 0.658824 0.313725 0.184314 0.658824 0.313725 
0.184314 0.658824 0.313725 0.184314 0.658824 0.313725 
0.184314 0.658824 0.313725 0.184314 0.658824 0.313725 
0.184314 0.658824 0.313725 0.184314 0.658824 0.313725 
0.184314 0.658824 0.313725 0.184314 0.658824 0.313725 
0.184314 0.658824 0.313725 0.184314 0.658824 0.313725 
0.184314 0.658824 0.313725 0.184314 0.658824 0.313725 
0.184314 0.658824 0.313725 0.184314 0.658824 0.313725 
0.184314 0.658824 0.313725 0.184314 0.658824 0.313725 
0.184314 0.658824 0.313725 0.184314 0.658824 0.313725 
0.184314 0.658824 0.313725 0.184314 0.658824 0.313725 
0.184314 0.658824 0.313725 0.184314 0.658824 0.313725 
0.184314 0.658824 0.313725 0.184314 0.658824 0.313725 
0.184314 0.658824 0.313725 0.184314 0.658824 0.313725 
0.184314 0.658824 0.313725 0.184314 0.658824 0.313725 
0.184314 0.658824 0.313725 0.184314 0.658824 0.313725 
0.184314 0.658824 0.313725 0.184314 0.658824 0.313725 
0.184314 0.658824 0.313725 0.184314 0.658824 0.313725 
0.184314 0.658824 0.313725 0.184314 0.658824 0.313725 
0.184314 0.658824 0.313725 0.184314 0.658824 0.313725 
0.184314 0.658824 0.313725 0.184314 0.658824 0.313725 
0.184314 0.658824 0.313725 0.184314 0.658824 0.313725 
0.184314 0.658824 0.313725 0.184314 0.658824 0.313725 
0.184314 0.658824 0.313725 0.184314 0.658824 0.313725 
0.184314 0.658824 0.313725 0.184314 0.658824 0.313725 
0.184314 0.658824 0.313725 0.184314 0.658824 0.313725 
0.184314 0.658824 0.313725 0.184314 0.658824 0.313725 
0.184314 0.658824 0.313725 0.184314 0.658824 0.313725 
0.184314 0.658824 0.313725 0.184314 0.658824 0.313725 
0.184314 0.658824 0.313725 0.184314 0.658824 0.313725 
0.184314 0.658824 0.313725 0.184314 0.658824 0.313725 
0.184314 0.658824 0.313725 0.184314 0.658824 0.313725 
0.184314 0.658824 0.313725 0.184314 0.658824 0.313725 
0.184314 0.658824 0.313725 0.184314 0.658824 0.313725 
0.184314 0.658824 0.313725 0.184314 0.658824 0.313725 
0.184314 0.658824 0.313725 0.184314 0.658824 0.313725 
0.184314 0.658824 0.313725 0.184314 0.658824 0.313725 
0.184314 0.658824 0.313725 0.184314 0.658824 0.313725 
0.184314 0.658824 0.313725 0.184314 0.658824 0.313725 
0.184314 0.658824 0.313725 0.184314 0.658824 0.313725 
0.184314 0.658824 0.313725 0.184314 0.658824 0.313725 
0.184314 0.658824 0.313725 0.184314 0.658824 0.313725 
0.184314 0.658824 0.313725 0.184314 0.658824 0.313725 
0.184314 0.658824 0.313725 0.184314 0.658824 0.313725 
0.184314 0.658824 0.313725 0.184314 0.658824 0.313725 
0.184314 0.658824 0.313725 0.184314 0.658824 0.313725 
0.184314 0.658824 0.313725 0.184314 0.658824 0.313725 
0.184314 0.658824 0.313725 0.184314 0.658824 0.313725 
0.184314 0.658824 0.313725 0.184314 0.658824 0.313725 
0.184314 0.658824 0.313725 0.184314 0.658824 0.313725 
0.184314 0.658824 0.313725 0.184314 0.658824 0.313725 
0.184314 0.658824 0.313725 0.184314 0.658824 0.313725 
0.184314 0.658824 0.313725 0.184314 0.658824 0.313725 
0.184314 0.658824 0.313725 0.184314 0.658824 0.313725 
0.184314 0.658824 0.313725 0.184314 0.658824 0.313725 
0.184314 0.658824 0.313725 0.184314 0.658824 0.313725 
0.184314 0.658824 0.313725 0.184314 0.658824 0.313725 
0.184314 0.658824 0.313725 0.184314 0.658824 0.313725 
0.184314 0.658824 0.313725 0.184314 0.658824 0.313725 
0.184314 0.658824 0.313725 0.184314 0.658824 0.313725 
0.184314 0.658824 0.313725 0.184314 0.658824 0.313725 
0.184314 0.658824 0.313725 0.184314 0.658824 0.313725 
0.184314 0.658824 0.313725 0.184314 0.658824 0.313725 
0.184314 0.658824 0.313725 0.184314 0.658824 0.313725 
0.184314 0.658824 0.313725 0.184314 0.658824 0.313725 
0.184314 0.658824 0.313725 0.184314 0.658824 0.313725 
0.184314 0.658824 0.313725 0.184314 0.658824 0.313725 
0.184314 0.658824 0.313725 0.184314 0.658824 0.313725 
0.184314 0.658824 0.313725 0.184314 0.658824 0.313725 
0.184314 0.658824 0.313725 0.184314 0.658824 0.313725 
0.184314 0.658824 0.313725 0.184314 0.658824 0.313725 
0.184314 0.658824 0.313725 0.184314 0.658824 0.313725 
0.184314 0.658824 0.313725 0.184314 0.658824 0.313725 
0.184314 0.658824 0.313725 0.184314 0.658824 0.313725 
0.184314 0.658824 0.313725 0.184314 0.658824 0.313725 
0.184314 0.658824 0.313725 0.184314 0.658824 0.313725 
0.184314 0.658824 0.313725 0.184314 0.658824 0.313725 
0.184314 0.658824 0.313725 0.184314 0.658824 0.313725 
0.184314 0.658824 0.313725 0.184314 0.658824 0.313725 
0.184314 0.658824 0.313725 0.184314 0.658824 0.313725 
0.184314 0.658824 0.313725 0.184314 0.658824 0.313725 
0.184314 0.658824 0.313725 0.184314 0.658824 0.313725 
0.184314 0.658824 0.313725 0.184314 0.658824 0.313725 
0.184314 0.658824 0.313725 0.184314 0.658824 0.313725 
0.184314 0.658824 0.313725 0.184314 0.658824 0.313725 
0.184314 0.658824 0.313725 0.184314 0.658824 0.313725 
0.184314 0.658824 0.313725 0.184314 0.658824 0.313725 
0.184314 0.658824 0.313725 0.184314 0.658824 0.313725 
0.184314 0.658824 0.313725 0.184314 0.658824 0.313725 
0.184314 0.658824 0.313725 0.184314 0.658824 0.313725 
0.184314 0.658824 0.313725 0.184314 0.658824 0.313725 
0.184314 0.658824 0.313725 0.184314 0.658824 0.313725 
0.184314 0.658824 0.313725 0.184314 0.658824 0.313725 
0.184314 0.658824 0.313725 0.184314 0.658824 0.313725 
0.184314 0.658824 0.313725 0.184314 0.658824 0.313725 
0.184314 0.658824 0.313725 0.184314 0.658824 0.313725 
0.184314 0.658824 0.313725 0.184314 0.658824 0.313725 
0.184314 0.658824 0.313725 0.184314 0.658824 0.313725 
0.184314 0.658824 0.313725 0.184314 0.658824 0.313725 
0.184314 0.658824 0.313725 0.184314 0.658824 0.313725 
0.184314 0.658824 0.313725 0.184314 0.658824 0.313725 
0.184314 0.658824 0.313725 0.184314 0.658824 0.313725 
0.184314 0.658824 0.313725 0.184314 0.658824 0.313725 
0.184314 0.658824 0.313725 0.184314 0.658824 0.313725 
0.184314 0.658824 0.313725 0.184314 0.658824 0.313725 
0.184314 0.658824 0.313725 0.184314 0.658824 0.313725 
0.184314 0.658824 0.313725 0.184314 0.658824 0.313725 
0.184314 0.658824 0.313725 0.184314 0.658824 0.313725 
0.184314 0.658824 0.313725 0.184314 0.658824 0.313725 
0.184314 0.658824 0.313725 0.184314 0.658824 0.313725 
0.184314 0.658824 0.313725 0.184314 0.658824 0.313725 
0.184314 0.658824 0.313725 0.184314 0.658824 0.313725 
0.184314 0.658824 0.313725 0.184314 0.658824 0.313725 
0.184314 0.658824 0.313725 0.184314 0.658824 0.313725 
0.184314 0.658824 0.313725 0.184314 0.658824 0.313725 
0.184314 0.658824 0.313725 0.184314 0.658824 0.313725 
0.184314 0.658824 0.313725 0.184314 0.658824 0.313725 
0.184314 0.658824 0.313725 0.184314 0.658824 0.313725 
0.184314 0.658824 0.313725 0.184314 0.658824 0.313725 
0.184314 0.658824 0.313725 0.184314 0.658824 0.313725 
0.184314 0.658824 0.313725 0.184314 0.658824 0.313725 
0.184314 0.658824 0.313725 0.184314 0.658824 0.313725 
0.184314 0.658824 0.313725 0.184314 0.658824 0.313725 
0.184314 0.658824 0.313725 0.184314 0.658824 0.313725 
0.184314 0.658824 0.313725 0.184314 0.658824 0.313725 
0.184314 0.658824 0.313725 0.184314 0.658824 0.313725 
0.184314 0.658824 0.313725 0.184314 0.658824 0.313725 
0.184314 0.658824 0.313725 0.184314 0.658824 0.313725 
0.184314 0.658824 0.313725 0.184314 0.658824 0.313725 
0.184314 0.658824 0.313725 0.184314 0.658824 0.313725 
0.184314 0.658824 0.313725 0.184314 0.658824 0.313725 
0.184314 0.658824 0.313725 0.184314 0.658824 0.313725 
0.184314 0.658824 0.313725 0.184314 0.658824 0.313725 
0.184314 0.658824 0.313725 0.184314 0.658824 0.313725 
0.184314 0.658824 0.313725 0.184314 0.658824 0.313725 
0.184314 0.658824 0.313725 0.184314 0.658824 0.313725 
0.184314 0.658824 0.313725 0.184314 0.658824 0.313725 
0.184314 0.658824 0.313725 0.184314 0.658824 0.313725 
0.184314 0.658824 0.313725 0.184314 0.658824 0.313725 
0.184314 0.658824 0.313725 0.184314 0.658824 0.313725 
0.184314 0.658824 0.313725 0.184314 0.658824 0.313725 
0.184314 0.658824 0.313725 0.184314 0.658824 0.313725 
0.184314 0.658824 0.313725 0.184314 0.658824 0.313725 
0.184314 0.658824 0.313725 0.184314 0.658824 0.313725 
0.184314 0.658824 0.313725 0.184314 0.658824 0.313725 
0.184314 0.658824 0.313725 0.184314 0.658824 0.313725 
0.184314 0.658824 0.313725 0.184314 0.658824 0.313725 
0.184314 0.658824 0.313725 0.184314 0.658824 0.313725 
0.184314 0.658824 0.313725 0.184314 0.658824 0.313725 
0.184314 0.658824 0.313725 0.184314 0.658824 0.313725 
0.184314 0.658824 0.313725 0.184314 0.658824 0.313725 
0.184314 0.658824 0.313725 0.184314 0.658824 0.313725 
0.184314 0.658824 0.313725 0.184314 0.658824 0.313725 
0.184314 0.658824 0.313725 0.184314 0.658824 0.313725 
0.184314 0.658824 0.313725 0.184314 0.658824 0.313725 
0.184314 0.658824 0.313725 0.184314 0.658824 0.313725 
0.184314 0.658824 0.313725 0.184314 0.658824 0.313725 
0.184314 0.658824 0.313725 0.184314 0.658824 0.313725 
0.184314 0.658824 0.313725 0.184314 0.658824 0.313725 
0.184314 0.658824 0.313725 0.184314 0.658824 0.313725 
0.184314 0.658824 0.313725 0.184314 0.658824 0.313725 