# vtk DataFile Version 4.2
vtk output
ASCII
DATASET POLYDATA
POINTS 412 float
299.504 259.447 190.549 300.304 259.733 190.472 298.71 259.73 190.502 
300.65 260.111 190.44 297.98 260.107 190.671 297.76 260.491 190.743 
298.607 260.748 190.437 301.115 260.418 190.554 297.871 261.117 190.7 
300.797 258.88 191.013 298.509 259.162 190.955 302.308 259.54 191.173 
297.833 259.591 191.06 302.34 259.863 191.053 302.58 260.149 191.154 
299.559 261.204 190.391 300.148 261.62 190.626 296.613 262.595 191.695 
297.374 262.431 191.108 297.071 262.687 191.361 296.829 260.832 191.429 
298.303 263.046 191.206 296.908 264.008 192.097 299.281 257.872 192.855 
300.561 257.807 192.526 301.568 257.66 192.909 302.862 258.755 192.127 
296.195 260.432 192.676 304.735 260.103 192.553 295.818 261.291 192.744 
300.466 263.282 191.553 299.068 263.973 191.708 297.731 264.56 192.077 
301.718 257.459 193.449 302.426 257.491 193.766 297.355 258.821 192.945 
305.913 259.833 193.555 296.481 259.561 193.302 306.801 261.282 193.681 
307.511 261.104 194.169 305.198 262.611 192.97 298.908 257.553 194.319 
304.92 258.526 194.049 308.912 261.55 195.125 308.41 261.895 194.638 
307.315 263.009 194.065 307.512 264.053 194.56 294.978 265.292 195.209 
297.885 266.678 193.857 295.934 267.194 194.96 296.144 267.603 195.196 
303.237 257.318 194.761 302.842 257.126 195.112 305.052 258.173 194.71 
305.343 257.992 195.411 308.144 260.3 195.116 309.978 263.03 196.132 
295.653 267.167 195.245 295.783 268.156 195.861 304.024 257.291 195.642 
297.197 258.002 196.308 307.678 259.393 195.599 295.495 260.176 195.401 
310.911 262.5 197.112 294.382 265.994 196.615 307.496 267.216 196.567 
295.074 267.903 196.471 297.689 268.723 195.792 295.586 269.205 196.941 
298.43 257.177 196.798 296.215 258.795 197.123 309.248 260.024 196.767 
311.337 263.255 197.609 311.631 263.507 198.137 308.646 267.587 197.618 
298.123 269.666 196.779 295.817 270.145 197.672 294.04 263.837 197.825 
311.448 264.342 198.165 294.04 268.689 198.851 295.348 270.346 198.172 
297.168 270.474 197.647 311.356 261.386 198.526 312.043 262.614 199.133 
309.747 267.646 198.828 294.853 270.379 198.844 311.953 265.16 200.112 
293.086 266.903 200.685 293.167 268.263 200.881 295.829 272.521 200.705 
303.49 255.84 200.973 312.058 261.589 200.156 293.223 265.136 200.987 
293.111 265.822 200.883 293.53 269.904 201.126 297.079 273.446 201.513 
298.078 273.597 201.567 300.704 255.336 202.257 302.037 255.139 202.829 
298.041 256.368 202.169 311.378 260.085 201.798 293.104 265.066 201.704 
299.244 273.323 201.255 295.722 273.186 202.107 296.611 273.86 202.595 
303.041 255.247 202.892 298.633 255.873 202.801 312.5 261.601 202.754 
312.99 264.481 203.312 293.08 270.065 203.88 309.786 270.125 203.165 
301.614 274.003 202.7 297.851 256.178 203.84 295.852 258.244 203.972 
300.739 274.784 203.759 299.165 274.995 204.299 301.268 254.437 205.663 
305.395 255.72 204.659 313.471 263.074 205.63 293.082 264.203 204.467 
300.499 254.442 206.149 302.096 254.327 206.171 312.005 267.774 205.504 
294.485 272.848 206.119 303.299 275.342 206.227 302.808 254.315 206.858 
313.354 262.55 206.819 292.849 268.939 206.906 293.458 271.198 207.186 
296.339 274.412 207.332 299.56 275.635 207.25 300.358 254.107 208.563 
304.242 254.75 207.567 311.901 260.353 207.671 293.085 264.857 207.183 
292.814 267.442 207.384 308.584 272.135 207.905 303.566 275.269 207.246 
300.747 275.647 207.629 300.954 253.858 209.26 297.103 256.779 209.341 
293.462 270.358 208.761 302.916 275.32 208.044 299.23 275.43 208.369 
300.832 253.885 209.808 302.112 253.818 210.223 298.514 255.36 210.048 
296.049 258.837 210.409 313.376 264.213 209.513 312.624 266.387 209.812 
294.409 271.296 210.093 306.831 273.304 208.975 304.59 274.421 209.096 
303.297 254.229 210.406 313.21 263.91 210.155 294.006 264.396 210.453 
293.531 269.225 209.75 296.264 273.49 210.253 304.189 273.462 210.897 
299.607 274.456 210.513 301.656 253.886 211.077 299.956 254.727 211.899 
304.77 255.251 211.776 298.494 256.035 212.038 313.051 264.889 210.64 
311.024 267.951 211.285 307.755 270.294 212.124 302.126 273.254 211.854 
304.259 255.312 212.726 309.83 259.632 212.663 312.056 262.568 211.989 
312.397 264.265 211.814 309.97 267.536 212.845 300.473 255.063 213.017 
302.479 254.737 212.925 299.879 255.703 213.525 310.632 261.384 213.501 
296.292 263.559 213.835 311.294 264.379 213.164 295.29 266.371 212.927 
296.468 270.861 213.021 297.244 271.524 213.075 299.478 271.59 213.518 
302.822 255.598 214.035 300.554 256.239 214.471 298.285 258.149 214.109 
309.209 259.916 213.966 310.014 261.621 214.281 297.478 262.353 214.796 
297.272 268.378 214.439 299.515 257.425 214.734 304.897 257.708 215.306 
305.991 258.02 215.015 307.898 259.656 214.966 308.811 262.159 215.31 
308.963 263.154 215.274 298.914 267.225 215.528 300.233 268.428 215.455 
301.437 257.14 215.245 301.01 260.149 216.407 305.052 259.928 216.46 
299.287 261.337 215.914 307.405 260.902 215.725 300.575 263.859 216.666 
304.108 264.313 216.778 302.229 261.506 216.908 304.237 262.619 216.94 
303.632 261.475 238.428 301.437 263.522 238.455 303.223 263.302 238.355 
301.81 257.515 239.817 299.749 259.81 239.504 300.711 260.283 238.956 
308.514 261.157 240.297 304.345 265.512 239.013 299.214 266.824 239.669 
300.814 266.109 239.126 302.266 266.757 239.253 301.661 256.188 240.785 
303.412 256.272 240.761 305.073 257.221 240.569 307.225 258.91 240.576 
308.704 263.833 240.128 307.182 265.908 240.004 297.974 267.048 240.355 
300.514 268.416 240.033 301.187 255.252 241.985 303.625 255.567 241.715 
297.66 259.531 241.246 296.937 260.809 241.618 311.193 261.988 241.882 
310.606 263.743 241.204 308.376 267.504 241.335 307.558 268.65 241.71 
296.888 269.614 241.707 299.907 270.736 241.367 302.135 254.447 243.015 
299.827 255.777 241.886 304.26 255.397 242.448 297.274 258.447 242.382 
311.28 261.784 242.111 312.113 262.74 242.82 312.129 263.129 242.762 
311.132 265.368 242.161 296.176 270.004 242.417 296.735 270.965 242.476 
297.166 271.238 242.403 300.86 254.181 243.802 301.603 254.017 243.942 
300.215 254.689 243.331 302.927 254.568 243.135 312.315 265.311 243.773 
308.649 268.828 242.46 301.587 253.887 244.418 300.375 254.167 244.498 
296.596 258.416 243.982 309.831 259.362 243.339 312.957 262.923 244.444 
313.11 263.147 244.748 313.159 264.142 245.015 309.594 269.425 244.067 
296.267 272.704 244.191 303.077 273.068 243.485 301.107 253.802 245.226 
299.689 254.478 245.367 310.921 259.75 245.045 293.496 268.075 245.7 
294.441 270.638 245.03 296.517 273.432 244.942 301.906 253.79 246.003 
303.714 254.372 246.114 297.51 256.286 245.979 313.336 263.14 246.015 
293.072 266.822 246.794 306.985 273.138 246.467 300.867 275.269 246.344 
301.237 253.779 246.158 300.782 253.894 246.093 301.437 253.827 246.605 
293.267 265.025 246.9 305.721 274.115 247.03 302.698 275.301 246.692 
299.812 254.485 248.215 311.703 259.988 247.889 313.22 265.565 248.141 
313.436 264.961 248.313 294.538 272.61 248.033 299.785 275.66 248.359 
302.424 275.581 247.889 298.118 255.575 248.458 299.327 254.827 249.048 
293.943 261.906 249.26 313.506 264.617 248.726 293.193 270.732 249.883 
293.502 271.349 249.429 296.555 274.438 248.623 313.403 262.802 249.519 
292.641 267.9 250.135 307.68 272.782 249.851 296.433 274.344 250.133 
299.104 275.38 249.739 300.244 254.622 249.958 302.118 254.602 250.393 
292.813 269.531 251.357 304.245 274.592 250.325 313.342 263.76 251.112 
311.607 267.86 251.729 306.475 272.916 252.002 297.069 274.258 251.738 
301.169 274.559 251.743 299.766 255.343 252.597 311.655 260.301 252.716 
293.616 271.412 252.767 294.222 271.899 253.559 312.755 262.678 253.261 
292.9 265.912 253.374 308.681 270.249 254.312 295.673 272.996 253.697 
308.856 258.371 254.785 311.942 261.581 254.912 292.88 267.55 254.07 
293.293 269.603 254.77 293.797 270.396 255.175 296.395 272.818 254.629 
302.905 255.917 255.154 295.859 272.221 255.278 296.137 272.015 255.716 
307.942 258.35 256.834 295.244 259.888 257.071 293.8 263.285 256.619 
310.71 261.387 257.649 311.562 263.773 256.886 293.756 264.388 257.5 
293.665 265.857 257.429 308.615 268.164 257.417 294.456 269.216 257.458 
296.009 270.972 256.989 301.769 256.611 258.369 308.024 259.206 258.808 
295.336 260.153 259.01 294.451 262.103 258.816 310.92 262.522 257.969 
294.358 262.697 259.116 309.143 266.673 258.368 299.273 257.161 260.218 
302.472 256.856 259.13 309.7 261.787 259.369 294.157 265.216 258.998 
294.399 266.816 258.956 295.305 267.233 259.939 300.118 267.712 260.231 
298.2 269.115 259.221 296.636 269.149 259.104 308.561 260.614 259.914 
298.581 267.29 260.952 297.594 268.091 260.256 295.857 267.363 260.398 
301.779 257.362 261.539 297.674 258.324 261.932 307.158 260.821 261.322 
307.727 261.265 261.053 307.559 262.486 261.331 294.976 263.797 261.42 
306.681 263.691 261.482 306.857 263.177 261.599 295.591 265.332 261.681 
296.089 266.588 261.284 296.205 267.047 260.929 299.528 257.55 262.362 
305.216 259.628 262.268 296.589 260.026 262.899 306.453 260.84 261.851 
295.664 261.314 262.329 295.132 262.572 261.796 306.547 262.254 261.966 
295.189 263.127 262 296.083 264.868 262.585 296.694 265.5 262.491 
300.616 257.548 262.542 302.325 258.447 263.306 297.216 259.643 263.434 
303.029 258.709 263.118 303.947 259.264 262.975 304.484 261.343 263.298 
301.933 263.398 263.322 295.686 263.65 262.826 295.997 263.932 263.095 
297.506 264.426 263.475 298.925 258.637 263.935 296.717 260.575 263.695 
303.683 260.238 263.705 296.888 260.8 263.987 300.643 261.828 264.563 
297.814 262.608 264.413 297.114 263.4 263.971 299.17 258.779 264.182 
301.001 258.698 264.07 300.681 258.987 264.348 297.953 259.79 264.497 
298.262 259.724 264.637 298.076 260.005 264.681 299.826 261.217 264.931 
299.295 261.175 265.002 299.57 260.824 265.016 300.915 260.519 264.793 
301.475 260.876 264.608 297.343 261.518 264.436 298.894 261.35 264.961 
296.595 262.871 263.862 301.46 259.562 264.483 298.044 260.457 264.751 
297.816 261.601 264.681 
POLYGONS 816 3264
3 0 1 9 
3 0 2 6 
[...]
POINT_DATA 412
COLOR_SCALARS scalars 3
1 0.298039 0.243137 1 0.298039 0.243137 1 0.298039 0.243137 
1 0.298039 0.243137 1 0.298039 0.243137 
1 0.298039 0.243137 1 0.298039 0.243137 
1 0.298039 0.243137 1 0.298039 0.243137 
1 0.298039 0.243137 1 0.298039 0.243137 
1 0.298039 0.243137 1 0.298039 0.243137 
1 0.298039 0.243137 1 0.298039 0.243137 
1 0.298039 0.243137 1 0.298039 0.243137 
1 0.298039 0.243137 1 0.298039 0.243137 
1 0.298039 0.243137 1 0.298039 0.243137 
1 0.298039 0.243137 1 0.298039 0.243137 
1 0.298039 0.243137 1 0.298039 0.243137 
1 0.298039 0.243137 1 0.298039 0.243137 
1 0.298039 0.243137 1 0.298039 0.243137 
1 0.298039 0.243137 1 0.298039 0.243137 
1 0.298039 0.243137 1 0.298039 0.243137 
1 0.298039 0.243137 1 0.298039 0.243137 
1 0.298039 0.243137 1 0.298039 0.243137 
1 0.298039 0.243137 1 0.298039 0.243137 
1 0.298039 0.243137 1 0.298039 0.243137 
1 0.298039 0.243137 1 0.298039 0.243137 
1 0.298039 0.243137 1 0.298039 0.243137 
1 0.298039 0.243137 1 0.298039 0.243137 
1 0.298039 0.243137 1 0.298039 0.243137 
1 0.298039 0.243137 1 0.298039 0.243137 
1 0.298039 0.243137 1 0.298039 0.243137 
1 0.298039 0.243137 1 0.298039 0.243137 
1 0.298039 0.243137 1 0.298039 0.243137 
1 0.298039 0.243137 1 0.298039 0.243137 
1 0.298039 0.243137 1 0.298039 0.243137 
1 0.298039 0.243137 1 0.298039 0.243137 
1 0.298039 0.243137 1 0.298039 0.243137 
1 0.298039 0.243137 1 0.298039 0.243137 
1 0.298039 0.243137 1 0.298039 0.243137 
1 0.298039 0.243137 1 0.298039 0.243137 
1 0.298039 0.243137 1 0.298039 0.243137 
1 0.298039 0.243137 1 0.298039 0.243137 
1 0.298039 0.243137 1 0.298039 0.243137 
1 0.298039 0.243137 1 0.298039 0.243137 
1 0.298039 0.243137 1 0.298039 0.243137 
1 0.298039 0.243137 1 0.298039 0.243137 
1 0.298039 0.243137 1 0.298039 0.243137 
1 0.298039 0.243137 1 0.298039 0.243137 
1 0.298039 0.243137 1 0.298039 0.243137 
1 0.298039 0.243137 1 0.298039 0.243137 
1 0.298039 0.243137 1 0.298039 0.243137 
1 0.298039 0.243137 1 0.298039 0.243137 
1 0.298039 0.243137 1 0.298039 0.243137 
1 0.298039 0.243137 1 0.298039 0.243137 
1 0.298039 0.243137 1 0.298039 0.243137 
1 0.298039 0.243137 1 0.298039 0.243137 
1 0.298039 0.243137 1 0.298039 0.243137 
1 0.298039 0.243137 1 0.298039 0.243137 
1 0.298039 0.243137 1 0.298039 0.243137 
1 0.298039 0.243137 1 0.298039 0.243137 
1 0.298039 0.243137 1 0.298039 0.243137 
1 0.298039 0.243137 1 0.298039 0.243137 
1 0.298039 0.243137 1 0.298039 0.243137 
1 0.298039 0.243137 1 0.298039 0.243137 
1 0.298039 0.243137 1 0.298039 0.243137 
1 0.298039 0.243137 1 0.298039 0.243137 
1 0.298039 0.243137 1 0.298039 0.243137 
1 0.298039 0.243137 1 0.298039 0.243137 
1 0.298039 0.243137 1 0.298039 0.243137 
1 0.298039 0.243137 1 0.298039 0.243137 
1 0.298039 0.243137 1 0.298039 0.243137 
1 0.298039 0.243137 1 0.298039 0.243137 
1 0.298039 0.243137 1 0.298039 0.243137 
1 0.298039 0.243137 1 0.298039 0.243137 
1 0.298039 0.243137 1 0.298039 0.243137 
1 0.298039 0.243137 1 0.298039 0.243137 
1 0.298039 0.243137 1 0.298039 0.243137 
1 0.298039 0.243137 1 0.298039 0.243137 
1 0.298039 0.243137 1 0.298039 0.243137 
1 0.298039 0.243137 1 0.298039 0.243137 
1 0.298039 0.243137 1 0.298039 0.243137 
1 0.298039 0.243137 1 0.298039 0.243137 
1 0.298039 0.243137 1 0.298039 0.243137 
1 0.298039 0.243137 1 0.298039 0.243137 
1 0.298039 0.243137 1 0.298039 0.243137 
1 0.298039 0.243137 1 0.298039 0.243137 
1 0.298039 0.243137 1 0.298039 0.243137 
1 0.298039 0.243137 1 0.298039 0.243137 
1 0.298039 0.243137 1 0.298039 0.243137 
1 0.298039 0.243137 1 0.298039 0.243137 
1 0.298039 0.243137 1 0.298039 0.243137 
1 0.298039 0.243137 1 0.298039 0.243137 
1 0.298039 0.243137 1 0.298039 0.243137 
1 0.298039 0.243137 1 0.298039 0.243137 
1 0.298039 0.243137 1 0.298039 0.243137 
1 0.298039 0.243137 1 0.298039 0.243137 
1 0.298039 0.243137 1 0.298039 0.243137 
1 0.298039 0.243137 1 0.298039 0.243137 
1 0.298039 0.243137 1 0.298039 0.243137 
1 0.298039 0.243137 1 0.298039 0.243137 
1 0.298039 0.243137 1 0.298039 0.243137 
1 0.298039 0.243137 1 0.298039 0.243137 
1 0.298039 0.243137 1 0.298039 0.243137 
1 0.298039 0.243137 1 0.298039 0.243137 
1 0.298039 0.243137 1 0.298039 0.243137 
1 0.298039 0.243137 1 0.298039 0.243137 
1 0.298039 0.243137 1 0.298039 0.243137 
1 0.298039 0.243137 1 0.298039 0.243137 
1 0.298039 0.243137 1 0.298039 0.243137 
1 0.298039 0.243137 1 0.298039 0.243137 
1 0.298039 0.243137 1 0.298039 0.243137 
1 0.298039 0.243137 1 0.298039 0.243137 
1 0.298039 0.243137 1 0.298039 0.243137 
1 0.298039 0.243137 1 0.298039 0.243137 
1 0.298039 0.243137 1 0.298039 0.243137 
1 0.298039 0.243137 1 0.298039 0.243137 
1 0.298039 0.243137 1 0.298039 0.243137 
1 0.298039 0.243137 1 0.298039 0.243137 
1 0.298039 0.243137 1 0.298039 0.243137 
1 0.298039 0.243137 1 0.298039 0.243137 
1 0.298039 0.243137 1 0.298039 0.243137 
1 0.298039 0.243137 1 0.298039 0.243137 
1 0.298039 0.243137 1 0.298039 0.243137 
1 0.298039 0.243137 1 0.298039 0.243137 
1 0.298039 0.243137 1 0.298039 0.243137 
1 0.298039 0.243137 1 0.298039 0.243137 
1 0.298039 0.243137 1 0.298039 0.243137 
1 0.298039 0.243137 1 0.298039 0.243137 
1 0.298039 0.243137 1 0.298039 0.243137 
1 0.298039 0.243137 1 0.298039 0.243137 
1 0.298039 0.243137 1 0.298039 0.243137 
1 0.298039 0.243137 1 0.298039 0.243137 
1 0.298039 0.243137 1 0.298039 0.243137 
1 0.298039 0.243137 1 0.298039 0.243137 
1 0.298039 0.243137 1 0.298039 0.243137 
1 0.298039 0.243137 1 0.298039 0.243137 
1 0.298039 0.243137 1 0.298039 0.243137 
1 0.298039 0.243137 1 0.298039 0.243137 
1 0.298039 0.243137 1 0.298039 0.243137 
1 0.298039 0.243137 1 0.298039 0.243137 
1 0.298039 0.243137 1 0.298039 0.243137 
1 0.298039 0.243137 1 0.298039 0.243137 
1 0.298039 0.243137 1 0.298039 0.243137 
1 0.298039 0.243137 1 0.298039 0.243137 
1 0.298039 0.243137 1 0.298039 0.243137 
1 0.298039 0.243137 1 0.298039 0.243137 
1 0.298039 0.243137 1 0.298039 0.243137 
1 0.298039 0.243137 1 0.298039 0.243137 
1 0.298039 0.243137 1 0.298039 0.243137 
1 0.298039 0.243137 1 0.298039 0.243137 
1 0.298039 0.243137 1 0.298039 0.243137 
1 0.298039 0.243137 1 0.298039 0.243137 
1 0.298039 0.243137 1 0.298039 0.243137 
1 0.298039 0.243137 1 0.298039 0.243137 
1 0.298039 0.243137 1 0.298039 0.243137 
1 0.298039 0.243137 1 0.298039 0.243137 
1 0.298039 0.243137 1 0.298039 0.243137 
1 0.298039 0.243137 1 0.298039 0.243137 
1 0.298039 0.243137 1 0.298039 0.243137 
1 0.298039 0.243137 1 0.298039 0.243137 
1 0.298039 0.243137 1 0.298039 0.243137 
1 0.298039 0.243137 1 0.298039 0.243137 
1 0.298039 0.243137 1 0.298039 0.243137 
1 0.298039 0.243137 1 0.298039 0.243137 
1 0.298039 0.243137 1 0.298039 0.243137 
1 0.298039 0.243137 1 0.298039 0.243137 
1 0.298039 0.243137 1 0.298039 0.243137 
1 0.298039 0.243137 1 0.298039 0.243137 
1 0.298039 0.243137 1 0.298039 0.243137 
1 0.298039 0.243137 1 0.298039 0.243137 
1 0.298039 0.243137 1 0.298039 0.243137 
1 0.298039 0.243137 1 0.298039 0.243137 
1 0.298039 0.243137 1 0.298039 0.243137 
1 0.298039 0.243137 1 0.298039 0.243137 
1 0.298039 0.243137 1 0.298039 0.243137 
1 0.298039 0.243137 1 0.298039 0.243137 
1 0.298039 0.243137 1 0.298039 0.243137 
1 0.298039 0.243137 1 0.298039 0.243137 
1 0.298039 0.243137 1 0.298039 0.243137 
1 0.298039 0.243137 1 0.298039 0.243137 
1 0.298039 0.243137 1 0.298039 0.243137 
1 0.298039 0.243137 1 0.298039 0.243137 
1 0.298039 0.243137 1 0.298039 0.243137 
1 0.298039 0.243137 1 0.298039 0.243137 
1 0.298039 0.243137 1 0.298039 0.243137 
1 0.298039 0.243137 1 0.298039 0.243137 
1 0.298039 0.243137 1 0.298039 0.243137 
1 0.298039 0.243137 1 0.298039 0.243137 
1 0.298039 0.243137 1 0.298039 0.243137 
1 0.298039 0.243137 1 0.298039 0.243137 
1 0.298039 0.243137 1 0.298039 0.243137 
1 0.298039 0.243137 1 0.298039 0.243137 
1 0.298039 0.243137 1 0.298039 0.243137 
1 0.298039 0.243137 1 0.298039 0.243137 
1 0.298039 0.243137 1 0.298039 0.243137 
1 0.298039 0.243137 1 0.298039 0.243137 
1 0.298039 0.243137 1 0.298039 0.243137 
1 0.298039 0.243137 1 0.298039 0.243137 
1 0.298039 0.243137 1 0.298039 0.243137 
1 0.298039 0.243137 1 0.298039 0.243137 
1 0.298039 0.243137 1 0.298039 0.243137 
1 0.298039 0.243137 1 0.298039 0.243137 
1 0.298039 0.243137 1 0.298039 0.243137 
1 0.298039 0.243137 1 0.298039 0.243137 
1 0.298039 0.243137 1 0.298039 0.243137 
1 0.298039 0.243137 1 0.298039 0.243137 
1 0.298039 0.243137 1 0.298039 0.243137 
1 0.298039 0.243137 1 0.298039 0.243137 
1 0.298039 0.243137 1 0.298039 0.243137 
1 0.298039 0.243137 1 0.298039 0.243137 
1 0.298039 0.243137 
NORMALS Normals float
-0.0506421 -0.432274 -0.900319 0.226536 -0.349325 -0.909205 -0.257607 -0.348703 -0.901135 
0.131033 -0.0591225 -0.989613 -0.454427 -0.192899 -0.869647 -0.52135 -0.0613477 -0.851135 
-0.145799 0.0366778 -0.988634 0.356015 0.0027141 -0.934476 -0.397651 0.0965417 -0.912443 
0.167938 -0.648253 -0.742674 -0.301178 -0.732413 -0.610626 0.423514 -0.389515 -0.817872 
-0.576793 -0.515733 -0.633505 0.434082 -0.232696 -0.870302 0.557555 -0.19991 -0.80571 
0.0235448 0.221295 -0.974923 0.188791 0.336201 -0.922674 -0.741607 0.125198 -0.659048 
-0.403145 0.229763 -0.885823 -0.435454 0.354167 -0.827614 -0.711627 -0.237701 -0.661125 
-0.0944405 0.415206 -0.904812 -0.391342 0.4214 -0.818092 -0.289459 -0.886004 -0.362229 
-0.0173108 -0.865558 -0.500509 0.104051 -0.897546 -0.428468 0.40567 -0.673252 -0.618194 
-0.780029 -0.467357 -0.416092 0.513629 -0.288145 -0.808181 -0.903492 -0.198052 -0.380103 
0.246818 0.483192 -0.840004 0.0765557 0.558169 -0.826188 -0.189758 0.527398 -0.828157 
0.15239 -0.938482 -0.309884 0.2282 -0.903933 -0.361703 -0.612631 -0.714264 -0.338394 
0.551577 -0.529944 -0.644144 -0.800328 -0.543797 -0.252507 0.51706 -0.176423 -0.83757 
0.52876 -0.229937 -0.817032 0.386142 0.353653 -0.851953 -0.248333 -0.945153 -0.212172 
0.522877 -0.629376 -0.574879 0.71534 -0.273768 -0.642916 0.609555 -0.0341097 -0.792009 
0.505119 0.131287 -0.853006 0.474602 0.407755 -0.780057 -0.821038 0.231874 -0.521663 
0.140986 0.684388 -0.715357 -0.483582 0.506379 -0.713952 -0.357336 0.597625 -0.717743 
0.333454 -0.905535 -0.262324 0.177666 -0.952117 -0.248813 0.443487 -0.812126 -0.37917 
0.563006 -0.755808 -0.334331 0.582028 -0.456604 -0.672872 0.712355 0.0224689 -0.701459 
-0.693751 0.43747 -0.572127 -0.56113 0.525384 -0.639613 0.395602 -0.894231 -0.209401 
-0.617429 -0.762665 -0.192674 0.533598 -0.790874 -0.299651 -0.83109 -0.51621 -0.206922 
0.753277 -0.226763 -0.617375 -0.960052 0.0647002 -0.272239 0.50879 0.437235 -0.741592 
-0.841885 0.32808 -0.428479 -0.131547 0.670947 -0.729744 -0.370166 0.625484 -0.686838 
-0.429272 -0.89587 -0.114646 -0.787947 -0.611482 -0.0723203 0.693269 -0.531302 -0.486926 
0.753351 0.165147 -0.636544 0.906117 0.108991 -0.408745 0.418277 0.693047 -0.587137 
0.10149 0.704622 -0.702287 -0.275224 0.701228 -0.657671 -0.987547 -0.0986794 -0.122527 
0.822921 0.300553 -0.48215 -0.859013 0.27641 -0.430922 -0.488285 0.649929 -0.582383 
-0.139428 0.744384 -0.653033 0.834067 -0.444879 -0.326214 0.953211 -0.0548669 -0.297284 
0.724647 0.434362 -0.534992 -0.765416 0.494934 -0.411313 0.887859 0.360681 -0.285685 
-0.918125 -0.000835682 -0.39629 -0.976967 0.156924 -0.144605 -0.368132 0.752912 -0.54553 
0.309566 -0.924164 -0.223808 0.902812 -0.348862 -0.251447 -0.891345 -0.35033 -0.287704 
-0.958685 -0.0971554 -0.267365 -0.919852 0.308829 -0.24186 -0.189696 0.798963 -0.570678 
0.0316561 0.922567 -0.384536 -0.0612781 -0.967646 -0.244758 -0.0209467 -0.983697 -0.178609 
-0.507059 -0.853426 -0.120644 0.647966 -0.745291 -0.157105 -0.98307 -0.160579 -0.0882443 
0.0795228 0.813537 -0.57605 -0.63629 0.711804 -0.297439 -0.278514 0.932118 -0.231488 
0.156325 -0.957952 -0.240603 -0.443372 -0.890446 -0.102603 0.865725 -0.482451 -0.133272 
0.961455 0.167659 -0.217936 -0.926271 0.358029 -0.117629 0.665588 0.68073 -0.30594 
0.155144 0.801015 -0.578191 -0.590773 -0.800683 -0.0994666 -0.837044 -0.546558 -0.0251343 
0.0393304 0.951071 -0.306458 -0.0826532 0.907891 -0.410977 0.18585 -0.902213 -0.389194 
0.375454 -0.915154 -0.146719 0.995624 0.0529556 -0.0769908 -0.948692 -0.312446 -0.0485955 
-0.215428 -0.965294 -0.147644 0.277179 -0.849555 -0.448807 0.880292 0.467846 -0.0787843 
-0.735323 0.676387 0.042439 0.391189 0.897995 -0.201432 0.283639 -0.951314 -0.120624 
0.900387 -0.421381 0.108354 -0.998363 0.0528317 -0.0219229 -0.898486 0.424632 0.111407 
-0.513751 0.856076 0.0565114 -0.222945 0.97382 -0.0443783 -0.515468 -0.85511 -0.0554895 
0.517372 -0.805409 -0.28921 0.700898 -0.713256 -0.00276075 -0.972171 -0.20723 0.109266 
-0.991021 0.00469941 0.133625 0.693912 0.711359 0.111601 0.449929 0.89235 0.0357163 
0.0651152 0.991581 0.111921 -0.33098 -0.939964 -0.0831887 -0.685035 -0.726021 0.0601723 
-0.887253 0.389542 0.247062 0.127247 0.960036 0.249276 -0.217143 0.940684 0.260695 
-0.366513 -0.929681 0.0369066 0.105818 -0.994198 -0.0193 -0.753035 -0.647785 0.115382 
-0.868262 -0.435717 0.237215 0.991893 -0.112244 0.0595813 0.870091 0.451482 0.197752 
-0.794818 0.438266 0.419747 0.518296 0.797869 0.307855 0.456758 0.856088 0.241838 
0.391332 -0.911203 0.128715 0.921994 -0.33398 0.195921 -0.890854 -0.255811 0.375419 
-0.900604 0.0941379 0.424323 -0.532564 0.753021 0.386438 0.288095 0.657706 0.696006 
-0.0486889 0.848247 0.527359 -0.0333854 -0.95896 0.281568 -0.54648 -0.812667 0.202316 
0.505065 -0.840928 0.194293 -0.72023 -0.608166 0.33377 0.909255 0.13152 0.394916 
0.710631 0.536063 0.455675 0.478035 0.624583 0.617558 0.171298 0.716472 0.676259 
0.426572 -0.788074 0.443818 0.69292 -0.617006 0.373049 0.857186 -0.361572 0.36674 
0.784741 0.237732 0.572421 0.57239 0.424454 0.701576 -0.323376 -0.805513 0.496566 
0.0858643 -0.848094 0.522842 -0.441517 -0.675924 0.590076 0.746965 -0.328521 0.578029 
-0.733027 -0.119409 0.669636 0.676935 0.111268 0.727584 -0.742755 0.0373154 0.668522 
-0.588187 0.34261 0.732567 -0.315807 0.547239 0.77511 -0.101549 0.526244 0.844248 
0.246413 -0.743789 0.621337 -0.22868 -0.64566 0.72858 -0.740399 -0.388581 0.548466 
0.600521 -0.457708 0.655651 0.672587 -0.304924 0.674276 -0.666367 -0.143143 0.731755 
-0.467065 0.253697 0.847047 -0.453131 -0.437802 0.776532 0.218052 -0.561871 0.797969 
0.48833 -0.659858 0.57107 0.553088 -0.627335 0.54822 0.511106 -0.143428 0.847466 
0.481469 0.172354 0.859349 -0.452432 0.174988 0.874462 -0.0148227 0.413802 0.910246 
-0.115832 -0.537664 0.835165 -0.28501 -0.284623 0.915292 0.240965 -0.313055 0.918658 
-0.449787 -0.150448 0.880373 0.443899 -0.193097 0.875024 -0.280084 0.0829948 0.956381 
0.268698 0.252498 0.929541 -0.118242 -0.0852572 0.989318 0.282297 0.0198616 0.959121 
0.154666 -0.220769 -0.962985 -0.334993 0.0459165 -0.941101 0.0634008 0.0817614 -0.994633 
0.0101115 -0.438285 -0.898779 -0.499028 -0.33792 -0.797986 -0.295703 -0.128072 -0.946656 
0.461399 -0.293992 -0.837066 0.169584 0.263072 -0.949755 -0.300873 0.187929 -0.934964 
-0.25269 0.084765 -0.963827 0.0630385 0.427482 -0.901823 -0.204979 -0.635069 -0.744762 
0.119587 -0.688317 -0.715485 0.349821 -0.534569 -0.769325 0.351448 -0.388345 -0.851864 
0.316333 0.00517274 -0.948634 0.316532 0.422904 -0.849094 -0.61777 0.00976757 -0.786298 
-0.13712 0.450947 -0.881955 -0.0740673 -0.796829 -0.599649 0.307787 -0.778627 -0.546815 
-0.748103 -0.282544 -0.600425 -0.689317 -0.0756777 -0.720497 0.626469 -0.344402 -0.699231 
0.686287 0.129043 -0.715792 0.529006 0.50974 -0.678467 0.285855 0.56769 -0.77202 
-0.450889 0.326023 -0.830908 -0.0228711 0.607699 -0.793839 0.0378787 -0.8523 -0.52168 
-0.514134 -0.646399 -0.563768 0.491278 -0.804689 -0.333348 -0.717437 -0.491699 -0.493474 
0.712442 -0.51827 -0.4731 0.806915 -0.280359 -0.519891 0.817901 0.248803 -0.518783 
0.599186 0.347952 -0.721044 -0.652414 0.226547 -0.72321 -0.561988 0.417031 -0.714321 
-0.302718 0.518381 -0.799777 -0.361915 -0.82057 -0.442359 -0.0199003 -0.954458 -0.297683 
-0.461209 -0.793737 -0.39657 0.319927 -0.886955 -0.333101 0.82871 0.385385 -0.405855 
0.421526 0.588536 -0.689884 0.0807477 -0.97894 -0.1875 -0.41549 -0.868266 -0.271075 
-0.840701 -0.417623 -0.344693 0.579168 -0.730271 -0.362311 0.909618 -0.0156924 -0.41515 
0.936987 -0.266255 -0.226196 0.94323 0.145495 -0.298578 0.719441 0.537566 -0.439804 
-0.549496 0.591578 -0.589991 0.148231 0.737578 -0.658792 -0.387723 -0.918903 -0.0727243 
-0.656277 -0.718313 -0.230928 0.778514 -0.601322 -0.179802 -0.907976 0.10659 -0.405238 
-0.802412 0.410768 -0.432903 -0.386073 0.787658 -0.480148 0.0839464 -0.994694 -0.0594655 
0.427701 -0.90345 0.0291422 -0.804178 -0.57498 -0.150652 0.982157 -0.135921 -0.129975 
-0.966459 -0.0222751 -0.255854 0.581109 0.738729 -0.341455 0.0606266 0.840509 -0.538395 
-0.126818 -0.987095 -0.0977805 -0.354921 -0.930397 -0.0916102 -0.014151 -0.981196 0.192496 
-0.943843 -0.238758 -0.228373 0.521535 0.80327 -0.287677 0.229541 0.822192 -0.520875 
-0.455743 -0.887713 0.0652965 0.679829 -0.731307 -0.0549747 0.910926 0.407282 -0.0658455 
0.9876 0.109865 -0.11214 -0.841584 0.465927 -0.273219 -0.171847 0.984754 -0.0269694 
0.175797 0.98432 0.0144681 -0.631966 -0.768083 0.103286 -0.359042 -0.922494 0.141755 
-0.909267 -0.415477 -0.0247378 0.96518 0.241839 0.0997093 -0.944024 0.259522 -0.203633 
-0.836128 0.547211 -0.0380724 -0.563193 0.824164 -0.0597265 0.959772 -0.279953 0.0215284 
-0.997936 0.0426904 -0.0479753 0.637211 0.765911 0.0856918 -0.519388 0.850496 0.0830261 
-0.162571 0.959648 0.229448 -0.30913 -0.935893 0.168945 0.0298967 -0.98647 0.161192 
-0.948766 0.300586 0.0974255 0.353696 0.904269 0.239161 0.976925 0.0397692 0.209846 
0.7416 0.594507 0.31079 0.475192 0.78848 0.390502 -0.171485 0.913224 0.369613 
0.0907878 0.842919 0.530325 -0.305065 -0.929946 0.205272 0.669754 -0.739622 0.0662492 
-0.769437 0.628467 0.114003 -0.668993 0.636271 0.384198 0.969375 -0.0673601 0.236165 
-0.989418 -0.0421726 -0.13883 0.510392 0.730539 0.453667 -0.530868 0.810911 0.246175 
0.581456 -0.801685 0.138597 0.853686 -0.443931 0.272296 -0.970218 0.0652139 0.233291 
-0.951278 0.259222 0.166957 -0.76724 0.307725 0.562715 -0.0485742 0.830161 0.555403 
0.277901 -0.949499 0.145684 -0.512098 0.685273 0.517838 -0.385587 0.698474 0.602874 
0.450025 -0.852684 0.265345 -0.845661 -0.526193 0.0893252 -0.961668 -0.236077 0.139507 
0.78601 -0.492212 0.374054 0.907887 0.151401 0.39092 -0.956505 -0.0818097 0.280009 
-0.963761 0.0467374 0.262643 0.440903 0.65552 0.613105 -0.747242 0.463714 0.476024 
0.0410316 0.784648 0.618583 0.118227 -0.96761 0.223052 0.573796 -0.651105 0.49681 
-0.88463 -0.407783 0.226148 -0.952524 -0.271127 0.138521 0.590417 0.322195 0.739999 
-0.94426 -0.216416 0.248066 0.412077 0.533659 0.738513 -0.225576 -0.94393 0.241064 
0.238232 -0.93712 0.255052 0.746379 -0.0882339 0.659646 -0.969765 -0.0563643 0.237441 
-0.867757 0.17822 0.463935 -0.628675 0.447825 0.635783 0.194105 0.717724 0.668727 
0.154123 0.771906 0.616771 -0.136084 0.712669 0.688174 0.67274 -0.394953 0.625646 
0.0654478 0.694442 0.716566 -0.0551939 0.726401 0.685051 -0.43369 0.619745 0.654087 
0.215991 -0.936404 0.276578 -0.636815 -0.736682 0.227522 0.573215 -0.380594 0.725653 
0.609838 -0.307205 0.730563 0.69543 0.111619 0.709872 -0.922753 0.0904761 0.37462 
0.416859 0.373211 0.82882 0.461062 0.283693 0.840797 -0.776577 0.433565 0.45711 
-0.267865 0.681247 0.681286 -0.601053 0.496162 0.626545 -0.221814 -0.931513 0.28824 
0.555571 -0.371722 0.743749 -0.722626 -0.627371 0.290203 0.54606 -0.357641 0.757569 
-0.862142 -0.323186 0.390207 -0.948 -0.14485 0.283399 0.491596 0.00309566 0.870818 
-0.878359 0.0664858 0.473355 -0.719001 0.38569 0.57817 -0.302392 0.603733 0.737608 
0.0682794 -0.872932 0.48304 0.356656 -0.673368 0.64759 -0.629567 -0.632815 0.450766 
0.421073 -0.734601 0.532033 0.515922 -0.671271 0.532184 0.475562 0.0396924 0.878786 
0.245587 0.495229 0.833328 -0.788224 0.0808564 0.610053 -0.520612 0.368588 0.770134 
0.0375592 0.608239 0.792865 -0.41574 -0.7899 0.450797 -0.761056 -0.334711 0.555664 
0.464074 -0.330003 0.82203 -0.648213 -0.224937 0.727477 0.225991 0.309885 0.923526 
-0.147773 0.360153 0.921115 -0.409834 0.307226 0.858865 -0.10266 -0.698676 0.708034 