# vtk DataFile Version 4.2
vtk output
ASCII
DATASET POLYDATA
POINTS 878 float
398.071 279.808 167.575 397.308 279.863 167.672 407.363 279.753 167.437 
408.884 280.203 167.36 409.228 280.058 167.548 397.66 280.063 167.512 
399.266 280.244 167.307 409.767 280.498 167.746 399.65 280.717 167.276 
402.383 280.872 167.012 408.299 280.814 167.244 393.692 279.406 168.691 
396.837 279.673 167.92 408.721 279.704 167.819 409.73 280.122 167.802 
393.851 280.042 168.461 394.414 279.825 168.353 410.174 280.323 168 
410.591 280.34 168.327 411.019 280.391 168.755 396.536 280.679 167.811 
396.68 281.008 167.856 400.149 281.209 167.362 409.247 281.125 167.702 
400.723 281.689 167.575 404.979 281.649 167.407 406.564 282.04 167.905 
382.379 262.803 168.565 380.626 264.423 168.415 382.424 264.563 168.487 
379.913 267.217 168.378 380.426 269.215 168.445 391.921 278.754 169.513 
393.89 278.808 169.334 408.652 279.494 168.309 410.054 279.768 168.513 
409.944 279.638 168.819 410.601 279.85 169.045 393.45 280.445 168.684 
394.693 281.074 168.491 410.497 280.898 168.297 396.218 281.633 168.384 
410.081 281.4 168.368 411.147 280.972 168.939 382.5 257.221 169.662 
381.309 257.289 169.706 380.777 258.677 169.405 384.326 258.049 169.78 
383.579 260.918 169.089 379.161 261.485 169.444 378.322 264.396 169.372 
384.263 266.18 169.238 378.688 268.827 169.018 383.624 268.463 169.002 
384.565 271.823 169.505 389.114 276.837 170.295 388.381 277.884 169.876 
388.281 278.471 169.839 390.673 278.736 169.641 409.36 279.476 168.883 
388.829 279.24 169.862 389.337 279.733 169.884 411.834 280.607 169.716 
411.68 280.338 169.712 412.102 280.54 170.172 412.067 280.764 170.015 
410.879 281.49 169.113 411.233 281.254 169.247 398.514 283.174 169.554 
399.834 283.002 169.068 410.688 281.852 169.451 383.871 255.973 170.64 
385.57 258.736 170.21 385.99 259.642 170.265 377.686 262.898 170.301 
377.11 269.551 170.181 385.134 271.1 169.769 378.341 272.418 170.132 
386.595 273.724 170.258 382.067 275.472 170.003 390.537 281.055 170.143 
412.103 280.919 170.093 411.647 281.369 169.86 407.14 283.529 170.324 
383.352 254.501 171.759 385.499 256.23 171.792 387.618 258.536 171.91 
387.989 259.951 171.641 387.016 262.863 170.716 376.249 265.921 171.189 
376.153 268.591 171.193 386.487 279.47 170.698 412.498 280.329 171.104 
412.817 280.818 171.263 392.427 283.145 171.618 379.134 252.878 172.713 
380.964 252.904 172.487 378.538 253.337 172.792 382.439 253.794 172.031 
378.271 254.163 172.573 383.941 254.518 172.569 386.655 256.814 172.507 
387.361 257.703 172.189 387.477 257.551 172.576 388.86 263.07 171.871 
376.832 273.581 171.964 377.812 275.151 172.001 413.188 281.353 172.221 
395.083 284.005 172.042 410.059 283.559 172.18 398.4 284.593 172.482 
378.863 251.996 173.783 379.987 252.059 173.532 380.201 251.895 173.857 
378.763 252.574 173.229 378.255 252.461 173.63 377.539 253.811 173.704 
384.077 254.413 173.304 387.197 257.168 172.836 388.618 258.564 173.034 
390.687 264.479 173.223 375.118 270.603 173.753 375.951 273.592 173.382 
391.846 276.187 172.33 396.443 277.974 172.218 413.227 281.931 173.008 
378.218 251.902 174.242 377.965 252.01 174.433 379.611 251.475 174.61 
380.544 251.936 174.058 378.068 252.235 174.025 377.165 253.998 174.339 
387.872 257.636 173.726 388.996 258.785 173.518 389.682 259.728 173.628 
390.702 261.25 174.006 390.743 261.061 174.386 390.938 261.934 173.951 
391.311 262.423 174.409 375.637 262.986 173.76 393.392 276.681 172.782 
414.502 281.089 174.505 414.219 281.472 174.168 378.331 251.135 175.393 
378.818 250.878 175.788 379.155 250.924 175.728 378.095 251.411 175.209 
377.788 251.923 174.994 379.467 251.162 175.365 380.69 251.734 175.498 
388.746 258.523 174.277 389.176 259.035 174.467 389.659 259.533 174.305 
390.552 260.715 174.592 391.51 262.557 174.825 391.604 263.027 174.695 
391.965 265.605 174.729 392.661 267.867 175.335 392.476 269.15 174.775 
392.024 270.054 174.253 392.882 270.923 174.8 385.549 283.021 175.478 
378.056 251.122 176.133 378.339 250.818 176.485 378.655 250.799 176.222 
379.457 250.96 176.325 386.479 256.892 175.445 388.217 258.663 175.52 
389.822 260.054 175.248 390.75 261.131 175.183 391.492 262.485 175.085 
391.526 262.757 175.318 392.388 266.073 175.967 392.578 266.726 175.896 
392.739 267.276 176.467 393.835 270.074 176.477 394.267 271.113 176.247 
377.475 278.618 175.939 380.715 281.039 176.061 414.587 282.183 176.041 
378.378 250.68 176.771 378.298 250.658 176.854 378.245 250.737 176.778 
378.377 250.695 176.918 378.035 251.05 176.833 378.687 250.777 176.798 
379.169 250.951 177.198 386.938 257.99 176.274 388.773 259.427 175.767 
389.472 260.971 176.408 391.57 265.228 177.097 392.221 265.826 176.379 
392.38 266.548 176.813 393.007 268.241 177.063 393.616 269.458 177.154 
394.308 270.539 177.438 395.066 271.488 177.755 397.745 274.453 177.038 
397.007 275.357 175.627 415.779 280.765 177.122 378.244 250.753 176.925 
377.953 251.277 177.585 378.331 250.891 177.212 380.33 251.606 177.561 
392.112 267.382 178.006 391.877 267.41 178.292 393.994 270.078 177.508 
374.378 270.889 178.187 395.416 271.967 178.313 396.788 273.256 178.195 
398.061 274.429 177.501 399.623 275.203 178.018 376.798 278.552 178.439 
378.779 251.077 177.948 378.62 251.236 178.293 377.024 252.395 178.21 
377.13 252.339 178.672 380.664 252.1 178.42 374.358 265.044 178.898 
394.301 270.998 178.785 394.261 271.328 179.376 375.922 277.327 179.465 
416.508 280.117 179.01 416.618 279.654 179.607 416.629 280.436 179.193 
380.837 282.025 179.401 416.345 281.235 178.908 377.922 251.552 178.431 
377.436 252.293 179.182 377.988 251.772 178.87 379.607 251.69 178.959 
379.44 251.821 179.235 377.02 252.793 179.42 375.57 255.873 179.847 
386.283 263.258 180.383 399.176 275.059 180.542 401.036 275.629 179.743 
415.171 278.145 179.414 416.604 279.075 180.258 414.063 283.731 180.065 
395.254 285.794 180.195 377.888 252.081 179.367 379.016 251.873 179.351 
378.341 252.376 180.01 378.608 252.613 180.318 380.266 253.28 180.511 
381.133 254.116 180.532 375.928 255.484 180.794 413.993 277.319 180.794 
415.262 277.445 181.095 415.537 277.51 181.332 413.266 277.331 180.902 
416.27 277.971 181.275 416.396 278.208 181.024 417.099 279.802 181.213 
378.431 280.288 180.886 377.609 252.921 180.29 380.469 254.121 181.245 
380.215 254.213 181.492 376.011 255.731 181.371 382.216 256.782 181.729 
393.505 272.809 182.203 415.617 277.552 181.78 416.006 277.707 181.776 
376.218 277.178 182.195 416.892 278.859 181.699 417.206 280.492 182.046 
379.668 254.262 181.743 380.454 255.254 182.323 380.133 255.457 182.718 
375.709 256.986 181.902 375.781 257.313 182.321 415.076 277.533 182.53 
416.395 278.039 182.198 416.252 277.984 182.557 417.243 280.092 182.75 
417.053 281.292 182.995 416.425 282.444 183.376 385.194 283.885 183.316 
415.482 283.269 182.966 377.636 255.663 182.997 378.968 255.487 183.054 
376.635 256.21 182.783 381.139 256.622 183.036 380.878 256.662 183.334 
375.789 258.956 183.247 374.888 269.485 183.429 415.423 277.684 182.814 
417.151 279.739 183.325 416.44 282.523 184.318 414.287 283.995 183.444 
379.629 256.581 183.835 377.82 257.562 184.471 378.415 257.324 184.477 
377.584 258.02 184.675 376.438 260.151 184.856 375.366 266.029 184.837 
375.891 273.636 184.707 391.352 273.712 185.617 416.399 278.724 184.163 
416.667 279.109 184.223 381.097 281.356 185.088 416.959 281.585 184.807 
378.304 258.4 185.291 416.089 278.542 184.264 403.976 278.456 186.027 
416.863 280.094 185.213 416.982 281.155 185.439 416.084 282.949 185.262 
416.284 282.729 185.727 416.567 282.286 185.922 399.868 285.796 185.914 
377.612 261.793 186.768 388.232 272.165 186.93 413.441 278.936 186.223 
379.615 279.512 186.21 415.549 279.473 186.454 414.707 283.797 186.347 
379.915 260.592 186.939 378.858 261.192 187.155 381.261 261.238 186.659 
378.505 261.689 187.255 381.838 262.955 187.213 377.504 264.691 187.601 
376.955 265.11 187.159 377.649 272.93 187.778 415.997 279.518 186.158 
416.487 280.419 186.605 416.263 282.23 187.659 380.424 262.391 187.729 
379.628 263.328 188.221 381.356 263.102 187.723 378.788 265.141 188.567 
380.328 277.116 188.874 414.499 279.893 187.787 415.046 280.039 187.703 
415.679 280.22 187.464 416.188 280.513 187.232 416.195 280.967 187.706 
384.725 281.54 188.91 416.36 281.837 187.824 415.683 282.697 188.18 
396.7 285.166 188.646 381.198 263.525 188.06 380.706 264.541 188.695 
379.385 266.095 189.073 378.987 271.378 189.256 386.027 271.635 188.993 
381.723 278.905 189.012 382.37 279.397 189.145 413.487 280.513 189.113 
415.7 281.004 188.316 386.494 281.666 190.054 416.177 281.654 188.191 
415.903 281.838 188.58 415.448 282.49 188.755 415.8 282.124 188.618 
414.269 283.266 189.216 380.421 265.956 189.226 382.64 268.865 189.515 
380.289 270.461 189.884 383.318 277.537 190.707 402.965 279.636 191.157 
415.336 281.892 189.099 414.863 282.154 189.648 414.563 282.626 189.73 
414.752 282.374 189.74 383.278 271.536 190.356 382.424 274.309 190.75 
383.827 273.875 190.97 387.923 275.419 191.443 390.602 276.276 191.77 
403.017 279.822 191.696 413.226 281.206 190.121 413.511 281.659 190.395 
413.982 281.935 190.259 413.253 282.781 190.68 410.09 284.014 191.15 
388.783 276.869 192.499 387.174 277.523 192.4 400.805 279.352 192.147 
400.716 279.515 192.567 402.889 280.035 192.226 388.75 280.077 192.689 
407.756 280.857 191.815 411.243 282.432 191.903 412.572 281.971 191.033 
411.306 282.812 191.845 399.353 283.38 192.69 401.563 283.879 192.356 
410.721 283.225 191.836 411.086 282.995 191.882 408.935 283.74 191.928 
387.636 277.277 192.522 388.979 277.497 192.904 395.701 278.107 192.823 
397.942 278.918 193.093 400.05 279.516 192.994 389.036 279.438 193.131 
401.829 280.292 193.05 403.504 280.477 192.666 390.639 280.833 193.034 
409.358 281.452 192.178 410.093 281.574 191.998 409.635 281.786 192.391 
410.218 282.38 192.419 398.255 282.354 193.467 410.042 282.687 192.437 
402 283.176 193.049 389.767 278.634 193.384 393.935 278.658 193.837 
[...]
POINT_DATA 878
COLOR_SCALARS scalars 3
1 0.682353 0.435294 1 0.682353 0.435294 1 0.682353 0.435294 
1 0.682353 0.435294 1 0.682353 0.435294 
1 0.682353 0.435294 1 0.682353 0.435294 
1 0.682353 0.435294 1 0.682353 0.435294 
1 0.682353 0.435294 1 0.682353 0.435294 
1 0.682353 0.435294 1 0.682353 0.435294 
1 0.682353 0.435294 1 0.682353 0.435294 
1 0.682353 0.435294 1 0.682353 0.435294 
1 0.682353 0.435294 1 0.682353 0.435294 
1 0.682353 0.435294 1 0.682353 0.435294 
1 0.682353 0.435294 1 0.682353 0.435294 
1 0.682353 0.435294 1 0.682353 0.435294 
1 0.682353 0.435294 1 0.682353 0.435294 
1 0.682353 0.435294 1 0.682353 0.435294 
1 0.682353 0.435294 1 0.682353 0.435294 
1 0.682353 0.435294 1 0.682353 0.435294 
1 0.682353 0.435294 1 0.682353 0.435294 
1 0.682353 0.435294 1 0.682353 0.435294 
1 0.682353 0.435294 1 0.682353 0.435294 
1 0.682353 0.435294 1 0.682353 0.435294 
1 0.682353 0.435294 1 0.682353 0.435294 
1 0.682353 0.435294 1 0.682353 0.435294 
1 0.682353 0.435294 1 0.682353 0.435294 
1 0.682353 0.435294 1 0.682353 0.435294 
1 0.682353 0.435294 1 0.682353 0.435294 
1 0.682353 0.435294 1 0.682353 0.435294 
1 0.682353 0.435294 1 0.682353 0.435294 
1 0.682353 0.435294 1 0.682353 0.435294 
1 0.682353 0.435294 1 0.682353 0.435294 
1 0.682353 0.435294 1 0.682353 0.435294 
1 0.682353 0.435294 1 0.682353 0.435294 
1 0.682353 0.435294 1 0.682353 0.435294 
1 0.682353 0.435294 1 0.682353 0.435294 
1 0.682353 0.435294 1 0.682353 0.435294 
1 0.682353 0.435294 1 0.682353 0.435294 
1 0.682353 0.435294 1 0.682353 0.435294 
1 0.682353 0.435294 1 0.682353 0.435294 
1 0.682353 0.435294 1 0.682353 0.435294 
1 0.682353 0.435294 1 0.682353 0.435294 
1 0.682353 0.435294 1 0.682353 0.435294 
1 0.682353 0.435294 1 0.682353 0.435294 
1 0.682353 0.435294 1 0.682353 0.435294 
1 0.682353 0.435294 1 0.682353 0.435294 
1 0.682353 0.435294 1 0.682353 0.435294 
1 0.682353 0.435294 1 0.682353 0.435294 
1 0.682353 0.435294 1 0.682353 0.435294 
1 0.682353 0.435294 1 0.682353 0.435294 
1 0.682353 0.435294 1 0.682353 0.435294 
1 0.682353 0.435294 1 0.682353 0.435294 
1 0.682353 0.435294 1 0.682353 0.435294 
1 0.682353 0.435294 1 0.682353 0.435294 
1 0.682353 0.435294 1 0.682353 0.435294 
1 0.682353 0.435294 1 0.682353 0.435294 
1 0.682353 0.435294 1 0.682353 0.435294 
1 0.682353 0.435294 1 0.682353 0.435294 
1 0.682353 0.435294 1 0.682353 0.435294 
1 0.682353 0.435294 1 0.682353 0.435294 
1 0.682353 0.435294 1 0.682353 0.435294 
1 0.682353 0.435294 1 0.682353 0.435294 
1 0.682353 0.435294 1 0.682353 0.435294 
1 0.682353 0.435294 1 0.682353 0.435294 
1 0.682353 0.435294 1 0.682353 0.435294 
1 0.682353 0.435294 1 0.682353 0.435294 
1 0.682353 0.435294 1 0.682353 0.435294 
1 0.682353 0.435294 1 0.682353 0.435294 
1 0.682353 0.435294 1 0.682353 0.435294 
1 0.682353 0.435294 1 0.682353 0.435294 
1 0.682353 0.435294 1 0.682353 0.435294 
1 0.682353 0.435294 1 0.682353 0.435294 
1 0.682353 0.435294 1 0.682353 0.435294 
1 0.682353 0.435294 1 0.682353 0.435294 
1 0.682353 0.435294 1 0.682353 0.435294 
1 0.682353 0.435294 1 0.682353 0.435294 
1 0.682353 0.435294 1 0.682353 0.435294 
1 0.682353 0.435294 1 0.682353 0.435294 
1 0.682353 0.435294 1 0.682353 0.435294 
1 0.682353 0.435294 1 0.682353 0.435294 
1 0.682353 0.435294 1 0.682353 0.435294 
1 0.682353 0.435294 1 0.682353 0.435294 
1 0.682353 0.435294 1 0.682353 0.435294 
1 0.682353 0.435294 1 0.682353 0.435294 
1 0.682353 0.435294 1 0.682353 0.435294 
1 0.682353 0.435294 1 0.682353 0.435294 
1 0.682353 0.435294 1 0.682353 0.435294 
1 0.682353 0.435294 1 0.682353 0.435294 
1 0.682353 0.435294 1 0.682353 0.435294 
1 0.682353 0.435294 1 0.682353 0.435294 
1 0.682353 0.435294 1 0.682353 0.435294 
1 0.682353 0.435294 1 0.682353 0.435294 
1 0.682353 0.435294 1 0.682353 0.435294 
1 0.682353 0.435294 1 0.682353 0.435294 
1 0.682353 0.435294 1 0.682353 0.435294 
1 0.682353 0.435294 1 0.682353 0.435294 
1 0.682353 0.435294 1 0.682353 0.435294 
1 0.682353 0.435294 1 0.682353 0.435294 
1 0.682353 0.435294 1 0.682353 0.435294 
1 0.682353 0.435294 1 0.682353 0.435294 
1 0.682353 0.435294 1 0.682353 0.435294 
1 0.682353 0.435294 1 0.682353 0.435294 
1 0.682353 0.435294 1 0.682353 0.435294 
1 0.682353 0.435294 1 0.682353 0.435294 
1 0.682353 0.435294 1 0.682353 0.435294 
1 0.682353 0.435294 1 0.682353 0.435294 
1 0.682353 0.435294 1 0.682353 0.435294 
1 0.682353 0.435294 1 0.682353 0.435294 
1 0.682353 0.435294 1 0.682353 0.435294 
1 0.682353 0.435294 1 0.682353 0.435294 
1 0.682353 0.435294 1 0.682353 0.435294 
1 0.682353 0.435294 1 0.682353 0.435294 
1 0.682353 0.435294 1 0.682353 0.435294 
1 0.682353 0.435294 1 0.682353 0.435294 
1 0.682353 0.435294 1 0.682353 0.435294 
1 0.682353 0.435294 1 0.682353 0.435294 
1 0.682353 0.435294 1 0.682353 0.435294 
1 0.682353 0.435294 1 0.682353 0.435294 
1 0.682353 0.435294 1 0.682353 0.435294 
1 0.682353 0.435294 1 0.682353 0.435294 
1 0.682353 0.435294 1 0.682353 0.435294 
1 0.682353 0.435294 1 0.682353 0.435294 
1 0.682353 0.435294 1 0.682353 0.435294 
1 0.682353 0.435294 1 0.682353 0.435294 
1 0.682353 0.435294 1 0.682353 0.435294 
1 0.682353 0.435294 1 0.682353 0.435294 
1 0.682353 0.435294 1 0.682353 0.435294 
1 0.682353 0.435294 1 0.682353 0.435294 
1 0.682353 0.435294 1 0.682353 0.435294 
1 0.682353 0.435294 1 0.682353 0.435294 
1 0.682353 0.435294 1 0.682353 0.435294 
1 0.682353 0.435294 1 0.682353 0.435294 
1 0.682353 0.435294 1 0.682353 0.435294 
1 0.682353 0.435294 1 0.682353 0.435294 
1 0.682353 0.435294 1 0.682353 0.435294 
1 0.682353 0.435294 1 0.682353 0.435294 
1 0.682353 0.435294 1 0.682353 0.435294 
1 0.682353 0.435294 1 0.682353 0.435294 
1 0.682353 0.435294 1 0.682353 0.435294 
1 0.682353 0.435294 1 0.682353 0.435294 
1 0.682353 0.435294 1 0.682353 0.435294 
1 0.682353 0.435294 1 0.682353 0.435294 
1 0.682353 0.435294 1 0.682353 0.435294 
1 0.682353 0.435294 1 0.682353 0.435294 
1 0.682353 0.435294 1 0.682353 0.435294 
1 0.682353 0.435294 1 0.682353 0.435294 
1 0.682353 0.435294 1 0.682353 0.435294 
1 0.682353 0.435294 1 0.682353 0.435294 
1 0.682353 0.435294 1 0.682353 0.435294 
1 0.682353 0.435294 1 0.682353 0.435294 
1 0.682353 0.435294 1 0.682353 0.435294 
1 0.682353 0.435294 1 0.682353 0.435294 
1 0.682353 0.435294 1 0.682353 0.435294 
1 0.682353 0.435294 1 0.682353 0.435294 
1 0.682353 0.435294 1 0.682353 0.435294 
1 0.682353 0.435294 1 0.682353 0.435294 
1 0.682353 0.435294 1 0.682353 0.435294 
1 0.682353 0.435294 1 0.682353 0.435294 
1 0.682353 0.435294 1 0.682353 0.435294 
1 0.682353 0.435294 1 0.682353 0.435294 
1 0.682353 0.435294 1 0.682353 0.435294 
1 0.682353 0.435294 1 0.682353 0.435294 
1 0.682353 0.435294 1 0.682353 0.435294 
1 0.682353 0.435294 1 0.682353 0.435294 
1 0.682353 0.435294 1 0.682353 0.435294 
1 0.682353 0.435294 1 0.682353 0.435294 
1 0.682353 0.435294 1 0.682353 0.435294 
1 0.682353 0.435294 1 0.682353 0.435294 
1 0.682353 0.435294 1 0.682353 0.435294 
1 0.682353 0.435294 1 0.682353 0.435294 
1 0.682353 0.435294 1 0.682353 0.435294 
1 0.682353 0.435294 1 0.682353 0.435294 
1 0.682353 0.435294 1 0.682353 0.435294 
1 0.682353 0.435294 1 0.682353 0.435294 
1 0.682353 0.435294 1 0.682353 0.435294 
1 0.682353 0.435294 1 0.682353 0.435294 
1 0.682353 0.435294 1 0.682353 0.435294 
1 0.682353 0.435294 1 0.682353 0.435294 
1 0.682353 0.435294 1 0.682353 0.435294 
1 0.682353 0.435294 1 0.682353 0.435294 
1 0.682353 0.435294 1 0.682353 0.435294 
1 0.682353 0.435294 1 0.682353 0.435294 
1 0.682353 0.435294 1 0.682353 0.435294 
1 0.682353 0.435294 1 0.682353 0.435294 
1 0.682353 0.435294 1 0.682353 0.435294 
1 0.682353 0.435294 1 0.682353 0.435294 
1 0.682353 0.435294 1 0.682353 0.435294 
1 0.682353 0.435294 1 0.682353 0.435294 
1 0.682353 0.435294 1 0.682353 0.435294 
1 0.682353 0.435294 1 0.682353 0.435294 
1 0.682353 0.435294 1 0.682353 0.435294 
1 0.682353 0.435294 1 0.682353 0.435294 
1 0.682353 0.435294 1 0.682353 0.435294 
1 0.682353 0.435294 1 0.682353 0.435294 
1 0.682353 0.435294 1 0.682353 0.435294 
1 0.682353 0.435294 1 0.682353 0.435294 
1 0.682353 0.435294 1 0.682353 0.435294 
1 0.682353 0.435294 1 0.682353 0.435294 
1 0.682353 0.435294 1 0.682353 0.435294 
1 0.682353 0.435294 1 0.682353 0.435294 
1 0.682353 0.435294 1 0.682353 0.435294 
1 0.682353 0.435294 1 0.682353 0.435294 
1 0.682353 0.435294 1 0.682353 0.435294 
1 0.682353 0.435294 1 0.682353 0.435294 
1 0.682353 0.435294 1 0.682353 0.435294 
1 0.682353 0.435294 1 0.682353 0.435294 
1 0.682353 0.435294 1 0.682353 0.435294 
1 0.682353 0.435294 1 0.682353 0.435294 
1 0.682353 0.435294 1 0.682353 0.435294 
1 0.682353 0.435294 1 0.682353 0.435294 
1 0.682353 0.435294 1 0.682353 0.435294 
1 0.682353 0.435294 1 0.682353 0.435294 
1 0.682353 0.435294 1 0.682353 0.435294 
1 0.682353 0.435294 1 0.682353 0.435294 
1 0.682353 0.435294 1 0.682353 0.435294 
1 0.682353 0.435294 1 0.682353 0.435294 
1 0.682353 0.435294 1 0.682353 0.435294 
1 0.682353 0.435294 1 0.682353 0.435294 
1 0.682353 0.435294 1 0.682353 0.435294 
1 0.682353 0.435294 1 0.682353 0.435294 
1 0.682353 0.435294 1 0.682353 0.435294 
1 0.682353 0.435294 1 0.682353 0.435294 
1 0.682353 0.435294 1 0.682353 0.435294 
1 0.682353 0.435294 1 0.682353 0.435294 
1 0.682353 0.435294 1 0.682353 0.435294 
1 0.682353 0.435294 1 0.682353 0.435294 
1 0.682353 0.435294 1 0.682353 0.435294 
1 0.682353 0.435294 1 0.682353 0.435294 
1 0.682353 0.435294 1 0.682353 0.435294 
1 0.682353 0.435294 1 0.682353 0.435294 
1 0.682353 0.435294 1 0.682353 0.435294 
1 0.682353 0.435294 1 0.682353 0.435294 
1 0.682353 0.435294 1 0.682353 0.435294 
1 0.682353 0.435294 1 0.682353 0.435294 
1 0.682353 0.435294 1 0.682353 0.435294 
1 0.682353 0.435294 1 0.682353 0.435294 
1 0.682353 0.435294 1 0.682353 0.435294 
1 0.682353 0.435294 1 0.682353 0.435294 
1 0.682353 0.435294 1 0.682353 0.435294 
1 0.682353 0.435294 1 0.682353 0.435294 
1 0.682353 0.435294 1 0.682353 0.435294 
1 0.682353 0.435294 1 0.682353 0.435294 
1 0.682353 0.435294 1 0.682353 0.435294 
1 0.682353 0.435294 1 0.682353 0.435294 
1 0.682353 0.435294 1 0.682353 0.435294 
1 0.682353 0.435294 1 0.682353 0.435294 
1 0.682353 0.435294 1 0.682353 0.435294 
1 0.682353 0.435294 1 0.682353 0.435294 
1 0.682353 0.435294 1 0.682353 0.435294 
1 0.682353 0.435294 1 0.682353 0.435294 
1 0.682353 0.435294 1 0.682353 0.435294 
1 0.682353 0.435294 1 0.682353 0.435294 
1 0.682353 0.435294 1 0.682353 0.435294 
1 0.682353 0.435294 1 0.682353 0.435294 
1 0.682353 0.435294 1 0.682353 0.435294 
1 0.682353 0.435294 1 0.682353 0.435294 
1 0.682353 0.435294 1 0.682353 0.435294 
1 0.682353 0.435294 1 0.682353 0.435294 
1 0.682353 0.435294 1 0.682353 0.435294 
1 0.682353 0.435294 1 0.682353 0.435294 
1 0.682353 0.435294 1 0.682353 0.435294 
1 0.682353 0.435294 1 0.682353 0.435294 
1 0.682353 0.435294 1 0.682353 0.435294 
1 0.682353 0.435294 1 0.682353 0.435294 
1 0.682353 0.435294 1 0.682353 0.435294 
1 0.682353 0.435294 1 0.682353 0.435294 
1 0.682353 0.435294 1 0.682353 0.435294 
1 0.682353 0.435294 1 0.682353 0.435294 
1 0.682353 0.435294 1 0.682353 0.435294 
1 0.682353 0.435294 1 0.682353 0.435294 
1 0.682353 0.435294 1 0.682353 0.435294 
1 0.682353 0.435294 1 0.682353 0.435294 
1 0.682353 0.435294 1 0.682353 0.435294 
1 0.682353 0.435294 1 0.682353 0.435294 
1 0.682353 0.435294 1 0.682353 0.435294 
1 0.682353 0.435294 1 0.682353 0.435294 
1 0.682353 0.435294 1 0.682353 0.435294 
1 0.682353 0.435294 1 0.682353 0.435294 
1 0.682353 0.435294 1 0.682353 0.435294 
1 0.682353 0.435294 1 0.682353 0.435294 
1 0.682353 0.435294 1 0.682353 0.435294 
1 0.682353 0.435294 1 0.682353 0.435294 
1 0.682353 0.435294 1 0.682353 0.435294 
1 0.682353 0.435294 1 0.682353 0.435294 
1 0.682353 0.435294 1 0.682353 0.435294 
1 0.682353 0.435294 1 0.682353 0.435294 
1 0.682353 0.435294 1 0.682353 0.435294 
1 0.682353 0.435294 1 0.682353 0.435294 
1 0.682353 0.435294 1 0.682353 0.435294 
1 0.682353 0.435294 1 0.682353 0.435294 
1 0.682353 0.435294 1 0.682353 0.435294 
1 0.682353 0.435294 1 0.682353 0.435294 
1 0.682353 0.435294 1 0.682353 0.435294 
1 0.682353 0.435294 1 0.682353 0.435294 
1 0.682353 0.435294 1 0.682353 0.435294 
1 0.682353 0.435294 1 0.682353 0.435294 
1 0.682353 0.435294 1 0.682353 0.435294 
1 0.682353 0.435294 1 0.682353 0.435294 
1 0.682353 0.435294 1 0.682353 0.435294 
1 0.682353 0.435294 1 0.682353 0.435294 
1 0.682353 0.435294 1 0.682353 0.435294 
1 0.682353 0.435294 1 0.682353 0.435294 
1 0.682353 0.435294 1 0.682353 0.435294 
1 0.682353 0.435294 1 0.682353 0.435294 
1 0.682353 0.435294 1 0.682353 0.435294 
1 0.682353 0.435294 1 0.682353 0.435294 
1 0.682353 0.435294 1 0.682353 0.435294 
1 0.682353 0.435294 1 0.682353 0.435294 
1 0.682353 0.435294 1 0.682353 0.435294 
1 0.682353 0.435294 1 0.682353 0.435294 
1 0.682353 0.435294 1 0.682353 0.435294 
1 0.682353 0.435294 1 0.682353 0.435294 
1 0.682353 0.435294 1 0.682353 0.435294 
1 0.682353 0.435294 1 0.682353 0.435294 
1 0.682353 0.435294 1 0.682353 0.435294 
1 0.682353 0.435294 1 0.682353 0.435294 
1 0.682353 0.435294 1 0.682353 0.435294 
1 0.682353 0.435294 1 0.682353 0.435294 
1 0.682353 0.435294 1 0.682353 0.435294 
1 0.682353 0.435294 1 0.682353 0.435294 
1 0.682353 0.435294 1 0.682353 0.435294 
1 0.682353 0.435294 1 0.682353 0.435294 
1 0.682353 0.435294 1 0.682353 0.435294 
1 0.682353 0.435294 1 0.682353 0.435294 
1 0.682353 0.435294 1 0.682353 0.435294 
1 0.682353 0.435294 1 0.682353 0.435294 
1 0.682353 0.435294 1 0.682353 0.435294 
1 0.682353 0.435294 1 0.682353 0.435294 
1 0.682353 0.435294 1 0.682353 0.435294 
1 0.682353 0.435294 1 0.682353 0.435294 
1 0.682353 0.435294 1 0.682353 0.435294 
1 0.682353 0.435294 1 0.682353 0.435294 
1 0.682353 0.435294 1 0.682353 0.435294 
1 0.682353 0.435294 1 0.682353 0.435294 
1 0.682353 0.435294 1 0.682353 0.435294 
1 0.682353 0.435294 1 0.682353 0.435294 
1 0.682353 0.435294 1 0.682353 0.435294 
1 0.682353 0.435294 1 0.682353 0.435294 
1 0.682353 0.435294 1 0.682353 0.435294 
1 0.682353 0.435294 1 0.682353 0.435294 
1 0.682353 0.435294 1 0.682353 0.435294 
1 0.682353 0.435294 1 0.682353 0.435294 
1 0.682353 0.435294 1 0.682353 0.435294 
1 0.682353 0.435294 1 0.682353 0.435294 
1 0.682353 0.435294 1 0.682353 0.435294 
1 0.682353 0.435294 1 0.682353 0.435294 
1 0.682353 0.435294 1 0.682353 0.435294 
1 0.682353 0.435294 1 0.682353 0.435294 
1 0.682353 0.435294 1 0.682353 0.435294 
1 0.682353 0.435294 1 0.682353 0.435294 
1 0.682353 0.435294 1 0.682353 0.435294 
1 0.682353 0.435294 1 0.682353 0.435294 
1 0.682353 0.435294 1 0.682353 0.435294 
1 0.682353 0.435294 1 0.682353 0.435294 
1 0.682353 0.435294 1 0.682353 0.435294 
1 0.682353 0.435294 1 0.682353 0.435294 
1 0.682353 0.435294 1 0.682353 0.435294 
1 0.682353 0.435294 1 0.682353 0.435294 
1 0.682353 0.435294 1 0.682353 0.435294 
1 0.682353 0.435294 1 0.682353 0.435294 
1 0.682353 0.435294 1 0.682353 0.435294 
1 0.682353 0.435294 1 0.682353 0.435294 
1 0.682353 0.435294 1 0.682353 0.435294 
1 0.682353 0.435294 1 0.682353 0.435294 
1 0.682353 0.435294 1 0.682353 0.435294 
1 0.682353 0.435294 1 0.682353 0.435294 
1 0.682353 0.435294 1 0.682353 0.435294 
1 0.682353 0.435294 1 0.682353 0.435294 
1 0.682353 0.435294 1 0.682353 0.435294 
1 0.682353 0.435294 1 0.682353 0.435294 
1 0.682353 0.435294 1 0.682353 0.435294 
1 0.682353 0.435294 1 0.682353 0.435294 
1 0.682353 0.435294 1 0.682353 0.435294 
1 0.682353 0.435294 1 0.682353 0.435294 
1 0.682353 0.435294 1 0.682353 0.435294 
1 0.682353 0.435294 1 0.682353 0.435294 
1 0.682353 0.435294 1 0.682353 0.435294 
1 0.682353 0.435294 1 0.682353 0.435294 
1 0.682353 0.435294 1 0.682353 0.435294 
1 0.682353 0.435294 1 0.682353 0.435294 
1 0.682353 0.435294 1 0.682353 0.435294 
1 0.682353 0.435294 1 0.682353 0.435294 
1 0.682353 0.435294 1 0.682353 0.435294 
1 0.682353 0.435294 1 0.682353 0.435294 
1 0.682353 0.435294 1 0.682353 0.435294 
1 0.682353 0.435294 1 0.682353 0.435294 
1 0.682353 0.435294 1 0.682353 0.435294 
1 0.682353 0.435294 1 0.682353 0.435294 
1 0.682353 0.435294 1 0.682353 0.435294 
1 0.682353 0.435294 1 0.682353 0.435294 
1 0.682353 0.435294 1 0.682353 0.435294 
1 0.682353 0.435294 1 0.682353 0.435294 
1 0.682353 0.435294 1 0.682353 0.435294 
1 0.682353 0.435294 1 0.682353 0.435294 
1 0.682353 0.435294 1 0.682353 0.435294 
1 0.682353 0.435294 1 0.682353 0.435294 
1 0.682353 0.435294 1 0.682353 0.435294 
1 0.682353 0.435294 1 0.682353 0.435294 
1 0.682353 0.435294 1 0.682353 0.435294 
1 0.682353 0.435294 1 0.682353 0.435294 
1 0.682353 0.435294 1 0.682353 0.435294 
1 0.682353 0.435294 1 0.682353 0.435294 
1 0.682353 0.435294 1 0.682353 0.435294 
1 0.682353 0.435294 1 0.682353 0.435294 
1 0.682353 0.435294 1 0.682353 0.435294 
1 0.682353 0.435294 1 0.682353 0.435294 
1 0.682353 0.435294 1 0.682353 0.435294 
1 0.682353 0.435294 1 0.682353 0.435294 
1 0.682353 0.435294 1 0.682353 0.435294 
1 0.682353 0.435294 1 0.682353 0.435294 
1 0.682353 0.435294 1 0.682353 0.435294 
1 0.682353 0.435294 1 0.682353 0.435294 
1 0.682353 0.435294 1 0.682353 0.435294 
1 0.682353 0.435294 1 0.682353 0.435294 
1 0.682353 0.435294 1 0.682353 0.435294 
1 0.682353 0.435294 1 0.682353 0.435294 
1 0.682353 0.435294 1 0.682353 0.435294 
1 0.682353 0.435294 1 0.682353 0.435294 
1 0.682353 0.435294 1 0.682353 0.435294 
1 0.682353 0.435294 1 0.682353 0.435294 
1 0.682353 0.435294 1 0.682353 0.435294 
1 0.682353 0.435294 1 0.682353 0.435294 
1 0.682353 0.435294 1 0.682353 0.435294 
1 0.682353 0.435294 1 0.682353 0.435294 
1 0.682353 0.435294 1 0.682353 0.435294 
1 0.682353 0.435294 1 0.682353 0.435294 
1 0.682353 0.435294 1 0.682353 0.435294 
1 0.682353 0.435294 1 0.682353 0.435294 
1 0.682353 0.435294 1 0.682353 0.435294 
1 0.682353 0.435294 1 0.682353 0.435294 
1 0.682353 0.435294 1 0.682353 0.435294 
1 0.682353 0.435294 1 0.682353 0.435294 
1 0.682353 0.435294 1 0.682353 0.435294 
1 0.682353 0.435294 1 0.682353 0.435294 
1 0.682353 0.435294 1 0.682353 0.435294 
1 0.682353 0.435294 1 0.682353 0.435294 
1 0.682353 0.435294 1 0.682353 0.435294 
1 0.682353 0.435294 1 0.682353 0.435294 
1 0.682353 0.435294 1 0.682353 0.435294 
1 0.682353 0.435294 1 0.682353 0.435294 
1 0.682353 0.435294 1 0.682353 0.435294 
1 0.682353 0.435294 
NORMALS Normals float
-0.0557128 -0.651 -0.75703 -0.19566 -0.61575 -0.763262 -0.0187662 -0.826987 -0.561908 
0.274784 -0.132713 -0.952303 0.294769 -0.605314 -0.739396 -0.252232 -0.0898151 -0.96349 
-0.0961724 -0.143355 -0.984987 0.462789 0.131761 -0.876622 0.0182899 0.168887 -0.985466 
-0.010981 -0.0323048 -0.999418 0.162951 0.316094 -0.934629 -0.0380358 -0.597476 -0.800985 
-0.179496 -0.588432 -0.788371 0.235823 -0.853948 -0.463853 0.371427 -0.665321 -0.647603 
-0.267259 0.0546675 -0.962073 -0.198651 -0.0609522 -0.978173 0.546881 -0.507043 -0.666205 
-0.229693 -0.911963 0.339948 0.620188 -0.597088 -0.508776 -0.327125 0.182451 -0.9272 
-0.18969 0.405805 -0.894058 0.0348104 0.340681 -0.939534 0.316004 0.526694 -0.789136 
0.11475 0.369802 -0.921997 -0.0203393 0.763613 -0.645354 0.0976692 0.720158 -0.686901 
0.136086 -0.0777361 -0.987642 -0.0677082 -0.0224913 -0.997452 0.106363 0.0242407 -0.994032 
-0.566727 0.0212929 -0.823631 -0.0459692 0.134857 -0.989798 0.0722596 -0.623565 -0.778425 
0.200594 -0.767518 -0.608833 0.0595825 -0.988118 -0.141681 0.375812 -0.8048 -0.459415 
0.196655 -0.94418 -0.264292 0.491964 -0.81477 -0.306793 -0.251923 0.293451 -0.922183 
-0.301295 0.270551 -0.914343 0.553166 0.392603 -0.734758 -0.253557 0.665912 -0.70162 
0.402977 0.620519 -0.67273 0.717486 0.238595 -0.654436 0.0559758 -0.319629 -0.945888 
-0.249741 -0.354424 -0.901118 -0.176459 -0.211095 -0.961406 0.280634 -0.254691 -0.925407 
0.341593 -0.0804157 -0.936401 -0.635771 -0.262099 -0.726016 -0.694335 0.0365692 -0.718723 
0.395983 0.121767 -0.910149 -0.470607 0.142757 -0.870718 0.399239 -0.0214665 -0.916596 
0.462804 -0.12855 -0.87709 0.273914 -0.434421 -0.85805 0.0285511 -0.0793699 -0.996436 
-0.188604 0.0297363 -0.981603 -0.148747 -0.192807 -0.969897 0.106882 -0.985666 -0.130535 
-0.307259 0.345186 -0.886814 -0.271096 0.226576 -0.935505 0.773745 0.0834958 -0.627971 