# vtk DataFile Version 4.2
vtk output
ASCII
DATASET POLYDATA
POINTS 892 float
382.467 167.867 157.296 377.818 172.894 157.336 377.71 174.795 157.208 
381.218 176.926 157.168 377.597 170.203 158.083 385.518 172.047 157.433 
375.744 177.077 158.096 375.454 179.357 158.496 377.09 180.107 158.314 
382.684 161.835 159.402 384.263 161.64 159.389 392.824 168.066 159.065 
376.029 170.269 159.167 375.659 171.407 159.026 388.745 177.19 159.085 
373.698 181.033 159.787 383 160.342 160.138 374.571 171.936 159.839 
392.61 174.535 159.987 391.087 177.661 160.293 388.778 155.689 161.396 
391.907 155.914 161.204 389.755 156.773 160.786 393.559 156.583 160.983 
397.073 155.808 161.844 385.754 156.962 161.288 395.895 158.111 160.903 
396.601 158.898 161 380.347 160.436 161.521 387.776 162.875 159.477 
395.821 171.785 161.681 391.528 179.063 161.377 372.291 179.87 160.784 
378.318 184.556 161.167 389.964 154.412 162.442 396.146 154.584 162.544 
387.063 155.178 162.124 397.834 155.577 162.298 385.405 155.791 162.167 
398.792 157.007 162.515 398.555 158.977 162.087 374.871 168.307 161.959 
373.326 170.998 162.302 394.328 176.167 162.224 393.638 177.419 162.18 
390.524 180.947 162.071 385.643 183.018 161.903 373.522 185.324 162.504 
375.431 185.93 162.429 388.34 154.234 162.899 391.162 153.859 163.212 
395.054 153.688 163.645 398.155 154.915 163.027 398.517 154.51 163.601 
398.926 154.647 163.747 399.12 154.905 163.724 383.164 155.855 163.407 
399.611 155.68 163.944 399.636 161.695 163.441 375.678 187.435 164.384 
388.685 153.548 164.122 399.186 154.666 164.008 395.913 175.163 163.78 
393.9 179.467 164.141 371.478 185.978 164.946 373.2 187.421 165.297 
378.669 187.3 164.151 399.091 154.127 164.617 398.943 153.868 164.934 
400.192 155.015 165.249 369.677 181.875 165.432 392.956 181.305 164.92 
372.03 186.62 164.999 372.243 187.068 165.517 385.161 153.156 166.638 
400.122 154.408 165.851 400.249 154.737 165.62 369.178 180.856 166.674 
369.906 185.373 166.544 382.674 186.901 165.814 381.243 187.353 165.58 
374.739 188.215 166.727 401.487 157.009 167.345 373.068 167.692 167.319 
369.102 180.163 167.203 370.02 186.252 167.492 377.254 188.434 167.289 
382.073 153.922 167.785 379.697 156.008 168.228 369.067 179.537 167.869 
386.088 152.417 168.648 387.576 152.284 169.648 399.003 152.447 169.387 
399.586 152.897 168.541 368.303 183.407 169.938 384.915 187.194 169.126 
401.571 154.676 169.336 401.659 154.509 169.986 399.778 171.989 170.377 
398.188 176.584 170.589 390.928 185.18 170.087 368.743 185.504 170.544 
401.476 153.925 170.582 398.368 175.419 172.4 400.673 152.867 171.054 
392.042 152.647 171.511 375.594 161.354 172.62 398.275 175.729 173.012 
398.482 177.324 172.66 369.623 186.828 173.134 370.889 187.733 172.564 
382.881 152.357 172.827 398.961 151.983 173.009 400.99 152.864 172.341 
377.624 157.458 172.856 397.824 175.147 174.309 398.356 176.17 173.685 
398.589 176.871 173.52 398.913 177.304 174.128 398.319 179.531 173.079 
368.771 185.783 173.001 370.174 187.246 173.777 401.319 153.113 172.675 
402.404 154.298 173.827 397.865 174.213 174.583 399.935 176.428 175.633 
397.75 175.444 174.889 398.66 176.421 174.553 401.629 153.148 174.466 
402.122 153.627 174.515 401.198 169.743 174.314 396.682 174.59 176.231 
399.341 176.352 175.41 398.85 175.699 175.887 399.704 177.232 175.304 
400.18 177.752 175.794 369.2 179.092 174.881 368.808 185.552 174.467 
387.002 151.615 175.758 396.281 151.758 176.447 403.498 164.72 176.144 
401.669 174.443 177.608 401.653 174.342 177.65 401.827 174.388 177.811 
396.061 174.226 177.339 400.271 175.065 176.93 396.303 174.77 176.71 
395.977 174.848 177.162 396.406 175.004 176.816 396.907 175.155 176.555 
397.495 175.333 176.097 400.421 178.711 176.331 368.69 184.88 175.031 
370.601 186.984 176.619 398.689 151.81 176.738 378.734 155.735 176.657 
403.972 160.345 176.796 403.842 163.149 176.774 402.088 167.76 177.112 
401.534 174.176 177.772 401.164 174.085 177.759 401.981 173.81 178.299 
400.512 174.329 177.557 401.48 175.354 177.374 395.663 174.762 177.558 
395.439 174.814 177.902 398.301 175.177 176.653 395.756 174.921 177.644 
380.319 154.163 178.581 402.892 154.693 177.631 403.134 165.892 178.275 
402.513 172.73 179.225 402.261 172.711 179.135 401.046 173.286 178.495 
402.678 174.489 178.592 395.135 174.602 178.549 395.242 174.729 178.232 
395.347 174.855 178.206 382.332 152.595 178.962 396.767 151.806 178.995 
399.905 152.169 177.901 401.235 152.874 178.278 403.448 173.297 179.764 
395.092 174.527 178.928 395.116 174.683 178.857 396.137 174.783 178.494 
403.014 176.191 179.08 395.204 174.799 178.592 369.512 183.908 177.833 
370.334 185.041 178.694 383.684 152.286 180.661 398.219 151.977 179.237 
402.064 153.711 179.123 403.647 156.536 179.652 404.06 161.064 179.908 
402.798 170.939 180.95 400.192 172.402 179.831 403.786 174.267 180.024 
395.159 174.462 179.387 395.046 173.976 180.416 395.026 173.706 180.218 
395.419 174.286 180.043 403.838 175.671 180.217 403.125 177.362 179.665 
403.037 178.058 179.885 372.817 186.46 179.734 373.003 186.849 179.276 
375.639 187.257 179.452 388.902 151.617 180.613 402.429 154.272 180.058 
403.22 155.502 180.102 378.966 157.026 181.08 403.547 163.151 180.77 
402.789 165.046 180.953 402.954 170.239 181.94 397.681 173.28 180.775 
396.863 173.74 180.621 404.438 174.902 181.186 396.273 173.957 180.594 
402.756 179.622 180.729 401.299 181.097 180.005 395.035 184.641 181.079 
371.68 185.493 179.96 374.393 186.75 180.07 381.584 154.427 182.603 
403.661 161.391 181.496 402.885 164.216 181.659 404.143 170.535 182.395 
404.262 170.869 182.132 404.439 170.729 182.599 395.679 171.345 181.893 
371.209 178.619 181.782 398.402 153.198 182.789 400.74 154.566 182.957 
402.592 156.226 182.529 403.11 162.523 182.324 402.342 163.749 182.747 
402.485 169.814 182.733 394.339 172.534 183.193 374.196 183.599 183.757 
402.984 157.91 182.858 402.074 162.25 183.905 397.7 166.655 184.556 
403.267 169.113 184.365 404.249 169.969 183.49 404.421 169.805 184.159 
394.117 172.802 183.982 394.566 173.011 183.973 391.362 152.314 183.61 
384.309 153.629 184.529 387.254 152.901 184.682 402.131 159.342 184.305 
404.004 169.136 184.822 405.668 171.543 184.998 393.138 171.329 185.676 
392.922 171.837 185.796 393.003 171.642 185.715 405.979 172.589 185.647 
393.1 172.225 185.565 405.846 174.992 185.157 399.136 156.288 185.492 
400.619 158.896 185.591 398.821 163.515 185.84 403.5 167.898 186.538 
403.766 168.024 186.545 401.526 168.416 186.069 402.762 167.853 186.711 
404.234 168.867 185.562 404.521 168.806 186.259 405.445 170.139 185.935 
397.068 170.86 185.97 394.974 172.345 185.632 392.68 172.23 186.281 
392.769 172.414 186.3 393.106 172.549 186.023 406.118 175.165 186.784 
403.331 180.591 185.614 385.621 155.702 187.279 398.031 161.525 186.981 
403.136 167.641 187.043 403.941 167.903 187.102 392.102 171.221 187.148 
392.534 172.269 186.665 392.357 172.154 187.203 393.237 172.499 186.621 
373.795 178.212 187.077 405.444 177.948 186.934 401.349 182.037 186.855 
396.011 158.069 187.775 403.414 167.363 187.962 402.981 167.349 188.006 
403.549 167.331 188.307 391.222 171.111 188.539 390.78 170.988 189.125 
391.004 170.829 188.734 391.977 171.849 188.04 405.177 178.481 188.286 
388.872 156.301 188.492 393.505 157.853 188.642 386.239 157.285 188.743 
391.261 169.844 188.536 405.93 171.067 188.336 389.645 170.92 190.336 
390.381 171.252 189.912 392.346 171.965 188.262 406.012 175.84 188.89 
397.153 182.998 189.024 386.48 158.52 189.562 404.935 169.097 189.862 
389.375 171.408 191.089 391.315 171.622 190.248 406.091 173.503 189.392 
374.71 175.932 189.343 404.639 178.752 190.316 382.203 182.833 190.233 
388.104 159.513 190.259 384.271 161.474 190.773 403.904 168.307 191.019 
404.366 168.555 190.558 388.175 168.869 191.046 405.543 170.457 189.778 
386.998 170.577 191.836 388.46 170.008 190.928 376.123 171.522 190.81 
387.5 170.858 191.69 388.357 171.566 191.767 388.388 171.909 192.171 
389.267 171.803 191.8 390.015 171.738 191.638 402.679 180.398 191.003 
385.566 161.323 190.994 389.238 161.266 190.763 387.239 161.993 191.298 
382.015 162.77 190.657 380.949 163.636 190.62 387.47 166.179 191.586 
401.537 167.555 191.04 402.637 167.643 191.223 377.536 169.714 191.583 
384.844 169.969 192.578 384.435 171.227 193.126 375.779 172.944 190.871 
390.868 171.693 192.053 405.38 174.141 191.686 404.706 177.672 191.697 
377.838 179.512 192.45 381.751 181.985 192.239 384.958 163.708 191.777 
383.449 164.381 191.911 386.443 164.137 191.772 384.309 165.251 192.279 
384.642 166.314 192.402 402.81 168.032 192.14 380.701 167.234 192.317 
383.565 168.166 192.727 404.432 169.423 191.668 383.323 170.324 193.123 
394.157 170.53 193.098 404.724 171.597 192.477 384.29 171.737 193.551 
384.615 172.333 194.027 402.264 179.841 192.759 382.82 167.008 192.655 
399.861 168.518 193.109 402.885 168.793 193.067 379.155 170.977 193.376 
380.854 171.69 194.168 403.018 178.676 193.405 380.176 180.162 194.349 
397.764 169.487 194.343 398.335 169.361 194.266 395.186 170.299 194.524 
402.825 171.254 194.686 378.79 172.99 194.285 402.962 176.894 194.671 
380.225 179.443 195.499 400.717 169.698 194.7 400.897 170.236 195.176 
390.872 172.019 195.664 380.068 173.988 195.791 387.6 173.095 195.75 
386.929 173.278 196.003 402.207 175.599 195.739 388.153 181.952 194.982 
391.797 181.93 194.746 395.47 170.641 195.74 400.824 174.498 196.809 
379.807 177.497 196.693 395.296 171.586 197.136 400.183 173.372 197.094 
380.246 177.391 197.279 397.98 177.79 197.608 388.752 180.501 197.829 
395.063 172.673 198.315 395.847 173.28 198.548 381.684 174.835 197.689 
384.27 174.776 198.553 395.879 177.094 198.773 382.15 178.307 198.754 
389.878 173.877 199.001 394.573 173.674 199.018 381.648 175.806 198.407 
381.412 176.324 198.417 381.696 177.382 198.824 381.981 177.602 198.994 
382.876 178.373 199.177 384.072 179.518 198.608 388.652 179.096 199.425 
392.102 173.954 199.348 393.53 173.835 199.305 392.681 174.452 199.597 
[...]
POINT_DATA 892
COLOR_SCALARS scalars 3
1 0.65098 1 1 0.65098 1 1 0.65098 1 
1 0.65098 1 1 0.65098 1 
1 0.65098 1 1 0.65098 1 
1 0.65098 1 1 0.65098 1 
1 0.65098 1 1 0.65098 1 
1 0.65098 1 1 0.65098 1 
1 0.65098 1 1 0.65098 1 
1 0.65098 1 1 0.65098 1 
1 0.65098 1 1 0.65098 1 
1 0.65098 1 1 0.65098 1 
1 0.65098 1 1 0.65098 1 
1 0.65098 1 1 0.65098 1 
1 0.65098 1 1 0.65098 1 
1 0.65098 1 1 0.65098 1 
1 0.65098 1 1 0.65098 1 
1 0.65098 1 1 0.65098 1 
1 0.65098 1 1 0.65098 1 
1 0.65098 1 1 0.65098 1 
1 0.65098 1 1 0.65098 1 
1 0.65098 1 1 0.65098 1 
1 0.65098 1 1 0.65098 1 
1 0.65098 1 1 0.65098 1 
1 0.65098 1 1 0.65098 1 
1 0.65098 1 1 0.65098 1 
1 0.65098 1 1 0.65098 1 
1 0.65098 1 1 0.65098 1 
1 0.65098 1 1 0.65098 1 
1 0.65098 1 1 0.65098 1 
1 0.65098 1 1 0.65098 1 
1 0.65098 1 1 0.65098 1 
1 0.65098 1 1 0.65098 1 
1 0.65098 1 1 0.65098 1 
1 0.65098 1 1 0.65098 1 
1 0.65098 1 1 0.65098 1 
1 0.65098 1 1 0.65098 1 
1 0.65098 1 1 0.65098 1 
1 0.65098 1 1 0.65098 1 
1 0.65098 1 1 0.65098 1 
1 0.65098 1 1 0.65098 1 
1 0.65098 1 1 0.65098 1 
1 0.65098 1 1 0.65098 1 
1 0.65098 1 1 0.65098 1 
1 0.65098 1 1 0.65098 1 
1 0.65098 1 1 0.65098 1 
1 0.65098 1 1 0.65098 1 
1 0.65098 1 1 0.65098 1 
1 0.65098 1 1 0.65098 1 
1 0.65098 1 1 0.65098 1 
1 0.65098 1 1 0.65098 1 
1 0.65098 1 1 0.65098 1 
1 0.65098 1 1 0.65098 1 
1 0.65098 1 1 0.65098 1 
1 0.65098 1 1 0.65098 1 
1 0.65098 1 1 0.65098 1 
1 0.65098 1 1 0.65098 1 
1 0.65098 1 1 0.65098 1 
1 0.65098 1 1 0.65098 1 
1 0.65098 1 1 0.65098 1 
1 0.65098 1 1 0.65098 1 
1 0.65098 1 1 0.65098 1 
1 0.65098 1 1 0.65098 1 
1 0.65098 1 1 0.65098 1 
1 0.65098 1 1 0.65098 1 
1 0.65098 1 1 0.65098 1 
1 0.65098 1 1 0.65098 1 
1 0.65098 1 1 0.65098 1 
1 0.65098 1 1 0.65098 1 
1 0.65098 1 1 0.65098 1 
1 0.65098 1 1 0.65098 1 
1 0.65098 1 1 0.65098 1 
1 0.65098 1 1 0.65098 1 
1 0.65098 1 1 0.65098 1 
1 0.65098 1 1 0.65098 1 
1 0.65098 1 1 0.65098 1 
1 0.65098 1 1 0.65098 1 
1 0.65098 1 1 0.65098 1 
1 0.65098 1 1 0.65098 1 
1 0.65098 1 1 0.65098 1 
1 0.65098 1 1 0.65098 1 
1 0.65098 1 1 0.65098 1 
1 0.65098 1 1 0.65098 1 
1 0.65098 1 1 0.65098 1 
1 0.65098 1 1 0.65098 1 
1 0.65098 1 1 0.65098 1 
1 0.65098 1 1 0.65098 1 
1 0.65098 1 1 0.65098 1 
1 0.65098 1 1 0.65098 1 
1 0.65098 1 1 0.65098 1 
1 0.65098 1 1 0.65098 1 
1 0.65098 1 1 0.65098 1 
1 0.65098 1 1 0.65098 1 
1 0.65098 1 1 0.65098 1 
1 0.65098 1 1 0.65098 1 
1 0.65098 1 1 0.65098 1 
1 0.65098 1 1 0.65098 1 
1 0.65098 1 1 0.65098 1 
1 0.65098 1 1 0.65098 1 
1 0.65098 1 1 0.65098 1 
1 0.65098 1 1 0.65098 1 
1 0.65098 1 1 0.65098 1 
1 0.65098 1 1 0.65098 1 
1 0.65098 1 1 0.65098 1 
1 0.65098 1 1 0.65098 1 
1 0.65098 1 1 0.65098 1 
1 0.65098 1 1 0.65098 1 
1 0.65098 1 1 0.65098 1 
1 0.65098 1 1 0.65098 1 
1 0.65098 1 1 0.65098 1 
1 0.65098 1 1 0.65098 1 
1 0.65098 1 1 0.65098 1 
1 0.65098 1 1 0.65098 1 
1 0.65098 1 1 0.65098 1 
1 0.65098 1 1 0.65098 1 
1 0.65098 1 1 0.65098 1 
1 0.65098 1 1 0.65098 1 
1 0.65098 1 1 0.65098 1 
1 0.65098 1 1 0.65098 1 
1 0.65098 1 1 0.65098 1 
1 0.65098 1 1 0.65098 1 
1 0.65098 1 1 0.65098 1 
1 0.65098 1 1 0.65098 1 
1 0.65098 1 1 0.65098 1 
1 0.65098 1 1 0.65098 1 
1 0.65098 1 1 0.65098 1 
1 0.65098 1 1 0.65098 1 
1 0.65098 1 1 0.65098 1 
1 0.65098 1 1 0.65098 1 
1 0.65098 1 1 0.65098 1 
1 0.65098 1 1 0.65098 1 
1 0.65098 1 1 0.65098 1 
1 0.65098 1 1 0.65098 1 
1 0.65098 1 1 0.65098 1 
1 0.65098 1 1 0.65098 1 
1 0.65098 1 1 0.65098 1 
1 0.65098 1 1 0.65098 1 
1 0.65098 1 1 0.65098 1 
1 0.65098 1 1 0.65098 1 
1 0.65098 1 1 0.65098 1 
1 0.65098 1 1 0.65098 1 
1 0.65098 1 1 0.65098 1 
1 0.65098 1 1 0.65098 1 
1 0.65098 1 1 0.65098 1 
1 0.65098 1 1 0.65098 1 
1 0.65098 1 1 0.65098 1 
1 0.65098 1 1 0.65098 1 
1 0.65098 1 1 0.65098 1 
1 0.65098 1 1 0.65098 1 
1 0.65098 1 1 0.65098 1 
1 0.65098 1 1 0.65098 1 
1 0.65098 1 1 0.65098 1 
1 0.65098 1 1 0.65098 1 
1 0.65098 1 1 0.65098 1 
1 0.65098 1 1 0.65098 1 
1 0.65098 1 1 0.65098 1 
1 0.65098 1 1 0.65098 1 
1 0.65098 1 1 0.65098 1 
1 0.65098 1 1 0.65098 1 
1 0.65098 1 1 0.65098 1 
1 0.65098 1 1 0.65098 1 
1 0.65098 1 1 0.65098 1 
1 0.65098 1 1 0.65098 1 
1 0.65098 1 1 0.65098 1 
1 0.65098 1 1 0.65098 1 
1 0.65098 1 1 0.65098 1 
1 0.65098 1 1 0.65098 1 
1 0.65098 1 1 0.65098 1 
1 0.65098 1 1 0.65098 1 
1 0.65098 1 1 0.65098 1 
1 0.65098 1 1 0.65098 1 
1 0.65098 1 1 0.65098 1 
1 0.65098 1 1 0.65098 1 
1 0.65098 1 1 0.65098 1 
1 0.65098 1 1 0.65098 1 
1 0.65098 1 1 0.65098 1 
1 0.65098 1 1 0.65098 1 
1 0.65098 1 1 0.65098 1 
1 0.65098 1 1 0.65098 1 
1 0.65098 1 1 0.65098 1 
1 0.65098 1 1 0.65098 1 
1 0.65098 1 1 0.65098 1 
1 0.65098 1 1 0.65098 1 
1 0.65098 1 1 0.65098 1 
1 0.65098 1 1 0.65098 1 
1 0.65098 1 1 0.65098 1 
1 0.65098 1 1 0.65098 1 
1 0.65098 1 1 0.65098 1 
1 0.65098 1 1 0.65098 1 
1 0.65098 1 1 0.65098 1 
1 0.65098 1 1 0.65098 1 
1 0.65098 1 1 0.65098 1 
1 0.65098 1 1 0.65098 1 
1 0.65098 1 1 0.65098 1 
1 0.65098 1 1 0.65098 1 
1 0.65098 1 1 0.65098 1 
1 0.65098 1 1 0.65098 1 
1 0.65098 1 1 0.65098 1 
1 0.65098 1 1 0.65098 1 
1 0.65098 1 1 0.65098 1 
1 0.65098 1 1 0.65098 1 
1 0.65098 1 1 0.65098 1 
1 0.65098 1 1 0.65098 1 
1 0.65098 1 1 0.65098 1 
1 0.65098 1 1 0.65098 1 
1 0.65098 1 1 0.65098 1 
1 0.65098 1 1 0.65098 1 
1 0.65098 1 1 0.65098 1 
1 0.65098 1 1 0.65098 1 
1 0.65098 1 1 0.65098 1 
1 0.65098 1 1 0.65098 1 
1 0.65098 1 1 0.65098 1 
1 0.65098 1 1 0.65098 1 
1 0.65098 1 1 0.65098 1 
1 0.65098 1 1 0.65098 1 
1 0.65098 1 1 0.65098 1 
1 0.65098 1 1 0.65098 1 
1 0.65098 1 1 0.65098 1 
1 0.65098 1 1 0.65098 1 
1 0.65098 1 1 0.65098 1 
1 0.65098 1 1 0.65098 1 
1 0.65098 1 1 0.65098 1 
1 0.65098 1 1 0.65098 1 
1 0.65098 1 1 0.65098 1 
1 0.65098 1 1 0.65098 1 
1 0.65098 1 1 0.65098 1 
1 0.65098 1 1 0.65098 1 
1 0.65098 1 1 0.65098 1 
1 0.65098 1 1 0.65098 1 
1 0.65098 1 1 0.65098 1 
1 0.65098 1 1 0.65098 1 
1 0.65098 1 1 0.65098 1 
1 0.65098 1 1 0.65098 1 
1 0.65098 1 1 0.65098 1 
1 0.65098 1 1 0.65098 1 
1 0.65098 1 1 0.65098 1 
1 0.65098 1 1 0.65098 1 
1 0.65098 1 1 0.65098 1 
1 0.65098 1 1 0.65098 1 
1 0.65098 1 1 0.65098 1 
1 0.65098 1 1 0.65098 1 
1 0.65098 1 1 0.65098 1 
1 0.65098 1 1 0.65098 1 
1 0.65098 1 1 0.65098 1 
1 0.65098 1 1 0.65098 1 
1 0.65098 1 1 0.65098 1 
1 0.65098 1 1 0.65098 1 
1 0.65098 1 1 0.65098 1 
1 0.65098 1 1 0.65098 1 
1 0.65098 1 1 0.65098 1 
1 0.65098 1 1 0.65098 1 
1 0.65098 1 1 0.65098 1 
1 0.65098 1 1 0.65098 1 
1 0.65098 1 1 0.65098 1 
1 0.65098 1 1 0.65098 1 
1 0.65098 1 1 0.65098 1 
1 0.65098 1 1 0.65098 1 
1 0.65098 1 1 0.65098 1 
1 0.65098 1 1 0.65098 1 
1 0.65098 1 1 0.65098 1 
1 0.65098 1 1 0.65098 1 
1 0.65098 1 1 0.65098 1 
1 0.65098 1 1 0.65098 1 
1 0.65098 1 1 0.65098 1 
1 0.65098 1 1 0.65098 1 
1 0.65098 1 1 0.65098 1 
1 0.65098 1 1 0.65098 1 
1 0.65098 1 1 0.65098 1 
1 0.65098 1 1 0.65098 1 
1 0.65098 1 1 0.65098 1 
1 0.65098 1 1 0.65098 1 
1 0.65098 1 1 0.65098 1 
1 0.65098 1 1 0.65098 1 
1 0.65098 1 1 0.65098 1 
1 0.65098 1 1 0.65098 1 
1 0.65098 1 1 0.65098 1 
1 0.65098 1 1 0.65098 1 
1 0.65098 1 1 0.65098 1 
1 0.65098 1 1 0.65098 1 
1 0.65098 1 1 0.65098 1 
1 0.65098 1 1 0.65098 1 
1 0.65098 1 1 0.65098 1 
1 0.65098 1 1 0.65098 1 
1 0.65098 1 1 0.65098 1 
1 0.65098 1 1 0.65098 1 
1 0.65098 1 1 0.65098 1 
1 0.65098 1 1 0.65098 1 
1 0.65098 1 1 0.65098 1 
1 0.65098 1 1 0.65098 1 
1 0.65098 1 1 0.65098 1 
1 0.65098 1 1 0.65098 1 
1 0.65098 1 1 0.65098 1 
1 0.65098 1 1 0.65098 1 
1 0.65098 1 1 0.65098 1 
1 0.65098 1 1 0.65098 1 
1 0.65098 1 1 0.65098 1 
1 0.65098 1 1 0.65098 1 
1 0.65098 1 1 0.65098 1 
1 0.65098 1 1 0.65098 1 
1 0.65098 1 1 0.65098 1 
1 0.65098 1 1 0.65098 1 
1 0.65098 1 1 0.65098 1 
1 0.65098 1 1 0.65098 1 
1 0.65098 1 1 0.65098 1 
1 0.65098 1 1 0.65098 1 
1 0.65098 1 1 0.65098 1 
1 0.65098 1 1 0.65098 1 
1 0.65098 1 1 0.65098 1 
1 0.65098 1 1 0.65098 1 
1 0.65098 1 1 0.65098 1 
1 0.65098 1 1 0.65098 1 
1 0.65098 1 1 0.65098 1 
1 0.65098 1 1 0.65098 1 
1 0.65098 1 1 0.65098 1 
1 0.65098 1 1 0.65098 1 
1 0.65098 1 1 0.65098 1 
1 0.65098 1 1 0.65098 1 
1 0.65098 1 1 0.65098 1 
1 0.65098 1 1 0.65098 1 
1 0.65098 1 1 0.65098 1 
1 0.65098 1 1 0.65098 1 
1 0.65098 1 1 0.65098 1 
1 0.65098 1 1 0.65098 1 
1 0.65098 1 1 0.65098 1 
1 0.65098 1 1 0.65098 1 
1 0.65098 1 1 0.65098 1 
1 0.65098 1 1 0.65098 1 
1 0.65098 1 1 0.65098 1 
1 0.65098 1 1 0.65098 1 
1 0.65098 1 1 0.65098 1 
1 0.65098 1 1 0.65098 1 
1 0.65098 1 1 0.65098 1 
1 0.65098 1 1 0.65098 1 
1 0.65098 1 1 0.65098 1 
1 0.65098 1 1 0.65098 1 
1 0.65098 1 1 0.65098 1 
1 0.65098 1 1 0.65098 1 
1 0.65098 1 1 0.65098 1 
1 0.65098 1 1 0.65098 1 
1 0.65098 1 1 0.65098 1 
1 0.65098 1 1 0.65098 1 
1 0.65098 1 1 0.65098 1 
1 0.65098 1 1 0.65098 1 
1 0.65098 1 1 0.65098 1 
1 0.65098 1 1 0.65098 1 
1 0.65098 1 1 0.65098 1 
1 0.65098 1 1 0.65098 1 
1 0.65098 1 1 0.65098 1 
1 0.65098 1 1 0.65098 1 
1 0.65098 1 1 0.65098 1 
1 0.65098 1 1 0.65098 1 
1 0.65098 1 1 0.65098 1 
1 0.65098 1 1 0.65098 1 
1 0.65098 1 1 0.65098 1 
1 0.65098 1 1 0.65098 1 
1 0.65098 1 1 0.65098 1 
1 0.65098 1 1 0.65098 1 
1 0.65098 1 1 0.65098 1 
1 0.65098 1 1 0.65098 1 
1 0.65098 1 1 0.65098 1 
1 0.65098 1 1 0.65098 1 
1 0.65098 1 1 0.65098 1 
1 0.65098 1 1 0.65098 1 
1 0.65098 1 1 0.65098 1 
1 0.65098 1 1 0.65098 1 
1 0.65098 1 1 0.65098 1 
1 0.65098 1 1 0.65098 1 
1 0.65098 1 1 0.65098 1 
1 0.65098 1 1 0.65098 1 
1 0.65098 1 1 0.65098 1 
1 0.65098 1 1 0.65098 1 
1 0.65098 1 1 0.65098 1 
1 0.65098 1 1 0.65098 1 
1 0.65098 1 1 0.65098 1 
1 0.65098 1 1 0.65098 1 
1 0.65098 1 1 0.65098 1 
1 0.65098 1 1 0.65098 1 
1 0.65098 1 1 0.65098 1 
1 0.65098 1 1 0.65098 1 
1 0.65098 1 1 0.65098 1 
1 0.65098 1 1 0.65098 1 
1 0.65098 1 1 0.65098 1 
1 0.65098 1 1 0.65098 1 
1 0.65098 1 1 0.65098 1 
1 0.65098 1 1 0.65098 1 
1 0.65098 1 1 0.65098 1 
1 0.65098 1 1 0.65098 1 
1 0.65098 1 1 0.65098 1 
1 0.65098 1 1 0.65098 1 
1 0.65098 1 1 0.65098 1 
1 0.65098 1 1 0.65098 1 
1 0.65098 1 1 0.65098 1 
1 0.65098 1 1 0.65098 1 
1 0.65098 1 1 0.65098 1 
1 0.65098 1 1 0.65098 1 
1 0.65098 1 1 0.65098 1 
1 0.65098 1 1 0.65098 1 
1 0.65098 1 1 0.65098 1 
1 0.65098 1 1 0.65098 1 
1 0.65098 1 1 0.65098 1 
1 0.65098 1 1 0.65098 1 
1 0.65098 1 1 0.65098 1 
1 0.65098 1 1 0.65098 1 
1 0.65098 1 1 0.65098 1 
1 0.65098 1 1 0.65098 1 
1 0.65098 1 1 0.65098 1 
1 0.65098 1 1 0.65098 1 
1 0.65098 1 1 0.65098 1 
1 0.65098 1 1 0.65098 1 
1 0.65098 1 1 0.65098 1 
1 0.65098 1 1 0.65098 1 
1 0.65098 1 1 0.65098 1 
1 0.65098 1 1 0.65098 1 
1 0.65098 1 1 0.65098 1 
1 0.65098 1 1 0.65098 1 
1 0.65098 1 1 0.65098 1 
1 0.65098 1 1 0.65098 1 
1 0.65098 1 1 0.65098 1 
1 0.65098 1 1 0.65098 1 
1 0.65098 1 1 0.65098 1 
1 0.65098 1 1 0.65098 1 
1 0.65098 1 1 0.65098 1 
1 0.65098 1 1 0.65098 1 
1 0.65098 1 1 0.65098 1 
1 0.65098 1 1 0.65098 1 
1 0.65098 1 1 0.65098 1 
1 0.65098 1 1 0.65098 1 
1 0.65098 1 1 0.65098 1 
1 0.65098 1 1 0.65098 1 
1 0.65098 1 1 0.65098 1 
1 0.65098 1 1 0.65098 1 
1 0.65098 1 1 0.65098 1 
1 0.65098 1 1 0.65098 1 
1 0.65098 1 1 0.65098 1 
1 0.65098 1 1 0.65098 1 
1 0.65098 1 1 0.65098 1 
1 0.65098 1 1 0.65098 1 
1 0.65098 1 1 0.65098 1 
1 0.65098 1 1 0.65098 1 
1 0.65098 1 1 0.65098 1 
1 0.65098 1 1 0.65098 1 
1 0.65098 1 1 0.65098 1 
1 0.65098 1 1 0.65098 1 
1 0.65098 1 1 0.65098 1 
1 0.65098 1 1 0.65098 1 
1 0.65098 1 1 0.65098 1 
1 0.65098 1 1 0.65098 1 
1 0.65098 1 
NORMALS Normals float
-0.00188089 -0.200981 -0.979593 -0.314952 -0.140718 -0.938618 -0.30727 0.0112259 -0.951556 
0.106756 0.143911 -0.983815 -0.475331 -0.38626 -0.790483 0.161243 -0.00549959 -0.986899 
-0.472069 0.0430798 -0.880508 -0.516896 0.0990005 -0.850305 -0.0935353 0.369639 -0.924456 
-0.206266 -0.320813 -0.92441 0.066105 -0.369366 -0.92693 0.315289 -0.0376506 -0.948249 
-0.587323 -0.355682 -0.727009 -0.670154 -0.305812 -0.676293 0.255743 0.40762 -0.876608 
-0.43415 0.415808 -0.799136 -0.170765 -0.519249 -0.837389 -0.686979 -0.155914 -0.709754 
0.498267 0.230944 -0.835701 0.400822 0.434142 -0.80676 -0.124169 -0.521157 -0.84438 
-0.0421549 -0.268066 -0.962478 0.0369907 -0.41854 -0.907445 0.0238442 -0.345685 -0.938048 
0.182362 -0.354761 -0.917 -0.219029 -0.43658 -0.872597 0.123107 -0.0128876 -0.99231 
0.291865 0.0333555 -0.955878 -0.679208 -0.510115 -0.527693 0.0555085 -0.261519 -0.963601 
0.737726 0.225589 -0.636294 0.484059 0.424079 -0.765405 -0.826361 -0.0335614 -0.562139 
0.0889459 0.647527 -0.756834 0.0294788 -0.729724 -0.683106 -0.121656 -0.567118 -0.814603 
-0.269096 -0.759918 -0.591703 0.476721 -0.424145 -0.76996 -0.29659 -0.587608 -0.752829 
0.688063 -0.178352 -0.703392 0.621842 -0.078216 -0.779227 -0.722365 -0.455243 -0.520521 
-0.837573 -0.338944 -0.428472 0.660463 0.29205 -0.691734 0.645098 0.450984 -0.616816 
0.45907 0.654954 -0.600241 0.304535 0.646882 -0.699144 -0.377833 0.636198 -0.672678 
-0.127451 0.664521 -0.736321 -0.168587 -0.798643 -0.577709 0.0279851 -0.888872 -0.4573 
0.0241237 -0.784062 -0.620214 0.433163 -0.565951 -0.701476 0.373589 -0.709184 -0.597905 
0.506221 -0.612729 -0.60688 0.59785 -0.400912 -0.694151 -0.403681 -0.696723 -0.592974 
0.775528 -0.224142 -0.590183 0.812917 0.128401 -0.568049 -0.109607 0.839415 -0.532324 
-0.16091 -0.901986 -0.40066 0.555057 -0.632729 -0.539969 0.827247 0.359507 -0.43176 
0.789307 0.487765 -0.372934 -0.706218 0.455463 -0.542042 -0.303564 0.846296 -0.437759 
0.165763 0.831388 -0.530392 0.511896 -0.693439 -0.507055 0.368591 -0.819911 -0.438049 
0.812684 -0.370133 -0.450051 -0.780475 -0.123259 -0.612916 0.720977 0.550915 -0.420339 
-0.500075 0.642406 -0.580724 -0.529852 0.791699 -0.30409 -0.1664 -0.911876 -0.375223 
0.771055 -0.558366 -0.306108 0.783107 -0.514176 -0.349809 -0.964844 0.0119796 -0.26255 
-0.843765 0.364872 -0.393609 0.327351 0.845034 -0.422799 0.264428 0.919894 -0.289608 
-0.195768 0.962039 -0.190146 0.931273 -0.123933 -0.342594 -0.930457 -0.351666 -0.102866 
-0.751618 -0.407797 -0.518432 -0.689325 0.674807 -0.263564 0.0884016 0.99225 -0.0873245 
-0.507847 -0.795744 -0.329975 -0.745434 -0.616973 -0.252334 -0.924704 -0.280861 -0.256982 
-0.11631 -0.964744 -0.236096 0.0550881 -0.984198 -0.168284 0.230113 -0.94759 -0.221632 
0.599048 -0.756134 -0.263442 -0.999522 -0.0309054 -0.000550119 0.346789 0.901811 -0.257828 
0.85545 -0.44488 -0.265118 0.916232 -0.327512 -0.230768 0.935723 0.328131 -0.129433 
0.932647 0.290966 -0.213325 0.43312 0.86597 -0.250006 -0.85921 0.488435 -0.152282 
0.729212 -0.641686 -0.237676 0.988124 0.0424397 0.147684 0.569926 -0.794312 -0.210364 
-0.0297554 -0.994701 -0.098408 -0.909149 -0.414118 -0.0441976 0.963464 -0.238552 0.121782 
0.979582 0.0834198 -0.182921 -0.713247 0.698792 -0.0544764 -0.428895 0.901175 -0.0627091 
-0.388207 -0.9188 -0.0714277 0.251895 -0.966592 -0.0474163 0.520579 -0.853579 -0.0200316 
-0.853748 -0.511328 -0.0982751 0.935613 -0.0588269 0.348092 0.877946 -0.477617 0.033072 
0.96325 -0.187275 -0.192553 0.861365 -0.220526 -0.457622 0.882174 0.142891 -0.448721 
-0.892636 0.445866 -0.0663666 -0.61857 0.776102 0.122624 0.718799 -0.689461 -0.0892857 
0.889285 -0.423927 -0.171632 0.855579 0.380324 0.351196 0.657516 -0.296488 -0.692653 
0.773864 -0.595122 0.216713 0.645799 -0.644694 -0.409039 0.617871 -0.782849 -0.0733726 
0.77235 -0.623395 -0.121877 0.829248 0.523073 0.19683 0.828472 0.0359576 0.558876 
0.449714 -0.548168 -0.705173 0.229341 -0.79319 -0.564139 0.708418 -0.131454 -0.693444 
0.802534 0.0430527 -0.59505 -0.890726 -0.433636 0.136263 -0.823099 0.536406 0.186487 
0.0585793 -0.995003 -0.080849 -0.0192111 -0.999147 0.0365674 0.944462 0.299491 -0.135265 
0.439862 -0.270718 -0.85629 0.247672 -0.529929 -0.811069 0.665432 -0.355349 -0.656451 
0.754242 0.493964 0.432571 0.14223 -0.648676 -0.747657 0.766743 -0.135089 0.62758 
0.691012 -0.525053 0.496812 0.585143 -0.69911 0.410916 0.216566 -0.975803 -0.030125 
0.391931 -0.910248 -0.133562 0.808998 0.165313 -0.564086 -0.955529 0.202065 0.214789 
-0.601519 0.73245 0.318893 0.106744 -0.990775 0.0834864 -0.800236 -0.598254 0.0414095 
0.992612 -0.0120102 -0.120735 0.986129 0.0897184 -0.139646 0.759528 0.594624 0.263703 
0.364357 -0.666144 -0.650766 0.0457348 -0.652231 -0.75664 0.469896 -0.505364 -0.723744 
-0.0897607 -0.658995 -0.746772 0.567361 -0.143864 -0.810805 0.812746 -0.145819 0.564076 
0.840012 -0.103017 0.532698 0.0114652 -0.864166 -0.503077 0.434191 -0.869283 0.236274 
-0.657852 -0.736186 0.158941 0.826906 -0.562291 0.00735804 0.921195 0.37352 0.109005 
0.483925 -0.456281 -0.746743 0.296422 -0.559106 -0.774296 -0.183742 -0.724316 -0.664534 
0.658651 -0.212807 -0.721729 0.880789 0.334901 0.334742 0.910939 -0.253428 0.325521 
0.691249 -0.691779 0.208845 -0.445401 -0.88572 0.130839 0.0172462 -0.99437 0.104553 
0.284598 -0.953767 0.0966062 0.554129 -0.815028 0.169323 0.758576 -0.196463 -0.62126 
0.996713 0.0524569 0.0617296 0.90597 -0.422202 0.0310525 -0.158458 -0.940525 -0.300507 
0.774258 0.110921 -0.623074 0.0622651 -0.9666 -0.24861 -0.936924 0.108246 0.332349 
-0.780037 0.360139 0.511706 -0.297456 -0.930142 0.215305 0.279901 -0.929258 0.241113 
0.768588 -0.634475 0.0819368 0.956145 -0.286425 0.061213 0.98559 0.106521 0.1314 
0.281751 -0.6821 -0.674801 -0.284548 -0.774971 -0.564315 0.763971 -0.0212832 -0.6449 
0.538619 -0.775527 -0.329313 0.751744 -0.645642 -0.134265 0.934529 0.226062 0.274868 
0.0692191 -0.953173 -0.294397 0.79016 0.120436 -0.600951 0.90361 0.234958 -0.358167 
0.834619 0.317002 -0.450468 -0.315482 0.771757 0.552143 -0.351845 0.829288 0.434151 
-0.126563 0.923615 0.361824 -0.0717307 -0.99229 0.101072 0.676873 -0.705755 0.209169 
0.888712 -0.447063 0.101621 -0.881601 -0.393066 0.261302 0.946191 0.234773 0.222721 
0.732343 0.531565 0.425573 -0.00900011 -0.839663 -0.543033 -0.366741 -0.814066 -0.450331 
-0.303298 -0.869511 -0.389823 0.92291 0.0859856 -0.375292 -0.268983 -0.869699 -0.413851 
0.874045 0.431738 -0.222817 0.668459 0.674242 -0.313944 0.210139 0.971547 0.109263 
-0.565906 0.557391 0.607508 -0.219935 0.758438 0.613515 -0.628521 -0.62857 0.458106 
0.923463 0.0432274 0.381244 0.719999 0.477026 0.504032 0.481272 -0.763677 -0.43032 
0.678588 -0.481865 -0.554368 0.681066 -0.598589 -0.421711 0.790857 0.373007 0.485191 
-0.878282 0.065293 0.473664 0.242928 -0.825464 0.509505 0.504764 -0.710502 0.490306 
0.769367 -0.413527 0.486898 0.885307 0.230261 0.403993 0.722577 0.41443 0.55329 
-0.097364 -0.881726 -0.461605 0.908679 0.138408 0.393884 -0.502734 0.599699 0.622591 
0.833007 -0.202173 0.515001 0.735921 0.193975 0.648686 0.567042 0.469771 0.676593 
0.271502 -0.847589 -0.455938 0.596959 -0.688198 -0.41234 0.654868 -0.650504 -0.384699 
0.794769 -0.569949 0.208568 -0.017679 -0.968656 -0.247775 0.144429 -0.929179 0.340246 
-0.377756 -0.810594 0.44748 -0.0391591 -0.852155 0.521822 0.708876 -0.0175382 0.705115 
0.608444 -0.675512 -0.416507 0.901565 -0.265872 -0.341311 0.840618 0.103984 0.531553 
0.883774 0.100909 0.456903 0.81936 0.211647 0.53278 0.981832 -0.0940454 -0.164805 
0.820533 -0.0720992 0.567034 0.975101 0.0733088 -0.209293 0.481104 -0.417266 0.770992 
0.547569 -0.146578 0.823822 0.514198 0.443385 0.734173 0.164283 -0.872994 -0.459231 
0.478844 -0.815572 -0.324885 -0.247997 -0.89282 -0.375991 -0.245964 -0.908826 -0.336951 
0.533135 -0.725922 -0.434516 0.741919 -0.595975 -0.307197 0.888273 -0.427255 -0.168593 
-0.42788 -0.820322 -0.37946 -0.411226 -0.831535 -0.37342 0.879165 -0.246636 0.407726 
0.69452 -0.674625 0.250048 0.300555 -0.950065 -0.0839203 0.991979 0.117442 -0.0467513 
0.664481 0.743017 -0.0799411 -0.26307 -0.635942 0.725515 0.444554 0.0948647 0.890714 
0.27623 -0.901539 -0.333054 0.63981 -0.744329 -0.191355 0.811438 0.101115 0.575625 
0.719299 -0.686523 0.106277 0.686205 -0.725411 0.0538689 -0.132865 -0.926989 -0.350767 
-0.926765 -0.225347 0.300543 0.915202 0.363152 -0.174718 0.38967 0.895432 0.215309 
0.407656 -0.197446 0.891533 0.147296 -0.94476 -0.292801 -0.15846 -0.973456 -0.165151 
0.458529 -0.887636 -0.043054 0.815933 -0.232406 0.529378 0.782954 -0.283106 0.553926 
0.798289 -0.0263677 0.601698 0.658503 -0.725186 0.201195 0.866441 0.497511 0.0419702 
0.0165918 -0.620897 0.783716 0.246276 -0.498754 0.831019 -0.094786 -0.599773 0.794537 
0.71387 0.0456295 0.69879 0.967314 -0.253116 0.0153516 0.590062 -0.391461 0.706105 