# vtk DataFile Version 4.2
vtk output
ASCII
DATASET POLYDATA
POINTS 991 float
333.942 113.201 162.657 334.055 113.05 162.704 333.638 113.616 162.808 
333.921 113.563 162.664 334.088 113.344 162.654 333.578 113.928 162.906 
333.649 114.181 162.999 334.111 113.595 162.671 334.211 113.671 162.832 
333.841 114.21 162.903 333.776 114.312 163.092 333.992 114.108 162.851 
334.157 113.964 162.914 333.938 114.268 163.067 334.084 114.16 163.031 
333.929 111.898 163.268 333.303 112.03 163.325 333.233 112.581 163.248 
333.805 112.374 162.946 334.197 113.125 162.801 334.282 112.797 163.083 
333.12 113.618 163.427 334.204 113.426 162.751 333.224 113.972 163.532 
333.466 114.197 163.262 333.615 114.324 163.331 334.194 114.04 163.162 
333.814 114.34 163.421 333.108 110.564 164.173 333.275 111.482 163.605 
334.129 112.051 163.312 334.186 112.446 163.107 332.815 112.555 163.712 
334.392 113.667 163.572 334.357 113.718 163.949 333.415 114.265 163.589 
333.225 114.239 164.129 333.567 114.362 163.913 333.882 114.275 163.986 
332.979 109.618 164.995 332.283 109.877 165.073 334.183 111.33 164.065 
332.015 111.24 164.907 334.465 112.318 163.932 334.507 113.166 163.991 
334.45 113.264 164.407 333.185 114.347 164.656 333.385 114.393 164.435 
333.218 109.002 165.585 333.566 108.792 165.977 334.163 109.595 165.606 
331.926 109.785 165.442 334.293 110.217 165.229 331.385 110.649 166.039 
331.799 111.439 165.261 334.475 111.775 164.469 334.515 111.721 165.136 
331.962 112.509 165.435 334.131 113.713 165.318 333.127 114.344 165.108 
332.936 114.237 165.754 332.649 108.197 166.367 332.001 108.198 166.519 
334.291 109.509 165.95 334.401 109.869 165.87 331.2 110.875 166.498 
334.388 112.508 166.025 333.729 114.12 166.123 333.031 106.666 168.022 
331.73 107.451 167.637 331.458 107.942 167.272 333.628 107.455 167.421 
331.027 108.273 167.475 330.97 108.818 167.277 334.305 108.848 167.105 
334.461 110.82 166.916 331.019 111.533 167.613 331.611 112.71 167.325 
332.273 113.643 166.947 333.067 114.275 166.874 332.745 106.649 168.039 
332.462 106.416 168.419 333.609 106.504 168.784 334.042 107.43 167.879 
330.641 107.923 168.322 334.125 107.451 168.213 330.849 111.627 168.569 
331.533 112.742 168.405 332.892 113.975 167.843 333.481 114.135 167.174 
333.345 114.086 167.467 332.719 105.922 168.994 332.582 105.424 169.602 
330.311 107.379 169.388 331.201 106.467 169.197 329.907 108.07 169.74 
334.271 108.027 169.01 330.062 109.729 169.406 330.352 110.413 168.853 
334.213 110.958 168.835 331.335 112.552 169.337 331.923 113.19 168.412 
333.455 113.7 167.956 332.206 105.204 170.009 331.406 105.63 169.96 
330.697 106.461 169.761 330.653 111.75 170.613 333.884 111.619 169.609 
333.365 112.46 169.798 332.041 113.013 169.709 332.522 113.1 169.61 
332.411 104.086 171.368 332.52 104.615 170.696 330.446 105.531 171.089 
334.19 107.168 171.046 330.003 110.6 170.757 332.829 112.152 171.121 
331.74 103.692 172.151 329.425 105.885 172.195 330.169 111.242 172.109 
330.524 111.682 172.114 331.326 112.26 171.95 331.618 112.473 171.523 
332.097 112.403 171.475 331.818 112.55 171.287 332.908 103.161 172.857 
332.698 102.627 173.454 332.014 111.955 172.491 330.984 111.908 173.291 
331.616 112.133 172.494 331.185 112.04 173.077 332.105 101.71 174.602 
333.115 101.901 174.683 330.617 102.875 173.979 332.685 101.15 175.247 
333.905 103.276 175.203 329.39 103.102 175.019 328.162 104.782 175.457 
328.026 105.855 175.11 333.996 105.626 174.568 327.939 107.184 175.455 
328.34 108.534 175.15 333.229 108.152 175.088 330.89 111.553 174.401 
332.601 100.876 175.578 332.935 100.701 176.044 327.853 107.842 176.344 
332.568 108.982 175.906 331.086 111.015 175.441 330.155 110.93 175.51 
332.369 99.7916 177.219 332.954 100.388 176.585 333.092 100.198 177.135 
331.985 100.131 176.706 333.955 103.023 177.025 327.439 106.689 176.976 
328.565 109.534 177.307 331.603 109.858 176.769 329.402 110.21 176.986 
329.842 110.49 176.627 330.57 110.711 176.384 330.216 110.763 176.152 
333.593 100.524 178.039 333.826 103.201 178.072 327.301 107.337 178.175 
332.288 108.083 177.838 327.971 108.699 177.567 328.283 109.263 177.944 
330.718 110.342 177.07 332.768 98.6627 179.092 333.084 98.9319 179.161 
333.717 100.418 178.938 333.862 101.252 178.884 333.824 102.291 178.994 
326.505 103.441 179.573 326.357 103.227 179.923 326.292 103.543 180.064 
328.537 109.593 178.781 328.927 109.841 178.798 329.713 109.928 178.745 
332.83 98.4257 179.512 332.592 98.0536 179.937 327.43 101.189 180.074 
326.385 102.948 180.049 330.703 108.869 180.154 326.499 101.585 181.509 
326.125 103.76 180.88 331.64 107.163 180.993 331.257 107.929 180.736 
327.267 108.738 181.227 328.216 109.54 180.593 328.854 109.567 180.852 
329.357 109.313 181.495 328.234 109.588 181.009 328.868 98.1506 181.886 
326.018 101.725 182.859 326.036 102.311 182.3 329.397 109.09 182.406 
328.419 109.575 181.353 331.602 95.4275 183.319 332.55 95.6626 183.609 
330.207 96.1135 183.169 325.985 103.133 182.307 326.303 108.31 183.639 
327.33 109.393 183.005 328.137 109.501 181.95 331.789 94.7423 184.28 
331.524 94.8947 184.102 332.219 95.1306 183.95 332.79 95.5005 184.422 
331.641 94.4475 184.801 329.492 95.6649 184.703 326.306 109.189 184.836 
331.097 94.0007 185.647 330.718 94.051 185.865 333.246 96.2524 185.963 
325.738 109.561 186.524 326.978 109.599 186.101 331.802 93.019 187.205 
331.998 93.102 187.224 332.306 93.3779 187.269 333.231 96.2569 186.846 
325.286 105.562 187.226 330.113 106.771 186.798 326.475 109.755 186.943 
326.034 109.858 187.43 331.393 92.6822 188.116 332.053 92.9666 187.671 
331.927 92.7672 188.113 332.781 94.0286 187.743 329.177 107.704 187.795 
324.342 108.683 187.803 324.314 109.035 188.002 332.329 93.0535 188.718 
332.621 93.55 188.402 325.496 99.047 188.696 326.145 109.926 188.597 
331.105 92.4622 189.145 331.691 92.4975 189.565 329.824 92.8985 189.672 
329.014 93.4869 189.989 327.963 94.7991 189.631 332.986 95.7802 189.244 
324.716 104.948 189.678 323.035 107.652 190.668 326.691 109.495 190.384 
323.06 110.068 190.416 326.067 109.867 190.46 323.713 110.326 190.351 
329.928 92.4597 191.058 331.306 101.649 191.47 321.824 109.285 191.329 
327.908 108.144 191.083 321.183 110.402 191.997 321.266 110.689 192.174 
324.192 110.542 191.081 323.387 106.143 191.68 321.115 108.556 192.569 
320.733 109.902 192.295 318.9 109.216 194.33 318.803 109.707 193.996 
320.987 108.224 193.099 319.04 109.936 193.682 319.618 110.621 193.288 
319.018 111.179 193.912 320.506 111.602 193.891 318.588 110.113 194.012 
320.301 112.003 194.667 323.28 103.027 193.948 323.027 103.219 194.553 
321.008 107.436 194.23 316.403 109.489 196.55 316.229 109.894 196.184 
317.275 109.662 195.468 316.39 110.121 195.859 316.323 110.545 195.787 
316.87 110.889 195.338 316.698 112.084 196.112 320.408 112.187 195.252 
319.785 112.404 195.639 322.421 104.788 195.243 316.341 109.183 197.212 
315.566 110.295 196.625 315.275 110.63 196.852 315.585 111.434 196.705 
323.061 111.135 196.444 316.854 112.967 197.315 318.879 112.82 196.692 
319.677 112.601 196.383 321.986 105.191 195.803 321.066 106.108 196.548 
314.958 110.406 197.495 314.928 110.517 197.336 314.992 110.942 197.58 
315.912 112.332 197.304 315.633 112.408 198.02 316.895 113.16 197.901 
317.857 113.206 197.566 329.096 91.2798 197.834 321.751 103.992 197.246 
314.912 110.601 197.496 316.132 113.052 198.734 317.819 113.293 198.198 
315.001 110 199.435 315.058 111.993 199.176 315.21 112.342 199.605 
316.642 113.297 199.434 329.255 90.9342 199.023 321.44 102.969 198.506 
314.929 110.005 200.197 314.745 111.081 199.945 314.798 111.457 200.384 
315.97 113.042 200.283 316.932 113.328 199.809 329.83 90.6298 200.616 
329.824 90.5132 201.224 328.708 90.7781 200.433 330.526 91.5245 201.027 
315.327 109.24 200.969 314.811 110.268 200.625 321.197 111.215 201.349 
318.88 112.872 200.138 317.565 113.192 200.626 328.926 90.4208 201.298 
329.608 90.3218 201.683 330.692 92.2741 201.999 316.021 108.31 202.014 
314.956 109.752 201.857 314.818 110.145 202.05 315.335 112.279 201.999 
315.68 112.631 202.156 315.902 112.912 201.714 316.194 113.082 201.395 
330.744 93.2103 202.919 320.225 100.485 203.595 315.04 111.179 203.206 
315.973 112.837 202.2 316.198 112.82 202.457 317.053 113.012 201.847 
316.683 113.004 202.038 321.272 98.4657 203.978 320.059 100.296 204.172 
320.056 100.454 204.141 319.919 101.094 204.215 319.922 102.044 203.074 
315.145 109.546 203.98 315.163 111.028 203.977 315.949 112.352 203.149 
328.709 89.2959 205.21 328.494 89.4116 204.788 329.295 89.7868 204.195 
328.336 89.654 204.297 327.867 89.8028 204.639 326.584 91.2299 204.869 
324.863 93.835 204.759 321.994 97.3937 204.371 320.058 100.315 204.269 
320.124 100.345 204.526 315.101 110.048 204.261 330.341 95.2865 205.702 
322.468 97.1969 205.515 329.107 99.8744 205.812 320.009 100.846 205.392 
319.03 103.386 205.773 320.855 109.264 205.478 315.417 110.72 204.832 
315.911 111.022 205.088 316.95 111.351 205.036 316.45 111.475 204.769 
328.302 88.9629 206.404 328.038 88.8656 206.855 328.73 89.025 206.449 
328.491 88.8348 206.908 327.85 88.9639 206.943 329.31 89.4974 206.056 
327.601 89.5158 206.121 326.284 91.8726 206.634 322.788 97.5383 206.409 
317.278 105.537 206.844 315.455 109.768 205.429 327.973 88.8269 207.19 
328.252 88.7158 207.528 328.477 88.7842 207.41 329.418 89.7862 206.751 
329.94 91.9745 206.982 325.898 94.4306 207.671 324.464 97.3438 207.809 
325.106 97.9115 208.476 323.673 99.1319 208.194 329.202 98.1286 207.518 
328.221 100.352 207.179 319.658 103.233 207.78 318.869 103.857 207.289 
326.757 102.4 207.279 318.496 104.433 208.08 317.568 105.15 207.841 
323.816 105.19 207.589 316.526 106.95 207.42 316.127 108.138 206.885 
316.584 109.119 206.985 317.159 109.041 207.238 327.85 88.9776 207.716 
328.025 88.8917 207.941 328.551 88.8392 207.766 328.483 88.8685 208.053 
329.622 91.3419 207.52 327.001 92.5176 208.167 329.733 93.0997 207.662 
327.307 93.759 208.627 326.669 95.146 208.538 329.612 95.7575 207.773 
[...]
POINT_DATA 991
COLOR_SCALARS scalars 3
1 0.564706 1 1 0.564706 1 1 0.564706 1 
1 0.564706 1 1 0.564706 1 
1 0.564706 1 1 0.564706 1 
1 0.564706 1 1 0.564706 1 
1 0.564706 1 1 0.564706 1 
1 0.564706 1 1 0.564706 1 
1 0.564706 1 1 0.564706 1 
1 0.564706 1 1 0.564706 1 
1 0.564706 1 1 0.564706 1 
1 0.564706 1 1 0.564706 1 
1 0.564706 1 1 0.564706 1 
1 0.564706 1 1 0.564706 1 
1 0.564706 1 1 0.564706 1 
1 0.564706 1 1 0.564706 1 
1 0.564706 1 1 0.564706 1 
1 0.564706 1 1 0.564706 1 
1 0.564706 1 1 0.564706 1 
1 0.564706 1 1 0.564706 1 
1 0.564706 1 1 0.564706 1 
1 0.564706 1 1 0.564706 1 
1 0.564706 1 1 0.564706 1 
1 0.564706 1 1 0.564706 1 
1 0.564706 1 1 0.564706 1 
1 0.564706 1 1 0.564706 1 
1 0.564706 1 1 0.564706 1 
1 0.564706 1 1 0.564706 1 
1 0.564706 1 1 0.564706 1 
1 0.564706 1 1 0.564706 1 
1 0.564706 1 1 0.564706 1 
1 0.564706 1 1 0.564706 1 
1 0.564706 1 1 0.564706 1 
1 0.564706 1 1 0.564706 1 
1 0.564706 1 1 0.564706 1 
1 0.564706 1 1 0.564706 1 
1 0.564706 1 1 0.564706 1 
1 0.564706 1 1 0.564706 1 
1 0.564706 1 1 0.564706 1 
1 0.564706 1 1 0.564706 1 
1 0.564706 1 1 0.564706 1 
1 0.564706 1 1 0.564706 1 
1 0.564706 1 1 0.564706 1 
1 0.564706 1 1 0.564706 1 
1 0.564706 1 1 0.564706 1 
1 0.564706 1 1 0.564706 1 
1 0.564706 1 1 0.564706 1 
1 0.564706 1 1 0.564706 1 
1 0.564706 1 1 0.564706 1 
1 0.564706 1 1 0.564706 1 
1 0.564706 1 1 0.564706 1 
1 0.564706 1 1 0.564706 1 
1 0.564706 1 1 0.564706 1 
1 0.564706 1 1 0.564706 1 
1 0.564706 1 1 0.564706 1 
1 0.564706 1 1 0.564706 1 
1 0.564706 1 1 0.564706 1 
1 0.564706 1 1 0.564706 1 
1 0.564706 1 1 0.564706 1 
1 0.564706 1 1 0.564706 1 
1 0.564706 1 1 0.564706 1 
1 0.564706 1 1 0.564706 1 
1 0.564706 1 1 0.564706 1 
1 0.564706 1 1 0.564706 1 
1 0.564706 1 1 0.564706 1 
1 0.564706 1 1 0.564706 1 
1 0.564706 1 1 0.564706 1 
1 0.564706 1 1 0.564706 1 
1 0.564706 1 1 0.564706 1 
1 0.564706 1 1 0.564706 1 
1 0.564706 1 1 0.564706 1 
1 0.564706 1 1 0.564706 1 
1 0.564706 1 1 0.564706 1 
1 0.564706 1 1 0.564706 1 
1 0.564706 1 1 0.564706 1 
1 0.564706 1 1 0.564706 1 
1 0.564706 1 1 0.564706 1 
1 0.564706 1 1 0.564706 1 
1 0.564706 1 1 0.564706 1 
1 0.564706 1 1 0.564706 1 
1 0.564706 1 1 0.564706 1 
1 0.564706 1 1 0.564706 1 
1 0.564706 1 1 0.564706 1 
1 0.564706 1 1 0.564706 1 
1 0.564706 1 1 0.564706 1 
1 0.564706 1 1 0.564706 1 
1 0.564706 1 1 0.564706 1 
1 0.564706 1 1 0.564706 1 
1 0.564706 1 1 0.564706 1 
1 0.564706 1 1 0.564706 1 
1 0.564706 1 1 0.564706 1 
1 0.564706 1 1 0.564706 1 
1 0.564706 1 1 0.564706 1 
1 0.564706 1 1 0.564706 1 
1 0.564706 1 1 0.564706 1 
1 0.564706 1 1 0.564706 1 
1 0.564706 1 1 0.564706 1 
1 0.564706 1 1 0.564706 1 
1 0.564706 1 1 0.564706 1 
1 0.564706 1 1 0.564706 1 
1 0.564706 1 1 0.564706 1 
1 0.564706 1 1 0.564706 1 
1 0.564706 1 1 0.564706 1 
1 0.564706 1 1 0.564706 1 
1 0.564706 1 1 0.564706 1 
1 0.564706 1 1 0.564706 1 
1 0.564706 1 1 0.564706 1 
1 0.564706 1 1 0.564706 1 
1 0.564706 1 1 0.564706 1 
1 0.564706 1 1 0.564706 1 
1 0.564706 1 1 0.564706 1 
1 0.564706 1 1 0.564706 1 
1 0.564706 1 1 0.564706 1 
1 0.564706 1 1 0.564706 1 
1 0.564706 1 1 0.564706 1 
1 0.564706 1 1 0.564706 1 
1 0.564706 1 1 0.564706 1 
1 0.564706 1 1 0.564706 1 
1 0.564706 1 1 0.564706 1 
1 0.564706 1 1 0.564706 1 
1 0.564706 1 1 0.564706 1 
1 0.564706 1 1 0.564706 1 
1 0.564706 1 1 0.564706 1 
1 0.564706 1 1 0.564706 1 
1 0.564706 1 1 0.564706 1 
1 0.564706 1 1 0.564706 1 
1 0.564706 1 1 0.564706 1 
1 0.564706 1 1 0.564706 1 
1 0.564706 1 1 0.564706 1 
1 0.564706 1 1 0.564706 1 
1 0.564706 1 1 0.564706 1 
1 0.564706 1 1 0.564706 1 
1 0.564706 1 1 0.564706 1 
1 0.564706 1 1 0.564706 1 
1 0.564706 1 1 0.564706 1 
1 0.564706 1 1 0.564706 1 
1 0.564706 1 1 0.564706 1 
1 0.564706 1 1 0.564706 1 
1 0.564706 1 1 0.564706 1 
1 0.564706 1 1 0.564706 1 
1 0.564706 1 1 0.564706 1 
1 0.564706 1 1 0.564706 1 
1 0.564706 1 1 0.564706 1 
1 0.564706 1 1 0.564706 1 
1 0.564706 1 1 0.564706 1 
1 0.564706 1 1 0.564706 1 
1 0.564706 1 1 0.564706 1 
1 0.564706 1 1 0.564706 1 
1 0.564706 1 1 0.564706 1 
1 0.564706 1 1 0.564706 1 
1 0.564706 1 1 0.564706 1 
1 0.564706 1 1 0.564706 1 
1 0.564706 1 1 0.564706 1 
1 0.564706 1 1 0.564706 1 
1 0.564706 1 1 0.564706 1 
1 0.564706 1 1 0.564706 1 
1 0.564706 1 1 0.564706 1 
1 0.564706 1 1 0.564706 1 
1 0.564706 1 1 0.564706 1 
1 0.564706 1 1 0.564706 1 
1 0.564706 1 1 0.564706 1 
1 0.564706 1 1 0.564706 1 
1 0.564706 1 1 0.564706 1 
1 0.564706 1 1 0.564706 1 
1 0.564706 1 1 0.564706 1 
1 0.564706 1 1 0.564706 1 
1 0.564706 1 1 0.564706 1 
1 0.564706 1 1 0.564706 1 
1 0.564706 1 1 0.564706 1 
1 0.564706 1 1 0.564706 1 
1 0.564706 1 1 0.564706 1 
1 0.564706 1 1 0.564706 1 
1 0.564706 1 1 0.564706 1 
1 0.564706 1 1 0.564706 1 
1 0.564706 1 1 0.564706 1 
1 0.564706 1 1 0.564706 1 
1 0.564706 1 1 0.564706 1 
1 0.564706 1 1 0.564706 1 
1 0.564706 1 1 0.564706 1 
1 0.564706 1 1 0.564706 1 
1 0.564706 1 1 0.564706 1 
1 0.564706 1 1 0.564706 1 
1 0.564706 1 1 0.564706 1 
1 0.564706 1 1 0.564706 1 
1 0.564706 1 1 0.564706 1 
1 0.564706 1 1 0.564706 1 
1 0.564706 1 1 0.564706 1 
1 0.564706 1 1 0.564706 1 
1 0.564706 1 1 0.564706 1 
1 0.564706 1 1 0.564706 1 
1 0.564706 1 1 0.564706 1 
1 0.564706 1 1 0.564706 1 
1 0.564706 1 1 0.564706 1 
1 0.564706 1 1 0.564706 1 
1 0.564706 1 1 0.564706 1 
1 0.564706 1 1 0.564706 1 
1 0.564706 1 1 0.564706 1 
1 0.564706 1 1 0.564706 1 
1 0.564706 1 1 0.564706 1 
1 0.564706 1 1 0.564706 1 
1 0.564706 1 1 0.564706 1 
1 0.564706 1 1 0.564706 1 
1 0.564706 1 1 0.564706 1 
1 0.564706 1 1 0.564706 1 
1 0.564706 1 1 0.564706 1 
1 0.564706 1 1 0.564706 1 
1 0.564706 1 1 0.564706 1 
1 0.564706 1 1 0.564706 1 
1 0.564706 1 1 0.564706 1 
1 0.564706 1 1 0.564706 1 
1 0.564706 1 1 0.564706 1 
1 0.564706 1 1 0.564706 1 
1 0.564706 1 1 0.564706 1 
1 0.564706 1 1 0.564706 1 
1 0.564706 1 1 0.564706 1 
1 0.564706 1 1 0.564706 1 
1 0.564706 1 1 0.564706 1 
1 0.564706 1 1 0.564706 1 
1 0.564706 1 1 0.564706 1 
1 0.564706 1 1 0.564706 1 
1 0.564706 1 1 0.564706 1 
1 0.564706 1 1 0.564706 1 
1 0.564706 1 1 0.564706 1 
1 0.564706 1 1 0.564706 1 
1 0.564706 1 1 0.564706 1 
1 0.564706 1 1 0.564706 1 
1 0.564706 1 1 0.564706 1 
1 0.564706 1 1 0.564706 1 
1 0.564706 1 1 0.564706 1 
1 0.564706 1 1 0.564706 1 
1 0.564706 1 1 0.564706 1 
1 0.564706 1 1 0.564706 1 
1 0.564706 1 1 0.564706 1 
1 0.564706 1 1 0.564706 1 
1 0.564706 1 1 0.564706 1 
1 0.564706 1 1 0.564706 1 
1 0.564706 1 1 0.564706 1 
1 0.564706 1 1 0.564706 1 
1 0.564706 1 1 0.564706 1 
1 0.564706 1 1 0.564706 1 
1 0.564706 1 1 0.564706 1 
1 0.564706 1 1 0.564706 1 
1 0.564706 1 1 0.564706 1 
1 0.564706 1 1 0.564706 1 
1 0.564706 1 1 0.564706 1 
1 0.564706 1 1 0.564706 1 
1 0.564706 1 1 0.564706 1 
1 0.564706 1 1 0.564706 1 
1 0.564706 1 1 0.564706 1 
1 0.564706 1 1 0.564706 1 
1 0.564706 1 1 0.564706 1 
1 0.564706 1 1 0.564706 1 
1 0.564706 1 1 0.564706 1 
1 0.564706 1 1 0.564706 1 
1 0.564706 1 1 0.564706 1 
1 0.564706 1 1 0.564706 1 
1 0.564706 1 1 0.564706 1 
1 0.564706 1 1 0.564706 1 
1 0.564706 1 1 0.564706 1 
1 0.564706 1 1 0.564706 1 
1 0.564706 1 1 0.564706 1 
1 0.564706 1 1 0.564706 1 
1 0.564706 1 1 0.564706 1 
1 0.564706 1 1 0.564706 1 
1 0.564706 1 1 0.564706 1 
1 0.564706 1 1 0.564706 1 
1 0.564706 1 1 0.564706 1 
1 0.564706 1 1 0.564706 1 
1 0.564706 1 1 0.564706 1 
1 0.564706 1 1 0.564706 1 
1 0.564706 1 1 0.564706 1 
1 0.564706 1 1 0.564706 1 
1 0.564706 1 1 0.564706 1 
1 0.564706 1 1 0.564706 1 
1 0.564706 1 1 0.564706 1 
1 0.564706 1 1 0.564706 1 
1 0.564706 1 1 0.564706 1 
1 0.564706 1 1 0.564706 1 
1 0.564706 1 1 0.564706 1 
1 0.564706 1 1 0.564706 1 
1 0.564706 1 1 0.564706 1 
1 0.564706 1 1 0.564706 1 
1 0.564706 1 1 0.564706 1 
1 0.564706 1 1 0.564706 1 
1 0.564706 1 1 0.564706 1 
1 0.564706 1 1 0.564706 1 
1 0.564706 1 1 0.564706 1 
1 0.564706 1 1 0.564706 1 
1 0.564706 1 1 0.564706 1 
1 0.564706 1 1 0.564706 1 
1 0.564706 1 1 0.564706 1 
1 0.564706 1 1 0.564706 1 
1 0.564706 1 1 0.564706 1 
1 0.564706 1 1 0.564706 1 
1 0.564706 1 1 0.564706 1 
1 0.564706 1 1 0.564706 1 
1 0.564706 1 1 0.564706 1 
1 0.564706 1 1 0.564706 1 
1 0.564706 1 1 0.564706 1 
1 0.564706 1 1 0.564706 1 
1 0.564706 1 1 0.564706 1 
1 0.564706 1 1 0.564706 1 
1 0.564706 1 1 0.564706 1 
1 0.564706 1 1 0.564706 1 
1 0.564706 1 1 0.564706 1 
1 0.564706 1 1 0.564706 1 
1 0.564706 1 1 0.564706 1 
1 0.564706 1 1 0.564706 1 
1 0.564706 1 1 0.564706 1 
1 0.564706 1 1 0.564706 1 
1 0.564706 1 1 0.564706 1 
1 0.564706 1 1 0.564706 1 
1 0.564706 1 1 0.564706 1 
1 0.564706 1 1 0.564706 1 
1 0.564706 1 1 0.564706 1 
1 0.564706 1 1 0.564706 1 
1 0.564706 1 1 0.564706 1 
1 0.564706 1 1 0.564706 1 
1 0.564706 1 1 0.564706 1 
1 0.564706 1 1 0.564706 1 
1 0.564706 1 1 0.564706 1 
1 0.564706 1 1 0.564706 1 
1 0.564706 1 1 0.564706 1 
1 0.564706 1 1 0.564706 1 
1 0.564706 1 1 0.564706 1 
1 0.564706 1 1 0.564706 1 
1 0.564706 1 1 0.564706 1 
1 0.564706 1 1 0.564706 1 
1 0.564706 1 1 0.564706 1 
1 0.564706 1 1 0.564706 1 
1 0.564706 1 1 0.564706 1 
1 0.564706 1 1 0.564706 1 
1 0.564706 1 1 0.564706 1 
1 0.564706 1 1 0.564706 1 
1 0.564706 1 1 0.564706 1 
1 0.564706 1 1 0.564706 1 
1 0.564706 1 1 0.564706 1 
1 0.564706 1 1 0.564706 1 
1 0.564706 1 1 0.564706 1 
1 0.564706 1 1 0.564706 1 
1 0.564706 1 1 0.564706 1 
1 0.564706 1 1 0.564706 1 
1 0.564706 1 1 0.564706 1 
1 0.564706 1 1 0.564706 1 
1 0.564706 1 1 0.564706 1 
1 0.564706 1 1 0.564706 1 
1 0.564706 1 1 0.564706 1 
1 0.564706 1 1 0.564706 1 
1 0.564706 1 1 0.564706 1 
1 0.564706 1 1 0.564706 1 
1 0.564706 1 1 0.564706 1 
1 0.564706 1 1 0.564706 1 
1 0.564706 1 1 0.564706 1 
1 0.564706 1 1 0.564706 1 
1 0.564706 1 1 0.564706 1 
1 0.564706 1 1 0.564706 1 
1 0.564706 1 1 0.564706 1 
1 0.564706 1 1 0.564706 1 
1 0.564706 1 1 0.564706 1 
1 0.564706 1 1 0.564706 1 
1 0.564706 1 1 0.564706 1 
1 0.564706 1 1 0.564706 1 
1 0.564706 1 1 0.564706 1 
1 0.564706 1 1 0.564706 1 
1 0.564706 1 1 0.564706 1 
1 0.564706 1 1 0.564706 1 
1 0.564706 1 1 0.564706 1 
1 0.564706 1 1 0.564706 1 
1 0.564706 1 1 0.564706 1 
1 0.564706 1 1 0.564706 1 
1 0.564706 1 1 0.564706 1 
1 0.564706 1 1 0.564706 1 
1 0.564706 1 1 0.564706 1 
1 0.564706 1 1 0.564706 1 
1 0.564706 1 1 0.564706 1 
1 0.564706 1 1 0.564706 1 
1 0.564706 1 1 0.564706 1 
1 0.564706 1 1 0.564706 1 
1 0.564706 1 1 0.564706 1 
1 0.564706 1 1 0.564706 1 
1 0.564706 1 1 0.564706 1 
1 0.564706 1 1 0.564706 1 
1 0.564706 1 1 0.564706 1 
1 0.564706 1 1 0.564706 1 
1 0.564706 1 1 0.564706 1 
1 0.564706 1 1 0.564706 1 
1 0.564706 1 1 0.564706 1 
1 0.564706 1 1 0.564706 1 
1 0.564706 1 1 0.564706 1 
1 0.564706 1 1 0.564706 1 
1 0.564706 1 1 0.564706 1 
1 0.564706 1 1 0.564706 1 
1 0.564706 1 1 0.564706 1 
1 0.564706 1 1 0.564706 1 
1 0.564706 1 1 0.564706 1 
1 0.564706 1 1 0.564706 1 
1 0.564706 1 1 0.564706 1 
1 0.564706 1 1 0.564706 1 
1 0.564706 1 1 0.564706 1 
1 0.564706 1 1 0.564706 1 
1 0.564706 1 1 0.564706 1 
1 0.564706 1 1 0.564706 1 
1 0.564706 1 1 0.564706 1 
1 0.564706 1 1 0.564706 1 
1 0.564706 1 1 0.564706 1 
1 0.564706 1 1 0.564706 1 
1 0.564706 1 1 0.564706 1 
1 0.564706 1 1 0.564706 1 
1 0.564706 1 1 0.564706 1 
1 0.564706 1 1 0.564706 1 
1 0.564706 1 1 0.564706 1 
1 0.564706 1 1 0.564706 1 
1 0.564706 1 1 0.564706 1 
1 0.564706 1 1 0.564706 1 
1 0.564706 1 1 0.564706 1 
1 0.564706 1 1 0.564706 1 
1 0.564706 1 1 0.564706 1 
1 0.564706 1 1 0.564706 1 
1 0.564706 1 1 0.564706 1 
1 0.564706 1 1 0.564706 1 
1 0.564706 1 1 0.564706 1 
1 0.564706 1 1 0.564706 1 
1 0.564706 1 1 0.564706 1 
1 0.564706 1 1 0.564706 1 
1 0.564706 1 1 0.564706 1 
1 0.564706 1 1 0.564706 1 
1 0.564706 1 1 0.564706 1 
1 0.564706 1 1 0.564706 1 
1 0.564706 1 1 0.564706 1 
1 0.564706 1 1 0.564706 1 
1 0.564706 1 1 0.564706 1 
1 0.564706 1 1 0.564706 1 
1 0.564706 1 1 0.564706 1 
1 0.564706 1 1 0.564706 1 
1 0.564706 1 1 0.564706 1 
1 0.564706 1 1 0.564706 1 
1 0.564706 1 1 0.564706 1 
1 0.564706 1 1 0.564706 1 
1 0.564706 1 1 0.564706 1 
1 0.564706 1 1 0.564706 1 
1 0.564706 1 1 0.564706 1 
1 0.564706 1 1 0.564706 1 
1 0.564706 1 1 0.564706 1 
1 0.564706 1 1 0.564706 1 
1 0.564706 1 1 0.564706 1 
1 0.564706 1 1 0.564706 1 
1 0.564706 1 1 0.564706 1 
1 0.564706 1 1 0.564706 1 
1 0.564706 1 1 0.564706 1 
1 0.564706 1 1 0.564706 1 
1 0.564706 1 1 0.564706 1 
1 0.564706 1 1 0.564706 1 
1 0.564706 1 1 0.564706 1 
1 0.564706 1 1 0.564706 1 
1 0.564706 1 1 0.564706 1 
1 0.564706 1 1 0.564706 1 
1 0.564706 1 1 0.564706 1 
1 0.564706 1 1 0.564706 1 
1 0.564706 1 1 0.564706 1 
1 0.564706 1 1 0.564706 1 
1 0.564706 1 1 0.564706 1 
1 0.564706 1 1 0.564706 1 
1 0.564706 1 1 0.564706 1 
1 0.564706 1 1 0.564706 1 
1 0.564706 1 1 0.564706 1 
1 0.564706 1 1 0.564706 1 
1 0.564706 1 1 0.564706 1 
1 0.564706 1 1 0.564706 1 
1 0.564706 1 1 0.564706 1 
1 0.564706 1 1 0.564706 1 
1 0.564706 1 1 0.564706 1 
1 0.564706 1 1 0.564706 1 
1 0.564706 1 1 0.564706 1 
1 0.564706 1 1 0.564706 1 
1 0.564706 1 1 0.564706 1 
1 0.564706 1 1 0.564706 1 
1 0.564706 1 1 0.564706 1 
1 0.564706 1 1 0.564706 1 
1 0.564706 1 1 0.564706 1 
1 0.564706 1 1 0.564706 1 
1 0.564706 1 1 0.564706 1 
1 0.564706 1 1 0.564706 1 
1 0.564706 1 1 0.564706 1 
1 0.564706 1 1 0.564706 1 
1 0.564706 1 1 0.564706 1 
1 0.564706 1 1 0.564706 1 
1 0.564706 1 1 0.564706 1 
1 0.564706 1 1 0.564706 1 
1 0.564706 1 1 0.564706 1 
1 0.564706 1 1 0.564706 1 
1 0.564706 1 1 0.564706 1 
1 0.564706 1 1 0.564706 1 
1 0.564706 1 1 0.564706 1 
1 0.564706 1 1 0.564706 1 
1 0.564706 1 1 0.564706 1 
1 0.564706 1 1 0.564706 1 
1 0.564706 1 1 0.564706 1 

NORMALS Normals float
-0.256841 -0.145499 -0.955439 0.441016 -0.350518 -0.826222 -0.55598 0.0805276 -0.827286 
-0.183711 0.142938 -0.972532 0.373431 -0.0788099 -0.924304 -0.633625 0.303477 -0.711632 
-0.533933 0.645889 -0.545658 0.421465 0.246911 -0.872583 0.950454 0.138293 -0.27841 
-0.154217 0.553034 -0.818762 -0.111369 0.937778 -0.328891 0.428163 0.606203 -0.67022 
0.78497 0.402427 -0.471036 0.383419 0.874673 -0.296543 0.680592 0.698731 -0.220383 
0.278988 -0.549895 -0.787262 -0.615234 -0.26898 -0.741038 -0.688636 -0.1262 -0.714041 
-0.190925 -0.379356 -0.905338 0.908048 -0.0963218 -0.407642 0.904341 -0.176112 -0.388783 
-0.849388 0.220805 -0.479359 0.836403 -0.000226571 -0.548115 -0.846676 0.459448 -0.268415 
-0.723384 0.55912 -0.405093 -0.35302 0.909827 -0.218156 0.914922 0.398838 -0.0620218 
0.419576 0.90713 0.0327164 0.186955 -0.620295 -0.761762 -0.614771 -0.322756 -0.719642 
0.759748 -0.396921 -0.515011 0.713995 -0.352519 -0.604931 -0.80364 -0.0298538 -0.594367 
0.926143 0.367449 -0.085089 0.879863 0.455029 0.137073 -0.601993 0.775346 -0.190901 
-0.753866 0.629253 -0.189014 -0.133509 0.989179 -0.0608301 0.573498 0.813522 0.0963395 
-0.0651468 -0.619638 -0.782179 -0.47922 -0.519986 -0.707081 0.870399 -0.365037 -0.330385 
-0.80238 -0.0404951 -0.595437 0.976916 -0.14157 -0.159976 0.994715 0.0938847 -0.0415739 
0.966313 0.220524 0.132694 -0.617548 0.774889 -0.134838 -0.0302371 0.999541 -0.00167451 
0.251362 -0.665709 -0.702601 0.401037 -0.641013 -0.654425 0.650467 -0.540144 -0.533983 
-0.78426 -0.290653 -0.548139 0.963757 -0.18793 -0.189355 -0.881849 0.115705 -0.457116 
-0.884954 0.0695887 -0.460449 0.960558 -0.219159 -0.171166 0.997439 -0.0700954 0.0142175 
-0.884417 0.340386 -0.319288 0.920098 0.368558 0.132611 -0.610601 0.79096 -0.0393592 
-0.589972 0.806225 -0.043988 -0.0354509 -0.731599 -0.680813 -0.310304 -0.712875 -0.628905 
0.912172 -0.365978 -0.184395 0.953 -0.239343 -0.18576 -0.925496 0.110402 -0.36231 
0.96817 0.198717 0.152178 0.801568 0.571027 0.17725 0.22132 -0.776721 -0.589679 
-0.409478 -0.701292 -0.583539 -0.631667 -0.503148 -0.589779 0.145841 -0.73211 -0.665391 
-0.692609 -0.475732 -0.542192 -0.789479 -0.281514 -0.545411 0.965875 -0.235268 -0.108324 
0.998963 -0.0383893 0.0244848 -0.863914 0.396576 -0.310452 -0.823875 0.535038 -0.18699 
-0.774662 0.61761 -0.135858 -0.124388 0.982929 0.135567 -0.0971181 -0.69138 -0.715934 
-0.297186 -0.756726 -0.582277 0.678159 -0.660623 -0.321989 0.776748 -0.495496 -0.388775 
-0.761149 -0.408329 -0.503905 0.947174 -0.305093 -0.0988965 -0.929828 0.340222 -0.140247 
-0.770761 0.633571 -0.0671921 -0.382356 0.893492 0.235532 0.605067 0.763653 0.22523 
0.27491 0.880241 0.386781 -0.00147078 -0.80519 -0.593015 0.0462695 -0.846807 -0.529885 
-0.783286 -0.457464 -0.420939 -0.485461 -0.64076 -0.594773 -0.912107 -0.220089 -0.345864 
0.987755 -0.150506 -0.0410787 -0.966928 0.0542433 -0.249216 -0.930971 0.331341 -0.153317 
0.974129 0.185416 0.129204 -0.7797 0.625895 -0.0179658 -0.561036 0.824848 0.0697498 
0.669109 0.619396 0.410661 0.057926 -0.889186 -0.453864 -0.504706 -0.640984 -0.578282 
-0.71541 -0.529097 -0.456338 -0.823914 0.558752 -0.094662 0.903848 0.351223 0.244337 
0.741614 0.591914 0.315669 -0.385447 0.906126 0.174262 0.137612 0.911027 0.388707 
0.0759162 -0.809214 -0.582589 -0.185489 -0.781181 -0.596112 -0.573159 -0.582118 -0.576738 
0.997829 -0.0142538 0.0642948 -0.960202 0.273698 -0.0556953 0.596859 0.699938 0.392233 
-0.24388 -0.763894 -0.597484 -0.820388 -0.339511 -0.460103 -0.876845 0.47843 0.0474111 
-0.681856 0.731451 0.00714962 -0.340556 0.926311 0.161149 -0.235882 0.941949 0.23894 
0.301447 0.887259 0.349143 0.161406 0.933888 0.319064 0.410374 -0.736025 -0.538387 
0.0211948 -0.792509 -0.609492 0.486716 0.773573 0.405822 -0.604523 0.779902 0.162189 
0.160729 0.933681 0.32001 -0.012735 0.956036 0.292973 -0.113326 -0.801737 -0.586835 
0.538571 -0.666143 -0.515941 -0.499647 -0.679454 -0.537304 -0.0749885 -0.80274 -0.591596 
0.965355 -0.208547 -0.156837 -0.666417 -0.491384 -0.560741 -0.830515 -0.320925 -0.45525 
-0.938454 -0.0431861 -0.342694 0.96259 0.159187 0.219271 -0.944628 0.094805 -0.314151 
-0.918357 0.296781 -0.261804 0.856655 0.461249 0.231067 -0.186561 0.949607 0.251877 
0.242197 -0.790534 -0.562492 0.618766 -0.65859 -0.428237 -0.94474 0.261788 -0.197318 
0.830537 0.5386 0.141841 0.338336 0.866295 0.367509 -0.295104 0.924132 0.242679 
0.209651 -0.826848 -0.521889 0.36096 -0.795048 -0.487449 0.676244 -0.640582 -0.363797 
-0.104135 -0.810952 -0.575771 0.999056 0.0430267 0.00591883 -0.959658 0.109436 -0.259 
-0.740789 0.667929 -0.0714239 0.63337 0.723643 0.274196 -0.471003 0.881645 0.0292886 
-0.346107 0.91782 0.194464 -0.0125332 0.929825 0.367789 -0.159024 0.914427 0.372201 
0.916695 -0.347254 -0.1977 0.956741 0.238052 0.167264 -0.932964 0.327812 -0.148722 
0.813888 0.463785 0.349985 -0.896316 0.430963 -0.10435 -0.753719 0.655404 -0.048522 
0.284698 0.846468 0.449932 0.356413 -0.782513 -0.510532 0.817824 -0.520499 -0.245447 
0.945364 -0.325936 0.00724645 0.981747 -0.111919 0.153777 0.954495 0.102304 0.28013 
-0.921164 0.0995243 -0.376234 -0.84895 -0.251398 -0.464848 -0.938161 0.185411 -0.292363 
-0.749009 0.658696 -0.0714487 -0.396251 0.91768 0.0291425 0.0360302 0.96418 0.262792 
0.725086 -0.641166 -0.251308 0.463546 -0.78722 -0.406706 -0.677919 -0.574348 -0.458857 
-0.919348 -0.266753 -0.289208 0.636961 0.732768 0.239439 -0.865855 -0.402086 -0.297693 
-0.948171 0.217474 -0.231684 0.875552 0.418198 0.241907 0.768527 0.607033 0.202182 
-0.815354 0.548665 -0.184837 -0.309263 0.949833 -0.0466146 0.167715 0.97286 0.15942 
0.430984 0.874084 0.224121 -0.253021 0.966013 -0.0529054 -0.607763 -0.636638 -0.474674 
-0.909669 -0.363356 -0.201184 -0.9477 -0.125054 -0.293644 0.485866 0.862641 0.140658 
0.128269 0.990567 0.048204 -0.0179121 -0.772504 -0.634758 0.611849 -0.633877 -0.473118 
-0.506929 -0.695266 -0.509537 -0.982168 -0.054704 -0.17987 -0.913157 0.278034 -0.298062 
-0.509673 0.844654 -0.163685 0.104573 0.986998 0.122059 0.149589 -0.825215 -0.54465 
-0.133046 -0.810105 -0.57099 0.402922 -0.760491 -0.509222 0.809592 -0.4962 -0.313602 
-0.156695 -0.83697 -0.524336 -0.612879 -0.671098 -0.417142 -0.623076 0.69403 -0.360693 
-0.293616 -0.803704 -0.517542 -0.448873 -0.774347 -0.445982 0.998844 -0.0116347 0.0466331 
-0.367114 0.889109 -0.273336 -0.19846 0.960701 -0.194082 0.199248 -0.83641 -0.510606 
0.457323 -0.598773 -0.657516 0.812522 -0.49405 -0.30939 0.997902 -0.0555084 -0.0333305 
-0.954769 -0.130566 -0.267149 0.837064 0.441066 0.323705 0.0443273 0.982505 -0.180883 