# vtk DataFile Version 4.2
vtk output
ASCII
DATASET POLYDATA
POINTS 639 float
437.612 284.359 191.502 439.666 284.622 191.427 441.77 284.6 191.482 
433.486 284.955 191.909 436.735 284.392 191.551 438.503 285.403 191.398 
447.572 285.593 191.755 448.587 285.298 192.066 433.272 285.323 192.086 
441.045 285.953 191.332 446.24 286.07 191.53 447.993 286.166 191.747 
448.828 285.636 192.02 449.345 286.221 192.141 449.676 286.008 192.344 
434.367 286.08 192.238 436.058 286.372 191.941 438.701 286.649 191.685 
449.152 286.664 192.11 442.343 287.211 191.616 444.38 287.338 191.629 
446.513 287.322 191.698 440.205 287.727 192.218 442.919 287.859 191.969 
443.978 287.881 191.907 445.653 288.046 191.956 449.156 287.594 192.375 
447.858 288.287 192.401 426.451 282.11 192.798 426.443 281.636 192.73 
425.884 282.479 193.17 426.945 282.012 192.671 434.376 283.083 191.932 
435.797 282.414 192.168 426.726 283.36 193.347 433.998 283.763 191.818 
428.625 284.356 193.188 429.876 284.344 192.753 432.083 284.277 192.129 
446.873 284.369 192.153 450.573 285.285 193.199 430.7 285.286 193.169 
430.843 284.932 192.782 434.34 286.498 192.609 434.026 286.608 192.938 
435.981 286.755 192.275 435.587 287.109 192.896 436.49 287.249 192.664 
436.944 287.591 193.005 442.649 288.545 192.752 444.394 288.739 192.713 
446.068 288.824 192.738 446.993 288.9 192.869 420.448 276.927 194.016 
421.772 277.06 193.6 421.169 277.771 193.644 422.277 276.953 193.573 
419.942 278.251 194.543 423.142 277.492 193.404 420.452 278.885 194.159 
424.196 279.022 193.113 428.385 280.095 192.978 422.112 280.331 193.969 
424.018 280.539 193.251 436.755 281.209 193.011 434.188 281.774 192.476 
423.547 281.675 194.188 449.065 284.269 192.904 450.157 284.476 193.285 
428.891 284.923 193.88 429.43 285.302 194.269 450.978 285.927 193.583 
430.133 285.506 194.033 435.491 287.493 194.005 450.924 286.868 193.731 
444.258 288.991 193.202 448.77 288.892 193.422 447.992 289.267 193.737 
448.591 289.134 193.74 419.992 275.319 194.772 421.759 276.01 194.101 
419.992 276.408 194.409 419.042 276.185 195.073 418.987 276.453 195.133 
425.326 277.917 193.501 420.22 278.844 194.442 420.523 279.678 194.956 
422.033 281.038 194.943 422.531 281.474 195.256 423.182 281.778 194.835 
431.789 286.19 194.313 432.488 286.529 194.498 450.95 287.494 194.797 
445.319 289.354 193.874 449.34 288.874 194.039 446.563 289.553 194.417 
448.977 289.117 194.146 420.752 274.862 194.927 418.984 274.57 195.717 
419.002 277.783 195.835 438.732 279.971 194.651 424.44 282.737 195.746 
449.307 282.663 194.821 429.92 285.6 195.32 430.638 285.842 195.246 
435.891 287.698 195.172 442.324 289.048 195.039 448.32 289.394 194.762 
423.524 273.552 196.573 418.232 274.186 196.846 431.751 277.978 195.469 
419.822 279.193 196.87 450.322 282.751 195.576 427.911 284.707 195.796 
452.052 284.787 196.23 430.084 285.521 196.25 452.046 285.805 196.249 
450.979 287.71 196.467 423.617 273.24 197.185 417.872 274.802 197.618 
432.013 277.228 197.15 418.233 276.818 197.602 435.161 278.179 196.774 
439.967 279.238 196.928 449.872 281.829 197.15 423.153 281.74 197.33 
450.936 283.011 196.135 452.02 284.163 196.81 429.135 284.992 196.719 
434.365 286.927 196.656 451.806 286.578 196.913 442.045 288.731 197.124 
421.428 271.682 198.886 418.577 272.874 197.825 418.351 272.776 198.367 
431.798 277.07 197.774 432.767 277.33 197.719 437.677 278.686 197.746 
445.74 280.387 197.923 451.845 283.696 197.523 427.615 283.746 197.968 
430.793 285.249 197.652 452.219 285.573 197.992 445.4 289.034 197.451 
449.849 288.463 197.419 419.673 271.677 199.076 422.006 271.697 199.351 
428.057 275.389 198.37 428.683 275.724 198.62 418.741 277.638 198.895 
437.643 278.663 198.329 440.74 279.375 198.194 420.415 279.199 198.977 
448.355 281.155 198.802 449.778 281.72 198.219 424.401 281.772 198.765 
452.232 285.127 198.408 451.93 285.921 198.747 450.105 287.871 198.739 
420.646 271.166 200.426 428.392 275.626 198.887 429.858 276.397 199.042 
436.539 278.512 198.926 438.029 279.073 199.261 439.742 279.437 199.112 
442.433 279.953 199.229 446.32 280.74 199.491 447.077 280.755 198.993 
427.785 283.018 199.173 451.782 283.788 198.697 451.92 284.144 198.898 
452.081 285.181 198.92 451.984 285.581 198.988 439.174 287.107 199.264 
450.609 287.181 199.527 419.784 270.992 200.995 419.628 270.947 201.506 
420.654 271.038 201.004 420.745 271.066 201.425 418.527 271.834 200.505 
422.579 272.131 200.854 417.68 273.941 201.01 417.797 274.615 201.351 
417.931 275.227 201.253 427.779 276.09 200.307 429.734 276.621 199.612 
427.543 277.045 201.209 429.647 277.076 200.243 434.581 278.439 199.757 
436.582 278.837 199.544 431.467 278.592 200.869 431.3 278.877 201.087 
435.488 279.118 200.245 440.688 279.875 199.611 422.73 279.83 200.165 
440.572 280.308 200.241 434.221 280.158 201.19 438.236 280.858 201.112 
440.323 280.793 200.768 448.23 281.536 199.998 447.472 281.639 200.461 
448.895 281.986 200.336 450.432 282.732 200.133 428.366 282.456 200.024 
429.838 283.196 199.919 448.065 282.203 200.916 450.658 283.097 200.229 
431.366 283.201 200.461 451.841 284.349 199.244 419.207 271.098 201.563 
419.93 270.922 201.866 417.755 273.251 201.628 423.716 273.981 201.846 
418.411 275.496 201.953 426.984 277.573 201.527 429.486 278.727 201.304 
423.996 279.911 200.645 424.918 279.586 201.119 431.437 279.75 201.347 
427.898 281.239 200.762 429.397 280.693 201.24 436.871 281.032 201.288 
429.677 282 200.747 431.905 282.281 201.101 440.748 281.928 201.457 
450.739 283.499 200.534 450.552 283.644 200.817 450.833 283.866 200.607 
450.45 286.005 200.877 449.286 287.206 200.454 419.164 271.196 202.469 
419.564 271.058 202.485 420.631 271.228 202.291 421.869 272.065 202.012 
418.118 272.176 202.408 422.29 273.787 202.865 417.911 273.721 202.65 
422.656 274.563 202.737 418.059 274.521 202.437 423.963 276.167 202.114 
421.379 276.487 202.478 422.063 277.511 201.789 426.02 277.915 201.658 
432.887 281.841 201.366 437.225 282.313 201.529 445.725 283.194 201.95 
447.547 283.212 201.777 449.339 283.543 201.435 436.572 283.729 201.319 
444.604 283.822 202.169 449.362 284.088 201.713 449.931 284.213 201.392 
449.398 285.073 201.784 443.436 285.224 202.024 446.658 286.566 201.535 
447.891 285.885 201.861 419.14 271.34 202.917 419.928 271.148 202.677 
418.254 272.038 202.68 418.021 272.774 202.852 418.028 273.535 203.087 
421.854 275.031 203.085 419.511 275.373 202.949 421.886 275.62 202.873 
448.546 284.28 202.036 449.067 284.294 201.91 444.055 284.973 202.162 
445.848 284.935 202.236 447.576 284.835 202.19 444.643 285.499 202.061 
448.815 285.19 201.96 419.347 271.405 203.174 418.568 272.228 203.547 
418.938 271.953 203.659 418.185 272.893 203.321 420.495 272.453 203.873 
418.143 273.285 203.311 418.612 273.846 203.562 419.704 272.049 204.113 
419.523 272.142 204.253 419.024 272.438 204.186 419.72 272.223 204.273 
419.818 272.478 204.302 418.857 273.178 204.005 420.294 273.086 204.1 
418.848 273.632 203.819 419.194 273.055 204.23 419.281 273.512 204.008 
419.52 273.051 204.27 420.435 273.52 203.961 419.295 272.242 204.252 
419.287 272.528 204.349 419.53 272.358 204.355 419.315 272.802 204.347 
419.556 272.668 204.369 419.665 272.097 251.472 419.602 271.833 251.648 
420.038 272.077 251.512 419.955 271.755 251.77 420.31 271.979 251.678 
419.086 272.158 251.599 419.602 272.467 251.334 420.323 272.296 251.522 
418.79 272.759 251.558 419.389 272.775 251.333 419.809 272.785 251.332 
420.26 272.72 251.438 418.985 273.351 251.503 419.267 273.665 251.586 
419.492 271.344 252.408 419.843 271.507 251.999 419.779 271.377 252.214 
418.839 271.714 252.433 420.667 272.149 251.778 420.969 272.025 252.087 
418.598 272.344 251.997 418.38 272.316 252.423 418.624 273.619 251.863 
419.248 274.223 251.852 419.047 274.398 252.017 420.826 274.967 252.134 
420.367 271.235 252.691 418.517 271.958 252.72 418.185 272.721 252.624 
418.076 273.145 252.814 418.553 274.836 252.818 418.974 275.041 252.524 
419.089 275.412 252.731 446.906 284.042 252.969 447.88 284.473 252.902 
448.127 284.141 253.02 445.157 284.886 253.041 448.363 284.418 252.979 
449.17 284.822 253.239 446.25 285.354 252.987 448.231 285.285 253.042 
448.811 285.36 253.181 448.579 285.663 253.275 419.549 271.048 253.473 
418.85 271.496 253.638 418.443 271.944 253.418 418.142 272.395 253.514 
417.963 273.383 253.262 418.188 274.38 253.105 422.843 276.181 252.991 
421.923 276.711 253.121 421.512 277.357 253.531 425.836 277.116 253.598 
422.876 278.286 253.882 425.203 278.947 253.901 437.079 283.053 253.843 
438.866 282.405 253.747 440.986 282.657 253.651 442.643 283.317 253.429 
443.63 283.285 253.371 448.12 283.659 253.276 450.55 283.631 254.264 
437.471 283.388 253.811 442.265 283.983 253.405 444.198 283.799 253.221 
438.101 284.154 253.934 443.013 284.628 253.376 450.545 285.055 254.139 
441.853 285.305 253.71 442.225 285.707 253.864 447.657 286.36 253.618 
450.032 286.208 254.118 448.255 286.779 254.067 449.807 286.546 254.279 
419.257 271.189 253.821 419.89 270.953 253.71 420.32 270.986 253.711 
417.999 272.711 253.861 424.161 273.366 254.65 417.79 273.895 254.346 
418.025 274.591 253.665 418.339 275.35 253.728 420.824 277.741 254.03 
426.591 277.642 253.711 429.076 279.374 254.088 428.39 278.558 254.064 
427.25 281.02 254.666 428.986 281.46 254.576 435.053 281.822 254.041 
438.783 281.787 253.893 449.701 282.632 254.446 432.205 282.899 254.635 
442.423 282.095 253.861 434.422 283.279 254.391 438.854 285.451 254.388 
451.112 285.589 254.674 419.435 271.14 254.279 419.735 271.034 254.388 
418.598 271.951 254.772 423.033 272.298 254.805 425.178 273.643 255.659 
425.494 274.784 254.484 417.738 274.697 255.28 427.277 275.543 255.172 
428.905 275.953 255.941 428.018 277.096 254.401 431.122 276.971 256.06 
431.447 277.579 255.413 432.102 277.357 256.038 433.794 277.801 256.035 
427.776 277.757 254.06 420.76 278.836 255.427 439.024 279.383 255.789 
439.492 280.183 254.956 437.9 280.697 254.363 440.177 280.857 254.488 
[...]
POINT_DATA 639
COLOR_SCALARS scalars 3
1 0.701961 0.85098 1 0.701961 0.85098 1 0.701961 0.85098 
1 0.701961 0.85098 1 0.701961 0.85098 
1 0.701961 0.85098 1 0.701961 0.85098 
1 0.701961 0.85098 1 0.701961 0.85098 
1 0.701961 0.85098 1 0.701961 0.85098 
1 0.701961 0.85098 1 0.701961 0.85098 
1 0.701961 0.85098 1 0.701961 0.85098 
1 0.701961 0.85098 1 0.701961 0.85098 
1 0.701961 0.85098 1 0.701961 0.85098 
1 0.701961 0.85098 1 0.701961 0.85098 
1 0.701961 0.85098 1 0.701961 0.85098 
1 0.701961 0.85098 1 0.701961 0.85098 
1 0.701961 0.85098 1 0.701961 0.85098 
1 0.701961 0.85098 1 0.701961 0.85098 
1 0.701961 0.85098 1 0.701961 0.85098 
1 0.701961 0.85098 1 0.701961 0.85098 
1 0.701961 0.85098 1 0.701961 0.85098 
1 0.701961 0.85098 1 0.701961 0.85098 
1 0.701961 0.85098 1 0.701961 0.85098 
1 0.701961 0.85098 1 0.701961 0.85098 
1 0.701961 0.85098 1 0.701961 0.85098 
1 0.701961 0.85098 1 0.701961 0.85098 
1 0.701961 0.85098 1 0.701961 0.85098 
1 0.701961 0.85098 1 0.701961 0.85098 
1 0.701961 0.85098 1 0.701961 0.85098 
1 0.701961 0.85098 1 0.701961 0.85098 
1 0.701961 0.85098 1 0.701961 0.85098 
1 0.701961 0.85098 1 0.701961 0.85098 
1 0.701961 0.85098 1 0.701961 0.85098 
1 0.701961 0.85098 1 0.701961 0.85098 
1 0.701961 0.85098 1 0.701961 0.85098 
1 0.701961 0.85098 1 0.701961 0.85098 
1 0.701961 0.85098 1 0.701961 0.85098 
1 0.701961 0.85098 1 0.701961 0.85098 
1 0.701961 0.85098 1 0.701961 0.85098 
1 0.701961 0.85098 1 0.701961 0.85098 
1 0.701961 0.85098 1 0.701961 0.85098 
1 0.701961 0.85098 1 0.701961 0.85098 
1 0.701961 0.85098 1 0.701961 0.85098 
1 0.701961 0.85098 1 0.701961 0.85098 
1 0.701961 0.85098 1 0.701961 0.85098 
1 0.701961 0.85098 1 0.701961 0.85098 
1 0.701961 0.85098 1 0.701961 0.85098 
1 0.701961 0.85098 1 0.701961 0.85098 
1 0.701961 0.85098 1 0.701961 0.85098 
1 0.701961 0.85098 1 0.701961 0.85098 
1 0.701961 0.85098 1 0.701961 0.85098 
1 0.701961 0.85098 1 0.701961 0.85098 
1 0.701961 0.85098 1 0.701961 0.85098 
1 0.701961 0.85098 1 0.701961 0.85098 
1 0.701961 0.85098 1 0.701961 0.85098 
1 0.701961 0.85098 1 0.701961 0.85098 
1 0.701961 0.85098 1 0.701961 0.85098 
1 0.701961 0.85098 1 0.701961 0.85098 
1 0.701961 0.85098 1 0.701961 0.85098 
1 0.701961 0.85098 1 0.701961 0.85098 
1 0.701961 0.85098 1 0.701961 0.85098 
1 0.701961 0.85098 1 0.701961 0.85098 
1 0.701961 0.85098 1 0.701961 0.85098 
1 0.701961 0.85098 1 0.701961 0.85098 
1 0.701961 0.85098 1 0.701961 0.85098 
1 0.701961 0.85098 1 0.701961 0.85098 
1 0.701961 0.85098 1 0.701961 0.85098 
1 0.701961 0.85098 1 0.701961 0.85098 
1 0.701961 0.85098 1 0.701961 0.85098 
1 0.701961 0.85098 1 0.701961 0.85098 
1 0.701961 0.85098 1 0.701961 0.85098 
1 0.701961 0.85098 1 0.701961 0.85098 
1 0.701961 0.85098 1 0.701961 0.85098 
1 0.701961 0.85098 1 0.701961 0.85098 
1 0.701961 0.85098 1 0.701961 0.85098 
1 0.701961 0.85098 1 0.701961 0.85098 
1 0.701961 0.85098 1 0.701961 0.85098 
1 0.701961 0.85098 1 0.701961 0.85098 
1 0.701961 0.85098 1 0.701961 0.85098 
1 0.701961 0.85098 1 0.701961 0.85098 
1 0.701961 0.85098 1 0.701961 0.85098 
1 0.701961 0.85098 1 0.701961 0.85098 
1 0.701961 0.85098 1 0.701961 0.85098 
1 0.701961 0.85098 1 0.701961 0.85098 
1 0.701961 0.85098 1 0.701961 0.85098 
1 0.701961 0.85098 1 0.701961 0.85098 
1 0.701961 0.85098 1 0.701961 0.85098 
1 0.701961 0.85098 1 0.701961 0.85098 
1 0.701961 0.85098 1 0.701961 0.85098 
1 0.701961 0.85098 1 0.701961 0.85098 
1 0.701961 0.85098 1 0.701961 0.85098 
1 0.701961 0.85098 1 0.701961 0.85098 
1 0.701961 0.85098 1 0.701961 0.85098 
1 0.701961 0.85098 1 0.701961 0.85098 
1 0.701961 0.85098 1 0.701961 0.85098 
1 0.701961 0.85098 1 0.701961 0.85098 
1 0.701961 0.85098 1 0.701961 0.85098 
1 0.701961 0.85098 1 0.701961 0.85098 
1 0.701961 0.85098 1 0.701961 0.85098 
1 0.701961 0.85098 1 0.701961 0.85098 
1 0.701961 0.85098 1 0.701961 0.85098 
1 0.701961 0.85098 1 0.701961 0.85098 
1 0.701961 0.85098 1 0.701961 0.85098 
1 0.701961 0.85098 1 0.701961 0.85098 
1 0.701961 0.85098 1 0.701961 0.85098 
1 0.701961 0.85098 1 0.701961 0.85098 
1 0.701961 0.85098 1 0.701961 0.85098 
1 0.701961 0.85098 1 0.701961 0.85098 
1 0.701961 0.85098 1 0.701961 0.85098 
1 0.701961 0.85098 1 0.701961 0.85098 
1 0.701961 0.85098 1 0.701961 0.85098 
1 0.701961 0.85098 1 0.701961 0.85098 
1 0.701961 0.85098 1 0.701961 0.85098 
1 0.701961 0.85098 1 0.701961 0.85098 
1 0.701961 0.85098 1 0.701961 0.85098 
1 0.701961 0.85098 1 0.701961 0.85098 
1 0.701961 0.85098 1 0.701961 0.85098 
1 0.701961 0.85098 1 0.701961 0.85098 
1 0.701961 0.85098 1 0.701961 0.85098 
1 0.701961 0.85098 1 0.701961 0.85098 
1 0.701961 0.85098 1 0.701961 0.85098 
1 0.701961 0.85098 1 0.701961 0.85098 
1 0.701961 0.85098 1 0.701961 0.85098 
1 0.701961 0.85098 1 0.701961 0.85098 
1 0.701961 0.85098 1 0.701961 0.85098 
1 0.701961 0.85098 1 0.701961 0.85098 
1 0.701961 0.85098 1 0.701961 0.85098 
1 0.701961 0.85098 1 0.701961 0.85098 
1 0.701961 0.85098 1 0.701961 0.85098 
1 0.701961 0.85098 1 0.701961 0.85098 
1 0.701961 0.85098 1 0.701961 0.85098 
1 0.701961 0.85098 1 0.701961 0.85098 
1 0.701961 0.85098 1 0.701961 0.85098 
1 0.701961 0.85098 1 0.701961 0.85098 
1 0.701961 0.85098 1 0.701961 0.85098 
1 0.701961 0.85098 1 0.701961 0.85098 
1 0.701961 0.85098 1 0.701961 0.85098 
1 0.701961 0.85098 1 0.701961 0.85098 
1 0.701961 0.85098 1 0.701961 0.85098 
1 0.701961 0.85098 1 0.701961 0.85098 
1 0.701961 0.85098 1 0.701961 0.85098 
1 0.701961 0.85098 1 0.701961 0.85098 
1 0.701961 0.85098 1 0.701961 0.85098 
1 0.701961 0.85098 1 0.701961 0.85098 
1 0.701961 0.85098 1 0.701961 0.85098 
1 0.701961 0.85098 1 0.701961 0.85098 
1 0.701961 0.85098 1 0.701961 0.85098 
1 0.701961 0.85098 1 0.701961 0.85098 
1 0.701961 0.85098 1 0.701961 0.85098 
1 0.701961 0.85098 1 0.701961 0.85098 
1 0.701961 0.85098 1 0.701961 0.85098 
1 0.701961 0.85098 1 0.701961 0.85098 
1 0.701961 0.85098 1 0.701961 0.85098 
1 0.701961 0.85098 1 0.701961 0.85098 
1 0.701961 0.85098 1 0.701961 0.85098 
1 0.701961 0.85098 1 0.701961 0.85098 
1 0.701961 0.85098 1 0.701961 0.85098 
1 0.701961 0.85098 1 0.701961 0.85098 
1 0.701961 0.85098 1 0.701961 0.85098 
1 0.701961 0.85098 1 0.701961 0.85098 
1 0.701961 0.85098 1 0.701961 0.85098 
1 0.701961 0.85098 1 0.701961 0.85098 
1 0.701961 0.85098 1 0.701961 0.85098 
1 0.701961 0.85098 1 0.701961 0.85098 
1 0.701961 0.85098 1 0.701961 0.85098 
1 0.701961 0.85098 1 0.701961 0.85098 
1 0.701961 0.85098 1 0.701961 0.85098 
1 0.701961 0.85098 1 0.701961 0.85098 
1 0.701961 0.85098 1 0.701961 0.85098 
1 0.701961 0.85098 1 0.701961 0.85098 
1 0.701961 0.85098 1 0.701961 0.85098 
1 0.701961 0.85098 1 0.701961 0.85098 
1 0.701961 0.85098 1 0.701961 0.85098 
1 0.701961 0.85098 1 0.701961 0.85098 
1 0.701961 0.85098 1 0.701961 0.85098 
1 0.701961 0.85098 1 0.701961 0.85098 
1 0.701961 0.85098 1 0.701961 0.85098 
1 0.701961 0.85098 1 0.701961 0.85098 
1 0.701961 0.85098 1 0.701961 0.85098 
1 0.701961 0.85098 1 0.701961 0.85098 
1 0.701961 0.85098 1 0.701961 0.85098 
1 0.701961 0.85098 1 0.701961 0.85098 
1 0.701961 0.85098 1 0.701961 0.85098 
1 0.701961 0.85098 1 0.701961 0.85098 
1 0.701961 0.85098 1 0.701961 0.85098 
1 0.701961 0.85098 1 0.701961 0.85098 
1 0.701961 0.85098 1 0.701961 0.85098 
1 0.701961 0.85098 1 0.701961 0.85098 
1 0.701961 0.85098 1 0.701961 0.85098 
1 0.701961 0.85098 1 0.701961 0.85098 
1 0.701961 0.85098 1 0.701961 0.85098 
1 0.701961 0.85098 1 0.701961 0.85098 
1 0.701961 0.85098 1 0.701961 0.85098 
1 0.701961 0.85098 1 0.701961 0.85098 
1 0.701961 0.85098 1 0.701961 0.85098 
1 0.701961 0.85098 1 0.701961 0.85098 
1 0.701961 0.85098 1 0.701961 0.85098 
1 0.701961 0.85098 1 0.701961 0.85098 
1 0.701961 0.85098 1 0.701961 0.85098 
1 0.701961 0.85098 1 0.701961 0.85098 
1 0.701961 0.85098 1 0.701961 0.85098 
1 0.701961 0.85098 1 0.701961 0.85098 
1 0.701961 0.85098 1 0.701961 0.85098 
1 0.701961 0.85098 1 0.701961 0.85098 
1 0.701961 0.85098 1 0.701961 0.85098 
1 0.701961 0.85098 1 0.701961 0.85098 
1 0.701961 0.85098 1 0.701961 0.85098 
1 0.701961 0.85098 1 0.701961 0.85098 
1 0.701961 0.85098 1 0.701961 0.85098 
1 0.701961 0.85098 1 0.701961 0.85098 
1 0.701961 0.85098 1 0.701961 0.85098 
1 0.701961 0.85098 1 0.701961 0.85098 
1 0.701961 0.85098 1 0.701961 0.85098 
1 0.701961 0.85098 1 0.701961 0.85098 
1 0.701961 0.85098 1 0.701961 0.85098 
1 0.701961 0.85098 1 0.701961 0.85098 
1 0.701961 0.85098 1 0.701961 0.85098 
1 0.701961 0.85098 1 0.701961 0.85098 
1 0.701961 0.85098 1 0.701961 0.85098 
1 0.701961 0.85098 1 0.701961 0.85098 
1 0.701961 0.85098 1 0.701961 0.85098 
1 0.701961 0.85098 1 0.701961 0.85098 
1 0.701961 0.85098 1 0.701961 0.85098 
1 0.701961 0.85098 1 0.701961 0.85098 
1 0.701961 0.85098 1 0.701961 0.85098 
1 0.701961 0.85098 1 0.701961 0.85098 
1 0.701961 0.85098 1 0.701961 0.85098 
1 0.701961 0.85098 1 0.701961 0.85098 
1 0.701961 0.85098 1 0.701961 0.85098 
1 0.701961 0.85098 1 0.701961 0.85098 
1 0.701961 0.85098 1 0.701961 0.85098 
1 0.701961 0.85098 1 0.701961 0.85098 
1 0.701961 0.85098 1 0.701961 0.85098 
1 0.701961 0.85098 1 0.701961 0.85098 
1 0.701961 0.85098 1 0.701961 0.85098 
1 0.701961 0.85098 1 0.701961 0.85098 
1 0.701961 0.85098 1 0.701961 0.85098 
1 0.701961 0.85098 1 0.701961 0.85098 
1 0.701961 0.85098 1 0.701961 0.85098 
1 0.701961 0.85098 1 0.701961 0.85098 
1 0.701961 0.85098 1 0.701961 0.85098 
1 0.701961 0.85098 1 0.701961 0.85098 
1 0.701961 0.85098 1 0.701961 0.85098 
1 0.701961 0.85098 1 0.701961 0.85098 
1 0.701961 0.85098 1 0.701961 0.85098 
1 0.701961 0.85098 1 0.701961 0.85098 
1 0.701961 0.85098 1 0.701961 0.85098 
1 0.701961 0.85098 1 0.701961 0.85098 
1 0.701961 0.85098 1 0.701961 0.85098 
1 0.701961 0.85098 1 0.701961 0.85098 
1 0.701961 0.85098 1 0.701961 0.85098 
1 0.701961 0.85098 1 0.701961 0.85098 
1 0.701961 0.85098 1 0.701961 0.85098 
1 0.701961 0.85098 1 0.701961 0.85098 
1 0.701961 0.85098 1 0.701961 0.85098 
1 0.701961 0.85098 1 0.701961 0.85098 
1 0.701961 0.85098 1 0.701961 0.85098 
1 0.701961 0.85098 1 0.701961 0.85098 
1 0.701961 0.85098 1 0.701961 0.85098 
1 0.701961 0.85098 1 0.701961 0.85098 
1 0.701961 0.85098 1 0.701961 0.85098 
1 0.701961 0.85098 1 0.701961 0.85098 
1 0.701961 0.85098 1 0.701961 0.85098 
1 0.701961 0.85098 1 0.701961 0.85098 
1 0.701961 0.85098 1 0.701961 0.85098 
1 0.701961 0.85098 1 0.701961 0.85098 
1 0.701961 0.85098 1 0.701961 0.85098 
1 0.701961 0.85098 1 0.701961 0.85098 
1 0.701961 0.85098 1 0.701961 0.85098 
1 0.701961 0.85098 1 0.701961 0.85098 
1 0.701961 0.85098 1 0.701961 0.85098 
1 0.701961 0.85098 1 0.701961 0.85098 
1 0.701961 0.85098 1 0.701961 0.85098 
1 0.701961 0.85098 1 0.701961 0.85098 
1 0.701961 0.85098 1 0.701961 0.85098 
1 0.701961 0.85098 1 0.701961 0.85098 
1 0.701961 0.85098 1 0.701961 0.85098 
1 0.701961 0.85098 1 0.701961 0.85098 
1 0.701961 0.85098 1 0.701961 0.85098 
1 0.701961 0.85098 1 0.701961 0.85098 
1 0.701961 0.85098 1 0.701961 0.85098 
1 0.701961 0.85098 1 0.701961 0.85098 
1 0.701961 0.85098 1 0.701961 0.85098 
1 0.701961 0.85098 1 0.701961 0.85098 
1 0.701961 0.85098 1 0.701961 0.85098 
1 0.701961 0.85098 1 0.701961 0.85098 
1 0.701961 0.85098 1 0.701961 0.85098 
1 0.701961 0.85098 1 0.701961 0.85098 
1 0.701961 0.85098 1 0.701961 0.85098 
1 0.701961 0.85098 1 0.701961 0.85098 
1 0.701961 0.85098 1 0.701961 0.85098 
1 0.701961 0.85098 1 0.701961 0.85098 
1 0.701961 0.85098 1 0.701961 0.85098 
1 0.701961 0.85098 1 0.701961 0.85098 
1 0.701961 0.85098 1 0.701961 0.85098 
1 0.701961 0.85098 1 0.701961 0.85098 
1 0.701961 0.85098 1 0.701961 0.85098 
1 0.701961 0.85098 1 0.701961 0.85098 
1 0.701961 0.85098 1 0.701961 0.85098 
1 0.701961 0.85098 1 0.701961 0.85098 
1 0.701961 0.85098 1 0.701961 0.85098 
1 0.701961 0.85098 1 0.701961 0.85098 
1 0.701961 0.85098 1 0.701961 0.85098 
1 0.701961 0.85098 1 0.701961 0.85098 
1 0.701961 0.85098 1 0.701961 0.85098 
1 0.701961 0.85098 1 0.701961 0.85098 
1 0.701961 0.85098 1 0.701961 0.85098 
1 0.701961 0.85098 1 0.701961 0.85098 
1 0.701961 0.85098 1 0.701961 0.85098 
1 0.701961 0.85098 1 0.701961 0.85098 
1 0.701961 0.85098 1 0.701961 0.85098 
1 0.701961 0.85098 1 0.701961 0.85098 
1 0.701961 0.85098 1 0.701961 0.85098 
1 0.701961 0.85098 1 0.701961 0.85098 
1 0.701961 0.85098 1 0.701961 0.85098 
1 0.701961 0.85098 1 0.701961 0.85098 
1 0.701961 0.85098 1 0.701961 0.85098 
1 0.701961 0.85098 1 0.701961 0.85098 
1 0.701961 0.85098 1 0.701961 0.85098 
1 0.701961 0.85098 1 0.701961 0.85098 
1 0.701961 0.85098 1 0.701961 0.85098 
1 0.701961 0.85098 1 0.701961 0.85098 
1 0.701961 0.85098 1 0.701961 0.85098 

NORMALS Normals float
0.0128925 -0.326505 -0.945107 0.00908552 -0.0663517 -0.997755 0.0575897 -0.358536 -0.931738 
-0.196835 0.230104 -0.953052 -0.0879041 0.025917 -0.995792 -0.0982718 0.134913 -0.985972 
0.142706 -0.260067 -0.954987 0.291045 -0.393567 -0.872008 -0.30227 0.483613 -0.821432 
-0.00963415 0.100499 -0.994891 0.0475912 -0.00630338 -0.998847 0.190795 0.0587244 -0.979872 
0.323053 -0.178667 -0.929362 0.423904 0.0149431 -0.905584 0.558029 -0.145713 -0.816928 
-0.254606 0.460449 -0.85039 -0.185317 0.531427 -0.826585 -0.117459 0.33908 -0.933396 
0.392537 0.144865 -0.908256 -0.117327 0.495277 -0.860776 0.0268912 0.397288 -0.9173 
0.0904549 0.289406 -0.952923 -0.143744 0.709383 -0.69001 -0.117586 0.590054 -0.798755 
-0.0781468 0.676175 -0.732585 -0.0189488 0.580963 -0.813709 0.503342 0.481395 -0.717569 
0.228892 0.555355 -0.799493 -0.286741 0.289091 -0.913349 -0.286856 0.0905357 -0.953686 
-0.386006 0.322874 -0.864148 -0.117024 0.088065 -0.989217 -0.0741921 -0.386175 -0.919437 
0.00311534 -0.367464 -0.930032 -0.358681 0.569177 -0.739855 -0.0951626 -0.150544 -0.984012 
-0.351536 0.527376 -0.773497 -0.333835 0.233056 -0.913367 -0.199397 0.154827 -0.96761 
0.127286 -0.520848 -0.844106 0.764072 -0.174646 -0.621041 -0.311573 0.743129 -0.592183 
-0.187057 0.614438 -0.766469 -0.30353 0.751188 -0.586162 -0.380668 0.840724 -0.385064 
-0.329525 0.638527 -0.695483 -0.349178 0.769315 -0.535003 -0.150723 0.78167 -0.605206 
-0.145478 0.819808 -0.553851 -0.158365 0.813425 -0.559697 -0.0510864 0.763647 -0.643609 
-0.103453 0.803171 -0.586698 0.128832 0.803053 -0.581814 -0.542605 -0.0616542 -0.837722 
-0.237528 -0.269848 -0.933147 -0.239525 -0.00411265 -0.970881 -0.0348938 -0.275643 -0.960627 
-0.835523 0.302816 -0.458479 0.0413504 -0.203756 -0.978148 -0.60125 0.400099 -0.691679 
-0.103898 -0.0838131 -0.99105 0.0354226 -0.323388 -0.945603 -0.434844 0.482106 -0.760581 
-0.423894 0.273709 -0.863364 0.11178 -0.622333 -0.77473 -0.0106576 -0.478148 -0.878215 
-0.570729 0.676101 -0.466 0.322751 -0.583316 -0.745369 0.52373 -0.505126 -0.68597 
-0.452755 0.847619 -0.276686 -0.374608 0.867502 -0.327275 0.834146 -0.0826245 -0.545319 
-0.267923 0.9317 -0.245261 -0.297217 0.918332 -0.261396 0.810217 0.350556 -0.469744 
-0.189518 0.883269 -0.428858 0.340402 0.769374 -0.540546 0.137673 0.8742 -0.46564 
0.271979 0.906019 -0.324279 -0.32654 -0.394366 -0.85898 -0.0561718 -0.506298 -0.860527 
-0.376196 -0.256501 -0.890328 -0.673947 -0.162595 -0.720665 -0.799303 0.0907777 -0.594031 
0.107534 -0.347209 -0.931602 -0.811162 0.415612 -0.41144 -0.768107 0.566405 -0.298659 
-0.618637 0.746037 -0.246408 -0.564167 0.824474 -0.0442437 -0.574352 0.722456 -0.384937 
-0.347632 0.935013 -0.070019 -0.34163 0.934188 -0.102871 0.767159 0.579957 -0.274073 
-0.0765259 0.916 -0.393813 0.615196 0.762228 -0.201354 0.0257745 0.998904 -0.0390815 
0.444678 0.879242 -0.170864 -0.0374542 -0.663771 -0.746998 -0.414127 -0.580614 -0.700989 
-0.848495 0.394629 -0.352596 0.188151 -0.788872 -0.585048 -0.477036 0.87821 0.0344189 
0.282531 -0.814184 -0.507227 -0.399309 0.916474 0.0250664 -0.227855 0.973695 -0.00024093 
-0.328805 0.939204 0.0989117 -0.198217 0.977531 -0.0717098 0.23617 0.964826 0.115476 
0.141854 -0.793838 -0.591353 -0.860273 -0.21442 -0.462552 0.243351 -0.798513 -0.550597 
-0.73674 0.675538 -0.0293669 0.641802 -0.617146 -0.455215 -0.43749 0.891122 0.120432 
0.924351 -0.217152 -0.313719 -0.329877 0.894849 0.30071 0.952468 0.226798 -0.203392 
0.705691 0.708035 0.0261915 0.26573 -0.875434 -0.403735 -0.992892 0.00838293 -0.118724 
0.119844 -0.937373 -0.327061 -0.950638 0.244198 -0.191456 0.217401 -0.924625 -0.312738 
0.212811 -0.966773 -0.141639 0.619851 -0.773561 -0.131861 -0.543303 0.816765 0.194208 
0.560875 -0.724624 -0.400424 0.857331 -0.447956 -0.253613 -0.391838 0.851481 0.348487 
-0.293628 0.920544 0.257644 0.852406 0.52219 0.0268545 -0.166721 0.910073 0.379434 
0.0649768 -0.891475 -0.448387 -0.416274 -0.720345 -0.554815 -0.82254 -0.514755 -0.241776 
0.18669 -0.968301 -0.165952 0.29301 -0.937165 -0.189385 0.28248 -0.958165 -0.0460943 
0.259236 -0.956571 -0.133299 0.853351 -0.521129 -0.0147276 -0.464446 0.773938 0.430477 
-0.298156 0.886272 0.354437 0.919274 0.390814 0.0468966 -0.0226131 0.953691 0.299938 
0.360722 0.904243 0.228525 -0.341872 -0.859137 -0.380798 0.510506 -0.857772 -0.0600919 
0.454624 -0.885525 0.0957209 0.424364 -0.87551 0.231078 -0.865546 0.484596 0.12648 
0.364532 -0.911736 0.189353 0.202335 -0.96647 0.158104 -0.507199 0.720259 0.473261 
0.33623 -0.902887 0.267853 0.455342 -0.889889 -0.0275883 -0.378586 0.798092 0.468744 
0.993999 -0.085789 0.0678619 0.88976 0.406464 0.207637 0.293603 0.853215 0.431071 
0.253182 -0.947307 -0.196236 0.410049 -0.848302 0.335029 0.460261 -0.835588 0.29992 
0.193981 -0.967482 0.162324 0.300458 -0.85033 0.432046 0.173951 -0.92706 0.332116 
0.202735 -0.940545 0.27253 0.177929 -0.86544 0.468354 0.26776 -0.960751 0.072546 
-0.448884 0.650984 0.612146 0.815921 -0.541282 0.20319 0.915103 -0.305057 0.263678 
0.939316 0.0464714 0.33989 0.825186 0.261337 0.50077 -0.23258 0.830743 0.505739 
0.665317 0.667159 0.335039 -0.119857 -0.966743 -0.225924 -0.219597 -0.975323 -0.0228354 
0.333013 -0.935051 -0.121581 0.45147 -0.892023 0.0216634 -0.675736 -0.720453 -0.155978 
0.684121 -0.720255 0.114941 -0.989102 -0.0684949 -0.13033 -0.950403 0.214835 0.224901 
-0.932617 0.324118 0.158658 0.447112 -0.729562 0.517523 0.520342 -0.703161 0.484571 
0.277826 -0.448097 0.849718 0.42916 -0.640277 0.637077 0.094591 -0.880695 0.464143 
0.225295 -0.828701 0.512345 0.235911 -0.675478 0.698624 0.268258 -0.398379 0.877116 
0.143015 -0.692514 0.707086 -0.00642909 -0.878328 0.478015 -0.383043 0.656146 0.650193 
0.0508042 -0.707943 0.70444 0.108078 -0.399457 0.910359 0.152268 -0.526333 0.836533 
0.039996 -0.662345 0.748131 0.244517 -0.850952 0.464858 0.120424 -0.782864 0.610428 
0.336108 -0.722416 0.604274 0.601536 -0.692877 0.397587 -0.22458 0.606852 0.762427 
-0.319812 0.7529 0.575206 0.252728 -0.648592 0.717953 0.765351 -0.482243 0.426239 
-0.193231 0.595027 0.780131 0.816468 -0.148507 0.557965 -0.484926 -0.870705 -0.0819726 
0.0776066 -0.996251 0.0382281 -0.99484 -0.0995276 0.0196751 0.61006 -0.463585 0.642585 
-0.688436 0.544758 0.478848 0.0382883 -0.0989232 0.994358 0.157673 -0.310901 0.937273 
-0.289655 0.549832 0.783444 -0.149852 0.391535 0.907879 0.0844363 -0.117895 0.98943 
-0.283373 0.51476 0.809149 -0.120542 0.279096 0.952667 -0.0175039 -0.251 0.967829 
-0.219236 0.562453 0.797234 -0.104641 0.329257 0.938424 0.0713506 -0.400204 0.913644 
0.774594 -0.41006 0.481513 0.56679 -0.414952 0.711733 0.818536 -0.150543 0.554379 
0.550128 0.399892 0.733107 0.157313 0.801059 0.577544 -0.422923 -0.882863 0.204179 
-0.118725 -0.967554 0.223032 0.379715 -0.857777 0.346462 0.592464 -0.697626 0.402871 
-0.904948 -0.42049 -0.0652413 0.553015 -0.192888 0.810536 -0.956375 0.131401 0.260922 
0.486406 0.00769178 0.873699 -0.877666 0.318388 0.358234 0.239274 0.19746 0.950662 
-0.0737673 0.536635 0.840584 -0.194688 0.549674 0.812376 0.103962 -0.0188145 0.994403 
-0.0460935 0.163767 0.985422 -0.0550553 -0.177169 0.982639 0.0496008 -0.450448 0.891424 
0.111431 -0.469767 0.875729 0.33407 -0.499113 0.799552 -0.185466 0.181401 0.965762 
-0.0350666 -0.182394 0.9826 0.458048 -0.259627 0.850168 0.618272 -0.0803369 0.781848 
0.469629 0.0698364 0.880097 -0.160538 0.241569 0.957012 -0.018451 0.617341 0.786479 
0.129231 0.371068 0.919569 -0.463278 -0.792998 0.395636 0.242662 -0.854932 0.458483 