# vtk DataFile Version 4.2
vtk output
ASCII
DATASET POLYDATA
POINTS 662 float
442.314 200.987 208.729 442.143 200.567 208.909 441.989 200.886 209.048 
442.963 201.025 208.542 442.545 201.417 208.64 442.983 201.46 208.535 
442.194 200.158 208.986 442.444 200.138 208.857 442.372 199.747 209.081 
442.779 200.062 208.849 441.606 201.246 209.765 443.597 202.61 208.805 
442.277 202.528 209.59 442.757 202.739 209.306 443.388 202.948 209.103 
447.442 203.22 208.964 448.452 203.041 209.014 443.901 203.484 209.393 
444.676 203.593 209.285 448.604 203.788 209.29 442.147 198.071 210.074 
441.905 198.502 210.051 442.452 198.144 209.862 442.715 198.512 209.594 
444.378 200.168 208.835 453.516 203.586 209.694 443.01 203.591 210.142 
448.039 204.143 209.513 451.723 204.559 209.884 453.902 203.973 209.734 
452.453 205.522 210.529 452.647 205.121 210.187 456.596 204.893 209.983 
457.871 205.569 210.266 442.381 197.569 210.271 445.528 199.157 209.412 
441.171 201.421 211.087 441.678 202.972 211.764 454.36 203.145 209.861 
447.757 204.602 209.99 450.063 205.172 210.458 451.905 205.578 210.666 
451.682 205.77 211.008 460.986 206.044 210.584 459.72 206.703 210.838 
464.06 207.001 210.725 463.487 206.299 210.672 465.291 206.674 210.683 
457.588 206.859 211.254 464.708 207.735 210.88 465.73 207.116 210.677 
467.196 207.536 210.684 461.354 207.757 211.471 465.537 208.288 211.012 
468.441 208.16 210.729 466.01 208.826 211.295 471.66 209.127 210.652 
471.802 209.733 210.762 473.39 209.933 210.73 473.501 210.551 210.899 
474.882 210.726 211.023 474.047 211.344 211.226 474.749 211.094 211.141 
475.283 210.985 211.242 442.525 195.471 211.56 442.219 194.826 212.074 
454.667 200.631 210.927 441.176 202.222 212.201 458.854 203.892 210.504 
445.823 204.84 210.81 447.594 204.964 210.562 464.298 205.121 210.919 
442.537 204.075 212.366 451.109 205.772 211.202 461.9 205.474 210.622 
453.322 206.343 211.557 467.058 206.889 210.725 469.917 207.767 210.731 
476.008 208.124 211.52 462.195 208.208 211.779 463.748 208.824 212.092 
464.701 208.615 211.422 471.898 208.68 210.674 476.277 208.529 211.53 
464.608 208.971 211.927 466.823 209.788 212.119 476.81 209.11 211.758 
471.045 210.745 211.479 476.638 210.446 211.826 472.889 211.456 211.615 
474.829 212.055 211.889 475.777 212.271 212.257 441.776 194.462 212.623 
442.566 193.981 212.387 440.767 198.088 212.307 443.847 204.867 212.74 
476.176 206.792 212.052 476.815 207.027 212.253 477.476 207.884 212.444 
461.321 208.392 212.502 469.688 211.09 212.854 477.146 211.901 212.654 
476.392 212.694 212.955 476.266 212.907 213.281 441.483 188.598 214.41 
441.493 188.675 214.443 441.541 188.806 214.476 441.47 188.535 214.389 
441.475 188.575 214.409 441.47 188.534 214.393 441.531 188.707 214.457 
441.482 188.562 214.404 442.035 192.581 213.423 441.734 203.655 214.662 
453.119 206.746 212.952 477.41 207.11 212.607 460.56 208.544 213.567 
475.902 213.005 213.462 477.124 212.546 213.276 477.552 212.29 213.504 
476.944 213.028 214.016 441.523 188.699 214.471 441.594 188.989 214.627 
441.624 188.989 214.542 441.681 189.276 214.596 441.72 189.162 214.662 
442.019 191.285 214.232 441.223 193.526 214.021 440.692 201.56 214.616 
478.21 202.673 214.178 478.836 202.905 214.4 441.272 203.052 215.199 
479.514 203.756 214.65 478.457 205.058 213.714 442.902 204.635 214.841 
478.835 210.586 214.171 474.27 213.084 214.472 477.345 212.988 214.472 
441.632 189.422 214.717 441.749 189.41 214.886 442.04 189.855 214.709 
441.787 190.023 214.68 442.117 189.804 215.11 442.68 190.281 215.062 
442.086 190.648 214.485 441.743 190.984 214.609 442.68 190.755 214.546 
443.461 190.838 214.961 457.287 195.45 214.778 440.394 197.126 214.946 
473.282 199.19 214.478 479.273 199.827 215.589 480.37 200.284 216.007 
479.424 202.963 214.774 442.2 204.201 216.134 443.57 204.998 215.537 
441.692 189.605 214.926 441.883 189.982 215.307 441.693 190.228 215.014 
443.017 190.466 216.132 441.328 191.979 215.267 455.371 193.951 215.9 
474.101 196.994 216.011 476.36 197.531 216.204 476.026 198.253 215.461 
478.195 198.275 216.191 478.598 198.603 216.051 481.111 200.236 216.919 
481.036 201.96 216.374 440.927 202.39 216.774 481.421 204.208 217.086 
445.163 205.509 216.156 480.885 206.68 216.358 457.83 208.231 216.5 
441.754 190.732 215.705 442.257 190.473 216.214 442.545 190.655 216.577 
442.901 190.858 217.081 448.278 192.052 216.275 453.581 193.082 216.784 
440.892 193.69 216.274 455.147 193.223 217.096 462.759 194.279 217.43 
463.57 194.754 216.735 470.246 195.669 217.015 469.628 195.476 217.217 
470.99 195.789 217.388 474.657 196.563 217.065 476.058 197.178 216.642 
477.026 197.439 216.888 479.755 198.421 217.177 480.222 198.785 217.367 
480.653 199.331 217.428 481.096 199.965 217.315 481.325 200.209 217.163 
481.376 200.381 217.138 481.42 200.299 217.206 481.352 200.82 217.195 
481.406 200.422 217.275 481.463 201.73 217.399 481.669 203.351 217.904 
479.743 211.187 216.835 442.189 191.066 216.852 442.553 190.965 217.1 
442.382 191.258 217.33 444.214 191.271 217.837 455.254 193.119 217.507 
455.307 193.087 217.87 455.727 193.187 218.083 462.539 194.204 217.751 
468.083 195.326 218.229 477.935 197.777 217.798 479.297 198.232 217.595 
479.595 198.473 217.853 480.078 198.721 217.72 480.406 198.991 217.645 
480.308 199.002 217.903 481.354 200.25 217.3 481.267 200.437 217.595 
481.542 202.013 218.052 441.034 202.435 218.661 479.01 212.858 217.91 
441.307 193.256 217.551 452.378 192.807 218.454 457.764 193.66 218.663 
461.516 194.149 218.426 461.703 194.319 218.921 470.857 195.968 218.377 
471.542 196.356 218.791 479.736 199.24 218.832 480.362 199.348 218.226 
481.5 202.231 218.744 458.622 194.2 219.598 460.256 194.756 220.027 
464.897 195.318 219.497 440.671 198.414 219.537 474.71 197.902 219.634 
481.557 203.265 220.046 441.814 203.266 220.926 481.855 206.37 220.512 
481.745 208.087 220.751 444.996 193.733 220.956 457.015 194.869 220.871 
441.006 201.082 220.935 441.502 202.565 221.53 481.698 205.23 220.821 
443.375 194.307 221.105 443.865 194.841 221.661 465.078 197.789 221.96 
441.12 200.39 221.54 481.018 203.444 221.061 480.769 203.56 221.483 
481.076 203.914 221.336 481.662 206.263 221.79 481.74 207.006 222.048 
481.714 209.164 222.494 479.917 213.038 221.431 478.705 214.213 221.396 
443.135 196.742 222.643 441.341 199.023 221.789 441.781 202.598 223.146 
478.662 203.477 223.022 481.276 205.707 222.419 451.985 206.338 222.987 
481.625 207.188 222.831 481.706 207.856 223.061 480.929 211.679 222.567 
442.04 198.173 222.485 443.024 198.237 223.319 441.736 199.911 222.79 
472.666 202.874 224.32 442.096 202.964 223.988 442.682 203.537 223.71 
447.637 204.939 223.766 479.043 204.387 223.67 477.053 214.816 223.613 
477.558 214.856 223.92 443.507 198.743 223.804 449.109 199.946 225.349 
463.987 200.722 224.812 443.505 201.211 224.781 442.199 202.93 224.338 
480.865 212.137 225.244 477.904 214.825 224.096 450.777 200.484 225.998 
442.451 202.228 224.484 452.022 200.623 226.369 461.47 201.256 226.672 
463.468 201.703 226.439 465.135 202.161 226.238 442.33 202.933 224.54 
442.326 203.081 224.473 442.461 203.055 224.6 447.38 203.902 225.405 
448.547 204.495 225.607 450.408 205.318 225.869 470.911 204.056 226.461 
480.102 206.645 225.808 478.059 214.741 224.474 447.823 201.928 226.061 
448.796 201.865 226.475 449.832 201.476 226.702 446.053 202.641 225.5 
448.127 202.522 226.351 448.77 202.496 226.823 449.423 202.105 227.189 
454.108 200.857 227.348 460.562 201.212 227.218 462.599 201.641 227.039 
464.385 202.151 226.796 447.729 203.188 226.076 448.508 203.075 226.731 
465.403 202.665 227.638 448.549 203.853 226.502 473.176 204.781 226.919 
478.932 206.246 226.577 480.628 207.339 226.621 478.327 214.428 226.46 
448.982 202.84 227.329 449.28 202.473 228 449.942 201.89 227.72 
451.689 201.201 227.804 457.801 200.915 227.96 461.153 201.346 227.9 
448.875 203.462 227.249 449.022 203.339 227.961 449.295 204.138 227.699 
471.42 204.516 228.041 479.155 206.482 227.797 481.379 211.08 228.118 
480.239 213.052 228.099 477.59 214.461 227.645 449.939 201.701 228.372 
452.577 200.691 228.725 454.599 200.556 228.735 457.481 200.657 228.806 
444.883 202.446 230.18 445.265 202.339 230.052 446.497 202.711 229.779 
446.788 202.13 229.652 448.972 202.238 228.691 448.534 201.854 229.106 
445.491 203.121 230.238 447.841 203.182 229.403 448.666 203.087 228.758 
466.051 202.556 228.89 445.837 203.604 230.522 448.361 203.808 229.443 
449.022 203.947 228.741 449.762 204.703 228.875 450.538 205.153 228.874 
450.313 205.146 229.459 468.041 203.279 228.537 469.856 203.86 228.619 
472.759 204.666 228.773 478.278 206.069 228.434 480.415 207.087 228.555 
481.234 208.005 228.852 480.956 212.068 228.786 479.675 213.615 228.745 
448.141 200.672 229.727 457.592 200.024 229.749 459.131 200.516 229.387 
444.094 201.35 230.5 445.38 201.769 230.045 447.105 201.479 229.669 
442.591 202.297 231.544 443.141 202.351 231.149 443.244 201.773 230.942 
465.568 201.979 229.584 442.543 202.64 231.818 442.314 202.704 232.29 
443.665 202.921 231.141 466.865 202.644 229.205 475.561 205.093 229.081 
479.866 206.479 229.193 481.624 208.583 230.16 481.623 210.245 229.833 
476.482 214.651 230.591 477.998 214.706 230.573 442.021 199.099 232.196 
443.351 198.522 231.542 449.814 199.618 230.109 442.796 200.486 231.248 
441.881 202.158 232.653 479.306 205.17 230.768 481.019 206.995 230.165 
481.256 206.771 231.049 477.474 214.841 231.621 478.188 214.681 231.107 
478.647 214.408 231.49 442.332 197.943 232.339 441.621 202.179 233.431 
442.424 203.338 233.32 446.029 204.574 232.014 481.107 204.885 232.641 
480.516 212.436 232.03 477.862 214.797 232.004 442.332 194.705 234.133 
442.058 195.299 233.994 443.256 195.31 233.308 442.375 196.004 233.311 
444.516 195.28 233.096 449.064 196.652 232.154 452.808 196.11 232.823 
480.098 202.997 233.339 442.875 203.855 233.734 479.54 213.539 232.989 
442.562 193.451 234.837 441.555 195.253 234.616 440.895 200.678 234.685 
[...]
POINT_DATA 662
COLOR_SCALARS scalars 3
1 0.701961 0.85098 1 0.701961 0.85098 1 0.701961 0.85098 
1 0.701961 0.85098 1 0.701961 0.85098 
1 0.701961 0.85098 1 0.701961 0.85098 
1 0.701961 0.85098 1 0.701961 0.85098 
1 0.701961 0.85098 1 0.701961 0.85098 
1 0.701961 0.85098 1 0.701961 0.85098 
1 0.701961 0.85098 1 0.701961 0.85098 
1 0.701961 0.85098 1 0.701961 0.85098 
1 0.701961 0.85098 1 0.701961 0.85098 
1 0.701961 0.85098 1 0.701961 0.85098 
1 0.701961 0.85098 1 0.701961 0.85098 
1 0.701961 0.85098 1 0.701961 0.85098 
1 0.701961 0.85098 1 0.701961 0.85098 
1 0.701961 0.85098 1 0.701961 0.85098 
1 0.701961 0.85098 1 0.701961 0.85098 
1 0.701961 0.85098 1 0.701961 0.85098 
1 0.701961 0.85098 1 0.701961 0.85098 
1 0.701961 0.85098 1 0.701961 0.85098 
1 0.701961 0.85098 1 0.701961 0.85098 
1 0.701961 0.85098 1 0.701961 0.85098 
1 0.701961 0.85098 1 0.701961 0.85098 
1 0.701961 0.85098 1 0.701961 0.85098 
1 0.701961 0.85098 1 0.701961 0.85098 
1 0.701961 0.85098 1 0.701961 0.85098 
1 0.701961 0.85098 1 0.701961 0.85098 
1 0.701961 0.85098 1 0.701961 0.85098 
1 0.701961 0.85098 1 0.701961 0.85098 
1 0.701961 0.85098 1 0.701961 0.85098 
1 0.701961 0.85098 1 0.701961 0.85098 
1 0.701961 0.85098 1 0.701961 0.85098 
1 0.701961 0.85098 1 0.701961 0.85098 
1 0.701961 0.85098 1 0.701961 0.85098 
1 0.701961 0.85098 1 0.701961 0.85098 
1 0.701961 0.85098 1 0.701961 0.85098 
1 0.701961 0.85098 1 0.701961 0.85098 
1 0.701961 0.85098 1 0.701961 0.85098 
1 0.701961 0.85098 1 0.701961 0.85098 
1 0.701961 0.85098 1 0.701961 0.85098 
1 0.701961 0.85098 1 0.701961 0.85098 
1 0.701961 0.85098 1 0.701961 0.85098 
1 0.701961 0.85098 1 0.701961 0.85098 
1 0.701961 0.85098 1 0.701961 0.85098 
1 0.701961 0.85098 1 0.701961 0.85098 
1 0.701961 0.85098 1 0.701961 0.85098 
1 0.701961 0.85098 1 0.701961 0.85098 
1 0.701961 0.85098 1 0.701961 0.85098 
1 0.701961 0.85098 1 0.701961 0.85098 
1 0.701961 0.85098 1 0.701961 0.85098 
1 0.701961 0.85098 1 0.701961 0.85098 
1 0.701961 0.85098 1 0.701961 0.85098 
1 0.701961 0.85098 1 0.701961 0.85098 
1 0.701961 0.85098 1 0.701961 0.85098 
1 0.701961 0.85098 1 0.701961 0.85098 
1 0.701961 0.85098 1 0.701961 0.85098 
1 0.701961 0.85098 1 0.701961 0.85098 
1 0.701961 0.85098 1 0.701961 0.85098 
1 0.701961 0.85098 1 0.701961 0.85098 
1 0.701961 0.85098 1 0.701961 0.85098 
1 0.701961 0.85098 1 0.701961 0.85098 
1 0.701961 0.85098 1 0.701961 0.85098 
1 0.701961 0.85098 1 0.701961 0.85098 
1 0.701961 0.85098 1 0.701961 0.85098 
1 0.701961 0.85098 1 0.701961 0.85098 
1 0.701961 0.85098 1 0.701961 0.85098 
1 0.701961 0.85098 1 0.701961 0.85098 
1 0.701961 0.85098 1 0.701961 0.85098 
1 0.701961 0.85098 1 0.701961 0.85098 
1 0.701961 0.85098 1 0.701961 0.85098 
1 0.701961 0.85098 1 0.701961 0.85098 
1 0.701961 0.85098 1 0.701961 0.85098 
1 0.701961 0.85098 1 0.701961 0.85098 
1 0.701961 0.85098 1 0.701961 0.85098 
1 0.701961 0.85098 1 0.701961 0.85098 
1 0.701961 0.85098 1 0.701961 0.85098 
1 0.701961 0.85098 1 0.701961 0.85098 
1 0.701961 0.85098 1 0.701961 0.85098 
1 0.701961 0.85098 1 0.701961 0.85098 
1 0.701961 0.85098 1 0.701961 0.85098 
1 0.701961 0.85098 1 0.701961 0.85098 
1 0.701961 0.85098 1 0.701961 0.85098 
1 0.701961 0.85098 1 0.701961 0.85098 
1 0.701961 0.85098 1 0.701961 0.85098 
1 0.701961 0.85098 1 0.701961 0.85098 
1 0.701961 0.85098 1 0.701961 0.85098 
1 0.701961 0.85098 1 0.701961 0.85098 
1 0.701961 0.85098 1 0.701961 0.85098 
1 0.701961 0.85098 1 0.701961 0.85098 
1 0.701961 0.85098 1 0.701961 0.85098 
1 0.701961 0.85098 1 0.701961 0.85098 
1 0.701961 0.85098 1 0.701961 0.85098 
1 0.701961 0.85098 1 0.701961 0.85098 
1 0.701961 0.85098 1 0.701961 0.85098 
1 0.701961 0.85098 1 0.701961 0.85098 
1 0.701961 0.85098 1 0.701961 0.85098 
1 0.701961 0.85098 1 0.701961 0.85098 
1 0.701961 0.85098 1 0.701961 0.85098 
1 0.701961 0.85098 1 0.701961 0.85098 
1 0.701961 0.85098 1 0.701961 0.85098 
1 0.701961 0.85098 1 0.701961 0.85098 
1 0.701961 0.85098 1 0.701961 0.85098 
1 0.701961 0.85098 1 0.701961 0.85098 
1 0.701961 0.85098 1 0.701961 0.85098 
1 0.701961 0.85098 1 0.701961 0.85098 
1 0.701961 0.85098 1 0.701961 0.85098 
1 0.701961 0.85098 1 0.701961 0.85098 
1 0.701961 0.85098 1 0.701961 0.85098 
1 0.701961 0.85098 1 0.701961 0.85098 
1 0.701961 0.85098 1 0.701961 0.85098 
1 0.701961 0.85098 1 0.701961 0.85098 
1 0.701961 0.85098 1 0.701961 0.85098 
1 0.701961 0.85098 1 0.701961 0.85098 
1 0.701961 0.85098 1 0.701961 0.85098 
1 0.701961 0.85098 1 0.701961 0.85098 
1 0.701961 0.85098 1 0.701961 0.85098 
1 0.701961 0.85098 1 0.701961 0.85098 
1 0.701961 0.85098 1 0.701961 0.85098 
1 0.701961 0.85098 1 0.701961 0.85098 
1 0.701961 0.85098 1 0.701961 0.85098 
1 0.701961 0.85098 1 0.701961 0.85098 
1 0.701961 0.85098 1 0.701961 0.85098 
1 0.701961 0.85098 1 0.701961 0.85098 
1 0.701961 0.85098 1 0.701961 0.85098 
1 0.701961 0.85098 1 0.701961 0.85098 
1 0.701961 0.85098 1 0.701961 0.85098 
1 0.701961 0.85098 1 0.701961 0.85098 
1 0.701961 0.85098 1 0.701961 0.85098 
1 0.701961 0.85098 1 0.701961 0.85098 
1 0.701961 0.85098 1 0.701961 0.85098 
1 0.701961 0.85098 1 0.701961 0.85098 
1 0.701961 0.85098 1 0.701961 0.85098 
1 0.701961 0.85098 1 0.701961 0.85098 
1 0.701961 0.85098 1 0.701961 0.85098 
1 0.701961 0.85098 1 0.701961 0.85098 
1 0.701961 0.85098 1 0.701961 0.85098 
1 0.701961 0.85098 1 0.701961 0.85098 
1 0.701961 0.85098 1 0.701961 0.85098 
1 0.701961 0.85098 1 0.701961 0.85098 
1 0.701961 0.85098 1 0.701961 0.85098 
1 0.701961 0.85098 1 0.701961 0.85098 
1 0.701961 0.85098 1 0.701961 0.85098 
1 0.701961 0.85098 1 0.701961 0.85098 
1 0.701961 0.85098 1 0.701961 0.85098 
1 0.701961 0.85098 1 0.701961 0.85098 
1 0.701961 0.85098 1 0.701961 0.85098 
1 0.701961 0.85098 1 0.701961 0.85098 
1 0.701961 0.85098 1 0.701961 0.85098 
1 0.701961 0.85098 1 0.701961 0.85098 
1 0.701961 0.85098 1 0.701961 0.85098 
1 0.701961 0.85098 1 0.701961 0.85098 
1 0.701961 0.85098 1 0.701961 0.85098 
1 0.701961 0.85098 1 0.701961 0.85098 
1 0.701961 0.85098 1 0.701961 0.85098 
1 0.701961 0.85098 1 0.701961 0.85098 
1 0.701961 0.85098 1 0.701961 0.85098 
1 0.701961 0.85098 1 0.701961 0.85098 
1 0.701961 0.85098 1 0.701961 0.85098 
1 0.701961 0.85098 1 0.701961 0.85098 
1 0.701961 0.85098 1 0.701961 0.85098 
1 0.701961 0.85098 1 0.701961 0.85098 
1 0.701961 0.85098 1 0.701961 0.85098 
1 0.701961 0.85098 1 0.701961 0.85098 
1 0.701961 0.85098 1 0.701961 0.85098 
1 0.701961 0.85098 1 0.701961 0.85098 
1 0.701961 0.85098 1 0.701961 0.85098 
1 0.701961 0.85098 1 0.701961 0.85098 
1 0.701961 0.85098 1 0.701961 0.85098 
1 0.701961 0.85098 1 0.701961 0.85098 
1 0.701961 0.85098 1 0.701961 0.85098 
1 0.701961 0.85098 1 0.701961 0.85098 
1 0.701961 0.85098 1 0.701961 0.85098 
1 0.701961 0.85098 1 0.701961 0.85098 
1 0.701961 0.85098 1 0.701961 0.85098 
1 0.701961 0.85098 1 0.701961 0.85098 
1 0.701961 0.85098 1 0.701961 0.85098 
1 0.701961 0.85098 1 0.701961 0.85098 
1 0.701961 0.85098 1 0.701961 0.85098 
1 0.701961 0.85098 1 0.701961 0.85098 
1 0.701961 0.85098 1 0.701961 0.85098 
1 0.701961 0.85098 1 0.701961 0.85098 
1 0.701961 0.85098 1 0.701961 0.85098 
1 0.701961 0.85098 1 0.701961 0.85098 
1 0.701961 0.85098 1 0.701961 0.85098 
1 0.701961 0.85098 1 0.701961 0.85098 
1 0.701961 0.85098 1 0.701961 0.85098 
1 0.701961 0.85098 1 0.701961 0.85098 
1 0.701961 0.85098 1 0.701961 0.85098 
1 0.701961 0.85098 1 0.701961 0.85098 
1 0.701961 0.85098 1 0.701961 0.85098 
1 0.701961 0.85098 1 0.701961 0.85098 
1 0.701961 0.85098 1 0.701961 0.85098 
1 0.701961 0.85098 1 0.701961 0.85098 
1 0.701961 0.85098 1 0.701961 0.85098 
1 0.701961 0.85098 1 0.701961 0.85098 
1 0.701961 0.85098 1 0.701961 0.85098 
1 0.701961 0.85098 1 0.701961 0.85098 
1 0.701961 0.85098 1 0.701961 0.85098 
1 0.701961 0.85098 1 0.701961 0.85098 
1 0.701961 0.85098 1 0.701961 0.85098 
1 0.701961 0.85098 1 0.701961 0.85098 
1 0.701961 0.85098 1 0.701961 0.85098 
1 0.701961 0.85098 1 0.701961 0.85098 
1 0.701961 0.85098 1 0.701961 0.85098 
1 0.701961 0.85098 1 0.701961 0.85098 
1 0.701961 0.85098 1 0.701961 0.85098 
1 0.701961 0.85098 1 0.701961 0.85098 
1 0.701961 0.85098 1 0.701961 0.85098 
1 0.701961 0.85098 1 0.701961 0.85098 
1 0.701961 0.85098 1 0.701961 0.85098 
1 0.701961 0.85098 1 0.701961 0.85098 
1 0.701961 0.85098 1 0.701961 0.85098 
1 0.701961 0.85098 1 0.701961 0.85098 
1 0.701961 0.85098 1 0.701961 0.85098 
1 0.701961 0.85098 1 0.701961 0.85098 
1 0.701961 0.85098 1 0.701961 0.85098 
1 0.701961 0.85098 1 0.701961 0.85098 
1 0.701961 0.85098 1 0.701961 0.85098 
1 0.701961 0.85098 1 0.701961 0.85098 
1 0.701961 0.85098 1 0.701961 0.85098 
1 0.701961 0.85098 1 0.701961 0.85098 
1 0.701961 0.85098 1 0.701961 0.85098 
1 0.701961 0.85098 1 0.701961 0.85098 
1 0.701961 0.85098 1 0.701961 0.85098 
1 0.701961 0.85098 1 0.701961 0.85098 
1 0.701961 0.85098 1 0.701961 0.85098 
1 0.701961 0.85098 1 0.701961 0.85098 
1 0.701961 0.85098 1 0.701961 0.85098 
1 0.701961 0.85098 1 0.701961 0.85098 
1 0.701961 0.85098 1 0.701961 0.85098 
1 0.701961 0.85098 1 0.701961 0.85098 
1 0.701961 0.85098 1 0.701961 0.85098 
1 0.701961 0.85098 1 0.701961 0.85098 
1 0.701961 0.85098 1 0.701961 0.85098 
1 0.701961 0.85098 1 0.701961 0.85098 
1 0.701961 0.85098 1 0.701961 0.85098 
1 0.701961 0.85098 1 0.701961 0.85098 
1 0.701961 0.85098 1 0.701961 0.85098 
1 0.701961 0.85098 1 0.701961 0.85098 
1 0.701961 0.85098 1 0.701961 0.85098 
1 0.701961 0.85098 1 0.701961 0.85098 
1 0.701961 0.85098 1 0.701961 0.85098 
1 0.701961 0.85098 1 0.701961 0.85098 
1 0.701961 0.85098 1 0.701961 0.85098 
1 0.701961 0.85098 1 0.701961 0.85098 
1 0.701961 0.85098 1 0.701961 0.85098 
1 0.701961 0.85098 1 0.701961 0.85098 
1 0.701961 0.85098 1 0.701961 0.85098 
1 0.701961 0.85098 1 0.701961 0.85098 
1 0.701961 0.85098 1 0.701961 0.85098 
1 0.701961 0.85098 1 0.701961 0.85098 
1 0.701961 0.85098 1 0.701961 0.85098 
1 0.701961 0.85098 1 0.701961 0.85098 
1 0.701961 0.85098 1 0.701961 0.85098 
1 0.701961 0.85098 1 0.701961 0.85098 
1 0.701961 0.85098 1 0.701961 0.85098 
1 0.701961 0.85098 1 0.701961 0.85098 
1 0.701961 0.85098 1 0.701961 0.85098 
1 0.701961 0.85098 1 0.701961 0.85098 
1 0.701961 0.85098 1 0.701961 0.85098 
1 0.701961 0.85098 1 0.701961 0.85098 
1 0.701961 0.85098 1 0.701961 0.85098 
1 0.701961 0.85098 1 0.701961 0.85098 
1 0.701961 0.85098 1 0.701961 0.85098 
1 0.701961 0.85098 1 0.701961 0.85098 
1 0.701961 0.85098 1 0.701961 0.85098 
1 0.701961 0.85098 1 0.701961 0.85098 
1 0.701961 0.85098 1 0.701961 0.85098 
1 0.701961 0.85098 1 0.701961 0.85098 
1 0.701961 0.85098 1 0.701961 0.85098 
1 0.701961 0.85098 1 0.701961 0.85098 
1 0.701961 0.85098 1 0.701961 0.85098 
1 0.701961 0.85098 1 0.701961 0.85098 
1 0.701961 0.85098 1 0.701961 0.85098 
1 0.701961 0.85098 1 0.701961 0.85098 
1 0.701961 0.85098 1 0.701961 0.85098 
1 0.701961 0.85098 1 0.701961 0.85098 
1 0.701961 0.85098 1 0.701961 0.85098 
1 0.701961 0.85098 1 0.701961 0.85098 
1 0.701961 0.85098 1 0.701961 0.85098 
1 0.701961 0.85098 1 0.701961 0.85098 
1 0.701961 0.85098 1 0.701961 0.85098 
1 0.701961 0.85098 1 0.701961 0.85098 
1 0.701961 0.85098 1 0.701961 0.85098 
1 0.701961 0.85098 1 0.701961 0.85098 
1 0.701961 0.85098 1 0.701961 0.85098 
1 0.701961 0.85098 1 0.701961 0.85098 
1 0.701961 0.85098 1 0.701961 0.85098 
1 0.701961 0.85098 1 0.701961 0.85098 
1 0.701961 0.85098 1 0.701961 0.85098 
1 0.701961 0.85098 1 0.701961 0.85098 
1 0.701961 0.85098 1 0.701961 0.85098 
1 0.701961 0.85098 1 0.701961 0.85098 
1 0.701961 0.85098 1 0.701961 0.85098 
1 0.701961 0.85098 1 0.701961 0.85098 
1 0.701961 0.85098 1 0.701961 0.85098 
1 0.701961 0.85098 1 0.701961 0.85098 
1 0.701961 0.85098 1 0.701961 0.85098 
1 0.701961 0.85098 1 0.701961 0.85098 
1 0.701961 0.85098 1 0.701961 0.85098 
1 0.701961 0.85098 1 0.701961 0.85098 
1 0.701961 0.85098 1 0.701961 0.85098 
1 0.701961 0.85098 1 0.701961 0.85098 
1 0.701961 0.85098 1 0.701961 0.85098 
1 0.701961 0.85098 1 0.701961 0.85098 
1 0.701961 0.85098 1 0.701961 0.85098 
1 0.701961 0.85098 1 0.701961 0.85098 
1 0.701961 0.85098 1 0.701961 0.85098 
1 0.701961 0.85098 1 0.701961 0.85098 
1 0.701961 0.85098 1 0.701961 0.85098 
1 0.701961 0.85098 1 0.701961 0.85098 
1 0.701961 0.85098 1 0.701961 0.85098 
1 0.701961 0.85098 1 0.701961 0.85098 
1 0.701961 0.85098 1 0.701961 0.85098 
1 0.701961 0.85098 1 0.701961 0.85098 
1 0.701961 0.85098 1 0.701961 0.85098 
1 0.701961 0.85098 1 0.701961 0.85098 
1 0.701961 0.85098 1 0.701961 0.85098 
1 0.701961 0.85098 1 0.701961 0.85098 
1 0.701961 0.85098 1 0.701961 0.85098 
1 0.701961 0.85098 1 0.701961 0.85098 
1 0.701961 0.85098 1 0.701961 0.85098 
1 0.701961 0.85098 1 0.701961 0.85098 
1 0.701961 0.85098 1 0.701961 0.85098 
1 0.701961 0.85098 1 0.701961 0.85098 
1 0.701961 0.85098 1 0.701961 0.85098 
1 0.701961 0.85098 1 0.701961 0.85098 
1 0.701961 0.85098 1 0.701961 0.85098 
1 0.701961 0.85098 1 0.701961 0.85098 
1 0.701961 0.85098 1 0.701961 0.85098 
1 0.701961 0.85098 1 0.701961 0.85098 
1 0.701961 0.85098 1 0.701961 0.85098 
1 0.701961 0.85098 
NORMALS Normals float
-0.511983 -0.0306976 -0.858447 -0.454093 -0.1535 -0.877632 -0.843424 -0.00512407 -0.537225 
-0.142322 -0.157584 -0.977196 -0.472722 0.242884 -0.847078 -0.00445283 0.102518 -0.994721 
-0.711804 -0.299188 -0.63547 -0.273035 -0.250913 -0.928706 -0.265985 -0.484324 -0.833476 
-0.0751562 -0.318 -0.945107 -0.901903 0.182819 -0.391342 -0.202978 0.360514 -0.910401 
-0.685037 0.417527 -0.596988 -0.594965 0.5661 -0.570567 -0.355674 0.62073 -0.698706 
-0.0177059 0.371332 -0.928331 0.0574263 0.204614 -0.977157 -0.21393 0.801977 -0.557734 
-0.16342 0.745986 -0.6456 0.0441406 0.558075 -0.828616 -0.590183 -0.398873 -0.701843 
-0.740547 -0.339276 -0.580071 -0.329357 -0.448889 -0.830676 -0.267881 -0.451782 -0.85096 
0.0997752 -0.224821 -0.969278 0.109991 -0.0520807 -0.992567 -0.454434 0.770293 -0.447369 
0.170559 0.654072 -0.736953 -0.0936351 0.542666 -0.834714 0.0556979 0.151456 -0.986893 
-0.0210447 0.756207 -0.653994 -0.0322954 0.568798 -0.821843 0.124272 0.0119079 -0.992177 
0.0388303 0.321471 -0.946123 -0.324414 -0.558061 -0.763756 0.14791 -0.51303 -0.845531 
-0.942333 -0.0175115 -0.33422 -0.781213 0.56709 -0.260988 0.14638 -0.22354 -0.963641 
0.036939 0.772386 -0.634079 -0.171351 0.880022 -0.442944 -0.201153 0.686463 -0.698789 
-0.207397 0.818766 -0.535359 -0.192155 -0.194183 -0.961961 -0.130886 0.323313 -0.937197 
-0.737446 0.57573 0.353141 0.0600558 0.0605606 -0.996356 0.0162999 0.032634 -0.999334 
-0.154557 0.824611 -0.544178 -0.737446 0.57573 0.353141 0.0518646 0.00923564 -0.998611 
0.0718919 -0.0565601 -0.995807 -0.222046 0.755112 -0.616847 -0.177799 0.455291 -0.872409 
-0.0523528 0.0579007 -0.996949 -0.366158 0.750916 -0.549594 0.0221353 0.0950192 -0.995229 
-0.069194 0.282274 -0.956835 0.102573 0.109194 -0.988714 -0.0548331 0.390334 -0.919039 
0.22821 0.176177 -0.957539 0.0489049 0.5356 -0.843054 0.177177 0.552881 -0.814206 
0.327536 0.488715 -0.808627 -0.1867 -0.54048 -0.82038 -0.272525 -0.502706 -0.820376 
0.18465 -0.417763 -0.889594 -0.917778 0.378662 -0.119576 0.200346 -0.268416 -0.942239 
-0.200551 0.912642 -0.356179 0.15673 0.870644 -0.466278 0.100227 -0.270756 -0.957416 
-0.539548 0.806826 -0.240665 -0.281153 0.871217 -0.402409 0.0502074 -0.29838 -0.953126 
-0.0839871 0.854375 -0.512825 0.0878863 -0.0699407 -0.993672 -0.0407743 -0.125528 -0.991252 
0.25008 -0.145349 -0.957253 -0.115378 0.862213 -0.49323 -0.192517 0.887669 -0.418307 
-0.438367 0.596016 -0.672755 0.124379 -0.158923 -0.979425 0.286869 -0.0492164 -0.956705 
-0.335983 0.794402 -0.506005 -0.35938 0.78351 -0.50691 0.614313 0.0368488 -0.788201 
-0.20463 0.61185 -0.764046 0.370704 0.14441 -0.917455 -0.231889 0.789964 -0.567613 
0.077547 0.721672 -0.687878 -0.00841644 0.839713 -0.542966 -0.664911 -0.364053 -0.652196 
-0.248477 -0.494115 -0.833132 -0.912101 -0.166924 -0.374444 -0.40442 0.899502 -0.165348 
0.337359 -0.344942 -0.875901 0.447782 -0.334314 -0.829292 0.612322 -0.124512 -0.780742 
-0.194911 0.91679 -0.348577 -0.284083 0.878399 -0.384334 0.576195 0.374177 -0.72663 
0.222471 0.779148 -0.586033 0.194073 0.880232 -0.433044 -0.325877 0.347311 -0.879306 
-0.794125 0.316084 -0.519092 0.237546 0.20033 -0.950494 0.222216 0.0567442 -0.973345 
-0.907643 -0.0747164 0.413039 0.139545 -0.586393 0.797916 0.846411 -0.121968 -0.518374 
0.91509 -0.385247 0.119139 -0.639785 -0.377981 -0.669183 -0.746692 0.660852 -0.0756681 
-0.231622 0.951232 -0.203739 0.641386 -0.279241 -0.714597 -0.202339 0.946061 -0.253036 
-0.0340609 0.954056 -0.297687 0.47775 0.730816 -0.487507 0.687364 0.59581 -0.415381 
0.321214 0.907027 -0.272257 0.535368 -0.509951 0.673299 0.134145 -0.511124 0.848974 
0.636773 -0.0431869 -0.769841 -0.122857 0.210582 -0.969826 0.823317 -0.523297 0.219793 
-0.0474125 -0.439561 -0.89696 -0.887819 -0.290845 -0.356632 -0.954401 0.28341 -0.0937965 
0.352378 -0.286689 -0.890864 0.466027 -0.286535 -0.837088 -0.813452 0.581087 -0.0251611 
0.626094 -0.0866458 -0.774918 0.526063 -0.143583 -0.838237 -0.515542 0.85365 -0.074142 
0.822997 0.256513 -0.50683 -0.224815 0.923108 -0.311978 0.446956 0.866247 -0.223262 
-0.949867 0.185081 -0.251989 -0.0176771 -0.58022 0.814268 0.518342 -0.371419 -0.770305 
-0.598956 0.0117249 -0.800696 0.508226 -0.801741 0.314513 0.600722 -0.740024 -0.302486 
-0.164693 -0.281689 -0.945266 -0.850288 -0.212291 -0.481605 0.391416 -0.387382 -0.834703 
0.355912 -0.751882 -0.554977 0.156401 -0.560391 -0.813327 -0.999946 0.0103323 -0.00100823 
0.147566 -0.375573 -0.914969 0.319545 -0.425929 -0.846449 0.651555 -0.295486 -0.698687 
0.6108 -0.239051 -0.754836 -0.60658 0.790753 0.0822821 -0.368441 0.929639 -0.00482749 
-0.822776 -0.140795 0.550651 -0.509473 -0.572267 0.642611 -0.994874 -0.0359335 0.0945177 
0.21659 -0.940163 0.263024 -0.9148 -0.304888 -0.264924 0.0583453 -0.760694 -0.646483 
0.182341 -0.783935 -0.593463 0.222137 -0.722489 -0.654725 0.166706 -0.603667 -0.779612 
0.342762 -0.714102 -0.610388 0.445388 -0.713158 -0.541327 0.699575 -0.40139 -0.591169 
0.8742 -0.0226658 -0.485037 -0.935149 0.351968 0.0401929 0.876021 0.00542888 -0.482242 
-0.262124 0.9648 -0.021277 0.926983 0.172185 -0.33325 -0.231837 0.972063 -0.036667 
-0.910325 -0.322828 0.259019 -0.375213 -0.754243 0.538826 -0.215732 -0.845958 0.487662 
-0.109157 -0.826217 0.552675 0.23119 -0.968322 0.0943574 0.120654 -0.956398 -0.265982 
-0.969266 -0.235567 0.0709372 0.0879387 -0.962748 -0.255699 0.185522 -0.968828 -0.164179 
0.184904 -0.76177 -0.6209 0.193306 -0.960508 -0.200142 0.15243 -0.983656 -0.09584 
0.226968 -0.97389 0.00493576 0.262255 -0.961367 -0.083643 0.23626 -0.888641 -0.393064 
0.387977 -0.909954 -0.146484 0.57154 -0.750974 -0.330728 0.706882 -0.691479 -0.148911 
0.802858 -0.567502 -0.182649 0.743221 -0.668848 0.0162518 0.700078 -0.601904 -0.384191 
0.814574 -0.02365 -0.579577 0.945429 -0.29623 -0.135685 0.926193 -0.0421824 -0.374683 
0.985627 0.0313807 0.165999 0.980158 -0.167033 -0.106725 0.995422 -0.0348804 -0.0889836 
0.916524 0.370085 -0.151723 -0.680559 -0.57643 0.452291 -0.365483 -0.749533 0.551926 
-0.448635 -0.637968 0.625879 0.0698609 -0.918964 0.388105 -0.00693599 -0.986156 -0.165673 
-0.045861 -0.99215 0.116339 0.235649 -0.968178 0.0842642 0.231113 -0.971884 0.0450324 
0.151283 -0.842126 0.517627 0.306584 -0.90461 0.296121 0.34232 -0.899975 0.26993 
0.41932 -0.826085 0.376504 0.550836 -0.760783 0.343204 0.778378 -0.593025 0.206032 
0.620084 -0.641703 0.451345 0.80139 -0.499459 0.329113 0.854483 -0.326434 0.404104 
0.981836 -0.181611 -0.0549127 -0.967045 0.244554 0.0708292 0.8196 0.532723 -0.21086 
-0.890518 -0.301227 0.34094 0.0491951 -0.866875 0.496093 0.132779 -0.966553 0.219419 
0.109673 -0.971714 0.209149 0.130833 -0.918629 0.372833 0.232649 -0.943415 0.236312 
0.223894 -0.847829 0.480684 0.488009 -0.623727 0.610584 0.675315 -0.509824 0.532944 
0.893978 -0.372315 0.249368 0.122777 -0.750707 0.649127 0.0793934 -0.78718 0.611592 
0.174926 -0.913067 0.368388 -0.964666 -0.120392 0.23436 0.2554 -0.659595 0.706898 
0.919584 -0.281407 0.274182 -0.830316 0.548269 0.099879 0.99712 -0.0717204 0.0246593 