# vtk DataFile Version 4.2
vtk output
ASCII
DATASET POLYDATA
POINTS 970 float
414.668 200.337 131.521 415.537 200.84 131.469 409.506 203.163 131.132 
410.946 203.837 130.787 413.802 203.045 130.872 410.494 205.342 130.695 
413.17 207.303 131.146 405.754 209.218 131.126 405.557 211.201 131.299 
408.2 211.039 131.158 411.288 199.873 131.978 417.607 199.606 132.553 
417.531 200.209 132.357 418.06 201.675 132.397 407.384 202.536 132.028 
417.169 204.781 132.027 404.644 206.153 131.964 415.506 207.416 131.901 
403.465 213.271 132.128 415.431 197.64 133.08 416.442 197.637 133.235 
405.586 202.895 132.758 419.799 203.767 133.642 419.055 205.585 133.354 
399.94 214.13 133.082 400.364 214.687 133.03 400.668 215.327 133.081 
401.251 215.487 133.011 416.951 196.378 134.218 412.861 196.622 134.027 
409.63 198.122 133.775 419.604 197.658 134.634 420.899 203.115 134.601 
398.608 213.136 133.593 397.851 215.327 133.881 399.484 215.054 133.333 
397.566 217.604 134.166 414.331 195.341 135.111 417.772 195.231 135.671 
418.303 195.4 135.677 420.751 198.137 135.57 401.797 205.07 134.025 
397.699 209.451 134.805 419.215 209.912 135.223 394.967 219.377 135.181 
418.884 195.45 136.034 421.4 199.248 135.88 401.101 203.289 135.633 
398.199 206.352 135.871 393.56 216.279 135.833 412.397 220.58 136.676 
410.334 222.317 136.689 390.002 225.447 137.114 389.42 227.98 137.488 
414.173 244.399 137.109 415.908 192.656 138.486 419.107 194.102 138.079 
420.568 195.855 137.559 422.706 200.835 138.335 422.851 205.627 138.359 
391.145 215.155 137.73 391.105 229.984 137.435 419.973 240.759 137.967 
406.075 241.98 137.595 419.086 245.368 137.674 420.785 245.312 138.077 
420.639 246.081 138.103 421.9 197.131 138.959 399.064 200.969 139.389 
418.393 219.471 138.768 387.115 222.069 139.307 409.677 228.628 137.736 
414.954 228.765 138.505 408.215 232.16 137.8 388.42 234.053 138.882 
392.979 238.937 138.798 422.777 239.291 139.274 398.838 240.83 138.372 
421.646 241.877 138.445 423.747 242.079 139.684 423.103 243.423 139.153 
422.34 244.806 138.692 423.704 244.06 139.644 423.639 245.155 139.637 
422.211 246.7 138.762 411.648 247.862 138.477 421.949 249.748 139.377 
416.048 191.353 140.764 418.248 192.201 140.305 407.972 193.89 140.016 
405.196 195.818 139.965 386.015 227.994 139.542 386.117 229.933 139.525 
421.027 236.809 138.996 423.27 237.353 140.036 423.852 237.992 140.43 
395.779 243.572 139.9 398.202 245.003 140.049 424.699 243.93 140.893 
410.513 249.093 139.367 424.162 248.529 140.594 410.109 249.948 140.058 
423.564 249.743 140.281 424.067 249.315 140.658 421.946 250.6 139.693 
422.751 250.744 140.062 419.16 252.384 140.106 422.866 252.057 140.655 
414.285 190.849 141.936 417.253 191.447 141.03 419.234 192.821 140.451 
406.981 194.296 140.516 402.36 197.271 141.311 401.054 198.193 141.536 
397.363 201.349 140.979 393.831 204.84 141.308 389.702 210.967 141.261 
387.178 216.016 141.497 421.265 217.482 139.98 421.225 227.063 140.413 
422.379 226.668 140.963 418.816 228.399 139.545 423.105 228.351 141.209 
423.632 229.026 141.53 423.301 232.305 141.001 424.393 232.456 142.073 
423.942 233.941 141.316 424.756 237.917 141.688 389.363 241.431 140.961 
425.018 242.194 141.578 424.902 249.047 141.894 414.72 252.769 141.016 
421.683 252.971 140.672 423.187 254.146 141.862 423.46 254.389 142.219 
423.844 254.262 142.561 409.454 192.295 141.744 420.744 193.735 141.486 
399.279 199.267 142.547 394.304 203.804 142.121 391.859 206.841 142.081 
389.896 209.67 142.139 388.173 213.191 141.821 423.003 217.17 141.413 
422.939 219.179 141.517 423.577 225.411 141.941 383.967 230.771 141.434 
399.036 248.002 142.245 419.831 254.962 141.845 422.994 254.642 142.098 
421.561 255.526 142.277 422.051 255.395 142.279 413.61 190.283 144.149 
414.592 190.38 143.263 410.382 191.433 143.074 417.498 191.021 142.698 
406.865 193.67 143.225 403.399 196.174 142.781 394.901 202.889 143.285 
394 203.798 143.3 390.064 208.611 143.602 388.552 211.322 143.098 
424.439 218.589 143.272 384.246 222.255 142.757 383.967 224.667 142.241 
424.422 226.102 142.828 382.611 227.974 143.32 425.107 231.202 143.525 
382.616 234.129 143.096 382.781 236.198 143.281 425.262 235.354 143.355 
385.332 241.82 143.325 425.48 247.552 143.366 425.141 252.17 143.727 
412.135 254.119 143.386 421.95 256.723 143.497 415.098 190.15 144.495 
416.416 190.29 144.279 403.136 196.409 143.703 400.353 198.406 143.618 
400.425 198.397 144.011 400.044 198.641 143.848 395.528 202.323 144.272 
394.512 203.281 144.25 388.737 210.653 143.901 387.394 212.794 144.223 
424.699 217.421 143.735 425.056 218.206 144.594 384.056 220.801 144.08 
384.231 241.041 143.719 400.321 250.104 144.238 413.144 254.796 143.779 
425.081 254.062 144.829 419.351 257.037 144.124 419.466 191.74 144.498 
403.568 196.296 144.585 401.471 197.84 144.483 399.465 199.372 144.806 
397.238 200.798 144.266 393.594 204.33 144.702 392.654 205.399 144.833 
388.6 210.745 144.541 388.658 210.72 145.015 384.144 219.764 145.372 
425.37 223.406 145.341 382.174 225.308 145.391 381.711 227.213 145.325 
381.097 231.574 145.605 386.455 244.913 145.21 391.919 247.059 144.529 
413.585 256.051 145.493 422.89 258.451 146.048 423.654 257.886 145.921 
413.49 190.384 146.145 414.965 190.192 145.935 417.492 190.539 145.242 
411.444 191.039 145.879 407.239 193.764 145.509 421.113 193.394 145.735 
421.908 194.708 145.429 405.464 195.331 145.593 423.275 198.556 145.611 
399.373 199.629 145.177 394.482 203.523 144.937 395.451 202.856 145.253 
388.507 211.071 145.362 384.86 218.112 145.869 384.527 218.787 145.682 
384.321 219.3 145.951 425.521 218.583 146.273 381.029 229.964 146.263 
425.744 249.811 146.143 404.129 252.556 146.11 425.582 252.636 146.301 
421.682 258.609 146.12 423.964 258.421 147.07 423.777 258.691 147.324 
415.623 190.318 146.513 417.026 190.447 146.156 418.915 191.32 145.906 
421.08 193.42 146.699 405.437 196.091 146.412 401.979 198.285 145.842 
400.974 199.855 146.508 399.296 201.687 146.88 393.4 205.305 145.743 
394.557 205.636 146.848 391.533 207.344 145.891 424.965 206.976 147.118 
390.541 208.413 145.855 388.567 211.445 146.048 386.545 214.737 146.095 
384.508 219.047 146.49 384.644 219.1 146.966 382.533 223.813 146.453 
381.442 226.993 147.001 425.831 232.898 147.038 381.371 239.566 146.623 
383.337 243.829 147.001 392.498 249.062 147.43 396.541 250.34 147.068 
419.705 258.845 147.525 422.857 259.071 147.417 424.197 258.515 148.1 
412.205 191.087 147.044 419.544 191.915 147.318 407.139 195.047 146.872 
405.601 196.629 146.909 406.111 197.848 147.846 423.023 197.858 147.303 
401.051 200.594 147.025 401.912 202.018 147.965 400.165 202.955 147.77 
400.348 204.438 148.275 391.19 210.231 147.589 385.522 217.282 147.087 
381.565 226.659 147.349 381.118 228.64 147.482 380.82 230.45 147.817 
381.604 241.587 147.789 384.427 245.48 148.064 388.982 247.871 147.879 
394.027 249.906 148.173 397.653 251.1 148.096 410.957 255.92 148.398 
417.019 258.203 148.326 423.589 259.011 148.591 415.385 190.902 147.899 
418.352 191.353 147.874 410.938 192.7 148.037 406.918 199.325 148.663 
409.386 198.562 149.297 425.073 206.651 148.534 395.195 210.106 148.733 
390.754 212.971 148.569 388.854 214.334 148.284 387.987 215.177 148.182 
386.862 217.655 148.748 425.841 220.926 149.016 382.501 224.698 148.062 
381.974 226.388 148.468 380.244 235.571 148.506 380.493 239.103 149.178 
381.083 241.329 149.331 396.946 251.126 149.253 404.709 253.514 148.881 
425.434 254.757 149.066 422.277 259.402 149.168 423.866 258.799 149.208 
415.372 191.956 149.18 414.67 192.559 149.479 419.293 192.215 148.672 
420.633 193.643 148.964 413.083 195.145 149.943 383.576 223.68 149.087 
382.347 226.042 148.974 380.978 230.844 149.682 425.762 233.058 149.863 
380.266 235.067 149.769 425.604 248.117 149.794 387.942 247.852 150.152 
393.898 250.22 150.346 395.344 250.674 149.85 395.968 250.904 150.434 
408.191 254.849 149.643 424.984 256.532 149.935 416.605 258.066 149.915 
424.054 258.466 149.858 423.144 259.15 149.764 416.727 192.239 149.484 
417.583 193.526 150.392 415.3 194.448 150.443 417.393 193.958 150.637 
420.819 194.671 149.969 422.165 197.461 150.275 383.955 226.088 150.64 
380.429 235.226 150.446 380.485 237.923 150.904 425.435 240.174 150.656 
381.82 242.8 150.548 383.993 245.474 150.859 385.313 246.369 150.999 
396.638 251.102 151.051 401.307 252.465 150.873 418.638 258.648 150.31 
421.327 259.29 150.218 421.461 259.169 150.566 423.764 258.541 150.426 
423.353 258.895 150.334 419.68 193.976 150.177 420.168 195.243 150.836 
421.217 196.505 150.902 422.857 200.295 150.914 424.08 204.069 151.372 
414.379 217.446 152.502 425.778 218.141 151.788 387.976 225.162 152.029 
384.167 228.081 151.716 382.362 230.266 151.471 381.061 232.965 151.079 
425.324 235.135 151.566 380.717 238.201 151.465 381.978 242.828 151.4 
425.154 246.277 151.448 385.724 246.359 151.804 387.565 247.522 151.498 
389.789 248.613 151.41 398.641 251.677 151.868 425.046 253.202 151.459 
405.677 253.769 151.452 415.716 257.374 151.598 419.376 258.612 150.966 
420.227 258.487 151.528 423.066 258.817 150.821 420.105 195.875 151.18 
419.294 197.64 151.818 420.712 198.314 151.722 422.933 202.365 152.185 
418.968 203.379 152.79 420.329 202.721 152.984 424.476 206.036 152.164 
425.642 220.204 152.631 408.13 226.929 152.828 386.747 228.851 152.817 
425.31 230.201 152.448 383.618 232.77 152.948 381.026 234.71 151.485 
381.691 235.315 152.364 381.918 242.295 151.96 382.401 243.25 151.828 
383.885 245.248 151.633 383.957 244.924 152.21 386.396 246.474 152.301 
388.164 247.52 152.262 388.379 247.43 152.621 393.789 249.83 152.413 
395.652 250.359 152.779 396.259 250.663 152.611 406.452 253.63 152.604 
424.593 254.227 152.139 416.576 257.166 152.303 423.656 257.548 151.779 
421.625 258.406 151.744 421.054 201.667 152.73 422.256 203.179 152.998 
417.975 223.056 153.879 424.92 231.31 153.093 385.204 233.292 153.61 
416.854 232.637 154.299 411.646 233.336 154.29 424.687 234.149 153.024 
[...]
POINT_DATA 970
COLOR_SCALARS scalars 3
1 0.682353 0.435294 1 0.682353 0.435294 1 0.682353 0.435294 
1 0.682353 0.435294 1 0.682353 0.435294 
1 0.682353 0.435294 1 0.682353 0.435294 
1 0.682353 0.435294 1 0.682353 0.435294 
1 0.682353 0.435294 1 0.682353 0.435294 
1 0.682353 0.435294 1 0.682353 0.435294 
1 0.682353 0.435294 1 0.682353 0.435294 
1 0.682353 0.435294 1 0.682353 0.435294 
1 0.682353 0.435294 1 0.682353 0.435294 
1 0.682353 0.435294 1 0.682353 0.435294 
1 0.682353 0.435294 1 0.682353 0.435294 
1 0.682353 0.435294 1 0.682353 0.435294 
1 0.682353 0.435294 1 0.682353 0.435294 
1 0.682353 0.435294 1 0.682353 0.435294 
1 0.682353 0.435294 1 0.682353 0.435294 
1 0.682353 0.435294 1 0.682353 0.435294 
1 0.682353 0.435294 1 0.682353 0.435294 
1 0.682353 0.435294 1 0.682353 0.435294 
1 0.682353 0.435294 1 0.682353 0.435294 
1 0.682353 0.435294 1 0.682353 0.435294 
1 0.682353 0.435294 1 0.682353 0.435294 
1 0.682353 0.435294 1 0.682353 0.435294 
1 0.682353 0.435294 1 0.682353 0.435294 
1 0.682353 0.435294 1 0.682353 0.435294 
1 0.682353 0.435294 1 0.682353 0.435294 
1 0.682353 0.435294 1 0.682353 0.435294 
1 0.682353 0.435294 1 0.682353 0.435294 
1 0.682353 0.435294 1 0.682353 0.435294 
1 0.682353 0.435294 1 0.682353 0.435294 
1 0.682353 0.435294 1 0.682353 0.435294 
1 0.682353 0.435294 1 0.682353 0.435294 
1 0.682353 0.435294 1 0.682353 0.435294 
1 0.682353 0.435294 1 0.682353 0.435294 
1 0.682353 0.435294 1 0.682353 0.435294 
1 0.682353 0.435294 1 0.682353 0.435294 
1 0.682353 0.435294 1 0.682353 0.435294 
1 0.682353 0.435294 1 0.682353 0.435294 
1 0.682353 0.435294 1 0.682353 0.435294 
1 0.682353 0.435294 1 0.682353 0.435294 
1 0.682353 0.435294 1 0.682353 0.435294 
1 0.682353 0.435294 1 0.682353 0.435294 
1 0.682353 0.435294 1 0.682353 0.435294 
1 0.682353 0.435294 1 0.682353 0.435294 
1 0.682353 0.435294 1 0.682353 0.435294 
1 0.682353 0.435294 1 0.682353 0.435294 
1 0.682353 0.435294 1 0.682353 0.435294 
1 0.682353 0.435294 1 0.682353 0.435294 
1 0.682353 0.435294 1 0.682353 0.435294 
1 0.682353 0.435294 1 0.682353 0.435294 
1 0.682353 0.435294 1 0.682353 0.435294 
1 0.682353 0.435294 1 0.682353 0.435294 
1 0.682353 0.435294 1 0.682353 0.435294 
1 0.682353 0.435294 1 0.682353 0.435294 
1 0.682353 0.435294 1 0.682353 0.435294 
1 0.682353 0.435294 1 0.682353 0.435294 
1 0.682353 0.435294 1 0.682353 0.435294 
1 0.682353 0.435294 1 0.682353 0.435294 
1 0.682353 0.435294 1 0.682353 0.435294 
1 0.682353 0.435294 1 0.682353 0.435294 
1 0.682353 0.435294 1 0.682353 0.435294 
1 0.682353 0.435294 1 0.682353 0.435294 
1 0.682353 0.435294 1 0.682353 0.435294 
1 0.682353 0.435294 1 0.682353 0.435294 
1 0.682353 0.435294 1 0.682353 0.435294 
1 0.682353 0.435294 1 0.682353 0.435294 
1 0.682353 0.435294 1 0.682353 0.435294 
1 0.682353 0.435294 1 0.682353 0.435294 
1 0.682353 0.435294 1 0.682353 0.435294 
1 0.682353 0.435294 1 0.682353 0.435294 
1 0.682353 0.435294 1 0.682353 0.435294 
1 0.682353 0.435294 1 0.682353 0.435294 
1 0.682353 0.435294 1 0.682353 0.435294 
1 0.682353 0.435294 1 0.682353 0.435294 
1 0.682353 0.435294 1 0.682353 0.435294 
1 0.682353 0.435294 1 0.682353 0.435294 
1 0.682353 0.435294 1 0.682353 0.435294 
1 0.682353 0.435294 1 0.682353 0.435294 
1 0.682353 0.435294 1 0.682353 0.435294 
1 0.682353 0.435294 1 0.682353 0.435294 
1 0.682353 0.435294 1 0.682353 0.435294 
1 0.682353 0.435294 1 0.682353 0.435294 
1 0.682353 0.435294 1 0.682353 0.435294 
1 0.682353 0.435294 1 0.682353 0.435294 
1 0.682353 0.435294 1 0.682353 0.435294 
1 0.682353 0.435294 1 0.682353 0.435294 
1 0.682353 0.435294 1 0.682353 0.435294 
1 0.682353 0.435294 1 0.682353 0.435294 
1 0.682353 0.435294 1 0.682353 0.435294 
1 0.682353 0.435294 1 0.682353 0.435294 
1 0.682353 0.435294 1 0.682353 0.435294 
1 0.682353 0.435294 1 0.682353 0.435294 
1 0.682353 0.435294 1 0.682353 0.435294 
1 0.682353 0.435294 1 0.682353 0.435294 
1 0.682353 0.435294 1 0.682353 0.435294 
1 0.682353 0.435294 1 0.682353 0.435294 
1 0.682353 0.435294 1 0.682353 0.435294 
1 0.682353 0.435294 1 0.682353 0.435294 
1 0.682353 0.435294 1 0.682353 0.435294 
1 0.682353 0.435294 1 0.682353 0.435294 
1 0.682353 0.435294 1 0.682353 0.435294 
1 0.682353 0.435294 1 0.682353 0.435294 
1 0.682353 0.435294 1 0.682353 0.435294 
1 0.682353 0.435294 1 0.682353 0.435294 
1 0.682353 0.435294 1 0.682353 0.435294 
1 0.682353 0.435294 1 0.682353 0.435294 
1 0.682353 0.435294 1 0.682353 0.435294 
1 0.682353 0.435294 1 0.682353 0.435294 
1 0.682353 0.435294 1 0.682353 0.435294 
1 0.682353 0.435294 1 0.682353 0.435294 
1 0.682353 0.435294 1 0.682353 0.435294 
1 0.682353 0.435294 1 0.682353 0.435294 
1 0.682353 0.435294 1 0.682353 0.435294 
1 0.682353 0.435294 1 0.682353 0.435294 
1 0.682353 0.435294 1 0.682353 0.435294 
1 0.682353 0.435294 1 0.682353 0.435294 
1 0.682353 0.435294 1 0.682353 0.435294 
1 0.682353 0.435294 1 0.682353 0.435294 
1 0.682353 0.435294 1 0.682353 0.435294 
1 0.682353 0.435294 1 0.682353 0.435294 
1 0.682353 0.435294 1 0.682353 0.435294 
1 0.682353 0.435294 1 0.682353 0.435294 
1 0.682353 0.435294 1 0.682353 0.435294 
1 0.682353 0.435294 1 0.682353 0.435294 
1 0.682353 0.435294 1 0.682353 0.435294 
1 0.682353 0.435294 1 0.682353 0.435294 
1 0.682353 0.435294 1 0.682353 0.435294 
1 0.682353 0.435294 1 0.682353 0.435294 
1 0.682353 0.435294 1 0.682353 0.435294 
1 0.682353 0.435294 1 0.682353 0.435294 
1 0.682353 0.435294 1 0.682353 0.435294 
1 0.682353 0.435294 1 0.682353 0.435294 
1 0.682353 0.435294 1 0.682353 0.435294 
1 0.682353 0.435294 1 0.682353 0.435294 
1 0.682353 0.435294 1 0.682353 0.435294 
1 0.682353 0.435294 1 0.682353 0.435294 
1 0.682353 0.435294 1 0.682353 0.435294 
1 0.682353 0.435294 1 0.682353 0.435294 
1 0.682353 0.435294 1 0.682353 0.435294 
1 0.682353 0.435294 1 0.682353 0.435294 
1 0.682353 0.435294 1 0.682353 0.435294 
1 0.682353 0.435294 1 0.682353 0.435294 
1 0.682353 0.435294 1 0.682353 0.435294 
1 0.682353 0.435294 1 0.682353 0.435294 
1 0.682353 0.435294 1 0.682353 0.435294 
1 0.682353 0.435294 1 0.682353 0.435294 
1 0.682353 0.435294 1 0.682353 0.435294 
1 0.682353 0.435294 1 0.682353 0.435294 
1 0.682353 0.435294 1 0.682353 0.435294 
1 0.682353 0.435294 1 0.682353 0.435294 
1 0.682353 0.435294 1 0.682353 0.435294 
1 0.682353 0.435294 1 0.682353 0.435294 
1 0.682353 0.435294 1 0.682353 0.435294 
1 0.682353 0.435294 1 0.682353 0.435294 
1 0.682353 0.435294 1 0.682353 0.435294 
1 0.682353 0.435294 1 0.682353 0.435294 
1 0.682353 0.435294 1 0.682353 0.435294 
1 0.682353 0.435294 1 0.682353 0.435294 
1 0.682353 0.435294 1 0.682353 0.435294 
1 0.682353 0.435294 1 0.682353 0.435294 
1 0.682353 0.435294 1 0.682353 0.435294 
1 0.682353 0.435294 1 0.682353 0.435294 
1 0.682353 0.435294 1 0.682353 0.435294 
1 0.682353 0.435294 1 0.682353 0.435294 
1 0.682353 0.435294 1 0.682353 0.435294 
1 0.682353 0.435294 1 0.682353 0.435294 
1 0.682353 0.435294 1 0.682353 0.435294 
1 0.682353 0.435294 1 0.682353 0.435294 
1 0.682353 0.435294 1 0.682353 0.435294 
1 0.682353 0.435294 1 0.682353 0.435294 
1 0.682353 0.435294 1 0.682353 0.435294 
1 0.682353 0.435294 1 0.682353 0.435294 
1 0.682353 0.435294 1 0.682353 0.435294 
1 0.682353 0.435294 1 0.682353 0.435294 
1 0.682353 0.435294 1 0.682353 0.435294 
1 0.682353 0.435294 1 0.682353 0.435294 
1 0.682353 0.435294 1 0.682353 0.435294 
1 0.682353 0.435294 1 0.682353 0.435294 
1 0.682353 0.435294 1 0.682353 0.435294 
1 0.682353 0.435294 1 0.682353 0.435294 
1 0.682353 0.435294 1 0.682353 0.435294 
1 0.682353 0.435294 1 0.682353 0.435294 
1 0.682353 0.435294 1 0.682353 0.435294 
1 0.682353 0.435294 1 0.682353 0.435294 
1 0.682353 0.435294 1 0.682353 0.435294 
1 0.682353 0.435294 1 0.682353 0.435294 
1 0.682353 0.435294 1 0.682353 0.435294 
1 0.682353 0.435294 1 0.682353 0.435294 
1 0.682353 0.435294 1 0.682353 0.435294 
1 0.682353 0.435294 1 0.682353 0.435294 
1 0.682353 0.435294 1 0.682353 0.435294 
1 0.682353 0.435294 1 0.682353 0.435294 
1 0.682353 0.435294 1 0.682353 0.435294 
1 0.682353 0.435294 1 0.682353 0.435294 
1 0.682353 0.435294 1 0.682353 0.435294 
1 0.682353 0.435294 1 0.682353 0.435294 
1 0.682353 0.435294 1 0.682353 0.435294 
1 0.682353 0.435294 1 0.682353 0.435294 
1 0.682353 0.435294 1 0.682353 0.435294 
1 0.682353 0.435294 1 0.682353 0.435294 
1 0.682353 0.435294 1 0.682353 0.435294 
1 0.682353 0.435294 1 0.682353 0.435294 
1 0.682353 0.435294 1 0.682353 0.435294 
1 0.682353 0.435294 1 0.682353 0.435294 
1 0.682353 0.435294 1 0.682353 0.435294 
1 0.682353 0.435294 1 0.682353 0.435294 
1 0.682353 0.435294 1 0.682353 0.435294 
1 0.682353 0.435294 1 0.682353 0.435294 
1 0.682353 0.435294 1 0.682353 0.435294 
1 0.682353 0.435294 1 0.682353 0.435294 
1 0.682353 0.435294 1 0.682353 0.435294 
1 0.682353 0.435294 1 0.682353 0.435294 
1 0.682353 0.435294 1 0.682353 0.435294 
1 0.682353 0.435294 1 0.682353 0.435294 
1 0.682353 0.435294 1 0.682353 0.435294 
1 0.682353 0.435294 1 0.682353 0.435294 
1 0.682353 0.435294 1 0.682353 0.435294 
1 0.682353 0.435294 1 0.682353 0.435294 
1 0.682353 0.435294 1 0.682353 0.435294 
1 0.682353 0.435294 1 0.682353 0.435294 
1 0.682353 0.435294 1 0.682353 0.435294 
1 0.682353 0.435294 1 0.682353 0.435294 
1 0.682353 0.435294 1 0.682353 0.435294 
1 0.682353 0.435294 1 0.682353 0.435294 
1 0.682353 0.435294 1 0.682353 0.435294 
1 0.682353 0.435294 1 0.682353 0.435294 
1 0.682353 0.435294 1 0.682353 0.435294 
1 0.682353 0.435294 1 0.682353 0.435294 
1 0.682353 0.435294 1 0.682353 0.435294 
1 0.682353 0.435294 1 0.682353 0.435294 
1 0.682353 0.435294 1 0.682353 0.435294 
1 0.682353 0.435294 1 0.682353 0.435294 
1 0.682353 0.435294 1 0.682353 0.435294 
1 0.682353 0.435294 1 0.682353 0.435294 
1 0.682353 0.435294 1 0.682353 0.435294 
1 0.682353 0.435294 1 0.682353 0.435294 
1 0.682353 0.435294 1 0.682353 0.435294 
1 0.682353 0.435294 1 0.682353 0.435294 
1 0.682353 0.435294 1 0.682353 0.435294 
1 0.682353 0.435294 1 0.682353 0.435294 
1 0.682353 0.435294 1 0.682353 0.435294 
1 0.682353 0.435294 1 0.682353 0.435294 
1 0.682353 0.435294 1 0.682353 0.435294 
1 0.682353 0.435294 1 0.682353 0.435294 
1 0.682353 0.435294 1 0.682353 0.435294 
1 0.682353 0.435294 1 0.682353 0.435294 
1 0.682353 0.435294 1 0.682353 0.435294 
1 0.682353 0.435294 1 0.682353 0.435294 
1 0.682353 0.435294 1 0.682353 0.435294 
1 0.682353 0.435294 1 0.682353 0.435294 
1 0.682353 0.435294 1 0.682353 0.435294 
1 0.682353 0.435294 1 0.682353 0.435294 
1 0.682353 0.435294 1 0.682353 0.435294 
1 0.682353 0.435294 1 0.682353 0.435294 
1 0.682353 0.435294 1 0.682353 0.435294 
1 0.682353 0.435294 1 0.682353 0.435294 
1 0.682353 0.435294 1 0.682353 0.435294 
1 0.682353 0.435294 1 0.682353 0.435294 
1 0.682353 0.435294 1 0.682353 0.435294 
1 0.682353 0.435294 1 0.682353 0.435294 
1 0.682353 0.435294 1 0.682353 0.435294 
1 0.682353 0.435294 1 0.682353 0.435294 
1 0.682353 0.435294 1 0.682353 0.435294 
1 0.682353 0.435294 1 0.682353 0.435294 
1 0.682353 0.435294 1 0.682353 0.435294 
1 0.682353 0.435294 1 0.682353 0.435294 
1 0.682353 0.435294 1 0.682353 0.435294 
1 0.682353 0.435294 1 0.682353 0.435294 
1 0.682353 0.435294 1 0.682353 0.435294 
1 0.682353 0.435294 1 0.682353 0.435294 
1 0.682353 0.435294 1 0.682353 0.435294 
1 0.682353 0.435294 1 0.682353 0.435294 
1 0.682353 0.435294 1 0.682353 0.435294 
1 0.682353 0.435294 1 0.682353 0.435294 
1 0.682353 0.435294 1 0.682353 0.435294 
1 0.682353 0.435294 1 0.682353 0.435294 
1 0.682353 0.435294 1 0.682353 0.435294 
1 0.682353 0.435294 1 0.682353 0.435294 
1 0.682353 0.435294 1 0.682353 0.435294 
1 0.682353 0.435294 1 0.682353 0.435294 
1 0.682353 0.435294 1 0.682353 0.435294 
1 0.682353 0.435294 1 0.682353 0.435294 
1 0.682353 0.435294 1 0.682353 0.435294 
1 0.682353 0.435294 1 0.682353 0.435294 
1 0.682353 0.435294 1 0.682353 0.435294 
1 0.682353 0.435294 1 0.682353 0.435294 
1 0.682353 0.435294 1 0.682353 0.435294 
1 0.682353 0.435294 1 0.682353 0.435294 
1 0.682353 0.435294 1 0.682353 0.435294 
1 0.682353 0.435294 1 0.682353 0.435294 
1 0.682353 0.435294 1 0.682353 0.435294 
1 0.682353 0.435294 1 0.682353 0.435294 
1 0.682353 0.435294 1 0.682353 0.435294 
1 0.682353 0.435294 1 0.682353 0.435294 
1 0.682353 0.435294 1 0.682353 0.435294 
1 0.682353 0.435294 1 0.682353 0.435294 
1 0.682353 0.435294 1 0.682353 0.435294 
1 0.682353 0.435294 1 0.682353 0.435294 
1 0.682353 0.435294 1 0.682353 0.435294 
1 0.682353 0.435294 1 0.682353 0.435294 
1 0.682353 0.435294 1 0.682353 0.435294 
1 0.682353 0.435294 1 0.682353 0.435294 
1 0.682353 0.435294 1 0.682353 0.435294 
1 0.682353 0.435294 1 0.682353 0.435294 
1 0.682353 0.435294 1 0.682353 0.435294 
1 0.682353 0.435294 1 0.682353 0.435294 
1 0.682353 0.435294 1 0.682353 0.435294 
1 0.682353 0.435294 1 0.682353 0.435294 
1 0.682353 0.435294 1 0.682353 0.435294 
1 0.682353 0.435294 1 0.682353 0.435294 
1 0.682353 0.435294 1 0.682353 0.435294 
1 0.682353 0.435294 1 0.682353 0.435294 
1 0.682353 0.435294 1 0.682353 0.435294 
1 0.682353 0.435294 1 0.682353 0.435294 
1 0.682353 0.435294 1 0.682353 0.435294 
1 0.682353 0.435294 1 0.682353 0.435294 
1 0.682353 0.435294 1 0.682353 0.435294 
1 0.682353 0.435294 1 0.682353 0.435294 
1 0.682353 0.435294 1 0.682353 0.435294 
1 0.682353 0.435294 1 0.682353 0.435294 
1 0.682353 0.435294 1 0.682353 0.435294 
1 0.682353 0.435294 1 0.682353 0.435294 
1 0.682353 0.435294 1 0.682353 0.435294 
1 0.682353 0.435294 1 0.682353 0.435294 
1 0.682353 0.435294 1 0.682353 0.435294 
1 0.682353 0.435294 1 0.682353 0.435294 
1 0.682353 0.435294 1 0.682353 0.435294 
1 0.682353 0.435294 1 0.682353 0.435294 
1 0.682353 0.435294 1 0.682353 0.435294 
1 0.682353 0.435294 1 0.682353 0.435294 
1 0.682353 0.435294 1 0.682353 0.435294 
1 0.682353 0.435294 1 0.682353 0.435294 
1 0.682353 0.435294 1 0.682353 0.435294 
1 0.682353 0.435294 1 0.682353 0.435294 
1 0.682353 0.435294 1 0.682353 0.435294 
1 0.682353 0.435294 1 0.682353 0.435294 
1 0.682353 0.435294 1 0.682353 0.435294 
1 0.682353 0.435294 1 0.682353 0.435294 
1 0.682353 0.435294 1 0.682353 0.435294 
1 0.682353 0.435294 1 0.682353 0.435294 
1 0.682353 0.435294 1 0.682353 0.435294 
1 0.682353 0.435294 1 0.682353 0.435294 
1 0.682353 0.435294 1 0.682353 0.435294 
1 0.682353 0.435294 1 0.682353 0.435294 
1 0.682353 0.435294 1 0.682353 0.435294 
1 0.682353 0.435294 1 0.682353 0.435294 
1 0.682353 0.435294 1 0.682353 0.435294 
1 0.682353 0.435294 1 0.682353 0.435294 
1 0.682353 0.435294 1 0.682353 0.435294 
1 0.682353 0.435294 1 0.682353 0.435294 
1 0.682353 0.435294 1 0.682353 0.435294 
1 0.682353 0.435294 1 0.682353 0.435294 
1 0.682353 0.435294 1 0.682353 0.435294 
1 0.682353 0.435294 1 0.682353 0.435294 
1 0.682353 0.435294 1 0.682353 0.435294 
1 0.682353 0.435294 1 0.682353 0.435294 
1 0.682353 0.435294 1 0.682353 0.435294 
1 0.682353 0.435294 1 0.682353 0.435294 
1 0.682353 0.435294 1 0.682353 0.435294 
1 0.682353 0.435294 1 0.682353 0.435294 
1 0.682353 0.435294 1 0.682353 0.435294 
1 0.682353 0.435294 1 0.682353 0.435294 
1 0.682353 0.435294 1 0.682353 0.435294 
1 0.682353 0.435294 1 0.682353 0.435294 
1 0.682353 0.435294 1 0.682353 0.435294 
1 0.682353 0.435294 1 0.682353 0.435294 
1 0.682353 0.435294 1 0.682353 0.435294 
1 0.682353 0.435294 1 0.682353 0.435294 
1 0.682353 0.435294 1 0.682353 0.435294 
1 0.682353 0.435294 1 0.682353 0.435294 
1 0.682353 0.435294 1 0.682353 0.435294 
1 0.682353 0.435294 1 0.682353 0.435294 
1 0.682353 0.435294 1 0.682353 0.435294 
1 0.682353 0.435294 1 0.682353 0.435294 
1 0.682353 0.435294 1 0.682353 0.435294 
1 0.682353 0.435294 1 0.682353 0.435294 
1 0.682353 0.435294 1 0.682353 0.435294 
1 0.682353 0.435294 1 0.682353 0.435294 
1 0.682353 0.435294 1 0.682353 0.435294 
1 0.682353 0.435294 1 0.682353 0.435294 
1 0.682353 0.435294 1 0.682353 0.435294 
1 0.682353 0.435294 1 0.682353 0.435294 
1 0.682353 0.435294 1 0.682353 0.435294 
1 0.682353 0.435294 1 0.682353 0.435294 
1 0.682353 0.435294 1 0.682353 0.435294 
1 0.682353 0.435294 1 0.682353 0.435294 
1 0.682353 0.435294 1 0.682353 0.435294 
1 0.682353 0.435294 1 0.682353 0.435294 
1 0.682353 0.435294 1 0.682353 0.435294 
1 0.682353 0.435294 1 0.682353 0.435294 
1 0.682353 0.435294 1 0.682353 0.435294 
1 0.682353 0.435294 1 0.682353 0.435294 
1 0.682353 0.435294 1 0.682353 0.435294 
1 0.682353 0.435294 1 0.682353 0.435294 
1 0.682353 0.435294 1 0.682353 0.435294 
1 0.682353 0.435294 1 0.682353 0.435294 
1 0.682353 0.435294 1 0.682353 0.435294 
1 0.682353 0.435294 1 0.682353 0.435294 
1 0.682353 0.435294 1 0.682353 0.435294 
1 0.682353 0.435294 1 0.682353 0.435294 
1 0.682353 0.435294 1 0.682353 0.435294 
1 0.682353 0.435294 1 0.682353 0.435294 
1 0.682353 0.435294 1 0.682353 0.435294 
1 0.682353 0.435294 1 0.682353 0.435294 
1 0.682353 0.435294 1 0.682353 0.435294 
1 0.682353 0.435294 1 0.682353 0.435294 
1 0.682353 0.435294 1 0.682353 0.435294 
1 0.682353 0.435294 1 0.682353 0.435294 
1 0.682353 0.435294 1 0.682353 0.435294 
1 0.682353 0.435294 1 0.682353 0.435294 
1 0.682353 0.435294 1 0.682353 0.435294 
1 0.682353 0.435294 1 0.682353 0.435294 
1 0.682353 0.435294 1 0.682353 0.435294 
1 0.682353 0.435294 1 0.682353 0.435294 
1 0.682353 0.435294 1 0.682353 0.435294 
1 0.682353 0.435294 1 0.682353 0.435294 
1 0.682353 0.435294 1 0.682353 0.435294 
1 0.682353 0.435294 1 0.682353 0.435294 
1 0.682353 0.435294 1 0.682353 0.435294 
1 0.682353 0.435294 1 0.682353 0.435294 
1 0.682353 0.435294 1 0.682353 0.435294 
1 0.682353 0.435294 1 0.682353 0.435294 
1 0.682353 0.435294 1 0.682353 0.435294 
1 0.682353 0.435294 1 0.682353 0.435294 
1 0.682353 0.435294 1 0.682353 0.435294 
1 0.682353 0.435294 1 0.682353 0.435294 
1 0.682353 0.435294 1 0.682353 0.435294 
1 0.682353 0.435294 1 0.682353 0.435294 
1 0.682353 0.435294 1 0.682353 0.435294 
1 0.682353 0.435294 1 0.682353 0.435294 
1 0.682353 0.435294 1 0.682353 0.435294 
1 0.682353 0.435294 1 0.682353 0.435294 
1 0.682353 0.435294 1 0.682353 0.435294 
1 0.682353 0.435294 1 0.682353 0.435294 
1 0.682353 0.435294 1 0.682353 0.435294 
1 0.682353 0.435294 1 0.682353 0.435294 
1 0.682353 0.435294 1 0.682353 0.435294 
1 0.682353 0.435294 1 0.682353 0.435294 
1 0.682353 0.435294 1 0.682353 0.435294 
1 0.682353 0.435294 1 0.682353 0.435294 
1 0.682353 0.435294 1 0.682353 0.435294 
1 0.682353 0.435294 1 0.682353 0.435294 
1 0.682353 0.435294 1 0.682353 0.435294 
1 0.682353 0.435294 1 0.682353 0.435294 
1 0.682353 0.435294 1 0.682353 0.435294 
1 0.682353 0.435294 1 0.682353 0.435294 
1 0.682353 0.435294 1 0.682353 0.435294 
1 0.682353 0.435294 1 0.682353 0.435294 
1 0.682353 0.435294 1 0.682353 0.435294 
1 0.682353 0.435294 1 0.682353 0.435294 
1 0.682353 0.435294 1 0.682353 0.435294 
1 0.682353 0.435294 1 0.682353 0.435294 
1 0.682353 0.435294 1 0.682353 0.435294 
1 0.682353 0.435294 1 0.682353 0.435294 
1 0.682353 0.435294 1 0.682353 0.435294 
1 0.682353 0.435294 1 0.682353 0.435294 
1 0.682353 0.435294 1 0.682353 0.435294 
1 0.682353 0.435294 1 0.682353 0.435294 
1 0.682353 0.435294 1 0.682353 0.435294 
1 0.682353 0.435294 1 0.682353 0.435294 
1 0.682353 0.435294 1 0.682353 0.435294 
1 0.682353 0.435294 1 0.682353 0.435294 
1 0.682353 0.435294 1 0.682353 0.435294 
1 0.682353 0.435294 1 0.682353 0.435294 
1 0.682353 0.435294 1 0.682353 0.435294 
1 0.682353 0.435294 1 0.682353 0.435294 
1 0.682353 0.435294 1 0.682353 0.435294 
1 0.682353 0.435294 1 0.682353 0.435294 
1 0.682353 0.435294 1 0.682353 0.435294 
1 0.682353 0.435294 1 0.682353 0.435294 
1 0.682353 0.435294 1 0.682353 0.435294 
1 0.682353 0.435294 1 0.682353 0.435294 
1 0.682353 0.435294 1 0.682353 0.435294 
1 0.682353 0.435294 1 0.682353 0.435294 
1 0.682353 0.435294 1 0.682353 0.435294 
1 0.682353 0.435294 1 0.682353 0.435294 
1 0.682353 0.435294 1 0.682353 0.435294 
1 0.682353 0.435294 1 0.682353 0.435294 
1 0.682353 0.435294 1 0.682353 0.435294 
1 0.682353 0.435294 1 0.682353 0.435294 
1 0.682353 0.435294 1 0.682353 0.435294 
1 0.682353 0.435294 1 0.682353 0.435294 
1 0.682353 0.435294 1 0.682353 0.435294 
1 0.682353 0.435294 1 0.682353 0.435294 
1 0.682353 0.435294 1 0.682353 0.435294 
1 0.682353 0.435294 
NORMALS Normals float