# vtk DataFile Version 4.2
vtk output
ASCII
DATASET POLYDATA
POINTS 2049 float
314.4 52.4317 74.6968 314.395 52.2693 74.7609 314.248 52.477 74.8087 
314.414 52.5747 74.725 314.64 51.9823 74.8581 314.161 52.0627 74.9987 
314.99 51.9125 74.8959 315.009 52.2821 74.8758 314.094 52.8291 75.072 
314.568 52.8142 74.8414 314.007 51.581 75.2553 314.454 50.8805 75.3417 
313.822 51.9109 75.3175 315.539 52.5081 75.1536 313.852 52.9169 75.3878 
315.302 52.9331 75.1246 314.252 53.2132 75.1714 314.329 53.5393 75.3911 
314.001 50.1397 76.0043 317.27 50.1462 76.1618 316.798 51.0682 75.7877 
313.246 51.9164 76.1732 315.255 53.2593 75.252 315.014 53.5849 75.3956 
316.754 48.8707 76.5822 318.441 50.1539 76.7683 318.038 51.082 76.4825 
313.273 53.0266 76.3612 315.306 53.8586 75.6699 315.629 53.7515 75.7591 
314.407 55.0724 76.8352 317.824 47.8127 77.4768 319.138 48.6819 77.4441 
321.229 48.2183 78.4236 321.739 48.8866 78.6101 318.361 52.2155 77.076 
316.926 52.9655 76.2369 315.665 55.1127 76.8954 314.525 55.9486 77.7784 
321.605 47.15 79.0055 312.034 50.1315 78.6277 318.109 54.8378 78.4392 
316.405 55.4309 77.6191 314.981 55.9406 77.6369 314.218 56.4892 78.6082 
311.719 47.6527 79.8891 317.605 46.2169 78.844 323.387 47.4722 79.8345 
311.698 48.6969 79.4564 312.426 54.0533 79.1111 313.739 56.9569 79.5081 
316.46 57.9539 79.7947 321.039 45.9478 79.6357 324.369 48.1049 80.6065 
313.379 57.3214 80.282 316.078 58.7578 80.2655 314.654 59.7094 81.0762 
311.279 45.6229 81.6763 324.934 45.7641 81.223 326.546 45.8853 81.9411 
324.964 47.3678 80.9453 326.933 46.9089 82.1306 312.533 56.8285 81.4542 
313.304 58.8531 81.7268 314.147 60.296 82.0651 315.351 60.1973 81.3544 
314.689 60.5751 81.8804 326.31 48.2311 82.104 316.387 60.621 81.9671 
315.561 61.5836 82.6262 315.163 62.061 83.1194 312.796 43.4371 82.9915 
328.697 44.5931 83.5196 329.232 44.854 83.743 329.629 45.1496 83.9735 
309.552 46.4725 83.3784 310.001 48.4144 82.7314 310.635 51.0991 82.4207 
313.781 61.8476 84.0824 315.839 63.7481 84.3689 310.369 42.9667 84.5915 
327.269 43.2004 83.7626 330.822 43.6344 85.027 308.927 44.2438 84.78 
331.17 44.2578 85.1398 308.88 46.2722 84.5025 329.413 46.5992 84.0934 
327.938 48.7085 83.8214 331.585 44.3386 85.5692 313.456 62.8567 85.5604 
314.42 64.7259 85.8974 315.911 65.5349 85.8442 315.485 65.9043 86.2043 
308.136 42.4055 86.6864 331.409 42.1453 86.4621 332.201 42.3772 86.7751 
333.043 42.9915 87.0817 333.23 42.7844 87.3642 307.423 43.3653 87.0362 
312.613 61.6933 86.5053 314.8 66.4599 87.0978 315.254 67.0745 87.287 
314.954 67.3882 87.751 315.811 67.3069 87.3214 307.393 42.0536 87.66 
330.196 41.3288 86.6682 333.136 42.3451 87.5573 333.23 42.1151 87.9045 
333.607 42.5757 88.1711 333.659 43.2101 87.8489 307.078 43.9978 87.4396 
333.536 44.7641 87.7472 308.018 47.6066 86.8033 316.347 66.9681 87.0655 
316.812 67.6315 87.7315 315.26 67.9894 88.06 315.752 68.2474 88.1208 
320.224 39.6529 87.2827 306.953 41.7206 88.2824 307.348 40.7218 88.6252 
306.298 42.6104 88.6926 333.878 43.2387 88.6705 333.471 46.3914 88.4885 
332.09 48.8191 88.3298 316.737 68.6058 88.5101 315.197 68.7139 88.7717 
306.14 41.1676 89.4137 333.732 42.7694 89.1424 333.999 44.8195 88.846 
316.294 70.1808 89.8284 331.18 40.2574 90.0614 333.005 41.8425 89.8498 
305.467 42.5672 89.9227 333.98 44.7875 90.1009 315.511 70.7534 90.7053 
315.892 71.075 90.7654 314.302 37.6577 90.5193 304.686 40.6486 91.1694 
332.421 41.9384 91.2439 333.439 43.4473 90.7449 333.987 46.548 90.4472 
333.487 49.1018 91.1933 332.826 50.5773 90.8683 317.244 71.0089 90.7157 
315.981 72.4203 91.9699 316.522 72.3164 91.7241 322.479 37.0744 91.6417 
323.431 37.1902 91.6719 303.837 38.611 92.9907 329.914 39.6218 91.367 
332.624 42.9788 91.8409 333.551 45.3831 91.8485 333.9 45.6593 91.0253 
333.609 49.3513 92.2504 315.618 73.3549 93.2936 316.138 73.5568 92.9486 
316.356 73.8651 93.2344 326.263 37.5951 92.752 302.973 38.6329 93.7893 
302.986 38.1291 94.0401 333.595 48.7611 92.929 333.684 49.4587 92.6934 
333.69 49.4696 92.847 333.132 51.7154 92.6539 332.108 54.6203 93.0507 
314.201 70.5694 92.9404 320.314 70.8138 92.8596 317.801 73.1197 92.6548 
317.488 74.0591 93.3623 304.106 36.6022 94.4002 302.49 39.2937 94.2098 
333.317 50.8394 94.1883 333.223 51.9679 93.3819 308.263 56.1373 94.1778 
315.719 74.2393 94.6106 317.696 74.403 93.7892 317.36 74.7271 94.0905 
316.387 74.8554 94.6228 323.431 36.1363 94.9479 324.816 36.8202 94.9645 
302.107 37.5532 95.3195 326.291 37.8365 94.7414 301.36 38.2885 95.968 
327.75 39.1974 94.8894 302.076 40.5205 95.0059 333.177 51.0027 94.9015 
333.164 52.6154 94.7125 332.993 54.2011 94.8701 307.902 55.6769 94.6932 
332.36 55.9893 94.7389 332.01 57.572 95.5266 319.688 73.7453 94.6873 
317.686 75.1775 94.6869 317.005 75.4567 95.0139 316.898 75.7196 95.5686 
317.178 75.9952 95.6709 317.439 75.9368 95.4166 317.368 76.0496 95.6181 
302.143 36.468 96.0676 303.568 35.957 95.4888 324.674 36.7924 95.8321 
328.094 40.2833 95.5276 302.92 43.7643 95.2288 332.335 49.875 96.1208 
332.737 50.612 95.8245 330.309 61.0883 96.0955 315.577 74.5004 96.0844 
319.039 74.659 95.1367 319.476 74.9099 96.2393 316.798 75.744 96.124 
317.553 76.0082 95.5943 317.315 76.0831 95.8357 317.525 76.0601 95.8267 
305.284 34.802 96.2989 325.342 37.5443 96.379 331.871 50.7134 97.2157 
332.761 53.3655 97.0885 332.823 56.3252 97.0885 332.586 57.2839 96.8033 
315.634 74.6329 96.8877 320.857 74.1575 97.1366 318.128 75.7184 96.2982 
316.773 75.7072 96.6086 317.702 75.9732 96.089 318.466 33.6994 97.834 
319.686 34.1994 97.2878 321.284 34.7471 97.8652 300.382 34.9733 98.7042 
304.727 34.0799 97.5945 321.865 35.1661 97.6726 325.371 38.0835 97.1075 
332.45 54.0924 98.0103 332.68 55.2632 98.0003 332.328 58.7075 97.7329 
308.357 60.0156 98.1639 331.825 59.8065 97.4205 327.342 67.3772 97.6671 
313.113 70.6869 97.7491 316.389 75.2436 97.6027 320.427 74.5551 97.3778 
317.016 75.7371 97.0216 317.297 75.6706 97.4438 317.49 75.8089 96.9953 
318.626 75.3733 97.793 319.909 74.8677 97.5058 319.612 33.8689 98.4022 
319.808 33.8946 98.9313 320.318 34.1828 98.9773 300.762 34.2637 99.1153 
299.288 35.6828 99.2998 324.493 71.5112 98.6793 320.099 74.6119 98.8086 
322.371 73.3524 99.0667 319.466 74.8472 98.8446 316.732 75.3149 97.9994 
332.005 61.2905 100.148 328.403 68.2806 99.6051 313.401 71.7259 99.5611 
314.599 73.1444 99.8432 325.603 71.387 100.44 315.829 74.351 99.205 
316.429 74.7131 99.057 311.325 31.795 100.541 297.326 33.9467 102.039 
331.535 57.6195 101.001 331.933 61.0522 101.135 332.079 61.7836 100.975 
331.923 62.3592 101.142 324.977 71.828 101.491 315.775 73.9454 100.186 
316.818 74.4991 99.8104 317.622 74.595 99.9103 318.922 74.1084 100.748 
315.957 31.8725 101.547 296.36 34.1092 102.803 319.011 33.9631 102.147 
329.539 54.6448 102.146 331.837 62.0341 101.855 331.939 62.6937 101.919 
331.785 63.3271 101.94 331.619 64.6047 102.163 328.137 70.0344 101.368 
313.872 72.3618 101.816 321.502 73.0099 101.87 322.909 72.6806 101.502 
314.46 72.8 101.622 314.506 72.7648 101.931 316.847 32.1698 102.58 
331.643 62.9171 102.681 331.661 64.1303 102.758 331.721 64.6938 102.578 
331.735 64.7019 102.721 331.453 65.6011 102.916 331.654 64.8699 102.791 
329.083 69.8376 102.951 315.402 72.8537 102.392 313.793 72.1188 102.743 
314.417 31.0243 103.837 297.299 31.6336 104.026 317.616 33.2256 103.625 
331.434 63.878 103.526 331.688 64.6454 102.877 331.321 66.1155 103.938 
309.983 67.6011 104.108 310.361 68.2384 104.201 330.428 68.6971 103.45 
328.843 70.0875 103.248 326.938 71.0523 103.132 310.156 29.9065 104.472 
314.064 30.6862 105.039 330.618 64.2753 105.462 330.956 66.0325 105.171 
330.879 68.304 104.185 311.046 69.2626 105.12 328.68 70.1243 104.19 
314.106 71.5892 104.481 311.015 29.3192 106.399 312.479 29.7757 106.232 
330.641 65.1779 105.708 330.789 67.7556 105.244 311.139 69.3277 105.947 
330.468 68.8023 104.611 297.432 29.8294 106.658 313.944 30.8181 106.879 
293.319 30.7843 107.524 292.932 32.1375 106.917 293.286 35.8645 107.093 
310.094 68.4275 106.305 327.055 69.81 106.303 330.494 68.4666 105.184 
313.226 70.1556 106.752 298.66 47.665 107.625 329.713 66.6788 107.099 
329.897 67.4508 106.706 329.392 68.1513 106.791 310.382 68.7175 107.764 
310.228 28.6789 108.523 311.313 29.1851 108.492 311.953 29.6931 109.36 
291.114 30.6178 109.483 293.282 29.5081 109.032 313.017 30.7971 109.287 
328.451 68.2404 107.381 310.005 68.4725 108.575 310.798 68.8384 108.574 
310.32 68.7683 108.552 309.317 28.0244 109.872 290.288 31.5639 109.904 
290.569 32.7672 109.634 290.543 33.5636 109.927 325.672 61.4941 110.101 
327.453 65.7957 109.159 308.179 27.546 110.575 309.302 27.8084 110.979 
295.387 45.1811 110.813 325.777 64.3023 110.573 307.064 65.6713 110.32 
325.824 66.5151 109.945 313.301 68.1274 110.862 312.642 68.1179 110.919 
309.448 67.7228 110.257 310.687 68.3675 109.866 309.97 28.1633 111.531 
309.876 28.213 112.199 287.977 29.2731 112.98 291.7 28.0724 111.967 
311.269 29.6854 112.04 325.462 64.6579 110.805 290.557 27.8645 112.844 
288.935 28.306 113.173 323.254 62.3114 112.876 306.936 26.4672 113.609 
286.674 29.3613 113.993 285.925 29.8609 114.419 311.269 31.0965 113.628 
318.278 51.1282 113.87 320.933 65.022 113.448 323.143 64.4594 112.583 
305.901 26.0612 114.092 308.316 27.1185 115.182 286.208 27.7457 115.636 
285.692 30.2273 114.589 309.976 29.9018 115.49 319.98 58.1296 115.375 
321.353 61.6324 114.766 316.013 64.8897 115.308 308.751 65.9234 114.63 
304.42 25.329 115.707 308.31 27.3245 116.378 283.599 28.7475 116.643 
308.759 28.1361 116.673 284.173 29.5747 115.95 306.254 25.5769 116.789 
282.341 28.3629 118.076 287.154 37.7793 116.831 319.32 60.5607 116.771 
317.897 63.6935 116.099 318.267 63.0637 116.488 281.636 28.99 118.621 
281.461 29.4213 118.783 282.027 30.2506 118.013 287.306 39.3983 117.777 
301.514 61.8364 117.852 316.149 63.0966 117.547 319.245 62.2305 116.397 
305.678 24.8251 119.041 307.387 26.3481 119.127 283.098 26.6487 119.078 
284.743 26.0834 118.848 281.256 28.2423 119.419 309.883 35.3704 119.603 
[...]
POINT_DATA 2049
COLOR_SCALARS scalars 3
0 0.623529 0.67451 0 0.623529 0.67451 0 0.623529 0.67451 
0 0.623529 0.67451 0 0.623529 0.67451 
0 0.623529 0.67451 0 0.623529 0.67451 
0 0.623529 0.67451 0 0.623529 0.67451 
0 0.623529 0.67451 0 0.623529 0.67451 
0 0.623529 0.67451 0 0.623529 0.67451 
0 0.623529 0.67451 0 0.623529 0.67451 
0 0.623529 0.67451 0 0.623529 0.67451 
0 0.623529 0.67451 0 0.623529 0.67451 
0 0.623529 0.67451 0 0.623529 0.67451 
0 0.623529 0.67451 0 0.623529 0.67451 
0 0.623529 0.67451 0 0.623529 0.67451 
0 0.623529 0.67451 0 0.623529 0.67451 
0 0.623529 0.67451 0 0.623529 0.67451 
0 0.623529 0.67451 0 0.623529 0.67451 
0 0.623529 0.67451 0 0.623529 0.67451 
0 0.623529 0.67451 0 0.623529 0.67451 
0 0.623529 0.67451 0 0.623529 0.67451 
0 0.623529 0.67451 0 0.623529 0.67451 
0 0.623529 0.67451 0 0.623529 0.67451 
0 0.623529 0.67451 0 0.623529 0.67451 
0 0.623529 0.67451 0 0.623529 0.67451 
0 0.623529 0.67451 0 0.623529 0.67451 
0 0.623529 0.67451 0 0.623529 0.67451 
0 0.623529 0.67451 0 0.623529 0.67451 
0 0.623529 0.67451 0 0.623529 0.67451 
0 0.623529 0.67451 0 0.623529 0.67451 
0 0.623529 0.67451 0 0.623529 0.67451 
0 0.623529 0.67451 0 0.623529 0.67451 
0 0.623529 0.67451 0 0.623529 0.67451 
0 0.623529 0.67451 0 0.623529 0.67451 
0 0.623529 0.67451 0 0.623529 0.67451 
0 0.623529 0.67451 0 0.623529 0.67451 
0 0.623529 0.67451 0 0.623529 0.67451 
0 0.623529 0.67451 0 0.623529 0.67451 
0 0.623529 0.67451 0 0.623529 0.67451 
0 0.623529 0.67451 0 0.623529 0.67451 
0 0.623529 0.67451 0 0.623529 0.67451 
0 0.623529 0.67451 0 0.623529 0.67451 
0 0.623529 0.67451 0 0.623529 0.67451 
0 0.623529 0.67451 0 0.623529 0.67451 
0 0.623529 0.67451 0 0.623529 0.67451 
0 0.623529 0.67451 0 0.623529 0.67451 
0 0.623529 0.67451 0 0.623529 0.67451 
0 0.623529 0.67451 0 0.623529 0.67451 
0 0.623529 0.67451 0 0.623529 0.67451 
0 0.623529 0.67451 0 0.623529 0.67451 
0 0.623529 0.67451 0 0.623529 0.67451 
0 0.623529 0.67451 0 0.623529 0.67451 
0 0.623529 0.67451 0 0.623529 0.67451 
0 0.623529 0.67451 0 0.623529 0.67451 
0 0.623529 0.67451 0 0.623529 0.67451 
0 0.623529 0.67451 0 0.623529 0.67451 
0 0.623529 0.67451 0 0.623529 0.67451 
0 0.623529 0.67451 0 0.623529 0.67451 
0 0.623529 0.67451 0 0.623529 0.67451 
0 0.623529 0.67451 0 0.623529 0.67451 
0 0.623529 0.67451 0 0.623529 0.67451 
0 0.623529 0.67451 0 0.623529 0.67451 
0 0.623529 0.67451 0 0.623529 0.67451 
0 0.623529 0.67451 0 0.623529 0.67451 
0 0.623529 0.67451 0 0.623529 0.67451 
0 0.623529 0.67451 0 0.623529 0.67451 
0 0.623529 0.67451 0 0.623529 0.67451 
0 0.623529 0.67451 0 0.623529 0.67451 
0 0.623529 0.67451 0 0.623529 0.67451 
0 0.623529 0.67451 0 0.623529 0.67451 
0 0.623529 0.67451 0 0.623529 0.67451 
0 0.623529 0.67451 0 0.623529 0.67451 
0 0.623529 0.67451 0 0.623529 0.67451 
0 0.623529 0.67451 0 0.623529 0.67451 
0 0.623529 0.67451 0 0.623529 0.67451 
0 0.623529 0.67451 0 0.623529 0.67451 
0 0.623529 0.67451 0 0.623529 0.67451 
0 0.623529 0.67451 0 0.623529 0.67451 
0 0.623529 0.67451 0 0.623529 0.67451 
0 0.623529 0.67451 0 0.623529 0.67451 
0 0.623529 0.67451 0 0.623529 0.67451 
0 0.623529 0.67451 0 0.623529 0.67451 
0 0.623529 0.67451 0 0.623529 0.67451 
0 0.623529 0.67451 0 0.623529 0.67451 
0 0.623529 0.67451 0 0.623529 0.67451 
0 0.623529 0.67451 0 0.623529 0.67451 
0 0.623529 0.67451 0 0.623529 0.67451 
0 0.623529 0.67451 0 0.623529 0.67451 
0 0.623529 0.67451 0 0.623529 0.67451 
0 0.623529 0.67451 0 0.623529 0.67451 
0 0.623529 0.67451 0 0.623529 0.67451 
0 0.623529 0.67451 0 0.623529 0.67451 
0 0.623529 0.67451 0 0.623529 0.67451 
0 0.623529 0.67451 0 0.623529 0.67451 
0 0.623529 0.67451 0 0.623529 0.67451 
0 0.623529 0.67451 0 0.623529 0.67451 
0 0.623529 0.67451 0 0.623529 0.67451 
0 0.623529 0.67451 0 0.623529 0.67451 
0 0.623529 0.67451 0 0.623529 0.67451 
0 0.623529 0.67451 0 0.623529 0.67451 
0 0.623529 0.67451 0 0.623529 0.67451 
0 0.623529 0.67451 0 0.623529 0.67451 
0 0.623529 0.67451 0 0.623529 0.67451 
0 0.623529 0.67451 0 0.623529 0.67451 
0 0.623529 0.67451 0 0.623529 0.67451 
0 0.623529 0.67451 0 0.623529 0.67451 
0 0.623529 0.67451 0 0.623529 0.67451 
0 0.623529 0.67451 0 0.623529 0.67451 
0 0.623529 0.67451 0 0.623529 0.67451 
0 0.623529 0.67451 0 0.623529 0.67451 
0 0.623529 0.67451 0 0.623529 0.67451 
0 0.623529 0.67451 0 0.623529 0.67451 
0 0.623529 0.67451 0 0.623529 0.67451 
0 0.623529 0.67451 0 0.623529 0.67451 
0 0.623529 0.67451 0 0.623529 0.67451 
0 0.623529 0.67451 0 0.623529 0.67451 
0 0.623529 0.67451 0 0.623529 0.67451 
0 0.623529 0.67451 0 0.623529 0.67451 
0 0.623529 0.67451 0 0.623529 0.67451 
0 0.623529 0.67451 0 0.623529 0.67451 
0 0.623529 0.67451 0 0.623529 0.67451 
0 0.623529 0.67451 0 0.623529 0.67451 
0 0.623529 0.67451 0 0.623529 0.67451 
0 0.623529 0.67451 0 0.623529 0.67451 
0 0.623529 0.67451 0 0.623529 0.67451 
0 0.623529 0.67451 0 0.623529 0.67451 
0 0.623529 0.67451 0 0.623529 0.67451 
0 0.623529 0.67451 0 0.623529 0.67451 
0 0.623529 0.67451 0 0.623529 0.67451 
0 0.623529 0.67451 0 0.623529 0.67451 
0 0.623529 0.67451 0 0.623529 0.67451 
0 0.623529 0.67451 0 0.623529 0.67451 
0 0.623529 0.67451 0 0.623529 0.67451 
0 0.623529 0.67451 0 0.623529 0.67451 
0 0.623529 0.67451 0 0.623529 0.67451 
0 0.623529 0.67451 0 0.623529 0.67451 
0 0.623529 0.67451 0 0.623529 0.67451 
0 0.623529 0.67451 0 0.623529 0.67451 
0 0.623529 0.67451 0 0.623529 0.67451 
0 0.623529 0.67451 0 0.623529 0.67451 
0 0.623529 0.67451 0 0.623529 0.67451 
0 0.623529 0.67451 0 0.623529 0.67451 
0 0.623529 0.67451 0 0.623529 0.67451 
0 0.623529 0.67451 0 0.623529 0.67451 
0 0.623529 0.67451 0 0.623529 0.67451 
0 0.623529 0.67451 0 0.623529 0.67451 
0 0.623529 0.67451 0 0.623529 0.67451 
0 0.623529 0.67451 0 0.623529 0.67451 
0 0.623529 0.67451 0 0.623529 0.67451 
0 0.623529 0.67451 0 0.623529 0.67451 
0 0.623529 0.67451 0 0.623529 0.67451 
0 0.623529 0.67451 0 0.623529 0.67451 
0 0.623529 0.67451 0 0.623529 0.67451 
0 0.623529 0.67451 0 0.623529 0.67451 
0 0.623529 0.67451 0 0.623529 0.67451 
0 0.623529 0.67451 0 0.623529 0.67451 
0 0.623529 0.67451 0 0.623529 0.67451 
0 0.623529 0.67451 0 0.623529 0.67451 
0 0.623529 0.67451 0 0.623529 0.67451 
0 0.623529 0.67451 0 0.623529 0.67451 
0 0.623529 0.67451 0 0.623529 0.67451 
0 0.623529 0.67451 0 0.623529 0.67451 
0 0.623529 0.67451 0 0.623529 0.67451 
0 0.623529 0.67451 0 0.623529 0.67451 
0 0.623529 0.67451 0 0.623529 0.67451 
0 0.623529 0.67451 0 0.623529 0.67451 
0 0.623529 0.67451 0 0.623529 0.67451 
0 0.623529 0.67451 0 0.623529 0.67451 
0 0.623529 0.67451 0 0.623529 0.67451 
0 0.623529 0.67451 0 0.623529 0.67451 
0 0.623529 0.67451 0 0.623529 0.67451 
0 0.623529 0.67451 0 0.623529 0.67451 
0 0.623529 0.67451 0 0.623529 0.67451 
0 0.623529 0.67451 0 0.623529 0.67451 
0 0.623529 0.67451 0 0.623529 0.67451 
0 0.623529 0.67451 0 0.623529 0.67451 
0 0.623529 0.67451 0 0.623529 0.67451 
0 0.623529 0.67451 0 0.623529 0.67451 
0 0.623529 0.67451 0 0.623529 0.67451 
0 0.623529 0.67451 0 0.623529 0.67451 
0 0.623529 0.67451 0 0.623529 0.67451 
0 0.623529 0.67451 0 0.623529 0.67451 
0 0.623529 0.67451 0 0.623529 0.67451 
0 0.623529 0.67451 0 0.623529 0.67451 
0 0.623529 0.67451 0 0.623529 0.67451 
0 0.623529 0.67451 0 0.623529 0.67451 
0 0.623529 0.67451 0 0.623529 0.67451 
0 0.623529 0.67451 0 0.623529 0.67451 
0 0.623529 0.67451 0 0.623529 0.67451 
0 0.623529 0.67451 0 0.623529 0.67451 
0 0.623529 0.67451 0 0.623529 0.67451 
0 0.623529 0.67451 0 0.623529 0.67451 
0 0.623529 0.67451 0 0.623529 0.67451 
0 0.623529 0.67451 0 0.623529 0.67451 
0 0.623529 0.67451 0 0.623529 0.67451 
0 0.623529 0.67451 0 0.623529 0.67451 
0 0.623529 0.67451 0 0.623529 0.67451 
0 0.623529 0.67451 0 0.623529 0.67451 
0 0.623529 0.67451 0 0.623529 0.67451 
0 0.623529 0.67451 0 0.623529 0.67451 
0 0.623529 0.67451 0 0.623529 0.67451 
0 0.623529 0.67451 0 0.623529 0.67451 
0 0.623529 0.67451 0 0.623529 0.67451 
0 0.623529 0.67451 0 0.623529 0.67451 
0 0.623529 0.67451 0 0.623529 0.67451 
0 0.623529 0.67451 0 0.623529 0.67451 
0 0.623529 0.67451 0 0.623529 0.67451 
0 0.623529 0.67451 0 0.623529 0.67451 
0 0.623529 0.67451 0 0.623529 0.67451 
0 0.623529 0.67451 0 0.623529 0.67451 
0 0.623529 0.67451 0 0.623529 0.67451 
0 0.623529 0.67451 0 0.623529 0.67451 
0 0.623529 0.67451 0 0.623529 0.67451 
0 0.623529 0.67451 0 0.623529 0.67451 
0 0.623529 0.67451 0 0.623529 0.67451 
0 0.623529 0.67451 0 0.623529 0.67451 
0 0.623529 0.67451 0 0.623529 0.67451 
0 0.623529 0.67451 0 0.623529 0.67451 
0 0.623529 0.67451 0 0.623529 0.67451 
0 0.623529 0.67451 0 0.623529 0.67451 
0 0.623529 0.67451 0 0.623529 0.67451 
0 0.623529 0.67451 0 0.623529 0.67451 
0 0.623529 0.67451 0 0.623529 0.67451 
0 0.623529 0.67451 0 0.623529 0.67451 
0 0.623529 0.67451 0 0.623529 0.67451 
0 0.623529 0.67451 0 0.623529 0.67451 
0 0.623529 0.67451 0 0.623529 0.67451 
0 0.623529 0.67451 0 0.623529 0.67451 
0 0.623529 0.67451 0 0.623529 0.67451 
0 0.623529 0.67451 0 0.623529 0.67451 
0 0.623529 0.67451 0 0.623529 0.67451 
0 0.623529 0.67451 0 0.623529 0.67451 
0 0.623529 0.67451 0 0.623529 0.67451 
0 0.623529 0.67451 0 0.623529 0.67451 
0 0.623529 0.67451 0 0.623529 0.67451 
0 0.623529 0.67451 0 0.623529 0.67451 
0 0.623529 0.67451 0 0.623529 0.67451 
0 0.623529 0.67451 0 0.623529 0.67451 
0 0.623529 0.67451 0 0.623529 0.67451 
0 0.623529 0.67451 0 0.623529 0.67451 
0 0.623529 0.67451 0 0.623529 0.67451 
0 0.623529 0.67451 0 0.623529 0.67451 
0 0.623529 0.67451 0 0.623529 0.67451 
0 0.623529 0.67451 0 0.623529 0.67451 
0 0.623529 0.67451 0 0.623529 0.67451 
0 0.623529 0.67451 0 0.623529 0.67451 
0 0.623529 0.67451 0 0.623529 0.67451 
0 0.623529 0.67451 0 0.623529 0.67451 
0 0.623529 0.67451 0 0.623529 0.67451 
0 0.623529 0.67451 0 0.623529 0.67451 
0 0.623529 0.67451 0 0.623529 0.67451 
0 0.623529 0.67451 0 0.623529 0.67451 
0 0.623529 0.67451 0 0.623529 0.67451 
0 0.623529 0.67451 0 0.623529 0.67451 
0 0.623529 0.67451 0 0.623529 0.67451 
0 0.623529 0.67451 0 0.623529 0.67451 
0 0.623529 0.67451 0 0.623529 0.67451 
0 0.623529 0.67451 0 0.623529 0.67451 
0 0.623529 0.67451 0 0.623529 0.67451 
0 0.623529 0.67451 0 0.623529 0.67451 
0 0.623529 0.67451 0 0.623529 0.67451 
0 0.623529 0.67451 0 0.623529 0.67451 
0 0.623529 0.67451 0 0.623529 0.67451 
0 0.623529 0.67451 0 0.623529 0.67451 
0 0.623529 0.67451 0 0.623529 0.67451 
0 0.623529 0.67451 0 0.623529 0.67451 
0 0.623529 0.67451 0 0.623529 0.67451 
0 0.623529 0.67451 0 0.623529 0.67451 
0 0.623529 0.67451 0 0.623529 0.67451 
0 0.623529 0.67451 0 0.623529 0.67451 
0 0.623529 0.67451 0 0.623529 0.67451 
0 0.623529 0.67451 0 0.623529 0.67451 
0 0.623529 0.67451 0 0.623529 0.67451 
0 0.623529 0.67451 0 0.623529 0.67451 
0 0.623529 0.67451 0 0.623529 0.67451 
0 0.623529 0.67451 0 0.623529 0.67451 
0 0.623529 0.67451 0 0.623529 0.67451 
0 0.623529 0.67451 0 0.623529 0.67451 
0 0.623529 0.67451 0 0.623529 0.67451 
0 0.623529 0.67451 0 0.623529 0.67451 
0 0.623529 0.67451 0 0.623529 0.67451 
0 0.623529 0.67451 0 0.623529 0.67451 
0 0.623529 0.67451 0 0.623529 0.67451 
0 0.623529 0.67451 0 0.623529 0.67451 
0 0.623529 0.67451 0 0.623529 0.67451 
0 0.623529 0.67451 0 0.623529 0.67451 
0 0.623529 0.67451 0 0.623529 0.67451 
0 0.623529 0.67451 0 0.623529 0.67451 
0 0.623529 0.67451 0 0.623529 0.67451 
0 0.623529 0.67451 0 0.623529 0.67451 
0 0.623529 0.67451 0 0.623529 0.67451 
0 0.623529 0.67451 0 0.623529 0.67451 
0 0.623529 0.67451 0 0.623529 0.67451 
0 0.623529 0.67451 0 0.623529 0.67451 
0 0.623529 0.67451 0 0.623529 0.67451 
0 0.623529 0.67451 0 0.623529 0.67451 
0 0.623529 0.67451 0 0.623529 0.67451 
0 0.623529 0.67451 0 0.623529 0.67451 
0 0.623529 0.67451 0 0.623529 0.67451 
0 0.623529 0.67451 0 0.623529 0.67451 
0 0.623529 0.67451 0 0.623529 0.67451 
0 0.623529 0.67451 0 0.623529 0.67451 
0 0.623529 0.67451 0 0.623529 0.67451 
0 0.623529 0.67451 0 0.623529 0.67451 
0 0.623529 0.67451 0 0.623529 0.67451 
0 0.623529 0.67451 0 0.623529 0.67451 
0 0.623529 0.67451 0 0.623529 0.67451 
0 0.623529 0.67451 0 0.623529 0.67451 
0 0.623529 0.67451 0 0.623529 0.67451 
0 0.623529 0.67451 0 0.623529 0.67451 
0 0.623529 0.67451 0 0.623529 0.67451 
0 0.623529 0.67451 0 0.623529 0.67451 
0 0.623529 0.67451 0 0.623529 0.67451 
0 0.623529 0.67451 0 0.623529 0.67451 
0 0.623529 0.67451 0 0.623529 0.67451 
0 0.623529 0.67451 0 0.623529 0.67451 
0 0.623529 0.67451 0 0.623529 0.67451 
0 0.623529 0.67451 0 0.623529 0.67451 
0 0.623529 0.67451 0 0.623529 0.67451 
0 0.623529 0.67451 0 0.623529 0.67451 
0 0.623529 0.67451 0 0.623529 0.67451 
0 0.623529 0.67451 0 0.623529 0.67451 
0 0.623529 0.67451 0 0.623529 0.67451 
0 0.623529 0.67451 0 0.623529 0.67451 
0 0.623529 0.67451 0 0.623529 0.67451 
0 0.623529 0.67451 0 0.623529 0.67451 
0 0.623529 0.67451 0 0.623529 0.67451 
0 0.623529 0.67451 0 0.623529 0.67451 
0 0.623529 0.67451 0 0.623529 0.67451 
0 0.623529 0.67451 0 0.623529 0.67451 
0 0.623529 0.67451 0 0.623529 0.67451 
0 0.623529 0.67451 0 0.623529 0.67451 
0 0.623529 0.67451 0 0.623529 0.67451 
0 0.623529 0.67451 0 0.623529 0.67451 
0 0.623529 0.67451 0 0.623529 0.67451 
0 0.623529 0.67451 0 0.623529 0.67451 
0 0.623529 0.67451 0 0.623529 0.67451 
0 0.623529 0.67451 0 0.623529 0.67451 
0 0.623529 0.67451 0 0.623529 0.67451 
0 0.623529 0.67451 0 0.623529 0.67451 
0 0.623529 0.67451 0 0.623529 0.67451 
0 0.623529 0.67451 0 0.623529 0.67451 
0 0.623529 0.67451 0 0.623529 0.67451 
0 0.623529 0.67451 0 0.623529 0.67451 
0 0.623529 0.67451 0 0.623529 0.67451 
0 0.623529 0.67451 0 0.623529 0.67451 
0 0.623529 0.67451 0 0.623529 0.67451 
0 0.623529 0.67451 0 0.623529 0.67451 
0 0.623529 0.67451 0 0.623529 0.67451 
0 0.623529 0.67451 0 0.623529 0.67451 
0 0.623529 0.67451 0 0.623529 0.67451 
0 0.623529 0.67451 0 0.623529 0.67451 
0 0.623529 0.67451 0 0.623529 0.67451 
0 0.623529 0.67451 0 0.623529 0.67451 
0 0.623529 0.67451 0 0.623529 0.67451 
0 0.623529 0.67451 0 0.623529 0.67451 
0 0.623529 0.67451 0 0.623529 0.67451 
0 0.623529 0.67451 0 0.623529 0.67451 
0 0.623529 0.67451 0 0.623529 0.67451 
0 0.623529 0.67451 0 0.623529 0.67451 
0 0.623529 0.67451 0 0.623529 0.67451 
0 0.623529 0.67451 0 0.623529 0.67451 
0 0.623529 0.67451 0 0.623529 0.67451 
0 0.623529 0.67451 0 0.623529 0.67451 
0 0.623529 0.67451 0 0.623529 0.67451 
0 0.623529 0.67451 0 0.623529 0.67451 
0 0.623529 0.67451 0 0.623529 0.67451 
0 0.623529 0.67451 0 0.623529 0.67451 
0 0.623529 0.67451 0 0.623529 0.67451 
0 0.623529 0.67451 0 0.623529 0.67451 
0 0.623529 0.67451 0 0.623529 0.67451 
0 0.623529 0.67451 0 0.623529 0.67451 
0 0.623529 0.67451 0 0.623529 0.67451 
0 0.623529 0.67451 0 0.623529 0.67451 
0 0.623529 0.67451 0 0.623529 0.67451 
0 0.623529 0.67451 0 0.623529 0.67451 
0 0.623529 0.67451 0 0.623529 0.67451 
0 0.623529 0.67451 0 0.623529 0.67451 
0 0.623529 0.67451 0 0.623529 0.67451 
0 0.623529 0.67451 0 0.623529 0.67451 
0 0.623529 0.67451 0 0.623529 0.67451 
0 0.623529 0.67451 0 0.623529 0.67451 
0 0.623529 0.67451 0 0.623529 0.67451 
0 0.623529 0.67451 0 0.623529 0.67451 
0 0.623529 0.67451 0 0.623529 0.67451 
0 0.623529 0.67451 0 0.623529 0.67451 
0 0.623529 0.67451 0 0.623529 0.67451 
0 0.623529 0.67451 0 0.623529 0.67451 
0 0.623529 0.67451 0 0.623529 0.67451 
0 0.623529 0.67451 0 0.623529 0.67451 
0 0.623529 0.67451 0 0.623529 0.67451 
0 0.623529 0.67451 0 0.623529 0.67451 
0 0.623529 0.67451 0 0.623529 0.67451 
0 0.623529 0.67451 0 0.623529 0.67451 
0 0.623529 0.67451 0 0.623529 0.67451 
0 0.623529 0.67451 0 0.623529 0.67451 
0 0.623529 0.67451 0 0.623529 0.67451 
0 0.623529 0.67451 0 0.623529 0.67451 
0 0.623529 0.67451 0 0.623529 0.67451 
0 0.623529 0.67451 0 0.623529 0.67451 
0 0.623529 0.67451 0 0.623529 0.67451 
0 0.623529 0.67451 0 0.623529 0.67451 
0 0.623529 0.67451 0 0.623529 0.67451 
0 0.623529 0.67451 0 0.623529 0.67451 
0 0.623529 0.67451 0 0.623529 0.67451 
0 0.623529 0.67451 0 0.623529 0.67451 
0 0.623529 0.67451 0 0.623529 0.67451 
0 0.623529 0.67451 0 0.623529 0.67451 
0 0.623529 0.67451 0 0.623529 0.67451 
0 0.623529 0.67451 0 0.623529 0.67451 
0 0.623529 0.67451 0 0.623529 0.67451 
0 0.623529 0.67451 0 0.623529 0.67451 
0 0.623529 0.67451 0 0.623529 0.67451 
0 0.623529 0.67451 0 0.623529 0.67451 
0 0.623529 0.67451 0 0.623529 0.67451 
0 0.623529 0.67451 0 0.623529 0.67451 
0 0.623529 0.67451 0 0.623529 0.67451 
0 0.623529 0.67451 0 0.623529 0.67451 
0 0.623529 0.67451 0 0.623529 0.67451 
0 0.623529 0.67451 0 0.623529 0.67451 
0 0.623529 0.67451 0 0.623529 0.67451 
0 0.623529 0.67451 0 0.623529 0.67451 
0 0.623529 0.67451 0 0.623529 0.67451 
0 0.623529 0.67451 0 0.623529 0.67451 
0 0.623529 0.67451 0 0.623529 0.67451 
0 0.623529 0.67451 0 0.623529 0.67451 
0 0.623529 0.67451 0 0.623529 0.67451 
0 0.623529 0.67451 0 0.623529 0.67451 
0 0.623529 0.67451 0 0.623529 0.67451 
0 0.623529 0.67451 0 0.623529 0.67451 
0 0.623529 0.67451 0 0.623529 0.67451 
0 0.623529 0.67451 0 0.623529 0.67451 
0 0.623529 0.67451 0 0.623529 0.67451 
0 0.623529 0.67451 0 0.623529 0.67451 
0 0.623529 0.67451 0 0.623529 0.67451 
0 0.623529 0.67451 0 0.623529 0.67451 
0 0.623529 0.67451 0 0.623529 0.67451 
0 0.623529 0.67451 0 0.623529 0.67451 
0 0.623529 0.67451 0 0.623529 0.67451 
0 0.623529 0.67451 0 0.623529 0.67451 
0 0.623529 0.67451 0 0.623529 0.67451 
0 0.623529 0.67451 0 0.623529 0.67451 
0 0.623529 0.67451 0 0.623529 0.67451 
0 0.623529 0.67451 0 0.623529 0.67451 
0 0.623529 0.67451 0 0.623529 0.67451 
0 0.623529 0.67451 0 0.623529 0.67451 
0 0.623529 0.67451 0 0.623529 0.67451 
0 0.623529 0.67451 0 0.623529 0.67451 
0 0.623529 0.67451 0 0.623529 0.67451 
0 0.623529 0.67451 0 0.623529 0.67451 
0 0.623529 0.67451 0 0.623529 0.67451 
0 0.623529 0.67451 0 0.623529 0.67451 
0 0.623529 0.67451 0 0.623529 0.67451 
0 0.623529 0.67451 0 0.623529 0.67451 
0 0.623529 0.67451 0 0.623529 0.67451 
0 0.623529 0.67451 0 0.623529 0.67451 
0 0.623529 0.67451 0 0.623529 0.67451 
0 0.623529 0.67451 0 0.623529 0.67451 
0 0.623529 0.67451 0 0.623529 0.67451 
0 0.623529 0.67451 0 0.623529 0.67451 
0 0.623529 0.67451 0 0.623529 0.67451 
0 0.623529 0.67451 0 0.623529 0.67451 
0 0.623529 0.67451 0 0.623529 0.67451 
0 0.623529 0.67451 0 0.623529 0.67451 
0 0.623529 0.67451 0 0.623529 0.67451 
0 0.623529 0.67451 0 0.623529 0.67451 
0 0.623529 0.67451 0 0.623529 0.67451 
0 0.623529 0.67451 0 0.623529 0.67451 
0 0.623529 0.67451 0 0.623529 0.67451 
0 0.623529 0.67451 0 0.623529 0.67451 
0 0.623529 0.67451 0 0.623529 0.67451 
0 0.623529 0.67451 0 0.623529 0.67451 
0 0.623529 0.67451 0 0.623529 0.67451 
0 0.623529 0.67451 0 0.623529 0.67451 
0 0.623529 0.67451 0 0.623529 0.67451 
0 0.623529 0.67451 0 0.623529 0.67451 
0 0.623529 0.67451 0 0.623529 0.67451 
0 0.623529 0.67451 0 0.623529 0.67451 
0 0.623529 0.67451 0 0.623529 0.67451 
0 0.623529 0.67451 0 0.623529 0.67451 
0 0.623529 0.67451 0 0.623529 0.67451 
0 0.623529 0.67451 0 0.623529 0.67451 
0 0.623529 0.67451 0 0.623529 0.67451 
0 0.623529 0.67451 0 0.623529 0.67451 
0 0.623529 0.67451 0 0.623529 0.67451 
0 0.623529 0.67451 0 0.623529 0.67451 
0 0.623529 0.67451 0 0.623529 0.67451 
0 0.623529 0.67451 0 0.623529 0.67451 
0 0.623529 0.67451 0 0.623529 0.67451 
0 0.623529 0.67451 0 0.623529 0.67451 
0 0.623529 0.67451 0 0.623529 0.67451 
0 0.623529 0.67451 0 0.623529 0.67451 
0 0.623529 0.67451 0 0.623529 0.67451 
0 0.623529 0.67451 0 0.623529 0.67451 
0 0.623529 0.67451 0 0.623529 0.67451 
0 0.623529 0.67451 0 0.623529 0.67451 
0 0.623529 0.67451 0 0.623529 0.67451 
0 0.623529 0.67451 0 0.623529 0.67451 
0 0.623529 0.67451 0 0.623529 0.67451 
0 0.623529 0.67451 0 0.623529 0.67451 
0 0.623529 0.67451 0 0.623529 0.67451 
0 0.623529 0.67451 0 0.623529 0.67451 
0 0.623529 0.67451 0 0.623529 0.67451 
0 0.623529 0.67451 0 0.623529 0.67451 
0 0.623529 0.67451 0 0.623529 0.67451 
0 0.623529 0.67451 0 0.623529 0.67451 
0 0.623529 0.67451 0 0.623529 0.67451 
0 0.623529 0.67451 0 0.623529 0.67451 
0 0.623529 0.67451 0 0.623529 0.67451 
0 0.623529 0.67451 0 0.623529 0.67451 
0 0.623529 0.67451 0 0.623529 0.67451 
0 0.623529 0.67451 0 0.623529 0.67451 
0 0.623529 0.67451 0 0.623529 0.67451 
0 0.623529 0.67451 0 0.623529 0.67451 