# vtk DataFile Version 4.2
vtk output
ASCII
DATASET POLYDATA
POINTS 831 float
261.567 224.026 189.101 262.736 223.906 189.039 261.951 224.276 188.927 
264.493 224.036 189.491 264.765 224.464 189.479 262.81 225.185 188.847 
263.601 224.814 188.935 264.026 225.336 189.057 264.542 225.277 189.234 
260.183 223.182 190.103 262.788 222.959 189.896 263.415 223.184 189.694 
259.443 223.945 189.919 258.929 223.68 190.324 264.409 223.763 189.627 
259.063 224.911 189.836 259.1 225.361 189.842 265.599 225.011 190.133 
265.855 225.347 190.328 259.492 225.636 189.696 265.172 226.154 189.646 
260.621 226.827 189.656 266.102 226.651 190.509 263.954 227.573 189.619 
265.977 227.244 190.417 259.863 222.984 190.444 259.43 223.012 190.629 
263.167 222.909 190.204 258.493 223.97 190.476 264.991 224.068 190.119 
259.456 227.395 190.408 262.652 227.757 189.766 266.042 227.612 190.55 
264.515 228.48 190.202 265.493 228.222 190.449 259.12 222.94 190.989 
258.979 222.761 191.622 259.666 222.522 191.716 266.011 225.117 191.122 
257.944 226.322 191.05 266.806 227.374 191.38 266.967 227.346 191.709 
266.777 227.68 191.36 262.83 228.936 190.59 263.712 228.925 190.506 
260.314 229.425 191.823 266.259 229.05 191.668 261.965 229.948 191.841 
261.696 222.41 191.937 257.032 223.872 192.187 256.659 223.922 192.71 
263.684 222.962 191.764 256.399 224.587 192.784 256.235 225.345 192.974 
256.684 225.789 192.367 266.934 227.048 191.912 257.848 227.764 191.921 
267.036 227.871 192.03 258.134 228.672 192.67 266.607 228.909 191.938 
261.995 230.388 192.441 261.733 230.541 192.872 265.821 229.818 192.018 
264.511 230.775 192.705 256.456 223.637 193.357 256.115 223.839 193.791 
262.335 222.59 193.262 264.686 223.61 192.733 256.527 226.621 192.947 
267.022 227.534 192.499 266.767 228.906 192.497 265.107 230.711 192.977 
265.398 230.566 193.12 264.761 230.934 193.562 256.78 223.027 194.234 
256.312 223.279 194.731 255.414 224.875 194.877 255.678 225.539 194.06 
255.694 225.975 194.2 257.196 228.583 194.325 259.489 230.193 194.22 
265.529 230.483 193.582 265.033 230.753 193.955 256.24 223.194 195.253 
256.034 223.283 195.44 255.908 223.51 195.215 265.039 224.406 194.655 
255.144 225.66 195.762 255.342 226.408 195.636 266.424 227.464 194.326 
266.342 228.956 194.023 260.051 230.671 195.679 265.845 230.122 193.9 
265.69 230.078 194.429 261.696 230.978 195.406 263.405 231.125 194.734 
256.16 223.227 196.514 260.163 222.488 195.998 255.158 224.57 196.111 
254.977 225.232 196.322 263.703 230.74 195.806 255.216 223.895 197.363 
257.519 222.697 197.281 261.596 222.807 196.431 263.12 223.43 196.305 
254.67 224.904 197.743 254.549 225.525 197.963 254.699 225.924 197.43 
254.85 226.528 197.406 265.622 227.56 196.172 256.42 229.002 197.488 
261.981 230.89 196.847 256.025 223.141 198.506 260.755 222.746 197.502 
254.705 224.432 198.396 254.754 226.881 198.278 264.521 228.531 198.369 
263.559 229.852 198.684 254.879 223.947 199.108 264.073 225.079 198.69 
254.448 226.442 198.998 264.539 226.566 198.868 264.521 227.647 198.999 
253.986 225.434 200.628 264.219 225.979 199.792 263.497 229.57 200.385 
263.746 229.118 200.857 263.041 230.026 200.202 254.212 223.79 201.752 
253.669 224.809 202.113 263.893 225.388 200.516 254.001 226.74 201.482 
264.156 227.741 201.192 263.981 228.469 201.472 261.717 230.686 200.711 
261.357 223.163 200.517 262.554 223.872 201.321 253.594 225.474 202.247 
262.329 230.418 201.459 262.898 230.048 202.196 254.154 222.896 204.045 
264.195 226.954 203.021 263.382 229.603 202.819 263.717 229.181 203.327 
259.268 231.033 203.643 254.59 222.427 204.779 263.86 225.286 203.602 
264.171 226.15 203.85 264.185 228.367 204.405 257.955 230.824 203.931 
261.694 230.796 203.762 254.043 222.489 205.714 253.667 223.065 205.088 
254.914 222.23 205.099 253.249 223.63 205.357 263.507 224.599 203.775 
253.74 227.808 205.211 262.386 230.579 204.439 252.934 223.649 206.465 
263.049 223.59 205.452 256.931 230.844 206.718 253.763 221.776 207.92 
253.537 222.253 207.237 252.562 224.536 207.334 265.119 226.727 207.537 
264.722 228.197 206.813 264.59 229.099 207.626 261.747 231.133 206.889 
253.565 221.583 208.796 252.663 222.742 208.377 252.427 223.807 208.791 
252.501 224.75 207.851 253.199 227.43 208.127 253.876 228.638 207.582 
264.223 229.749 207.888 252.856 222.083 209.13 254.16 221.111 209.336 
255.918 221.04 208.442 260.05 221.545 208.031 265.679 228.036 209.831 
253.539 221.06 210.408 265.651 224.877 209.76 252.814 226.101 209.625 
266.12 226.627 210.641 265.567 228.503 210.009 256.753 220.417 211.183 
252.993 221.337 211.025 252.717 221.816 211.081 252.531 222.725 211.32 
264.608 222.621 210.811 265.448 223.978 210.334 255.328 230.622 210.601 
262.969 231.505 211.057 259.654 232.295 211.758 260.337 232.238 211.549 
252.748 221.117 212.521 253.676 220.6 212.498 260.578 220.496 212.105 
262.866 221.021 211.665 252.505 221.294 212.994 252.42 221.635 212.768 
252.524 222.5 212.669 252.923 224.14 211.998 252.004 227.013 212.009 
252.004 227.013 212.009 252.004 227.013 212.009 252.004 227.013 212.009 
252.004 227.013 212.009 253.918 228.374 211.427 254.827 230.127 211.498 
258.491 232.346 212.53 261.899 232.114 212.082 252.99 220.752 213.325 
252.455 221.146 213.806 262.841 220.944 212.964 263.682 221.335 212.673 
264.256 221.739 212.682 252.353 221.943 213.586 265.246 222.84 212.051 
253.1 223.818 212.741 253.408 223.648 213.603 254.372 224.967 213.762 
254.612 224.793 214.154 252.004 227.013 212.009 254.812 229.884 212.749 
265.538 230.036 213.133 256.084 231.612 213.314 257.551 232.389 213.586 
252.438 220.99 214.753 252.252 221.339 214.523 253.692 220.615 214.48 
266.346 223.903 213.439 254.751 229.155 213.35 252.05 221.058 215.725 
252.41 220.933 215.514 252.086 221.434 215.342 255.615 225.838 215.574 
255.258 230.383 213.984 255.714 231.476 214.8 255.753 231.606 214.71 
255.696 231.442 214.587 255.867 231.692 214.55 251.782 221.143 216.241 
253.175 220.873 215.718 255.384 221.037 216.295 262.219 221.043 215.237 
264.653 222.014 215.581 267.522 226.769 216.83 255.809 230.849 215.593 
256.244 232.154 215.183 256.485 232.31 215.197 256.351 232.232 215.432 
257.42 232.96 216.514 251.885 221.037 216.68 252.949 221.081 216.5 
252.35 221.62 216.632 252.831 221.861 217.248 265.539 222.763 216.58 
266.495 223.883 216.797 267.209 225.076 216.977 267.521 226.015 217.69 
267.393 227.955 216.953 256.445 232.166 216.109 256.821 232.479 216.994 
256.951 233.23 217.466 256.932 233.3 217.445 256.933 233.268 217.415 
257 233.131 217.356 256.96 233.008 217.471 257.352 233.148 217.205 
258.01 233.39 217.11 257.215 233.291 217.584 257.8 233.469 217.755 
259.445 233.92 217.827 251.41 221.066 217.142 252.05 221.129 216.964 
252.627 221.436 217.192 252.051 221.248 217.116 251.49 221.124 217.028 
251.938 221.303 217.006 253.389 221.625 217.881 252.941 221.806 218.077 
255.609 221.79 217.932 261.281 221.613 217.814 253.165 222.062 217.955 
254.521 222.895 217.56 255.323 223.282 218.367 265.894 223.235 217.312 
265.766 231.203 217.427 257.002 233.29 217.512 257.088 233.194 217.684 
257.087 232.864 217.92 257.487 233.303 218.235 258.293 233.765 218.673 
251.481 221.074 217.316 251.712 221.157 217.197 251.489 221.132 217.249 
252.972 221.846 218.689 252.755 221.916 219.007 254.414 221.927 218.208 
255.26 222.468 218.515 254.417 222.186 218.361 264.105 222.19 217.792 
252.881 221.953 218.727 254.101 222.313 218.213 256.554 222.623 219.704 
255.878 223.18 219.498 266.752 224.57 218.988 257.744 233.289 219.567 
258.206 234.085 220.087 251.249 221.046 217.52 251.217 221.042 217.525 
251.323 221.07 217.45 251.219 221.048 217.548 251.26 221.06 217.475 
253.113 221.91 218.855 253.627 221.92 218.532 253.918 222.064 218.446 
252.928 221.993 218.978 253.431 222.065 218.619 256.339 223.104 220.604 
255.933 224.164 219.725 265.91 223.864 219.688 263.597 233.461 219.587 
251.2 221.042 217.561 252.524 221.956 219.493 252.74 221.948 219.272 
253.033 221.976 218.989 252.762 221.972 219.249 253.341 221.973 218.75 
252.629 221.97 219.362 256.016 223.727 220.878 267.525 227.427 220.415 
267.217 228.99 220.891 258.072 233.811 222.031 261.799 234.472 220.806 
259.697 234.948 221.262 260.019 235.077 221.813 252.531 221.964 219.532 
252.607 221.966 219.436 252.516 221.969 219.543 256.036 223.517 222.007 
264.272 223.296 220.825 265.788 224.636 221.69 267.267 226.839 221.206 
267.292 228.541 221.181 266.449 230.414 221.502 258.822 234.994 222.875 
259.337 235.127 222.59 259.877 235.137 222.43 252.476 221.968 219.597 
256.156 223.497 222.502 257.897 223.152 222.474 256.002 223.687 222.135 
256.053 223.989 221.903 265.051 224.597 222.69 267.195 227.695 221.68 
265.564 231.624 221.879 265.879 231.058 222.24 264.828 232.39 222.072 
258.055 233.507 223.334 258.535 235.01 223.8 258.849 235.225 223.42 
259.226 235.246 223.33 260.304 235.053 223.028 258.714 235.232 223.695 
256.141 223.619 222.646 256.037 223.576 222.52 256.006 223.653 222.419 
256.325 224.168 222.647 256.48 224.632 222.626 256.893 225.09 223.212 
258.101 232.958 223.913 261.452 234.139 224.175 260.815 234.726 223.883 
259.253 235.325 223.943 256.074 223.694 222.578 257.198 223.911 223.302 
256.712 224.277 223.072 266.18 227.205 223.689 265.496 228.379 225.158 
265.096 229.441 225.399 262.926 232.892 224.422 260.862 234.271 224.573 
258.679 235.2 224.567 258.939 235.374 224.19 257.92 224.615 224.424 
260.312 224.593 225.856 264.817 226.362 225.5 257.979 228.59 225.826 
265.408 227.875 225.343 258.34 229.807 225.934 263.397 231.575 225.607 
258.775 235.227 224.715 258.92 235.359 224.507 259.085 235.268 224.624 
258.785 235.319 224.603 258.518 225.17 225.667 259.576 224.808 226.091 
258.558 225.709 226.484 258.079 226.76 226.342 262.282 225.149 226.927 
258.062 227.626 226.737 264.527 227.185 227.54 264.87 227.976 226.69 
259.071 230.6 226.437 264.59 229.156 226.893 259.154 231.479 225.889 
259.898 231.236 226.557 260.421 230.992 227.179 260.753 231.284 226.855 
263.904 230.273 226.833 261.36 231.522 226.652 262.753 231.17 226.681 
[...]
POINT_DATA 831
COLOR_SCALARS scalars 3
1 0.298039 0.243137 1 0.298039 0.243137 1 0.298039 0.243137 
1 0.298039 0.243137 1 0.298039 0.243137 
1 0.298039 0.243137 1 0.298039 0.243137 
1 0.298039 0.243137 1 0.298039 0.243137 
1 0.298039 0.243137 1 0.298039 0.243137 
1 0.298039 0.243137 1 0.298039 0.243137 
1 0.298039 0.243137 1 0.298039 0.243137 
1 0.298039 0.243137 1 0.298039 0.243137 
1 0.298039 0.243137 1 0.298039 0.243137 
1 0.298039 0.243137 1 0.298039 0.243137 
1 0.298039 0.243137 1 0.298039 0.243137 
1 0.298039 0.243137 1 0.298039 0.243137 
1 0.298039 0.243137 1 0.298039 0.243137 
1 0.298039 0.243137 1 0.298039 0.243137 
1 0.298039 0.243137 1 0.298039 0.243137 
1 0.298039 0.243137 1 0.298039 0.243137 
1 0.298039 0.243137 1 0.298039 0.243137 
1 0.298039 0.243137 1 0.298039 0.243137 
1 0.298039 0.243137 1 0.298039 0.243137 
1 0.298039 0.243137 1 0.298039 0.243137 
1 0.298039 0.243137 1 0.298039 0.243137 
1 0.298039 0.243137 1 0.298039 0.243137 
1 0.298039 0.243137 1 0.298039 0.243137 
1 0.298039 0.243137 1 0.298039 0.243137 
1 0.298039 0.243137 1 0.298039 0.243137 
1 0.298039 0.243137 1 0.298039 0.243137 
1 0.298039 0.243137 1 0.298039 0.243137 
1 0.298039 0.243137 1 0.298039 0.243137 
1 0.298039 0.243137 1 0.298039 0.243137 
1 0.298039 0.243137 1 0.298039 0.243137 
1 0.298039 0.243137 1 0.298039 0.243137 
1 0.298039 0.243137 1 0.298039 0.243137 
1 0.298039 0.243137 1 0.298039 0.243137 
1 0.298039 0.243137 1 0.298039 0.243137 
1 0.298039 0.243137 1 0.298039 0.243137 
1 0.298039 0.243137 1 0.298039 0.243137 
1 0.298039 0.243137 1 0.298039 0.243137 
1 0.298039 0.243137 1 0.298039 0.243137 
1 0.298039 0.243137 1 0.298039 0.243137 
1 0.298039 0.243137 1 0.298039 0.243137 
1 0.298039 0.243137 1 0.298039 0.243137 
1 0.298039 0.243137 1 0.298039 0.243137 
1 0.298039 0.243137 1 0.298039 0.243137 
1 0.298039 0.243137 1 0.298039 0.243137 
1 0.298039 0.243137 1 0.298039 0.243137 
1 0.298039 0.243137 1 0.298039 0.243137 
1 0.298039 0.243137 1 0.298039 0.243137 
1 0.298039 0.243137 1 0.298039 0.243137 
1 0.298039 0.243137 1 0.298039 0.243137 
1 0.298039 0.243137 1 0.298039 0.243137 
1 0.298039 0.243137 1 0.298039 0.243137 
1 0.298039 0.243137 1 0.298039 0.243137 
1 0.298039 0.243137 1 0.298039 0.243137 
1 0.298039 0.243137 1 0.298039 0.243137 
1 0.298039 0.243137 1 0.298039 0.243137 
1 0.298039 0.243137 1 0.298039 0.243137 
1 0.298039 0.243137 1 0.298039 0.243137 
1 0.298039 0.243137 1 0.298039 0.243137 
1 0.298039 0.243137 1 0.298039 0.243137 
1 0.298039 0.243137 1 0.298039 0.243137 
1 0.298039 0.243137 1 0.298039 0.243137 
1 0.298039 0.243137 1 0.298039 0.243137 
1 0.298039 0.243137 1 0.298039 0.243137 
1 0.298039 0.243137 1 0.298039 0.243137 
1 0.298039 0.243137 1 0.298039 0.243137 
1 0.298039 0.243137 1 0.298039 0.243137 
1 0.298039 0.243137 1 0.298039 0.243137 
1 0.298039 0.243137 1 0.298039 0.243137 
1 0.298039 0.243137 1 0.298039 0.243137 
1 0.298039 0.243137 1 0.298039 0.243137 
1 0.298039 0.243137 1 0.298039 0.243137 
1 0.298039 0.243137 1 0.298039 0.243137 
1 0.298039 0.243137 1 0.298039 0.243137 
1 0.298039 0.243137 1 0.298039 0.243137 
1 0.298039 0.243137 1 0.298039 0.243137 
1 0.298039 0.243137 1 0.298039 0.243137 
1 0.298039 0.243137 1 0.298039 0.243137 
1 0.298039 0.243137 1 0.298039 0.243137 
1 0.298039 0.243137 1 0.298039 0.243137 
1 0.298039 0.243137 1 0.298039 0.243137 
1 0.298039 0.243137 1 0.298039 0.243137 
1 0.298039 0.243137 1 0.298039 0.243137 
1 0.298039 0.243137 1 0.298039 0.243137 
1 0.298039 0.243137 1 0.298039 0.243137 
1 0.298039 0.243137 1 0.298039 0.243137 
1 0.298039 0.243137 1 0.298039 0.243137 
1 0.298039 0.243137 1 0.298039 0.243137 
1 0.298039 0.243137 1 0.298039 0.243137 
1 0.298039 0.243137 1 0.298039 0.243137 
1 0.298039 0.243137 1 0.298039 0.243137 
1 0.298039 0.243137 1 0.298039 0.243137 
1 0.298039 0.243137 1 0.298039 0.243137 
1 0.298039 0.243137 1 0.298039 0.243137 
1 0.298039 0.243137 1 0.298039 0.243137 
1 0.298039 0.243137 1 0.298039 0.243137 
1 0.298039 0.243137 1 0.298039 0.243137 
1 0.298039 0.243137 1 0.298039 0.243137 
1 0.298039 0.243137 1 0.298039 0.243137 
1 0.298039 0.243137 1 0.298039 0.243137 
1 0.298039 0.243137 1 0.298039 0.243137 
1 0.298039 0.243137 1 0.298039 0.243137 
1 0.298039 0.243137 1 0.298039 0.243137 
1 0.298039 0.243137 1 0.298039 0.243137 
1 0.298039 0.243137 1 0.298039 0.243137 
1 0.298039 0.243137 1 0.298039 0.243137 
1 0.298039 0.243137 1 0.298039 0.243137 
1 0.298039 0.243137 1 0.298039 0.243137 
1 0.298039 0.243137 1 0.298039 0.243137 
1 0.298039 0.243137 1 0.298039 0.243137 
1 0.298039 0.243137 1 0.298039 0.243137 
1 0.298039 0.243137 1 0.298039 0.243137 
1 0.298039 0.243137 1 0.298039 0.243137 
1 0.298039 0.243137 1 0.298039 0.243137 
1 0.298039 0.243137 1 0.298039 0.243137 
1 0.298039 0.243137 1 0.298039 0.243137 
1 0.298039 0.243137 1 0.298039 0.243137 
1 0.298039 0.243137 1 0.298039 0.243137 
1 0.298039 0.243137 1 0.298039 0.243137 
1 0.298039 0.243137 1 0.298039 0.243137 
1 0.298039 0.243137 1 0.298039 0.243137 
1 0.298039 0.243137 1 0.298039 0.243137 
1 0.298039 0.243137 1 0.298039 0.243137 
1 0.298039 0.243137 1 0.298039 0.243137 
1 0.298039 0.243137 1 0.298039 0.243137 
1 0.298039 0.243137 1 0.298039 0.243137 
1 0.298039 0.243137 1 0.298039 0.243137 
1 0.298039 0.243137 1 0.298039 0.243137 
1 0.298039 0.243137 1 0.298039 0.243137 
1 0.298039 0.243137 1 0.298039 0.243137 
1 0.298039 0.243137 1 0.298039 0.243137 
1 0.298039 0.243137 1 0.298039 0.243137 
1 0.298039 0.243137 1 0.298039 0.243137 
1 0.298039 0.243137 1 0.298039 0.243137 
1 0.298039 0.243137 1 0.298039 0.243137 
1 0.298039 0.243137 1 0.298039 0.243137 
1 0.298039 0.243137 1 0.298039 0.243137 
1 0.298039 0.243137 1 0.298039 0.243137 
1 0.298039 0.243137 1 0.298039 0.243137 
1 0.298039 0.243137 1 0.298039 0.243137 
1 0.298039 0.243137 1 0.298039 0.243137 
1 0.298039 0.243137 1 0.298039 0.243137 
1 0.298039 0.243137 1 0.298039 0.243137 
1 0.298039 0.243137 1 0.298039 0.243137 
1 0.298039 0.243137 1 0.298039 0.243137 
1 0.298039 0.243137 1 0.298039 0.243137 
1 0.298039 0.243137 1 0.298039 0.243137 
1 0.298039 0.243137 1 0.298039 0.243137 
1 0.298039 0.243137 1 0.298039 0.243137 
1 0.298039 0.243137 1 0.298039 0.243137 
1 0.298039 0.243137 1 0.298039 0.243137 
1 0.298039 0.243137 1 0.298039 0.243137 
1 0.298039 0.243137 1 0.298039 0.243137 
1 0.298039 0.243137 1 0.298039 0.243137 
1 0.298039 0.243137 1 0.298039 0.243137 
1 0.298039 0.243137 1 0.298039 0.243137 
1 0.298039 0.243137 1 0.298039 0.243137 
1 0.298039 0.243137 1 0.298039 0.243137 
1 0.298039 0.243137 1 0.298039 0.243137 
1 0.298039 0.243137 1 0.298039 0.243137 
1 0.298039 0.243137 1 0.298039 0.243137 
1 0.298039 0.243137 1 0.298039 0.243137 
1 0.298039 0.243137 1 0.298039 0.243137 
1 0.298039 0.243137 1 0.298039 0.243137 
1 0.298039 0.243137 1 0.298039 0.243137 
1 0.298039 0.243137 1 0.298039 0.243137 
1 0.298039 0.243137 1 0.298039 0.243137 
1 0.298039 0.243137 1 0.298039 0.243137 
1 0.298039 0.243137 1 0.298039 0.243137 
1 0.298039 0.243137 1 0.298039 0.243137 
1 0.298039 0.243137 1 0.298039 0.243137 
1 0.298039 0.243137 1 0.298039 0.243137 
1 0.298039 0.243137 1 0.298039 0.243137 
1 0.298039 0.243137 1 0.298039 0.243137 
1 0.298039 0.243137 1 0.298039 0.243137 
1 0.298039 0.243137 1 0.298039 0.243137 
1 0.298039 0.243137 1 0.298039 0.243137 
1 0.298039 0.243137 1 0.298039 0.243137 
1 0.298039 0.243137 1 0.298039 0.243137 
1 0.298039 0.243137 1 0.298039 0.243137 
1 0.298039 0.243137 1 0.298039 0.243137 
1 0.298039 0.243137 1 0.298039 0.243137 
1 0.298039 0.243137 1 0.298039 0.243137 
1 0.298039 0.243137 1 0.298039 0.243137 
1 0.298039 0.243137 1 0.298039 0.243137 
1 0.298039 0.243137 1 0.298039 0.243137 
1 0.298039 0.243137 1 0.298039 0.243137 
1 0.298039 0.243137 1 0.298039 0.243137 
1 0.298039 0.243137 1 0.298039 0.243137 
1 0.298039 0.243137 1 0.298039 0.243137 
1 0.298039 0.243137 1 0.298039 0.243137 
1 0.298039 0.243137 1 0.298039 0.243137 
1 0.298039 0.243137 1 0.298039 0.243137 
1 0.298039 0.243137 1 0.298039 0.243137 
1 0.298039 0.243137 1 0.298039 0.243137 
1 0.298039 0.243137 1 0.298039 0.243137 
1 0.298039 0.243137 1 0.298039 0.243137 
1 0.298039 0.243137 1 0.298039 0.243137 
1 0.298039 0.243137 1 0.298039 0.243137 
1 0.298039 0.243137 1 0.298039 0.243137 
1 0.298039 0.243137 1 0.298039 0.243137 
1 0.298039 0.243137 1 0.298039 0.243137 
1 0.298039 0.243137 1 0.298039 0.243137 
1 0.298039 0.243137 1 0.298039 0.243137 
1 0.298039 0.243137 1 0.298039 0.243137 
1 0.298039 0.243137 1 0.298039 0.243137 
1 0.298039 0.243137 1 0.298039 0.243137 
1 0.298039 0.243137 1 0.298039 0.243137 
1 0.298039 0.243137 1 0.298039 0.243137 
1 0.298039 0.243137 1 0.298039 0.243137 
1 0.298039 0.243137 1 0.298039 0.243137 
1 0.298039 0.243137 1 0.298039 0.243137 
1 0.298039 0.243137 1 0.298039 0.243137 
1 0.298039 0.243137 1 0.298039 0.243137 
1 0.298039 0.243137 1 0.298039 0.243137 
1 0.298039 0.243137 1 0.298039 0.243137 
1 0.298039 0.243137 1 0.298039 0.243137 
1 0.298039 0.243137 1 0.298039 0.243137 
1 0.298039 0.243137 1 0.298039 0.243137 
1 0.298039 0.243137 1 0.298039 0.243137 
1 0.298039 0.243137 1 0.298039 0.243137 
1 0.298039 0.243137 1 0.298039 0.243137 
1 0.298039 0.243137 1 0.298039 0.243137 
1 0.298039 0.243137 1 0.298039 0.243137 
1 0.298039 0.243137 1 0.298039 0.243137 
1 0.298039 0.243137 1 0.298039 0.243137 
1 0.298039 0.243137 1 0.298039 0.243137 
1 0.298039 0.243137 1 0.298039 0.243137 
1 0.298039 0.243137 1 0.298039 0.243137 
1 0.298039 0.243137 1 0.298039 0.243137 
1 0.298039 0.243137 1 0.298039 0.243137 
1 0.298039 0.243137 1 0.298039 0.243137 
1 0.298039 0.243137 1 0.298039 0.243137 
1 0.298039 0.243137 1 0.298039 0.243137 
1 0.298039 0.243137 1 0.298039 0.243137 
1 0.298039 0.243137 1 0.298039 0.243137 
1 0.298039 0.243137 1 0.298039 0.243137 
1 0.298039 0.243137 1 0.298039 0.243137 
1 0.298039 0.243137 1 0.298039 0.243137 
1 0.298039 0.243137 1 0.298039 0.243137 
1 0.298039 0.243137 1 0.298039 0.243137 
1 0.298039 0.243137 1 0.298039 0.243137 
1 0.298039 0.243137 1 0.298039 0.243137 
1 0.298039 0.243137 1 0.298039 0.243137 
1 0.298039 0.243137 1 0.298039 0.243137 
1 0.298039 0.243137 1 0.298039 0.243137 
1 0.298039 0.243137 1 0.298039 0.243137 
1 0.298039 0.243137 1 0.298039 0.243137 
1 0.298039 0.243137 1 0.298039 0.243137 
1 0.298039 0.243137 1 0.298039 0.243137 
1 0.298039 0.243137 1 0.298039 0.243137 
1 0.298039 0.243137 1 0.298039 0.243137 
1 0.298039 0.243137 1 0.298039 0.243137 
1 0.298039 0.243137 1 0.298039 0.243137 
1 0.298039 0.243137 1 0.298039 0.243137 
1 0.298039 0.243137 1 0.298039 0.243137 
1 0.298039 0.243137 1 0.298039 0.243137 
1 0.298039 0.243137 1 0.298039 0.243137 
1 0.298039 0.243137 1 0.298039 0.243137 
1 0.298039 0.243137 1 0.298039 0.243137 
1 0.298039 0.243137 1 0.298039 0.243137 
1 0.298039 0.243137 1 0.298039 0.243137 
1 0.298039 0.243137 1 0.298039 0.243137 
1 0.298039 0.243137 1 0.298039 0.243137 
1 0.298039 0.243137 1 0.298039 0.243137 
1 0.298039 0.243137 1 0.298039 0.243137 
1 0.298039 0.243137 1 0.298039 0.243137 
1 0.298039 0.243137 1 0.298039 0.243137 
1 0.298039 0.243137 1 0.298039 0.243137 
1 0.298039 0.243137 1 0.298039 0.243137 
1 0.298039 0.243137 1 0.298039 0.243137 
1 0.298039 0.243137 1 0.298039 0.243137 
1 0.298039 0.243137 1 0.298039 0.243137 
1 0.298039 0.243137 1 0.298039 0.243137 
1 0.298039 0.243137 1 0.298039 0.243137 
1 0.298039 0.243137 1 0.298039 0.243137 
1 0.298039 0.243137 1 0.298039 0.243137 
1 0.298039 0.243137 1 0.298039 0.243137 
1 0.298039 0.243137 1 0.298039 0.243137 
1 0.298039 0.243137 1 0.298039 0.243137 
1 0.298039 0.243137 1 0.298039 0.243137 
1 0.298039 0.243137 1 0.298039 0.243137 
1 0.298039 0.243137 1 0.298039 0.243137 
1 0.298039 0.243137 1 0.298039 0.243137 
1 0.298039 0.243137 1 0.298039 0.243137 
1 0.298039 0.243137 1 0.298039 0.243137 
1 0.298039 0.243137 1 0.298039 0.243137 
1 0.298039 0.243137 1 0.298039 0.243137 
1 0.298039 0.243137 1 0.298039 0.243137 
1 0.298039 0.243137 1 0.298039 0.243137 
1 0.298039 0.243137 1 0.298039 0.243137 
1 0.298039 0.243137 1 0.298039 0.243137 
1 0.298039 0.243137 1 0.298039 0.243137 
1 0.298039 0.243137 1 0.298039 0.243137 
1 0.298039 0.243137 1 0.298039 0.243137 
1 0.298039 0.243137 1 0.298039 0.243137 
1 0.298039 0.243137 1 0.298039 0.243137 
1 0.298039 0.243137 1 0.298039 0.243137 
1 0.298039 0.243137 1 0.298039 0.243137 
1 0.298039 0.243137 1 0.298039 0.243137 
1 0.298039 0.243137 1 0.298039 0.243137 
1 0.298039 0.243137 1 0.298039 0.243137 
1 0.298039 0.243137 1 0.298039 0.243137 
1 0.298039 0.243137 1 0.298039 0.243137 
1 0.298039 0.243137 1 0.298039 0.243137 
1 0.298039 0.243137 1 0.298039 0.243137 
1 0.298039 0.243137 1 0.298039 0.243137 
1 0.298039 0.243137 1 0.298039 0.243137 
1 0.298039 0.243137 1 0.298039 0.243137 
1 0.298039 0.243137 1 0.298039 0.243137 
1 0.298039 0.243137 1 0.298039 0.243137 
1 0.298039 0.243137 1 0.298039 0.243137 
1 0.298039 0.243137 1 0.298039 0.243137 
1 0.298039 0.243137 1 0.298039 0.243137 
1 0.298039 0.243137 1 0.298039 0.243137 
1 0.298039 0.243137 1 0.298039 0.243137 
1 0.298039 0.243137 1 0.298039 0.243137 
1 0.298039 0.243137 1 0.298039 0.243137 
1 0.298039 0.243137 1 0.298039 0.243137 
1 0.298039 0.243137 1 0.298039 0.243137 
1 0.298039 0.243137 1 0.298039 0.243137 
1 0.298039 0.243137 1 0.298039 0.243137 
1 0.298039 0.243137 1 0.298039 0.243137 
1 0.298039 0.243137 1 0.298039 0.243137 
1 0.298039 0.243137 1 0.298039 0.243137 
1 0.298039 0.243137 1 0.298039 0.243137 
1 0.298039 0.243137 1 0.298039 0.243137 
1 0.298039 0.243137 1 0.298039 0.243137 
1 0.298039 0.243137 1 0.298039 0.243137 
1 0.298039 0.243137 1 0.298039 0.243137 
1 0.298039 0.243137 1 0.298039 0.243137 
1 0.298039 0.243137 1 0.298039 0.243137 
1 0.298039 0.243137 1 0.298039 0.243137 
1 0.298039 0.243137 1 0.298039 0.243137 
1 0.298039 0.243137 1 0.298039 0.243137 
1 0.298039 0.243137 1 0.298039 0.243137 
1 0.298039 0.243137 1 0.298039 0.243137 
1 0.298039 0.243137 1 0.298039 0.243137 
1 0.298039 0.243137 1 0.298039 0.243137 
1 0.298039 0.243137 1 0.298039 0.243137 
1 0.298039 0.243137 1 0.298039 0.243137 
1 0.298039 0.243137 1 0.298039 0.243137 
1 0.298039 0.243137 1 0.298039 0.243137 
1 0.298039 0.243137 1 0.298039 0.243137 
1 0.298039 0.243137 1 0.298039 0.243137 
1 0.298039 0.243137 1 0.298039 0.243137 
1 0.298039 0.243137 1 0.298039 0.243137 
1 0.298039 0.243137 1 0.298039 0.243137 
1 0.298039 0.243137 1 0.298039 0.243137 
1 0.298039 0.243137 1 0.298039 0.243137 
1 0.298039 0.243137 1 0.298039 0.243137 
1 0.298039 0.243137 1 0.298039 0.243137 
1 0.298039 0.243137 1 0.298039 0.243137 
1 0.298039 0.243137 1 0.298039 0.243137 
1 0.298039 0.243137 1 0.298039 0.243137 
1 0.298039 0.243137 1 0.298039 0.243137 
1 0.298039 0.243137 1 0.298039 0.243137 
1 0.298039 0.243137 1 0.298039 0.243137 
1 0.298039 0.243137 1 0.298039 0.243137 
1 0.298039 0.243137 1 0.298039 0.243137 
1 0.298039 0.243137 1 0.298039 0.243137 
1 0.298039 0.243137 1 0.298039 0.243137 
1 0.298039 0.243137 1 0.298039 0.243137 
1 0.298039 0.243137 1 0.298039 0.243137 
1 0.298039 0.243137 1 0.298039 0.243137 
1 0.298039 0.243137 1 0.298039 0.243137 
1 0.298039 0.243137 1 0.298039 0.243137 
1 0.298039 0.243137 1 0.298039 0.243137 
1 0.298039 0.243137 1 0.298039 0.243137 
1 0.298039 0.243137 1 0.298039 0.243137 
1 0.298039 0.243137 1 0.298039 0.243137 
1 0.298039 0.243137 1 0.298039 0.243137 
1 0.298039 0.243137 1 0.298039 0.243137 
1 0.298039 0.243137 1 0.298039 0.243137 
1 0.298039 0.243137 1 0.298039 0.243137 
1 0.298039 0.243137 1 0.298039 0.243137 
1 0.298039 0.243137 1 0.298039 0.243137 
1 0.298039 0.243137 1 0.298039 0.243137 
1 0.298039 0.243137 1 0.298039 0.243137 
1 0.298039 0.243137 1 0.298039 0.243137 
1 0.298039 0.243137 1 0.298039 0.243137 
1 0.298039 0.243137 1 0.298039 0.243137 
1 0.298039 0.243137 1 0.298039 0.243137 
1 0.298039 0.243137 1 0.298039 0.243137 
1 0.298039 0.243137 1 0.298039 0.243137 
1 0.298039 0.243137 1 0.298039 0.243137 
1 0.298039 0.243137 1 0.298039 0.243137 
1 0.298039 0.243137 1 0.298039 0.243137 
1 0.298039 0.243137 1 0.298039 0.243137 
1 0.298039 0.243137 1 0.298039 0.243137 
1 0.298039 0.243137 1 0.298039 0.243137 
1 0.298039 0.243137 1 0.298039 0.243137 
1 0.298039 0.243137 1 0.298039 0.243137 
1 0.298039 0.243137 1 0.298039 0.243137 
1 0.298039 0.243137 1 0.298039 0.243137 
1 0.298039 0.243137 1 0.298039 0.243137 
1 0.298039 0.243137 1 0.298039 0.243137 
1 0.298039 0.243137 1 0.298039 0.243137 
1 0.298039 0.243137 1 0.298039 0.243137 
1 0.298039 0.243137 1 0.298039 0.243137 
1 0.298039 0.243137 1 0.298039 0.243137 
1 0.298039 0.243137 1 0.298039 0.243137 
1 0.298039 0.243137 1 0.298039 0.243137 
1 0.298039 0.243137 1 0.298039 0.243137 
1 0.298039 0.243137 1 0.298039 0.243137 
1 0.298039 0.243137 1 0.298039 0.243137 
1 0.298039 0.243137 1 0.298039 0.243137 
1 0.298039 0.243137 1 0.298039 0.243137 
1 0.298039 0.243137 1 0.298039 0.243137 
1 0.298039 0.243137 1 0.298039 0.243137 
1 0.298039 0.243137 1 0.298039 0.243137 
1 0.298039 0.243137 1 0.298039 0.243137 
1 0.298039 0.243137 1 0.298039 0.243137 
1 0.298039 0.243137 1 0.298039 0.243137 
1 0.298039 0.243137 1 0.298039 0.243137 
1 0.298039 0.243137 1 0.298039 0.243137 

NORMALS Normals float
-0.249654 -0.384829 -0.888583 0.0388787 -0.474119 -0.879602 -0.181066 -0.00440526 -0.983461 
0.365454 -0.351583 -0.861878 0.643489 -0.29322 -0.707067 -0.00528872 0.0865574 -0.996233 
0.199449 -0.00897786 -0.979867 0.198985 0.0821831 -0.976551 0.428953 -0.0169442 -0.903168 
-0.166238 -0.739597 -0.652198 0.00342053 -0.919111 -0.393983 0.245538 -0.726478 -0.641826 
-0.342487 -0.36498 -0.865732 -0.462856 -0.485352 -0.741753 0.57574 -0.728582 -0.371068 
-0.523632 -0.0943567 -0.846704 -0.606063 0.144146 -0.782246 0.781045 -0.380949 -0.49482 
0.768697 -0.144282 -0.623127 -0.337667 0.0755259 -0.938231 0.54777 0.131386 -0.826248 
-0.225006 0.340004 -0.91311 0.743057 0.0102899 -0.669149 0.237926 0.320485 -0.916887 
0.509406 0.120925 -0.851987 -0.242028 -0.760305 -0.602793 -0.30312 -0.839053 -0.451783 
0.260254 -0.949676 -0.174311 -0.637751 -0.496238 -0.589086 0.723523 -0.618274 -0.307002 
-0.496816 0.478883 -0.723771 -0.139164 0.451242 -0.881484 0.680684 0.21317 -0.700876 
0.14394 0.564581 -0.81273 0.468466 0.413069 -0.780969 -0.486127 -0.763119 -0.425829 
-0.404742 -0.868231 -0.286982 -0.168237 -0.966505 -0.193816 0.885385 -0.462331 -0.048422 
-0.70605 0.244667 -0.664554 0.85968 -0.0865516 -0.503447 0.944055 -0.127033 -0.304338 
0.816276 0.204635 -0.540202 -0.116274 0.594027 -0.795998 0.0721385 0.721865 -0.688263 
-0.355869 0.766101 -0.535207 0.609557 0.632012 -0.47854 -0.219713 0.736788 -0.639429 
0.0332474 -0.986677 -0.159258 -0.741649 -0.208484 -0.637566 -0.650331 -0.614186 -0.44704 
0.32281 -0.946335 -0.0155966 -0.855809 -0.172675 -0.487621 -0.862516 -0.0494031 -0.503613 
-0.769186 0.228609 -0.596733 0.947721 -0.294718 -0.122336 -0.651713 0.456759 -0.60551 
0.970894 0.121162 -0.206604 -0.577857 0.679251 -0.452437 0.729191 0.482345 -0.485411 
-0.0616413 0.89349 -0.444833 -0.210828 0.903866 -0.372261 0.448966 0.702227 -0.552546 
0.0359102 0.922637 -0.383993 -0.789106 -0.475737 -0.388568 -0.805754 -0.488574 -0.334749 
0.253011 -0.962212 0.100662 0.599965 -0.798149 0.0547736 -0.807223 0.349339 -0.475767 
0.964993 -0.16208 0.206202 0.851238 0.522385 -0.050068 0.459803 0.842843 -0.279636 
0.608218 0.770109 -0.19236 0.285326 0.958383 0.00952261 -0.487091 -0.841101 -0.235142 
-0.641947 -0.739192 -0.203712 -0.942484 -0.105138 -0.317284 -0.909823 0.0785104 -0.407502 
-0.896401 0.296882 -0.32913 -0.616497 0.742038 -0.263272 -0.398248 0.880364 -0.257599 
0.620537 0.781349 0.0665421 0.497221 0.850138 0.173311 -0.265789 -0.948341 -0.173221 
-0.69569 -0.71227 -0.0932054 -0.781583 -0.577852 -0.234978 0.741474 -0.635833 0.214317 
-0.95703 0.0488095 -0.285853 -0.912257 0.293 -0.286249 0.913265 -0.0719685 0.400958 
0.883994 0.279013 0.375109 -0.288351 0.954766 -0.0726301 0.806107 0.562045 0.185193 
0.733991 0.557454 0.387946 -0.0643744 0.995218 -0.073464 0.0470604 0.998402 0.0312911 