# vtk DataFile Version 4.2
vtk output
ASCII
DATASET POLYDATA
POINTS 799 float
284.961 227.917 224.156 288.353 227.627 224.417 280.921 229.363 224.393 
268.019 231.255 224.534 267.708 231.543 224.432 268.426 231.196 224.498 
281.933 230.698 223.736 288.213 230.293 223.601 266.759 231.907 224.655 
267.643 232.13 224.202 268.791 231.393 224.333 270.349 231.356 224.375 
276.437 231.057 224.508 290.631 230.267 224.078 265.74 233.112 224.643 
271.541 233.429 223.569 292.579 232.523 224.399 264.325 234.621 224.574 
267.681 234.527 223.584 263.209 235.752 224.752 265.115 235.84 223.811 
278.249 235.13 223.235 293.284 234.766 224.32 262.413 236.661 224.56 
267.429 236.325 223.364 261.195 237.782 224.646 264.74 237.533 223.542 
258.2 239.975 224.572 256.455 240.963 224.71 255.896 241.482 224.474 
252.698 242.728 224.647 252.379 243.002 224.556 255.146 241.844 224.529 
251.394 243.691 224.789 251.954 243.259 224.721 252.828 243.499 224.094 
255.216 242.902 223.871 251.006 244.528 224.544 252.305 244.76 223.866 
296.707 243.194 224.226 297.059 243.396 224.429 250.728 245.906 224.536 
297.229 243.835 224.518 297.379 244.055 224.759 250.943 246.597 224.237 
252.655 247.233 223.525 294.689 246.848 223.375 253.348 250.072 223.337 
295.451 251.762 223.47 251.812 261.141 223.713 266.974 261.982 223.03 
287.913 261.904 223.131 295.421 261.659 223.524 297.132 262.075 224.26 
251.222 264.232 223.979 251.808 265.138 223.718 250.773 266.367 224.297 
251.804 266.136 223.722 253.299 267.031 223.36 269.621 266.66 223.365 
282.273 266.195 223.703 287.172 265.97 223.96 293.173 265.735 224.016 
283.769 266.837 224.078 287.856 266.425 224.304 292.896 266.188 224.314 
297.046 265.538 224.737 272.102 268.019 223.888 282.905 267.241 224.265 
287.397 266.813 224.69 295.221 266.309 224.683 296.516 266.059 224.752 
296.875 265.889 224.802 282.405 267.684 224.672 269.756 269.332 224.236 
270.59 269.364 224.417 272.261 269.037 224.631 252.255 272.818 223.839 
263.413 271.418 224.54 264.296 271.119 224.663 250.313 273.94 225.083 
250.784 274.421 224.636 254.457 274.342 223.875 259.547 273.952 224.664 
260.302 273.41 224.668 261.068 272.95 224.718 250.466 274.914 224.969 
250.572 275.157 224.935 256.742 274.677 224.146 258.515 274.787 224.717 
250.829 275.457 224.938 257.498 275.504 224.807 253.65 276.092 224.673 
285.553 225.343 225.67 286.735 225.337 225.791 287.309 225.577 225.669 
285.691 226.275 224.916 289.708 227.37 225.457 280.527 228.168 225.3 
291.358 228.906 225.365 267.578 230.967 225.348 267.2 231.166 225.173 
268.312 230.937 224.839 270.159 230.45 225.3 277.834 229.481 225.429 
279.587 229.225 224.938 291.638 229.279 225.269 291.806 229.707 225.091 
291.947 229.644 225.332 267.061 231.434 224.88 266.819 231.484 225.193 
266.521 231.888 224.933 269.734 230.945 224.658 270.505 230.516 225.149 
273.265 230.504 225.576 276.811 230.375 224.953 276.302 230.084 225.428 
277.837 230.056 224.927 292.15 229.996 225.25 292.342 230.338 225.298 
292.445 231.958 224.496 264.518 234.186 224.74 264.167 234.54 224.86 
265.04 233.463 225.18 293.155 232.559 225.072 293.181 233.317 224.624 
262.644 236.251 224.746 262.223 236.635 224.856 260.416 238.232 225.201 
259.838 238.626 224.954 295.07 236.652 225.131 259.271 239.044 225.091 
258.698 239.473 224.852 295.429 238.159 224.755 257 240.517 224.78 
257.349 240.278 224.956 252.38 242.854 224.771 253.257 242.431 225.019 
254.008 242.195 225.061 296.732 240.31 225.149 296.993 240.977 225.16 
251.25 243.79 225.026 252.923 242.629 225.142 250.827 244.721 224.76 
297.208 242.056 225.003 297.356 243.352 225.059 250.606 246.101 224.877 
250.435 249.863 224.985 297.487 254.55 224.844 297.343 264.659 224.939 
297.036 265.756 224.976 285.514 267.349 224.821 286.779 267.046 225.163 
287.999 266.837 225.093 295.632 266.342 224.998 296.747 266.038 224.986 
280.531 268.236 224.861 284.138 267.567 224.96 284.969 267.489 224.988 
270.894 269.509 224.677 272.046 269.314 224.978 272.777 269.034 225.144 
275.29 268.641 224.953 280.038 268.366 225.046 267.963 270.331 224.611 
268.968 270.189 224.879 269.562 269.938 225.023 271.554 269.477 225.083 
263.456 271.606 224.912 264.13 271.293 225.158 265.929 270.771 224.922 
267.873 270.439 224.922 268.537 270.335 224.97 262.525 272.099 225.096 
250.334 274.714 225.531 259.99 273.854 224.836 260.21 273.74 224.971 
261.364 272.898 225.067 250.511 275.22 225.107 250.475 275.321 225.471 
258.931 274.704 224.85 259.234 274.496 224.937 259.724 274.117 225.063 
250.755 275.914 225.275 251.744 276.055 224.912 257.94 275.454 224.935 
258.777 274.905 225.089 251.002 276.145 225.341 254.041 276.671 225.349 
257.192 275.943 225.133 257.806 275.631 225.188 256.256 276.405 225.384 
256.82 276.212 225.37 284.897 224.94 226.541 286.525 225.074 226.105 
286.84 225.192 226.191 287.631 225.718 225.741 288.854 226.718 225.705 
289.359 227.179 225.829 280.186 227.567 226.241 281.506 226.807 226.128 
290.395 227.947 225.58 290.73 228.278 225.606 291.05 228.571 225.501 
291.379 228.964 225.549 267.175 231.233 225.42 268.045 230.882 225.587 
271.372 230.395 225.612 277.158 229.35 226.032 291.687 229.296 225.452 
291.945 229.679 225.501 266.837 231.591 225.467 266.421 231.963 225.281 
272.673 230.433 226.158 292.186 230.031 225.413 265.931 232.608 225.402 
265.405 233.067 225.341 265.608 233.104 225.579 265.223 233.408 225.468 
294.57 235.554 225.472 261.691 237.336 225.377 294.893 236.142 225.217 
261.081 237.961 225.491 295.717 237.818 225.346 259.395 239.169 225.437 
258.761 239.514 225.26 296.199 238.839 225.512 296.408 239.271 225.379 
296.356 239.301 225.581 297.128 241.362 225.294 251.085 244.105 225.121 
251.373 243.834 225.263 251.769 243.662 225.411 297.152 241.88 225.444 
251.219 244.326 225.366 250.607 247.306 225.289 297.391 247.415 225.501 
296.733 258.794 225.868 297.196 260.263 225.602 296.915 260.501 225.832 
297.169 260.915 225.66 297.405 260.947 225.337 297.297 262.248 225.529 
297.437 262.599 225.318 297.199 264.945 225.231 297.05 265.516 225.205 
296.876 265.874 225.16 250.439 270.124 225.445 286.01 267.277 225.243 
285.511 267.29 225.393 289.566 266.584 225.421 294.398 266.373 225.341 
296.517 266.041 225.223 281.052 268.177 225.256 280.572 268.189 225.41 
281.725 267.749 225.582 282.563 267.648 225.476 271.957 269.318 225.22 
272.711 268.816 225.592 268.861 269.93 225.434 268.875 270.192 225.106 
250.345 273.615 225.701 263.266 271.602 225.34 260.131 273.714 225.288 
260.715 273.159 225.404 250.691 275.869 225.432 250.672 275.833 225.708 
258.745 274.886 225.41 250.85 276.161 225.603 251.049 276.356 225.57 
251.01 276.356 225.716 257.324 275.948 225.531 251.206 276.463 225.68 
254.617 276.671 225.833 255.926 276.506 225.659 285.455 224.712 227.276 
286.872 225.245 227.248 284.364 224.843 227.381 283.769 225.101 227.097 
287.383 225.791 227.201 287.335 225.512 226.315 283.287 225.264 227.402 
287.666 226.413 227.36 281.346 226.368 227.326 287.845 227.333 227.452 
280.292 227.297 226.626 289.128 227.717 226.429 289.725 227.772 226.029 
287.798 229.338 227.383 269.852 230.644 225.902 270.629 230.657 226.099 
271.403 230.526 226.148 278.118 228.604 226.856 291.161 229.388 225.951 
291.612 229.446 225.671 266.693 232.1 225.688 267.333 231.953 225.963 
268.587 231.345 226.113 269.142 231.08 226.118 273.47 230.397 226.823 
275.754 229.669 227.104 270.225 231.507 226.55 270.638 231.307 226.562 
265.485 233.752 225.798 268.622 232.768 226.497 285.107 233.273 227.492 
286.011 232.574 227.469 291.579 232.037 226.421 282.014 234.627 227.489 
282.914 234.469 227.439 283.83 234.093 227.45 282.276 235.431 227.264 
291.825 235.019 226.716 294.15 234.883 225.599 283.542 236.561 227.133 
262.008 238.446 226.118 295.149 236.939 225.663 262.607 238.904 226.366 
295.475 237.87 225.811 259.094 240.516 226.044 295.654 238.784 225.984 
255.932 241.853 225.708 263.276 240.42 226.675 295.215 239.766 226.357 
252.179 243.949 225.708 252.293 244.571 225.958 251.492 245.485 225.808 
297.06 245.042 225.781 296.75 246.922 226.01 291.926 255.886 226.875 
296.331 260.29 226.091 290.668 264.482 226.505 296.639 263.925 225.822 
297.112 263.69 225.543 255.087 266.121 226.851 292.459 265.152 226.262 
295.894 264.857 225.947 280.361 266.959 226.219 286.975 266.466 225.863 
293.841 266.127 225.677 284.029 267.145 225.733 259.7 269.66 226.699 
251.604 271.651 226.417 250.548 273.149 225.956 250.823 273.481 226.218 
259.232 272.166 226.396 250.636 274.432 226.123 252.445 273.952 226.814 
258.722 273.718 226.156 250.71 275.48 226.098 250.896 275.696 226.212 
251.034 275.95 226.21 251.16 276.214 226.082 251.274 276.091 226.273 
257.183 275.737 226.137 251.487 276.288 226.225 252.125 276.558 226.105 
252.338 276.469 226.259 256.487 276.167 226.053 256.752 275.932 226.194 
254.143 276.579 226.086 285.014 224.711 227.674 286.418 224.904 227.589 
286.796 225.121 227.766 287.278 225.701 227.72 282.252 225.797 227.73 
287.706 226.641 227.836 281.081 226.514 227.512 287.761 227.302 227.739 
287.793 227.659 227.829 287.759 227.908 227.634 280.032 227.318 227.58 
287.679 228.781 227.586 287.628 229.197 227.75 287.432 229.851 227.553 
287.38 230.108 227.724 272.597 230.945 226.917 273.163 230.837 227.26 
274.394 230.132 227.733 286.781 231.286 227.64 272.85 231.6 227.264 
273.148 231.447 227.746 273.482 230.724 227.874 286.676 231.525 227.511 
286.359 232.038 227.622 273.303 232.696 227.354 273.438 232.437 227.655 
284.435 233.655 227.503 284.039 233.883 227.556 284.764 233.507 227.593 
285.63 232.886 227.608 274.335 233.4 227.618 274.544 233.753 227.437 
275.508 234.091 227.614 275.922 234.345 227.496 276.689 234.51 227.619 
277.099 234.657 227.515 277.809 234.741 227.619 278.201 234.817 227.518 
278.895 234.846 227.613 279.262 234.873 227.511 279.977 234.853 227.602 
281.149 234.76 227.582 281.084 234.785 227.475 282.234 234.605 227.607 
283.157 234.302 227.56 251.234 275.747 226.359 251.778 275.716 226.513 
255.547 275.246 226.75 253.589 276.364 226.345 283.927 225.036 228.27 
[...]
POINT_DATA 799
COLOR_SCALARS scalars 3
1 0.364706 0.313725 1 0.364706 0.313725 1 0.364706 0.313725 
1 0.364706 0.313725 1 0.364706 0.313725 
1 0.364706 0.313725 1 0.364706 0.313725 
1 0.364706 0.313725 1 0.364706 0.313725 
1 0.364706 0.313725 1 0.364706 0.313725 
1 0.364706 0.313725 1 0.364706 0.313725 
1 0.364706 0.313725 1 0.364706 0.313725 
1 0.364706 0.313725 1 0.364706 0.313725 
1 0.364706 0.313725 1 0.364706 0.313725 
1 0.364706 0.313725 1 0.364706 0.313725 
1 0.364706 0.313725 1 0.364706 0.313725 
1 0.364706 0.313725 1 0.364706 0.313725 
1 0.364706 0.313725 1 0.364706 0.313725 
1 0.364706 0.313725 1 0.364706 0.313725 
1 0.364706 0.313725 1 0.364706 0.313725 
1 0.364706 0.313725 1 0.364706 0.313725 
1 0.364706 0.313725 1 0.364706 0.313725 
1 0.364706 0.313725 1 0.364706 0.313725 
1 0.364706 0.313725 1 0.364706 0.313725 
1 0.364706 0.313725 1 0.364706 0.313725 
1 0.364706 0.313725 1 0.364706 0.313725 
1 0.364706 0.313725 1 0.364706 0.313725 
1 0.364706 0.313725 1 0.364706 0.313725 
1 0.364706 0.313725 1 0.364706 0.313725 
1 0.364706 0.313725 1 0.364706 0.313725 
1 0.364706 0.313725 1 0.364706 0.313725 
1 0.364706 0.313725 1 0.364706 0.313725 
1 0.364706 0.313725 1 0.364706 0.313725 
1 0.364706 0.313725 1 0.364706 0.313725 
1 0.364706 0.313725 1 0.364706 0.313725 
1 0.364706 0.313725 1 0.364706 0.313725 
1 0.364706 0.313725 1 0.364706 0.313725 
1 0.364706 0.313725 1 0.364706 0.313725 
1 0.364706 0.313725 1 0.364706 0.313725 
1 0.364706 0.313725 1 0.364706 0.313725 
1 0.364706 0.313725 1 0.364706 0.313725 
1 0.364706 0.313725 1 0.364706 0.313725 
1 0.364706 0.313725 1 0.364706 0.313725 
1 0.364706 0.313725 1 0.364706 0.313725 
1 0.364706 0.313725 1 0.364706 0.313725 
1 0.364706 0.313725 1 0.364706 0.313725 
1 0.364706 0.313725 1 0.364706 0.313725 
1 0.364706 0.313725 1 0.364706 0.313725 
1 0.364706 0.313725 1 0.364706 0.313725 
1 0.364706 0.313725 1 0.364706 0.313725 
1 0.364706 0.313725 1 0.364706 0.313725 
1 0.364706 0.313725 1 0.364706 0.313725 
1 0.364706 0.313725 1 0.364706 0.313725 
1 0.364706 0.313725 1 0.364706 0.313725 
1 0.364706 0.313725 1 0.364706 0.313725 
1 0.364706 0.313725 1 0.364706 0.313725 
1 0.364706 0.313725 1 0.364706 0.313725 
1 0.364706 0.313725 1 0.364706 0.313725 
1 0.364706 0.313725 1 0.364706 0.313725 
1 0.364706 0.313725 1 0.364706 0.313725 
1 0.364706 0.313725 1 0.364706 0.313725 
1 0.364706 0.313725 1 0.364706 0.313725 
1 0.364706 0.313725 1 0.364706 0.313725 
1 0.364706 0.313725 1 0.364706 0.313725 
1 0.364706 0.313725 1 0.364706 0.313725 
1 0.364706 0.313725 1 0.364706 0.313725 
1 0.364706 0.313725 1 0.364706 0.313725 
1 0.364706 0.313725 1 0.364706 0.313725 
1 0.364706 0.313725 1 0.364706 0.313725 
1 0.364706 0.313725 1 0.364706 0.313725 
1 0.364706 0.313725 1 0.364706 0.313725 
1 0.364706 0.313725 1 0.364706 0.313725 
1 0.364706 0.313725 1 0.364706 0.313725 
1 0.364706 0.313725 1 0.364706 0.313725 
1 0.364706 0.313725 1 0.364706 0.313725 
1 0.364706 0.313725 1 0.364706 0.313725 
1 0.364706 0.313725 1 0.364706 0.313725 
1 0.364706 0.313725 1 0.364706 0.313725 
1 0.364706 0.313725 1 0.364706 0.313725 
1 0.364706 0.313725 1 0.364706 0.313725 
1 0.364706 0.313725 1 0.364706 0.313725 
1 0.364706 0.313725 1 0.364706 0.313725 
1 0.364706 0.313725 1 0.364706 0.313725 
1 0.364706 0.313725 1 0.364706 0.313725 
1 0.364706 0.313725 1 0.364706 0.313725 
1 0.364706 0.313725 1 0.364706 0.313725 
1 0.364706 0.313725 1 0.364706 0.313725 
1 0.364706 0.313725 1 0.364706 0.313725 
1 0.364706 0.313725 1 0.364706 0.313725 
1 0.364706 0.313725 1 0.364706 0.313725 
1 0.364706 0.313725 1 0.364706 0.313725 
1 0.364706 0.313725 1 0.364706 0.313725 
1 0.364706 0.313725 1 0.364706 0.313725 
1 0.364706 0.313725 1 0.364706 0.313725 
1 0.364706 0.313725 1 0.364706 0.313725 
1 0.364706 0.313725 1 0.364706 0.313725 
1 0.364706 0.313725 1 0.364706 0.313725 
1 0.364706 0.313725 1 0.364706 0.313725 
1 0.364706 0.313725 1 0.364706 0.313725 
1 0.364706 0.313725 1 0.364706 0.313725 
1 0.364706 0.313725 1 0.364706 0.313725 
1 0.364706 0.313725 1 0.364706 0.313725 
1 0.364706 0.313725 1 0.364706 0.313725 
1 0.364706 0.313725 1 0.364706 0.313725 
1 0.364706 0.313725 1 0.364706 0.313725 
1 0.364706 0.313725 1 0.364706 0.313725 
1 0.364706 0.313725 1 0.364706 0.313725 
1 0.364706 0.313725 1 0.364706 0.313725 
1 0.364706 0.313725 1 0.364706 0.313725 
1 0.364706 0.313725 1 0.364706 0.313725 
1 0.364706 0.313725 1 0.364706 0.313725 
1 0.364706 0.313725 1 0.364706 0.313725 
1 0.364706 0.313725 1 0.364706 0.313725 
1 0.364706 0.313725 1 0.364706 0.313725 
1 0.364706 0.313725 1 0.364706 0.313725 
1 0.364706 0.313725 1 0.364706 0.313725 
1 0.364706 0.313725 1 0.364706 0.313725 
1 0.364706 0.313725 1 0.364706 0.313725 
1 0.364706 0.313725 1 0.364706 0.313725 
1 0.364706 0.313725 1 0.364706 0.313725 
1 0.364706 0.313725 1 0.364706 0.313725 
1 0.364706 0.313725 1 0.364706 0.313725 
1 0.364706 0.313725 1 0.364706 0.313725 
1 0.364706 0.313725 1 0.364706 0.313725 
1 0.364706 0.313725 1 0.364706 0.313725 
1 0.364706 0.313725 1 0.364706 0.313725 
1 0.364706 0.313725 1 0.364706 0.313725 
1 0.364706 0.313725 1 0.364706 0.313725 
1 0.364706 0.313725 1 0.364706 0.313725 
1 0.364706 0.313725 1 0.364706 0.313725 
1 0.364706 0.313725 1 0.364706 0.313725 
1 0.364706 0.313725 1 0.364706 0.313725 
1 0.364706 0.313725 1 0.364706 0.313725 
1 0.364706 0.313725 1 0.364706 0.313725 
1 0.364706 0.313725 1 0.364706 0.313725 
1 0.364706 0.313725 1 0.364706 0.313725 
1 0.364706 0.313725 1 0.364706 0.313725 
1 0.364706 0.313725 1 0.364706 0.313725 
1 0.364706 0.313725 1 0.364706 0.313725 
1 0.364706 0.313725 1 0.364706 0.313725 
1 0.364706 0.313725 1 0.364706 0.313725 
1 0.364706 0.313725 1 0.364706 0.313725 
1 0.364706 0.313725 1 0.364706 0.313725 
1 0.364706 0.313725 1 0.364706 0.313725 
1 0.364706 0.313725 1 0.364706 0.313725 
1 0.364706 0.313725 1 0.364706 0.313725 
1 0.364706 0.313725 1 0.364706 0.313725 
1 0.364706 0.313725 1 0.364706 0.313725 
1 0.364706 0.313725 1 0.364706 0.313725 
1 0.364706 0.313725 1 0.364706 0.313725 
1 0.364706 0.313725 1 0.364706 0.313725 
1 0.364706 0.313725 1 0.364706 0.313725 
1 0.364706 0.313725 1 0.364706 0.313725 
1 0.364706 0.313725 1 0.364706 0.313725 
1 0.364706 0.313725 1 0.364706 0.313725 
1 0.364706 0.313725 1 0.364706 0.313725 
1 0.364706 0.313725 1 0.364706 0.313725 
1 0.364706 0.313725 1 0.364706 0.313725 
1 0.364706 0.313725 1 0.364706 0.313725 
1 0.364706 0.313725 1 0.364706 0.313725 
1 0.364706 0.313725 1 0.364706 0.313725 
1 0.364706 0.313725 1 0.364706 0.313725 
1 0.364706 0.313725 1 0.364706 0.313725 
1 0.364706 0.313725 1 0.364706 0.313725 
1 0.364706 0.313725 1 0.364706 0.313725 
1 0.364706 0.313725 1 0.364706 0.313725 
1 0.364706 0.313725 1 0.364706 0.313725 
1 0.364706 0.313725 1 0.364706 0.313725 
1 0.364706 0.313725 1 0.364706 0.313725 
1 0.364706 0.313725 1 0.364706 0.313725 
1 0.364706 0.313725 1 0.364706 0.313725 
1 0.364706 0.313725 1 0.364706 0.313725 
1 0.364706 0.313725 1 0.364706 0.313725 
1 0.364706 0.313725 1 0.364706 0.313725 
1 0.364706 0.313725 1 0.364706 0.313725 
1 0.364706 0.313725 1 0.364706 0.313725 
1 0.364706 0.313725 1 0.364706 0.313725 
1 0.364706 0.313725 1 0.364706 0.313725 
1 0.364706 0.313725 1 0.364706 0.313725 
1 0.364706 0.313725 1 0.364706 0.313725 
1 0.364706 0.313725 1 0.364706 0.313725 
1 0.364706 0.313725 1 0.364706 0.313725 
1 0.364706 0.313725 1 0.364706 0.313725 
1 0.364706 0.313725 1 0.364706 0.313725 
1 0.364706 0.313725 1 0.364706 0.313725 
1 0.364706 0.313725 1 0.364706 0.313725 
1 0.364706 0.313725 1 0.364706 0.313725 
1 0.364706 0.313725 1 0.364706 0.313725 
1 0.364706 0.313725 1 0.364706 0.313725 
1 0.364706 0.313725 1 0.364706 0.313725 
1 0.364706 0.313725 1 0.364706 0.313725 
1 0.364706 0.313725 1 0.364706 0.313725 
1 0.364706 0.313725 1 0.364706 0.313725 
1 0.364706 0.313725 1 0.364706 0.313725 
1 0.364706 0.313725 1 0.364706 0.313725 
1 0.364706 0.313725 1 0.364706 0.313725 
1 0.364706 0.313725 1 0.364706 0.313725 
1 0.364706 0.313725 1 0.364706 0.313725 
1 0.364706 0.313725 1 0.364706 0.313725 
1 0.364706 0.313725 1 0.364706 0.313725 
1 0.364706 0.313725 1 0.364706 0.313725 
1 0.364706 0.313725 1 0.364706 0.313725 
1 0.364706 0.313725 1 0.364706 0.313725 
1 0.364706 0.313725 1 0.364706 0.313725 
1 0.364706 0.313725 1 0.364706 0.313725 
1 0.364706 0.313725 1 0.364706 0.313725 
1 0.364706 0.313725 1 0.364706 0.313725 
1 0.364706 0.313725 1 0.364706 0.313725 
1 0.364706 0.313725 1 0.364706 0.313725 
1 0.364706 0.313725 1 0.364706 0.313725 
1 0.364706 0.313725 1 0.364706 0.313725 
1 0.364706 0.313725 1 0.364706 0.313725 
1 0.364706 0.313725 1 0.364706 0.313725 
1 0.364706 0.313725 1 0.364706 0.313725 
1 0.364706 0.313725 1 0.364706 0.313725 
1 0.364706 0.313725 1 0.364706 0.313725 
1 0.364706 0.313725 1 0.364706 0.313725 
1 0.364706 0.313725 1 0.364706 0.313725 
1 0.364706 0.313725 1 0.364706 0.313725 
1 0.364706 0.313725 1 0.364706 0.313725 
1 0.364706 0.313725 1 0.364706 0.313725 
1 0.364706 0.313725 1 0.364706 0.313725 
1 0.364706 0.313725 1 0.364706 0.313725 
1 0.364706 0.313725 1 0.364706 0.313725 
1 0.364706 0.313725 1 0.364706 0.313725 
1 0.364706 0.313725 1 0.364706 0.313725 
1 0.364706 0.313725 1 0.364706 0.313725 
1 0.364706 0.313725 1 0.364706 0.313725 
1 0.364706 0.313725 1 0.364706 0.313725 
1 0.364706 0.313725 1 0.364706 0.313725 
1 0.364706 0.313725 1 0.364706 0.313725 
1 0.364706 0.313725 1 0.364706 0.313725 
1 0.364706 0.313725 1 0.364706 0.313725 
1 0.364706 0.313725 1 0.364706 0.313725 
1 0.364706 0.313725 1 0.364706 0.313725 
1 0.364706 0.313725 1 0.364706 0.313725 
1 0.364706 0.313725 1 0.364706 0.313725 
1 0.364706 0.313725 1 0.364706 0.313725 
1 0.364706 0.313725 1 0.364706 0.313725 
1 0.364706 0.313725 1 0.364706 0.313725 
1 0.364706 0.313725 1 0.364706 0.313725 
1 0.364706 0.313725 1 0.364706 0.313725 
1 0.364706 0.313725 1 0.364706 0.313725 
1 0.364706 0.313725 1 0.364706 0.313725 
1 0.364706 0.313725 1 0.364706 0.313725 
1 0.364706 0.313725 1 0.364706 0.313725 
1 0.364706 0.313725 1 0.364706 0.313725 
1 0.364706 0.313725 1 0.364706 0.313725 
1 0.364706 0.313725 1 0.364706 0.313725 
1 0.364706 0.313725 1 0.364706 0.313725 
1 0.364706 0.313725 1 0.364706 0.313725 
1 0.364706 0.313725 1 0.364706 0.313725 
1 0.364706 0.313725 1 0.364706 0.313725 
1 0.364706 0.313725 1 0.364706 0.313725 
1 0.364706 0.313725 1 0.364706 0.313725 
1 0.364706 0.313725 1 0.364706 0.313725 
1 0.364706 0.313725 1 0.364706 0.313725 
1 0.364706 0.313725 1 0.364706 0.313725 
1 0.364706 0.313725 1 0.364706 0.313725 
1 0.364706 0.313725 1 0.364706 0.313725 
1 0.364706 0.313725 1 0.364706 0.313725 
1 0.364706 0.313725 1 0.364706 0.313725 
1 0.364706 0.313725 1 0.364706 0.313725 
1 0.364706 0.313725 1 0.364706 0.313725 
1 0.364706 0.313725 1 0.364706 0.313725 
1 0.364706 0.313725 1 0.364706 0.313725 
1 0.364706 0.313725 1 0.364706 0.313725 
1 0.364706 0.313725 1 0.364706 0.313725 
1 0.364706 0.313725 1 0.364706 0.313725 
1 0.364706 0.313725 1 0.364706 0.313725 
1 0.364706 0.313725 1 0.364706 0.313725 
1 0.364706 0.313725 1 0.364706 0.313725 
1 0.364706 0.313725 1 0.364706 0.313725 
1 0.364706 0.313725 1 0.364706 0.313725 
1 0.364706 0.313725 1 0.364706 0.313725 
1 0.364706 0.313725 1 0.364706 0.313725 
1 0.364706 0.313725 1 0.364706 0.313725 
1 0.364706 0.313725 1 0.364706 0.313725 
1 0.364706 0.313725 1 0.364706 0.313725 
1 0.364706 0.313725 1 0.364706 0.313725 
1 0.364706 0.313725 1 0.364706 0.313725 
1 0.364706 0.313725 1 0.364706 0.313725 
1 0.364706 0.313725 1 0.364706 0.313725 
1 0.364706 0.313725 1 0.364706 0.313725 
1 0.364706 0.313725 1 0.364706 0.313725 
1 0.364706 0.313725 1 0.364706 0.313725 
1 0.364706 0.313725 1 0.364706 0.313725 
1 0.364706 0.313725 1 0.364706 0.313725 
1 0.364706 0.313725 1 0.364706 0.313725 
1 0.364706 0.313725 1 0.364706 0.313725 
1 0.364706 0.313725 1 0.364706 0.313725 
1 0.364706 0.313725 1 0.364706 0.313725 
1 0.364706 0.313725 1 0.364706 0.313725 
1 0.364706 0.313725 1 0.364706 0.313725 
1 0.364706 0.313725 1 0.364706 0.313725 
1 0.364706 0.313725 1 0.364706 0.313725 
1 0.364706 0.313725 1 0.364706 0.313725 
1 0.364706 0.313725 1 0.364706 0.313725 
1 0.364706 0.313725 1 0.364706 0.313725 
1 0.364706 0.313725 1 0.364706 0.313725 
1 0.364706 0.313725 1 0.364706 0.313725 
1 0.364706 0.313725 1 0.364706 0.313725 
1 0.364706 0.313725 1 0.364706 0.313725 
1 0.364706 0.313725 1 0.364706 0.313725 
1 0.364706 0.313725 1 0.364706 0.313725 
1 0.364706 0.313725 1 0.364706 0.313725 
1 0.364706 0.313725 1 0.364706 0.313725 
1 0.364706 0.313725 1 0.364706 0.313725 
1 0.364706 0.313725 1 0.364706 0.313725 
1 0.364706 0.313725 1 0.364706 0.313725 
1 0.364706 0.313725 1 0.364706 0.313725 
1 0.364706 0.313725 1 0.364706 0.313725 
1 0.364706 0.313725 1 0.364706 0.313725 
1 0.364706 0.313725 1 0.364706 0.313725 
1 0.364706 0.313725 1 0.364706 0.313725 
1 0.364706 0.313725 1 0.364706 0.313725 
1 0.364706 0.313725 1 0.364706 0.313725 
1 0.364706 0.313725 1 0.364706 0.313725 
1 0.364706 0.313725 1 0.364706 0.313725 
1 0.364706 0.313725 1 0.364706 0.313725 
1 0.364706 0.313725 1 0.364706 0.313725 
1 0.364706 0.313725 1 0.364706 0.313725 
1 0.364706 0.313725 1 0.364706 0.313725 
1 0.364706 0.313725 1 0.364706 0.313725 
1 0.364706 0.313725 1 0.364706 0.313725 
1 0.364706 0.313725 1 0.364706 0.313725 
1 0.364706 0.313725 1 0.364706 0.313725 
1 0.364706 0.313725 1 0.364706 0.313725 
1 0.364706 0.313725 1 0.364706 0.313725 
1 0.364706 0.313725 1 0.364706 0.313725 
1 0.364706 0.313725 1 0.364706 0.313725 
1 0.364706 0.313725 1 0.364706 0.313725 
1 0.364706 0.313725 1 0.364706 0.313725 
1 0.364706 0.313725 1 0.364706 0.313725 
1 0.364706 0.313725 1 0.364706 0.313725 
1 0.364706 0.313725 1 0.364706 0.313725 
1 0.364706 0.313725 1 0.364706 0.313725 
1 0.364706 0.313725 1 0.364706 0.313725 
1 0.364706 0.313725 1 0.364706 0.313725 
1 0.364706 0.313725 1 0.364706 0.313725 
1 0.364706 0.313725 1 0.364706 0.313725 
1 0.364706 0.313725 1 0.364706 0.313725 
1 0.364706 0.313725 1 0.364706 0.313725 
1 0.364706 0.313725 1 0.364706 0.313725 
1 0.364706 0.313725 1 0.364706 0.313725 
1 0.364706 0.313725 1 0.364706 0.313725 
1 0.364706 0.313725 1 0.364706 0.313725 
1 0.364706 0.313725 1 0.364706 0.313725 
1 0.364706 0.313725 1 0.364706 0.313725 
1 0.364706 0.313725 1 0.364706 0.313725 
1 0.364706 0.313725 1 0.364706 0.313725 
1 0.364706 0.313725 1 0.364706 0.313725 
1 0.364706 0.313725 1 0.364706 0.313725 
1 0.364706 0.313725 1 0.364706 0.313725 
1 0.364706 0.313725 1 0.364706 0.313725 
1 0.364706 0.313725 1 0.364706 0.313725 
1 0.364706 0.313725 1 0.364706 0.313725 
1 0.364706 0.313725 1 0.364706 0.313725 
1 0.364706 0.313725 1 0.364706 0.313725 
1 0.364706 0.313725 1 0.364706 0.313725 
1 0.364706 0.313725 1 0.364706 0.313725 
1 0.364706 0.313725 1 0.364706 0.313725 
1 0.364706 0.313725 1 0.364706 0.313725 
1 0.364706 0.313725 1 0.364706 0.313725 
1 0.364706 0.313725 1 0.364706 0.313725 
1 0.364706 0.313725 1 0.364706 0.313725 
1 0.364706 0.313725 1 0.364706 0.313725 
1 0.364706 0.313725 1 0.364706 0.313725 
1 0.364706 0.313725 1 0.364706 0.313725 
1 0.364706 0.313725 1 0.364706 0.313725 
1 0.364706 0.313725 1 0.364706 0.313725 
1 0.364706 0.313725 1 0.364706 0.313725 
1 0.364706 0.313725 1 0.364706 0.313725 
1 0.364706 0.313725 1 0.364706 0.313725 
1 0.364706 0.313725 1 0.364706 0.313725 
1 0.364706 0.313725 1 0.364706 0.313725 
1 0.364706 0.313725 1 0.364706 0.313725 
1 0.364706 0.313725 1 0.364706 0.313725 
1 0.364706 0.313725 1 0.364706 0.313725 
1 0.364706 0.313725 1 0.364706 0.313725 
1 0.364706 0.313725 1 0.364706 0.313725 
1 0.364706 0.313725 1 0.364706 0.313725 
1 0.364706 0.313725 1 0.364706 0.313725 
1 0.364706 0.313725 1 0.364706 0.313725 
1 0.364706 0.313725 1 0.364706 0.313725 
1 0.364706 0.313725 1 0.364706 0.313725 
1 0.364706 0.313725 1 0.364706 0.313725 
1 0.364706 0.313725 1 0.364706 0.313725 
1 0.364706 0.313725 1 0.364706 0.313725 
1 0.364706 0.313725 1 0.364706 0.313725 
1 0.364706 0.313725 1 0.364706 0.313725 
1 0.364706 0.313725 1 0.364706 0.313725 
1 0.364706 0.313725 1 0.364706 0.313725 
1 0.364706 0.313725 1 0.364706 0.313725 
1 0.364706 0.313725 1 0.364706 0.313725 
1 0.364706 0.313725 1 0.364706 0.313725 
1 0.364706 0.313725 1 0.364706 0.313725 
1 0.364706 0.313725 1 0.364706 0.313725 
1 0.364706 0.313725 1 0.364706 0.313725 
1 0.364706 0.313725 1 0.364706 0.313725 
1 0.364706 0.313725 1 0.364706 0.313725 
1 0.364706 0.313725 1 0.364706 0.313725 
1 0.364706 0.313725 1 0.364706 0.313725 
1 0.364706 0.313725 1 0.364706 0.313725 

NORMALS Normals float
-0.168059 -0.400888 -0.90058 0.271706 -0.495684 -0.824908 -0.208648 -0.426504 -0.880091 
-0.170954 -0.532981 -0.828677 -0.381478 -0.645146 -0.662013 -0.0416592 -0.702214 -0.710746 
-0.129652 -0.20258 -0.970645 0.113335 -0.144485 -0.982995 -0.449864 -0.45522 -0.768373 
-0.195683 -0.366277 -0.909697 -0.0796745 -0.601579 -0.79483 -0.0106146 -0.534812 -0.844904 
-0.0334199 -0.601325 -0.798305 0.412784 -0.348179 -0.841654 -0.468444 -0.432584 -0.770345 
-0.0480282 -0.176355 -0.983154 0.492613 -0.178833 -0.851676 -0.508307 -0.45981 -0.728147 
-0.0585975 -0.196819 -0.978687 -0.683349 -0.618737 -0.387555 -0.282471 -0.300454 -0.911009 
-0.0246899 -0.252384 -0.967312 0.433543 -0.17451 -0.884074 -0.468494 -0.52274 -0.712219 
-0.010314 -0.146834 -0.989107 -0.534091 -0.647127 -0.544034 -0.226693 -0.241672 -0.943507 
-0.405467 -0.638532 -0.65412 -0.419046 -0.716809 -0.557303 -0.297263 -0.641488 -0.707197 
-0.337344 -0.73707 -0.585599 -0.465595 -0.581168 -0.667431 -0.344341 -0.801338 -0.48917 
-0.585748 -0.534686 -0.609106 -0.649708 -0.704815 -0.284807 -0.335706 -0.408313 -0.848871 
-0.0906909 -0.300521 -0.949454 -0.710645 -0.346905 -0.612079 -0.325672 -0.215817 -0.920522 
0.522251 -0.158865 -0.837864 0.792591 -0.182489 -0.581806 -0.759108 -0.096881 -0.643715 
0.664752 -0.0613929 -0.744537 0.925022 -0.10781 -0.364296 -0.475584 -0.0618674 -0.877492 
-0.235267 -0.109809 -0.965708 0.230238 -0.0332737 -0.972565 -0.0141602 0.0190293 -0.999719 
0.578906 -0.0544014 -0.813578 -0.218586 -0.00126318 -0.975817 0.0637772 -0.05545 -0.996423 
0.0458544 0.109644 -0.992913 0.173728 -0.0349851 -0.984172 0.742037 0.0133861 -0.670225 
-0.387431 -0.196524 -0.900708 -0.193619 -0.135713 -0.971645 -0.62803 0.0298813 -0.777615 
-0.382719 0.112846 -0.916947 -0.104459 -0.00327655 -0.994524 0.135233 0.305556 -0.942522 
0.038431 0.41795 -0.907657 0.107086 0.492175 -0.863884 0.0541822 0.345159 -0.936979 
0.0221404 0.395138 -0.918355 0.126155 0.618974 -0.775213 0.0257223 0.606179 -0.794913 
0.611298 0.276058 -0.741691 0.128271 0.350157 -0.927866 0.0113184 0.488747 -0.872352 
0.160374 0.847927 -0.505272 0.111442 0.84546 -0.522282 0.235044 0.54827 -0.802592 
0.606161 0.631627 -0.48334 0.0906185 0.810416 -0.578804 0.1217 0.620161 -0.774977 
0.248652 0.644968 -0.722626 0.191901 0.84211 -0.504009 -0.172937 0.102555 -0.979579 
0.420264 0.776802 -0.468996 0.281043 0.868688 -0.407917 -0.952414 0.0197015 -0.304169 
-0.44426 0.162696 -0.881001 0.018516 0.323237 -0.946137 0.426538 0.577377 -0.696205 
0.407515 0.520211 -0.750541 0.430373 0.658828 -0.617029 -0.862166 0.175388 -0.475299 
-0.536792 0.310826 -0.784373 0.188524 0.335023 -0.923157 0.37335 0.522537 -0.766528 
-0.471093 0.418494 -0.776488 0.251089 0.670618 -0.698016 -0.0692982 0.556761 -0.827777 
-0.181824 -0.738629 -0.649128 0.243976 -0.819649 -0.518317 0.28437 -0.744202 -0.604398 
-0.00655748 -0.519114 -0.85468 0.584994 -0.707851 -0.39589 -0.301494 -0.669147 -0.679223 
0.622508 -0.661567 -0.418106 -0.317882 -0.943742 -0.0911159 -0.472055 -0.834956 -0.282865 
-0.217959 -0.849244 -0.480914 -0.122799 -0.991546 0.0419235 -0.371388 -0.710434 -0.597791 
-0.310944 -0.478284 -0.821315 0.684539 -0.585883 -0.43376 0.554199 -0.407583 -0.725768 
0.805867 -0.563818 -0.180799 -0.488655 -0.641092 -0.591792 -0.698161 -0.71584 -0.0120309 
-0.708573 -0.63992 -0.297365 -0.125578 -0.612446 -0.780474 -0.0525368 -0.855745 -0.514724 
-0.0358361 -0.897336 -0.439891 -0.115872 -0.592573 -0.797139 -0.354116 -0.822562 -0.444964 
-0.264324 -0.528654 -0.806634 0.790463 -0.453648 -0.411548 0.790624 -0.362464 -0.49349 