# vtk DataFile Version 4.2
vtk output
ASCII
DATASET POLYDATA
POINTS 583 float
249.866 270.459 189.913 251.522 270.263 189.963 251.808 269.899 190.247 
252.525 270.219 190.101 252.734 270.192 190.211 252.607 270.048 190.234 
252.737 270.081 190.353 248.575 270.594 189.988 248.355 270.901 189.871 
249.861 271.027 189.647 252.734 270.461 190.174 252.851 270.303 190.397 
247.833 271.432 189.879 248.949 271.525 189.612 251.026 271.349 189.612 
252.284 271.089 189.913 248.14 272.099 189.799 248.557 271.844 189.661 
252.134 271.712 189.884 252.639 271.51 190.159 249.46 272.955 189.719 
251.951 272.391 189.905 252.97 271.922 190.577 250.62 273.239 189.751 
247.053 270.093 190.888 251.503 269.531 190.648 246.337 270.607 190.759 
246.422 271.089 190.545 245.899 270.831 190.864 247.939 272.694 190.045 
248.78 274.199 190.5 252.571 274.052 190.831 253.126 273.665 191.316 
251.081 269.141 191.085 251.303 269.17 191.078 247.546 269.363 191.896 
252.426 269.83 190.895 244.547 270.492 191.776 243.425 271.578 192.002 
243.679 272.054 191.881 244.658 272.64 191.447 253.499 273.834 192.062 
252.02 276.063 191.58 253.187 275.604 192.399 244.453 269.87 192.47 
247.23 269.222 192.464 253.111 270.869 191.904 242.209 271.088 192.963 
242.01 271.364 193.048 250.86 277.416 192.309 251.896 269.58 192.095 
241.806 270.6 193.976 253.349 271.638 192.755 240.979 272.803 193.857 
247.464 269.056 193.588 250.667 269.453 193.683 251.732 269.691 192.89 
252.359 270.448 193.946 252.729 270.881 193.838 240.169 271.887 194.869 
253.513 272.49 193.886 241.052 273.629 194.173 253.929 275.503 194.424 
249.887 279.693 194.593 253.33 278.673 195.201 251.517 269.995 194.321 
252.028 270.273 194.25 251.78 270.297 194.72 239.454 272.843 195.618 
239.335 273.348 195.852 254.007 275.73 195.251 253.675 278.744 196.024 
251.875 280.512 195.558 251.974 281.012 196.065 252.248 281.216 196.469 
253.031 280.371 196.471 241.238 270.375 195.88 250.524 269.939 195.374 
252.544 271.456 195.686 238.877 272.313 196.641 239.06 272.555 196.211 
238.674 272.732 196.816 240.001 274.727 196.006 253.958 275.159 195.995 
254.071 276.731 196.237 254.037 277.519 196.392 250.156 281.703 196.908 
242.503 269.663 196.252 242.869 269.538 196.435 244.354 269.375 196.685 
238.968 271.843 197.164 238.393 272.658 197.377 238.326 272.449 197.748 
253.417 273.64 196.666 252.095 282.192 197.741 250.173 270.943 198.04 
238.358 272.04 198.841 251.876 272.111 198.173 253.99 280.234 198.74 
251.708 282.896 198.831 252.913 282.617 199.193 253.33 282.16 199.314 
244.861 269.863 198.436 238.756 271.633 198.898 252.711 273.432 198.904 
239.326 276.436 198.901 237.343 273.25 200.019 236.941 274.192 200.761 
237.893 275.554 199.6 252.421 283.582 200.772 236.734 274.044 201.562 
252.947 283.7 201.92 252.721 283.999 202.289 237.027 273.089 202.541 
251.932 274.151 202.084 236.877 275.255 201.456 239.4 277.867 201.654 
254.061 282.206 202.658 251.727 284.217 202.201 252.338 284.187 202.402 
252.717 284.225 203.064 239.362 271.388 202.305 237.445 272.612 203.091 
236.278 274.229 203.315 236.123 274.677 203.416 236.056 274.5 203.784 
236.159 274.999 203.36 247.58 283.283 203.267 251.374 284.506 203.112 
236.129 274.126 204.646 235.986 274.523 204.308 235.931 274.879 204.552 
252.915 284.901 205.349 236.881 273.187 205.733 253.307 285.062 206.937 
235.939 275.735 207.052 251.369 285.797 208.534 253.213 285.621 208.622 
237.14 273.695 209.076 235.943 275.437 208.379 236.328 276.621 208.72 
252.922 278.243 209.176 254.597 281.982 209.118 247.299 284.32 209.229 
254.444 283.909 208.849 252.49 285.982 209.295 236.506 274.718 209.704 
245.127 273.34 209.704 236.013 275.406 208.948 236.087 275.598 209.28 
254.69 282.674 209.566 250.617 285.933 210.659 252.51 286.182 210.767 
236.762 274.981 210.665 236.13 275.919 209.286 253.857 285.61 211.104 
237.826 274.198 211.623 238.223 274.143 212.076 240.936 273.016 211.221 
247.039 274.737 211.406 236.854 275.606 211.132 236.752 276.237 210.84 
254.662 282.26 211.797 254.622 284.301 212.307 254.17 285.292 211.777 
251.741 286.29 211.994 253.389 286.029 212.104 242.487 273.327 211.858 
237.693 274.74 212.079 237.639 277.047 212.197 237.7 277.339 212.06 
254.709 283.753 212.947 239.416 273.984 212.78 238.662 277.914 213.309 
239.475 279.097 213.726 240.214 280.101 213.38 254.122 281.217 214.108 
253.333 286.063 214.021 242.806 274.408 213.98 239.175 276.237 214.178 
239.543 276.046 214.44 238.615 276.978 213.635 248.08 285.433 215.099 
254.57 284.437 214.811 252.012 286.519 215.469 254.15 285.328 215.254 
241.827 274.732 214.407 240.331 275.522 214.722 246.134 276.262 215.759 
242.214 281.114 216.252 254.347 284.969 215.597 241.883 275.687 215.299 
242.711 275.851 215.58 241.156 276.486 215.57 241.271 277.886 216.098 
252.441 280.001 217.455 241.718 280.053 216.415 243.865 282.825 217.072 
252.609 286.517 217.423 243.818 277.537 217.346 243.518 277.987 217.592 
248.887 278.009 217.615 242.872 278.684 217.605 251.085 279.147 218.002 
241.916 279.756 216.775 242.837 281.132 217.781 254.174 283.066 217.795 
252.415 286.659 218.167 245.925 278.121 218.57 244.948 278.964 219.276 
243.033 280.153 218.238 252.031 280.155 219.136 244.062 282.507 218.988 
250.607 286.673 218.864 253 286.572 219.45 253.182 286.535 220.047 
243.86 280.455 219.514 252.791 281.003 219.483 243.715 281.452 219.409 
243.781 281.898 219.211 246.199 284.468 219.756 253.658 285.864 220.354 
251.692 286.955 220.321 252.721 286.872 220.778 243.97 281.311 219.88 
244.282 281.773 220.331 253.77 283.49 220.632 244.791 282.848 220.525 
253.353 286.415 221.327 245.276 281.224 221.753 245 281.636 221.599 
244.685 281.788 221.085 244.855 282.289 221.342 245.498 283.003 222.004 
251.689 287.013 221.642 252.896 286.845 222.213 246.757 280.376 222.17 
253.05 282.487 222.153 246.476 283.987 222.54 253.601 285.124 222.633 
253.351 286.197 222.756 252.323 287.037 222.344 253.117 286.593 222.796 
248.457 280.837 223.243 245.933 282.497 223.066 253.288 283.899 223.297 
246.267 282.935 223.495 246.503 283.331 223.644 246.639 283.705 223.388 
253.344 285.797 223.415 250.021 286.27 223.577 252.818 286.79 223.332 
252.63 286.911 223.118 251.603 281.732 223.577 246.59 282.755 223.939 
252.662 283.123 224.17 252.78 283.632 224.534 246.851 283.515 223.971 
250.63 286.222 225.018 252.457 283.692 225.216 247.543 283.328 224.87 
252.544 284.146 225.499 248.34 284.53 225.059 250.081 285.826 225.714 
252.816 286.077 224.696 252.586 286.068 225.045 249.451 283.039 226.021 
251.971 283.247 225.421 251.355 283.552 226.82 251.944 284.111 226.983 
248.969 284.306 226.235 252.246 284.793 226.873 249.564 285.32 226.347 
250.019 285.521 226.965 252.642 285.666 225.414 251.514 285.929 226.546 
249.721 283.433 226.682 250.579 283.334 226.856 249.195 283.745 226.466 
249.44 284.004 227.265 250.04 283.533 227.646 250.918 283.47 227.767 
249.385 284.682 227.085 251.796 283.96 227.793 252.068 284.42 227.806 
250.004 285.42 227.913 252.104 285.157 227.655 250.62 285.723 228.289 
251.553 285.707 227.706 249.768 282.723 229.522 248.965 283.334 229.353 
250.196 283.233 228.687 251.199 283.287 228.777 251.878 283.279 229.402 
248.258 283.565 229.955 248.338 283.839 229.893 249.397 283.757 228.605 
251.88 283.86 228.599 252.575 283.556 230.087 248.465 284.218 229.94 
249.064 284.469 229.209 249.437 284.553 228.091 252.3 284.594 228.934 
249.719 285.234 228.795 252.132 285.459 229.003 252.696 285.11 230.027 
251.556 285.913 229.169 251.971 286.146 230.093 250.594 281.664 230.824 
251.708 282.457 230.185 251.475 282.143 230.52 252.229 282.864 230.211 
247.978 284.262 230.76 253.112 284.17 230.737 253.095 284.677 230.692 
249.815 285.888 230.596 250.431 286.171 230.548 251.433 286.459 230.824 
247.873 281.872 231.239 247.114 282.238 231.465 246.622 282.12 231.929 
246.315 282.32 232.239 247.156 282.76 231.262 246.543 283.084 232.071 
253.212 283.559 231.257 249.052 285.78 231.903 253.228 285.656 231.434 
252.853 286.24 231.519 252.864 286.507 232.101 246.06 281.769 232.741 
253.432 283.303 232.154 246.435 283.668 232.772 252.523 286.84 232.685 
253.46 285.9 232.584 248.484 280.282 233.147 246.039 281.158 233.341 
253.763 285.588 233.445 252.764 286.821 233.145 246.803 280.265 233.668 
246.86 280.004 234.042 245.04 281.865 234.433 250.099 286.547 233.994 
253.548 286.245 234.298 253.211 286.632 234.411 248.934 279.106 235.548 
245.403 279.974 235.145 244.027 280.739 235.998 244.809 280.852 235.069 
243.984 281.503 236.13 254.117 284.592 235.032 252.843 286.865 235.401 
246.025 278.765 236.395 243.745 281.63 236.742 253.03 281.226 235.882 
243.17 280.947 237.447 254.101 285.441 236.783 253.239 286.673 236.526 
242.787 277.45 238.617 242.375 277.69 238.719 242.249 278.293 238.612 
243.045 281.274 237.933 243.309 281.89 238.217 254.349 283.403 238.033 
254.363 284.278 237.553 253.68 286.13 237.536 241.933 276.474 239.552 
241.439 276.172 239.9 243.138 276.564 239.19 244.119 276.398 239.28 
247.51 277.06 239.283 241.632 278.623 239.111 241.077 278.992 239.729 
243.591 282.481 238.944 245.481 284.065 238.801 254.578 283.784 239.263 
254.327 284.903 238.554 254.032 285.561 238.697 240.253 275.541 240.782 
239.786 277.32 240.772 245.028 283.743 239.848 239.704 274.594 241.923 
239.574 274.918 241.66 238.984 275.532 241.692 239.24 277.068 241.28 
239.506 278.48 241.42 239.693 279.035 241.548 242.139 281.673 241.668 
254.221 285.289 241.181 240.863 273.852 242.554 242.316 273.723 242.564 
238.763 275.332 242.059 238.656 274.914 242.496 237.81 276.103 243.148 
238.151 277.154 242.611 239.691 279.343 241.972 254.706 283.636 241.984 
243.421 273.398 243.726 238.375 274.272 243.497 237.91 274.581 243.707 
237.37 275.986 243.906 238.657 278.838 243.601 243.864 282.873 242.73 
254.746 282.91 242.851 237.832 274.037 244.417 237.185 275.012 244.448 
237.067 274.694 244.867 237.092 275.561 244.426 236.748 275.767 245.14 
236.797 276.414 245.26 237.429 277.45 244.739 252.217 286.184 244.486 
236.675 276.63 245.914 249.236 285.317 245.358 250.528 285.801 245.454 
[...]
POINT_DATA 583
COLOR_SCALARS scalars 3
0.94902 0.282353 0.231373 0.94902 0.282353 0.231373 0.94902 0.282353 0.231373 
0.94902 0.282353 0.231373 0.94902 0.282353 0.231373 
0.94902 0.282353 0.231373 0.94902 0.282353 0.231373 
0.94902 0.282353 0.231373 0.94902 0.282353 0.231373 
0.94902 0.282353 0.231373 0.94902 0.282353 0.231373 
0.94902 0.282353 0.231373 0.94902 0.282353 0.231373 
0.94902 0.282353 0.231373 0.94902 0.282353 0.231373 
0.94902 0.282353 0.231373 0.94902 0.282353 0.231373 
0.94902 0.282353 0.231373 0.94902 0.282353 0.231373 
0.94902 0.282353 0.231373 0.94902 0.282353 0.231373 
0.94902 0.282353 0.231373 0.94902 0.282353 0.231373 
0.94902 0.282353 0.231373 0.94902 0.282353 0.231373 
0.94902 0.282353 0.231373 0.94902 0.282353 0.231373 
0.94902 0.282353 0.231373 0.94902 0.282353 0.231373 
0.94902 0.282353 0.231373 0.94902 0.282353 0.231373 
0.94902 0.282353 0.231373 0.94902 0.282353 0.231373 
0.94902 0.282353 0.231373 0.94902 0.282353 0.231373 
0.94902 0.282353 0.231373 0.94902 0.282353 0.231373 
0.94902 0.282353 0.231373 0.94902 0.282353 0.231373 
0.94902 0.282353 0.231373 0.94902 0.282353 0.231373 
0.94902 0.282353 0.231373 0.94902 0.282353 0.231373 
0.94902 0.282353 0.231373 0.94902 0.282353 0.231373 
0.94902 0.282353 0.231373 0.94902 0.282353 0.231373 
0.94902 0.282353 0.231373 0.94902 0.282353 0.231373 
0.94902 0.282353 0.231373 0.94902 0.282353 0.231373 
0.94902 0.282353 0.231373 0.94902 0.282353 0.231373 
0.94902 0.282353 0.231373 0.94902 0.282353 0.231373 
0.94902 0.282353 0.231373 0.94902 0.282353 0.231373 
0.94902 0.282353 0.231373 0.94902 0.282353 0.231373 
0.94902 0.282353 0.231373 0.94902 0.282353 0.231373 
0.94902 0.282353 0.231373 0.94902 0.282353 0.231373 
0.94902 0.282353 0.231373 0.94902 0.282353 0.231373 
0.94902 0.282353 0.231373 0.94902 0.282353 0.231373 
0.94902 0.282353 0.231373 0.94902 0.282353 0.231373 
0.94902 0.282353 0.231373 0.94902 0.282353 0.231373 
0.94902 0.282353 0.231373 0.94902 0.282353 0.231373 
0.94902 0.282353 0.231373 0.94902 0.282353 0.231373 
0.94902 0.282353 0.231373 0.94902 0.282353 0.231373 
0.94902 0.282353 0.231373 0.94902 0.282353 0.231373 
0.94902 0.282353 0.231373 0.94902 0.282353 0.231373 
0.94902 0.282353 0.231373 0.94902 0.282353 0.231373 
0.94902 0.282353 0.231373 0.94902 0.282353 0.231373 
0.94902 0.282353 0.231373 0.94902 0.282353 0.231373 
0.94902 0.282353 0.231373 0.94902 0.282353 0.231373 
0.94902 0.282353 0.231373 0.94902 0.282353 0.231373 
0.94902 0.282353 0.231373 0.94902 0.282353 0.231373 
0.94902 0.282353 0.231373 0.94902 0.282353 0.231373 
0.94902 0.282353 0.231373 0.94902 0.282353 0.231373 
0.94902 0.282353 0.231373 0.94902 0.282353 0.231373 
0.94902 0.282353 0.231373 0.94902 0.282353 0.231373 
0.94902 0.282353 0.231373 0.94902 0.282353 0.231373 
0.94902 0.282353 0.231373 0.94902 0.282353 0.231373 
0.94902 0.282353 0.231373 0.94902 0.282353 0.231373 
0.94902 0.282353 0.231373 0.94902 0.282353 0.231373 
0.94902 0.282353 0.231373 0.94902 0.282353 0.231373 
0.94902 0.282353 0.231373 0.94902 0.282353 0.231373 
0.94902 0.282353 0.231373 0.94902 0.282353 0.231373 
0.94902 0.282353 0.231373 0.94902 0.282353 0.231373 
0.94902 0.282353 0.231373 0.94902 0.282353 0.231373 
0.94902 0.282353 0.231373 0.94902 0.282353 0.231373 
0.94902 0.282353 0.231373 0.94902 0.282353 0.231373 
0.94902 0.282353 0.231373 0.94902 0.282353 0.231373 
0.94902 0.282353 0.231373 0.94902 0.282353 0.231373 
0.94902 0.282353 0.231373 0.94902 0.282353 0.231373 
0.94902 0.282353 0.231373 0.94902 0.282353 0.231373 
0.94902 0.282353 0.231373 0.94902 0.282353 0.231373 
0.94902 0.282353 0.231373 0.94902 0.282353 0.231373 
0.94902 0.282353 0.231373 0.94902 0.282353 0.231373 
0.94902 0.282353 0.231373 0.94902 0.282353 0.231373 
0.94902 0.282353 0.231373 0.94902 0.282353 0.231373 
0.94902 0.282353 0.231373 0.94902 0.282353 0.231373 
0.94902 0.282353 0.231373 0.94902 0.282353 0.231373 
0.94902 0.282353 0.231373 0.94902 0.282353 0.231373 
0.94902 0.282353 0.231373 0.94902 0.282353 0.231373 
0.94902 0.282353 0.231373 0.94902 0.282353 0.231373 
0.94902 0.282353 0.231373 0.94902 0.282353 0.231373 
0.94902 0.282353 0.231373 0.94902 0.282353 0.231373 
0.94902 0.282353 0.231373 0.94902 0.282353 0.231373 
0.94902 0.282353 0.231373 0.94902 0.282353 0.231373 
0.94902 0.282353 0.231373 0.94902 0.282353 0.231373 
0.94902 0.282353 0.231373 0.94902 0.282353 0.231373 
0.94902 0.282353 0.231373 0.94902 0.282353 0.231373 
0.94902 0.282353 0.231373 0.94902 0.282353 0.231373 
0.94902 0.282353 0.231373 0.94902 0.282353 0.231373 
0.94902 0.282353 0.231373 0.94902 0.282353 0.231373 
0.94902 0.282353 0.231373 0.94902 0.282353 0.231373 
0.94902 0.282353 0.231373 0.94902 0.282353 0.231373 
0.94902 0.282353 0.231373 0.94902 0.282353 0.231373 
0.94902 0.282353 0.231373 0.94902 0.282353 0.231373 
0.94902 0.282353 0.231373 0.94902 0.282353 0.231373 
0.94902 0.282353 0.231373 0.94902 0.282353 0.231373 
0.94902 0.282353 0.231373 0.94902 0.282353 0.231373 
0.94902 0.282353 0.231373 0.94902 0.282353 0.231373 
0.94902 0.282353 0.231373 0.94902 0.282353 0.231373 
0.94902 0.282353 0.231373 0.94902 0.282353 0.231373 
0.94902 0.282353 0.231373 0.94902 0.282353 0.231373 
0.94902 0.282353 0.231373 0.94902 0.282353 0.231373 
0.94902 0.282353 0.231373 0.94902 0.282353 0.231373 
0.94902 0.282353 0.231373 0.94902 0.282353 0.231373 
0.94902 0.282353 0.231373 0.94902 0.282353 0.231373 
0.94902 0.282353 0.231373 0.94902 0.282353 0.231373 
0.94902 0.282353 0.231373 0.94902 0.282353 0.231373 
0.94902 0.282353 0.231373 0.94902 0.282353 0.231373 
0.94902 0.282353 0.231373 0.94902 0.282353 0.231373 
0.94902 0.282353 0.231373 0.94902 0.282353 0.231373 
0.94902 0.282353 0.231373 0.94902 0.282353 0.231373 
0.94902 0.282353 0.231373 0.94902 0.282353 0.231373 
0.94902 0.282353 0.231373 0.94902 0.282353 0.231373 
0.94902 0.282353 0.231373 0.94902 0.282353 0.231373 
0.94902 0.282353 0.231373 0.94902 0.282353 0.231373 
0.94902 0.282353 0.231373 0.94902 0.282353 0.231373 
0.94902 0.282353 0.231373 0.94902 0.282353 0.231373 
0.94902 0.282353 0.231373 0.94902 0.282353 0.231373 
0.94902 0.282353 0.231373 0.94902 0.282353 0.231373 
0.94902 0.282353 0.231373 0.94902 0.282353 0.231373 
0.94902 0.282353 0.231373 0.94902 0.282353 0.231373 
0.94902 0.282353 0.231373 0.94902 0.282353 0.231373 
0.94902 0.282353 0.231373 0.94902 0.282353 0.231373 
0.94902 0.282353 0.231373 0.94902 0.282353 0.231373 
0.94902 0.282353 0.231373 0.94902 0.282353 0.231373 
0.94902 0.282353 0.231373 0.94902 0.282353 0.231373 
0.94902 0.282353 0.231373 0.94902 0.282353 0.231373 
0.94902 0.282353 0.231373 0.94902 0.282353 0.231373 
0.94902 0.282353 0.231373 0.94902 0.282353 0.231373 
0.94902 0.282353 0.231373 0.94902 0.282353 0.231373 
0.94902 0.282353 0.231373 0.94902 0.282353 0.231373 
0.94902 0.282353 0.231373 0.94902 0.282353 0.231373 
0.94902 0.282353 0.231373 0.94902 0.282353 0.231373 
0.94902 0.282353 0.231373 0.94902 0.282353 0.231373 
0.94902 0.282353 0.231373 0.94902 0.282353 0.231373 
0.94902 0.282353 0.231373 0.94902 0.282353 0.231373 
0.94902 0.282353 0.231373 0.94902 0.282353 0.231373 
0.94902 0.282353 0.231373 0.94902 0.282353 0.231373 
0.94902 0.282353 0.231373 0.94902 0.282353 0.231373 
0.94902 0.282353 0.231373 0.94902 0.282353 0.231373 
0.94902 0.282353 0.231373 0.94902 0.282353 0.231373 
0.94902 0.282353 0.231373 0.94902 0.282353 0.231373 
0.94902 0.282353 0.231373 0.94902 0.282353 0.231373 
0.94902 0.282353 0.231373 0.94902 0.282353 0.231373 
0.94902 0.282353 0.231373 0.94902 0.282353 0.231373 
0.94902 0.282353 0.231373 0.94902 0.282353 0.231373 
0.94902 0.282353 0.231373 0.94902 0.282353 0.231373 
0.94902 0.282353 0.231373 0.94902 0.282353 0.231373 
0.94902 0.282353 0.231373 0.94902 0.282353 0.231373 
0.94902 0.282353 0.231373 0.94902 0.282353 0.231373 
0.94902 0.282353 0.231373 0.94902 0.282353 0.231373 
0.94902 0.282353 0.231373 0.94902 0.282353 0.231373 
0.94902 0.282353 0.231373 0.94902 0.282353 0.231373 
0.94902 0.282353 0.231373 0.94902 0.282353 0.231373 
0.94902 0.282353 0.231373 0.94902 0.282353 0.231373 
0.94902 0.282353 0.231373 0.94902 0.282353 0.231373 
0.94902 0.282353 0.231373 0.94902 0.282353 0.231373 
0.94902 0.282353 0.231373 0.94902 0.282353 0.231373 
0.94902 0.282353 0.231373 0.94902 0.282353 0.231373 
0.94902 0.282353 0.231373 0.94902 0.282353 0.231373 
0.94902 0.282353 0.231373 0.94902 0.282353 0.231373 
0.94902 0.282353 0.231373 0.94902 0.282353 0.231373 
0.94902 0.282353 0.231373 0.94902 0.282353 0.231373 
0.94902 0.282353 0.231373 0.94902 0.282353 0.231373 
0.94902 0.282353 0.231373 0.94902 0.282353 0.231373 
0.94902 0.282353 0.231373 0.94902 0.282353 0.231373 
0.94902 0.282353 0.231373 0.94902 0.282353 0.231373 
0.94902 0.282353 0.231373 0.94902 0.282353 0.231373 
0.94902 0.282353 0.231373 0.94902 0.282353 0.231373 
0.94902 0.282353 0.231373 0.94902 0.282353 0.231373 
0.94902 0.282353 0.231373 0.94902 0.282353 0.231373 
0.94902 0.282353 0.231373 0.94902 0.282353 0.231373 
0.94902 0.282353 0.231373 0.94902 0.282353 0.231373 
0.94902 0.282353 0.231373 0.94902 0.282353 0.231373 
0.94902 0.282353 0.231373 0.94902 0.282353 0.231373 
0.94902 0.282353 0.231373 0.94902 0.282353 0.231373 
0.94902 0.282353 0.231373 0.94902 0.282353 0.231373 
0.94902 0.282353 0.231373 0.94902 0.282353 0.231373 
0.94902 0.282353 0.231373 0.94902 0.282353 0.231373 
0.94902 0.282353 0.231373 0.94902 0.282353 0.231373 
0.94902 0.282353 0.231373 0.94902 0.282353 0.231373 
0.94902 0.282353 0.231373 0.94902 0.282353 0.231373 
0.94902 0.282353 0.231373 0.94902 0.282353 0.231373 
0.94902 0.282353 0.231373 0.94902 0.282353 0.231373 
0.94902 0.282353 0.231373 0.94902 0.282353 0.231373 
0.94902 0.282353 0.231373 0.94902 0.282353 0.231373 
0.94902 0.282353 0.231373 0.94902 0.282353 0.231373 
0.94902 0.282353 0.231373 0.94902 0.282353 0.231373 
0.94902 0.282353 0.231373 0.94902 0.282353 0.231373 
0.94902 0.282353 0.231373 0.94902 0.282353 0.231373 
0.94902 0.282353 0.231373 0.94902 0.282353 0.231373 
0.94902 0.282353 0.231373 0.94902 0.282353 0.231373 
0.94902 0.282353 0.231373 0.94902 0.282353 0.231373 
0.94902 0.282353 0.231373 0.94902 0.282353 0.231373 
0.94902 0.282353 0.231373 0.94902 0.282353 0.231373 
0.94902 0.282353 0.231373 0.94902 0.282353 0.231373 
0.94902 0.282353 0.231373 0.94902 0.282353 0.231373 
0.94902 0.282353 0.231373 0.94902 0.282353 0.231373 
0.94902 0.282353 0.231373 0.94902 0.282353 0.231373 
0.94902 0.282353 0.231373 0.94902 0.282353 0.231373 
0.94902 0.282353 0.231373 0.94902 0.282353 0.231373 
0.94902 0.282353 0.231373 0.94902 0.282353 0.231373 
0.94902 0.282353 0.231373 0.94902 0.282353 0.231373 
0.94902 0.282353 0.231373 0.94902 0.282353 0.231373 
0.94902 0.282353 0.231373 0.94902 0.282353 0.231373 
0.94902 0.282353 0.231373 0.94902 0.282353 0.231373 
0.94902 0.282353 0.231373 0.94902 0.282353 0.231373 
0.94902 0.282353 0.231373 0.94902 0.282353 0.231373 
0.94902 0.282353 0.231373 0.94902 0.282353 0.231373 
0.94902 0.282353 0.231373 0.94902 0.282353 0.231373 
0.94902 0.282353 0.231373 0.94902 0.282353 0.231373 
0.94902 0.282353 0.231373 0.94902 0.282353 0.231373 
0.94902 0.282353 0.231373 0.94902 0.282353 0.231373 
0.94902 0.282353 0.231373 0.94902 0.282353 0.231373 
0.94902 0.282353 0.231373 0.94902 0.282353 0.231373 
0.94902 0.282353 0.231373 0.94902 0.282353 0.231373 
0.94902 0.282353 0.231373 0.94902 0.282353 0.231373 
0.94902 0.282353 0.231373 0.94902 0.282353 0.231373 
0.94902 0.282353 0.231373 0.94902 0.282353 0.231373 
0.94902 0.282353 0.231373 0.94902 0.282353 0.231373 
0.94902 0.282353 0.231373 0.94902 0.282353 0.231373 
0.94902 0.282353 0.231373 0.94902 0.282353 0.231373 
0.94902 0.282353 0.231373 0.94902 0.282353 0.231373 
0.94902 0.282353 0.231373 0.94902 0.282353 0.231373 
0.94902 0.282353 0.231373 0.94902 0.282353 0.231373 
0.94902 0.282353 0.231373 0.94902 0.282353 0.231373 
0.94902 0.282353 0.231373 0.94902 0.282353 0.231373 
0.94902 0.282353 0.231373 0.94902 0.282353 0.231373 
0.94902 0.282353 0.231373 0.94902 0.282353 0.231373 
0.94902 0.282353 0.231373 0.94902 0.282353 0.231373 
0.94902 0.282353 0.231373 0.94902 0.282353 0.231373 
0.94902 0.282353 0.231373 0.94902 0.282353 0.231373 
0.94902 0.282353 0.231373 0.94902 0.282353 0.231373 
0.94902 0.282353 0.231373 0.94902 0.282353 0.231373 
0.94902 0.282353 0.231373 0.94902 0.282353 0.231373 
0.94902 0.282353 0.231373 0.94902 0.282353 0.231373 
0.94902 0.282353 0.231373 0.94902 0.282353 0.231373 
0.94902 0.282353 0.231373 0.94902 0.282353 0.231373 
0.94902 0.282353 0.231373 0.94902 0.282353 0.231373 
0.94902 0.282353 0.231373 0.94902 0.282353 0.231373 
0.94902 0.282353 0.231373 0.94902 0.282353 0.231373 
0.94902 0.282353 0.231373 0.94902 0.282353 0.231373 
0.94902 0.282353 0.231373 0.94902 0.282353 0.231373 
0.94902 0.282353 0.231373 0.94902 0.282353 0.231373 
0.94902 0.282353 0.231373 0.94902 0.282353 0.231373 
0.94902 0.282353 0.231373 0.94902 0.282353 0.231373 
0.94902 0.282353 0.231373 0.94902 0.282353 0.231373 
0.94902 0.282353 0.231373 0.94902 0.282353 0.231373 
0.94902 0.282353 0.231373 0.94902 0.282353 0.231373 
0.94902 0.282353 0.231373 0.94902 0.282353 0.231373 
0.94902 0.282353 0.231373 0.94902 0.282353 0.231373 
0.94902 0.282353 0.231373 0.94902 0.282353 0.231373 
0.94902 0.282353 0.231373 0.94902 0.282353 0.231373 
0.94902 0.282353 0.231373 0.94902 0.282353 0.231373 
0.94902 0.282353 0.231373 0.94902 0.282353 0.231373 
0.94902 0.282353 0.231373 0.94902 0.282353 0.231373 
0.94902 0.282353 0.231373 0.94902 0.282353 0.231373 
0.94902 0.282353 0.231373 0.94902 0.282353 0.231373 
0.94902 0.282353 0.231373 0.94902 0.282353 0.231373 
0.94902 0.282353 0.231373 0.94902 0.282353 0.231373 
0.94902 0.282353 0.231373 0.94902 0.282353 0.231373 
0.94902 0.282353 0.231373 0.94902 0.282353 0.231373 
0.94902 0.282353 0.231373 0.94902 0.282353 0.231373 
0.94902 0.282353 0.231373 0.94902 0.282353 0.231373 
0.94902 0.282353 0.231373 0.94902 0.282353 0.231373 
0.94902 0.282353 0.231373 0.94902 0.282353 0.231373 
0.94902 0.282353 0.231373 0.94902 0.282353 0.231373 
0.94902 0.282353 0.231373 0.94902 0.282353 0.231373 
0.94902 0.282353 0.231373 0.94902 0.282353 0.231373 
0.94902 0.282353 0.231373 0.94902 0.282353 0.231373 
0.94902 0.282353 0.231373 0.94902 0.282353 0.231373 
0.94902 0.282353 0.231373 0.94902 0.282353 0.231373 
0.94902 0.282353 0.231373 0.94902 0.282353 0.231373 
0.94902 0.282353 0.231373 0.94902 0.282353 0.231373 
0.94902 0.282353 0.231373 0.94902 0.282353 0.231373 
0.94902 0.282353 0.231373 0.94902 0.282353 0.231373 
0.94902 0.282353 0.231373 0.94902 0.282353 0.231373 
0.94902 0.282353 0.231373 0.94902 0.282353 0.231373 
0.94902 0.282353 0.231373 0.94902 0.282353 0.231373 
0.94902 0.282353 0.231373 0.94902 0.282353 0.231373 
0.94902 0.282353 0.231373 0.94902 0.282353 0.231373 
0.94902 0.282353 0.231373 0.94902 0.282353 0.231373 
0.94902 0.282353 0.231373 0.94902 0.282353 0.231373 
0.94902 0.282353 0.231373 0.94902 0.282353 0.231373 
0.94902 0.282353 0.231373 0.94902 0.282353 0.231373 
0.94902 0.282353 0.231373 0.94902 0.282353 0.231373 
0.94902 0.282353 0.231373 0.94902 0.282353 0.231373 
0.94902 0.282353 0.231373 0.94902 0.282353 0.231373 
0.94902 0.282353 0.231373 0.94902 0.282353 0.231373 
0.94902 0.282353 0.231373 0.94902 0.282353 0.231373 
0.94902 0.282353 0.231373 0.94902 0.282353 0.231373 
0.94902 0.282353 0.231373 0.94902 0.282353 0.231373 
0.94902 0.282353 0.231373 0.94902 0.282353 0.231373 
0.94902 0.282353 0.231373 0.94902 0.282353 0.231373 
0.94902 0.282353 0.231373 0.94902 0.282353 0.231373 
0.94902 0.282353 0.231373 0.94902 0.282353 0.231373 

NORMALS Normals float
-0.0642745 -0.4948 -0.866627 -0.0218983 -0.544401 -0.838539 0.0448154 -0.659357 -0.750493 
0.249349 -0.341428 -0.90623 0.677915 -0.352256 -0.64525 0.34989 -0.754574 -0.555153 
0.737726 -0.644274 -0.201672 -0.134289 -0.611331 -0.779898 -0.238576 -0.327871 -0.914102 
0.0474718 -0.100478 -0.993806 0.580464 -0.0612718 -0.811977 0.956184 -0.183192 -0.228371 
-0.378706 -0.120912 -0.917585 -0.0547147 -0.171525 -0.983659 0.124905 -0.12188 -0.984654 
0.37034 -0.0358201 -0.928205 -0.323568 0.182621 -0.928414 -0.106633 0.137269 -0.984777 
0.384321 0.137093 -0.912964 0.677166 0.112334 -0.727205 -0.153265 0.300416 -0.941414 
0.460215 0.246381 -0.852935 0.756469 0.155427 -0.635293 0.0854314 0.256239 -0.962831 
-0.304249 -0.659874 -0.687022 0.118522 -0.801631 -0.585953 -0.348085 -0.530981 -0.77259 
-0.406515 -0.124388 -0.905137 -0.458585 -0.482796 -0.746061 -0.333663 0.26255 -0.905393 
-0.210226 0.493617 -0.843888 0.647713 0.343622 -0.679994 0.837619 0.178468 -0.516279 
-0.0583897 -0.85475 -0.515745 0.284843 -0.948409 -0.139228 -0.12408 -0.907698 -0.400861 
0.626339 -0.776094 0.073327 -0.450444 -0.269872 -0.85104 -0.498907 -0.122787 -0.857913 
-0.494958 0.150418 -0.855798 -0.455174 0.369179 -0.810261 0.902109 0.17559 -0.394168 
0.347392 0.547085 -0.761588 0.800876 0.38565 -0.458118 -0.358418 -0.782852 -0.508604 
-0.195011 -0.958564 -0.207669 0.766486 -0.59786 0.234655 -0.579004 -0.459817 -0.673293 
-0.64872 0.0168417 -0.760841 0.0840845 0.649326 -0.755847 0.445967 -0.874384 0.191222 
-0.545657 -0.761551 -0.349712 0.891826 -0.441817 0.0971824 -0.633851 0.129588 -0.762522 
0.0835204 -0.991849 0.0962255 0.291951 -0.925182 0.242492 0.462674 -0.870322 0.168738 
0.643158 -0.744745 0.178051 0.792691 -0.50282 0.344694 -0.748914 -0.414344 -0.517153 
0.918897 -0.338508 0.202587 -0.51735 0.40871 -0.751868 0.98919 0.0327233 -0.142942 
-0.246241 0.727677 -0.640197 0.771614 0.437811 -0.461447 0.409564 -0.879464 0.242487 
0.667292 -0.661151 0.34293 0.425842 -0.80799 0.407198 -0.717206 -0.00607985 -0.696835 
-0.790397 0.270099 -0.549835 0.963522 0.169949 -0.206745 0.875587 0.349387 -0.33358 
0.373677 0.64854 -0.663145 0.308906 0.692637 -0.65179 0.366898 0.73893 -0.565128 
0.721413 0.520125 -0.457202 -0.59829 -0.800953 -0.0228795 0.319961 -0.873489 0.366937 
0.729567 -0.615946 0.297225 -0.761897 -0.45523 -0.460738 -0.770064 -0.252031 -0.586074 
-0.892818 -0.137572 -0.428893 -0.434342 0.632109 -0.641705 0.974008 -0.204934 0.0964896 
0.996906 0.000716233 0.0786011 0.990609 0.122765 -0.0601903 -0.125761 0.817199 -0.562468 
-0.312043 -0.943097 -0.114879 -0.296546 -0.945789 0.132449 -0.0166713 -0.999789 0.012002 
-0.731544 -0.631932 -0.255939 -0.949044 -0.0176915 -0.314648 -0.923023 -0.345693 -0.168891 
0.92752 -0.298249 0.225287 0.539331 0.716095 -0.443091 0.346411 -0.84697 0.403289 
-0.952241 -0.175404 -0.249939 0.643639 -0.64628 0.409941 0.982372 0.144477 -0.118621 
0.00198376 0.910464 -0.413585 0.54425 0.736526 -0.401648 0.808916 0.493226 -0.319974 
0.0828421 -0.942495 0.323791 -0.653131 -0.754327 -0.0664102 0.718278 -0.573805 0.393478 
-0.494357 0.709672 -0.501974 -0.827278 -0.514842 -0.224828 -0.891817 0.0938773 -0.442549 
-0.696261 0.636898 -0.331031 0.54305 0.778511 -0.314672 -0.954942 -0.173339 -0.240912 
0.523449 0.767557 -0.369943 0.591795 0.767267 -0.247143 -0.82433 -0.558915 -0.0899655 
0.601072 -0.71295 0.36113 -0.867313 0.412841 -0.278084 -0.477414 0.815984 -0.325955 
0.895199 0.412226 -0.169377 0.127175 0.940611 -0.314767 0.235359 0.90135 -0.363559 
0.428921 0.873953 -0.228544 -0.455774 -0.885555 0.0897959 -0.618435 -0.78576 0.0109438 
-0.888142 -0.402714 -0.221417 -0.905825 -0.0790929 -0.416204 -0.937087 -0.298665 -0.180743 
-0.908338 0.313603 -0.276721 -0.390698 0.885089 -0.252929 -0.0837778 0.965099 -0.248123 
-0.9079 -0.418981 0.013142 -0.969375 -0.243034 -0.0352959 -0.998633 -0.0204641 -0.0480894 
0.274352 0.944455 -0.18093 -0.688203 -0.725316 -0.0171258 0.414064 0.871462 -0.262877 
-0.86629 0.491089 -0.0915056 -0.106093 0.957088 -0.269681 0.34934 0.908495 -0.229345 
-0.441562 -0.889364 0.118553 -0.982029 -0.164428 0.0926447 -0.845951 0.532821 0.0216405 
0.730021 -0.65413 0.197946 0.988668 -0.144711 -0.0399214 -0.451836 0.887079 -0.0945222 
0.966746 0.231118 -0.109482 0.0589264 0.980095 -0.18958 -0.836746 -0.468471 0.283534 
0.292239 -0.920646 0.258857 -0.991797 -0.0220354 0.125908 -0.940511 -0.0778665 0.330722 
0.996116 0.0474236 -0.0741933 -0.245045 0.966241 -0.0795672 0.187043 0.975166 -0.118598 