# vtk DataFile Version 4.2
vtk output
ASCII
DATASET POLYDATA
POINTS 404 float
252.061 190.174 215.49 251.947 189.971 215.563 251.809 190.189 215.576 
252.237 190.032 215.551 252.044 190.333 215.514 251.905 190.441 215.628 
273.663 186.961 216.906 273.042 186.959 216.999 276.111 187.428 216.832 
276.481 187.247 216.932 251.646 188.717 216.152 253.259 188.793 216.118 
254.953 188.519 216.53 274.075 187.596 216.946 274.505 187.884 216.991 
276.398 187.768 216.867 277.04 187.857 216.986 249.369 189.06 216.628 
251.031 188.811 216.217 252.176 189.624 215.726 254.252 189.357 216.175 
276.012 188.012 216.926 249.046 189.756 216.559 248.878 189.717 216.7 
248.974 189.799 216.616 249.425 189.759 216.459 248.98 189.592 216.654 
251.493 189.801 215.767 252.725 190.055 215.713 250.25 190.407 216.514 
251.465 190.348 215.839 253.988 190.475 216.198 253.303 191.232 216.232 
268.188 185.33 217.898 267.381 185.629 217.874 272.52 185.652 217.65 
274.157 186.079 217.483 253.629 187.745 216.769 254.239 187.323 217.148 
254.852 187.423 217.074 255.786 187.783 217.016 270.439 186.353 217.379 
271.617 186.976 217.299 272.322 186.623 217.167 276.82 187.256 217.013 
250.073 188.367 216.785 251.344 188.426 216.398 251.396 187.957 216.841 
252.332 187.802 216.831 277.677 188.224 217.217 278.439 187.839 217.472 
279.027 188.127 217.63 247.758 188.964 217.522 247.806 189.053 217.401 
247.997 188.845 217.454 248.835 189.267 216.825 255.625 188.9 216.723 
276.989 188.561 217.251 278.945 188.763 217.644 279.47 188.835 217.88 
248.647 189.599 217.144 250.479 190.702 216.796 250.96 190.998 216.98 
251.953 191.299 216.576 253.374 191.67 216.689 253.627 191.579 216.647 
265.702 184.986 218.33 258.208 185.937 218.217 258.965 185.367 218.664 
259.889 185.786 218.314 259.83 185.401 218.568 264.468 185.107 218.394 
265.542 185.36 218.149 267.704 184.738 218.568 269.592 184.902 218.398 
256.483 186.734 217.689 255.779 186.676 217.731 260.476 185.91 218.33 
265.762 185.658 218.077 266.796 186.271 217.988 252.765 187.337 217.291 
278.419 187.524 217.569 246.175 187.81 219.092 247.162 188.169 218.377 
246.986 187.688 218.67 248.068 188.337 217.769 271.342 187.4 217.581 
247.52 188.826 218.083 277.875 189.401 217.861 278.827 189.869 218.312 
254.06 191.512 216.882 259.246 184.899 219.184 260.799 185.007 218.895 
266.885 184.269 219.379 257.47 185.646 218.506 257.664 185.302 218.962 
261.207 185.447 218.578 259.415 186.617 218.015 261.4 186.119 218.415 
245.674 187.386 219.589 253.051 186.599 218.443 254.752 186.425 218.246 
279.16 187.593 218.025 245.507 187.49 219.657 245.429 187.636 219.815 
246.696 187.367 219.045 279.967 188.316 218.246 246.808 188.63 218.819 
280.608 189.205 218.814 280.786 188.965 219.04 248.357 189.811 218.646 
257.115 189.486 217.606 280.9 189.332 219.297 251.364 191.301 217.89 
279.893 190.296 219.026 256.509 190.684 217.808 253.987 191.9 217.817 
259.771 184.316 220.285 259.059 184.672 219.685 261.549 184.184 220.068 
260.848 187.029 218.387 245.08 187.206 220.347 247.53 186.95 219.263 
279.811 187.485 218.96 244.905 187.299 220.562 260.446 188.126 218.586 
280.593 188.266 219.105 246.064 188.491 219.811 246.582 188.775 219.447 
257.797 189.166 217.865 281.169 189.284 219.894 281.042 189.797 219.865 
279.715 191.311 220.055 256.307 191.782 218.67 255.603 192.302 219.239 
259.678 184.119 221.083 258.056 184.6 220.589 257.356 184.948 219.993 
252.832 186.028 219.918 264.047 187.701 218.998 280.856 188.449 219.425 
244.994 187.858 221.082 246.804 189.212 220.662 281.278 188.916 220.304 
281.305 190.198 220.772 279.067 191.617 220.346 280.683 191.151 220.623 
267.624 183.795 221.632 245.098 186.146 221.904 245.903 186.027 221.405 
246.252 185.838 221.661 244.792 186.511 221.813 244.597 186.982 221.815 
281.252 188.427 220.755 281.332 190.778 221.405 256.384 192.947 221.144 
259.587 193.069 220.853 259.439 193.608 221.577 261.168 193.687 221.846 
259.76 193.575 221.436 244.858 185.882 222.951 244.525 186.527 222.517 
245.012 188.175 222.449 265.767 191.435 221.391 282.066 190.174 222.879 
281.145 191.69 222.51 261.478 194.206 222.564 262.739 194.355 222.671 
262.534 194.457 222.694 246.608 185.16 223.675 244.302 187.424 223.709 
244.466 187.684 223.371 282.079 189.341 222.687 282.226 189.829 223.459 
266.135 193.125 222.427 279.363 193.114 222.935 264.289 194.236 222.911 
262.781 194.588 223.132 264.274 194.796 223.674 264.537 194.728 223.532 
244.436 185.92 224.512 282.071 188.896 223.564 282.249 189.381 223.949 
256.327 193.156 223.874 266.8 194.076 223.258 273.141 194.487 224.222 
276.041 194.403 224.699 268.548 195.05 224.597 273.458 194.795 224.691 
244.157 186.378 225.461 244.073 186.851 225.868 281.488 187.751 224.477 
244.784 188.143 225.485 245.877 188.921 224.715 282.32 190.337 224.969 
259.162 194.175 225.693 270.611 195.395 225.837 273.359 195.214 225.767 
275.204 194.94 225.712 244.146 187.307 226.255 244.325 187.671 226.614 
282.243 190.686 226.018 280.22 193.337 225.756 280.79 192.93 225.913 
267.568 183.541 227.303 243.979 186.757 227.839 244.863 188.26 227.473 
281.663 191.943 227.389 247.119 184.688 228.076 244.011 186.412 228.358 
265.909 195.278 228.152 268.8 195.377 227.95 280.582 186.675 228.552 
244.1 187.453 229.572 244.324 187.78 229.907 245.838 188.939 228.671 
248.634 190.199 229.207 282.356 190.194 228.996 252.415 191.542 228.856 
281.446 192.184 229.149 280.134 193.512 228.397 278.685 194.215 229.022 
244.725 188.177 230.374 282.249 190.724 229.719 282.365 190.266 230.155 
265.689 183.407 230.573 243.977 186.72 231.011 281.881 188.34 231.059 
282.322 189.366 230.802 280.935 192.573 230.609 277.706 194.28 230.149 
244.362 186.078 232.044 247.225 185.214 232.109 278.52 185.641 231.446 
268.262 193.546 231.982 267.156 193.99 231.714 279.885 193.185 231.332 
267.646 194.55 230.755 262.96 194.506 232.048 245.148 185.835 233.001 
245.67 185.784 233.242 244.238 187.548 232.586 244.931 188.295 233.154 
281.787 190.651 232.611 281.993 190.083 232.635 280.348 192.663 232.097 
280.509 192.181 233.094 281.006 191.676 233.221 279.467 192.822 232.935 
260.595 194.253 232.564 261.307 194.271 232.709 262.798 194.416 232.499 
262.652 194.304 232.731 262.881 194.358 232.644 244.897 185.94 232.973 
244.553 186.462 233.526 244.25 187.069 233.566 279.773 186.645 233.73 
280.891 187.463 233.174 281.986 189.616 232.776 281.177 191.205 233.762 
279.954 192.443 233.357 278.777 193.032 232.824 262.32 193.973 233.136 
261.928 193.592 233.655 260.836 194.047 233.295 261.072 194.043 233.448 
261.493 194.086 233.271 261.248 194.094 233.392 261.115 183.895 234.825 
245.497 186.477 234.852 253.772 185.636 235.131 244.482 187.501 234.621 
271.286 189.307 235.853 277.86 191.83 234.602 280.784 191.333 234.543 
260.854 193.783 233.68 244.565 187.196 234.865 279.841 187.389 235.627 
244.543 187.401 234.924 280.774 188.264 235.06 244.979 187.97 235.114 
260.794 189.292 236.284 280.942 190.62 235.13 258.729 191.586 235.87 
279.359 191.306 235.473 255.235 192.124 236.143 256.063 192.356 235.612 
258.311 191.866 235.802 258.036 192.694 235.07 259.549 184.797 236.462 
261.054 184.388 236.165 268.146 184.449 236.408 264.433 186.223 237.183 
245.513 187.132 235.869 247.256 187.025 236.425 246.932 187.253 236.607 
259.669 187.87 237.168 244.727 187.517 235.283 244.944 187.43 235.559 
280.246 188.319 236.122 245.022 187.759 235.56 247.047 189.229 236.315 
250.977 191.177 236.577 256.739 190.717 237.291 280.564 190.375 235.844 
255.753 191.686 236.915 254.72 191.888 237.428 260.207 184.904 236.736 
265.291 184.342 236.416 256.938 185.888 237.009 258.492 185.428 236.903 
263.151 185.714 237.159 245.795 187.321 236.224 252.292 186.811 237.388 
279.641 188.36 236.911 245.187 187.654 235.903 246.125 188.304 236.433 
247.107 188.707 237.354 280.332 189.362 236.328 279.923 189.872 236.65 
278.332 190.111 236.811 252.424 191.624 237.859 253.923 191.706 238.178 
254.585 191.837 237.684 260.03 185.31 237.032 260.622 185.587 237.162 
264.339 185.001 237.047 270.674 185.108 237.291 271.27 185.472 237.722 
255.527 186.272 237.172 256.215 186.348 237.369 266.496 185.708 237.628 
275.654 186.211 237.53 257.983 187.379 237.689 270.21 187.019 238.048 
278.163 187.492 237.539 245.442 187.688 236.169 247.346 188.209 237.475 
247.469 188.921 237.874 247.402 188.991 237.848 247.88 188.762 238.056 
275.801 188.697 237.847 279.676 189.2 237.069 279.305 189.254 237.288 
248.256 189.559 238.267 255.894 189.865 238.299 278.43 189.488 237.372 
279.251 189.605 237.155 254.499 191.381 238.334 253.39 191.63 239.101 
268.547 185.457 237.812 269.517 185.444 237.816 269.35 185.795 238.05 
271.363 185.904 238.074 273.641 186.488 238.324 253.214 187.714 238.658 
255.005 187.802 238.525 256.562 187.342 238.014 270.671 186.973 238.196 
270.947 186.793 238.293 277.229 187.584 238.042 272.555 187.596 238.256 
272.781 187.4 238.368 248.223 189.293 238.409 255.515 189.141 238.63 
255.096 188.879 238.8 273.1 187.709 238.245 278.28 189.08 237.584 
248.483 189.533 238.664 248.481 189.618 238.659 248.365 189.546 238.55 
249.424 190.131 238.528 254.42 190.753 238.922 252.382 191.391 239.113 
252.824 191.443 239.323 253.501 191.531 239.189 253.131 191.567 239.244 
253.312 191.528 239.294 269.161 186.062 238.102 270.905 186.378 238.262 
272.937 186.505 238.351 272.673 186.976 238.408 275.764 187.311 238.281 
251.973 188.545 239.231 248.82 189.503 238.766 249.993 189.414 239.2 
252.967 189.656 239.717 253.02 190.148 239.736 251.484 191.057 239.252 
251.469 190.924 239.452 253.389 191.047 239.446 251.821 191.129 239.383 
252.575 191.161 239.537 253.403 191.391 239.338 252.528 189.486 239.756 
251.122 190.185 239.624 251.653 190.202 239.798 252.037 190.029 239.839 
251.3 190.643 239.556 252.541 190.334 239.828 252.12 190.85 239.711 
281.305 190.198 220.772 273.359 195.214 225.767 
POLYGONS 800 3200
3 0 1 2 
3 1 0 3 
3 4 0 2 
3 5 4 2 
3 32 3 0 
3 4 32 0 
3 7 6 35 
3 6 8 9 
3 35 6 9 
3 6 7 13 
3 13 14 6 
3 6 14 8 
3 21 8 14 
3 44 9 8 
3 44 8 15 
3 15 8 21 
3 44 15 16 
3 17 27 45 
3 27 10 18 
[...]
POINT_DATA 404
COLOR_SCALARS scalars 3
1 0.564706 0.623529 1 0.564706 0.623529 1 0.564706 0.623529 
1 0.564706 0.623529 1 0.564706 0.623529 
1 0.564706 0.623529 1 0.564706 0.623529 
1 0.564706 0.623529 1 0.564706 0.623529 
1 0.564706 0.623529 1 0.564706 0.623529 
1 0.564706 0.623529 1 0.564706 0.623529 
1 0.564706 0.623529 1 0.564706 0.623529 
1 0.564706 0.623529 1 0.564706 0.623529 
1 0.564706 0.623529 1 0.564706 0.623529 
1 0.564706 0.623529 1 0.564706 0.623529 
1 0.564706 0.623529 1 0.564706 0.623529 
1 0.564706 0.623529 1 0.564706 0.623529 
1 0.564706 0.623529 1 0.564706 0.623529 
1 0.564706 0.623529 1 0.564706 0.623529 
1 0.564706 0.623529 1 0.564706 0.623529 
1 0.564706 0.623529 1 0.564706 0.623529 
1 0.564706 0.623529 1 0.564706 0.623529 
1 0.564706 0.623529 1 0.564706 0.623529 
1 0.564706 0.623529 1 0.564706 0.623529 
1 0.564706 0.623529 1 0.564706 0.623529 
1 0.564706 0.623529 1 0.564706 0.623529 
1 0.564706 0.623529 1 0.564706 0.623529 
1 0.564706 0.623529 1 0.564706 0.623529 
1 0.564706 0.623529 1 0.564706 0.623529 
1 0.564706 0.623529 1 0.564706 0.623529 
1 0.564706 0.623529 1 0.564706 0.623529 
1 0.564706 0.623529 1 0.564706 0.623529 
1 0.564706 0.623529 1 0.564706 0.623529 
1 0.564706 0.623529 1 0.564706 0.623529 
1 0.564706 0.623529 1 0.564706 0.623529 
1 0.564706 0.623529 1 0.564706 0.623529 
1 0.564706 0.623529 1 0.564706 0.623529 
1 0.564706 0.623529 1 0.564706 0.623529 
1 0.564706 0.623529 1 0.564706 0.623529 
1 0.564706 0.623529 1 0.564706 0.623529 
1 0.564706 0.623529 1 0.564706 0.623529 
1 0.564706 0.623529 1 0.564706 0.623529 
1 0.564706 0.623529 1 0.564706 0.623529 
1 0.564706 0.623529 1 0.564706 0.623529 
1 0.564706 0.623529 1 0.564706 0.623529 
1 0.564706 0.623529 1 0.564706 0.623529 
1 0.564706 0.623529 1 0.564706 0.623529 
1 0.564706 0.623529 1 0.564706 0.623529 
1 0.564706 0.623529 1 0.564706 0.623529 
1 0.564706 0.623529 1 0.564706 0.623529 
1 0.564706 0.623529 1 0.564706 0.623529 
1 0.564706 0.623529 1 0.564706 0.623529 
1 0.564706 0.623529 1 0.564706 0.623529 
1 0.564706 0.623529 1 0.564706 0.623529 
1 0.564706 0.623529 1 0.564706 0.623529 
1 0.564706 0.623529 1 0.564706 0.623529 
1 0.564706 0.623529 1 0.564706 0.623529 
1 0.564706 0.623529 1 0.564706 0.623529 
1 0.564706 0.623529 1 0.564706 0.623529 
1 0.564706 0.623529 1 0.564706 0.623529 
1 0.564706 0.623529 1 0.564706 0.623529 
1 0.564706 0.623529 1 0.564706 0.623529 
1 0.564706 0.623529 1 0.564706 0.623529 
1 0.564706 0.623529 1 0.564706 0.623529 
1 0.564706 0.623529 1 0.564706 0.623529 
1 0.564706 0.623529 1 0.564706 0.623529 
1 0.564706 0.623529 1 0.564706 0.623529 
1 0.564706 0.623529 1 0.564706 0.623529 
1 0.564706 0.623529 1 0.564706 0.623529 
1 0.564706 0.623529 1 0.564706 0.623529 
1 0.564706 0.623529 1 0.564706 0.623529 
1 0.564706 0.623529 1 0.564706 0.623529 
1 0.564706 0.623529 1 0.564706 0.623529 
1 0.564706 0.623529 1 0.564706 0.623529 
1 0.564706 0.623529 1 0.564706 0.623529 
1 0.564706 0.623529 1 0.564706 0.623529 
1 0.564706 0.623529 1 0.564706 0.623529 
1 0.564706 0.623529 1 0.564706 0.623529 
1 0.564706 0.623529 1 0.564706 0.623529 
1 0.564706 0.623529 1 0.564706 0.623529 
1 0.564706 0.623529 1 0.564706 0.623529 
1 0.564706 0.623529 1 0.564706 0.623529 
1 0.564706 0.623529 1 0.564706 0.623529 
1 0.564706 0.623529 1 0.564706 0.623529 
1 0.564706 0.623529 1 0.564706 0.623529 
1 0.564706 0.623529 1 0.564706 0.623529 
1 0.564706 0.623529 1 0.564706 0.623529 
1 0.564706 0.623529 1 0.564706 0.623529 
1 0.564706 0.623529 1 0.564706 0.623529 
1 0.564706 0.623529 1 0.564706 0.623529 
1 0.564706 0.623529 1 0.564706 0.623529 
1 0.564706 0.623529 1 0.564706 0.623529 
1 0.564706 0.623529 1 0.564706 0.623529 
1 0.564706 0.623529 1 0.564706 0.623529 
1 0.564706 0.623529 1 0.564706 0.623529 
1 0.564706 0.623529 1 0.564706 0.623529 
1 0.564706 0.623529 1 0.564706 0.623529 
1 0.564706 0.623529 1 0.564706 0.623529 
1 0.564706 0.623529 1 0.564706 0.623529 
1 0.564706 0.623529 1 0.564706 0.623529 
1 0.564706 0.623529 1 0.564706 0.623529 
1 0.564706 0.623529 1 0.564706 0.623529 
1 0.564706 0.623529 1 0.564706 0.623529 
1 0.564706 0.623529 1 0.564706 0.623529 
1 0.564706 0.623529 1 0.564706 0.623529 
1 0.564706 0.623529 1 0.564706 0.623529 
1 0.564706 0.623529 1 0.564706 0.623529 
1 0.564706 0.623529 1 0.564706 0.623529 
1 0.564706 0.623529 1 0.564706 0.623529 
1 0.564706 0.623529 1 0.564706 0.623529 
1 0.564706 0.623529 1 0.564706 0.623529 
1 0.564706 0.623529 1 0.564706 0.623529 
1 0.564706 0.623529 1 0.564706 0.623529 
1 0.564706 0.623529 1 0.564706 0.623529 
1 0.564706 0.623529 1 0.564706 0.623529 
1 0.564706 0.623529 1 0.564706 0.623529 
1 0.564706 0.623529 1 0.564706 0.623529 
1 0.564706 0.623529 1 0.564706 0.623529 
1 0.564706 0.623529 1 0.564706 0.623529 
1 0.564706 0.623529 1 0.564706 0.623529 
1 0.564706 0.623529 1 0.564706 0.623529 
1 0.564706 0.623529 1 0.564706 0.623529 
1 0.564706 0.623529 1 0.564706 0.623529 
1 0.564706 0.623529 1 0.564706 0.623529 
1 0.564706 0.623529 1 0.564706 0.623529 
1 0.564706 0.623529 1 0.564706 0.623529 
1 0.564706 0.623529 1 0.564706 0.623529 
1 0.564706 0.623529 1 0.564706 0.623529 
1 0.564706 0.623529 1 0.564706 0.623529 
1 0.564706 0.623529 1 0.564706 0.623529 
1 0.564706 0.623529 1 0.564706 0.623529 
1 0.564706 0.623529 1 0.564706 0.623529 
1 0.564706 0.623529 1 0.564706 0.623529 
1 0.564706 0.623529 1 0.564706 0.623529 
1 0.564706 0.623529 1 0.564706 0.623529 
1 0.564706 0.623529 1 0.564706 0.623529 
1 0.564706 0.623529 1 0.564706 0.623529 
1 0.564706 0.623529 1 0.564706 0.623529 
1 0.564706 0.623529 1 0.564706 0.623529 
1 0.564706 0.623529 1 0.564706 0.623529 
1 0.564706 0.623529 1 0.564706 0.623529 
1 0.564706 0.623529 1 0.564706 0.623529 
1 0.564706 0.623529 1 0.564706 0.623529 
1 0.564706 0.623529 1 0.564706 0.623529 
1 0.564706 0.623529 1 0.564706 0.623529 
1 0.564706 0.623529 1 0.564706 0.623529 
1 0.564706 0.623529 1 0.564706 0.623529 
1 0.564706 0.623529 1 0.564706 0.623529 
1 0.564706 0.623529 1 0.564706 0.623529 
1 0.564706 0.623529 1 0.564706 0.623529 
1 0.564706 0.623529 1 0.564706 0.623529 
1 0.564706 0.623529 1 0.564706 0.623529 
1 0.564706 0.623529 1 0.564706 0.623529 
1 0.564706 0.623529 1 0.564706 0.623529 
1 0.564706 0.623529 1 0.564706 0.623529 
1 0.564706 0.623529 1 0.564706 0.623529 
1 0.564706 0.623529 1 0.564706 0.623529 
1 0.564706 0.623529 1 0.564706 0.623529 
1 0.564706 0.623529 1 0.564706 0.623529 
1 0.564706 0.623529 1 0.564706 0.623529 
1 0.564706 0.623529 1 0.564706 0.623529 
1 0.564706 0.623529 1 0.564706 0.623529 
1 0.564706 0.623529 1 0.564706 0.623529 
1 0.564706 0.623529 1 0.564706 0.623529 
1 0.564706 0.623529 1 0.564706 0.623529 
1 0.564706 0.623529 1 0.564706 0.623529 
1 0.564706 0.623529 1 0.564706 0.623529 
1 0.564706 0.623529 1 0.564706 0.623529 
1 0.564706 0.623529 1 0.564706 0.623529 
1 0.564706 0.623529 1 0.564706 0.623529 
1 0.564706 0.623529 1 0.564706 0.623529 
1 0.564706 0.623529 1 0.564706 0.623529 
1 0.564706 0.623529 1 0.564706 0.623529 
1 0.564706 0.623529 1 0.564706 0.623529 
1 0.564706 0.623529 1 0.564706 0.623529 
1 0.564706 0.623529 1 0.564706 0.623529 
1 0.564706 0.623529 1 0.564706 0.623529 
1 0.564706 0.623529 1 0.564706 0.623529 
1 0.564706 0.623529 1 0.564706 0.623529 
1 0.564706 0.623529 1 0.564706 0.623529 
1 0.564706 0.623529 1 0.564706 0.623529 
1 0.564706 0.623529 1 0.564706 0.623529 
1 0.564706 0.623529 1 0.564706 0.623529 
1 0.564706 0.623529 1 0.564706 0.623529 
1 0.564706 0.623529 1 0.564706 0.623529 
1 0.564706 0.623529 1 0.564706 0.623529 
1 0.564706 0.623529 1 0.564706 0.623529 
1 0.564706 0.623529 1 0.564706 0.623529 
1 0.564706 0.623529 1 0.564706 0.623529 
1 0.564706 0.623529 1 0.564706 0.623529 
1 0.564706 0.623529 1 0.564706 0.623529 
1 0.564706 0.623529 1 0.564706 0.623529 
1 0.564706 0.623529 1 0.564706 0.623529 
1 0.564706 0.623529 1 0.564706 0.623529 
1 0.564706 0.623529 1 0.564706 0.623529 
1 0.564706 0.623529 1 0.564706 0.623529 
1 0.564706 0.623529 1 0.564706 0.623529 
1 0.564706 0.623529 1 0.564706 0.623529 
1 0.564706 0.623529 1 0.564706 0.623529 
1 0.564706 0.623529 1 0.564706 0.623529 
1 0.564706 0.623529 1 0.564706 0.623529 
1 0.564706 0.623529 1 0.564706 0.623529 
1 0.564706 0.623529 1 0.564706 0.623529 
1 0.564706 0.623529 1 0.564706 0.623529 
1 0.564706 0.623529 1 0.564706 0.623529 
1 0.564706 0.623529 1 0.564706 0.623529 
1 0.564706 0.623529 
NORMALS Normals float
0.044149 -0.018162 -0.99886 -0.159904 -0.325638 -0.931875 -0.42306 0.0945327 -0.901157 
0.233548 -0.163141 -0.958562 -0.115995 0.355089 -0.927608 -0.315486 0.576581 -0.753673 
-0.0204577 -0.182973 -0.982905 -0.214325 -0.000513761 -0.976762 0.0581043 -0.0202807 -0.998105 
0.116723 -0.450796 -0.884962 -0.00869774 -0.520805 -0.853631 0.0719879 -0.46228 -0.883807 
0.350744 -0.206585 -0.913401 -0.203617 0.323757 -0.92397 -0.147018 0.572438 -0.80666 
0.123131 0.0882664 -0.988457 0.204886 0.167315 -0.964379 -0.358912 -0.278426 -0.890876 
-0.275686 -0.483765 -0.830644 0.0957003 -0.469046 -0.877973 0.272058 -0.0182067 -0.962109 
0.00457231 0.342239 -0.939602 -0.466137 -0.00774597 -0.884679 -0.769651 -0.00894688 -0.638402 
-0.572337 0.598406 -0.56066 -0.312548 0.0688265 -0.947405 -0.568586 -0.285285 -0.771571 
-0.31872 -0.235679 -0.918081 0.283208 -0.18756 -0.94054 -0.497092 0.745358 -0.444231 
-0.430952 0.339269 -0.836168 0.407869 0.215522 -0.887239 0.224792 0.426173 -0.876267 
0.0544511 -0.732815 -0.678246 -0.103127 -0.321902 -0.94114 0.0316152 -0.608023 -0.793289 
0.245303 -0.861205 -0.445144 -0.0267697 -0.686079 -0.727035 0.0010858 -0.752384 -0.658724 
0.103193 -0.555601 -0.82502 0.20203 -0.381298 -0.902106 -0.167322 0.089362 -0.981844 
-0.0819102 0.395572 -0.914775 -0.133227 0.141551 -0.980925 0.29294 -0.324631 -0.899334 
-0.327038 -0.549604 -0.768753 -0.181481 -0.634788 -0.751072 -0.194473 -0.75366 -0.627835 
-0.11765 -0.725888 -0.677676 0.2896 0.0555481 -0.955535 0.379429 -0.356012 -0.853984 
0.40112 -0.00216501 -0.916023 -0.681014 -0.518678 -0.516908 -0.767489 0.151843 -0.62282 
-0.482343 -0.587888 -0.649409 -0.475682 -0.297683 -0.827715 0.368611 -0.0485262 -0.928316 
0.108715 0.462555 -0.8799 0.330932 0.264648 -0.905784 0.477818 0.220309 -0.850384 
-0.78592 0.402 -0.469814 -0.683419 0.72982 -0.0173581 -0.386392 0.866309 -0.316559 
-0.268971 0.793894 -0.545332 0.020547 0.932283 -0.361146 0.174035 0.696648 -0.695984 
-0.0274331 -0.611169 -0.791025 0.0101381 -0.588685 -0.808299 -0.112522 -0.736374 -0.667152 
-0.036725 -0.459578 -0.887378 0.0209857 -0.704857 -0.709039 -0.182458 -0.223456 -0.957485 
-0.0350599 -0.312947 -0.949123 0.137953 -0.821443 -0.553354 0.0243885 -0.896978 -0.441402 
0.142042 -0.587478 -0.796677 0.0168655 -0.720167 -0.693596 0.109887 -0.323696 -0.939759 
-0.15124 -0.0223253 -0.988245 -0.200069 0.342277 -0.918052 -0.124045 -0.745163 -0.655244 
0.385369 -0.497811 -0.776965 -0.672414 0.0703663 -0.736822 -0.386072 -0.347559 -0.854489 
-0.247933 -0.529738 -0.811115 -0.420704 -0.542776 -0.726913 -0.123907 0.548838 -0.826695 
-0.790994 0.0508278 -0.609709 -0.0931107 0.734728 -0.671941 0.0495791 0.695548 -0.716767 
0.45283 0.618221 -0.642454 0.0371643 -0.870831 -0.490175 0.0461524 -0.776945 -0.627875 
-0.0161211 -0.897964 -0.439773 -0.0696614 -0.740617 -0.668306 -0.105925 -0.845336 -0.523629 
0.0130184 -0.600467 -0.799543 0.126585 -0.183716 -0.974795 0.172858 0.047936 -0.983779 
-0.461137 -0.584262 -0.667825 -0.139732 -0.864132 -0.483478 -0.187321 -0.841072 -0.507453 
0.470118 -0.708901 -0.525784 -0.692493 -0.0512128 -0.719605 -0.767044 0.404019 -0.498409 
-0.361571 -0.616014 -0.699853 0.618197 -0.302535 -0.725468 -0.613351 0.680529 -0.40085 
0.615518 0.431591 -0.659444 0.838374 -0.124033 -0.530797 -0.564498 0.809671 -0.160544 
0.52755 0.378957 -0.760317 0.885425 0.118501 -0.449422 -0.481068 0.876551 0.0152134 
0.340668 0.610888 -0.714675 0.511192 0.610409 -0.605048 0.201677 0.897304 -0.392648 
-0.00357541 -0.919477 -0.393127 -0.0898393 -0.910276 -0.404137 -0.0237224 -0.951047 -0.308134 
0.298631 0.150427 -0.942439 -0.574801 -0.652694 -0.493553 -0.147524 -0.794476 -0.589105 
0.525887 -0.811016 -0.256313 -0.917527 0.0554611 -0.393787 0.299238 0.28204 -0.911543 
0.759129 -0.456902 -0.463641 -0.668553 0.608568 -0.427412 -0.59104 0.711629 -0.379812 
0.376438 0.343579 -0.860377 0.948517 0.0508311 -0.312622 0.788226 0.473777 -0.392729 
0.373736 0.730912 -0.571042 0.320988 0.726677 -0.607377 -0.0251097 0.950811 -0.308751 
-0.109602 -0.967843 -0.226422 -0.322662 -0.932697 -0.16114 -0.262288 -0.923842 -0.278784 
-0.135621 -0.926207 -0.351778 0.0297609 0.358951 -0.932882 0.879197 -0.333878 -0.339909 
-0.774312 0.590966 -0.226274 -0.498823 0.854931 -0.14237 0.964628 -0.0384559 -0.260796 
0.879242 0.279095 -0.386056 0.0116972 0.79179 -0.610682 0.63972 0.612172 -0.464763 
0.189099 -0.964902 -0.182227 -0.530175 -0.760839 -0.374216 -0.356854 -0.791423 -0.496291 
-0.167687 -0.947392 -0.272636 -0.713833 -0.560188 -0.420275 -0.927244 -0.251199 -0.2777 
0.829135 -0.504877 -0.240071 0.756627 0.546763 -0.35856 -0.175763 0.954987 -0.238972 
0.122657 0.679914 -0.72296 -0.0820849 0.916436 -0.391671 -0.027986 0.795368 -0.605481 
0.0282718 0.874184 -0.484771 -0.507725 -0.833358 -0.218472 -0.883606 -0.408179 -0.229413 
-0.773447 0.594602 -0.219608 0.0228459 0.532468 -0.846142 0.947336 0.203733 -0.247076 
0.772132 0.606061 -0.191055 -0.286906 0.887702 -0.360097 0.181442 0.730731 -0.658112 
-0.00507698 0.890873 -0.454224 -0.129401 -0.963232 -0.235458 -0.968711 0.184385 -0.166134 
-0.835812 0.512685 -0.196397 0.965214 -0.100406 -0.241416 0.986211 0.113648 -0.120304 
0.205407 0.54776 -0.811028 0.352107 0.867103 -0.352355 0.0996071 0.720134 -0.686648 
0.0116307 0.958478 -0.284929 0.0206207 0.948124 -0.31723 0.111296 0.900828 -0.419669 
-0.722088 -0.684383 -0.101039 0.931699 -0.345152 -0.113171 0.977861 -0.208948 -0.0113181 
-0.30805 0.94964 -0.0573501 0.223103 0.705354 -0.67283 0.0155321 0.788039 -0.61543 
0.034843 0.832315 -0.553207 0.0779235 0.914109 -0.397909 0.0211719 0.900944 -0.433419 
-0.975561 -0.164157 -0.146061 -0.992378 0.0365379 -0.117687 0.809668 -0.584844 -0.0489448 
-0.736715 0.676099 -0.0118774 -0.526903 0.849866 -0.010039 0.980614 0.186876 -0.0589384 
-0.211433 0.973235 -0.09005 0.123244 0.976809 -0.175089 -0.0446086 0.919554 -0.390423 
0.168292 0.985706 0.00786996 -0.964002 0.25633 -0.0706729 -0.776991 0.628629 0.0333292 
0.982609 0.184176 -0.0236252 0.52499 0.847946 -0.0733043 0.673066 0.73892 -0.0313097 
0.0492246 -0.998781 -0.00355577 -0.982135 0.185441 -0.0319939 -0.730355 0.683062 0.00284096 
0.798409 0.602046 0.00913371 -0.18875 -0.981923 0.0141524 -0.924928 -0.37777 -0.0423892 
-0.132628 0.990169 0.0444428 0.0654147 0.977777 0.199179 0.548743 -0.834704 -0.0463749 
-0.752115 0.638914 -0.161595 -0.729236 0.65696 -0.191357 -0.512257 0.857812 -0.0418545 
-0.435957 0.899923 -0.00892735 0.97153 0.236156 -0.0189964 -0.331058 0.94359 -0.00624486 
0.82542 0.557883 0.086299 0.599929 0.793131 0.105015 0.343889 0.9384 0.0338619 
-0.447193 0.884468 -0.133172 0.976399 0.177113 -0.123596 0.973872 0.223979 0.0374994 
0.0412504 -0.998146 0.0447627 -0.989453 -0.125258 0.072752 0.78736 -0.61139 0.0791632 
0.980231 -0.196391 -0.0240326 0.645298 0.751393 0.13784 0.293788 0.930773 0.217601 
-0.614143 -0.782466 0.102834 -0.133684 -0.951988 0.275405 0.301023 -0.950789 0.0733894 
0.15245 0.798064 0.582969 0.123991 0.699778 0.703518 0.437964 0.875776 0.202986 
0.1591 0.904887 0.394799 -0.0925465 0.978982 0.181737 -0.291247 -0.92738 0.234821 
-0.228164 -0.946742 0.227202 -0.818973 0.571321 0.0536282 -0.593533 0.804526 0.0213694 
0.837667 0.491655 0.237883 0.922351 0.179413 0.34217 0.553896 0.796925 0.24106 
0.621438 0.746714 0.237134 0.74592 0.650393 0.1435 0.355241 0.884748 0.301704 
-0.216197 0.950051 0.225084 0.00485608 0.959031 0.28326 -0.216792 0.954663 0.204011 
-0.146773 0.93122 0.333597 0.131391 0.816271 0.562528 -0.487431 -0.822545 0.292968 
-0.563115 -0.729028 0.389127 -0.978751 -0.105681 0.175722 0.520976 -0.840123 0.150921 
0.754683 -0.61561 0.226886 0.929531 -0.0590594 0.363984 0.777759 0.532086 0.334627 
0.407289 0.803749 0.43371 0.110898 0.871382 0.477906 0.0667809 0.822951 0.564173 
0.161695 0.633853 0.756363 -0.319594 0.871804 0.371238 -0.159649 0.814568 0.557667 
0.240614 0.763184 0.599712 0.0697324 0.836616 0.543333 -0.135302 -0.978541 0.155404 
-0.331422 -0.825787 0.456328 -0.10867 -0.914028 0.390825 -0.934107 0.286788 0.212595 
-0.172374 0.722818 0.669194 -0.0197061 0.852541 0.522288 0.404868 0.757875 0.511574 
-0.00113158 0.657377 0.753561 -0.84085 -0.395493 0.369536 0.586103 -0.712901 0.385039 
-0.940777 0.0101686 0.338873 0.873758 -0.282591 0.39584 -0.652319 0.712593 0.258247 
0.205973 0.39811 0.893915 0.871446 0.24534 0.424725 0.244982 0.575268 0.780416 
0.0878447 0.791362 0.605003 -0.0467996 0.982105 0.182428 -0.0412851 0.889686 0.454703 
0.138926 0.539819 0.830238 0.00913479 0.881086 0.472867 -0.195894 -0.813025 0.548284 
-0.0118453 -0.768081 0.640243 0.0713735 -0.948301 0.309242 0.0462591 0.34182 0.938626 
-0.489881 -0.622561 0.610274 -0.153378 -0.785857 0.599085 -0.194572 -0.682441 0.704568 
0.165518 0.23425 0.957983 -0.859702 0.207152 0.466904 -0.731985 -0.310236 0.606591 
0.78877 -0.391148 0.474178 -0.718054 0.492399 0.491876 -0.610727 0.760246 0.221445 
-0.367459 0.929539 0.0305026 0.491368 0.410473 0.768159 0.802028 0.234241 0.549438 
0.265326 0.800929 0.536762 0.497045 0.739855 0.453389 -0.0192134 -0.66932 0.742726 
0.0653747 -0.93724 0.342501 -0.178687 -0.783317 0.595387 -0.0638873 -0.511388 0.856972 
0.0368746 0.0611833 0.997445 -0.333963 -0.652782 0.679959 -0.13605 -0.815091 0.563131 
0.607422 -0.303477 0.734125 -0.776174 0.194856 0.599654 -0.681178 0.456377 0.572465 
-0.762658 -0.0341468 0.6459 0.823308 0.000904064 0.567594 0.429859 0.537221 0.725682 
-0.0583516 0.706713 0.70509 -0.182321 0.977108 0.109634 0.0714974 0.972926 0.219782 
0.147181 0.935061 0.322488 -0.0100358 -0.55087 0.834531 0.0187679 -0.290393 0.956724 
-0.0750403 -0.424179 0.902464 0.0878958 -0.798685 0.595295 0.113692 -0.80166 0.586868 
-0.0524171 -0.754982 0.653647 -0.0939221 -0.74628 0.658973 -0.168492 0.0820476 0.982282 
0.258422 -0.813379 0.521183 0.242725 0.023482 0.969811 -0.330233 0.355056 0.874575 
0.501466 -0.528861 0.684717 -0.68072 0.118575 0.722883 -0.427534 -0.368648 0.825417 
-0.554717 -0.381074 0.739643 -0.715205 0.326157 0.618146 -0.452537 -0.346912 0.8215 
-0.0747803 0.602896 0.794308 0.649771 0.0602305 0.75774 0.382692 0.108048 0.917536 
-0.68155 0.668309 0.29808 0.526981 0.164005 0.833903 -0.00493526 0.524217 0.85157 
0.301014 0.519462 0.799718 0.617345 0.612305 0.493931 0.141885 0.92881 0.342317 
-0.0568954 -0.620443 0.782185 0.0806557 -0.642707 0.761855 0.0138213 -0.444805 0.895521 
-0.0136958 -0.549592 0.835321 0.0870215 -0.479091 0.873441 -0.0261008 -0.734191 0.678442 
0.228184 -0.390686 0.891794 0.0752681 -0.43788 0.895877 -0.220907 0.476015 0.85124 
-0.159112 0.055573 0.985695 0.298158 -0.223497 0.927982 -0.176303 0.455142 0.87279 
-0.00936071 0.211432 0.977348 -0.621766 -0.0679107 0.780253 0.444352 -0.0334731 0.895227 
0.394443 0.0232769 0.918625 0.0137828 0.406563 0.913519 0.026145 0.356016 0.934114 
-0.521233 -0.124695 0.844255 -0.558913 0.545329 0.624686 -0.790713 0.25892 0.554738 
-0.485471 0.749809 0.449561 0.587555 0.34049 0.734061 -0.268649 0.907224 0.323685 
-0.196723 0.754787 0.625777 0.516196 0.602461 0.608754 -0.169294 0.934216 0.313974 
0.114537 0.616124 0.779277 -0.244843 0.13052 0.960738 -0.0936249 -0.152043 0.98393 
0.0274125 -0.463286 0.885785 0.00133369 0.0397994 0.999207 0.124615 -0.0828246 0.988742 
-0.130597 -0.533003 0.835974 -0.341042 -0.21785 0.914457 -0.261861 -0.488747 0.832199 
0.262693 -0.162919 0.951026 0.274194 0.0260436 0.961322 -0.464338 0.822395 0.32872 
-0.376305 0.586444 0.717271 0.365115 0.233021 0.901328 -0.234852 0.795005 0.559295 
-0.00214844 0.511793 0.859106 0.408831 0.351647 0.842141 0.0141011 -0.268698 0.963121 
-0.342726 -0.020383 0.939214 -0.219546 0.161115 0.962207 -0.122253 -0.113528 0.985985 
-0.466442 0.468556 0.750258 0.119723 0.127442 0.984594 -0.129087 0.474438 0.870773 