# vtk DataFile Version 4.2
vtk output
ASCII
DATASET POLYDATA
POINTS 402 float
345.785 179.079 223.313 347.43 178.607 223.53 348.863 178.165 224.095 
347.086 179.319 223.611 347.378 180.164 224.222 341.862 182.89 223.382 
342.493 183.614 223.707 339.898 184.811 223.389 342.573 184.82 224.492 
338.813 186.581 223.536 339.512 186.489 223.707 339.943 187.137 224.285 
334.137 190.058 223.411 336.359 189.497 223.658 338.498 188.755 224.465 
334.037 190.933 223.506 336.164 190.311 223.938 334.462 191.411 223.702 
335.199 191.272 223.95 333.569 192.324 223.774 334.296 192.166 223.975 
331.326 193.105 223.913 332.272 193.41 223.896 330.97 194.193 224.374 
331.325 194.431 224.406 330.961 194.627 224.649 331.845 194.316 224.34 
332.271 194.385 224.495 353.462 170.542 224.741 350.23 172.486 223.939 
352.95 171.658 224.603 353.712 171.021 224.918 353.93 171.973 225.308 
350.46 173.781 224.05 351.813 173.323 224.458 352.183 174.651 225.304 
349.924 176.349 224.402 351.285 175.725 225.214 348.225 179.913 225.025 
347.486 180.738 225.087 341.421 181.367 223.305 346.699 181.416 224.988 
336.076 182.759 224.116 338.004 183.851 223.4 336.95 184.911 223.415 
343.198 184.473 224.765 335.156 186.033 223.56 332.943 186.665 224.093 
335.499 187.525 223.353 340.736 187.064 225.042 333.722 188.559 223.488 
339.716 188.043 225.03 330.363 191.722 224.298 329.663 192.851 224.843 
330.006 193.907 224.817 330.559 193.78 224.419 333.248 194.066 224.875 
330.171 194.905 225.283 331.265 195.261 225.32 352.211 164.103 225.407 
355.407 163.547 225.15 356.298 164.672 225.201 347.893 167.201 225.583 
349.087 167.791 224.837 352.902 167.926 224.617 355.052 168.116 225.262 
354.636 169.8 225.379 342.938 171.906 225.668 354.522 171.387 225.736 
341.51 175.223 224.736 352.761 174.285 225.628 351.917 175.335 225.583 
335.722 181.247 224.91 333.478 182.741 225.658 334.801 182.24 224.944 
331.796 184.878 225.636 342.907 185.279 225.736 330.462 187.016 225.62 
331.567 186.872 224.748 340.296 187.664 225.36 329.503 191.428 224.966 
329.086 192.085 225.454 329.245 192.863 225.366 329.67 195.545 226.439 
330.791 195.493 225.634 331.175 195.559 225.756 330.894 195.716 226.007 
361.723 155.473 227.111 362.159 155.643 227.018 362.031 155.517 227.069 
362.228 155.538 227.146 359.919 156.706 226.6 359.258 156.837 226.671 
361.41 156.083 226.744 362.379 155.74 227.121 359.91 157.282 226.325 
361.134 156.704 226.532 361.673 156.498 226.663 360.93 157.384 226.358 
362.233 156.6 226.934 360.126 158.359 226.074 361.315 157.859 226.427 
357.155 159.884 225.909 355.223 160.733 226.093 361.452 159.284 226.589 
353.883 161.097 226.509 358.083 161.103 225.609 359.549 160.741 225.815 
361.685 159.927 226.981 352.386 162.081 226.807 353.768 162.559 225.677 
349.107 165.027 226.588 360.327 162.919 226.412 360.707 162.576 226.586 
348.412 165.429 226.861 359.353 164.346 226.402 345.953 167.902 226.608 
345.411 168.294 226.847 344.957 168.895 226.614 344.43 169.287 226.86 
343.99 169.879 226.63 355.927 169.185 226.377 352.694 175.026 226.379 
351.708 176.33 226.673 336.674 178.21 226.519 348.053 180.551 226.694 
333.536 181.878 226.433 331.893 183.822 226.605 330.77 185.194 226.838 
330.576 185.718 226.528 330.667 186.191 225.954 329.827 186.952 226.763 
328.821 189.594 226.477 339.366 188.803 225.977 328.982 189.803 226.047 
328.615 191.745 226.439 329.107 194.757 226.392 329.369 195.468 226.948 
330.793 195.853 226.479 360.882 155.483 227.448 360.504 155.69 227.28 
361.318 155.55 227.069 361.805 155.361 227.333 362.353 155.571 227.352 
359.196 156.381 227.376 362.542 155.721 227.265 362.569 155.896 227.195 
362.63 155.827 227.308 362.64 155.974 227.291 356.931 158.202 226.938 
356.897 157.919 227.489 356.358 158.396 227.313 362.425 156.616 227.226 
362.592 156.184 227.35 355.848 158.762 227.499 355.317 159.247 227.323 
353 161.302 227.099 352.881 161.21 227.572 361.843 160.028 227.423 
351.87 162.206 227.404 361.642 160.89 227.297 349.553 164.221 227.456 
347.813 165.881 226.913 360.563 163.955 227.219 360.927 163.7 227.497 
361.156 163.328 227.6 358.393 165.836 226.601 360.384 164.391 227.493 
360.054 164.744 227.582 357.724 167.195 227.138 344.401 169.105 227.486 
356.689 168.855 227.364 353.521 174.294 227.572 336.161 178.426 227.198 
334.298 180.587 227.368 332.287 182.983 227.486 330.019 186.326 227.205 
341.363 187.022 226.796 329.058 188.438 227.24 328.865 194.907 227.352 
329.02 195.118 227.049 329.34 195.601 227.637 330.135 195.929 227.196 
360.814 155.502 227.731 361.703 155.357 227.553 362.25 155.522 227.599 
359.888 155.971 227.728 362.56 155.74 227.393 362.453 155.792 227.626 
357.487 157.467 227.718 362.605 155.952 227.429 362.479 156.351 227.617 
357.006 157.89 227.931 353.913 160.412 228.024 352.405 161.66 227.778 
351.293 162.714 227.793 350.13 163.7 227.771 361.369 162.359 227.846 
361.265 163.006 227.764 361.165 163.306 227.817 347.468 166.074 228.145 
346.965 166.508 227.726 360.685 164.031 227.877 346.465 167.049 228.075 
345.902 167.563 227.774 345.459 168.051 228.091 344.914 168.561 227.789 
344.486 169.045 228.11 357.537 167.602 228.037 356.596 169.155 227.754 
353.899 173.764 228.312 336.462 178.048 227.885 330.292 185.753 227.639 
328.552 190.214 227.513 337.985 190.292 227.816 336.262 191.934 227.91 
328.495 192.847 227.999 329.093 195.354 227.91 329.641 195.813 227.921 
331.117 195.94 227.424 360.434 155.676 227.814 360.741 155.635 227.949 
361.608 155.445 227.82 361.988 155.443 227.71 362.227 155.616 227.811 
358.764 156.651 227.977 362.365 155.804 227.882 362.327 155.95 228.008 
358.767 156.912 228.246 362.381 156.374 227.923 362.339 156.157 228.026 
356.606 158.367 228.16 354.539 160.064 228.247 352.205 162.167 228.516 
350.821 163.389 228.558 361.058 163.083 228.084 348.02 165.691 228.409 
360.039 164.018 228.58 358.484 165.733 228.835 359.189 165.213 228.446 
346.643 167.148 228.682 358.111 166.361 228.784 344.676 169.103 228.706 
356.776 168.478 228.679 341.124 172.93 228.333 354.986 171.609 228.614 
336.196 178.611 228.579 349.024 179.535 228.559 334.219 180.803 228.481 
345.061 183.377 228.46 330.711 185.293 228.565 343.264 185.024 228.792 
341.09 187.219 228.644 328.792 189.192 228.215 328.705 193.737 228.887 
333.959 194.119 228.526 330.796 196.011 228.171 331.067 195.936 228.487 
331.579 195.694 228.658 330.301 195.962 228.747 330.662 195.984 228.593 
361.505 155.662 228.065 361.016 156.222 228.363 361.845 155.847 228.143 
362.168 155.785 228.011 357.901 157.916 228.544 358.841 157.432 228.58 
359.596 157.313 228.675 360.853 156.701 228.505 362.11 156.113 228.139 
361.853 156.646 228.255 354.949 160.38 228.788 355.868 160.281 229.084 
355.159 161.548 229.501 360.749 160.404 228.832 352.282 162.454 228.877 
352.813 162.464 229.223 351.173 163.541 229.003 360.577 161.923 228.805 
359.013 163.251 229.37 347.899 166.421 229.193 347.282 166.781 228.98 
357.606 166.178 229.341 357.058 166.095 229.688 357.403 165.519 229.628 
346.282 167.735 228.984 356.3 167.809 229.669 356.062 168.604 229.541 
344.043 170.177 229.225 343.084 171.165 229.122 355.083 170.728 229.463 
341.602 173.001 229.253 353.168 174.211 229.82 337.784 177.3 229.244 
337.258 177.614 228.903 335.342 179.705 228.853 333.592 181.996 229.267 
331.501 184.488 229.049 344.668 183.269 229.74 330.705 185.898 229.233 
330.227 186.369 228.869 341.172 186.836 229.408 328.871 189.676 228.823 
329.059 189.844 229.237 336.61 191.277 229.271 329.011 194.4 229.522 
329.167 194.79 229.575 331.448 195.513 229.452 329.89 195.74 229.257 
330.201 195.844 229.195 353.543 163.824 230.061 355.083 163.504 230.082 
351.524 164.869 230.009 356.508 163.981 230.018 348.577 167.02 230.023 
356.009 166.556 230.121 354.127 166.436 230.618 354.774 166.27 230.517 
355.476 168.96 229.911 343.911 170.778 229.585 344.587 170.707 230.023 
342.332 172.712 229.668 341.164 174.587 230.073 352.269 175.389 230.24 
339.101 177.392 230.36 351.446 176.424 230.253 336.928 178.789 229.677 
337.964 179.284 230.705 347.586 180.364 230.301 346.209 181.764 230.012 
343.347 184.045 230.363 332.565 185.843 230.834 342.321 185.034 230.364 
330.707 187.419 230.152 331.287 187.264 230.592 341.309 186.025 230.359 
340.313 187.003 230.356 336.722 190.692 230.178 337.197 190.15 230.19 
329.482 191.969 230.342 329.153 193.981 229.924 333.824 193.641 230.035 
329.317 194.85 229.783 330.522 195.694 229.568 353.508 169.681 230.814 
345.497 173.547 231.437 352.897 173.682 230.64 352.579 174.054 230.798 
351.372 176.181 230.586 342.627 177.763 231.744 350.274 177.548 230.498 
339.481 179.61 231.435 339.934 179.989 231.644 342.379 180.109 231.952 
347.324 180.457 230.506 346.142 181.514 230.466 343.691 183.396 230.668 
342.654 184.388 230.657 335.656 185.779 231.816 341.636 185.377 230.652 
340.629 186.366 230.648 332.449 190.443 231.683 335.931 190.807 230.802 
329.759 193.065 230.662 330.305 192.903 231.011 330.424 193.55 231.023 
333.986 192.712 230.865 332.758 194.155 230.473 329.971 194.858 230.34 
330.287 194.636 230.638 332.234 194.402 230.574 351.414 174.554 231.325 
348.969 176.073 231.765 350.93 175.87 231.075 347.125 177.875 231.821 
349.187 177.04 231.468 349.081 177.807 231.161 347.238 178.924 231.503 
343.254 181.004 231.878 345.14 181.129 231.345 346.196 180.569 231.153 
342.592 182.416 231.685 343.324 182.116 231.584 344.215 181.999 231.29 
341.57 183.431 231.67 342.269 183.105 231.565 339.536 185.432 231.656 
335.903 188.026 231.816 334.14 190.222 231.746 335.503 189.588 231.598 
331.44 193.695 231.214 331.942 193.403 231.27 332.516 193.082 231.287 
333.274 192.912 231.088 331.746 193.922 231.087 330.612 194.807 230.634 
331.695 194.427 230.763 342.938 171.906 225.668 345.411 168.294 226.847 
344.957 168.895 226.614 328.865 194.907 227.352 358.767 156.912 228.246 

POLYGONS 790 3160
3 0 3 1 
3 0 6 3 
3 2 1 4 
3 4 1 3 
3 40 5 6 
3 3 6 41 
3 4 3 41 
3 6 5 7 
3 45 6 8 
3 43 9 7 
3 7 9 10 
3 11 7 10 
3 49 6 11 
3 11 6 7 
3 8 6 49 
3 10 9 11 
3 48 13 9 
3 51 11 14 
3 14 11 9 
3 16 13 12 
3 13 14 9 
3 12 15 16 
3 16 15 18 
[...]
POINT_DATA 402
COLOR_SCALARS scalars 3
1 0.65098 1 1 0.65098 1 1 0.65098 1 
1 0.65098 1 1 0.65098 1 
1 0.65098 1 1 0.65098 1 
1 0.65098 1 1 0.65098 1 
1 0.65098 1 1 0.65098 1 
1 0.65098 1 1 0.65098 1 
1 0.65098 1 1 0.65098 1 
1 0.65098 1 1 0.65098 1 
1 0.65098 1 1 0.65098 1 
1 0.65098 1 1 0.65098 1 
1 0.65098 1 1 0.65098 1 
1 0.65098 1 1 0.65098 1 
1 0.65098 1 1 0.65098 1 
1 0.65098 1 1 0.65098 1 
1 0.65098 1 1 0.65098 1 
1 0.65098 1 1 0.65098 1 
1 0.65098 1 1 0.65098 1 
1 0.65098 1 1 0.65098 1 
1 0.65098 1 1 0.65098 1 
1 0.65098 1 1 0.65098 1 
1 0.65098 1 1 0.65098 1 
1 0.65098 1 1 0.65098 1 
1 0.65098 1 1 0.65098 1 
1 0.65098 1 1 0.65098 1 
1 0.65098 1 1 0.65098 1 
1 0.65098 1 1 0.65098 1 
1 0.65098 1 1 0.65098 1 
1 0.65098 1 1 0.65098 1 
1 0.65098 1 1 0.65098 1 
1 0.65098 1 1 0.65098 1 
1 0.65098 1 1 0.65098 1 
1 0.65098 1 1 0.65098 1 
1 0.65098 1 1 0.65098 1 
1 0.65098 1 1 0.65098 1 
1 0.65098 1 1 0.65098 1 
1 0.65098 1 1 0.65098 1 
1 0.65098 1 1 0.65098 1 
1 0.65098 1 1 0.65098 1 
1 0.65098 1 1 0.65098 1 
1 0.65098 1 1 0.65098 1 
1 0.65098 1 1 0.65098 1 
1 0.65098 1 1 0.65098 1 
1 0.65098 1 1 0.65098 1 
1 0.65098 1 1 0.65098 1 
1 0.65098 1 1 0.65098 1 
1 0.65098 1 1 0.65098 1 
1 0.65098 1 1 0.65098 1 
1 0.65098 1 1 0.65098 1 
1 0.65098 1 1 0.65098 1 
1 0.65098 1 1 0.65098 1 
1 0.65098 1 1 0.65098 1 
1 0.65098 1 1 0.65098 1 
1 0.65098 1 1 0.65098 1 
1 0.65098 1 1 0.65098 1 
1 0.65098 1 1 0.65098 1 
1 0.65098 1 1 0.65098 1 
1 0.65098 1 1 0.65098 1 
1 0.65098 1 1 0.65098 1 
1 0.65098 1 1 0.65098 1 
1 0.65098 1 1 0.65098 1 
1 0.65098 1 1 0.65098 1 
1 0.65098 1 1 0.65098 1 
1 0.65098 1 1 0.65098 1 
1 0.65098 1 1 0.65098 1 
1 0.65098 1 1 0.65098 1 
1 0.65098 1 1 0.65098 1 
1 0.65098 1 1 0.65098 1 
1 0.65098 1 1 0.65098 1 
1 0.65098 1 1 0.65098 1 
1 0.65098 1 1 0.65098 1 
1 0.65098 1 1 0.65098 1 
1 0.65098 1 1 0.65098 1 
1 0.65098 1 1 0.65098 1 
1 0.65098 1 1 0.65098 1 
1 0.65098 1 1 0.65098 1 
1 0.65098 1 1 0.65098 1 
1 0.65098 1 1 0.65098 1 
1 0.65098 1 1 0.65098 1 
1 0.65098 1 1 0.65098 1 
1 0.65098 1 1 0.65098 1 
1 0.65098 1 1 0.65098 1 
1 0.65098 1 1 0.65098 1 
1 0.65098 1 1 0.65098 1 
1 0.65098 1 1 0.65098 1 
1 0.65098 1 1 0.65098 1 
1 0.65098 1 1 0.65098 1 
1 0.65098 1 1 0.65098 1 
1 0.65098 1 1 0.65098 1 
1 0.65098 1 1 0.65098 1 
1 0.65098 1 1 0.65098 1 
1 0.65098 1 1 0.65098 1 
1 0.65098 1 1 0.65098 1 
1 0.65098 1 1 0.65098 1 
1 0.65098 1 1 0.65098 1 
1 0.65098 1 1 0.65098 1 
1 0.65098 1 1 0.65098 1 
1 0.65098 1 1 0.65098 1 
1 0.65098 1 1 0.65098 1 
1 0.65098 1 1 0.65098 1 
1 0.65098 1 1 0.65098 1 
1 0.65098 1 1 0.65098 1 
1 0.65098 1 1 0.65098 1 
1 0.65098 1 1 0.65098 1 
1 0.65098 1 1 0.65098 1 
1 0.65098 1 1 0.65098 1 
1 0.65098 1 1 0.65098 1 
1 0.65098 1 1 0.65098 1 
1 0.65098 1 1 0.65098 1 
1 0.65098 1 1 0.65098 1 
1 0.65098 1 1 0.65098 1 
1 0.65098 1 1 0.65098 1 
1 0.65098 1 1 0.65098 1 
1 0.65098 1 1 0.65098 1 
1 0.65098 1 1 0.65098 1 
1 0.65098 1 1 0.65098 1 
1 0.65098 1 1 0.65098 1 
1 0.65098 1 1 0.65098 1 
1 0.65098 1 1 0.65098 1 
1 0.65098 1 1 0.65098 1 
1 0.65098 1 1 0.65098 1 
1 0.65098 1 1 0.65098 1 
1 0.65098 1 1 0.65098 1 
1 0.65098 1 1 0.65098 1 
1 0.65098 1 1 0.65098 1 
1 0.65098 1 1 0.65098 1 
1 0.65098 1 1 0.65098 1 
1 0.65098 1 1 0.65098 1 
1 0.65098 1 1 0.65098 1 
1 0.65098 1 1 0.65098 1 
1 0.65098 1 1 0.65098 1 
1 0.65098 1 1 0.65098 1 
1 0.65098 1 1 0.65098 1 
1 0.65098 1 1 0.65098 1 
1 0.65098 1 1 0.65098 1 
1 0.65098 1 1 0.65098 1 
1 0.65098 1 1 0.65098 1 
1 0.65098 1 1 0.65098 1 
1 0.65098 1 1 0.65098 1 
1 0.65098 1 1 0.65098 1 
1 0.65098 1 1 0.65098 1 
1 0.65098 1 1 0.65098 1 
1 0.65098 1 1 0.65098 1 
1 0.65098 1 1 0.65098 1 
1 0.65098 1 1 0.65098 1 
1 0.65098 1 1 0.65098 1 
1 0.65098 1 1 0.65098 1 
1 0.65098 1 1 0.65098 1 
1 0.65098 1 1 0.65098 1 
1 0.65098 1 1 0.65098 1 
1 0.65098 1 1 0.65098 1 
1 0.65098 1 1 0.65098 1 
1 0.65098 1 1 0.65098 1 
1 0.65098 1 1 0.65098 1 
1 0.65098 1 1 0.65098 1 
1 0.65098 1 1 0.65098 1 
1 0.65098 1 1 0.65098 1 
1 0.65098 1 1 0.65098 1 
1 0.65098 1 1 0.65098 1 
1 0.65098 1 1 0.65098 1 
1 0.65098 1 1 0.65098 1 
1 0.65098 1 1 0.65098 1 
1 0.65098 1 1 0.65098 1 
1 0.65098 1 1 0.65098 1 
1 0.65098 1 1 0.65098 1 
1 0.65098 1 1 0.65098 1 
1 0.65098 1 1 0.65098 1 
1 0.65098 1 1 0.65098 1 
1 0.65098 1 1 0.65098 1 
1 0.65098 1 1 0.65098 1 
1 0.65098 1 1 0.65098 1 
1 0.65098 1 1 0.65098 1 
1 0.65098 1 1 0.65098 1 
1 0.65098 1 1 0.65098 1 
1 0.65098 1 1 0.65098 1 
1 0.65098 1 1 0.65098 1 
1 0.65098 1 1 0.65098 1 
1 0.65098 1 1 0.65098 1 
1 0.65098 1 1 0.65098 1 
1 0.65098 1 1 0.65098 1 
1 0.65098 1 1 0.65098 1 
1 0.65098 1 1 0.65098 1 
1 0.65098 1 1 0.65098 1 
1 0.65098 1 1 0.65098 1 
1 0.65098 1 1 0.65098 1 
1 0.65098 1 1 0.65098 1 
1 0.65098 1 1 0.65098 1 
1 0.65098 1 1 0.65098 1 
1 0.65098 1 1 0.65098 1 
1 0.65098 1 1 0.65098 1 
1 0.65098 1 1 0.65098 1 
1 0.65098 1 1 0.65098 1 
1 0.65098 1 1 0.65098 1 
1 0.65098 1 1 0.65098 1 
1 0.65098 1 1 0.65098 1 
1 0.65098 1 1 0.65098 1 
1 0.65098 1 1 0.65098 1 
1 0.65098 1 1 0.65098 1 
1 0.65098 1 1 0.65098 1 
1 0.65098 1 1 0.65098 1 
1 0.65098 1 1 0.65098 1 
1 0.65098 1 
NORMALS Normals float
0.125771 0.0373514 -0.991356 0.336565 0.141199 -0.931014 0.579417 0.349862 -0.736119 
0.313154 0.386918 -0.867311 0.578327 0.542372 -0.609401 0.204515 0.0406586 -0.978019 
0.398106 0.345634 -0.849734 0.224435 0.197937 -0.954175 0.569805 0.623717 -0.53507 
0.161523 0.203827 -0.96559 0.382264 0.359768 -0.851141 0.501821 0.508179 -0.699949 
0.0361158 0.123318 -0.99171 0.218114 0.230488 -0.948315 0.56459 0.598044 -0.568842 
0.0886835 0.181705 -0.979346 0.387086 0.399791 -0.830862 0.248514 0.280448 -0.927141 
0.439177 0.403677 -0.802601 0.207529 0.338909 -0.917645 0.330994 0.442544 -0.833425 
-0.233398 0.154574 -0.960017 0.183259 0.4134 -0.891918 -0.236925 0.294853 -0.925704 
-0.0758886 0.573384 -0.815765 -0.22315 0.65427 -0.722589 -0.00547818 0.481609 -0.876369 
0.304609 0.739073 -0.60082 0.384931 -0.000671599 -0.922945 -0.0172731 -0.0753605 -0.997007 
0.446206 0.163616 -0.879847 0.60839 0.102921 -0.786937 0.635643 0.278282 -0.720081 
0.292478 0.187722 -0.937666 0.383716 0.22549 -0.895498 0.580204 0.466494 -0.667643 
0.310681 0.071789 -0.947799 0.637114 0.449955 -0.6258 0.715592 0.617335 -0.326843 
0.75635 0.568811 -0.323094 -0.0148574 -0.125406 -0.991994 0.555115 0.6831 -0.474575 
-0.317678 -0.276554 -0.906972 -0.082682 -0.121311 -0.989165 -0.270779 -0.108246 -0.956536 
0.639272 0.616225 -0.459998 -0.18425 -0.185541 -0.965208 -0.39153 -0.308526 -0.8669 
-0.0698624 -0.0354093 -0.996928 0.611805 0.620888 -0.490095 -0.221069 -0.0532803 -0.973802 
0.546752 0.73807 -0.395367 -0.570765 -0.106336 -0.814199 -0.630244 0.0820468 -0.77205 
-0.626178 0.330146 -0.706331 -0.39894 0.25212 -0.881636 0.540565 0.672775 -0.505138 
-0.568768 0.575894 -0.587238 0.220859 0.797592 -0.56131 -0.333626 -0.388816 -0.858787 
-0.1672 -0.0644581 -0.983814 0.122406 0.124408 -0.984652 -0.43434 -0.452275 -0.778971 
-0.2638 -0.319186 -0.910236 0.140147 -0.0734503 -0.987403 0.491347 0.239995 -0.837246 
0.533242 0.147506 -0.833003 -0.569439 -0.513367 -0.642023 0.721581 0.242161 -0.648598 
-0.519738 -0.413437 -0.747624 0.779058 0.428145 -0.457996 0.587145 0.518594 -0.621548 
-0.401985 -0.426327 -0.810342 -0.545147 -0.426834 -0.721545 -0.528999 -0.331476 -0.781207 
-0.53396 -0.526814 -0.661327 0.692039 0.698798 -0.181006 -0.743803 -0.355572 -0.565974 
-0.505062 -0.321442 -0.800991 0.637145 0.695219 -0.332742 -0.798962 -0.0840904 -0.595474 
-0.791674 0.0402317 -0.609618 -0.851833 0.157923 -0.499441 -0.45929 0.795453 -0.395358 
-0.180568 0.81032 -0.557474 0.377694 0.84548 -0.377507 -0.0750851 0.923803 -0.375434 
0.013636 -0.785217 -0.619071 0.266083 -0.371107 -0.889651 0.147234 -0.736806 -0.659879 
0.399981 -0.842929 -0.35984 -0.142545 -0.547746 -0.824412 -0.353954 -0.62254 -0.697968 
0.1099 -0.374264 -0.920787 0.567476 -0.500979 -0.653445 -0.0795107 -0.26543 -0.960846 
0.0530061 -0.256029 -0.965215 0.337134 -0.12224 -0.933487 0.0966644 -0.180795 -0.978759 
0.545435 0.0017437 -0.838151 0.154014 -0.0934745 -0.983637 0.401544 -0.037378 -0.915077 
-0.23685 -0.406234 -0.882539 -0.237403 -0.407557 -0.881781 0.566731 0.102958 -0.817444 
-0.411247 -0.597132 -0.688701 0.155002 -0.0152321 -0.987797 0.172507 -0.00519144 -0.984995 
0.804663 0.144811 -0.575801 -0.599849 -0.654219 -0.460628 -0.248253 -0.222171 -0.942873 
-0.524827 -0.592215 -0.611422 0.494102 0.251103 -0.832353 0.703912 0.241151 -0.668098 
-0.531191 -0.619801 -0.577653 0.518371 0.389406 -0.76135 -0.648645 -0.669576 -0.36184 
0.645971 0.201872 -0.736186 0.645971 0.201872 -0.736186 -0.614477 -0.647787 -0.450322 
-0.777124 -0.59281 -0.211314 0.74483 0.445265 -0.496958 0.722534 0.57281 -0.387083 
0.757892 0.649062 -0.0657175 -0.656232 -0.617044 -0.434301 0.728867 0.665829 -0.159452 
-0.714375 -0.576753 -0.396264 -0.644675 -0.67613 -0.356711 -0.766951 -0.574945 -0.284998 
-0.80688 -0.477068 -0.348355 -0.674834 -0.456469 -0.579858 -0.872575 -0.432201 -0.22763 
-0.927349 -0.172044 -0.332301 0.565709 0.786389 -0.248126 -0.765148 -0.286489 -0.576604 
-0.928927 0.105777 -0.354832 -0.882864 0.277838 -0.378624 -0.701175 0.673204 -0.234842 
-0.035792 0.970102 -0.240046 -0.273255 -0.947036 -0.168684 -0.369937 -0.80178 -0.469355 
-0.183119 -0.69084 -0.699434 0.0595619 -0.974726 -0.215318 0.554309 -0.830575 -0.0537251 
-0.463939 -0.828344 -0.314017 0.666448 -0.630033 -0.39863 0.686846 -0.116614 -0.717386 
0.942007 -0.31799 -0.107261 0.972839 0.0985061 -0.209477 -0.526268 -0.652663 -0.545044 
-0.560821 -0.789717 -0.24865 -0.630396 -0.73191 -0.258665 0.94483 0.26099 -0.197941 
0.960821 0.251166 0.117212 -0.604884 -0.731965 -0.313596 -0.588096 -0.781102 -0.209817 
-0.564539 -0.68076 -0.466757 -0.622297 -0.779795 -0.0683173 0.972477 0.181078 -0.14663 
-0.710178 -0.690854 -0.135527 0.877295 0.221239 -0.425918 -0.648018 -0.760215 -0.0463209 
-0.657522 -0.66822 -0.348062 0.63924 0.463206 -0.613851 0.819671 0.525886 -0.227118 
0.869342 0.30945 -0.385337 0.710414 0.508992 -0.486045 0.711803 0.645492 -0.276906 
0.718285 0.687149 -0.109055 0.805497 0.562053 -0.187808 -0.754506 -0.645897 -0.116349 
0.846037 0.508147 -0.161268 0.850622 0.491163 -0.187617 -0.747403 -0.658467 -0.0883697 
-0.774627 -0.63099 -0.0424783 -0.697418 -0.654265 -0.292481 -0.865702 -0.430809 -0.25488 
0.678971 0.714339 -0.169462 -0.896255 -0.374066 -0.238332 -0.131152 -0.781755 -0.609637 
-0.840553 0.327114 -0.431818 -0.640036 0.759794 -0.114309 -0.261992 0.954466 -0.14267 
-0.238822 -0.940784 0.240604 -0.0290864 -0.979919 0.197264 0.577311 -0.783364 0.230332 
-0.459828 -0.831116 0.312737 0.774823 -0.567929 0.27768 0.835524 -0.388121 0.388924 
-0.457811 -0.789058 0.40963 0.918612 -0.0479075 0.392246 0.930858 0.159564 0.328697 
-0.557523 -0.762312 0.328707 -0.554668 -0.658939 0.508077 -0.694435 -0.716436 -0.0669254 
-0.66233 -0.729107 0.172398 -0.651811 -0.755702 -0.0636845 0.974647 0.176286 0.137793 
0.963619 0.218216 0.154338 0.874112 0.418096 0.247233 -0.663688 -0.727276 0.174893 
-0.741758 -0.67044 0.0175031 0.746261 0.584357 0.318781 -0.706081 -0.70813 0.00145017 
-0.713906 -0.693443 0.0973366 -0.718041 -0.695639 0.0224523 -0.6914 -0.715272 0.101746 
-0.765465 -0.623433 0.159357 0.792696 0.57501 0.202478 0.862175 0.505252 -0.0370812 
0.880001 0.460297 0.117153 -0.714428 -0.697615 0.0540925 -0.851092 -0.523502 0.0398575 
-0.995116 -0.0821581 0.0547204 0.612188 0.78969 -0.040188 0.73135 0.681552 -0.0247989 
-0.985395 0.0443314 0.164409 -0.809095 0.571363 0.137512 -0.374184 0.927024 0.0247678 
0.424907 0.895302 -0.133746 -0.439047 -0.874149 0.207608 -0.234619 -0.695252 0.679396 
0.012592 -0.864884 0.501814 0.266065 -0.888359 0.374202 0.535282 -0.691725 0.484758 
-0.637624 -0.738296 0.219898 0.710494 -0.467791 0.525709 0.797611 -0.170735 0.578503 
-0.275463 -0.632041 0.724323 0.806328 0.151668 0.571692 0.668246 0.0584287 0.741642 
-0.352801 -0.585494 0.729883 -0.539261 -0.704665 0.461135 -0.60672 -0.682011 0.408352 
-0.579627 -0.638071 0.506851 0.716738 0.223348 0.660608 -0.535627 -0.719699 0.441742 
0.591205 0.446747 0.671486 0.652194 0.430838 0.623716 0.64158 0.480677 0.597766 
-0.632667 -0.609125 0.478225 0.599988 0.456665 0.656864 -0.57978 -0.639485 0.504891 
0.8232 0.472637 0.314573 -0.706463 -0.636471 0.309539 0.869988 0.484891 0.0894562 
-0.738279 -0.612758 0.281908 0.676377 0.736047 0.0273676 -0.746754 -0.610393 0.264157 
0.658047 0.749782 0.0692893 -0.758876 -0.522703 0.388445 0.672325 0.674288 0.305476 
0.735372 0.664226 0.134281 -0.920473 -0.350414 0.173032 -0.993387 0.088731 -0.0728651 
0.657659 0.73992 0.141432 0.107805 0.994086 -0.0130626 0.257715 0.946505 0.194193 
0.492515 0.862195 0.118532 -0.175165 0.977212 0.119886 0.026295 0.990599 0.134247 
0.110043 -0.558012 0.822504 -0.0439025 -0.380009 0.923941 0.183907 -0.405142 0.895566 
0.344731 -0.527068 0.776763 -0.243055 -0.412936 0.877729 -0.534008 -0.337657 0.775128 
-0.0486769 -0.236927 0.970307 0.0657245 -0.222913 0.97262 0.375735 -0.0698073 0.924094 
0.324256 -0.00169172 0.945968 -0.429328 -0.517027 0.740514 -0.228839 -0.470436 0.852246 
-0.206479 -0.388261 0.89812 0.372443 -0.00661577 0.928031 -0.502444 -0.520965 0.690032 
-0.348865 -0.495171 0.795675 -0.522418 -0.593179 0.612551 0.466939 0.0657193 0.881844 
0.438 0.199963 0.876453 -0.483678 -0.638289 0.598868 -0.612502 -0.614434 0.497305 
0.510761 0.451534 0.731601 0.421347 0.306873 0.853402 0.480868 0.154291 0.863111 
-0.619431 -0.617253 0.485081 0.621585 0.327714 0.711503 0.550334 0.186697 0.813804 
-0.623474 -0.605271 0.494902 -0.591084 -0.442457 0.674427 0.722699 0.343886 0.599541 
-0.63614 -0.598777 0.486612 0.817111 0.469751 0.33416 -0.625028 -0.583442 0.518589 
-0.62389 -0.631786 0.460009 -0.68608 -0.552641 0.473163 -0.616421 -0.538454 0.574537 
-0.778309 -0.57878 0.243413 0.530489 0.697651 0.481522 -0.759024 -0.426897 0.491571 
-0.75742 -0.402454 0.514146 0.740424 0.575483 0.347263 -0.911816 -0.15931 0.378434 
-0.890327 -0.0863085 0.447066 0.685787 0.660775 0.305077 -0.902193 0.246601 0.353887 
-0.829006 0.453509 0.327229 0.319575 0.83115 0.45504 -0.439827 0.822535 0.360539 
-0.0170525 0.945227 0.325968 -0.169137 -0.299751 0.938905 0.0234783 -0.229821 0.97295 
-0.293236 -0.333245 0.896081 0.185747 -0.096831 0.977815 -0.410334 -0.501907 0.761391 
0.326418 0.112413 0.938517 0.0578107 -0.0414174 0.997468 0.15417 -0.0485175 0.986852 
0.586966 0.193309 0.786195 -0.479846 -0.463146 0.745147 -0.501511 -0.406816 0.763536 
-0.477034 -0.515142 0.712087 -0.529753 -0.459672 0.712786 0.709466 0.492401 0.504182 
-0.362438 -0.406226 0.83882 0.615096 0.674947 0.407558 -0.577021 -0.520784 0.629151 
-0.493666 -0.380704 0.781894 0.582922 0.572338 0.576742 0.545397 0.731736 0.408784 
0.570232 0.558784 0.602159 -0.524907 -0.341153 0.7798 0.536751 0.589526 0.60362 
-0.703565 -0.287186 0.650015 -0.571911 -0.302907 0.762342 0.679032 0.514783 0.523368 
0.551596 0.642882 0.531455 0.592764 0.65172 0.473172 0.645744 0.556296 0.52302 
-0.718867 -0.111837 0.686093 -0.816679 0.0677644 0.573099 0.598572 0.705604 0.379254 
-0.718333 0.42428 0.551347 -0.0173051 0.858526 0.512479 0.24901 -0.0308981 0.968008 
-0.184288 -0.2334 0.954758 0.705864 0.191467 0.68198 0.634139 0.311859 0.707539 
0.478469 0.580688 0.658687 -0.140522 -0.15741 0.977484 0.622092 0.532093 0.57435 
-0.288042 -0.262924 0.920816 -0.174716 -0.136515 0.975109 0.000178951 0.0725694 0.997363 
0.592266 0.636985 0.493427 0.403734 0.678804 0.613371 0.489794 0.594545 0.637666 
0.533188 0.549068 0.643611 -0.170228 -0.0911269 0.981182 0.517064 0.556279 0.650537 
0.51686 0.527725 0.674064 -0.282157 -0.0922358 0.954924 0.514332 0.479843 0.710784 
-0.616412 0.076706 0.783679 -0.403848 0.00531835 0.914811 -0.255884 0.284613 0.923861 
0.566394 0.39224 0.724807 0.442011 0.662987 0.604214 -0.402994 0.590224 0.699451 
-0.529035 0.25996 0.807801 0.459301 0.752878 0.4714 0.378701 0.106217 0.919404 
0.227394 0.186929 0.955693 0.438529 0.458521 0.772949 0.0497295 0.0994251 0.993802 
0.334788 0.293871 0.895297 0.292972 0.427471 0.85524 0.315424 0.353984 0.880456 
0.144934 0.166052 0.975408 0.348523 0.536639 0.768473 0.471937 0.308685 0.825826 
0.216866 0.27669 0.936169 0.199426 0.32264 0.925274 0.420869 0.433295 0.796947 
0.292556 0.336914 0.89493 0.239919 0.300365 0.923157 0.279547 0.306766 0.909807 
0.259141 0.221155 0.940179 0.189579 0.184623 0.964352 0.117379 0.0916116 0.988853 
-0.102496 0.343876 0.933404 0.196815 0.323338 0.92559 0.0836524 0.0829264 0.993039 
0.374726 0.393652 0.839415 0.0925006 0.551146 0.829265 -0.0472473 0.610002 0.79099 
0.212723 0.583967 0.78341 0.645971 0.201872 -0.736186 -0.693658 -0.67963 -0.238626 
-0.670529 -0.69554 -0.258098 -0.81949 0.573062 -0.00598289 -0.896977 0.322062 -0.302834 

