# vtk DataFile Version 4.2
vtk output
ASCII
DATASET POLYDATA
POINTS 385 float
315.912 146.054 199.533 315.701 146.544 199.541 315.186 147.442 199.754 
319.645 147.294 199.561 315.708 148.053 199.586 317.935 147.983 199.243 
320.137 147.709 199.653 317.029 148.819 199.347 319.266 148.643 199.368 
320.164 148.246 199.592 317.034 150.259 199.64 318.136 150.681 199.697 
314.07 142.762 200.491 316.261 141.877 200.605 314.956 144.904 199.878 
313.307 145.82 200.767 319.365 145.159 200.105 314.228 148.192 200.526 
320.975 148.867 200.03 315.961 151.872 200.944 319.503 151.972 200.488 
320.796 151.654 200.66 313.315 139.622 201.883 312.702 140.412 201.863 
313.892 140.775 201.227 312.367 142.185 201.73 312.223 144.106 201.856 
320.611 143.63 201.589 312.755 144.747 201.221 313.684 148.912 201.413 
313.251 148.937 202.132 322.104 152.472 201.96 315.887 153.173 202.034 
321.366 152.911 201.802 321.729 152.789 201.895 321.164 153.237 202.108 
312.523 137.74 203.056 313.538 138.452 202.544 311.916 138.84 203.005 
316.215 139.366 202.323 311.999 141.398 202.293 321.012 143.459 202.062 
322.668 145.417 202.337 323.186 146.914 202.165 322.442 152.377 202.207 
321.974 152.901 202.243 322.365 152.632 202.4 317.386 154.116 202.553 
321.703 153.267 202.602 311.82 136.484 204.021 312.721 136.47 203.753 
312.038 136.951 203.658 315.887 138.39 203.174 311.406 140.726 203.542 
311.369 142.536 203.647 321.309 143.026 202.951 311.668 144.198 202.905 
324.097 147.699 203.443 312.467 147.66 203.127 324.336 148.526 203.853 
324.145 149.541 203.509 314.529 152.246 202.914 314.638 152.543 203.295 
316.013 153.928 203.233 320.266 154.359 203.41 322.207 153.157 203.223 
317.031 154.897 204.122 318.45 154.934 203.835 312.057 134.906 204.869 
311.689 135.847 204.48 312.95 135.051 204.933 313.64 135.903 204.406 
311.283 139.906 204.209 311.278 141.799 204.264 311.37 143.499 204.256 
322.599 144.108 204.065 311.535 144.906 204.038 324.414 148.104 204.326 
324.338 149.944 204.651 316.717 154.796 204.379 318.424 155.184 204.351 
317.155 155.068 204.659 317.632 155.244 204.711 311.666 134.512 205.457 
312.454 134.385 205.547 311.458 134.675 205.449 311.352 135.008 205.329 
312.46 134.754 205.041 313.947 135.498 205.147 311.321 135.95 204.808 
311.126 136.057 205.139 311.197 136.565 204.751 319.477 140.277 204.448 
311.275 141.074 204.918 323.01 144.523 205.063 311.484 144.37 204.673 
323.647 145.762 204.863 313.395 150.684 205.042 323.25 152.502 205.44 
321.55 154.169 204.893 318.563 155.273 204.737 311.699 134.325 205.736 
311.65 134.264 205.865 311.587 134.393 205.869 311.751 134.286 205.888 
311.499 134.491 205.658 311.431 134.597 205.799 311.351 134.761 205.607 
312.576 134.396 205.651 312.744 134.526 205.815 311.066 136.677 205.391 
316.295 137.232 205.677 311.536 144.13 205.079 323.957 146.664 205.993 
324.432 149.539 205.577 314.317 151.978 206.326 317.078 155.031 205.738 
318.022 155.308 205.586 311.676 134.3 205.926 311.823 134.49 206.035 
312.811 134.698 206.111 311.273 135.392 205.824 311.206 135.973 205.784 
315.371 136.434 206.267 317.695 138.442 206.357 320.472 141.479 206.909 
322.639 144.079 206.187 324.35 148.632 206.096 323.382 152.092 207.155 
319.251 155.047 207.208 319.823 154.985 207.078 312.185 134.855 206.32 
311.717 135.427 206.328 312.163 135.453 206.562 313.14 135.127 206.4 
312.744 135.848 206.898 313.891 135.715 206.638 315.371 136.572 206.625 
315.809 137.011 206.82 311.749 138.378 206.624 312.91 145.254 207.349 
323.116 145.375 207.319 323.622 146.644 207.216 315.731 153.107 208.127 
321.004 154.476 207.574 314.551 136.338 206.972 312.721 137.234 207.314 
313.932 136.966 207.521 314.648 136.981 207.428 313.812 137.561 207.757 
314.763 138.563 208.243 316.91 139.159 208.212 317.898 139.028 207.265 
320.975 143.198 208.484 321.333 143.576 208.369 313.888 146.119 208.461 
323.475 150.837 208.174 322.285 153.201 208.523 317.525 154.289 208.612 
321.864 153.598 208.697 319.573 154.7 208.554 320.874 154.359 208.387 
315.954 139.066 208.438 319.849 143.551 209.561 315.115 145.145 209.517 
321.251 144.385 209.037 322.693 146.073 208.507 322.797 151.286 209.146 
322.335 152.746 209.067 317.284 153.59 209.471 321.768 153.4 209.245 
318.792 154.365 209.364 320.042 154.432 209.178 316.559 142.985 209.766 
316.27 145.361 210.15 318.73 145.826 210.679 316.857 147.967 210.602 
316.147 150.195 210.073 322.043 151.104 210.158 317.489 152.551 210.349 
317.486 153.429 209.808 321.954 152.93 209.498 318.928 154.131 209.896 
319.179 154.002 210.168 319.852 154.273 209.679 319.822 146.497 210.674 
318.064 148.289 211.031 320.989 150.096 211.038 321.363 151.991 210.525 
321.159 152.757 210.373 320.912 153.376 210.21 319.287 153.728 210.436 
320.55 153.516 210.39 320.513 150.134 211.215 319.836 151.149 211.253 
320.343 151.696 211.089 320.038 152.994 210.803 319.939 151.504 243.998 
319.637 151.07 244.002 320.014 151.077 244.019 320.28 151.852 244.098 
319.818 152.452 244.2 319.464 152.561 244.313 320.672 152.122 244.332 
319.863 152.957 244.457 320.088 152.777 244.367 317.831 149.269 244.335 
321.492 149.524 244.795 320.466 150.978 244.19 317.807 151.826 244.7 
321.658 152.081 245.066 321.071 152.79 244.765 320.258 153.533 245.056 
320.098 153.769 245.376 316.763 143.854 245.366 318.778 143.692 245.436 
316.739 146.45 244.926 319.078 146.462 244.71 321.4 145.286 245.958 
315.73 148.826 245.452 322.239 147.914 245.645 316.104 150.879 245.529 
322.17 150.631 245.342 316.687 152.097 245.541 322.313 152.499 245.948 
320.994 153.438 245.25 320.821 153.932 245.962 321.164 153.631 245.711 
316.493 140.228 246.53 317.688 140.838 246.471 317.939 141.544 246.19 
315.495 142.316 245.993 314.74 143.35 246.192 319.427 142.312 246.349 
322.31 145.775 246.544 322.189 152.903 246.139 318.533 154.442 246.977 
321.735 153.359 246.078 320.054 154.379 246.735 313.983 135.812 248.305 
313.809 136.804 247.78 313.071 136.934 247.867 314.808 136.35 248.195 
313.013 137.789 247.696 316.13 137.214 248.294 316.459 137.758 248 
312.988 138.66 247.572 314.106 139.867 246.902 319.624 141.183 247.5 
314.059 143.676 246.621 320.633 154.418 247.29 312.145 134.407 248.956 
311.879 134.504 248.943 312.375 134.45 248.909 312.464 135.154 248.535 
314.487 135.773 248.825 311.892 136.927 248.449 318.28 139.092 248.47 
319.417 140.316 248.25 320.082 140.775 248.873 313.06 145.091 247.646 
323.235 145.898 247.966 323.887 147.25 248.527 314.314 150.761 247.803 
323.543 151.99 248.64 316.818 154.527 248.403 320.516 154.618 248.098 
311.621 134.264 249.141 311.551 134.165 249.223 311.5 134.221 249.238 
311.65 134.201 249.244 311.467 134.384 249.196 311.466 134.362 249.362 
311.369 134.56 249.308 311.593 134.476 249.054 311.909 134.295 249.154 
312.472 134.42 248.96 312.946 134.693 249.103 313.818 135.293 249.074 
311.282 135.707 249.235 315.958 136.868 249.334 311.68 137.751 248.701 
318.692 139.286 249.521 320.211 140.824 249.307 312.021 142.738 248.797 
322.428 144.032 248.778 313.117 148.61 248.754 324.32 149.221 248.994 
324.433 148.73 249.535 324.306 149.825 249.152 322.687 153.293 248.802 
316.974 154.996 249.832 311.554 134.207 249.296 311.51 134.527 249.572 
311.747 134.356 249.432 312.163 134.362 249.338 312.515 134.449 249.256 
312.397 134.464 249.452 311.268 135.072 249.686 313.15 134.895 249.633 
311.176 135.419 249.734 311.182 135.875 249.457 315.268 136.394 249.689 
313.24 150.067 249.889 316.663 154.838 250.08 318.414 155.286 249.678 
318.753 155.26 249.893 320.882 154.561 249.671 317.851 155.296 250.161 
311.427 134.775 249.717 312.156 134.931 250.076 314.494 136.408 250.856 
311.308 139.277 250.768 318.415 139.125 250.376 312.197 147.142 250.557 
324.451 149.021 250.695 313.064 149.879 251.448 313.372 150.664 250.633 
323.841 151.424 250.815 321.05 154.417 250.46 316.92 154.951 251.016 
312.25 135.668 250.637 313.426 135.808 250.725 313.176 136.109 251.05 
313.94 136.669 251.386 314.561 136.835 251.283 311.298 141.084 251.655 
322.565 144.298 251.581 324.201 147.784 251.299 324.28 149.677 251.308 
318.865 154.961 251.438 316.842 154.838 251.475 312.679 136.259 251.113 
313.078 137.864 252.373 311.829 138.845 251.987 312.309 138.635 252.402 
317.246 139.658 252.604 318.862 140.288 251.887 321.404 143.207 252.519 
311.705 145.381 252.186 323.437 146.625 252.462 323.789 147.988 252.316 
312.983 148.736 252.813 313.474 150.722 252.191 323.04 152.224 252.461 
322.451 152.676 252.779 317.658 154.532 252.526 319.933 154.443 251.945 
312.092 140.122 252.896 311.843 142.962 253.216 321.722 144.446 253.365 
323.14 146.628 253.055 314.272 151.348 253.255 322.639 151.962 253.272 
322.795 151.598 253.255 322.426 152.14 253.35 317.836 153.725 253.597 
320.232 153.548 253.231 312.618 140.088 253.259 313.264 140.68 253.816 
313.233 141.458 254.163 317.173 141.917 254.549 312.178 142.388 253.594 
312.659 142.345 254.043 319.731 144.316 254.842 312.516 146.244 253.619 
322.755 147.668 253.739 314.201 149.631 254.455 322.055 150.35 254.412 
316.926 152.506 254.612 321.169 151.927 254.362 315.426 141.887 254.787 
315.318 143.225 255.421 314.079 145.337 255.159 313.601 147.235 254.62 
319.879 146.555 255.636 314.687 148.57 255.171 320.54 147.414 255.519 
315.812 150.994 255.064 316.015 151.703 254.798 319.92 150.709 255.413 
317.93 145.266 255.829 319.488 146.9 255.808 315.61 149.694 255.351 
317.703 150.441 255.67 
POLYGONS 762 3048
3 4 0 1 
3 4 1 2 
3 5 0 4 
3 5 3 16 
3 0 5 16 
3 5 4 7 
3 6 3 5 
3 7 4 10 
3 6 5 8 
3 9 6 8 
3 5 7 10 
3 8 5 10 
3 8 10 11 
3 18 8 11 
3 13 12 14 
3 13 14 0 
3 16 13 0 
3 0 15 1 
3 0 14 15 
3 15 17 1 
3 2 1 17 
3 43 6 9 
3 3 6 43 
3 2 17 4 
3 4 19 10 
3 18 43 9 
3 9 8 18 
3 10 19 20 
3 20 11 10 
3 20 21 18 
3 20 18 11 
3 22 23 24 
3 52 22 24 
3 13 52 24 
3 52 13 39 
3 40 24 23 
3 13 24 12 
3 25 24 40 
3 12 25 14 
3 24 25 12 
3 26 14 25 
3 16 39 13 
3 28 14 26 
3 14 28 15 
3 16 27 39 
3 30 15 28 
3 15 30 17 
3 16 3 27 
3 43 27 3 
3 42 27 43 
3 29 17 30 
3 4 17 19 
3 29 30 19 
3 29 19 17 
3 44 43 18 
3 44 60 43 
3 61 19 30 
3 21 44 18 
3 21 31 44 
[...]
POINT_DATA 385
COLOR_SCALARS scalars 3
1 0.564706 1 1 0.564706 1 1 0.564706 1 
1 0.564706 1 1 0.564706 1 
1 0.564706 1 1 0.564706 1 
1 0.564706 1 1 0.564706 1 
1 0.564706 1 1 0.564706 1 
1 0.564706 1 1 0.564706 1 
1 0.564706 1 1 0.564706 1 
1 0.564706 1 1 0.564706 1 
1 0.564706 1 1 0.564706 1 
1 0.564706 1 1 0.564706 1 
1 0.564706 1 1 0.564706 1 
1 0.564706 1 1 0.564706 1 
1 0.564706 1 1 0.564706 1 
1 0.564706 1 1 0.564706 1 
1 0.564706 1 1 0.564706 1 
1 0.564706 1 1 0.564706 1 
1 0.564706 1 1 0.564706 1 
1 0.564706 1 1 0.564706 1 
1 0.564706 1 1 0.564706 1 
1 0.564706 1 1 0.564706 1 
1 0.564706 1 1 0.564706 1 
1 0.564706 1 1 0.564706 1 
1 0.564706 1 1 0.564706 1 
1 0.564706 1 1 0.564706 1 
1 0.564706 1 1 0.564706 1 
1 0.564706 1 1 0.564706 1 
1 0.564706 1 1 0.564706 1 
1 0.564706 1 1 0.564706 1 
1 0.564706 1 1 0.564706 1 
1 0.564706 1 1 0.564706 1 
1 0.564706 1 1 0.564706 1 
1 0.564706 1 1 0.564706 1 
1 0.564706 1 1 0.564706 1 
1 0.564706 1 1 0.564706 1 
1 0.564706 1 1 0.564706 1 
1 0.564706 1 1 0.564706 1 
1 0.564706 1 1 0.564706 1 
1 0.564706 1 1 0.564706 1 
1 0.564706 1 1 0.564706 1 
1 0.564706 1 1 0.564706 1 
1 0.564706 1 1 0.564706 1 
1 0.564706 1 1 0.564706 1 
1 0.564706 1 1 0.564706 1 
1 0.564706 1 1 0.564706 1 
1 0.564706 1 1 0.564706 1 
1 0.564706 1 1 0.564706 1 
1 0.564706 1 1 0.564706 1 
1 0.564706 1 1 0.564706 1 
1 0.564706 1 1 0.564706 1 
1 0.564706 1 1 0.564706 1 
1 0.564706 1 1 0.564706 1 
1 0.564706 1 1 0.564706 1 
1 0.564706 1 1 0.564706 1 
1 0.564706 1 1 0.564706 1 
1 0.564706 1 1 0.564706 1 
1 0.564706 1 1 0.564706 1 
1 0.564706 1 1 0.564706 1 
1 0.564706 1 1 0.564706 1 
1 0.564706 1 1 0.564706 1 
1 0.564706 1 1 0.564706 1 
1 0.564706 1 1 0.564706 1 
1 0.564706 1 1 0.564706 1 
1 0.564706 1 1 0.564706 1 
1 0.564706 1 1 0.564706 1 
1 0.564706 1 1 0.564706 1 
1 0.564706 1 1 0.564706 1 
1 0.564706 1 1 0.564706 1 
1 0.564706 1 1 0.564706 1 
1 0.564706 1 1 0.564706 1 
1 0.564706 1 1 0.564706 1 
1 0.564706 1 1 0.564706 1 
1 0.564706 1 1 0.564706 1 
1 0.564706 1 1 0.564706 1 
1 0.564706 1 1 0.564706 1 
1 0.564706 1 1 0.564706 1 
1 0.564706 1 1 0.564706 1 
1 0.564706 1 1 0.564706 1 
1 0.564706 1 1 0.564706 1 
1 0.564706 1 1 0.564706 1 
1 0.564706 1 1 0.564706 1 
1 0.564706 1 1 0.564706 1 
1 0.564706 1 1 0.564706 1 
1 0.564706 1 1 0.564706 1 
1 0.564706 1 1 0.564706 1 
1 0.564706 1 1 0.564706 1 
1 0.564706 1 1 0.564706 1 
1 0.564706 1 1 0.564706 1 
1 0.564706 1 1 0.564706 1 
1 0.564706 1 1 0.564706 1 
1 0.564706 1 1 0.564706 1 
1 0.564706 1 1 0.564706 1 
1 0.564706 1 1 0.564706 1 
1 0.564706 1 1 0.564706 1 
1 0.564706 1 1 0.564706 1 
1 0.564706 1 1 0.564706 1 
1 0.564706 1 1 0.564706 1 
1 0.564706 1 1 0.564706 1 
1 0.564706 1 1 0.564706 1 
1 0.564706 1 1 0.564706 1 
1 0.564706 1 1 0.564706 1 
1 0.564706 1 1 0.564706 1 
1 0.564706 1 1 0.564706 1 
1 0.564706 1 1 0.564706 1 
1 0.564706 1 1 0.564706 1 
1 0.564706 1 1 0.564706 1 
1 0.564706 1 1 0.564706 1 
1 0.564706 1 1 0.564706 1 
1 0.564706 1 1 0.564706 1 
1 0.564706 1 1 0.564706 1 
1 0.564706 1 1 0.564706 1 
1 0.564706 1 1 0.564706 1 
1 0.564706 1 1 0.564706 1 
1 0.564706 1 1 0.564706 1 
1 0.564706 1 1 0.564706 1 
1 0.564706 1 1 0.564706 1 
1 0.564706 1 1 0.564706 1 
1 0.564706 1 1 0.564706 1 
1 0.564706 1 1 0.564706 1 
1 0.564706 1 1 0.564706 1 
1 0.564706 1 1 0.564706 1 
1 0.564706 1 1 0.564706 1 
1 0.564706 1 1 0.564706 1 
1 0.564706 1 1 0.564706 1 
1 0.564706 1 1 0.564706 1 
1 0.564706 1 1 0.564706 1 
1 0.564706 1 1 0.564706 1 
1 0.564706 1 1 0.564706 1 
1 0.564706 1 1 0.564706 1 
1 0.564706 1 1 0.564706 1 
1 0.564706 1 1 0.564706 1 
1 0.564706 1 1 0.564706 1 
1 0.564706 1 1 0.564706 1 
1 0.564706 1 1 0.564706 1 
1 0.564706 1 1 0.564706 1 
1 0.564706 1 1 0.564706 1 
1 0.564706 1 1 0.564706 1 
1 0.564706 1 1 0.564706 1 
1 0.564706 1 1 0.564706 1 
1 0.564706 1 1 0.564706 1 
1 0.564706 1 1 0.564706 1 
1 0.564706 1 1 0.564706 1 
1 0.564706 1 1 0.564706 1 
1 0.564706 1 1 0.564706 1 
1 0.564706 1 1 0.564706 1 
1 0.564706 1 1 0.564706 1 
1 0.564706 1 1 0.564706 1 
1 0.564706 1 1 0.564706 1 
1 0.564706 1 1 0.564706 1 
1 0.564706 1 1 0.564706 1 
1 0.564706 1 1 0.564706 1 
1 0.564706 1 1 0.564706 1 
1 0.564706 1 1 0.564706 1 
1 0.564706 1 1 0.564706 1 
1 0.564706 1 1 0.564706 1 
1 0.564706 1 1 0.564706 1 
1 0.564706 1 1 0.564706 1 
1 0.564706 1 1 0.564706 1 
1 0.564706 1 1 0.564706 1 
1 0.564706 1 1 0.564706 1 
1 0.564706 1 1 0.564706 1 
1 0.564706 1 1 0.564706 1 
1 0.564706 1 1 0.564706 1 
1 0.564706 1 1 0.564706 1 
1 0.564706 1 1 0.564706 1 
1 0.564706 1 1 0.564706 1 
1 0.564706 1 1 0.564706 1 
1 0.564706 1 1 0.564706 1 
1 0.564706 1 1 0.564706 1 
1 0.564706 1 1 0.564706 1 
1 0.564706 1 1 0.564706 1 
1 0.564706 1 1 0.564706 1 
1 0.564706 1 1 0.564706 1 
1 0.564706 1 1 0.564706 1 
1 0.564706 1 1 0.564706 1 
1 0.564706 1 1 0.564706 1 
1 0.564706 1 1 0.564706 1 
1 0.564706 1 1 0.564706 1 
1 0.564706 1 1 0.564706 1 
1 0.564706 1 1 0.564706 1 
1 0.564706 1 1 0.564706 1 
1 0.564706 1 1 0.564706 1 
1 0.564706 1 1 0.564706 1 
1 0.564706 1 1 0.564706 1 
1 0.564706 1 1 0.564706 1 
1 0.564706 1 1 0.564706 1 
1 0.564706 1 1 0.564706 1 
1 0.564706 1 1 0.564706 1 
1 0.564706 1 1 0.564706 1 
1 0.564706 1 1 0.564706 1 
1 0.564706 1 1 0.564706 1 
1 0.564706 1 1 0.564706 1 
1 0.564706 1 1 0.564706 1 

NORMALS Normals float
-0.120541 -0.11351 -0.986197 -0.402118 -0.0563988 -0.913849 -0.544727 -0.00912548 -0.838564 
0.392678 -0.259506 -0.882304 -0.307867 0.137054 -0.941506 0.0371467 -0.039254 -0.998539 
0.342286 -0.169147 -0.924245 -0.123145 0.117679 -0.985387 0.168267 0.102369 -0.980411 
0.442363 -0.0572429 -0.895007 -0.156711 0.340355 -0.927146 0.0943349 0.369584 -0.924396 
-0.323901 -0.218661 -0.920476 -0.00540319 -0.403375 -0.915019 -0.399002 -0.133676 -0.907154 
-0.596113 0.0657893 -0.800201 0.279146 -0.347772 -0.89506 -0.661958 0.143423 -0.735691 
0.450263 0.170057 -0.876552 -0.5171 0.465876 -0.71803 0.0295203 0.565269 -0.824378 
0.367817 0.428188 -0.825448 -0.236404 -0.412564 -0.879718 -0.506109 -0.208044 -0.837001 
-0.26857 -0.351194 -0.896958 -0.681775 -0.0968082 -0.725129 -0.73754 -0.0513487 -0.673349 
0.496788 -0.481949 -0.721753 -0.747176 0.0326072 -0.663825 -0.764844 0.294493 -0.572964 
-0.852296 0.278426 -0.442799 0.537256 0.442923 -0.717757 -0.409297 0.669581 -0.619788 
0.292994 0.544488 -0.785931 0.428745 0.629739 -0.64777 0.160518 0.830436 -0.533489 
-0.0258229 -0.535204 -0.844328 0.102382 -0.567155 -0.817223 -0.74666 -0.211686 -0.630625 
0.40626 -0.635422 -0.656652 -0.809489 -0.0727833 -0.582607 0.605528 -0.594762 -0.528767 
0.726466 -0.417487 -0.54585 0.712209 -0.196053 -0.674034 0.747669 0.313746 -0.585282 
0.554188 0.669013 -0.495275 0.692238 0.617328 -0.373782 -0.187349 0.807612 -0.559164 
0.357588 0.894544 -0.268184 -0.415015 -0.448294 -0.791704 0.000297125 -0.522945 -0.852367 
-0.520818 -0.344763 -0.780953 0.212687 -0.626024 -0.750239 -0.959495 -0.0251186 -0.280603 
-0.996061 0.0817051 0.0344512 0.575492 -0.665052 -0.475937 -0.933524 0.106332 -0.342384 
0.915311 -0.244571 -0.319986 -0.942644 0.311699 -0.119444 0.960973 0.00813272 -0.276524 
0.880113 0.186864 -0.436444 -0.796127 0.523029 -0.304339 -0.794659 0.598775 -0.0999299 
-0.607487 0.748696 -0.265357 0.332369 0.886039 -0.323212 0.501766 0.849127 -0.164967 
-0.331682 0.873843 -0.355506 0.156352 0.85877 -0.487922 -0.196658 -0.638035 -0.744471 
-0.633145 -0.371916 -0.678827 0.33805 -0.689695 -0.640346 0.383939 -0.642182 -0.66347 
-0.993135 -0.0110255 -0.116454 -0.985957 0.16559 -0.0216583 -0.997749 0.0309694 0.0594794 
0.817142 -0.531796 -0.222421 -0.966006 0.195035 -0.16969 0.987288 -0.136927 -0.0807036 
0.978707 0.177995 -0.102228 -0.6141 0.778092 -0.132116 -0.0431634 0.933648 -0.355581 
-0.33937 0.92585 -0.166223 -0.190349 0.957921 -0.214835 -0.371414 -0.668518 -0.64431 
0.106575 -0.904068 -0.413887 -0.656471 -0.530078 -0.536714 -0.70853 -0.396277 -0.583909 
0.246703 -0.732903 -0.634027 0.582548 -0.794184 -0.172943 -0.739174 -0.32721 -0.588689 
-0.952988 -0.179383 -0.244204 -0.854556 -0.151605 -0.49674 0.693575 -0.706142 -0.14254 
-0.961387 0.120047 0.247638 0.858891 -0.511921 0.0156077 -0.949519 0.273207 0.154178 
0.905923 -0.423427 -0.00347688 -0.925919 0.36864 0.0823277 0.831757 0.536836 -0.141379 
0.649829 0.759709 -0.0237638 0.219446 0.955537 -0.196959 -0.262075 -0.860391 -0.437086 
-0.424976 -0.901804 0.0783885 -0.796266 -0.422837 0.432631 0.195139 -0.947513 0.25326 
-0.708802 -0.664853 -0.235733 -0.874197 -0.389188 0.290366 -0.956103 -0.285837 -0.0645324 
0.443232 -0.89036 -0.103946 0.4754 -0.820022 0.318683 -0.995858 -0.0115339 0.0901899 
0.66897 -0.720328 -0.183321 -0.95633 0.0706251 0.283627 0.938753 -0.335458 0.0788094 
0.990308 0.104289 0.0917263 -0.841817 0.516536 0.156637 -0.491445 0.860142 0.13652 
-0.119574 0.990438 0.068813 -0.290236 -0.569474 0.769066 -0.100413 -0.564286 0.819451 
0.271434 -0.75388 0.598321 -0.724222 -0.307553 0.617182 -0.884876 -0.0574632 0.462269 
0.546711 -0.807986 0.219697 0.607664 -0.757931 0.237247 0.683186 -0.646381 0.339777 
0.775785 -0.565768 0.279402 0.970275 -0.0354386 0.239396 0.883821 0.419978 0.206105 
0.0468791 0.964937 0.258261 0.265247 0.962841 0.0508056 -0.198293 -0.467957 0.861218 
-0.549923 -0.331808 0.766478 -0.380479 -0.527059 0.759897 0.308634 -0.662758 0.682274 
-0.113354 -0.417483 0.901587 0.412276 -0.751624 0.514869 0.568358 -0.752559 0.332602 
0.540333 -0.70057 0.466092 -0.850717 0.020744 0.525214 -0.841921 0.185746 0.506624 
0.8383 -0.457377 0.296748 0.894402 -0.281329 0.347706 -0.742119 0.544643 0.39067 
0.469974 0.856798 0.212182 0.30458 -0.681317 0.665611 -0.448832 -0.177197 0.875872 
-0.0190463 -0.44974 0.892956 0.22324 -0.489167 0.843137 -0.107993 -0.341915 0.933505 
0.0173612 -0.418875 0.907878 0.371459 -0.599696 0.70879 0.627621 -0.688619 0.363174 
0.642783 -0.562957 0.519528 0.703655 -0.444744 0.554141 -0.780887 0.220506 0.584459 
0.883301 0.0708272 0.463425 0.780478 0.59809 0.182054 -0.332488 0.869384 0.365545 
0.639499 0.7459 0.18621 0.0778309 0.965757 0.247497 0.574629 0.795873 0.190756 
-0.0236869 -0.409418 0.912039 0.415406 -0.452636 0.789024 -0.495044 -0.0787678 0.86529 
0.593776 -0.36498 0.717091 0.757541 -0.262079 0.597869 0.822114 0.275184 0.4984 
0.811001 0.335391 0.479365 -0.620256 0.527007 0.580987 0.605722 0.650914 0.457615 
-0.15254 0.899595 0.409218 0.210746 0.907491 0.363381 -0.104313 -0.294451 0.949957 
-0.427161 -0.0414257 0.903226 0.0442771 -0.251286 0.9669 -0.363879 -0.0594753 0.929546 
-0.609668 0.167291 0.774803 0.695089 0.0373284 0.717954 -0.466157 0.290649 0.835596 
-0.427464 0.654557 0.623562 0.712066 0.366247 0.599019 -0.320534 0.741249 0.589753 
-0.0653736 0.840483 0.53788 0.132017 0.882993 0.45044 0.203154 -0.220887 0.953906 
-0.196302 -0.0233024 0.980267 0.483085 -0.0567826 0.87373 0.564467 0.246828 0.787688 
0.621538 0.322222 0.714047 0.538465 0.444431 0.715917 -0.198308 0.467479 0.861474 
0.350286 0.678284 0.645934 0.192862 -0.0413455 0.980354 0.00314475 0.102294 0.994749 
0.228878 0.171135 0.958294 0.259323 0.315911 0.912662 0.0933365 0.0811686 -0.992321 
-0.0598937 -0.154186 -0.986225 0.165515 -0.3106 -0.93602 0.161232 0.114099 -0.980299 
0.0830841 0.307041 -0.948063 -0.264625 0.263319 -0.927705 0.486843 0.187306 -0.853171 
-0.0893736 0.646276 -0.757852 0.222648 0.45034 -0.864652 -0.371952 0.0422541 -0.92729 
0.611657 -0.0919185 -0.785765 0.442195 -0.112487 -0.889837 -0.426854 0.575332 -0.697702 
0.717282 0.125304 -0.685424 0.487696 0.382836 -0.784595 -0.00993904 0.744812 -0.667201 
-0.0430862 0.827004 -0.560542 -0.0930429 -0.267587 -0.959031 0.121934 -0.323888 -0.938205 
-0.207286 -0.0861885 -0.974476 0.156435 -0.207858 -0.965569 0.581706 -0.45799 -0.672208 
-0.586005 0.0691068 -0.807355 0.652453 -0.174096 -0.737561 -0.678394 0.303477 -0.669091 
0.750164 0.0187178 -0.660987 -0.579817 0.398784 -0.710481 0.746055 0.370272 -0.553444 
0.446949 0.694539 -0.563783 0.281583 0.878232 -0.386549 0.511617 0.758274 -0.404065 
0.178167 -0.395754 -0.900908 0.282618 -0.452492 -0.8458 0.219136 -0.420906 -0.880237 
-0.398923 -0.18802 -0.897502 -0.486185 -0.0335537 -0.873211 0.431588 -0.448253 -0.782816 
0.75372 -0.361771 -0.54866 0.785336 0.543292 -0.296784 -0.110804 0.932661 -0.343315 
0.628323 0.686702 -0.365582 0.0704241 0.944421 -0.321107 0.234932 -0.654332 -0.718789 
-0.0711792 -0.324088 -0.943346 -0.139537 -0.337445 -0.930946 0.416541 -0.656087 -0.62932 
-0.38299 -0.122862 -0.915546 0.539038 -0.712261 -0.44958 0.411785 -0.549672 -0.726838 
-0.463827 -0.034638 -0.885248 -0.301612 -0.115632 -0.946393 0.676922 -0.484385 -0.554209 
-0.595162 -0.00537276 -0.803588 0.400998 0.898902 -0.176566 -0.0748231 -0.691576 -0.718418 
-0.177913 -0.523256 -0.833396 0.0797882 -0.608515 -0.789521 -0.0969883 -0.374384 -0.922187 
0.565605 -0.808582 -0.162133 -0.601608 -0.0948247 -0.793143 0.568655 -0.706714 -0.420936 
0.641126 -0.675481 -0.364256 0.847392 -0.443743 -0.291578 -0.753154 0.154773 -0.639378 
0.834033 -0.507712 -0.215909 0.900754 -0.168671 -0.400239 -0.811787 0.403384 -0.422237 
0.903 0.397755 -0.162426 -0.541227 0.741038 -0.397411 0.266597 0.958267 -0.1032 
-0.206613 -0.574549 -0.791963 -0.21085 -0.961714 -0.175066 -0.835221 -0.517439 -0.186179 
0.325259 -0.942142 0.0810795 -0.81109 -0.295783 -0.504625 -0.73586 -0.528363 0.423489 
-0.917631 -0.187296 -0.350533 -0.533379 -0.223079 -0.81593 0.125144 -0.954903 -0.269258 
0.31617 -0.829658 -0.460113 0.553289 -0.823491 0.125433 0.547531 -0.83048 -0.10253 
-0.860077 0.0323768 -0.509136 0.638454 -0.768312 0.0455287 -0.854683 0.0822994 -0.512586 
0.698038 -0.71598 0.010751 0.819808 -0.568498 -0.0687314 -0.874862 0.0820006 -0.477381 
0.839789 -0.51296 -0.177838 -0.898767 0.229386 -0.373631 0.931568 0.108808 -0.346903 
0.968097 -0.24634 -0.0458776 0.967822 0.182815 -0.172913 0.666152 0.743243 -0.0618963 
-0.392843 0.911516 -0.121709 -0.232955 -0.754864 0.613117 -0.223611 -0.629733 0.743932 
0.0976256 -0.749819 0.654401 0.195696 -0.954911 0.223266 0.406718 -0.895637 0.180041 
0.309025 -0.79832 0.516903 -0.932427 -0.299066 0.202828 0.518337 -0.816841 0.253176 
-0.879796 -0.219713 0.421528 -0.96237 -0.0314879 -0.269913 0.62001 -0.730365 0.286626 
-0.908344 0.385329 -0.162582 -0.683103 0.72902 -0.0435765 0.0900768 0.971438 -0.219533 
0.166023 0.977449 0.130497 0.319563 0.94633 -0.0483608 -0.172285 0.984666 -0.0273859 
-0.424318 -0.48626 0.763876 0.0676971 -0.695531 0.7153 0.389232 -0.71356 0.582522 
-0.999541 0.0255035 0.0163367 0.62424 -0.758591 0.186719 -0.967092 0.209939 -0.143732 
0.995718 0.0390925 0.0837723 -0.944397 0.315266 0.0933853 -0.883222 0.462207 -0.0792624 
0.920635 0.341864 0.188574 0.505077 0.836504 0.212504 -0.153842 0.958953 0.238205 
-0.0955444 -0.561467 0.821965 0.103932 -0.71785 0.688397 0.0808976 -0.670743 0.737265 
0.167611 -0.616592 0.769234 0.468827 -0.652002 0.595899 -0.979356 -0.0321716 0.199566 
0.818307 -0.539331 0.198736 0.925523 -0.290227 0.24326 0.962689 0.162621 0.216297 
0.16798 0.938201 0.302592 -0.498853 0.773979 0.390002 -0.199219 -0.554458 0.808015 
-0.234376 -0.519898 0.821446 -0.783686 -0.315312 0.535177 -0.574479 -0.457539 0.678699 
0.373167 -0.64756 0.664389 0.707539 -0.645808 0.286916 0.602339 -0.59209 0.535366 
-0.977325 0.17794 0.114771 0.90043 -0.370219 0.228392 0.857459 -0.161512 0.488546 
-0.887499 0.290734 0.357517 -0.895382 0.409833 0.17415 0.778885 0.546488 0.307715 
0.521643 0.70521 0.480174 -0.040626 0.883666 0.466351 0.346879 0.848714 0.399198 
-0.680846 -0.254 0.686973 -0.815243 0.0371276 0.577927 0.693791 -0.438079 0.571612 
0.757553 -0.251546 0.60236 -0.723629 0.546457 0.4216 0.663739 0.359905 0.655682 
0.783108 0.198579 0.589329 0.577988 0.434443 0.690789 -0.145232 0.728196 0.669805 
0.269561 0.755692 0.596881 -0.323658 -0.455865 0.829116 -0.286881 -0.448026 0.846742 
-0.423911 -0.328026 0.844215 0.295579 -0.489013 0.82067 -0.749786 -0.152253 0.643925 
-0.58632 -0.0974876 0.804192 0.419403 -0.423406 0.803012 -0.809851 0.224134 0.54213 
0.796535 -0.0780304 0.599536 -0.752441 0.295677 0.588565 0.59647 0.179978 0.782196 
-0.0916518 0.613791 0.78413 0.351513 0.536882 0.766939 0.00171338 -0.534973 0.844867 
-0.154493 -0.260189 0.953118 -0.490024 0.0448136 0.870556 -0.540688 0.171321 0.823593 
0.332017 -0.26122 0.906382 -0.613368 0.183578 0.768166 0.510224 -0.145972 0.847564 
-0.33184 0.373679 0.866167 -0.210684 0.504495 0.837315 0.15584 0.27126 0.949806 
-0.0480037 -0.0566299 0.99724 0.205811 -0.172471 0.963274 -0.167702 0.172894 0.970559 
-0.0713543 0.247638 0.966222 
