# vtk DataFile Version 4.2
vtk output
ASCII
DATASET POLYDATA
POINTS 500 float
401.874 199.49 220.868 406.021 190.179 222.605 408.286 189.797 223.317 
409.155 190.396 223.353 408.976 191.423 222.667 398.215 192.854 222.462 
399.825 192.915 221.883 409.757 192.994 222.45 408.104 194.112 221.623 
410.95 193.541 223.013 396.47 196.671 222.544 400.046 204.789 221.928 
417.214 204.321 222.019 418.747 205.134 222.176 420.103 205.231 222.439 
418.254 206.574 222.145 404.8 189.111 223.664 406.749 189.03 223.706 
407.226 189.118 223.645 401.145 190.082 223.695 403.724 189.629 223.288 
408.485 189.754 223.492 399.416 190.559 223.964 409.364 190.433 223.526 
396.827 192.15 223.765 410.375 191.87 223.424 411.46 194.018 223.296 
395.345 197.458 223.58 413.022 197.545 222.922 414.239 197.916 223.992 
416.026 199.916 223.677 414.293 200.291 222.342 417.271 200.526 224.296 
396.037 200.977 223.379 418.172 201.663 223.419 418.865 201.621 223.901 
420.132 202.397 223.729 419.972 202.819 223.316 421.793 203.31 223.813 
421.369 202.887 223.953 420.686 203.591 223.177 422.426 203.89 223.781 
422.804 203.775 224.059 423.17 203.952 224.22 396.852 204.089 223.61 
418.416 203.754 222.371 423.381 204.256 224.164 423.355 204.555 224.038 
423.581 204.512 224.252 422.714 205.124 223.596 423.281 205.081 223.935 
397.592 206.182 223.979 398.261 205.996 223.224 398.459 206.729 223.379 
398.885 207.683 223.575 417.082 208.326 222.308 422.979 207.188 223.967 
400.745 208.618 223.07 420.604 209.072 223.37 405.401 188.546 224.607 
400.88 189.794 224.281 396.433 192.003 224.596 397.999 190.905 224.531 
411.218 192.688 224.195 394.919 194.692 224.476 394.79 195.222 224.564 
394.646 196.915 224.734 394.918 197.402 224.179 415.049 198.637 224.359 
395.361 201.115 224.547 419.421 201.709 224.309 420.688 202.306 224.457 
395.887 202.738 224.278 422.312 203.245 224.34 423.756 204.684 224.481 
396.754 204.863 224.107 396.508 204.679 224.483 423.926 205.21 224.571 
397.141 205.792 224.44 423.877 205.635 224.525 423.595 206.42 224.285 
422.978 207.56 224.085 398.744 208.203 224.251 421.858 208.857 223.867 
422.298 209.008 224.277 400.717 210.467 224.167 401.871 210.806 223.762 
420.358 210.329 223.999 418.685 211.514 224.235 411.072 212.851 224.057 
413.864 212.704 224.159 400.219 189.636 225.141 408.146 189.156 224.768 
409.179 189.851 224.903 395.828 192.375 225.443 394.911 193.99 225.03 
413.066 195.502 224.976 394.787 198.503 224.668 416.925 200.203 225.07 
418.94 201.435 224.8 421.309 202.627 224.708 421.864 202.966 224.823 
423 203.698 224.62 395.871 203.306 224.78 423.88 204.874 224.797 
424.081 205.141 224.762 424.092 205.293 224.762 424.137 205.214 224.814 
423.932 205.621 224.8 424.067 205.3 224.863 396.89 205.548 224.838 
423.526 207.075 224.595 423.64 206.767 224.796 422.698 208.604 224.452 
400.103 210.726 225.071 421.038 210.68 224.729 422.437 209.37 224.837 
400.384 211.283 225.358 420.89 211.038 225.05 401.181 211.843 225.565 
403.8 212.399 224.465 420.055 211.597 225.249 421.11 211 225.297 
402.193 212.351 225.392 402.663 212.6 225.503 409.029 213.486 224.945 
411.947 213.456 224.995 413.849 213.353 225.177 404.493 188.353 225.803 
394.793 194.081 225.468 394.599 194.742 225.607 415.521 199.08 225.996 
394.83 199.887 225.44 395.26 201.225 225.941 418.9 201.56 225.371 
420.904 202.534 225.108 421.383 202.951 225.334 422.882 203.882 225.171 
395.986 203.572 225.569 423.248 204.134 225.048 424.055 205.148 224.863 
423.81 205.245 225.062 397.126 205.654 225.632 423.669 205.931 225.2 
398.03 207.394 225.646 423.472 207.125 225.125 423.153 207.746 225.321 
422.84 208.621 225.262 399.238 209.598 225.388 422.591 209.066 225.614 
422.152 209.927 225.41 400.124 211.026 225.644 421.855 210.322 225.536 
420.728 211.287 225.727 402.322 212.515 225.677 402.28 212.501 225.888 
418.391 212.453 225.492 418.771 212.345 225.698 403.28 212.781 225.857 
406.149 213.226 225.575 406.919 213.395 225.803 408.53 213.594 225.37 
413.198 213.503 225.525 414.535 213.34 225.795 417.329 212.725 225.895 
407.435 213.527 225.7 400.338 189.331 226.148 394.519 194.878 226.293 
394.331 196.649 226.47 415.345 199.565 227.455 415.872 200.057 226.76 
416.347 200.36 226.423 417.669 201.38 226.255 395.79 202.379 226.43 
418.917 202.233 226.29 421.605 203.474 225.693 422.303 204.231 225.799 
423.429 204.487 225.159 423.402 204.86 225.334 398.294 207.237 226.253 
398.219 207.649 225.838 398.507 207.832 226.103 399.22 209.027 226.215 
422.526 208.268 226.337 422.159 208.74 226.793 422.758 208.412 225.783 
400.525 211.07 226.168 400.625 211.364 225.974 420.937 210.957 226.773 
402.508 212.561 226.03 402.551 212.445 226.207 413.721 213.024 226.546 
413.244 212.647 226.875 414.564 212.885 226.59 414.979 212.513 226.894 
416.782 212.707 226.402 406.495 213.087 226.17 408.207 213.416 226.098 
412.94 213.27 226.321 415.301 199.564 228.338 409.645 202.894 228.002 
411.193 202.727 228.012 415.803 200.878 227.338 415.431 200.739 228.07 
407.987 203.564 227.999 408.617 203.301 228 411.921 202.752 228.02 
412.158 202.868 228.002 412.936 202.677 228.039 413.342 202.719 227.993 
414 202.405 228.072 414.351 202.392 227.95 414.921 201.828 228.108 
415.259 201.826 227.768 415.931 201.82 227.436 397.12 203.359 227.499 
406.416 204.374 227.994 406.973 204.073 227.997 398.368 204.389 227.59 
398.464 204.333 227.909 403.087 205.378 227.946 403.75 205.246 227.971 
404.608 205.056 227.981 405.63 204.727 227.989 419.584 203.256 226.684 
399.501 204.903 227.867 399.876 205.299 227.647 400.867 205.341 227.879 
402.159 205.462 227.919 398.063 205.942 226.601 398.84 206.71 226.825 
419.923 205.335 227.455 398.875 207.549 226.56 417.13 205.616 227.828 
417.886 205.505 227.839 418.882 205.412 227.807 420.132 205.703 227.815 
421.125 206.238 227.429 421.034 206.269 227.877 399.714 208.391 226.77 
401.378 208.303 227.384 416.021 206.412 227.926 416.59 206.125 227.925 
417.174 205.787 227.913 421.579 206.92 227.694 422.023 207.485 227.11 
421.937 207.768 227.822 415.145 207.445 227.97 415.593 207.044 227.974 
416.042 206.57 227.963 422.022 208.628 227.961 402.209 209.944 227.218 
414.575 208.717 227.974 414.875 208.218 228.01 415.173 207.614 228.001 
414.419 210.132 227.862 414.704 209.902 228.062 414.652 208.963 228.053 
415.082 210.807 228.026 415.455 211.42 227.78 415.661 211.438 228.137 
401.768 211.976 226.268 402.297 212.054 226.403 407.656 212.079 227.1 
412.199 211.828 227.282 413.142 212.037 227.184 416.492 211.911 228.06 
416.631 212.135 227.484 417.95 212.235 227.435 411.358 212.543 226.958 
405.263 188.424 229.225 406.192 188.462 229.099 407.154 188.617 228.524 
409.602 189.934 229.31 411.092 191.654 228.758 394.863 193.707 229.12 
415.751 200.221 228.937 415.756 199.597 229.685 415.707 201.453 228.552 
416.866 200.595 229.954 395.484 201.164 229.662 395.838 201.593 228.365 
414.857 202.318 228.25 417.574 201.204 229.816 418.825 202.221 229.454 
419.16 201.989 229.82 414.464 202.988 228.169 417.43 202.628 228.776 
420.934 202.805 229.872 421.477 202.95 230.04 395.919 202.873 230.253 
397.736 203.836 228.139 421.973 203.351 229.928 399.084 204.863 228.139 
400.495 205.377 228.023 401.936 205.601 227.989 423.376 204.521 229.948 
396.789 205.105 230.019 415.647 204.681 228.095 423.438 204.779 229.91 
397.165 205.616 229.78 397.731 206.009 229.425 398.444 206.108 228.959 
419.089 205.236 228.086 420.567 205.658 228.229 398.613 206.968 229.149 
417.692 205.469 227.981 421.613 206.772 228.217 423.484 206.234 229.944 
397.957 207.474 230.125 416.427 206.101 227.98 422.187 208.075 228.511 
398.381 208.116 229.941 399.567 208.678 229.185 421.949 209.292 228.303 
398.951 209.291 230.065 401.197 210.37 229.038 411.609 210.472 228.334 
414.288 209.624 228.175 415.04 210.947 228.291 418.535 212.117 228.381 
419.628 211.78 228.459 420.91 211.091 229.139 421.417 210.701 229.361 
401.325 211.577 229.557 416.107 211.89 228.536 417.353 212.166 228.483 
401.586 212.249 229.934 403.433 212.284 229.414 412.058 212.503 228.947 
417.095 212.373 229.05 419.341 212.035 229.499 402.434 212.413 229.764 
406.874 213.314 229.77 409.114 213.119 229.274 413.579 212.961 229.447 
407.283 213.328 229.62 411.593 213.303 229.585 413.135 213.158 229.579 
406.776 188.577 229.689 399.502 189.912 230.451 415.214 198.787 229.954 
418.28 201.322 230.28 419.762 201.936 230.344 422.436 203.479 230.167 
423.173 204.06 230.231 423.521 204.668 230.047 423.556 204.715 230.25 
396.79 205.378 230.353 423.637 205.692 230.427 423.411 207.36 230.07 
398.649 208.867 230.295 423.387 207.638 230.34 398.911 209.319 230.298 
399.157 209.648 230.181 422.786 208.999 229.694 400.22 211.096 230.368 
422.067 210.056 229.904 401.028 211.887 230.193 420.917 211.036 229.918 
401.847 212.402 229.993 401.99 212.427 230.154 418.101 212.49 229.582 
408.05 213.552 229.98 408.365 213.558 230.207 413.705 213.146 229.787 
414.338 213.059 230.021 402.224 189.215 231.036 398.768 190.452 231.062 
394.957 193.918 230.268 395.027 194.201 230.675 394.618 197.025 230.489 
419.573 201.818 230.628 421.848 202.967 230.507 422.868 203.69 230.61 
423.389 204.351 230.404 423.506 204.78 230.562 396.825 205.474 230.666 
423.556 206.001 230.732 423.481 206.8 230.741 398.226 207.998 230.769 
398.8 209.085 230.509 398.912 208.974 230.866 423.063 208.266 230.454 
423.326 207.735 230.58 422.653 209.123 230.232 422.393 209.231 230.677 
422.045 209.873 230.29 400.618 211.42 230.558 402.756 212.201 230.956 
417.135 212.299 230.86 418.614 211.969 230.631 419.083 211.553 230.901 
403.111 212.439 230.797 403.209 212.611 230.448 405.713 213.04 230.632 
414.314 212.726 231.045 416.9 212.55 230.429 418.428 212.258 230.196 
407.3 213.273 230.598 411.941 213.383 230.413 412.75 213.35 230.231 
404.462 188.807 231.313 407.269 188.909 230.839 399.235 190.462 231.525 
396.831 192.016 231.593 410.768 191.845 231.287 395.762 192.878 231.102 
394.838 195.694 230.916 414.547 198.596 231.9 416.029 199.637 231.079 
417.198 200.721 231.53 395.991 202.382 231.552 423.037 203.902 230.741 
[...]
POINT_DATA 500
COLOR_SCALARS scalars 3
1 0.764706 0.584314 1 0.764706 0.584314 1 0.764706 0.584314 
1 0.764706 0.584314 1 0.764706 0.584314 
1 0.764706 0.584314 1 0.764706 0.584314 
1 0.764706 0.584314 1 0.764706 0.584314 
1 0.764706 0.584314 1 0.764706 0.584314 
1 0.764706 0.584314 1 0.764706 0.584314 
1 0.764706 0.584314 1 0.764706 0.584314 
1 0.764706 0.584314 1 0.764706 0.584314 
1 0.764706 0.584314 1 0.764706 0.584314 
1 0.764706 0.584314 1 0.764706 0.584314 
1 0.764706 0.584314 1 0.764706 0.584314 
1 0.764706 0.584314 1 0.764706 0.584314 
1 0.764706 0.584314 1 0.764706 0.584314 
1 0.764706 0.584314 1 0.764706 0.584314 
1 0.764706 0.584314 1 0.764706 0.584314 
1 0.764706 0.584314 1 0.764706 0.584314 
1 0.764706 0.584314 1 0.764706 0.584314 
1 0.764706 0.584314 1 0.764706 0.584314 
1 0.764706 0.584314 1 0.764706 0.584314 
1 0.764706 0.584314 1 0.764706 0.584314 
1 0.764706 0.584314 1 0.764706 0.584314 
1 0.764706 0.584314 1 0.764706 0.584314 
1 0.764706 0.584314 1 0.764706 0.584314 
1 0.764706 0.584314 1 0.764706 0.584314 
1 0.764706 0.584314 1 0.764706 0.584314 
1 0.764706 0.584314 1 0.764706 0.584314 
1 0.764706 0.584314 1 0.764706 0.584314 
1 0.764706 0.584314 1 0.764706 0.584314 
1 0.764706 0.584314 1 0.764706 0.584314 
1 0.764706 0.584314 1 0.764706 0.584314 
1 0.764706 0.584314 1 0.764706 0.584314 
1 0.764706 0.584314 1 0.764706 0.584314 
1 0.764706 0.584314 1 0.764706 0.584314 
1 0.764706 0.584314 1 0.764706 0.584314 
1 0.764706 0.584314 1 0.764706 0.584314 
1 0.764706 0.584314 1 0.764706 0.584314 
1 0.764706 0.584314 1 0.764706 0.584314 
1 0.764706 0.584314 1 0.764706 0.584314 
1 0.764706 0.584314 1 0.764706 0.584314 
1 0.764706 0.584314 1 0.764706 0.584314 
1 0.764706 0.584314 1 0.764706 0.584314 
1 0.764706 0.584314 1 0.764706 0.584314 
1 0.764706 0.584314 1 0.764706 0.584314 
1 0.764706 0.584314 1 0.764706 0.584314 
1 0.764706 0.584314 1 0.764706 0.584314 
1 0.764706 0.584314 1 0.764706 0.584314 
1 0.764706 0.584314 1 0.764706 0.584314 
1 0.764706 0.584314 1 0.764706 0.584314 
1 0.764706 0.584314 1 0.764706 0.584314 
1 0.764706 0.584314 1 0.764706 0.584314 
1 0.764706 0.584314 1 0.764706 0.584314 
1 0.764706 0.584314 1 0.764706 0.584314 
1 0.764706 0.584314 1 0.764706 0.584314 
1 0.764706 0.584314 1 0.764706 0.584314 
1 0.764706 0.584314 1 0.764706 0.584314 
1 0.764706 0.584314 1 0.764706 0.584314 
1 0.764706 0.584314 1 0.764706 0.584314 
1 0.764706 0.584314 1 0.764706 0.584314 
1 0.764706 0.584314 1 0.764706 0.584314 
1 0.764706 0.584314 1 0.764706 0.584314 
1 0.764706 0.584314 1 0.764706 0.584314 
1 0.764706 0.584314 1 0.764706 0.584314 
1 0.764706 0.584314 1 0.764706 0.584314 
1 0.764706 0.584314 1 0.764706 0.584314 
1 0.764706 0.584314 1 0.764706 0.584314 
1 0.764706 0.584314 1 0.764706 0.584314 
1 0.764706 0.584314 1 0.764706 0.584314 
1 0.764706 0.584314 1 0.764706 0.584314 
1 0.764706 0.584314 1 0.764706 0.584314 
1 0.764706 0.584314 1 0.764706 0.584314 
1 0.764706 0.584314 1 0.764706 0.584314 
1 0.764706 0.584314 1 0.764706 0.584314 
1 0.764706 0.584314 1 0.764706 0.584314 
1 0.764706 0.584314 1 0.764706 0.584314 
1 0.764706 0.584314 1 0.764706 0.584314 
1 0.764706 0.584314 1 0.764706 0.584314 
1 0.764706 0.584314 1 0.764706 0.584314 
1 0.764706 0.584314 1 0.764706 0.584314 
1 0.764706 0.584314 1 0.764706 0.584314 
1 0.764706 0.584314 1 0.764706 0.584314 
1 0.764706 0.584314 1 0.764706 0.584314 
1 0.764706 0.584314 1 0.764706 0.584314 
1 0.764706 0.584314 1 0.764706 0.584314 
1 0.764706 0.584314 1 0.764706 0.584314 
1 0.764706 0.584314 1 0.764706 0.584314 
1 0.764706 0.584314 1 0.764706 0.584314 
1 0.764706 0.584314 1 0.764706 0.584314 
1 0.764706 0.584314 1 0.764706 0.584314 
1 0.764706 0.584314 1 0.764706 0.584314 
1 0.764706 0.584314 1 0.764706 0.584314 
1 0.764706 0.584314 1 0.764706 0.584314 
1 0.764706 0.584314 1 0.764706 0.584314 
1 0.764706 0.584314 1 0.764706 0.584314 
1 0.764706 0.584314 1 0.764706 0.584314 
1 0.764706 0.584314 1 0.764706 0.584314 
1 0.764706 0.584314 1 0.764706 0.584314 
1 0.764706 0.584314 1 0.764706 0.584314 
1 0.764706 0.584314 1 0.764706 0.584314 
1 0.764706 0.584314 1 0.764706 0.584314 
1 0.764706 0.584314 1 0.764706 0.584314 
1 0.764706 0.584314 1 0.764706 0.584314 
1 0.764706 0.584314 1 0.764706 0.584314 
1 0.764706 0.584314 1 0.764706 0.584314 
1 0.764706 0.584314 1 0.764706 0.584314 
1 0.764706 0.584314 1 0.764706 0.584314 
1 0.764706 0.584314 1 0.764706 0.584314 
1 0.764706 0.584314 1 0.764706 0.584314 
1 0.764706 0.584314 1 0.764706 0.584314 
1 0.764706 0.584314 1 0.764706 0.584314 
1 0.764706 0.584314 1 0.764706 0.584314 
1 0.764706 0.584314 1 0.764706 0.584314 
1 0.764706 0.584314 1 0.764706 0.584314 
1 0.764706 0.584314 1 0.764706 0.584314 
1 0.764706 0.584314 1 0.764706 0.584314 
1 0.764706 0.584314 1 0.764706 0.584314 
1 0.764706 0.584314 1 0.764706 0.584314 
1 0.764706 0.584314 1 0.764706 0.584314 
1 0.764706 0.584314 1 0.764706 0.584314 
1 0.764706 0.584314 1 0.764706 0.584314 
1 0.764706 0.584314 1 0.764706 0.584314 
1 0.764706 0.584314 1 0.764706 0.584314 
1 0.764706 0.584314 1 0.764706 0.584314 
1 0.764706 0.584314 1 0.764706 0.584314 
1 0.764706 0.584314 1 0.764706 0.584314 
1 0.764706 0.584314 1 0.764706 0.584314 
1 0.764706 0.584314 1 0.764706 0.584314 
1 0.764706 0.584314 1 0.764706 0.584314 
1 0.764706 0.584314 1 0.764706 0.584314 
1 0.764706 0.584314 1 0.764706 0.584314 
1 0.764706 0.584314 1 0.764706 0.584314 
1 0.764706 0.584314 1 0.764706 0.584314 
1 0.764706 0.584314 1 0.764706 0.584314 
1 0.764706 0.584314 1 0.764706 0.584314 
1 0.764706 0.584314 1 0.764706 0.584314 
1 0.764706 0.584314 1 0.764706 0.584314 
1 0.764706 0.584314 1 0.764706 0.584314 
1 0.764706 0.584314 1 0.764706 0.584314 
1 0.764706 0.584314 1 0.764706 0.584314 
1 0.764706 0.584314 1 0.764706 0.584314 
1 0.764706 0.584314 1 0.764706 0.584314 
1 0.764706 0.584314 1 0.764706 0.584314 
1 0.764706 0.584314 1 0.764706 0.584314 
1 0.764706 0.584314 1 0.764706 0.584314 
1 0.764706 0.584314 1 0.764706 0.584314 
1 0.764706 0.584314 1 0.764706 0.584314 
1 0.764706 0.584314 1 0.764706 0.584314 
1 0.764706 0.584314 1 0.764706 0.584314 
1 0.764706 0.584314 1 0.764706 0.584314 
1 0.764706 0.584314 1 0.764706 0.584314 
1 0.764706 0.584314 1 0.764706 0.584314 
1 0.764706 0.584314 1 0.764706 0.584314 
1 0.764706 0.584314 1 0.764706 0.584314 
1 0.764706 0.584314 1 0.764706 0.584314 
1 0.764706 0.584314 1 0.764706 0.584314 
1 0.764706 0.584314 1 0.764706 0.584314 
1 0.764706 0.584314 1 0.764706 0.584314 
1 0.764706 0.584314 1 0.764706 0.584314 
1 0.764706 0.584314 1 0.764706 0.584314 
1 0.764706 0.584314 1 0.764706 0.584314 
1 0.764706 0.584314 1 0.764706 0.584314 
1 0.764706 0.584314 1 0.764706 0.584314 
1 0.764706 0.584314 1 0.764706 0.584314 
1 0.764706 0.584314 1 0.764706 0.584314 
1 0.764706 0.584314 1 0.764706 0.584314 
1 0.764706 0.584314 1 0.764706 0.584314 
1 0.764706 0.584314 1 0.764706 0.584314 
1 0.764706 0.584314 1 0.764706 0.584314 
1 0.764706 0.584314 1 0.764706 0.584314 
1 0.764706 0.584314 1 0.764706 0.584314 
1 0.764706 0.584314 1 0.764706 0.584314 
1 0.764706 0.584314 1 0.764706 0.584314 
1 0.764706 0.584314 1 0.764706 0.584314 
1 0.764706 0.584314 1 0.764706 0.584314 
1 0.764706 0.584314 1 0.764706 0.584314 
1 0.764706 0.584314 1 0.764706 0.584314 
1 0.764706 0.584314 1 0.764706 0.584314 
1 0.764706 0.584314 1 0.764706 0.584314 
1 0.764706 0.584314 1 0.764706 0.584314 
1 0.764706 0.584314 1 0.764706 0.584314 
1 0.764706 0.584314 1 0.764706 0.584314 
1 0.764706 0.584314 1 0.764706 0.584314 
1 0.764706 0.584314 1 0.764706 0.584314 
1 0.764706 0.584314 1 0.764706 0.584314 
1 0.764706 0.584314 1 0.764706 0.584314 
1 0.764706 0.584314 1 0.764706 0.584314 
1 0.764706 0.584314 1 0.764706 0.584314 
1 0.764706 0.584314 1 0.764706 0.584314 
1 0.764706 0.584314 1 0.764706 0.584314 
1 0.764706 0.584314 1 0.764706 0.584314 
1 0.764706 0.584314 1 0.764706 0.584314 
1 0.764706 0.584314 1 0.764706 0.584314 
1 0.764706 0.584314 1 0.764706 0.584314 
1 0.764706 0.584314 1 0.764706 0.584314 
1 0.764706 0.584314 1 0.764706 0.584314 
1 0.764706 0.584314 1 0.764706 0.584314 
1 0.764706 0.584314 1 0.764706 0.584314 
1 0.764706 0.584314 1 0.764706 0.584314 
1 0.764706 0.584314 1 0.764706 0.584314 
1 0.764706 0.584314 1 0.764706 0.584314 
1 0.764706 0.584314 1 0.764706 0.584314 
1 0.764706 0.584314 1 0.764706 0.584314 
1 0.764706 0.584314 1 0.764706 0.584314 
1 0.764706 0.584314 1 0.764706 0.584314 
1 0.764706 0.584314 1 0.764706 0.584314 
1 0.764706 0.584314 1 0.764706 0.584314 
1 0.764706 0.584314 1 0.764706 0.584314 
1 0.764706 0.584314 1 0.764706 0.584314 
1 0.764706 0.584314 1 0.764706 0.584314 
1 0.764706 0.584314 1 0.764706 0.584314 
1 0.764706 0.584314 1 0.764706 0.584314 
1 0.764706 0.584314 1 0.764706 0.584314 
1 0.764706 0.584314 1 0.764706 0.584314 
1 0.764706 0.584314 1 0.764706 0.584314 
1 0.764706 0.584314 1 0.764706 0.584314 
1 0.764706 0.584314 1 0.764706 0.584314 
1 0.764706 0.584314 1 0.764706 0.584314 
1 0.764706 0.584314 1 0.764706 0.584314 
1 0.764706 0.584314 1 0.764706 0.584314 
1 0.764706 0.584314 1 0.764706 0.584314 
1 0.764706 0.584314 1 0.764706 0.584314 
1 0.764706 0.584314 1 0.764706 0.584314 
1 0.764706 0.584314 1 0.764706 0.584314 
1 0.764706 0.584314 1 0.764706 0.584314 
1 0.764706 0.584314 1 0.764706 0.584314 
1 0.764706 0.584314 1 0.764706 0.584314 
1 0.764706 0.584314 1 0.764706 0.584314 
1 0.764706 0.584314 1 0.764706 0.584314 
1 0.764706 0.584314 1 0.764706 0.584314 
1 0.764706 0.584314 1 0.764706 0.584314 
1 0.764706 0.584314 1 0.764706 0.584314 
1 0.764706 0.584314 1 0.764706 0.584314 
1 0.764706 0.584314 1 0.764706 0.584314 
1 0.764706 0.584314 1 0.764706 0.584314 
1 0.764706 0.584314 1 0.764706 0.584314 
1 0.764706 0.584314 1 0.764706 0.584314 
1 0.764706 0.584314 1 0.764706 0.584314 
1 0.764706 0.584314 1 0.764706 0.584314 
1 0.764706 0.584314 1 0.764706 0.584314 
1 0.764706 0.584314 1 0.764706 0.584314 
1 0.764706 0.584314 1 0.764706 0.584314 
1 0.764706 0.584314 1 0.764706 0.584314 
1 0.764706 0.584314 1 0.764706 0.584314 
1 0.764706 0.584314 1 0.764706 0.584314 
1 0.764706 0.584314 1 0.764706 0.584314 
1 0.764706 0.584314 1 0.764706 0.584314 
1 0.764706 0.584314 1 0.764706 0.584314 
1 0.764706 0.584314 1 0.764706 0.584314 
1 0.764706 0.584314 1 0.764706 0.584314 
1 0.764706 0.584314 1 0.764706 0.584314 
1 0.764706 0.584314 
NORMALS Normals float
-0.0711201 0.0287245 -0.997054 0.0106892 -0.518912 -0.854761 0.301535 -0.590922 -0.748256 
0.504661 -0.518672 -0.690142 0.416267 -0.399528 -0.816761 -0.439841 -0.365779 -0.820211 
-0.214792 -0.432892 -0.875482 0.416113 -0.12281 -0.900981 0.243748 -0.212062 -0.94637 
0.681235 -0.383343 -0.623672 -0.482566 0.00537017 -0.875843 -0.367535 0.242364 -0.897874 
0.0901916 -0.148598 -0.984776 0.154183 -0.158878 -0.975185 0.324404 -0.104063 -0.940177 
0.121874 0.061308 -0.99065 -0.140047 -0.823127 -0.550317 0.0805323 -0.878873 -0.470209 
0.290421 -0.823848 -0.486756 -0.170964 -0.777918 -0.604661 -0.208451 -0.735831 -0.644283 
0.471545 -0.712616 -0.519445 -0.417351 -0.757527 -0.501967 0.651339 -0.584551 -0.483795 
-0.623036 -0.403914 -0.669836 0.722126 -0.496852 -0.481323 0.631101 -0.288695 -0.719977 
-0.754074 -0.076862 -0.652276 0.612725 -0.460086 -0.642564 0.784341 -0.608104 -0.122556 
0.603778 -0.619302 -0.501914 0.314471 -0.288353 -0.904412 0.49864 -0.737147 -0.45604 
-0.757597 0.151806 -0.634824 0.370137 -0.501448 -0.782016 0.5206 -0.731099 -0.440987 
0.323085 -0.741213 -0.588404 0.293325 -0.492828 -0.819195 0.421154 -0.502146 -0.755301 
0.427777 -0.712179 -0.556604 0.333738 -0.413175 -0.847293 0.432446 -0.410946 -0.802567 
0.510431 -0.65725 -0.554512 0.535147 -0.488917 -0.688896 -0.685881 0.246548 -0.684676 
0.156095 -0.266807 -0.951025 0.710842 -0.504792 -0.489785 0.470756 -0.140649 -0.870981 
0.801638 -0.486483 -0.347435 0.373083 0.0554277 -0.926141 0.493192 -0.0552809 -0.868162 
-0.702175 0.614026 -0.360447 -0.480472 0.270236 -0.834338 -0.601622 0.584104 -0.544861 
-0.499567 0.453626 -0.738009 0.143823 0.226129 -0.963421 0.421927 0.26863 -0.865919 
-0.2567 0.367344 -0.893959 0.385443 0.402289 -0.83042 0.0351331 -0.962372 -0.269453 
0.0550696 -0.944003 -0.325309 -0.682029 -0.66131 -0.312258 -0.445299 -0.785494 -0.429776 
0.822076 -0.50365 -0.265571 -0.84523 -0.195076 -0.497525 -0.849394 -0.048264 -0.525548 
-0.944542 -0.00068483 -0.328389 -0.915119 0.0836421 -0.394413 0.678445 -0.688343 -0.256703 
-0.887941 0.205192 -0.411651 0.422507 -0.73334 -0.532634 0.457397 -0.885023 -0.0867268 
-0.88665 0.237539 -0.396772 0.512722 -0.779601 -0.359637 0.809555 -0.208858 -0.548634 
-0.75127 0.366503 -0.54888 -0.912383 0.358421 -0.197716 0.804343 -0.072538 -0.58972 
-0.770903 0.630435 -0.0908842 0.77516 0.105081 -0.622965 0.83933 0.204162 -0.503829 
0.634683 0.346435 -0.690768 -0.772474 0.54256 -0.330019 0.448493 0.247271 -0.858901 
0.57121 0.58714 -0.573573 -0.445645 0.626952 -0.639009 -0.243854 0.518704 -0.819439 
0.327548 0.564648 -0.757551 0.223618 0.625498 -0.747493 0.0293505 0.562066 -0.826571 
0.061228 0.720931 -0.690297 -0.431067 -0.82103 -0.374287 0.290206 -0.949196 -0.121687 
0.685451 -0.721739 -0.0961748 -0.742281 -0.670055 0.00669429 -0.850206 -0.41554 -0.323227 
0.815639 -0.536612 -0.216289 -0.953304 0.123261 -0.275715 0.610377 -0.790308 0.0534132 
0.433228 -0.899187 0.0614566 0.486478 -0.871029 0.0681684 0.528635 -0.76334 0.37129 
0.65832 -0.751551 0.0422533 -0.931702 0.339866 -0.128151 0.792573 -0.573188 0.208048 
0.826225 -0.438457 -0.353706 0.875178 0.289007 -0.387993 0.978254 -0.0761572 0.192922 
0.951168 0.297714 0.0815244 0.74314 0.277631 0.608822 -0.845083 0.530643 -0.06522 
0.896001 0.364168 -0.254095 0.965177 0.254704 0.0596543 0.821086 0.366989 -0.437193 
-0.688851 0.511763 -0.513403 0.486986 0.621765 -0.613395 0.864872 0.468625 -0.179964 
-0.665849 0.703528 -0.248384 0.477008 0.791009 -0.383103 -0.512987 0.832196 -0.210461 
-0.215124 0.788428 -0.576284 0.427008 0.851855 -0.303328 0.638047 0.736383 -0.225024 
-0.451499 0.794962 -0.405195 -0.270697 0.915591 -0.297351 -0.0932012 0.906244 -0.412353 
0.102854 0.8748 -0.473441 0.137459 0.904487 -0.403743 -0.125376 -0.969673 -0.209796 
-0.934803 -0.350475 0.0575438 -0.968522 -0.246835 0.0322224 0.659604 -0.708574 0.25069 
-0.980014 0.195826 0.0349834 -0.964002 0.214727 0.15682 0.465215 -0.783422 0.412098 
0.4032 -0.805561 0.434167 0.436104 -0.730208 0.525937 0.525478 -0.647986 0.55135 
-0.873525 0.408354 0.264954 0.611234 -0.538932 0.579608 0.670173 -0.395247 0.628211 
0.656447 -0.0750924 0.750626 -0.806883 0.441352 0.392617 0.795169 0.0411119 0.604993 
-0.860467 0.42441 0.281908 0.904911 0.290743 0.310812 0.921916 0.328524 0.205288 
0.927876 0.367939 0.0605602 -0.798855 0.548622 -0.246666 0.817283 0.445076 0.366001 
0.778958 0.595067 0.197788 -0.774554 0.588773 0.231111 0.777431 0.628892 0.0097902 
0.47837 0.877981 -0.0176457 -0.454326 0.880101 -0.137879 -0.477792 0.842932 0.247346 
0.286154 0.949763 -0.12675 0.381202 0.923327 -0.04639 -0.169016 0.984579 0.0451529 
-0.215915 0.976017 -0.0277802 -0.216635 0.910155 0.353111 -0.0354377 0.99832 -0.0458477 
0.0625917 0.976205 -0.207622 0.16615 0.953498 0.251465 0.164688 0.963491 0.211097 
-0.148547 0.983725 0.101093 -0.298738 -0.950858 -0.0813919 -0.983238 -0.171627 -0.0615458 
-0.991403 0.110606 -0.0698985 0.834322 -0.475466 0.278997 0.774262 -0.43953 0.455336 
0.677323 -0.49676 0.542645 0.464752 -0.711676 0.526805 -0.862581 0.32896 0.384368 
0.34659 -0.423592 0.836926 0.427296 -0.582852 0.69116 0.471765 -0.481118 0.738893 
0.608318 -0.411497 0.678689 0.583059 -0.265688 0.767758 -0.690269 0.311871 0.65289 
-0.842362 0.433496 0.320169 -0.701208 0.288742 0.651871 -0.590394 0.404208 0.698606 
0.888223 0.151635 0.433668 0.938814 0.22337 0.262172 0.8254 0.218746 0.520447 
-0.572017 0.452076 0.684415 -0.587595 0.735212 0.337928 0.677807 0.729116 0.0946967 
-0.306649 0.905035 0.294751 -0.202862 0.650243 0.732142 0.0863163 0.685133 0.723286 
-0.0572781 0.536243 0.842118 0.199373 0.799146 0.567112 0.064742 0.826373 0.559389 
0.0736708 0.9462 0.315085 -0.141976 0.813475 0.564004 -0.0276368 0.860284 0.509066 
-0.0380046 0.714343 0.698763 0.910393 -0.376039 -0.172567 0.022231 0.102544 0.99448 
-0.00574378 0.130275 0.991461 0.784451 -0.168333 0.596909 0.99942 0.0340452 -0.000779083 
0.0475146 0.10681 0.993143 0.0418209 0.106493 0.993434 -0.0118265 0.183269 0.982992 
-0.00682491 0.158133 0.987394 0.0399293 0.321319 0.946129 0.0821526 0.258317 0.962561 
0.21188 0.54556 0.810846 0.309319 0.29097 0.90535 0.762987 0.634097 -0.125591 
0.616756 0.315236 0.721276 0.500432 -0.14491 0.853562 -0.688518 0.600938 0.405975 
0.0474334 0.10763 0.993059 0.0516435 0.10692 0.992925 -0.47195 0.666822 0.576725 
-0.564253 0.824579 -0.0410963 0.111585 0.834546 0.539521 0.171715 0.98446 0.0367661 
0.0069125 0.139269 0.990231 0.0353685 0.110469 0.99325 0.392329 -0.526841 0.754 
-0.425978 0.904595 -0.0158313 -0.34329 0.406008 0.846941 -0.287735 0.862175 0.41697 
-0.0302317 0.154814 0.987481 -0.526949 0.428977 0.733692 -0.539228 0.332229 0.773858 
0.225615 -0.712649 0.664251 -0.493489 0.245403 0.834414 -0.0208374 -0.467793 0.883592 
-0.182145 -0.976822 -0.112435 0.0106628 -0.9806 -0.195732 0.424368 -0.903031 -0.0666862 
0.658034 -0.524564 0.540208 0.671651 -0.727962 -0.137681 -0.382607 0.310052 0.870333 
-0.31222 0.260733 0.91353 -0.0754094 -0.149757 0.985843 -0.167695 -0.32694 0.930048 
-0.142263 -0.410461 0.900712 0.844067 -0.535442 0.0292114 0.886306 -0.118702 0.447628 
0.971655 -0.235215 -0.023658 -0.152539 -0.0899515 0.984195 -0.174817 -0.186243 0.966826 
-0.148747 -0.209167 0.966501 0.998293 0.0152352 -0.0563879 -0.109847 0.247638 0.962605 
-0.373159 -0.0050885 0.927753 -0.355164 -0.166243 0.919903 -0.197314 -0.14527 0.969517 
-0.497649 0.221685 0.838571 -0.960049 0.272968 0.0615951 -0.595134 -0.0684133 0.800709 
-0.794682 0.568585 0.212582 -0.373793 0.677415 0.633552 -0.624162 0.777998 -0.071698 
-0.38817 0.580478 0.7158 -0.240802 0.547174 0.801633 -0.023653 0.222396 0.974669 
-0.0995097 0.31176 0.944936 -0.127085 0.373212 0.919 -0.420699 0.906203 0.0425285 
-0.193492 0.898983 0.392926 0.0418854 0.979712 0.195987 -0.0925224 0.407093 0.908689 
-0.0019341 -0.998083 0.0618621 0.0259598 -0.992832 0.116666 0.336199 -0.94154 -0.0217282 
0.618311 -0.77814 0.110407 0.818122 -0.571661 0.062287 -0.956899 -0.27461 0.0945184 
0.730488 -0.409747 -0.546347 0.772689 -0.578269 -0.261833 0.560959 0.021436 -0.827566 
0.582997 -0.721561 -0.37345 -0.968007 0.250247 0.0183943 -0.849215 0.527802 0.0160916 
0.256145 0.0421923 -0.965717 0.472233 -0.650441 -0.594914 0.306478 -0.629446 -0.714051 
0.264903 -0.690112 -0.673477 0.0695713 0.138077 -0.987975 0.248363 -0.334713 -0.909001 
0.40035 -0.74512 -0.5334 0.416228 -0.799624 -0.432846 -0.908118 0.339314 -0.245331 
-0.67802 0.664301 -0.314632 0.345514 -0.522509 -0.77949 -0.422571 0.601381 -0.678067 
-0.200178 0.622479 -0.756603 -0.0288121 0.514364 -0.857088 0.571509 -0.455861 -0.682325 
-0.833462 0.140307 -0.534467 -0.0634429 -0.134909 -0.988825 0.634272 -0.183455 -0.751028 
-0.740073 0.468843 -0.482159 -0.663264 0.374837 -0.647748 -0.547443 0.269247 -0.792346 
0.158586 -0.654444 -0.739292 0.435537 -0.56688 -0.699253 -0.639382 0.376819 -0.670223 
-0.13449 -0.599975 -0.788634 0.776889 -0.398836 -0.48721 0.941389 0.0557679 -0.332682 
-0.785781 0.402597 -0.469536 -0.237478 -0.309398 -0.920802 0.893826 0.0040963 -0.448395 
-0.883606 0.38093 -0.272276 -0.44387 0.309514 -0.84094 0.892077 0.394083 -0.221127 
-0.710016 0.488083 -0.507594 -0.31994 0.337051 -0.885458 -0.156273 0.0069591 -0.987689 
-0.192505 0.162993 -0.967665 -0.376977 0.561047 -0.736963 0.202325 0.972129 -0.118446 
0.366002 0.92925 0.0503702 0.637572 0.765576 -0.0859907 0.677785 0.734661 -0.0296664 
-0.422044 0.520073 -0.742565 -0.334907 0.833123 -0.440164 -0.114991 0.986303 -0.11825 
-0.520486 0.811606 -0.26531 -0.0126267 0.322616 -0.946446 0.074005 0.503683 -0.860713 
-0.0250848 0.893314 -0.448733 0.417378 0.90437 0.0889391 -0.204828 0.866103 -0.455973 
-0.23057 0.886043 -0.4022 -0.111449 0.281767 -0.952988 0.199323 0.627878 -0.752356 