# vtk DataFile Version 4.2
vtk output
ASCII
DATASET POLYDATA
POINTS 3056 float
404.631 77.2195 120.142 404.443 77.2709 120.404 404.706 77.0081 120.025 
405.743 77.0381 119.77 406.807 77.2321 119.797 406.698 77.091 119.754 
406.955 77.1258 119.811 405.313 77.451 120.162 406.336 77.4045 119.995 
406.997 77.2105 119.938 403.689 76.3201 120.803 403.546 76.5396 121.04 
404.867 76.6996 119.979 406 76.7529 119.807 406.281 76.4288 119.995 
406.963 76.911 119.875 407.203 76.9 119.986 407.278 76.7641 120.151 
403.724 76.829 120.887 407.136 77.0531 119.942 407.285 76.9279 120.136 
404.567 77.4402 120.728 405.099 77.5607 120.596 406.623 77.4053 120.282 
406.96 77.2574 120.23 407.18 77.0922 120.179 403.763 75.9556 120.836 
404.211 75.9334 120.54 407.222 75.8649 120.998 403.259 76.4243 121.659 
407.306 76.9073 120.404 404.288 77.4615 121.367 406.866 77.2867 120.619 
403.66 75.1528 121.406 403.467 74.7785 121.878 403.259 75.2731 121.848 
404.382 74.6235 121.452 405.621 74.6379 121.333 407.046 75.2803 121.254 
407.307 75.1061 121.572 403.023 75.8151 122.135 407.305 75.2639 121.529 
407.345 76.3771 120.772 403.526 77.1835 122.208 407.271 76.6554 121.41 
405.266 77.7253 121.737 406.91 77.1359 121.311 403.597 74.3178 122.155 
403.41 73.9694 122.653 404.086 74.2126 121.95 406.469 74.3332 121.876 
407.294 74.8546 122.193 402.647 76.1297 123.32 407.401 76.1314 122.221 
403.213 76.9198 122.558 403.112 73.7814 123.212 404.65 73.2757 122.757 
406.399 73.4951 122.763 406.597 73.2772 123.169 406.91 73.4838 123.297 
402.398 75.569 123.826 403.819 77.6163 123.678 404.377 77.8028 123.487 
405.709 72.2881 123.846 407.079 73.1048 124.188 407.423 73.9485 124.125 
402.186 74.85 124.478 402.28 76.2298 124.972 407.288 76.2827 123.89 
406.746 76.9687 124.179 407.097 76.5737 124.275 405.398 77.8333 124.268 
403.215 71.2111 125.706 404.34 70.9492 125.415 406.784 71.5129 125.564 
403.791 71.984 124.505 402.3 73.2444 125.101 407.594 74.8494 125.01 
401.933 75.5778 125.602 407.013 76.4636 125.037 402.852 77.3391 125.781 
404.926 77.9206 124.945 405.545 77.8862 124.849 405.471 77.9509 124.986 
403.466 70.6596 126.092 405.257 70.4935 125.885 407.496 75.2869 125.516 
406.263 77.2168 125.664 402.714 77.423 126.658 403.198 77.6871 126.229 
403.823 77.9342 126.271 405.475 77.7538 125.844 403.202 69.7007 127.267 
403.722 70.2187 126.425 406.194 70.2833 126.478 406.447 69.9528 127.063 
402.043 77.0401 127.879 404.359 78.0906 126.917 404.699 78.1494 127.757 
405.201 77.9164 127.599 406.837 69.456 128.22 401.354 75.7465 128.168 
401.454 76.2198 128.414 406.697 75.9078 128.253 402.159 77.3499 128.543 
402.65 77.7662 128.343 403.09 77.9552 127.955 404.906 78.1734 128.254 
404.657 78.2346 128.373 405.061 78.0975 128.394 406.103 68.4086 128.572 
406.422 68.2514 129.058 401.83 68.8616 129.43 407.415 70.3184 128.841 
407.6 71.7009 128.438 401.898 77.2843 130.021 403.539 78.1738 129.098 
403.997 78.2619 129.104 402.212 66.9096 130.661 402.776 67.3027 129.841 
406.789 68.1965 129.824 407.432 70.0607 129.501 400.804 74.6433 130.366 
401.609 76.8812 130.865 402.213 77.6272 130.275 405.175 77.5986 129.748 
403.328 78.0401 130.016 404.463 78.1596 129.844 402.41 66.3952 130.994 
402.65 65.8722 131.367 404.546 65.8413 131.093 406.067 66.8889 130.693 
401.091 68.0359 131.327 400.956 75.4982 131.417 401.98 77.3013 131.312 
402.357 77.6225 131.272 402.6 77.7952 130.928 403.079 77.8753 130.901 
403.514 65.3126 131.703 405.169 65.1643 132.292 406.008 65.9479 132.07 
406.395 66.5896 131.939 407.15 70.6443 131.482 404.338 77.1262 131.882 
403.186 77.6132 131.895 401.867 64.5301 133.546 402.759 64.5605 132.838 
404.083 64.4546 132.782 403.695 63.9824 133.357 405.479 64.5102 133.683 
406.695 67.0085 133.333 401.855 76.6638 132.994 402.131 76.9616 132.882 
402.287 77.1919 132.557 403.782 77.0714 132.464 403.355 63.5079 133.961 
403.718 63.1038 134.458 404.802 63.5246 134.294 405.185 63.7221 134.439 
400.87 65.9466 133.553 405.963 65.2847 133.31 404.299 75.6996 133.743 
401.325 75.2708 134.572 402.552 76.7921 133.404 403.128 76.9629 133.127 
403.314 76.6844 133.435 402.798 77.0479 133.028 405.306 63.3195 135.311 
400.306 66.7371 134.224 400.908 74.1318 135.57 402.904 76.2311 134.169 
403.137 75.7608 134.679 401.181 62.0939 136.564 403.521 61.7797 136.067 
404.637 62.1353 136.09 399.804 70.7381 136.171 400.014 71.75 136.027 
401.131 74.2841 135.869 403.756 74.8519 135.298 401.873 75.1952 135.335 
403.458 75.3382 135.038 403.447 75.0667 135.382 402.689 75.4523 135.17 
402.204 60.9025 137.293 404.972 61.6993 137.119 405.42 62.3408 137.121 
405.812 63.2012 137.066 406.195 67.0662 136.981 400.936 73.4192 136.696 
401.469 73.9513 136.634 401.95 73.9257 136.904 403.354 74.3147 136.233 
402.909 74.9576 135.752 402.541 60.4169 137.777 403.237 60.4487 137.703 
404.562 60.9524 137.674 399.522 64.0465 137.872 406.09 64.1592 137.912 
400.585 71.8047 138.188 400.831 59.2269 139.804 401.834 59.5255 138.984 
401.495 59.0925 139.596 404.745 59.9424 139.076 404.793 59.6823 139.512 
401.481 60.0802 138.547 404.203 60.2275 138.289 405.066 60.3561 139.178 
399.753 60.8929 139.411 400.573 71.4167 138.743 401.673 72.644 138.181 
403.246 72.7759 137.662 400.083 59.0638 140.57 403.248 58.684 139.836 
405.817 62.336 139.767 405.911 64.3135 139.495 400.219 70.0365 139.767 
401.025 71.1765 139.325 402.385 57.657 141.149 403.752 58.0285 140.942 
404.022 57.823 141.495 404.614 58.4192 141.098 404.432 58.0999 141.404 
404.109 58.5302 140.427 404.889 58.8563 141.065 398.938 64.489 140.233 
400.293 68.7038 141.104 400.429 69.1074 140.863 402.848 69.6844 140.491 
401.42 70.7902 139.777 402.061 70.6722 139.888 400.219 57.6144 142.107 
401.177 56.9961 142.367 402.66 56.9725 142.215 403.118 57.1782 142.016 
405.086 59.0629 141.59 405.513 60.5915 141.397 398.95 64.8207 141.944 
400.946 68.6138 141.543 401.81 68.9707 141.362 403.557 56.9593 142.769 
399.843 57.5511 142.54 404.678 58.1359 142.204 403.086 67.0088 142.497 
401.758 67.7392 142.386 402.706 68.4641 141.559 398.665 57.8392 143.701 
398.578 58.6741 143.303 400.179 65.7034 143.938 400.704 66.5753 143.38 
401.369 67.2421 142.841 401.59 66.6027 143.431 398.675 55.0195 145.89 
402.654 55.778 144.547 397.812 58.9925 144.931 398.162 61.5772 144.367 
398.77 62.9675 145.73 399.406 64.0551 145.038 399.573 64.6245 144.513 
401.224 65.694 144.35 400.202 53.7532 146.584 402.619 54.9825 146.465 
403.954 57.6243 145.594 399.042 63.243 145.958 399.213 63.2314 146.297 
399.361 63.5838 145.839 397.912 53.4863 147.905 398.859 53.2152 147.474 
403.515 59.1627 146.851 397.594 60.2528 146.804 397.838 60.8814 148.073 
402.028 62.9346 146.54 401.709 63.788 146.01 402.583 54.7725 147.784 
397.865 60.7741 148.824 398.49 61.5906 148.306 399.457 62.431 147.847 
399.399 51.8476 149.271 400.686 52.0728 149.195 396.855 52.4728 149.907 
401.28 52.8505 148.721 401.332 52.5749 149.379 397.117 53.1752 149.038 
396.603 53.3431 149.577 402.475 55.0284 149.211 402.612 55.9468 149.209 
402.654 58.1274 148.871 402.164 60.1078 148.687 398.221 61.1677 148.887 
398.729 61.3327 149.314 400.033 61.9538 148.601 398.512 51.5273 149.93 
396.397 57.2874 149.56 402.29 57.2493 149.933 397.69 60.1139 150.197 
397.895 60.4538 149.917 397.284 50.7034 151.448 395.821 52.006 151.532 
396.105 54.2819 150.034 396.542 58.0883 150.652 396.895 58.7365 150.948 
401.267 58.6459 151.047 401.164 59.406 150.545 398.464 60.2305 151.135 
399.243 60.7818 150.473 399.797 60.8244 150.232 396.873 49.9931 152.436 
398.457 50.2797 151.815 399.156 50.4669 151.678 400.022 50.5307 152.307 
401.56 52.9284 151.31 400.567 58.8051 151.777 397.39 58.9212 152.328 
397.859 59.3008 152.276 396.33 49.1437 153.687 397.378 49.3698 153.079 
398.246 49.2558 153.345 400.211 50.4334 152.754 394.916 50.2724 153.736 
399.526 49.9785 153.126 400.977 51.7317 151.843 395.634 56.1209 152.682 
401.15 56.5848 152.539 397.181 58.573 152.817 399.985 50.2714 154.13 
400.412 50.8565 153.52 394.57 52.4178 153.86 401.107 53.9106 153.532 
396.163 57.1266 154.116 397.559 58.3204 153.752 399.229 58.5296 153.373 
394.117 48.2073 156.142 399.589 49.5288 155.039 399.444 56.8776 154.757 
399.723 56.2853 154.938 396.234 57.0739 154.513 396.512 57.1241 154.88 
396.812 57.0776 155.337 398.398 58.5043 153.76 396.028 47.0475 156.438 
393.41 49.0674 156.742 399.855 55.5807 155.252 398.472 57.498 154.842 
397.75 57.3866 155.109 394.444 46.5212 157.517 398.601 47.9518 156.513 
398.531 47.7775 157.223 395.007 54.4023 157.35 395.29 54.7684 157.475 
395.405 55.3859 156.477 396.298 55.9726 156.866 396.665 56.1902 156.852 
398.19 47.2576 157.954 395.639 54.8137 157.935 398.487 54.904 157.515 
396.04 55.1577 157.828 397.13 55.9537 157.302 391.928 45.7669 160.225 
393.006 45.5709 159.405 393.828 45.1079 159.387 394.85 44.9453 159.52 
395.708 45.183 159.424 395.7 54.4136 158.463 396.113 54.7378 158.388 
397.958 54.8285 158.004 393.02 44.5716 160.335 393.96 44.6419 159.958 
396.17 45.0488 160.095 396.859 45.6332 159.75 398.199 47.3559 159.321 
392.022 47.9426 160.176 398.44 47.9615 159.421 398.864 49.6543 159.143 
398.811 51.7908 158.99 397.968 53.1742 159.196 397.715 54.1494 158.693 
397.027 54.8909 158.388 391.365 43.874 161.845 390.878 44.0468 162.192 
392.108 43.2467 161.847 391.799 44.269 161.291 393.05 43.4941 161.369 
394.612 43.7504 161.131 395.255 43.8351 161.346 396.47 44.7481 161.523 
390.868 44.8224 161.927 391.527 46.2816 160.704 391.741 47.8491 161.009 
398.406 48.2842 159.8 397.863 52.2825 159.895 395.645 52.8319 160.284 
396.064 52.8639 160.329 395.662 43.7604 161.852 396.053 44.1059 161.853 
390.667 45.0471 162.227 391.118 46.8031 162.022 392.018 48.6658 161.931 
392.087 48.756 162.728 393.851 50.8013 161.657 394.713 51.1835 161.707 
397.073 51.9905 160.709 396.383 52.5618 160.605 390.106 41.8334 163.856 
396.075 43.8994 162.593 389.789 43.7511 163.599 396.495 45.0521 163.344 
390.474 45.6882 162.859 390.738 46.3178 162.827 391.363 47.6143 163.138 
392.805 49.4933 163.041 392.981 49.5097 163.384 396.653 50.4843 161.89 
[...]
POINT_DATA 3056
COLOR_SCALARS scalars 3
0.101961 0.65098 0.596078 0.101961 0.65098 0.596078 0.101961 0.65098 0.596078 
0.101961 0.65098 0.596078 0.101961 0.65098 0.596078 
0.101961 0.65098 0.596078 0.101961 0.65098 0.596078 
0.101961 0.65098 0.596078 0.101961 0.65098 0.596078 
0.101961 0.65098 0.596078 0.101961 0.65098 0.596078 
0.101961 0.65098 0.596078 0.101961 0.65098 0.596078 
0.101961 0.65098 0.596078 0.101961 0.65098 0.596078 
0.101961 0.65098 0.596078 0.101961 0.65098 0.596078 
0.101961 0.65098 0.596078 0.101961 0.65098 0.596078 
0.101961 0.65098 0.596078 0.101961 0.65098 0.596078 
0.101961 0.65098 0.596078 0.101961 0.65098 0.596078 
0.101961 0.65098 0.596078 0.101961 0.65098 0.596078 
0.101961 0.65098 0.596078 0.101961 0.65098 0.596078 
0.101961 0.65098 0.596078 0.101961 0.65098 0.596078 
0.101961 0.65098 0.596078 0.101961 0.65098 0.596078 
0.101961 0.65098 0.596078 0.101961 0.65098 0.596078 
0.101961 0.65098 0.596078 0.101961 0.65098 0.596078 
0.101961 0.65098 0.596078 0.101961 0.65098 0.596078 
0.101961 0.65098 0.596078 0.101961 0.65098 0.596078 
0.101961 0.65098 0.596078 0.101961 0.65098 0.596078 
0.101961 0.65098 0.596078 0.101961 0.65098 0.596078 
0.101961 0.65098 0.596078 0.101961 0.65098 0.596078 
0.101961 0.65098 0.596078 0.101961 0.65098 0.596078 
0.101961 0.65098 0.596078 0.101961 0.65098 0.596078 
0.101961 0.65098 0.596078 0.101961 0.65098 0.596078 
0.101961 0.65098 0.596078 0.101961 0.65098 0.596078 
0.101961 0.65098 0.596078 0.101961 0.65098 0.596078 
0.101961 0.65098 0.596078 0.101961 0.65098 0.596078 
0.101961 0.65098 0.596078 0.101961 0.65098 0.596078 
0.101961 0.65098 0.596078 0.101961 0.65098 0.596078 
0.101961 0.65098 0.596078 0.101961 0.65098 0.596078 
0.101961 0.65098 0.596078 0.101961 0.65098 0.596078 
0.101961 0.65098 0.596078 0.101961 0.65098 0.596078 
0.101961 0.65098 0.596078 0.101961 0.65098 0.596078 
0.101961 0.65098 0.596078 0.101961 0.65098 0.596078 
0.101961 0.65098 0.596078 0.101961 0.65098 0.596078 
0.101961 0.65098 0.596078 0.101961 0.65098 0.596078 
0.101961 0.65098 0.596078 0.101961 0.65098 0.596078 
0.101961 0.65098 0.596078 0.101961 0.65098 0.596078 
0.101961 0.65098 0.596078 0.101961 0.65098 0.596078 
0.101961 0.65098 0.596078 0.101961 0.65098 0.596078 
0.101961 0.65098 0.596078 0.101961 0.65098 0.596078 
0.101961 0.65098 0.596078 0.101961 0.65098 0.596078 
0.101961 0.65098 0.596078 0.101961 0.65098 0.596078 
0.101961 0.65098 0.596078 0.101961 0.65098 0.596078 
0.101961 0.65098 0.596078 0.101961 0.65098 0.596078 
0.101961 0.65098 0.596078 0.101961 0.65098 0.596078 
0.101961 0.65098 0.596078 0.101961 0.65098 0.596078 
0.101961 0.65098 0.596078 0.101961 0.65098 0.596078 
0.101961 0.65098 0.596078 0.101961 0.65098 0.596078 
0.101961 0.65098 0.596078 0.101961 0.65098 0.596078 
0.101961 0.65098 0.596078 0.101961 0.65098 0.596078 
0.101961 0.65098 0.596078 0.101961 0.65098 0.596078 
0.101961 0.65098 0.596078 0.101961 0.65098 0.596078 
0.101961 0.65098 0.596078 0.101961 0.65098 0.596078 
0.101961 0.65098 0.596078 0.101961 0.65098 0.596078 
0.101961 0.65098 0.596078 0.101961 0.65098 0.596078 
0.101961 0.65098 0.596078 0.101961 0.65098 0.596078 
0.101961 0.65098 0.596078 0.101961 0.65098 0.596078 
0.101961 0.65098 0.596078 0.101961 0.65098 0.596078 
0.101961 0.65098 0.596078 0.101961 0.65098 0.596078 
0.101961 0.65098 0.596078 0.101961 0.65098 0.596078 
0.101961 0.65098 0.596078 0.101961 0.65098 0.596078 
0.101961 0.65098 0.596078 0.101961 0.65098 0.596078 
0.101961 0.65098 0.596078 0.101961 0.65098 0.596078 
0.101961 0.65098 0.596078 0.101961 0.65098 0.596078 
0.101961 0.65098 0.596078 0.101961 0.65098 0.596078 
0.101961 0.65098 0.596078 0.101961 0.65098 0.596078 
0.101961 0.65098 0.596078 0.101961 0.65098 0.596078 
0.101961 0.65098 0.596078 0.101961 0.65098 0.596078 
0.101961 0.65098 0.596078 0.101961 0.65098 0.596078 
0.101961 0.65098 0.596078 0.101961 0.65098 0.596078 
0.101961 0.65098 0.596078 0.101961 0.65098 0.596078 
0.101961 0.65098 0.596078 0.101961 0.65098 0.596078 
0.101961 0.65098 0.596078 0.101961 0.65098 0.596078 
0.101961 0.65098 0.596078 0.101961 0.65098 0.596078 
0.101961 0.65098 0.596078 0.101961 0.65098 0.596078 
0.101961 0.65098 0.596078 0.101961 0.65098 0.596078 
0.101961 0.65098 0.596078 0.101961 0.65098 0.596078 
0.101961 0.65098 0.596078 0.101961 0.65098 0.596078 
0.101961 0.65098 0.596078 0.101961 0.65098 0.596078 
0.101961 0.65098 0.596078 0.101961 0.65098 0.596078 
0.101961 0.65098 0.596078 0.101961 0.65098 0.596078 
0.101961 0.65098 0.596078 0.101961 0.65098 0.596078 
0.101961 0.65098 0.596078 0.101961 0.65098 0.596078 
0.101961 0.65098 0.596078 0.101961 0.65098 0.596078 
0.101961 0.65098 0.596078 0.101961 0.65098 0.596078 
0.101961 0.65098 0.596078 0.101961 0.65098 0.596078 
0.101961 0.65098 0.596078 0.101961 0.65098 0.596078 
0.101961 0.65098 0.596078 0.101961 0.65098 0.596078 
0.101961 0.65098 0.596078 0.101961 0.65098 0.596078 
0.101961 0.65098 0.596078 0.101961 0.65098 0.596078 
0.101961 0.65098 0.596078 0.101961 0.65098 0.596078 
0.101961 0.65098 0.596078 0.101961 0.65098 0.596078 
0.101961 0.65098 0.596078 0.101961 0.65098 0.596078 
0.101961 0.65098 0.596078 0.101961 0.65098 0.596078 
0.101961 0.65098 0.596078 0.101961 0.65098 0.596078 
0.101961 0.65098 0.596078 0.101961 0.65098 0.596078 
0.101961 0.65098 0.596078 0.101961 0.65098 0.596078 
0.101961 0.65098 0.596078 0.101961 0.65098 0.596078 
0.101961 0.65098 0.596078 0.101961 0.65098 0.596078 
0.101961 0.65098 0.596078 0.101961 0.65098 0.596078 
0.101961 0.65098 0.596078 0.101961 0.65098 0.596078 
0.101961 0.65098 0.596078 0.101961 0.65098 0.596078 
0.101961 0.65098 0.596078 0.101961 0.65098 0.596078 
0.101961 0.65098 0.596078 0.101961 0.65098 0.596078 
0.101961 0.65098 0.596078 0.101961 0.65098 0.596078 
0.101961 0.65098 0.596078 0.101961 0.65098 0.596078 
0.101961 0.65098 0.596078 0.101961 0.65098 0.596078 
0.101961 0.65098 0.596078 0.101961 0.65098 0.596078 
0.101961 0.65098 0.596078 0.101961 0.65098 0.596078 
0.101961 0.65098 0.596078 0.101961 0.65098 0.596078 
0.101961 0.65098 0.596078 0.101961 0.65098 0.596078 
0.101961 0.65098 0.596078 0.101961 0.65098 0.596078 
0.101961 0.65098 0.596078 0.101961 0.65098 0.596078 
0.101961 0.65098 0.596078 0.101961 0.65098 0.596078 
0.101961 0.65098 0.596078 0.101961 0.65098 0.596078 
0.101961 0.65098 0.596078 0.101961 0.65098 0.596078 
0.101961 0.65098 0.596078 0.101961 0.65098 0.596078 
0.101961 0.65098 0.596078 0.101961 0.65098 0.596078 
0.101961 0.65098 0.596078 0.101961 0.65098 0.596078 
0.101961 0.65098 0.596078 0.101961 0.65098 0.596078 
0.101961 0.65098 0.596078 0.101961 0.65098 0.596078 
0.101961 0.65098 0.596078 0.101961 0.65098 0.596078 
0.101961 0.65098 0.596078 0.101961 0.65098 0.596078 
0.101961 0.65098 0.596078 0.101961 0.65098 0.596078 
0.101961 0.65098 0.596078 0.101961 0.65098 0.596078 
0.101961 0.65098 0.596078 0.101961 0.65098 0.596078 
0.101961 0.65098 0.596078 0.101961 0.65098 0.596078 
0.101961 0.65098 0.596078 0.101961 0.65098 0.596078 
0.101961 0.65098 0.596078 0.101961 0.65098 0.596078 
0.101961 0.65098 0.596078 0.101961 0.65098 0.596078 
0.101961 0.65098 0.596078 0.101961 0.65098 0.596078 
0.101961 0.65098 0.596078 0.101961 0.65098 0.596078 
0.101961 0.65098 0.596078 0.101961 0.65098 0.596078 
0.101961 0.65098 0.596078 0.101961 0.65098 0.596078 
0.101961 0.65098 0.596078 0.101961 0.65098 0.596078 
0.101961 0.65098 0.596078 0.101961 0.65098 0.596078 
0.101961 0.65098 0.596078 0.101961 0.65098 0.596078 
0.101961 0.65098 0.596078 0.101961 0.65098 0.596078 
0.101961 0.65098 0.596078 0.101961 0.65098 0.596078 
0.101961 0.65098 0.596078 0.101961 0.65098 0.596078 
0.101961 0.65098 0.596078 0.101961 0.65098 0.596078 
0.101961 0.65098 0.596078 0.101961 0.65098 0.596078 
0.101961 0.65098 0.596078 0.101961 0.65098 0.596078 
0.101961 0.65098 0.596078 0.101961 0.65098 0.596078 
0.101961 0.65098 0.596078 0.101961 0.65098 0.596078 
0.101961 0.65098 0.596078 0.101961 0.65098 0.596078 
0.101961 0.65098 0.596078 0.101961 0.65098 0.596078 
0.101961 0.65098 0.596078 0.101961 0.65098 0.596078 
0.101961 0.65098 0.596078 0.101961 0.65098 0.596078 
0.101961 0.65098 0.596078 0.101961 0.65098 0.596078 
0.101961 0.65098 0.596078 0.101961 0.65098 0.596078 
0.101961 0.65098 0.596078 0.101961 0.65098 0.596078 
0.101961 0.65098 0.596078 0.101961 0.65098 0.596078 
0.101961 0.65098 0.596078 0.101961 0.65098 0.596078 
0.101961 0.65098 0.596078 0.101961 0.65098 0.596078 
0.101961 0.65098 0.596078 0.101961 0.65098 0.596078 
0.101961 0.65098 0.596078 0.101961 0.65098 0.596078 
0.101961 0.65098 0.596078 0.101961 0.65098 0.596078 
0.101961 0.65098 0.596078 0.101961 0.65098 0.596078 
0.101961 0.65098 0.596078 0.101961 0.65098 0.596078 
0.101961 0.65098 0.596078 0.101961 0.65098 0.596078 
0.101961 0.65098 0.596078 0.101961 0.65098 0.596078 
0.101961 0.65098 0.596078 0.101961 0.65098 0.596078 
0.101961 0.65098 0.596078 0.101961 0.65098 0.596078 
0.101961 0.65098 0.596078 0.101961 0.65098 0.596078 
0.101961 0.65098 0.596078 0.101961 0.65098 0.596078 
0.101961 0.65098 0.596078 0.101961 0.65098 0.596078 
0.101961 0.65098 0.596078 0.101961 0.65098 0.596078 
0.101961 0.65098 0.596078 0.101961 0.65098 0.596078 
0.101961 0.65098 0.596078 0.101961 0.65098 0.596078 
0.101961 0.65098 0.596078 0.101961 0.65098 0.596078 
0.101961 0.65098 0.596078 0.101961 0.65098 0.596078 
0.101961 0.65098 0.596078 0.101961 0.65098 0.596078 
0.101961 0.65098 0.596078 0.101961 0.65098 0.596078 
0.101961 0.65098 0.596078 0.101961 0.65098 0.596078 
0.101961 0.65098 0.596078 0.101961 0.65098 0.596078 
0.101961 0.65098 0.596078 0.101961 0.65098 0.596078 
0.101961 0.65098 0.596078 0.101961 0.65098 0.596078 
0.101961 0.65098 0.596078 0.101961 0.65098 0.596078 
0.101961 0.65098 0.596078 0.101961 0.65098 0.596078 
0.101961 0.65098 0.596078 0.101961 0.65098 0.596078 
0.101961 0.65098 0.596078 0.101961 0.65098 0.596078 
0.101961 0.65098 0.596078 0.101961 0.65098 0.596078 
0.101961 0.65098 0.596078 0.101961 0.65098 0.596078 
0.101961 0.65098 0.596078 0.101961 0.65098 0.596078 
0.101961 0.65098 0.596078 0.101961 0.65098 0.596078 
0.101961 0.65098 0.596078 0.101961 0.65098 0.596078 
0.101961 0.65098 0.596078 0.101961 0.65098 0.596078 
0.101961 0.65098 0.596078 0.101961 0.65098 0.596078 
0.101961 0.65098 0.596078 0.101961 0.65098 0.596078 
0.101961 0.65098 0.596078 0.101961 0.65098 0.596078 
0.101961 0.65098 0.596078 0.101961 0.65098 0.596078 
0.101961 0.65098 0.596078 0.101961 0.65098 0.596078 
0.101961 0.65098 0.596078 0.101961 0.65098 0.596078 
0.101961 0.65098 0.596078 0.101961 0.65098 0.596078 
0.101961 0.65098 0.596078 0.101961 0.65098 0.596078 
0.101961 0.65098 0.596078 0.101961 0.65098 0.596078 
0.101961 0.65098 0.596078 0.101961 0.65098 0.596078 
0.101961 0.65098 0.596078 0.101961 0.65098 0.596078 
0.101961 0.65098 0.596078 0.101961 0.65098 0.596078 
0.101961 0.65098 0.596078 0.101961 0.65098 0.596078 
0.101961 0.65098 0.596078 0.101961 0.65098 0.596078 
0.101961 0.65098 0.596078 0.101961 0.65098 0.596078 
0.101961 0.65098 0.596078 0.101961 0.65098 0.596078 
0.101961 0.65098 0.596078 0.101961 0.65098 0.596078 
0.101961 0.65098 0.596078 0.101961 0.65098 0.596078 
0.101961 0.65098 0.596078 0.101961 0.65098 0.596078 
0.101961 0.65098 0.596078 0.101961 0.65098 0.596078 
0.101961 0.65098 0.596078 0.101961 0.65098 0.596078 
0.101961 0.65098 0.596078 0.101961 0.65098 0.596078 
0.101961 0.65098 0.596078 0.101961 0.65098 0.596078 
0.101961 0.65098 0.596078 0.101961 0.65098 0.596078 
0.101961 0.65098 0.596078 0.101961 0.65098 0.596078 
0.101961 0.65098 0.596078 0.101961 0.65098 0.596078 
0.101961 0.65098 0.596078 0.101961 0.65098 0.596078 
0.101961 0.65098 0.596078 0.101961 0.65098 0.596078 
0.101961 0.65098 0.596078 0.101961 0.65098 0.596078 
0.101961 0.65098 0.596078 0.101961 0.65098 0.596078 
0.101961 0.65098 0.596078 0.101961 0.65098 0.596078 
0.101961 0.65098 0.596078 0.101961 0.65098 0.596078 
0.101961 0.65098 0.596078 0.101961 0.65098 0.596078 
0.101961 0.65098 0.596078 0.101961 0.65098 0.596078 
0.101961 0.65098 0.596078 0.101961 0.65098 0.596078 
0.101961 0.65098 0.596078 0.101961 0.65098 0.596078 
0.101961 0.65098 0.596078 0.101961 0.65098 0.596078 
0.101961 0.65098 0.596078 0.101961 0.65098 0.596078 
0.101961 0.65098 0.596078 0.101961 0.65098 0.596078 
0.101961 0.65098 0.596078 0.101961 0.65098 0.596078 
0.101961 0.65098 0.596078 0.101961 0.65098 0.596078 
0.101961 0.65098 0.596078 0.101961 0.65098 0.596078 
0.101961 0.65098 0.596078 0.101961 0.65098 0.596078 
0.101961 0.65098 0.596078 0.101961 0.65098 0.596078 
0.101961 0.65098 0.596078 0.101961 0.65098 0.596078 
0.101961 0.65098 0.596078 0.101961 0.65098 0.596078 
0.101961 0.65098 0.596078 0.101961 0.65098 0.596078 
0.101961 0.65098 0.596078 0.101961 0.65098 0.596078 
0.101961 0.65098 0.596078 0.101961 0.65098 0.596078 
0.101961 0.65098 0.596078 0.101961 0.65098 0.596078 
0.101961 0.65098 0.596078 0.101961 0.65098 0.596078 
0.101961 0.65098 0.596078 0.101961 0.65098 0.596078 
0.101961 0.65098 0.596078 0.101961 0.65098 0.596078 
0.101961 0.65098 0.596078 0.101961 0.65098 0.596078 
0.101961 0.65098 0.596078 0.101961 0.65098 0.596078 
0.101961 0.65098 0.596078 0.101961 0.65098 0.596078 
0.101961 0.65098 0.596078 0.101961 0.65098 0.596078 
0.101961 0.65098 0.596078 0.101961 0.65098 0.596078 
0.101961 0.65098 0.596078 0.101961 0.65098 0.596078 
0.101961 0.65098 0.596078 0.101961 0.65098 0.596078 
0.101961 0.65098 0.596078 0.101961 0.65098 0.596078 
0.101961 0.65098 0.596078 0.101961 0.65098 0.596078 
0.101961 0.65098 0.596078 0.101961 0.65098 0.596078 
0.101961 0.65098 0.596078 0.101961 0.65098 0.596078 
0.101961 0.65098 0.596078 0.101961 0.65098 0.596078 
0.101961 0.65098 0.596078 0.101961 0.65098 0.596078 
0.101961 0.65098 0.596078 0.101961 0.65098 0.596078 
0.101961 0.65098 0.596078 0.101961 0.65098 0.596078 
0.101961 0.65098 0.596078 0.101961 0.65098 0.596078 
0.101961 0.65098 0.596078 0.101961 0.65098 0.596078 
0.101961 0.65098 0.596078 0.101961 0.65098 0.596078 
0.101961 0.65098 0.596078 0.101961 0.65098 0.596078 
0.101961 0.65098 0.596078 0.101961 0.65098 0.596078 
0.101961 0.65098 0.596078 0.101961 0.65098 0.596078 
0.101961 0.65098 0.596078 0.101961 0.65098 0.596078 
0.101961 0.65098 0.596078 0.101961 0.65098 0.596078 
0.101961 0.65098 0.596078 0.101961 0.65098 0.596078 
0.101961 0.65098 0.596078 0.101961 0.65098 0.596078 
0.101961 0.65098 0.596078 0.101961 0.65098 0.596078 
0.101961 0.65098 0.596078 0.101961 0.65098 0.596078 
0.101961 0.65098 0.596078 0.101961 0.65098 0.596078 
0.101961 0.65098 0.596078 0.101961 0.65098 0.596078 
0.101961 0.65098 0.596078 0.101961 0.65098 0.596078 
0.101961 0.65098 0.596078 0.101961 0.65098 0.596078 
0.101961 0.65098 0.596078 0.101961 0.65098 0.596078 
0.101961 0.65098 0.596078 0.101961 0.65098 0.596078 
0.101961 0.65098 0.596078 0.101961 0.65098 0.596078 
0.101961 0.65098 0.596078 0.101961 0.65098 0.596078 
0.101961 0.65098 0.596078 0.101961 0.65098 0.596078 
0.101961 0.65098 0.596078 0.101961 0.65098 0.596078 
0.101961 0.65098 0.596078 0.101961 0.65098 0.596078 
0.101961 0.65098 0.596078 0.101961 0.65098 0.596078 
0.101961 0.65098 0.596078 0.101961 0.65098 0.596078 
0.101961 0.65098 0.596078 0.101961 0.65098 0.596078 
0.101961 0.65098 0.596078 0.101961 0.65098 0.596078 
0.101961 0.65098 0.596078 0.101961 0.65098 0.596078 
0.101961 0.65098 0.596078 0.101961 0.65098 0.596078 
0.101961 0.65098 0.596078 0.101961 0.65098 0.596078 
0.101961 0.65098 0.596078 0.101961 0.65098 0.596078 
0.101961 0.65098 0.596078 0.101961 0.65098 0.596078 
0.101961 0.65098 0.596078 0.101961 0.65098 0.596078 
0.101961 0.65098 0.596078 0.101961 0.65098 0.596078 
0.101961 0.65098 0.596078 0.101961 0.65098 0.596078 
0.101961 0.65098 0.596078 0.101961 0.65098 0.596078 
0.101961 0.65098 0.596078 0.101961 0.65098 0.596078 
0.101961 0.65098 0.596078 0.101961 0.65098 0.596078 
0.101961 0.65098 0.596078 0.101961 0.65098 0.596078 
0.101961 0.65098 0.596078 0.101961 0.65098 0.596078 
0.101961 0.65098 0.596078 0.101961 0.65098 0.596078 
0.101961 0.65098 0.596078 0.101961 0.65098 0.596078 
0.101961 0.65098 0.596078 0.101961 0.65098 0.596078 
0.101961 0.65098 0.596078 0.101961 0.65098 0.596078 
0.101961 0.65098 0.596078 0.101961 0.65098 0.596078 
0.101961 0.65098 0.596078 0.101961 0.65098 0.596078 
0.101961 0.65098 0.596078 0.101961 0.65098 0.596078 
0.101961 0.65098 0.596078 0.101961 0.65098 0.596078 
0.101961 0.65098 0.596078 0.101961 0.65098 0.596078 
0.101961 0.65098 0.596078 0.101961 0.65098 0.596078 
0.101961 0.65098 0.596078 0.101961 0.65098 0.596078 
0.101961 0.65098 0.596078 0.101961 0.65098 0.596078 
0.101961 0.65098 0.596078 0.101961 0.65098 0.596078 
0.101961 0.65098 0.596078 0.101961 0.65098 0.596078 
0.101961 0.65098 0.596078 0.101961 0.65098 0.596078 
0.101961 0.65098 0.596078 0.101961 0.65098 0.596078 
0.101961 0.65098 0.596078 0.101961 0.65098 0.596078 
0.101961 0.65098 0.596078 0.101961 0.65098 0.596078 
0.101961 0.65098 0.596078 0.101961 0.65098 0.596078 
0.101961 0.65098 0.596078 0.101961 0.65098 0.596078 
0.101961 0.65098 0.596078 0.101961 0.65098 0.596078 
0.101961 0.65098 0.596078 0.101961 0.65098 0.596078 
0.101961 0.65098 0.596078 0.101961 0.65098 0.596078 
0.101961 0.65098 0.596078 0.101961 0.65098 0.596078 
0.101961 0.65098 0.596078 0.101961 0.65098 0.596078 
0.101961 0.65098 0.596078 0.101961 0.65098 0.596078 
0.101961 0.65098 0.596078 0.101961 0.65098 0.596078 
0.101961 0.65098 0.596078 0.101961 0.65098 0.596078 
0.101961 0.65098 0.596078 0.101961 0.65098 0.596078 
0.101961 0.65098 0.596078 0.101961 0.65098 0.596078 
0.101961 0.65098 0.596078 0.101961 0.65098 0.596078 
0.101961 0.65098 0.596078 0.101961 0.65098 0.596078 
0.101961 0.65098 0.596078 0.101961 0.65098 0.596078 
0.101961 0.65098 0.596078 0.101961 0.65098 0.596078 
0.101961 0.65098 0.596078 0.101961 0.65098 0.596078 
0.101961 0.65098 0.596078 0.101961 0.65098 0.596078 
0.101961 0.65098 0.596078 0.101961 0.65098 0.596078 
0.101961 0.65098 0.596078 0.101961 0.65098 0.596078 
0.101961 0.65098 0.596078 0.101961 0.65098 0.596078 
0.101961 0.65098 0.596078 0.101961 0.65098 0.596078 
0.101961 0.65098 0.596078 0.101961 0.65098 0.596078 
0.101961 0.65098 0.596078 0.101961 0.65098 0.596078 
0.101961 0.65098 0.596078 0.101961 0.65098 0.596078 
0.101961 0.65098 0.596078 0.101961 0.65098 0.596078 
0.101961 0.65098 0.596078 0.101961 0.65098 0.596078 
0.101961 0.65098 0.596078 0.101961 0.65098 0.596078 
0.101961 0.65098 0.596078 0.101961 0.65098 0.596078 
0.101961 0.65098 0.596078 0.101961 0.65098 0.596078 
0.101961 0.65098 0.596078 0.101961 0.65098 0.596078 
0.101961 0.65098 0.596078 0.101961 0.65098 0.596078 
0.101961 0.65098 0.596078 0.101961 0.65098 0.596078 
0.101961 0.65098 0.596078 0.101961 0.65098 0.596078 
0.101961 0.65098 0.596078 0.101961 0.65098 0.596078 
0.101961 0.65098 0.596078 0.101961 0.65098 0.596078 
0.101961 0.65098 0.596078 0.101961 0.65098 0.596078 
0.101961 0.65098 0.596078 0.101961 0.65098 0.596078 
0.101961 0.65098 0.596078 0.101961 0.65098 0.596078 
0.101961 0.65098 0.596078 0.101961 0.65098 0.596078 
0.101961 0.65098 0.596078 0.101961 0.65098 0.596078 
0.101961 0.65098 0.596078 0.101961 0.65098 0.596078 
0.101961 0.65098 0.596078 0.101961 0.65098 0.596078 
0.101961 0.65098 0.596078 0.101961 0.65098 0.596078 
0.101961 0.65098 0.596078 0.101961 0.65098 0.596078 
0.101961 0.65098 0.596078 0.101961 0.65098 0.596078 
0.101961 0.65098 0.596078 0.101961 0.65098 0.596078 
0.101961 0.65098 0.596078 0.101961 0.65098 0.596078 
0.101961 0.65098 0.596078 0.101961 0.65098 0.596078 
0.101961 0.65098 0.596078 0.101961 0.65098 0.596078 
0.101961 0.65098 0.596078 0.101961 0.65098 0.596078 
0.101961 0.65098 0.596078 0.101961 0.65098 0.596078 
0.101961 0.65098 0.596078 0.101961 0.65098 0.596078 
0.101961 0.65098 0.596078 0.101961 0.65098 0.596078 
0.101961 0.65098 0.596078 0.101961 0.65098 0.596078 
0.101961 0.65098 0.596078 0.101961 0.65098 0.596078 
0.101961 0.65098 0.596078 0.101961 0.65098 0.596078 
0.101961 0.65098 0.596078 0.101961 0.65098 0.596078 
0.101961 0.65098 0.596078 0.101961 0.65098 0.596078 
0.101961 0.65098 0.596078 0.101961 0.65098 0.596078 