# vtk DataFile Version 4.2
vtk output
ASCII
DATASET POLYDATA
POINTS 3461 float
395.805 89.2028 121.032 395.695 89.0873 121.108 395.687 89.1794 121.069 
395.989 89.2359 121.063 396.166 89.169 121.189 395.787 89.271 121.07 
395.971 89.3394 121.069 395.605 89.0151 121.241 395.62 89.1117 121.139 
395.753 88.9226 121.335 396.601 89.2864 121.349 397.177 89.6638 121.514 
397.494 89.5565 121.641 396.189 89.5947 121.428 397.065 89.9256 121.566 
397.564 90.0748 121.709 398.03 90.2388 121.906 397.438 90.2342 121.812 
395.094 88.2929 122.044 395.03 88.2037 122.171 394.997 88.2761 122.08 
395.327 88.4487 121.908 395.73 88.6036 121.691 395.102 88.3779 122.034 
395.281 88.5744 121.965 395.553 88.8905 121.605 397.332 88.9972 121.877 
395.815 89.2853 121.704 397.761 89.5942 121.778 397.609 89.3578 121.8 
396.519 89.8298 121.92 397.647 90.5284 122.228 398.242 90.7756 122.26 
398.642 90.9477 122.399 398.987 90.7787 122.461 399.262 90.9867 122.703 
395.01 88.186 122.284 394.968 88.2384 122.156 395.136 88.0803 122.455 
395.428 87.9435 122.557 395.004 88.3047 122.127 396.849 88.3047 122.267 
398.079 90.9056 122.754 398.446 91.1093 122.748 399.775 91.1464 123.228 
398.855 91.3018 122.973 394.742 86.9991 124.107 395.125 87.1848 123.679 
395.64 87.4071 123.187 396.096 86.7486 123.738 395.01 88.2579 122.244 
394.966 87.3247 123.871 395.114 88.1854 122.522 395.225 87.8075 123.177 
398.793 89.2597 122.763 399.572 90.6049 122.973 398.09 90.9447 123.284 
399.261 91.651 123.71 400.031 91.886 123.816 400.816 92.6988 124.65 
393.975 85.8862 125.15 393.895 85.8872 125.226 394.278 86.0607 124.938 
394.862 86.2425 124.485 394.25 86.2844 125.097 394.614 86.6659 124.61 
397.621 86.5722 124.216 395.755 88.6413 123.696 399.755 89.8779 123.357 
400.57 92.852 125.259 401.691 93.0015 125.054 402.029 92.9299 125.223 
401.844 93.5862 125.617 393.408 84.988 125.883 393.954 85.182 125.469 
393.193 85.1072 126.194 393.709 85.5624 125.698 394.772 87.0291 125.297 
401.862 92.0711 124.929 401.908 92.5382 125.01 402.354 93.9082 126.042 
401.844 93.8277 125.971 394.088 83.2542 126.418 393.082 84.3162 126.334 
392.616 84.2943 126.951 392.468 84.6621 126.432 392.462 84.6843 126.471 
392.438 84.7011 126.411 392.664 84.594 126.443 392.522 84.5934 126.563 
392.517 84.7041 126.401 392.745 84.8063 126.4 393.509 85.493 126.472 
400.778 93.2135 126.429 402.075 94.2757 126.566 402.752 94.7085 126.734 
403.239 94.659 126.789 402.796 95.5599 127.53 403.046 95.8273 127.471 
403.03 95.9985 127.707 403.175 96.0766 127.577 392.973 82.5699 127.302 
391.829 82.8781 128.095 391.848 83.1259 128.031 397.005 82.6202 126.987 
392.402 83.5064 127.374 392.511 84.7264 126.44 391.988 83.5553 128.102 
392.295 83.8764 127.804 392.628 84.7043 126.636 392.838 84.7642 127.121 
393.004 84.8585 127.636 403.468 88.9339 127.293 403.714 93.7983 126.845 
404.2 92.9925 127.285 404.317 93.7494 127.5 404.436 93.6088 127.617 
402.009 94.4927 127.115 404.313 93.9872 127.698 404.437 93.6814 127.714 
403.552 95.4579 127.381 403.996 94.9502 127.731 403.616 95.7763 127.636 
403.191 96.2347 127.703 403.175 96.2301 127.872 403.314 96.2039 127.666 
403.259 96.3382 127.768 392.121 81.889 128.331 391.674 82.1801 128.846 
391.956 83.4952 128.701 400.544 85.3692 126.733 404.511 91.3697 127.859 
404.793 91.6933 128.277 404.481 93.4055 128.09 404.136 94.7061 127.929 
404.17 94.5634 128.23 403.178 96.0049 128.181 403.583 95.9819 127.785 
403.46 96.1582 127.865 403.6 95.9786 127.922 403.273 96.2588 127.984 
403.334 96.3369 127.804 403.278 96.3569 127.859 392.195 80.0154 129.339 
395.174 79.5098 129.195 391.229 80.6951 129.67 390.953 80.4134 130.074 
390.743 80.553 130.413 391.363 81.9978 129.803 391.667 82.7115 129.352 
392.695 84.1059 129.49 404.5 93.0958 129.217 404.014 94.6139 128.7 
403.141 95.5789 128.629 403.642 95.6064 128.417 403.386 96.0816 128.128 
403.348 96.2997 127.919 390.983 79.4602 130.526 390.624 80.9443 131.153 
400.702 92.7199 129.712 401.697 93.5662 130.419 402.183 94.1465 129.724 
403.438 95.2242 128.993 403.392 95.5379 128.698 397.809 78.1169 130.898 
390.335 79.1489 131.761 401.829 79.6953 131.154 397.318 88.2062 130.839 
404.341 92.2502 130.571 403.599 94.0816 129.887 402.207 93.688 130.899 
403.177 94.5446 129.663 390.714 78.4744 131.633 390.887 77.9684 131.953 
403.053 79.7268 132.023 390.418 80.4987 132.582 390.601 80.8902 132.631 
405.47 83.051 132.014 405.593 83.1486 132.112 403.893 92.3928 131.163 
402.815 93.3916 131.223 402.034 93.5624 131.57 401.898 93.4179 131.847 
402.257 93.4476 131.695 402.019 93.5958 131.787 402.025 93.5642 131.865 
402.091 93.6002 131.756 402.056 93.6235 131.825 393.808 75.6324 133.101 
389.688 77.9981 133.743 389.668 78.3589 133.522 389.69 78.5192 133.473 
390.949 81.1605 133.186 405.681 81.3561 133.572 391.785 82.0196 133.202 
405.572 81.9263 132.933 405.692 81.8343 133.155 405.555 82.7759 132.652 
405.683 82.0464 133.153 405.406 85.1333 133.309 405.128 88.0737 132.06 
401.439 92.623 132.637 402.066 93.4047 131.958 402.098 93.5674 131.834 
391.219 75.6432 133.784 390.627 75.6727 134.057 390.197 75.8996 134.207 
389.344 77.1253 134.747 389.456 77.5371 134.333 389.329 77.4606 134.569 
389.347 77.6133 134.526 389.439 77.8875 134.534 389.65 78.5042 134.154 
390.156 79.7455 133.781 405.615 80.551 134.276 405.718 80.98 133.901 
405.796 81.0973 133.957 405.769 81.282 133.957 404.332 88.3727 133.695 
398.885 89.6222 133.818 403.486 89.9446 133.854 400.389 91.1611 133.752 
402.349 91.7271 133.4 401.474 92.4402 133.067 401.697 92.4803 132.985 
401.404 92.3267 133.223 388.903 75.2221 135.64 389.681 75.8404 134.71 
389.095 76.8928 135.435 389.279 77.5819 135.331 405.432 79.6972 135.086 
405.68 80.2466 134.741 405.753 81.0022 134.128 405.675 81.155 134.551 
405.002 84.4946 135.071 400.484 90.6994 134.76 401.807 91.1443 134.313 
401.211 91.456 134.101 401.478 91.8163 133.734 401.832 92.0721 133.389 
388.675 73.2502 136.243 389.567 72.7644 136.111 404.141 77.7527 135.55 
405.315 79.2228 135.61 405.462 79.3962 135.633 405.542 80.2883 135.401 
405.352 82.6395 135.53 402.025 90.1447 135.014 401.637 90.2474 135.215 
401.122 90.9381 134.652 400.325 90.2076 135.649 387.146 72.1629 137.411 
388.676 76.6415 136.639 404.048 77.0163 136.52 404.792 78.2312 135.977 
405.106 78.7157 136.071 405.332 79.3926 136.246 385.873 70.3207 138.379 
386.753 69.722 138.235 387.604 69.5876 138.086 390.617 69.4176 137.876 
396.73 71.1086 137.704 385.869 72.7947 138.794 404.691 77.5129 137.112 
402.414 85.7309 137.967 388.704 67.6856 139.066 392.737 67.8453 139.248 
383.719 68.8197 139.669 383.534 69.2824 139.759 384.233 68.6238 139.462 
383.024 69.8899 140.35 383.185 70.402 140.44 384.65 71.2452 139.38 
384.239 71.5224 140.021 404.854 77.5642 138.047 405.005 78.2077 138.062 
405.005 79.0152 138.406 400.992 87.0292 138.448 400.22 87.639 138.504 
394.312 67.5816 139.877 382.464 69.3863 140.836 383.981 71.588 140.481 
404.556 75.754 139.877 396.749 85.6531 140.108 399.881 86.3345 139.905 
397.736 86.6157 139.721 399.437 87.5893 138.882 398.692 87.6517 138.817 
384.432 65.3811 141.085 381.444 65.8863 141.727 380.742 66.5241 142.122 
380.868 67.1399 142.024 380.811 67.5856 142.168 400.407 69.4602 141.201 
382.832 70.5183 141.235 382.936 70.8083 141.692 383.959 71.7496 140.908 
404.427 74.7167 140.748 404.633 75.3295 140.475 404.47 78.168 140.115 
396.933 85.6094 140.68 399.196 86.0711 140.529 397.566 86.2814 140.39 
379.498 65.8587 143.195 404.202 73.5681 141.795 404.499 74.5146 141.149 
404.392 74.2635 141.241 404.5 74.4618 141.328 404.506 75.2862 141.207 
400.489 83.6465 141.472 398.632 85.0639 141.643 397.026 85.3376 141.231 
397.845 85.9174 141.09 397.751 86.1063 140.828 378.742 63.9083 143.868 
378.161 64.3097 144.265 379.202 66.1367 143.704 380.365 67.7521 143.141 
402.646 70.0981 142.596 404.439 74.4499 141.642 404.296 74.575 142.657 
403.096 77.5078 143.055 397.614 84.4383 142.493 396.588 84.1823 142.752 
377.553 63.4427 145.078 378.753 63.4092 144.13 377.787 63.9069 144.639 
377.582 63.9243 144.772 377.723 64.4481 144.874 378.796 66.2495 144.498 
400.335 66.9879 143.622 380.115 67.8822 143.982 404.285 72.8513 143.341 
403.78 75.5271 143.357 398.738 82.5648 143.578 397.457 83.6477 143.323 
396.264 83.3773 143.47 396.876 83.8412 143.237 397.127 83.6648 143.385 
380.487 61.3674 145.016 377.087 63.3807 145.728 377.239 63.9863 145.556 
402.278 68.214 144.314 403.797 70.5887 144.986 404.037 71.834 144.59 
403.411 73.9485 145.118 376.409 63.2621 146.853 402.189 67.0935 145.593 
402.783 68.0085 145.583 403.639 69.8223 145.761 403.841 70.3974 145.486 
403.891 70.5472 145.358 403.89 70.5408 145.51 403.847 71.4098 145.309 
393.965 80.705 145.229 395.851 82.0115 145.028 376.788 60.3711 147.224 
375.493 61.0808 148.034 375.403 61.8375 148.136 397.842 63.174 146.496 
376.16 63.7614 147.55 402.704 66.6909 147.24 377.931 66.376 146.901 
402.984 68.0125 146.165 403.637 69.5115 146.179 403.506 69.2115 146.252 
403.611 69.4268 146.364 403.796 70.5557 145.744 403.598 70.9781 146.262 
403.365 70.8116 146.942 395.508 81.0387 145.846 394.39 80.3277 146.703 
375.149 60.3522 148.483 400.975 64.4435 147.813 403.025 67.2106 147.626 
403.152 67.7015 147.696 403.515 69.3963 146.685 403.338 69.0866 147.408 
378.947 57.3001 148.923 374.713 58.7508 149.169 373.316 59.8161 149.99 
375.162 62.8861 148.83 376.09 64.6552 148.678 402.824 66.5003 149.17 
400.789 72.8735 149.128 391.454 78.156 148.663 376.909 57.1622 149.329 
402.633 65.844 150.032 402.9 66.4936 149.554 402.893 66.506 149.712 
402.999 67.2676 148.839 402.845 67.3657 149.52 382.556 70.9375 149.622 
391.543 77.9012 149.849 373.097 61.99 151.332 402.14 64.6903 150.383 
402.575 65.4166 150.642 402.456 68.1588 150.141 389.922 76.8032 150.412 
390.641 77.293 150.492 393.851 76.9335 151.022 391.415 77.7065 150.429 
391.792 77.5838 150.655 391.242 77.6343 150.541 371.154 56.0901 152.095 
402.341 65.3812 151.297 402.353 66.2035 151.329 402.011 67.2559 151.57 
371.854 53.8682 153.093 369.525 56.1784 153.434 391.951 56.9232 152.649 
[...]
POINT_DATA 3461
COLOR_SCALARS scalars 3
0.101961 0.65098 0.596078 0.101961 0.65098 0.596078 0.101961 0.65098 0.596078 
0.101961 0.65098 0.596078 0.101961 0.65098 0.596078 
0.101961 0.65098 0.596078 0.101961 0.65098 0.596078 
0.101961 0.65098 0.596078 0.101961 0.65098 0.596078 
0.101961 0.65098 0.596078 0.101961 0.65098 0.596078 
0.101961 0.65098 0.596078 0.101961 0.65098 0.596078 
0.101961 0.65098 0.596078 0.101961 0.65098 0.596078 
0.101961 0.65098 0.596078 0.101961 0.65098 0.596078 
0.101961 0.65098 0.596078 0.101961 0.65098 0.596078 
0.101961 0.65098 0.596078 0.101961 0.65098 0.596078 
0.101961 0.65098 0.596078 0.101961 0.65098 0.596078 
0.101961 0.65098 0.596078 0.101961 0.65098 0.596078 
0.101961 0.65098 0.596078 0.101961 0.65098 0.596078 
0.101961 0.65098 0.596078 0.101961 0.65098 0.596078 
0.101961 0.65098 0.596078 0.101961 0.65098 0.596078 
0.101961 0.65098 0.596078 0.101961 0.65098 0.596078 
0.101961 0.65098 0.596078 0.101961 0.65098 0.596078 
0.101961 0.65098 0.596078 0.101961 0.65098 0.596078 
0.101961 0.65098 0.596078 0.101961 0.65098 0.596078 
0.101961 0.65098 0.596078 0.101961 0.65098 0.596078 
0.101961 0.65098 0.596078 0.101961 0.65098 0.596078 
0.101961 0.65098 0.596078 0.101961 0.65098 0.596078 
0.101961 0.65098 0.596078 0.101961 0.65098 0.596078 
0.101961 0.65098 0.596078 0.101961 0.65098 0.596078 
0.101961 0.65098 0.596078 0.101961 0.65098 0.596078 
0.101961 0.65098 0.596078 0.101961 0.65098 0.596078 
0.101961 0.65098 0.596078 0.101961 0.65098 0.596078 
0.101961 0.65098 0.596078 0.101961 0.65098 0.596078 
0.101961 0.65098 0.596078 0.101961 0.65098 0.596078 
0.101961 0.65098 0.596078 0.101961 0.65098 0.596078 
0.101961 0.65098 0.596078 0.101961 0.65098 0.596078 
0.101961 0.65098 0.596078 0.101961 0.65098 0.596078 
0.101961 0.65098 0.596078 0.101961 0.65098 0.596078 
0.101961 0.65098 0.596078 0.101961 0.65098 0.596078 
0.101961 0.65098 0.596078 0.101961 0.65098 0.596078 
0.101961 0.65098 0.596078 0.101961 0.65098 0.596078 
0.101961 0.65098 0.596078 0.101961 0.65098 0.596078 
0.101961 0.65098 0.596078 0.101961 0.65098 0.596078 
0.101961 0.65098 0.596078 0.101961 0.65098 0.596078 
0.101961 0.65098 0.596078 0.101961 0.65098 0.596078 
0.101961 0.65098 0.596078 0.101961 0.65098 0.596078 
0.101961 0.65098 0.596078 0.101961 0.65098 0.596078 
0.101961 0.65098 0.596078 0.101961 0.65098 0.596078 
0.101961 0.65098 0.596078 0.101961 0.65098 0.596078 
0.101961 0.65098 0.596078 0.101961 0.65098 0.596078 
0.101961 0.65098 0.596078 0.101961 0.65098 0.596078 
0.101961 0.65098 0.596078 0.101961 0.65098 0.596078 
0.101961 0.65098 0.596078 0.101961 0.65098 0.596078 
0.101961 0.65098 0.596078 0.101961 0.65098 0.596078 
0.101961 0.65098 0.596078 0.101961 0.65098 0.596078 
0.101961 0.65098 0.596078 0.101961 0.65098 0.596078 
0.101961 0.65098 0.596078 0.101961 0.65098 0.596078 
0.101961 0.65098 0.596078 0.101961 0.65098 0.596078 
0.101961 0.65098 0.596078 0.101961 0.65098 0.596078 
0.101961 0.65098 0.596078 0.101961 0.65098 0.596078 
0.101961 0.65098 0.596078 0.101961 0.65098 0.596078 
0.101961 0.65098 0.596078 0.101961 0.65098 0.596078 
0.101961 0.65098 0.596078 0.101961 0.65098 0.596078 
0.101961 0.65098 0.596078 0.101961 0.65098 0.596078 
0.101961 0.65098 0.596078 0.101961 0.65098 0.596078 
0.101961 0.65098 0.596078 0.101961 0.65098 0.596078 
0.101961 0.65098 0.596078 0.101961 0.65098 0.596078 
0.101961 0.65098 0.596078 0.101961 0.65098 0.596078 
0.101961 0.65098 0.596078 0.101961 0.65098 0.596078 
0.101961 0.65098 0.596078 0.101961 0.65098 0.596078 
0.101961 0.65098 0.596078 0.101961 0.65098 0.596078 
0.101961 0.65098 0.596078 0.101961 0.65098 0.596078 
0.101961 0.65098 0.596078 0.101961 0.65098 0.596078 
0.101961 0.65098 0.596078 0.101961 0.65098 0.596078 
0.101961 0.65098 0.596078 0.101961 0.65098 0.596078 
0.101961 0.65098 0.596078 0.101961 0.65098 0.596078 
0.101961 0.65098 0.596078 0.101961 0.65098 0.596078 
0.101961 0.65098 0.596078 0.101961 0.65098 0.596078 
0.101961 0.65098 0.596078 0.101961 0.65098 0.596078 
0.101961 0.65098 0.596078 0.101961 0.65098 0.596078 
0.101961 0.65098 0.596078 0.101961 0.65098 0.596078 
0.101961 0.65098 0.596078 0.101961 0.65098 0.596078 
0.101961 0.65098 0.596078 0.101961 0.65098 0.596078 
0.101961 0.65098 0.596078 0.101961 0.65098 0.596078 
0.101961 0.65098 0.596078 0.101961 0.65098 0.596078 
0.101961 0.65098 0.596078 0.101961 0.65098 0.596078 
0.101961 0.65098 0.596078 0.101961 0.65098 0.596078 
0.101961 0.65098 0.596078 0.101961 0.65098 0.596078 
0.101961 0.65098 0.596078 0.101961 0.65098 0.596078 
0.101961 0.65098 0.596078 0.101961 0.65098 0.596078 
0.101961 0.65098 0.596078 0.101961 0.65098 0.596078 
0.101961 0.65098 0.596078 0.101961 0.65098 0.596078 
0.101961 0.65098 0.596078 0.101961 0.65098 0.596078 
0.101961 0.65098 0.596078 0.101961 0.65098 0.596078 
0.101961 0.65098 0.596078 0.101961 0.65098 0.596078 
0.101961 0.65098 0.596078 0.101961 0.65098 0.596078 
0.101961 0.65098 0.596078 0.101961 0.65098 0.596078 
0.101961 0.65098 0.596078 0.101961 0.65098 0.596078 
0.101961 0.65098 0.596078 0.101961 0.65098 0.596078 
0.101961 0.65098 0.596078 0.101961 0.65098 0.596078 
0.101961 0.65098 0.596078 0.101961 0.65098 0.596078 
0.101961 0.65098 0.596078 0.101961 0.65098 0.596078 
0.101961 0.65098 0.596078 0.101961 0.65098 0.596078 
0.101961 0.65098 0.596078 0.101961 0.65098 0.596078 
0.101961 0.65098 0.596078 0.101961 0.65098 0.596078 
0.101961 0.65098 0.596078 0.101961 0.65098 0.596078 
0.101961 0.65098 0.596078 0.101961 0.65098 0.596078 
0.101961 0.65098 0.596078 0.101961 0.65098 0.596078 
0.101961 0.65098 0.596078 0.101961 0.65098 0.596078 
0.101961 0.65098 0.596078 0.101961 0.65098 0.596078 
0.101961 0.65098 0.596078 0.101961 0.65098 0.596078 
0.101961 0.65098 0.596078 0.101961 0.65098 0.596078 
0.101961 0.65098 0.596078 0.101961 0.65098 0.596078 
0.101961 0.65098 0.596078 0.101961 0.65098 0.596078 
0.101961 0.65098 0.596078 0.101961 0.65098 0.596078 
0.101961 0.65098 0.596078 0.101961 0.65098 0.596078 
0.101961 0.65098 0.596078 0.101961 0.65098 0.596078 
0.101961 0.65098 0.596078 0.101961 0.65098 0.596078 
0.101961 0.65098 0.596078 0.101961 0.65098 0.596078 
0.101961 0.65098 0.596078 0.101961 0.65098 0.596078 
0.101961 0.65098 0.596078 0.101961 0.65098 0.596078 
0.101961 0.65098 0.596078 0.101961 0.65098 0.596078 
0.101961 0.65098 0.596078 0.101961 0.65098 0.596078 
0.101961 0.65098 0.596078 0.101961 0.65098 0.596078 
0.101961 0.65098 0.596078 0.101961 0.65098 0.596078 
0.101961 0.65098 0.596078 0.101961 0.65098 0.596078 
0.101961 0.65098 0.596078 0.101961 0.65098 0.596078 
0.101961 0.65098 0.596078 0.101961 0.65098 0.596078 
0.101961 0.65098 0.596078 0.101961 0.65098 0.596078 
0.101961 0.65098 0.596078 0.101961 0.65098 0.596078 
0.101961 0.65098 0.596078 0.101961 0.65098 0.596078 
0.101961 0.65098 0.596078 0.101961 0.65098 0.596078 
0.101961 0.65098 0.596078 0.101961 0.65098 0.596078 
0.101961 0.65098 0.596078 0.101961 0.65098 0.596078 
0.101961 0.65098 0.596078 0.101961 0.65098 0.596078 
0.101961 0.65098 0.596078 0.101961 0.65098 0.596078 
0.101961 0.65098 0.596078 0.101961 0.65098 0.596078 
0.101961 0.65098 0.596078 0.101961 0.65098 0.596078 
0.101961 0.65098 0.596078 0.101961 0.65098 0.596078 
0.101961 0.65098 0.596078 0.101961 0.65098 0.596078 
0.101961 0.65098 0.596078 0.101961 0.65098 0.596078 
0.101961 0.65098 0.596078 0.101961 0.65098 0.596078 
0.101961 0.65098 0.596078 0.101961 0.65098 0.596078 
0.101961 0.65098 0.596078 0.101961 0.65098 0.596078 
0.101961 0.65098 0.596078 0.101961 0.65098 0.596078 
0.101961 0.65098 0.596078 0.101961 0.65098 0.596078 
0.101961 0.65098 0.596078 0.101961 0.65098 0.596078 
0.101961 0.65098 0.596078 0.101961 0.65098 0.596078 
0.101961 0.65098 0.596078 0.101961 0.65098 0.596078 
0.101961 0.65098 0.596078 0.101961 0.65098 0.596078 
0.101961 0.65098 0.596078 0.101961 0.65098 0.596078 
0.101961 0.65098 0.596078 0.101961 0.65098 0.596078 
0.101961 0.65098 0.596078 0.101961 0.65098 0.596078 
0.101961 0.65098 0.596078 0.101961 0.65098 0.596078 
0.101961 0.65098 0.596078 0.101961 0.65098 0.596078 
0.101961 0.65098 0.596078 0.101961 0.65098 0.596078 
0.101961 0.65098 0.596078 0.101961 0.65098 0.596078 
0.101961 0.65098 0.596078 0.101961 0.65098 0.596078 
0.101961 0.65098 0.596078 0.101961 0.65098 0.596078 
0.101961 0.65098 0.596078 0.101961 0.65098 0.596078 
0.101961 0.65098 0.596078 0.101961 0.65098 0.596078 
0.101961 0.65098 0.596078 0.101961 0.65098 0.596078 
0.101961 0.65098 0.596078 0.101961 0.65098 0.596078 
0.101961 0.65098 0.596078 0.101961 0.65098 0.596078 
0.101961 0.65098 0.596078 0.101961 0.65098 0.596078 
0.101961 0.65098 0.596078 0.101961 0.65098 0.596078 
0.101961 0.65098 0.596078 0.101961 0.65098 0.596078 
0.101961 0.65098 0.596078 0.101961 0.65098 0.596078 
0.101961 0.65098 0.596078 0.101961 0.65098 0.596078 
0.101961 0.65098 0.596078 0.101961 0.65098 0.596078 
0.101961 0.65098 0.596078 0.101961 0.65098 0.596078 
0.101961 0.65098 0.596078 0.101961 0.65098 0.596078 
0.101961 0.65098 0.596078 0.101961 0.65098 0.596078 
0.101961 0.65098 0.596078 0.101961 0.65098 0.596078 
0.101961 0.65098 0.596078 0.101961 0.65098 0.596078 
0.101961 0.65098 0.596078 0.101961 0.65098 0.596078 
0.101961 0.65098 0.596078 0.101961 0.65098 0.596078 
0.101961 0.65098 0.596078 0.101961 0.65098 0.596078 
0.101961 0.65098 0.596078 0.101961 0.65098 0.596078 
0.101961 0.65098 0.596078 0.101961 0.65098 0.596078 
0.101961 0.65098 0.596078 0.101961 0.65098 0.596078 
0.101961 0.65098 0.596078 0.101961 0.65098 0.596078 
0.101961 0.65098 0.596078 0.101961 0.65098 0.596078 
0.101961 0.65098 0.596078 0.101961 0.65098 0.596078 
0.101961 0.65098 0.596078 0.101961 0.65098 0.596078 
0.101961 0.65098 0.596078 0.101961 0.65098 0.596078 
0.101961 0.65098 0.596078 0.101961 0.65098 0.596078 
0.101961 0.65098 0.596078 0.101961 0.65098 0.596078 
0.101961 0.65098 0.596078 0.101961 0.65098 0.596078 
0.101961 0.65098 0.596078 0.101961 0.65098 0.596078 
0.101961 0.65098 0.596078 0.101961 0.65098 0.596078 
0.101961 0.65098 0.596078 0.101961 0.65098 0.596078 
0.101961 0.65098 0.596078 0.101961 0.65098 0.596078 
0.101961 0.65098 0.596078 0.101961 0.65098 0.596078 
0.101961 0.65098 0.596078 0.101961 0.65098 0.596078 
0.101961 0.65098 0.596078 0.101961 0.65098 0.596078 
0.101961 0.65098 0.596078 0.101961 0.65098 0.596078 
0.101961 0.65098 0.596078 0.101961 0.65098 0.596078 
0.101961 0.65098 0.596078 0.101961 0.65098 0.596078 
0.101961 0.65098 0.596078 0.101961 0.65098 0.596078 
0.101961 0.65098 0.596078 0.101961 0.65098 0.596078 
0.101961 0.65098 0.596078 0.101961 0.65098 0.596078 
0.101961 0.65098 0.596078 0.101961 0.65098 0.596078 
0.101961 0.65098 0.596078 0.101961 0.65098 0.596078 
0.101961 0.65098 0.596078 0.101961 0.65098 0.596078 
0.101961 0.65098 0.596078 0.101961 0.65098 0.596078 
0.101961 0.65098 0.596078 0.101961 0.65098 0.596078 
0.101961 0.65098 0.596078 0.101961 0.65098 0.596078 
0.101961 0.65098 0.596078 0.101961 0.65098 0.596078 
0.101961 0.65098 0.596078 0.101961 0.65098 0.596078 
0.101961 0.65098 0.596078 0.101961 0.65098 0.596078 
0.101961 0.65098 0.596078 0.101961 0.65098 0.596078 
0.101961 0.65098 0.596078 0.101961 0.65098 0.596078 
0.101961 0.65098 0.596078 0.101961 0.65098 0.596078 
0.101961 0.65098 0.596078 0.101961 0.65098 0.596078 
0.101961 0.65098 0.596078 0.101961 0.65098 0.596078 
0.101961 0.65098 0.596078 0.101961 0.65098 0.596078 
0.101961 0.65098 0.596078 0.101961 0.65098 0.596078 
0.101961 0.65098 0.596078 0.101961 0.65098 0.596078 
0.101961 0.65098 0.596078 0.101961 0.65098 0.596078 
0.101961 0.65098 0.596078 0.101961 0.65098 0.596078 
0.101961 0.65098 0.596078 0.101961 0.65098 0.596078 
0.101961 0.65098 0.596078 0.101961 0.65098 0.596078 
0.101961 0.65098 0.596078 0.101961 0.65098 0.596078 
0.101961 0.65098 0.596078 0.101961 0.65098 0.596078 
0.101961 0.65098 0.596078 0.101961 0.65098 0.596078 
0.101961 0.65098 0.596078 0.101961 0.65098 0.596078 
0.101961 0.65098 0.596078 0.101961 0.65098 0.596078 
0.101961 0.65098 0.596078 0.101961 0.65098 0.596078 
0.101961 0.65098 0.596078 0.101961 0.65098 0.596078 
0.101961 0.65098 0.596078 0.101961 0.65098 0.596078 
0.101961 0.65098 0.596078 0.101961 0.65098 0.596078 
0.101961 0.65098 0.596078 0.101961 0.65098 0.596078 
0.101961 0.65098 0.596078 0.101961 0.65098 0.596078 
0.101961 0.65098 0.596078 0.101961 0.65098 0.596078 
0.101961 0.65098 0.596078 0.101961 0.65098 0.596078 
0.101961 0.65098 0.596078 0.101961 0.65098 0.596078 
0.101961 0.65098 0.596078 0.101961 0.65098 0.596078 
0.101961 0.65098 0.596078 0.101961 0.65098 0.596078 
0.101961 0.65098 0.596078 0.101961 0.65098 0.596078 
0.101961 0.65098 0.596078 0.101961 0.65098 0.596078 
0.101961 0.65098 0.596078 0.101961 0.65098 0.596078 
0.101961 0.65098 0.596078 0.101961 0.65098 0.596078 
0.101961 0.65098 0.596078 0.101961 0.65098 0.596078 
0.101961 0.65098 0.596078 0.101961 0.65098 0.596078 
0.101961 0.65098 0.596078 0.101961 0.65098 0.596078 
0.101961 0.65098 0.596078 0.101961 0.65098 0.596078 
0.101961 0.65098 0.596078 0.101961 0.65098 0.596078 
0.101961 0.65098 0.596078 0.101961 0.65098 0.596078 
0.101961 0.65098 0.596078 0.101961 0.65098 0.596078 
0.101961 0.65098 0.596078 0.101961 0.65098 0.596078 
0.101961 0.65098 0.596078 0.101961 0.65098 0.596078 
0.101961 0.65098 0.596078 0.101961 0.65098 0.596078 
0.101961 0.65098 0.596078 0.101961 0.65098 0.596078 
0.101961 0.65098 0.596078 0.101961 0.65098 0.596078 
0.101961 0.65098 0.596078 0.101961 0.65098 0.596078 
0.101961 0.65098 0.596078 0.101961 0.65098 0.596078 
0.101961 0.65098 0.596078 0.101961 0.65098 0.596078 
0.101961 0.65098 0.596078 0.101961 0.65098 0.596078 
0.101961 0.65098 0.596078 0.101961 0.65098 0.596078 
0.101961 0.65098 0.596078 0.101961 0.65098 0.596078 
0.101961 0.65098 0.596078 0.101961 0.65098 0.596078 
0.101961 0.65098 0.596078 0.101961 0.65098 0.596078 
0.101961 0.65098 0.596078 0.101961 0.65098 0.596078 
0.101961 0.65098 0.596078 0.101961 0.65098 0.596078 
0.101961 0.65098 0.596078 0.101961 0.65098 0.596078 
0.101961 0.65098 0.596078 0.101961 0.65098 0.596078 
0.101961 0.65098 0.596078 0.101961 0.65098 0.596078 
0.101961 0.65098 0.596078 0.101961 0.65098 0.596078 
0.101961 0.65098 0.596078 0.101961 0.65098 0.596078 
0.101961 0.65098 0.596078 0.101961 0.65098 0.596078 
0.101961 0.65098 0.596078 0.101961 0.65098 0.596078 
0.101961 0.65098 0.596078 0.101961 0.65098 0.596078 
0.101961 0.65098 0.596078 0.101961 0.65098 0.596078 
0.101961 0.65098 0.596078 0.101961 0.65098 0.596078 
0.101961 0.65098 0.596078 0.101961 0.65098 0.596078 
0.101961 0.65098 0.596078 0.101961 0.65098 0.596078 
0.101961 0.65098 0.596078 0.101961 0.65098 0.596078 
0.101961 0.65098 0.596078 0.101961 0.65098 0.596078 
0.101961 0.65098 0.596078 0.101961 0.65098 0.596078 
0.101961 0.65098 0.596078 0.101961 0.65098 0.596078 
0.101961 0.65098 0.596078 0.101961 0.65098 0.596078 
0.101961 0.65098 0.596078 0.101961 0.65098 0.596078 
0.101961 0.65098 0.596078 0.101961 0.65098 0.596078 
0.101961 0.65098 0.596078 0.101961 0.65098 0.596078 
0.101961 0.65098 0.596078 0.101961 0.65098 0.596078 
0.101961 0.65098 0.596078 0.101961 0.65098 0.596078 
0.101961 0.65098 0.596078 0.101961 0.65098 0.596078 
0.101961 0.65098 0.596078 0.101961 0.65098 0.596078 
0.101961 0.65098 0.596078 0.101961 0.65098 0.596078 
0.101961 0.65098 0.596078 0.101961 0.65098 0.596078 
0.101961 0.65098 0.596078 0.101961 0.65098 0.596078 
0.101961 0.65098 0.596078 0.101961 0.65098 0.596078 
0.101961 0.65098 0.596078 0.101961 0.65098 0.596078 
0.101961 0.65098 0.596078 0.101961 0.65098 0.596078 
0.101961 0.65098 0.596078 0.101961 0.65098 0.596078 
0.101961 0.65098 0.596078 0.101961 0.65098 0.596078 
0.101961 0.65098 0.596078 0.101961 0.65098 0.596078 
0.101961 0.65098 0.596078 0.101961 0.65098 0.596078 
0.101961 0.65098 0.596078 0.101961 0.65098 0.596078 
0.101961 0.65098 0.596078 0.101961 0.65098 0.596078 
0.101961 0.65098 0.596078 0.101961 0.65098 0.596078 
0.101961 0.65098 0.596078 0.101961 0.65098 0.596078 
0.101961 0.65098 0.596078 0.101961 0.65098 0.596078 
0.101961 0.65098 0.596078 0.101961 0.65098 0.596078 
0.101961 0.65098 0.596078 0.101961 0.65098 0.596078 
0.101961 0.65098 0.596078 0.101961 0.65098 0.596078 
0.101961 0.65098 0.596078 0.101961 0.65098 0.596078 
0.101961 0.65098 0.596078 0.101961 0.65098 0.596078 
0.101961 0.65098 0.596078 0.101961 0.65098 0.596078 
0.101961 0.65098 0.596078 0.101961 0.65098 0.596078 
0.101961 0.65098 0.596078 0.101961 0.65098 0.596078 
0.101961 0.65098 0.596078 0.101961 0.65098 0.596078 
0.101961 0.65098 0.596078 0.101961 0.65098 0.596078 
0.101961 0.65098 0.596078 0.101961 0.65098 0.596078 
0.101961 0.65098 0.596078 0.101961 0.65098 0.596078 
0.101961 0.65098 0.596078 0.101961 0.65098 0.596078 
0.101961 0.65098 0.596078 0.101961 0.65098 0.596078 
0.101961 0.65098 0.596078 0.101961 0.65098 0.596078 
0.101961 0.65098 0.596078 0.101961 0.65098 0.596078 
0.101961 0.65098 0.596078 0.101961 0.65098 0.596078 
0.101961 0.65098 0.596078 0.101961 0.65098 0.596078 
0.101961 0.65098 0.596078 0.101961 0.65098 0.596078 
0.101961 0.65098 0.596078 0.101961 0.65098 0.596078 
0.101961 0.65098 0.596078 0.101961 0.65098 0.596078 
0.101961 0.65098 0.596078 0.101961 0.65098 0.596078 
0.101961 0.65098 0.596078 0.101961 0.65098 0.596078 
0.101961 0.65098 0.596078 0.101961 0.65098 0.596078 
0.101961 0.65098 0.596078 0.101961 0.65098 0.596078 
0.101961 0.65098 0.596078 0.101961 0.65098 0.596078 
0.101961 0.65098 0.596078 0.101961 0.65098 0.596078 
0.101961 0.65098 0.596078 0.101961 0.65098 0.596078 
0.101961 0.65098 0.596078 0.101961 0.65098 0.596078 
0.101961 0.65098 0.596078 0.101961 0.65098 0.596078 
0.101961 0.65098 0.596078 0.101961 0.65098 0.596078 
0.101961 0.65098 0.596078 0.101961 0.65098 0.596078 
0.101961 0.65098 0.596078 0.101961 0.65098 0.596078 
0.101961 0.65098 0.596078 0.101961 0.65098 0.596078 
0.101961 0.65098 0.596078 0.101961 0.65098 0.596078 
0.101961 0.65098 0.596078 0.101961 0.65098 0.596078 
0.101961 0.65098 0.596078 0.101961 0.65098 0.596078 
0.101961 0.65098 0.596078 0.101961 0.65098 0.596078 
0.101961 0.65098 0.596078 0.101961 0.65098 0.596078 
0.101961 0.65098 0.596078 0.101961 0.65098 0.596078 
0.101961 0.65098 0.596078 0.101961 0.65098 0.596078 
0.101961 0.65098 0.596078 0.101961 0.65098 0.596078 
0.101961 0.65098 0.596078 0.101961 0.65098 0.596078 
0.101961 0.65098 0.596078 0.101961 0.65098 0.596078 
0.101961 0.65098 0.596078 0.101961 0.65098 0.596078 
0.101961 0.65098 0.596078 0.101961 0.65098 0.596078 
0.101961 0.65098 0.596078 0.101961 0.65098 0.596078 
0.101961 0.65098 0.596078 0.101961 0.65098 0.596078 
0.101961 0.65098 0.596078 0.101961 0.65098 0.596078 
0.101961 0.65098 0.596078 0.101961 0.65098 0.596078 
0.101961 0.65098 0.596078 0.101961 0.65098 0.596078 
0.101961 0.65098 0.596078 0.101961 0.65098 0.596078 
0.101961 0.65098 0.596078 0.101961 0.65098 0.596078 
0.101961 0.65098 0.596078 0.101961 0.65098 0.596078 
0.101961 0.65098 0.596078 0.101961 0.65098 0.596078 
0.101961 0.65098 0.596078 0.101961 0.65098 0.596078 
0.101961 0.65098 0.596078 0.101961 0.65098 0.596078 
0.101961 0.65098 0.596078 0.101961 0.65098 0.596078 
0.101961 0.65098 0.596078 0.101961 0.65098 0.596078 
0.101961 0.65098 0.596078 0.101961 0.65098 0.596078 
0.101961 0.65098 0.596078 0.101961 0.65098 0.596078 
0.101961 0.65098 0.596078 0.101961 0.65098 0.596078 
0.101961 0.65098 0.596078 0.101961 0.65098 0.596078 
0.101961 0.65098 0.596078 0.101961 0.65098 0.596078 
0.101961 0.65098 0.596078 0.101961 0.65098 0.596078 
0.101961 0.65098 0.596078 0.101961 0.65098 0.596078 
0.101961 0.65098 0.596078 0.101961 0.65098 0.596078 
0.101961 0.65098 0.596078 0.101961 0.65098 0.596078 
0.101961 0.65098 0.596078 0.101961 0.65098 0.596078 
0.101961 0.65098 0.596078 0.101961 0.65098 0.596078 
0.101961 0.65098 0.596078 0.101961 0.65098 0.596078 
0.101961 0.65098 0.596078 0.101961 0.65098 0.596078 
0.101961 0.65098 0.596078 0.101961 0.65098 0.596078 
0.101961 0.65098 0.596078 0.101961 0.65098 0.596078 
0.101961 0.65098 0.596078 0.101961 0.65098 0.596078 
0.101961 0.65098 0.596078 0.101961 0.65098 0.596078 
0.101961 0.65098 0.596078 0.101961 0.65098 0.596078 