# vtk DataFile Version 4.2
vtk output
ASCII
DATASET POLYDATA
POINTS 2928 float
397.079 88.806 122.369 397.035 89.1559 122.297 397.336 88.9905 122.171 
397.277 89.5221 122.111 397.552 89.2339 122.069 397.587 89.6024 122.01 
397.289 89.7351 122.2 397.496 90.0034 122.253 397.519 89.8507 122.071 
397.817 89.986 122.036 398.11 90.1252 122.098 397.733 90.1222 122.138 
398.027 90.2913 122.164 396.881 88.5207 122.607 396.876 89.1513 122.507 
397.466 88.9725 122.175 397.651 88.9618 122.27 396.919 89.3792 122.586 
397.5 90.0773 122.483 398.622 90.2592 122.395 398.205 90.6265 122.49 
398.493 90.677 122.37 398.684 90.5219 122.399 398.66 90.6687 122.42 
398.804 90.6243 122.538 398.434 90.7381 122.491 398.654 90.7785 122.554 
398.801 90.7277 122.615 396.576 88.236 123.131 397.119 87.956 122.962 
397.329 88.2662 122.731 397.625 90.1943 122.626 398.36 90.7251 122.662 
398.413 90.6797 122.981 398.815 90.4358 122.567 398.931 90.5538 122.85 
398.836 90.7869 122.861 396.489 86.8023 124.268 396.35 87.2762 124.156 
397.464 87.47 123.442 396.248 87.666 124.3 397.741 87.5144 123.517 
397.691 87.8359 123.222 398.526 89.1701 122.839 398.358 88.5881 123.15 
397.12 89.3919 123.837 398.761 90.7485 123.181 398.944 90.8367 123.097 
398.968 90.8162 123.233 399.008 90.7299 123.121 399.015 90.8376 123.17 
396.165 87.5751 124.836 398.378 87.7206 123.883 396.528 88.4309 124.303 
398.861 89.0914 123.516 398.687 88.4668 123.687 397.34 89.5662 123.987 
399.019 89.3831 123.871 399.028 90.7613 123.281 396.12 84.9115 125.963 
396.517 85.2392 125.386 395.91 86.1478 125.841 397.565 86.0693 124.763 
396.085 87.3212 125.553 398.774 90.0517 124.399 395.962 84.0195 126.761 
395.838 84.5979 126.605 396.259 84.0049 126.517 395.725 86.0036 126.786 
398.179 85.6039 125.618 398.916 86.779 125.843 397.885 89.3402 125.183 
398.78 89.1421 125.488 398.943 88.7968 125.621 395.652 83.6574 127.461 
397.872 83.6044 126.977 397.071 84.187 126.281 398.49 83.876 127.245 
395.603 85.7005 127.775 396.031 86.87 126.891 396.323 87.1491 127.126 
396.698 87.4121 127.308 399.073 87.474 126.469 399.079 87.0221 127.014 
398.026 88.5223 126.42 396.068 81.4578 128.553 396.475 81.3038 128.572 
397.58 81.823 128.224 397.134 81.2123 128.645 398.163 81.8742 128.391 
398.525 81.8924 128.557 398.864 82.4919 128.507 398.976 82.1983 128.855 
399.087 84.7093 127.915 397.166 87.2572 128.137 398.632 87.5305 127.363 
398.515 88.7375 126.158 395.645 80.1702 129.676 396.65 80.6588 129.093 
395.258 81.1419 129.304 398.869 81.8322 128.932 399.118 82.3144 129.196 
394.907 82.7238 129.132 399.2 83.0306 129.117 394.699 83.4493 130.06 
399.203 84.5694 128.644 399.223 84.1331 129.157 395.869 85.7919 129.136 
399.004 85.7536 128.623 397.226 86.8666 128.88 398.124 87.0039 128.556 
394.54 80.2589 130.521 398.257 80.1705 130.071 398.734 80.509 130.382 
399.076 81.7881 129.667 399.205 82.418 130.073 398.25 86.3852 129.313 
398.512 85.9186 129.572 397.571 86.8043 129.102 393.97 80.3323 131.244 
398.784 79.6823 131.233 393.614 81.0989 131.826 399.011 83.0925 130.703 
398.872 84.019 130.575 398.737 84.7068 130.364 397.302 86.1917 129.933 
397.866 86.2171 129.808 397.67 86.5567 129.487 394.963 77.1809 132.382 
396.819 77.4015 131.995 398.446 79.0104 131.568 393.934 82.3408 132.304 
398.509 83.466 131.636 396.203 84.7418 131.305 397.775 85.6477 130.459 
396.898 85.445 130.729 397.578 86.0404 130.132 394.318 76.3028 133.483 
396.389 76.138 133.25 397.433 77.3867 132.392 397.584 77.0733 132.963 
398.681 81.3794 132.375 396.35 84.2495 132.033 397.231 84.4354 131.858 
396.84 76.2816 133.274 397.502 76.2466 133.922 397.866 76.6573 134.083 
398.462 80.852 133.12 395.126 82.7956 133.514 397.442 83.7349 132.397 
397.477 75.4829 135.033 398.026 76.6912 134.688 391.96 77.0963 135.448 
398.29 78.8347 134.238 395.635 82.4817 134.063 395.512 73.1706 136.047 
396.245 73.8228 135.724 397.13 74.7023 135.578 391.688 78.5574 136.688 
392.585 79.8955 136.207 396.379 80.6796 135.756 393.483 80.6141 135.952 
396.009 81.319 135.319 394.351 71.9961 137.016 395.035 71.3576 137.428 
392.409 73.3115 137.089 396.132 72.7059 136.704 396.843 73.4852 136.56 
391.268 75.0609 137.34 392 74.9599 136.426 390.915 77.2864 138.335 
391.563 78.4298 137.399 394.234 70.4117 138.215 395.47 71.0388 137.769 
395.756 71.0136 137.944 396.536 71.776 137.892 391.244 73.9085 137.944 
390.782 75.8554 138.127 390.733 76.4294 138.263 390.635 76.6345 138.829 
393.66 79.8391 137.61 396.743 70.723 139.064 390.189 74.0203 139.655 
397.338 75.3073 138.834 391.044 77.5897 139.186 391.098 77.5352 139.756 
391.49 78.0634 139.082 394.941 78.6504 139.062 394.397 68.0709 140.214 
395.859 69.1781 139.635 395.362 68.6611 139.895 396.836 70.455 139.463 
396.971 70.2516 140.067 391.106 77.3308 140.502 393.921 78.7661 139.322 
393.274 79.0589 138.915 395.546 68.0421 140.512 396.094 67.7794 141.066 
396.892 69.2732 140.925 389.388 74.6999 141.7 389.578 75.2625 141.981 
395.075 77.0282 140.63 394.777 77.7869 140.051 392.678 78.0296 140.297 
392.426 65.9755 142.4 393.624 65.5374 142.375 395.219 66.1294 142.131 
397.185 69.9904 141.565 397.044 71.3475 141.933 396.473 73.4541 141.871 
389.451 75.1205 142.813 390.473 76.4927 141.575 391.133 76.9268 141.624 
391.89 77.3561 141.311 395.68 65.8055 142.888 395.76 65.5185 143.325 
388.987 74.4638 143.303 392.882 76.1757 143.076 391.281 76.6208 142.334 
391.865 76.7147 142.442 392.514 63.3974 144.741 393.153 63.7349 144.206 
395.083 64.7464 143.652 396.052 65.4125 144.177 396.038 71.6362 143.778 
387.998 71.4127 144.17 395.133 73.4938 143.759 388.909 74.4906 144.191 
389.794 75.2155 144.044 393.037 75.6856 143.572 392.323 76.7826 142.401 
394.874 63.9205 144.563 395.244 64.0077 144.753 395.715 64.7495 144.401 
396.454 66.2494 144.841 396.618 67.7477 144.43 387.827 69.3275 145.002 
387.098 71.6545 145.779 387.676 73.0634 145.619 389.322 74.6413 145.219 
392.327 74.8508 144.788 390.583 62.1467 146.735 392.238 62.3595 146.029 
390.745 63.2203 145.76 395.336 63.8581 145.148 394.981 63.4626 145.467 
396.272 66.3886 145.903 396.232 65.6549 145.962 386.674 70.8244 146.201 
386.289 70.9579 146.714 386.276 71.3322 146.916 387.217 72.4989 146.363 
393.174 73.2324 145.829 387.661 73.1105 146.185 388.027 73.4263 146.34 
390.858 74.8312 145.317 392.864 61.7574 146.826 393.644 61.8538 146.998 
395.521 63.7328 146.13 395.801 64.2379 146.214 396.056 64.9802 146.152 
395.35 68.2268 147.185 385.682 70.0085 147.299 386.703 72.1278 147.135 
388.093 73.2511 147.095 389.872 74.2277 146.416 389.602 74.3147 146.238 
390.615 60.3455 148.386 395.468 66.8815 147.811 383.058 69.5852 149.675 
383.826 70.0352 149.167 384.307 70.3732 148.955 385.321 71.3021 148.838 
386.522 72.0823 147.86 386.972 72.3783 148.199 389.316 73.5735 147.16 
388.594 59.4747 149.928 393.333 60.3964 149.118 395.2 62.8421 148.488 
382.37 68.8196 150.097 382.977 68.5887 149.597 382.137 69.0698 150.378 
385.14 71.2885 149.639 386.946 72.199 148.971 388.958 58.4021 150.646 
389.468 58.4649 150.492 386.889 61.7941 149.693 395.218 63.3923 149.335 
395.273 64.0933 149.185 380.474 67.8282 151.482 380.679 68.2073 151.426 
381.879 69.1427 150.762 382.142 69.5766 151.014 382.791 69.9398 150.6 
387.549 57.4493 152.013 393.302 59.7525 150.413 379.39 66.8188 152.188 
380.661 66.9128 151.427 379.963 67.3539 151.842 380.836 68.871 151.859 
381.814 69.6216 151.8 383.178 70.3097 150.979 384.978 71.0508 151.239 
387.149 71.567 150.484 387.704 56.1642 152.994 393.76 60.0697 150.932 
394.444 62.3334 151.335 377.617 65.8119 153.348 378.693 65.8229 152.744 
379.253 65.8854 152.456 378.674 67.2468 152.871 381.521 69.6036 152.61 
383.528 70.4378 152.26 385.112 70.8794 151.881 391.354 57.1216 152.959 
393.699 59.9479 151.778 394.087 61.1598 151.895 376.451 65.0292 154.194 
375.967 65.1065 154.545 392.827 64.6091 153.036 377.609 66.5462 153.529 
377.315 66.7385 153.996 377.952 67.0082 153.466 389.26 69.0073 152.959 
387.296 70.1813 152.821 392.332 57.7329 153.904 392.676 58.3523 153.106 
393.424 60.935 153.656 382.701 61.9181 153.542 376.496 63.9369 154.516 
374.742 64.3314 155.463 377.056 64.0634 154.246 379.672 68.802 154.281 
380.854 69.285 154.395 383.184 69.9715 153.819 384.346 70.1726 153.485 
391.796 56.8343 154.336 373.343 62.4721 156.428 373.229 62.7501 156.47 
373.832 62.5152 156.178 376.014 63.012 155.198 373.448 63.1365 156.346 
374.129 63.4089 155.86 390.95 64.7159 155.094 375.704 65.5819 155.05 
375.326 65.4976 155.585 380.787 69.1113 155.128 391.177 55.354 155.62 
391.918 56.6754 155.016 392.047 56.8322 155.491 392.324 57.5981 155.441 
372.848 62.0756 156.911 372.67 62.1168 157.134 373.312 61.8816 156.762 
380.995 61.1856 155.243 372.675 62.4545 157.127 373.253 63.2802 156.664 
374.368 64.7115 156.226 376.147 66.5022 155.902 378.992 68.4932 155.23 
383.12 68.9413 155.798 387.936 51.899 157.498 389.679 53.3403 156.602 
390.604 54.3926 156.146 390.754 54.2195 156.705 391.957 57.2703 156.839 
392.263 57.8654 156.102 391.828 60.674 156.529 372.672 61.4018 157.808 
372.606 61.7904 157.457 373.652 60.9874 157.533 375.205 61.0847 156.922 
372.543 62.4914 157.487 372.662 62.796 157.432 377.118 67.2264 156.686 
384.655 67.5307 157.037 379.532 68.4726 156.155 389.268 52.2055 157.986 
390.958 54.1293 157.669 372.508 61.2831 158.276 372.382 61.8885 157.993 
372.433 62.2128 157.921 375.749 66.229 157.308 376.155 66.5164 157.364 
377.28 67.1279 157.301 389.785 52.4854 158.197 390.522 52.9319 159.105 
372.229 59.7708 160.255 372.938 60.211 158.949 372.276 60.2931 159.868 
372.454 60.8817 159.072 376.684 66.1812 158.548 377.972 66.8532 158.202 
382.54 48.2064 161.321 382.803 48.2388 161.279 385.713 49.1334 160.434 
389.658 51.6494 159.713 390.058 52.0825 159.83 390.502 52.5752 159.598 
390.81 53.6687 158.866 390.76 54.5043 159.858 372.417 58.6649 160.76 
375.658 58.0157 159.636 372.41 61.3179 159.541 373.499 63.1688 159.797 
375.156 65.0551 159.216 378.238 65.5514 159.841 383.291 48.6934 160.91 
386.961 49.2804 160.742 388.93 50.7705 160.311 390.322 52.6696 160.222 
[...]
POINT_DATA 2928
COLOR_SCALARS scalars 3
0.101961 0.65098 0.596078 0.101961 0.65098 0.596078 0.101961 0.65098 0.596078 
0.101961 0.65098 0.596078 0.101961 0.65098 0.596078 
0.101961 0.65098 0.596078 0.101961 0.65098 0.596078 
0.101961 0.65098 0.596078 0.101961 0.65098 0.596078 
0.101961 0.65098 0.596078 0.101961 0.65098 0.596078 
0.101961 0.65098 0.596078 0.101961 0.65098 0.596078 
0.101961 0.65098 0.596078 0.101961 0.65098 0.596078 
0.101961 0.65098 0.596078 0.101961 0.65098 0.596078 
0.101961 0.65098 0.596078 0.101961 0.65098 0.596078 
0.101961 0.65098 0.596078 0.101961 0.65098 0.596078 
0.101961 0.65098 0.596078 0.101961 0.65098 0.596078 
0.101961 0.65098 0.596078 0.101961 0.65098 0.596078 
0.101961 0.65098 0.596078 0.101961 0.65098 0.596078 
0.101961 0.65098 0.596078 0.101961 0.65098 0.596078 
0.101961 0.65098 0.596078 0.101961 0.65098 0.596078 
0.101961 0.65098 0.596078 0.101961 0.65098 0.596078 
0.101961 0.65098 0.596078 0.101961 0.65098 0.596078 
0.101961 0.65098 0.596078 0.101961 0.65098 0.596078 
0.101961 0.65098 0.596078 0.101961 0.65098 0.596078 
0.101961 0.65098 0.596078 0.101961 0.65098 0.596078 
0.101961 0.65098 0.596078 0.101961 0.65098 0.596078 
0.101961 0.65098 0.596078 0.101961 0.65098 0.596078 
0.101961 0.65098 0.596078 0.101961 0.65098 0.596078 
0.101961 0.65098 0.596078 0.101961 0.65098 0.596078 
0.101961 0.65098 0.596078 0.101961 0.65098 0.596078 
0.101961 0.65098 0.596078 0.101961 0.65098 0.596078 
0.101961 0.65098 0.596078 0.101961 0.65098 0.596078 
0.101961 0.65098 0.596078 0.101961 0.65098 0.596078 
0.101961 0.65098 0.596078 0.101961 0.65098 0.596078 
0.101961 0.65098 0.596078 0.101961 0.65098 0.596078 
0.101961 0.65098 0.596078 0.101961 0.65098 0.596078 
0.101961 0.65098 0.596078 0.101961 0.65098 0.596078 
0.101961 0.65098 0.596078 0.101961 0.65098 0.596078 
0.101961 0.65098 0.596078 0.101961 0.65098 0.596078 
0.101961 0.65098 0.596078 0.101961 0.65098 0.596078 
0.101961 0.65098 0.596078 0.101961 0.65098 0.596078 
0.101961 0.65098 0.596078 0.101961 0.65098 0.596078 
0.101961 0.65098 0.596078 0.101961 0.65098 0.596078 
0.101961 0.65098 0.596078 0.101961 0.65098 0.596078 
0.101961 0.65098 0.596078 0.101961 0.65098 0.596078 
0.101961 0.65098 0.596078 0.101961 0.65098 0.596078 
0.101961 0.65098 0.596078 0.101961 0.65098 0.596078 
0.101961 0.65098 0.596078 0.101961 0.65098 0.596078 
0.101961 0.65098 0.596078 0.101961 0.65098 0.596078 
0.101961 0.65098 0.596078 0.101961 0.65098 0.596078 
0.101961 0.65098 0.596078 0.101961 0.65098 0.596078 
0.101961 0.65098 0.596078 0.101961 0.65098 0.596078 
0.101961 0.65098 0.596078 0.101961 0.65098 0.596078 
0.101961 0.65098 0.596078 0.101961 0.65098 0.596078 
0.101961 0.65098 0.596078 0.101961 0.65098 0.596078 
0.101961 0.65098 0.596078 0.101961 0.65098 0.596078 
0.101961 0.65098 0.596078 0.101961 0.65098 0.596078 
0.101961 0.65098 0.596078 0.101961 0.65098 0.596078 
0.101961 0.65098 0.596078 0.101961 0.65098 0.596078 
0.101961 0.65098 0.596078 0.101961 0.65098 0.596078 
0.101961 0.65098 0.596078 0.101961 0.65098 0.596078 
0.101961 0.65098 0.596078 0.101961 0.65098 0.596078 
0.101961 0.65098 0.596078 0.101961 0.65098 0.596078 
0.101961 0.65098 0.596078 0.101961 0.65098 0.596078 
0.101961 0.65098 0.596078 0.101961 0.65098 0.596078 
0.101961 0.65098 0.596078 0.101961 0.65098 0.596078 
0.101961 0.65098 0.596078 0.101961 0.65098 0.596078 
0.101961 0.65098 0.596078 0.101961 0.65098 0.596078 
0.101961 0.65098 0.596078 0.101961 0.65098 0.596078 
0.101961 0.65098 0.596078 0.101961 0.65098 0.596078 
0.101961 0.65098 0.596078 0.101961 0.65098 0.596078 
0.101961 0.65098 0.596078 0.101961 0.65098 0.596078 
0.101961 0.65098 0.596078 0.101961 0.65098 0.596078 
0.101961 0.65098 0.596078 0.101961 0.65098 0.596078 
0.101961 0.65098 0.596078 0.101961 0.65098 0.596078 
0.101961 0.65098 0.596078 0.101961 0.65098 0.596078 
0.101961 0.65098 0.596078 0.101961 0.65098 0.596078 
0.101961 0.65098 0.596078 0.101961 0.65098 0.596078 
0.101961 0.65098 0.596078 0.101961 0.65098 0.596078 
0.101961 0.65098 0.596078 0.101961 0.65098 0.596078 
0.101961 0.65098 0.596078 0.101961 0.65098 0.596078 
0.101961 0.65098 0.596078 0.101961 0.65098 0.596078 
0.101961 0.65098 0.596078 0.101961 0.65098 0.596078 
0.101961 0.65098 0.596078 0.101961 0.65098 0.596078 
0.101961 0.65098 0.596078 0.101961 0.65098 0.596078 
0.101961 0.65098 0.596078 0.101961 0.65098 0.596078 
0.101961 0.65098 0.596078 0.101961 0.65098 0.596078 
0.101961 0.65098 0.596078 0.101961 0.65098 0.596078 
0.101961 0.65098 0.596078 0.101961 0.65098 0.596078 
0.101961 0.65098 0.596078 0.101961 0.65098 0.596078 
0.101961 0.65098 0.596078 0.101961 0.65098 0.596078 
0.101961 0.65098 0.596078 0.101961 0.65098 0.596078 
0.101961 0.65098 0.596078 0.101961 0.65098 0.596078 
0.101961 0.65098 0.596078 0.101961 0.65098 0.596078 
0.101961 0.65098 0.596078 0.101961 0.65098 0.596078 
0.101961 0.65098 0.596078 0.101961 0.65098 0.596078 
0.101961 0.65098 0.596078 0.101961 0.65098 0.596078 
0.101961 0.65098 0.596078 0.101961 0.65098 0.596078 
0.101961 0.65098 0.596078 0.101961 0.65098 0.596078 
0.101961 0.65098 0.596078 0.101961 0.65098 0.596078 
0.101961 0.65098 0.596078 0.101961 0.65098 0.596078 
0.101961 0.65098 0.596078 0.101961 0.65098 0.596078 
0.101961 0.65098 0.596078 0.101961 0.65098 0.596078 
0.101961 0.65098 0.596078 0.101961 0.65098 0.596078 
0.101961 0.65098 0.596078 0.101961 0.65098 0.596078 
0.101961 0.65098 0.596078 0.101961 0.65098 0.596078 
0.101961 0.65098 0.596078 0.101961 0.65098 0.596078 
0.101961 0.65098 0.596078 0.101961 0.65098 0.596078 
0.101961 0.65098 0.596078 0.101961 0.65098 0.596078 
0.101961 0.65098 0.596078 0.101961 0.65098 0.596078 
0.101961 0.65098 0.596078 0.101961 0.65098 0.596078 
0.101961 0.65098 0.596078 0.101961 0.65098 0.596078 
0.101961 0.65098 0.596078 0.101961 0.65098 0.596078 
0.101961 0.65098 0.596078 0.101961 0.65098 0.596078 
0.101961 0.65098 0.596078 0.101961 0.65098 0.596078 
0.101961 0.65098 0.596078 0.101961 0.65098 0.596078 
0.101961 0.65098 0.596078 0.101961 0.65098 0.596078 
0.101961 0.65098 0.596078 0.101961 0.65098 0.596078 
0.101961 0.65098 0.596078 0.101961 0.65098 0.596078 
0.101961 0.65098 0.596078 0.101961 0.65098 0.596078 
0.101961 0.65098 0.596078 0.101961 0.65098 0.596078 
0.101961 0.65098 0.596078 0.101961 0.65098 0.596078 
0.101961 0.65098 0.596078 0.101961 0.65098 0.596078 
0.101961 0.65098 0.596078 0.101961 0.65098 0.596078 
0.101961 0.65098 0.596078 0.101961 0.65098 0.596078 
0.101961 0.65098 0.596078 0.101961 0.65098 0.596078 
0.101961 0.65098 0.596078 0.101961 0.65098 0.596078 
0.101961 0.65098 0.596078 0.101961 0.65098 0.596078 
0.101961 0.65098 0.596078 0.101961 0.65098 0.596078 
0.101961 0.65098 0.596078 0.101961 0.65098 0.596078 
0.101961 0.65098 0.596078 0.101961 0.65098 0.596078 
0.101961 0.65098 0.596078 0.101961 0.65098 0.596078 
0.101961 0.65098 0.596078 0.101961 0.65098 0.596078 
0.101961 0.65098 0.596078 0.101961 0.65098 0.596078 
0.101961 0.65098 0.596078 0.101961 0.65098 0.596078 
0.101961 0.65098 0.596078 0.101961 0.65098 0.596078 
0.101961 0.65098 0.596078 0.101961 0.65098 0.596078 
0.101961 0.65098 0.596078 0.101961 0.65098 0.596078 
0.101961 0.65098 0.596078 0.101961 0.65098 0.596078 
0.101961 0.65098 0.596078 0.101961 0.65098 0.596078 
0.101961 0.65098 0.596078 0.101961 0.65098 0.596078 
0.101961 0.65098 0.596078 0.101961 0.65098 0.596078 
0.101961 0.65098 0.596078 0.101961 0.65098 0.596078 
0.101961 0.65098 0.596078 0.101961 0.65098 0.596078 
0.101961 0.65098 0.596078 0.101961 0.65098 0.596078 
0.101961 0.65098 0.596078 0.101961 0.65098 0.596078 
0.101961 0.65098 0.596078 0.101961 0.65098 0.596078 
0.101961 0.65098 0.596078 0.101961 0.65098 0.596078 
0.101961 0.65098 0.596078 0.101961 0.65098 0.596078 
0.101961 0.65098 0.596078 0.101961 0.65098 0.596078 
0.101961 0.65098 0.596078 0.101961 0.65098 0.596078 
0.101961 0.65098 0.596078 0.101961 0.65098 0.596078 
0.101961 0.65098 0.596078 0.101961 0.65098 0.596078 
0.101961 0.65098 0.596078 0.101961 0.65098 0.596078 
0.101961 0.65098 0.596078 0.101961 0.65098 0.596078 
0.101961 0.65098 0.596078 0.101961 0.65098 0.596078 
0.101961 0.65098 0.596078 0.101961 0.65098 0.596078 
0.101961 0.65098 0.596078 0.101961 0.65098 0.596078 
0.101961 0.65098 0.596078 0.101961 0.65098 0.596078 
0.101961 0.65098 0.596078 0.101961 0.65098 0.596078 
0.101961 0.65098 0.596078 0.101961 0.65098 0.596078 
0.101961 0.65098 0.596078 0.101961 0.65098 0.596078 
0.101961 0.65098 0.596078 0.101961 0.65098 0.596078 
0.101961 0.65098 0.596078 0.101961 0.65098 0.596078 
0.101961 0.65098 0.596078 0.101961 0.65098 0.596078 
0.101961 0.65098 0.596078 0.101961 0.65098 0.596078 
0.101961 0.65098 0.596078 0.101961 0.65098 0.596078 
0.101961 0.65098 0.596078 0.101961 0.65098 0.596078 
0.101961 0.65098 0.596078 0.101961 0.65098 0.596078 
0.101961 0.65098 0.596078 0.101961 0.65098 0.596078 
0.101961 0.65098 0.596078 0.101961 0.65098 0.596078 
0.101961 0.65098 0.596078 0.101961 0.65098 0.596078 
0.101961 0.65098 0.596078 0.101961 0.65098 0.596078 
0.101961 0.65098 0.596078 0.101961 0.65098 0.596078 
0.101961 0.65098 0.596078 0.101961 0.65098 0.596078 
0.101961 0.65098 0.596078 0.101961 0.65098 0.596078 
0.101961 0.65098 0.596078 0.101961 0.65098 0.596078 
0.101961 0.65098 0.596078 0.101961 0.65098 0.596078 
0.101961 0.65098 0.596078 0.101961 0.65098 0.596078 
0.101961 0.65098 0.596078 0.101961 0.65098 0.596078 
0.101961 0.65098 0.596078 0.101961 0.65098 0.596078 
0.101961 0.65098 0.596078 0.101961 0.65098 0.596078 
0.101961 0.65098 0.596078 0.101961 0.65098 0.596078 
0.101961 0.65098 0.596078 0.101961 0.65098 0.596078 
0.101961 0.65098 0.596078 0.101961 0.65098 0.596078 
0.101961 0.65098 0.596078 0.101961 0.65098 0.596078 
0.101961 0.65098 0.596078 0.101961 0.65098 0.596078 
0.101961 0.65098 0.596078 0.101961 0.65098 0.596078 
0.101961 0.65098 0.596078 0.101961 0.65098 0.596078 
0.101961 0.65098 0.596078 0.101961 0.65098 0.596078 
0.101961 0.65098 0.596078 0.101961 0.65098 0.596078 
0.101961 0.65098 0.596078 0.101961 0.65098 0.596078 
0.101961 0.65098 0.596078 0.101961 0.65098 0.596078 
0.101961 0.65098 0.596078 0.101961 0.65098 0.596078 
0.101961 0.65098 0.596078 0.101961 0.65098 0.596078 
0.101961 0.65098 0.596078 0.101961 0.65098 0.596078 
0.101961 0.65098 0.596078 0.101961 0.65098 0.596078 
0.101961 0.65098 0.596078 0.101961 0.65098 0.596078 
0.101961 0.65098 0.596078 0.101961 0.65098 0.596078 
0.101961 0.65098 0.596078 0.101961 0.65098 0.596078 
0.101961 0.65098 0.596078 0.101961 0.65098 0.596078 
0.101961 0.65098 0.596078 0.101961 0.65098 0.596078 
0.101961 0.65098 0.596078 0.101961 0.65098 0.596078 
0.101961 0.65098 0.596078 0.101961 0.65098 0.596078 
0.101961 0.65098 0.596078 0.101961 0.65098 0.596078 
0.101961 0.65098 0.596078 0.101961 0.65098 0.596078 
0.101961 0.65098 0.596078 0.101961 0.65098 0.596078 
0.101961 0.65098 0.596078 0.101961 0.65098 0.596078 
0.101961 0.65098 0.596078 0.101961 0.65098 0.596078 
0.101961 0.65098 0.596078 0.101961 0.65098 0.596078 
0.101961 0.65098 0.596078 0.101961 0.65098 0.596078 
0.101961 0.65098 0.596078 0.101961 0.65098 0.596078 
0.101961 0.65098 0.596078 0.101961 0.65098 0.596078 
0.101961 0.65098 0.596078 0.101961 0.65098 0.596078 
0.101961 0.65098 0.596078 0.101961 0.65098 0.596078 
0.101961 0.65098 0.596078 0.101961 0.65098 0.596078 
0.101961 0.65098 0.596078 0.101961 0.65098 0.596078 
0.101961 0.65098 0.596078 0.101961 0.65098 0.596078 
0.101961 0.65098 0.596078 0.101961 0.65098 0.596078 
0.101961 0.65098 0.596078 0.101961 0.65098 0.596078 
0.101961 0.65098 0.596078 0.101961 0.65098 0.596078 
0.101961 0.65098 0.596078 0.101961 0.65098 0.596078 
0.101961 0.65098 0.596078 0.101961 0.65098 0.596078 
0.101961 0.65098 0.596078 0.101961 0.65098 0.596078 
0.101961 0.65098 0.596078 0.101961 0.65098 0.596078 
0.101961 0.65098 0.596078 0.101961 0.65098 0.596078 
0.101961 0.65098 0.596078 0.101961 0.65098 0.596078 
0.101961 0.65098 0.596078 0.101961 0.65098 0.596078 
0.101961 0.65098 0.596078 0.101961 0.65098 0.596078 
0.101961 0.65098 0.596078 0.101961 0.65098 0.596078 
0.101961 0.65098 0.596078 0.101961 0.65098 0.596078 
0.101961 0.65098 0.596078 0.101961 0.65098 0.596078 
0.101961 0.65098 0.596078 0.101961 0.65098 0.596078 
0.101961 0.65098 0.596078 0.101961 0.65098 0.596078 
0.101961 0.65098 0.596078 0.101961 0.65098 0.596078 
0.101961 0.65098 0.596078 0.101961 0.65098 0.596078 
0.101961 0.65098 0.596078 0.101961 0.65098 0.596078 
0.101961 0.65098 0.596078 0.101961 0.65098 0.596078 
0.101961 0.65098 0.596078 0.101961 0.65098 0.596078 
0.101961 0.65098 0.596078 0.101961 0.65098 0.596078 
0.101961 0.65098 0.596078 0.101961 0.65098 0.596078 
0.101961 0.65098 0.596078 0.101961 0.65098 0.596078 
0.101961 0.65098 0.596078 0.101961 0.65098 0.596078 
0.101961 0.65098 0.596078 0.101961 0.65098 0.596078 
0.101961 0.65098 0.596078 0.101961 0.65098 0.596078 
0.101961 0.65098 0.596078 0.101961 0.65098 0.596078 
0.101961 0.65098 0.596078 0.101961 0.65098 0.596078 
0.101961 0.65098 0.596078 0.101961 0.65098 0.596078 
0.101961 0.65098 0.596078 0.101961 0.65098 0.596078 
0.101961 0.65098 0.596078 0.101961 0.65098 0.596078 
0.101961 0.65098 0.596078 0.101961 0.65098 0.596078 
0.101961 0.65098 0.596078 0.101961 0.65098 0.596078 
0.101961 0.65098 0.596078 0.101961 0.65098 0.596078 
0.101961 0.65098 0.596078 0.101961 0.65098 0.596078 
0.101961 0.65098 0.596078 0.101961 0.65098 0.596078 
0.101961 0.65098 0.596078 0.101961 0.65098 0.596078 
0.101961 0.65098 0.596078 0.101961 0.65098 0.596078 
0.101961 0.65098 0.596078 0.101961 0.65098 0.596078 
0.101961 0.65098 0.596078 0.101961 0.65098 0.596078 
0.101961 0.65098 0.596078 0.101961 0.65098 0.596078 
0.101961 0.65098 0.596078 0.101961 0.65098 0.596078 
0.101961 0.65098 0.596078 0.101961 0.65098 0.596078 
0.101961 0.65098 0.596078 0.101961 0.65098 0.596078 
0.101961 0.65098 0.596078 0.101961 0.65098 0.596078 
0.101961 0.65098 0.596078 0.101961 0.65098 0.596078 
0.101961 0.65098 0.596078 0.101961 0.65098 0.596078 
0.101961 0.65098 0.596078 0.101961 0.65098 0.596078 
0.101961 0.65098 0.596078 0.101961 0.65098 0.596078 
0.101961 0.65098 0.596078 0.101961 0.65098 0.596078 
0.101961 0.65098 0.596078 0.101961 0.65098 0.596078 
0.101961 0.65098 0.596078 0.101961 0.65098 0.596078 
0.101961 0.65098 0.596078 0.101961 0.65098 0.596078 
0.101961 0.65098 0.596078 0.101961 0.65098 0.596078 
0.101961 0.65098 0.596078 0.101961 0.65098 0.596078 
0.101961 0.65098 0.596078 0.101961 0.65098 0.596078 
0.101961 0.65098 0.596078 0.101961 0.65098 0.596078 
0.101961 0.65098 0.596078 0.101961 0.65098 0.596078 
0.101961 0.65098 0.596078 0.101961 0.65098 0.596078 
0.101961 0.65098 0.596078 0.101961 0.65098 0.596078 
0.101961 0.65098 0.596078 0.101961 0.65098 0.596078 
0.101961 0.65098 0.596078 0.101961 0.65098 0.596078 
0.101961 0.65098 0.596078 0.101961 0.65098 0.596078 
0.101961 0.65098 0.596078 0.101961 0.65098 0.596078 
0.101961 0.65098 0.596078 0.101961 0.65098 0.596078 
0.101961 0.65098 0.596078 0.101961 0.65098 0.596078 
0.101961 0.65098 0.596078 0.101961 0.65098 0.596078 
0.101961 0.65098 0.596078 0.101961 0.65098 0.596078 
0.101961 0.65098 0.596078 0.101961 0.65098 0.596078 
0.101961 0.65098 0.596078 0.101961 0.65098 0.596078 
0.101961 0.65098 0.596078 0.101961 0.65098 0.596078 
0.101961 0.65098 0.596078 0.101961 0.65098 0.596078 
0.101961 0.65098 0.596078 0.101961 0.65098 0.596078 
0.101961 0.65098 0.596078 0.101961 0.65098 0.596078 
0.101961 0.65098 0.596078 0.101961 0.65098 0.596078 
0.101961 0.65098 0.596078 0.101961 0.65098 0.596078 
0.101961 0.65098 0.596078 0.101961 0.65098 0.596078 
0.101961 0.65098 0.596078 0.101961 0.65098 0.596078 
0.101961 0.65098 0.596078 0.101961 0.65098 0.596078 
0.101961 0.65098 0.596078 0.101961 0.65098 0.596078 
0.101961 0.65098 0.596078 0.101961 0.65098 0.596078 
0.101961 0.65098 0.596078 0.101961 0.65098 0.596078 
0.101961 0.65098 0.596078 0.101961 0.65098 0.596078 
0.101961 0.65098 0.596078 0.101961 0.65098 0.596078 
0.101961 0.65098 0.596078 0.101961 0.65098 0.596078 
0.101961 0.65098 0.596078 0.101961 0.65098 0.596078 
0.101961 0.65098 0.596078 0.101961 0.65098 0.596078 
0.101961 0.65098 0.596078 0.101961 0.65098 0.596078 
0.101961 0.65098 0.596078 0.101961 0.65098 0.596078 
0.101961 0.65098 0.596078 0.101961 0.65098 0.596078 
0.101961 0.65098 0.596078 0.101961 0.65098 0.596078 
0.101961 0.65098 0.596078 0.101961 0.65098 0.596078 
0.101961 0.65098 0.596078 0.101961 0.65098 0.596078 
0.101961 0.65098 0.596078 0.101961 0.65098 0.596078 
0.101961 0.65098 0.596078 0.101961 0.65098 0.596078 
0.101961 0.65098 0.596078 0.101961 0.65098 0.596078 
0.101961 0.65098 0.596078 0.101961 0.65098 0.596078 
0.101961 0.65098 0.596078 0.101961 0.65098 0.596078 
0.101961 0.65098 0.596078 0.101961 0.65098 0.596078 
0.101961 0.65098 0.596078 0.101961 0.65098 0.596078 
0.101961 0.65098 0.596078 0.101961 0.65098 0.596078 
0.101961 0.65098 0.596078 0.101961 0.65098 0.596078 
0.101961 0.65098 0.596078 0.101961 0.65098 0.596078 
0.101961 0.65098 0.596078 0.101961 0.65098 0.596078 
0.101961 0.65098 0.596078 0.101961 0.65098 0.596078 
0.101961 0.65098 0.596078 0.101961 0.65098 0.596078 
0.101961 0.65098 0.596078 0.101961 0.65098 0.596078 
0.101961 0.65098 0.596078 0.101961 0.65098 0.596078 
0.101961 0.65098 0.596078 0.101961 0.65098 0.596078 
0.101961 0.65098 0.596078 0.101961 0.65098 0.596078 
0.101961 0.65098 0.596078 0.101961 0.65098 0.596078 
0.101961 0.65098 0.596078 0.101961 0.65098 0.596078 
0.101961 0.65098 0.596078 0.101961 0.65098 0.596078 
0.101961 0.65098 0.596078 0.101961 0.65098 0.596078 
0.101961 0.65098 0.596078 0.101961 0.65098 0.596078 
0.101961 0.65098 0.596078 0.101961 0.65098 0.596078 
0.101961 0.65098 0.596078 0.101961 0.65098 0.596078 
0.101961 0.65098 0.596078 0.101961 0.65098 0.596078 
0.101961 0.65098 0.596078 0.101961 0.65098 0.596078 
0.101961 0.65098 0.596078 0.101961 0.65098 0.596078 
0.101961 0.65098 0.596078 0.101961 0.65098 0.596078 
0.101961 0.65098 0.596078 0.101961 0.65098 0.596078 
0.101961 0.65098 0.596078 0.101961 0.65098 0.596078 
0.101961 0.65098 0.596078 0.101961 0.65098 0.596078 
0.101961 0.65098 0.596078 0.101961 0.65098 0.596078 
0.101961 0.65098 0.596078 0.101961 0.65098 0.596078 
0.101961 0.65098 0.596078 0.101961 0.65098 0.596078 
0.101961 0.65098 0.596078 0.101961 0.65098 0.596078 
0.101961 0.65098 0.596078 0.101961 0.65098 0.596078 
0.101961 0.65098 0.596078 0.101961 0.65098 0.596078 
0.101961 0.65098 0.596078 0.101961 0.65098 0.596078 
0.101961 0.65098 0.596078 0.101961 0.65098 0.596078 
0.101961 0.65098 0.596078 0.101961 0.65098 0.596078 
0.101961 0.65098 0.596078 0.101961 0.65098 0.596078 
0.101961 0.65098 0.596078 0.101961 0.65098 0.596078 
0.101961 0.65098 0.596078 0.101961 0.65098 0.596078 
0.101961 0.65098 0.596078 0.101961 0.65098 0.596078 
0.101961 0.65098 0.596078 0.101961 0.65098 0.596078 
0.101961 0.65098 0.596078 0.101961 0.65098 0.596078 
0.101961 0.65098 0.596078 0.101961 0.65098 0.596078 
0.101961 0.65098 0.596078 0.101961 0.65098 0.596078 
0.101961 0.65098 0.596078 0.101961 0.65098 0.596078 
0.101961 0.65098 0.596078 0.101961 0.65098 0.596078 
0.101961 0.65098 0.596078 0.101961 0.65098 0.596078 
0.101961 0.65098 0.596078 0.101961 0.65098 0.596078 
0.101961 0.65098 0.596078 0.101961 0.65098 0.596078 
0.101961 0.65098 0.596078 0.101961 0.65098 0.596078 
0.101961 0.65098 0.596078 0.101961 0.65098 0.596078 
0.101961 0.65098 0.596078 0.101961 0.65098 0.596078 
0.101961 0.65098 0.596078 0.101961 0.65098 0.596078 
0.101961 0.65098 0.596078 0.101961 0.65098 0.596078 
0.101961 0.65098 0.596078 0.101961 0.65098 0.596078 
0.101961 0.65098 0.596078 0.101961 0.65098 0.596078 
0.101961 0.65098 0.596078 0.101961 0.65098 0.596078 
0.101961 0.65098 0.596078 0.101961 0.65098 0.596078 
0.101961 0.65098 0.596078 0.101961 0.65098 0.596078 
0.101961 0.65098 0.596078 0.101961 0.65098 0.596078 
0.101961 0.65098 0.596078 0.101961 0.65098 0.596078 
0.101961 0.65098 0.596078 0.101961 0.65098 0.596078 
0.101961 0.65098 0.596078 0.101961 0.65098 0.596078 
0.101961 0.65098 0.596078 0.101961 0.65098 0.596078 
0.101961 0.65098 0.596078 0.101961 0.65098 0.596078 