# vtk DataFile Version 4.2
vtk output
ASCII
DATASET POLYDATA
POINTS 3844 float
373 59.0087 149.017 373 59.0087 149.017 373 59.0087 149.017 
373 59.0087 149.017 373 59.0088 149.017 372.002 58.5109 150.015 
372.002 58.5109 150.015 372.002 58.5109 150.015 372.002 58.5109 150.015 
372.002 58.511 150.015 372.002 58.511 150.015 372.002 58.511 150.015 
373 59.0087 149.017 372.002 58.511 150.015 370 56.6579 151.669 
370 56.6578 151.669 370 56.6578 151.669 370 56.6578 151.669 
370 56.6579 151.669 371.004 58.0131 151.009 371.004 58.0131 151.009 
371.004 58.0131 151.009 372.002 58.5109 150.015 371.004 58.0131 151.009 
371.004 58.0131 151.009 372.002 58.511 150.015 370 56.6578 151.67 
370 56.6578 151.67 370 56.6578 151.67 370 56.6578 151.67 
370 56.6578 151.67 370 56.6578 151.669 370 56.6578 151.669 
371.004 58.0131 151.009 369.001 55.9992 153.274 369.001 55.9989 153.274 
369.001 55.9994 153.274 369.001 55.9993 153.274 369.001 55.9998 153.274 
369.001 56.0002 153.274 369.001 56 153.274 370 56.6578 151.67 
369.001 56.0006 153.274 369.001 56.0008 153.274 369.001 56.0007 153.274 
370 56.6578 151.67 369.001 56.001 153.274 367.424 54.6831 155.082 
367.423 54.6803 155.084 367.415 54.6677 155.09 369.001 55.999 153.274 
367.426 54.6869 155.081 367.421 54.6773 155.086 369.001 55.9996 153.274 
369.001 56.0001 153.274 369.001 56.0002 153.274 369.001 56.0006 153.274 
369.001 56.0009 153.275 367.378 54.6036 155.122 367.371 54.5903 155.128 
367.376 54.6003 155.124 367.374 54.5956 155.126 367.395 54.6322 155.108 
367.389 54.6222 155.113 367.391 54.6254 155.112 367.405 54.6502 155.099 
367.395 54.6329 155.109 367.414 54.665 155.092 367.424 54.6834 155.084 
367.413 54.6637 155.094 367.426 54.687 155.082 367.42 54.6762 155.088 
369.001 56.0002 153.274 367.43 54.6932 155.079 367.429 54.6916 155.08 
365.428 53.1467 157.126 365.425 53.1464 157.13 367.37 54.5886 155.129 
365.429 53.1492 157.126 365.426 53.1494 157.13 367.373 54.5947 155.127 
367.38 54.6079 155.121 367.38 54.6067 155.122 367.386 54.618 155.117 
367.411 54.6604 155.095 367.392 54.6288 155.111 367.4 54.6425 155.105 
367.426 54.6861 155.083 365.419 53.1449 157.135 365.417 53.1438 157.137 
365.414 53.1474 157.142 365.419 53.1437 157.135 365.422 53.1469 157.133 
365.418 53.1536 157.141 365.429 53.1526 157.129 365.428 53.1541 157.131 
367.378 54.6044 155.123 365.431 53.1524 157.127 365.431 53.1538 157.128 
367.385 54.6172 155.117 363.567 51.7127 158.996 363.569 51.7155 158.995 
363.57 51.7187 159 363.569 51.7172 158.999 365.407 53.1523 157.152 
365.404 53.1559 157.158 365.427 53.1533 157.131 365.406 53.1568 157.156 
365.403 53.1576 157.16 363.564 51.7105 159.002 363.562 51.7097 159.008 
363.562 51.7102 159.007 363.571 51.7215 159.003 363.569 51.7211 159.009 
363.572 51.7232 159.004 363.572 51.7239 159.006 360.943 50.0681 161.527 
360.997 50.1185 161.49 363.56 51.71 159.015 363.561 51.7132 159.019 
363.566 51.718 159.013 363.562 51.7149 159.019 363.563 51.7156 159.016 
363.571 51.7229 159.008 360.893 50.03 161.565 360.869 50.0112 161.583 
360.806 49.9824 161.643 360.7 49.9339 161.743 360.757 49.9858 161.702 
361.007 50.153 161.496 363.559 51.7109 159.02 361.063 50.1843 161.447 
361.089 50.2116 161.431 361.121 50.233 161.404 363.56 51.7129 159.021 
361.126 50.2384 161.401 360.172 49.6259 162.205 360.014 49.5274 162.344 
360.313 49.7084 162.083 360.136 49.602 162.238 360.249 49.6724 162.142 
360.423 49.7791 161.988 360.615 49.8852 161.818 360.406 49.7791 162.009 
360.451 49.8106 161.972 360.61 49.9057 161.833 359.927 49.4713 162.421 
359.895 49.4508 162.449 359.925 49.4742 162.422 359.911 49.4606 162.435 
360.001 49.5196 162.358 360.008 49.5333 162.353 360.167 49.634 162.215 
360.251 49.6854 162.145 357.315 47.7941 164.887 357.314 47.793 164.888 
357.314 47.7938 164.888 357.315 47.7945 164.886 357.315 47.7938 164.887 
359.909 49.4617 162.437 357.315 47.7941 164.887 357.314 47.7946 164.887 
357.315 47.7946 164.887 359.924 49.4761 162.426 359.923 49.4783 162.426 
359.945 49.4937 162.409 359.946 49.4954 162.408 360.045 49.5578 162.323 
357.313 47.7919 164.889 357.313 47.7915 164.889 357.313 47.7926 164.889 
357.313 47.7915 164.889 357.313 47.7938 164.889 357.314 47.7929 164.888 
357.314 47.7941 164.888 357.314 47.7944 164.889 357.314 47.7945 164.888 
359.913 49.4733 162.436 355.5 47.0066 167.015 355.499 47.0065 167.016 
355.499 47.0066 167.016 357.313 47.7919 164.889 355.499 47.0065 167.016 
355.499 47.0066 167.016 357.313 47.7931 164.89 357.313 47.7935 164.89 
357.313 47.7938 164.889 357.313 47.794 164.89 357.313 47.7942 164.89 
355.499 47.0065 167.016 355.499 47.0065 167.017 355.499 47.0066 167.017 
355.499 47.0065 167.016 355.499 47.0066 167.016 355.499 47.0066 167.016 
355.499 47.0066 167.017 357.313 47.7938 164.89 352.806 45.3408 169.576 
352.789 45.3313 169.593 352.753 45.3106 169.631 352.798 45.3362 169.584 
352.79 45.3318 169.592 355.498 47.0065 167.017 355.498 47.0065 167.017 
355.499 47.0065 167.017 355.498 47.0066 167.017 355.498 47.0066 167.017 
352.646 45.2491 169.742 352.504 45.1679 169.889 352.576 45.2087 169.815 
352.574 45.2079 169.817 352.671 45.2634 169.716 352.587 45.2153 169.803 
352.714 45.2881 169.672 352.781 45.3266 169.602 352.719 45.291 169.666 
352.756 45.3125 169.627 355.498 47.0065 167.017 352.42 45.1195 169.977 
352.35 45.0792 170.05 352.212 45.0005 170.193 352.423 45.1215 169.974 
352.533 45.1845 169.859 352.28 45.0393 170.123 352.42 45.1197 169.977 
352.653 45.253 169.735 352.744 45.3053 169.64 352.076 44.9222 170.335 
352.002 44.8799 170.411 352.018 44.8893 170.395 352.043 44.9033 170.369 
352.083 44.9264 170.328 352.041 44.9024 170.371 352.199 44.993 170.207 
352.369 45.0907 170.03 352.276 45.0374 170.126 352.147 44.9629 170.261 
352.229 45.0104 170.175 351.991 44.8733 170.423 351.988 44.8719 170.426 
352.039 44.9009 170.374 352.013 44.8864 170.4 352.109 44.9414 170.3 
352.194 44.99 170.212 349.652 43.0058 173.669 349.652 43.0058 173.669 
349.652 43.0058 173.669 349.653 43.0058 173.669 349.652 43.0058 173.669 
351.988 44.8716 170.427 349.652 43.0058 173.67 349.652 43.0058 173.67 
349.652 43.0059 173.67 349.652 43.0058 173.669 349.652 43.0058 173.669 
349.652 43.0059 173.67 349.652 43.0059 173.67 346.893 41.2973 176.468 
346.866 41.2852 176.491 346.862 41.284 176.493 346.871 41.2875 176.487 
346.87 41.2873 176.487 349.652 43.0059 173.67 349.652 43.0058 173.67 
346.713 41.2181 176.617 346.569 41.1554 176.735 346.639 41.186 176.677 
346.806 41.259 176.54 346.692 41.2089 176.635 346.8 41.2561 176.546 
346.777 41.2465 176.564 346.635 41.1848 176.68 346.849 41.2781 176.505 
346.792 41.2531 176.552 346.815 41.2629 176.533 346.44 41.1 176.839 
346.38 41.0741 176.888 346.183 40.99 177.045 346.498 41.1249 176.792 
346.678 41.2032 176.646 346.537 41.1419 176.761 346.246 41.0169 176.995 
346.416 41.0897 176.859 346.678 41.2035 176.645 346.782 41.2485 176.56 
345.907 40.8724 177.264 345.88 40.8611 177.285 345.869 40.8567 177.294 
346.021 40.9207 177.174 345.929 40.8819 177.246 346.017 40.9192 177.177 
345.909 40.8732 177.263 345.965 40.8972 177.218 345.989 40.9074 177.199 
346.216 41.0038 177.019 346.381 41.0744 176.887 346.242 41.0149 176.999 
346.071 40.9422 177.134 346.16 40.9801 177.064 340.576 40.3815 180.319 
340.787 40.3954 180.236 345.89 40.8655 177.277 341.261 40.4433 180.061 
345.94 40.8864 177.238 341.341 40.4535 180.038 341.365 40.4606 180.034 
345.981 40.9041 177.205 346.077 40.9447 177.13 341.036 40.4513 180.18 
341.265 40.4592 180.083 339.343 40.2488 180.785 339.101 40.22 180.873 
338.993 40.2181 180.916 338.498 40.2053 181.129 339.711 40.2978 180.669 
339.763 40.3126 180.644 341.19 40.4349 180.093 341.35 40.4591 180.044 
341.233 40.4546 180.1 340.534 40.4362 180.418 340.994 40.4483 180.21 
335.369 39.8889 182.144 334.783 39.8124 182.355 334.743 39.8488 182.35 
336.853 40.04 181.694 336.315 39.9646 181.873 336.835 40.0338 181.735 
338.785 40.2074 181.01 337.826 40.1453 181.393 337.471 40.1378 181.513 
338.923 40.3161 181.064 339.013 40.3576 181.086 340.565 40.4228 180.403 
340.175 40.4235 180.597 339.829 40.4191 180.758 332.757 39.7065 183.051 
332.218 39.6372 183.284 332.062 39.7025 183.316 333.525 39.7431 182.782 
333.032 39.679 182.983 334.206 39.7838 182.541 333.893 39.7334 182.713 
335.114 39.8664 182.394 338.82 40.3015 181.115 338.327 40.2989 181.345 
338.294 40.3399 181.409 338.78 40.3582 181.206 339.797 40.413 180.776 
339.475 40.4069 180.928 337.506 40.3378 181.789 338.5 40.3608 181.344 
339.148 40.3924 181.067 327.478 39.6121 184.842 331.537 39.6488 183.519 
331.344 39.5837 183.661 332.769 39.6456 183.184 327.947 39.7021 184.706 
330.316 39.7408 184.004 334.95 40.0716 182.593 335.784 40.2596 182.512 
337.552 40.3076 181.758 337.014 40.3357 182.048 338.462 40.3423 181.348 
339.073 40.3845 181.1 336.718 40.3585 182.199 324.778 39.5592 185.749 
326.956 39.5243 185.042 325.154 39.6432 185.621 326.725 39.6861 185.149 
332.666 39.7525 183.504 333.874 39.8764 183.03 334.697 40.0261 182.763 
333.865 39.9278 183.057 332.465 39.9284 183.599 333.592 39.9467 183.135 
336.012 40.3666 182.55 336.088 40.3953 182.553 336.612 40.346 182.258 
336.426 40.3755 182.376 336.321 40.3855 182.425 321.528 39.3109 186.834 
323.061 39.5337 186.321 323.756 39.3464 186.272 319.13 39.7631 187.181 
318.515 39.6953 187.34 319.371 39.5521 187.135 320.92 39.7039 186.812 
321.764 39.7765 186.669 324.565 39.7276 185.903 331.549 39.8256 184.237 
332.4 39.8883 183.747 331.691 39.9187 184.204 333.283 39.8735 183.295 
323.116 39.9271 186.544 325.891 40.0074 185.903 329.026 40.1168 185.101 
331.515 39.994 184.257 331.416 40.6264 185.826 331.562 40.6733 185.852 
336.165 40.3996 182.523 331.599 40.6881 185.863 336.244 40.3871 182.476 
331.368 40.6369 185.863 331.524 40.6727 185.869 319.31 39.3713 187.286 
320.699 39.3618 186.928 328.619 39.4502 185.195 315.137 40.0181 188.173 
317.578 39.6442 187.677 331.268 39.9746 184.567 330.858 40.1922 185.128 
319.253 40.1455 187.622 331.036 40.4777 185.721 331.437 40.6314 185.834 
[...]
POINT_DATA 3844
COLOR_SCALARS scalars 3
0.101961 0.65098 0.596078 0.101961 0.65098 0.596078 0.101961 0.65098 0.596078 
0.101961 0.65098 0.596078 0.101961 0.65098 0.596078 
0.101961 0.65098 0.596078 0.101961 0.65098 0.596078 
0.101961 0.65098 0.596078 0.101961 0.65098 0.596078 
0.101961 0.65098 0.596078 0.101961 0.65098 0.596078 
0.101961 0.65098 0.596078 0.101961 0.65098 0.596078 
0.101961 0.65098 0.596078 0.101961 0.65098 0.596078 
0.101961 0.65098 0.596078 0.101961 0.65098 0.596078 
0.101961 0.65098 0.596078 0.101961 0.65098 0.596078 
0.101961 0.65098 0.596078 0.101961 0.65098 0.596078 
0.101961 0.65098 0.596078 0.101961 0.65098 0.596078 
0.101961 0.65098 0.596078 0.101961 0.65098 0.596078 
0.101961 0.65098 0.596078 0.101961 0.65098 0.596078 
0.101961 0.65098 0.596078 0.101961 0.65098 0.596078 
0.101961 0.65098 0.596078 0.101961 0.65098 0.596078 
0.101961 0.65098 0.596078 0.101961 0.65098 0.596078 
0.101961 0.65098 0.596078 0.101961 0.65098 0.596078 
0.101961 0.65098 0.596078 0.101961 0.65098 0.596078 
0.101961 0.65098 0.596078 0.101961 0.65098 0.596078 
0.101961 0.65098 0.596078 0.101961 0.65098 0.596078 
0.101961 0.65098 0.596078 0.101961 0.65098 0.596078 
0.101961 0.65098 0.596078 0.101961 0.65098 0.596078 
0.101961 0.65098 0.596078 0.101961 0.65098 0.596078 
0.101961 0.65098 0.596078 0.101961 0.65098 0.596078 
0.101961 0.65098 0.596078 0.101961 0.65098 0.596078 
0.101961 0.65098 0.596078 0.101961 0.65098 0.596078 
0.101961 0.65098 0.596078 0.101961 0.65098 0.596078 
0.101961 0.65098 0.596078 0.101961 0.65098 0.596078 
0.101961 0.65098 0.596078 0.101961 0.65098 0.596078 
0.101961 0.65098 0.596078 0.101961 0.65098 0.596078 
0.101961 0.65098 0.596078 0.101961 0.65098 0.596078 
0.101961 0.65098 0.596078 0.101961 0.65098 0.596078 
0.101961 0.65098 0.596078 0.101961 0.65098 0.596078 
0.101961 0.65098 0.596078 0.101961 0.65098 0.596078 
0.101961 0.65098 0.596078 0.101961 0.65098 0.596078 
0.101961 0.65098 0.596078 0.101961 0.65098 0.596078 
0.101961 0.65098 0.596078 0.101961 0.65098 0.596078 
0.101961 0.65098 0.596078 0.101961 0.65098 0.596078 
0.101961 0.65098 0.596078 0.101961 0.65098 0.596078 
0.101961 0.65098 0.596078 0.101961 0.65098 0.596078 
0.101961 0.65098 0.596078 0.101961 0.65098 0.596078 
0.101961 0.65098 0.596078 0.101961 0.65098 0.596078 
0.101961 0.65098 0.596078 0.101961 0.65098 0.596078 
0.101961 0.65098 0.596078 0.101961 0.65098 0.596078 
0.101961 0.65098 0.596078 0.101961 0.65098 0.596078 
0.101961 0.65098 0.596078 0.101961 0.65098 0.596078 
0.101961 0.65098 0.596078 0.101961 0.65098 0.596078 
0.101961 0.65098 0.596078 0.101961 0.65098 0.596078 
0.101961 0.65098 0.596078 0.101961 0.65098 0.596078 
0.101961 0.65098 0.596078 0.101961 0.65098 0.596078 
0.101961 0.65098 0.596078 0.101961 0.65098 0.596078 
0.101961 0.65098 0.596078 0.101961 0.65098 0.596078 
0.101961 0.65098 0.596078 0.101961 0.65098 0.596078 
0.101961 0.65098 0.596078 0.101961 0.65098 0.596078 
0.101961 0.65098 0.596078 0.101961 0.65098 0.596078 
0.101961 0.65098 0.596078 0.101961 0.65098 0.596078 
0.101961 0.65098 0.596078 0.101961 0.65098 0.596078 
0.101961 0.65098 0.596078 0.101961 0.65098 0.596078 
0.101961 0.65098 0.596078 0.101961 0.65098 0.596078 
0.101961 0.65098 0.596078 0.101961 0.65098 0.596078 
0.101961 0.65098 0.596078 0.101961 0.65098 0.596078 
0.101961 0.65098 0.596078 0.101961 0.65098 0.596078 
0.101961 0.65098 0.596078 0.101961 0.65098 0.596078 
0.101961 0.65098 0.596078 0.101961 0.65098 0.596078 
0.101961 0.65098 0.596078 0.101961 0.65098 0.596078 
0.101961 0.65098 0.596078 0.101961 0.65098 0.596078 
0.101961 0.65098 0.596078 0.101961 0.65098 0.596078 
0.101961 0.65098 0.596078 0.101961 0.65098 0.596078 
0.101961 0.65098 0.596078 0.101961 0.65098 0.596078 
0.101961 0.65098 0.596078 0.101961 0.65098 0.596078 
0.101961 0.65098 0.596078 0.101961 0.65098 0.596078 
0.101961 0.65098 0.596078 0.101961 0.65098 0.596078 
0.101961 0.65098 0.596078 0.101961 0.65098 0.596078 
0.101961 0.65098 0.596078 0.101961 0.65098 0.596078 
0.101961 0.65098 0.596078 0.101961 0.65098 0.596078 
0.101961 0.65098 0.596078 0.101961 0.65098 0.596078 
0.101961 0.65098 0.596078 0.101961 0.65098 0.596078 
0.101961 0.65098 0.596078 0.101961 0.65098 0.596078 
0.101961 0.65098 0.596078 0.101961 0.65098 0.596078 
0.101961 0.65098 0.596078 0.101961 0.65098 0.596078 
0.101961 0.65098 0.596078 0.101961 0.65098 0.596078 
0.101961 0.65098 0.596078 0.101961 0.65098 0.596078 
0.101961 0.65098 0.596078 0.101961 0.65098 0.596078 
0.101961 0.65098 0.596078 0.101961 0.65098 0.596078 
0.101961 0.65098 0.596078 0.101961 0.65098 0.596078 
0.101961 0.65098 0.596078 0.101961 0.65098 0.596078 
0.101961 0.65098 0.596078 0.101961 0.65098 0.596078 
0.101961 0.65098 0.596078 0.101961 0.65098 0.596078 
0.101961 0.65098 0.596078 0.101961 0.65098 0.596078 
0.101961 0.65098 0.596078 0.101961 0.65098 0.596078 
0.101961 0.65098 0.596078 0.101961 0.65098 0.596078 
0.101961 0.65098 0.596078 0.101961 0.65098 0.596078 
0.101961 0.65098 0.596078 0.101961 0.65098 0.596078 
0.101961 0.65098 0.596078 0.101961 0.65098 0.596078 
0.101961 0.65098 0.596078 0.101961 0.65098 0.596078 
0.101961 0.65098 0.596078 0.101961 0.65098 0.596078 
0.101961 0.65098 0.596078 0.101961 0.65098 0.596078 
0.101961 0.65098 0.596078 0.101961 0.65098 0.596078 
0.101961 0.65098 0.596078 0.101961 0.65098 0.596078 
0.101961 0.65098 0.596078 0.101961 0.65098 0.596078 
0.101961 0.65098 0.596078 0.101961 0.65098 0.596078 
0.101961 0.65098 0.596078 0.101961 0.65098 0.596078 
0.101961 0.65098 0.596078 0.101961 0.65098 0.596078 
0.101961 0.65098 0.596078 0.101961 0.65098 0.596078 
0.101961 0.65098 0.596078 0.101961 0.65098 0.596078 
0.101961 0.65098 0.596078 0.101961 0.65098 0.596078 
0.101961 0.65098 0.596078 0.101961 0.65098 0.596078 
0.101961 0.65098 0.596078 0.101961 0.65098 0.596078 
0.101961 0.65098 0.596078 0.101961 0.65098 0.596078 
0.101961 0.65098 0.596078 0.101961 0.65098 0.596078 
0.101961 0.65098 0.596078 0.101961 0.65098 0.596078 
0.101961 0.65098 0.596078 0.101961 0.65098 0.596078 
0.101961 0.65098 0.596078 0.101961 0.65098 0.596078 
0.101961 0.65098 0.596078 0.101961 0.65098 0.596078 
0.101961 0.65098 0.596078 0.101961 0.65098 0.596078 
0.101961 0.65098 0.596078 0.101961 0.65098 0.596078 
0.101961 0.65098 0.596078 0.101961 0.65098 0.596078 
0.101961 0.65098 0.596078 0.101961 0.65098 0.596078 
0.101961 0.65098 0.596078 0.101961 0.65098 0.596078 
0.101961 0.65098 0.596078 0.101961 0.65098 0.596078 
0.101961 0.65098 0.596078 0.101961 0.65098 0.596078 
0.101961 0.65098 0.596078 0.101961 0.65098 0.596078 
0.101961 0.65098 0.596078 0.101961 0.65098 0.596078 
0.101961 0.65098 0.596078 0.101961 0.65098 0.596078 
0.101961 0.65098 0.596078 0.101961 0.65098 0.596078 
0.101961 0.65098 0.596078 0.101961 0.65098 0.596078 
0.101961 0.65098 0.596078 0.101961 0.65098 0.596078 
0.101961 0.65098 0.596078 0.101961 0.65098 0.596078 
0.101961 0.65098 0.596078 0.101961 0.65098 0.596078 
0.101961 0.65098 0.596078 0.101961 0.65098 0.596078 
0.101961 0.65098 0.596078 0.101961 0.65098 0.596078 
0.101961 0.65098 0.596078 0.101961 0.65098 0.596078 
0.101961 0.65098 0.596078 0.101961 0.65098 0.596078 
0.101961 0.65098 0.596078 0.101961 0.65098 0.596078 
0.101961 0.65098 0.596078 0.101961 0.65098 0.596078 
0.101961 0.65098 0.596078 0.101961 0.65098 0.596078 
0.101961 0.65098 0.596078 0.101961 0.65098 0.596078 
0.101961 0.65098 0.596078 0.101961 0.65098 0.596078 
0.101961 0.65098 0.596078 0.101961 0.65098 0.596078 
0.101961 0.65098 0.596078 0.101961 0.65098 0.596078 
0.101961 0.65098 0.596078 0.101961 0.65098 0.596078 
0.101961 0.65098 0.596078 0.101961 0.65098 0.596078 
0.101961 0.65098 0.596078 0.101961 0.65098 0.596078 
0.101961 0.65098 0.596078 0.101961 0.65098 0.596078 
0.101961 0.65098 0.596078 0.101961 0.65098 0.596078 
0.101961 0.65098 0.596078 0.101961 0.65098 0.596078 
0.101961 0.65098 0.596078 0.101961 0.65098 0.596078 
0.101961 0.65098 0.596078 0.101961 0.65098 0.596078 
0.101961 0.65098 0.596078 0.101961 0.65098 0.596078 
0.101961 0.65098 0.596078 0.101961 0.65098 0.596078 
0.101961 0.65098 0.596078 0.101961 0.65098 0.596078 
0.101961 0.65098 0.596078 0.101961 0.65098 0.596078 
0.101961 0.65098 0.596078 0.101961 0.65098 0.596078 
0.101961 0.65098 0.596078 0.101961 0.65098 0.596078 
0.101961 0.65098 0.596078 0.101961 0.65098 0.596078 
0.101961 0.65098 0.596078 0.101961 0.65098 0.596078 
0.101961 0.65098 0.596078 0.101961 0.65098 0.596078 
0.101961 0.65098 0.596078 0.101961 0.65098 0.596078 
0.101961 0.65098 0.596078 0.101961 0.65098 0.596078 
0.101961 0.65098 0.596078 0.101961 0.65098 0.596078 
0.101961 0.65098 0.596078 0.101961 0.65098 0.596078 
0.101961 0.65098 0.596078 0.101961 0.65098 0.596078 
0.101961 0.65098 0.596078 0.101961 0.65098 0.596078 
0.101961 0.65098 0.596078 0.101961 0.65098 0.596078 
0.101961 0.65098 0.596078 0.101961 0.65098 0.596078 
0.101961 0.65098 0.596078 0.101961 0.65098 0.596078 
0.101961 0.65098 0.596078 0.101961 0.65098 0.596078 
0.101961 0.65098 0.596078 0.101961 0.65098 0.596078 
0.101961 0.65098 0.596078 0.101961 0.65098 0.596078 
0.101961 0.65098 0.596078 0.101961 0.65098 0.596078 
0.101961 0.65098 0.596078 0.101961 0.65098 0.596078 
0.101961 0.65098 0.596078 0.101961 0.65098 0.596078 
0.101961 0.65098 0.596078 0.101961 0.65098 0.596078 
0.101961 0.65098 0.596078 0.101961 0.65098 0.596078 
0.101961 0.65098 0.596078 0.101961 0.65098 0.596078 
0.101961 0.65098 0.596078 0.101961 0.65098 0.596078 
0.101961 0.65098 0.596078 0.101961 0.65098 0.596078 
0.101961 0.65098 0.596078 0.101961 0.65098 0.596078 
0.101961 0.65098 0.596078 0.101961 0.65098 0.596078 
0.101961 0.65098 0.596078 0.101961 0.65098 0.596078 
0.101961 0.65098 0.596078 0.101961 0.65098 0.596078 
0.101961 0.65098 0.596078 0.101961 0.65098 0.596078 
0.101961 0.65098 0.596078 0.101961 0.65098 0.596078 
0.101961 0.65098 0.596078 0.101961 0.65098 0.596078 
0.101961 0.65098 0.596078 0.101961 0.65098 0.596078 
0.101961 0.65098 0.596078 0.101961 0.65098 0.596078 
0.101961 0.65098 0.596078 0.101961 0.65098 0.596078 
0.101961 0.65098 0.596078 0.101961 0.65098 0.596078 
0.101961 0.65098 0.596078 0.101961 0.65098 0.596078 
0.101961 0.65098 0.596078 0.101961 0.65098 0.596078 
0.101961 0.65098 0.596078 0.101961 0.65098 0.596078 
0.101961 0.65098 0.596078 0.101961 0.65098 0.596078 
0.101961 0.65098 0.596078 0.101961 0.65098 0.596078 
0.101961 0.65098 0.596078 0.101961 0.65098 0.596078 
0.101961 0.65098 0.596078 0.101961 0.65098 0.596078 
0.101961 0.65098 0.596078 0.101961 0.65098 0.596078 
0.101961 0.65098 0.596078 0.101961 0.65098 0.596078 
0.101961 0.65098 0.596078 0.101961 0.65098 0.596078 
0.101961 0.65098 0.596078 0.101961 0.65098 0.596078 
0.101961 0.65098 0.596078 0.101961 0.65098 0.596078 
0.101961 0.65098 0.596078 0.101961 0.65098 0.596078 
0.101961 0.65098 0.596078 0.101961 0.65098 0.596078 
0.101961 0.65098 0.596078 0.101961 0.65098 0.596078 
0.101961 0.65098 0.596078 0.101961 0.65098 0.596078 
0.101961 0.65098 0.596078 0.101961 0.65098 0.596078 
0.101961 0.65098 0.596078 0.101961 0.65098 0.596078 
0.101961 0.65098 0.596078 0.101961 0.65098 0.596078 
0.101961 0.65098 0.596078 0.101961 0.65098 0.596078 
0.101961 0.65098 0.596078 0.101961 0.65098 0.596078 
0.101961 0.65098 0.596078 0.101961 0.65098 0.596078 
0.101961 0.65098 0.596078 0.101961 0.65098 0.596078 
0.101961 0.65098 0.596078 0.101961 0.65098 0.596078 
0.101961 0.65098 0.596078 0.101961 0.65098 0.596078 
0.101961 0.65098 0.596078 0.101961 0.65098 0.596078 
0.101961 0.65098 0.596078 0.101961 0.65098 0.596078 
0.101961 0.65098 0.596078 0.101961 0.65098 0.596078 
0.101961 0.65098 0.596078 0.101961 0.65098 0.596078 
0.101961 0.65098 0.596078 0.101961 0.65098 0.596078 
0.101961 0.65098 0.596078 0.101961 0.65098 0.596078 
0.101961 0.65098 0.596078 0.101961 0.65098 0.596078 
0.101961 0.65098 0.596078 0.101961 0.65098 0.596078 
0.101961 0.65098 0.596078 0.101961 0.65098 0.596078 
0.101961 0.65098 0.596078 0.101961 0.65098 0.596078 
0.101961 0.65098 0.596078 0.101961 0.65098 0.596078 
0.101961 0.65098 0.596078 0.101961 0.65098 0.596078 
0.101961 0.65098 0.596078 0.101961 0.65098 0.596078 
0.101961 0.65098 0.596078 0.101961 0.65098 0.596078 
0.101961 0.65098 0.596078 0.101961 0.65098 0.596078 
0.101961 0.65098 0.596078 0.101961 0.65098 0.596078 
0.101961 0.65098 0.596078 0.101961 0.65098 0.596078 
0.101961 0.65098 0.596078 0.101961 0.65098 0.596078 
0.101961 0.65098 0.596078 0.101961 0.65098 0.596078 
0.101961 0.65098 0.596078 0.101961 0.65098 0.596078 
0.101961 0.65098 0.596078 0.101961 0.65098 0.596078 
0.101961 0.65098 0.596078 0.101961 0.65098 0.596078 
0.101961 0.65098 0.596078 0.101961 0.65098 0.596078 
0.101961 0.65098 0.596078 0.101961 0.65098 0.596078 
0.101961 0.65098 0.596078 0.101961 0.65098 0.596078 
0.101961 0.65098 0.596078 0.101961 0.65098 0.596078 
0.101961 0.65098 0.596078 0.101961 0.65098 0.596078 
0.101961 0.65098 0.596078 0.101961 0.65098 0.596078 
0.101961 0.65098 0.596078 0.101961 0.65098 0.596078 
0.101961 0.65098 0.596078 0.101961 0.65098 0.596078 
0.101961 0.65098 0.596078 0.101961 0.65098 0.596078 
0.101961 0.65098 0.596078 0.101961 0.65098 0.596078 
0.101961 0.65098 0.596078 0.101961 0.65098 0.596078 
0.101961 0.65098 0.596078 0.101961 0.65098 0.596078 
0.101961 0.65098 0.596078 0.101961 0.65098 0.596078 
0.101961 0.65098 0.596078 0.101961 0.65098 0.596078 
0.101961 0.65098 0.596078 0.101961 0.65098 0.596078 
0.101961 0.65098 0.596078 0.101961 0.65098 0.596078 
0.101961 0.65098 0.596078 0.101961 0.65098 0.596078 
0.101961 0.65098 0.596078 0.101961 0.65098 0.596078 
0.101961 0.65098 0.596078 0.101961 0.65098 0.596078 
0.101961 0.65098 0.596078 0.101961 0.65098 0.596078 
0.101961 0.65098 0.596078 0.101961 0.65098 0.596078 
0.101961 0.65098 0.596078 0.101961 0.65098 0.596078 
0.101961 0.65098 0.596078 0.101961 0.65098 0.596078 
0.101961 0.65098 0.596078 0.101961 0.65098 0.596078 
0.101961 0.65098 0.596078 0.101961 0.65098 0.596078 
0.101961 0.65098 0.596078 0.101961 0.65098 0.596078 
0.101961 0.65098 0.596078 0.101961 0.65098 0.596078 
0.101961 0.65098 0.596078 0.101961 0.65098 0.596078 
0.101961 0.65098 0.596078 0.101961 0.65098 0.596078 
0.101961 0.65098 0.596078 0.101961 0.65098 0.596078 
0.101961 0.65098 0.596078 0.101961 0.65098 0.596078 
0.101961 0.65098 0.596078 0.101961 0.65098 0.596078 
0.101961 0.65098 0.596078 0.101961 0.65098 0.596078 
0.101961 0.65098 0.596078 0.101961 0.65098 0.596078 
0.101961 0.65098 0.596078 0.101961 0.65098 0.596078 
0.101961 0.65098 0.596078 0.101961 0.65098 0.596078 
0.101961 0.65098 0.596078 0.101961 0.65098 0.596078 
0.101961 0.65098 0.596078 0.101961 0.65098 0.596078 
0.101961 0.65098 0.596078 0.101961 0.65098 0.596078 
0.101961 0.65098 0.596078 0.101961 0.65098 0.596078 
0.101961 0.65098 0.596078 0.101961 0.65098 0.596078 
0.101961 0.65098 0.596078 0.101961 0.65098 0.596078 
0.101961 0.65098 0.596078 0.101961 0.65098 0.596078 
0.101961 0.65098 0.596078 0.101961 0.65098 0.596078 
0.101961 0.65098 0.596078 0.101961 0.65098 0.596078 
0.101961 0.65098 0.596078 0.101961 0.65098 0.596078 
0.101961 0.65098 0.596078 0.101961 0.65098 0.596078 
0.101961 0.65098 0.596078 0.101961 0.65098 0.596078 
0.101961 0.65098 0.596078 0.101961 0.65098 0.596078 
0.101961 0.65098 0.596078 0.101961 0.65098 0.596078 
0.101961 0.65098 0.596078 0.101961 0.65098 0.596078 
0.101961 0.65098 0.596078 0.101961 0.65098 0.596078 
0.101961 0.65098 0.596078 0.101961 0.65098 0.596078 
0.101961 0.65098 0.596078 0.101961 0.65098 0.596078 
0.101961 0.65098 0.596078 0.101961 0.65098 0.596078 
0.101961 0.65098 0.596078 0.101961 0.65098 0.596078 
0.101961 0.65098 0.596078 0.101961 0.65098 0.596078 
0.101961 0.65098 0.596078 0.101961 0.65098 0.596078 
0.101961 0.65098 0.596078 0.101961 0.65098 0.596078 
0.101961 0.65098 0.596078 0.101961 0.65098 0.596078 
0.101961 0.65098 0.596078 0.101961 0.65098 0.596078 
0.101961 0.65098 0.596078 0.101961 0.65098 0.596078 
0.101961 0.65098 0.596078 0.101961 0.65098 0.596078 
0.101961 0.65098 0.596078 0.101961 0.65098 0.596078 
0.101961 0.65098 0.596078 0.101961 0.65098 0.596078 
0.101961 0.65098 0.596078 0.101961 0.65098 0.596078 
0.101961 0.65098 0.596078 0.101961 0.65098 0.596078 
0.101961 0.65098 0.596078 0.101961 0.65098 0.596078 
0.101961 0.65098 0.596078 0.101961 0.65098 0.596078 
0.101961 0.65098 0.596078 0.101961 0.65098 0.596078 
0.101961 0.65098 0.596078 0.101961 0.65098 0.596078 
0.101961 0.65098 0.596078 0.101961 0.65098 0.596078 
0.101961 0.65098 0.596078 0.101961 0.65098 0.596078 
0.101961 0.65098 0.596078 0.101961 0.65098 0.596078 
0.101961 0.65098 0.596078 0.101961 0.65098 0.596078 
0.101961 0.65098 0.596078 0.101961 0.65098 0.596078 
0.101961 0.65098 0.596078 0.101961 0.65098 0.596078 
0.101961 0.65098 0.596078 0.101961 0.65098 0.596078 
0.101961 0.65098 0.596078 0.101961 0.65098 0.596078 
0.101961 0.65098 0.596078 0.101961 0.65098 0.596078 
0.101961 0.65098 0.596078 0.101961 0.65098 0.596078 
0.101961 0.65098 0.596078 0.101961 0.65098 0.596078 
0.101961 0.65098 0.596078 0.101961 0.65098 0.596078 
0.101961 0.65098 0.596078 0.101961 0.65098 0.596078 
0.101961 0.65098 0.596078 0.101961 0.65098 0.596078 
0.101961 0.65098 0.596078 0.101961 0.65098 0.596078 
0.101961 0.65098 0.596078 0.101961 0.65098 0.596078 
0.101961 0.65098 0.596078 0.101961 0.65098 0.596078 
0.101961 0.65098 0.596078 0.101961 0.65098 0.596078 
0.101961 0.65098 0.596078 0.101961 0.65098 0.596078 
0.101961 0.65098 0.596078 0.101961 0.65098 0.596078 
0.101961 0.65098 0.596078 0.101961 0.65098 0.596078 
0.101961 0.65098 0.596078 0.101961 0.65098 0.596078 
0.101961 0.65098 0.596078 0.101961 0.65098 0.596078 
0.101961 0.65098 0.596078 0.101961 0.65098 0.596078 
0.101961 0.65098 0.596078 0.101961 0.65098 0.596078 
0.101961 0.65098 0.596078 0.101961 0.65098 0.596078 
0.101961 0.65098 0.596078 0.101961 0.65098 0.596078 
0.101961 0.65098 0.596078 0.101961 0.65098 0.596078 
0.101961 0.65098 0.596078 0.101961 0.65098 0.596078 
0.101961 0.65098 0.596078 0.101961 0.65098 0.596078 
0.101961 0.65098 0.596078 0.101961 0.65098 0.596078 
0.101961 0.65098 0.596078 0.101961 0.65098 0.596078 
0.101961 0.65098 0.596078 0.101961 0.65098 0.596078 
0.101961 0.65098 0.596078 0.101961 0.65098 0.596078 
0.101961 0.65098 0.596078 0.101961 0.65098 0.596078 
0.101961 0.65098 0.596078 0.101961 0.65098 0.596078 
0.101961 0.65098 0.596078 0.101961 0.65098 0.596078 
0.101961 0.65098 0.596078 0.101961 0.65098 0.596078 
0.101961 0.65098 0.596078 0.101961 0.65098 0.596078 
0.101961 0.65098 0.596078 0.101961 0.65098 0.596078 
0.101961 0.65098 0.596078 0.101961 0.65098 0.596078 
0.101961 0.65098 0.596078 0.101961 0.65098 0.596078 
0.101961 0.65098 0.596078 0.101961 0.65098 0.596078 
0.101961 0.65098 0.596078 0.101961 0.65098 0.596078 
0.101961 0.65098 0.596078 0.101961 0.65098 0.596078 
0.101961 0.65098 0.596078 0.101961 0.65098 0.596078 
0.101961 0.65098 0.596078 0.101961 0.65098 0.596078 
0.101961 0.65098 0.596078 0.101961 0.65098 0.596078 
0.101961 0.65098 0.596078 0.101961 0.65098 0.596078 
0.101961 0.65098 0.596078 0.101961 0.65098 0.596078 
0.101961 0.65098 0.596078 0.101961 0.65098 0.596078 
0.101961 0.65098 0.596078 0.101961 0.65098 0.596078 
0.101961 0.65098 0.596078 0.101961 0.65098 0.596078 
0.101961 0.65098 0.596078 0.101961 0.65098 0.596078 
0.101961 0.65098 0.596078 0.101961 0.65098 0.596078 
0.101961 0.65098 0.596078 0.101961 0.65098 0.596078 
0.101961 0.65098 0.596078 0.101961 0.65098 0.596078 
0.101961 0.65098 0.596078 0.101961 0.65098 0.596078 
0.101961 0.65098 0.596078 0.101961 0.65098 0.596078 
0.101961 0.65098 0.596078 0.101961 0.65098 0.596078 
0.101961 0.65098 0.596078 0.101961 0.65098 0.596078 
0.101961 0.65098 0.596078 0.101961 0.65098 0.596078 
0.101961 0.65098 0.596078 0.101961 0.65098 0.596078 
0.101961 0.65098 0.596078 0.101961 0.65098 0.596078 
0.101961 0.65098 0.596078 0.101961 0.65098 0.596078 
0.101961 0.65098 0.596078 0.101961 0.65098 0.596078 
0.101961 0.65098 0.596078 0.101961 0.65098 0.596078 
0.101961 0.65098 0.596078 0.101961 0.65098 0.596078 
0.101961 0.65098 0.596078 0.101961 0.65098 0.596078 
0.101961 0.65098 0.596078 0.101961 0.65098 0.596078 