# vtk DataFile Version 4.2
vtk output
ASCII
DATASET POLYDATA
POINTS 2354 float
394.463 88.9221 120.233 394.439 88.8923 120.275 394.451 88.9074 120.254 
394.448 88.9025 120.261 394.44 88.8918 120.277 394.461 88.9188 120.242 
394.469 88.9288 120.226 394.453 88.9087 120.256 394.464 88.9216 120.239 
394.405 88.8485 120.337 394.43 88.881 120.291 394.402 88.8445 120.344 
394.402 88.8433 120.349 394.427 88.877 120.3 394.442 88.894 120.279 
394.44 88.8915 120.283 394.455 88.9106 120.256 394.17 88.5574 120.753 
394.152 88.5351 120.784 394.148 88.53 120.791 394.232 88.6338 120.645 
394.189 88.5805 120.72 394.323 88.7456 120.486 394.247 88.652 120.619 
394.328 88.751 120.48 394.18 88.5692 120.736 394.229 88.6301 120.65 
394.401 88.8447 120.344 394.328 88.7533 120.475 394.394 88.8342 120.364 
394.398 88.8398 120.355 394.432 88.8814 120.298 394.147 88.5291 120.793 
394.139 88.519 120.807 394.185 88.5748 120.729 394.256 88.663 120.604 
394.193 88.5857 120.713 394.153 88.5362 120.783 394.199 88.5934 120.702 
394.342 88.7691 120.455 393.407 85.8425 124.644 393.391 85.8158 124.681 
393.414 85.8645 124.622 393.364 85.7454 124.755 394.15 88.5333 120.787 
393.407 85.8369 124.653 393.384 85.7639 124.731 394.166 88.5519 120.761 
393.11 85.4009 125.2 393.054 85.32 125.305 393.093 85.3913 125.227 
393.179 85.4557 125.114 393.267 85.5395 124.985 393.21 85.2932 125.231 
393.186 85.4411 125.163 393.39 85.808 124.691 393.304 85.6241 124.915 
392.713 84.7539 125.886 392.494 84.5531 126.144 392.939 84.9571 125.61 
393.064 84.7165 125.803 392.617 84.7247 126.04 392.922 85.0683 125.612 
393.193 85.1385 125.446 393.187 85.3005 125.331 393.286 85.4943 125.061 
392.66 83.6741 126.655 392.219 84.0462 126.789 392.185 84.4876 126.33 
392.183 84.4882 126.35 392.172 84.5235 126.305 392.287 84.414 126.358 
392.207 84.3896 126.439 393.066 84.5395 126.098 392.217 84.518 126.296 
392.352 84.5462 126.263 392.485 82.7865 127.376 392.668 83.0327 127.182 
392.579 82.5512 127.589 391.615 82.7742 128.025 391.645 82.9744 127.919 
392.25 83.2959 127.135 392.896 83.3833 127.117 392.215 84.5185 126.316 
391.762 83.2522 127.855 391.979 83.5243 127.517 392.271 84.4162 126.45 
392.364 84.2479 126.739 392.597 84.366 126.657 392.851 84.5258 126.41 
392.265 81.4278 128.616 392.644 82.2947 127.869 391.478 81.5433 128.893 
391.438 82.0549 128.759 391.842 83.2708 127.982 392.346 80.0079 129.788 
391.861 80.8148 129.121 392.413 80.2177 129.641 390.791 80.4318 130.066 
392.51 81.2352 129.024 392.663 81.8559 128.42 392.455 80.4532 129.584 
390.622 80.4819 130.344 392.711 82.116 128.36 390.859 81.1587 130.029 
391.444 82.2865 129.025 392.739 82.6707 128.127 391.7 82.7111 128.76 
391.897 83.1096 128.312 392.679 83.3057 127.784 392.365 83.3113 128.042 
391.977 79.5264 130.291 392.255 79.798 130.04 392.222 79.6022 130.456 
390.916 80.0093 130.173 390.772 79.609 130.563 390.433 79.8224 130.939 
390.508 80.6481 130.909 390.679 80.993 130.505 391.567 82.2808 129.33 
390.24 79.1111 131.701 390.261 79.5943 131.536 390.651 80.9683 130.861 
390.664 80.899 131.207 391.519 81.5498 130.414 390.616 78.2074 132.052 
390.123 78.4573 132.378 392.165 79.266 131.551 390.421 80.3447 131.746 
392.143 80.4963 130.904 390.899 80.8446 131.535 391.422 77.2559 132.871 
391.269 76.7096 133.423 391.624 77.0891 133.086 391.634 76.9031 133.245 
391.721 77.5908 132.801 391.921 78.0877 132.239 391.642 76.966 133.249 
389.654 77.7922 133.621 389.652 78.1308 133.381 389.677 78.2618 133.307 
390.006 78.9831 132.887 391.512 80.5662 131.622 391.225 80.5242 131.847 
390.26 75.938 134.277 390.88 75.5368 134.512 391.374 75.828 134.263 
391.463 76.5696 133.751 391.601 76.801 133.379 391.39 75.9004 134.252 
389.329 76.8874 134.606 389.439 77.3085 134.201 389.328 77.2007 134.414 
389.35 77.323 134.352 389.441 77.4946 134.291 390.114 79.0387 133.155 
389.803 74.7766 135.198 389.404 74.6104 135.43 390.384 74.9652 134.968 
391.12 74.8351 135.194 390.974 74.48 135.475 391.138 74.6381 135.373 
391.226 75.4757 134.779 391.346 75.7211 134.398 391.173 74.7605 135.345 
388.857 75.1617 135.641 390.935 77.7942 134.329 390.753 77.9437 134.346 
388.704 72.9958 136.391 390.331 73.0079 136.364 391.06 74.3894 135.903 
391.081 75.6595 135.757 388.395 75.3729 136.522 389.021 76.4014 135.781 
390.155 77.0551 135.413 390.194 77.7296 134.681 390.266 71.0291 137.59 
390.61 71.1316 137.857 387.298 73.4648 137.304 387.788 73.3317 136.829 
391.033 73.4565 137.403 386.922 73.8815 138.06 390.944 74.6285 136.853 
390.477 75.6613 136.587 388.145 75.1842 137.153 388.941 76.0805 136.467 
389.25 76.4847 136.063 389.989 70.4 137.844 390.203 69.9185 138.291 
385.904 72.6708 138.771 391.033 72.9459 137.686 385.991 73.0986 139.048 
386.333 73.481 138.902 386.969 74.0948 138.262 390.669 74.1299 137.841 
387.929 74.9661 137.709 385.453 68.6426 139.03 386.678 67.8661 139.199 
390.423 68.8829 139.213 390.229 68.3765 139.45 383.716 68.8199 139.671 
383.535 69.277 139.759 389.912 69.2717 138.562 390.676 69.3741 139.256 
385.344 69.7967 138.745 383.034 69.8672 140.345 383.201 70.3641 140.429 
383.756 71.1119 140.334 390.966 71.9879 138.615 390.864 71.7863 139.382 
390.505 72.7972 139.343 385.796 73.071 139.646 387.237 74.3387 138.675 
387.957 74.6806 138.66 388.718 75.1421 138.025 389.402 67.5802 139.698 
389.667 67.2253 140.213 390.207 67.6517 140.285 390.524 68.2025 140.07 
382.318 67.9333 140.744 390.863 69.5087 139.716 390.952 70.0482 139.667 
390.813 71.0962 140.007 383.701 71.2618 140.74 384.491 71.8934 140.42 
390.123 72.8294 139.92 386.01 73.2485 140.072 389.494 73.6442 139.711 
388.323 74.4534 139.171 386.335 65.5478 140.863 388.201 65.3259 141.328 
382.037 65.7435 141.519 385.182 66.2419 140.412 388.516 65.6823 141.088 
388.997 65.9404 141.105 390.305 67.5194 140.946 381.316 67.6624 141.672 
380.83 67.5676 142.165 382.866 70.4444 141.212 382.992 70.6805 141.646 
384.045 71.6564 141.312 386.342 73.0703 141.172 387.506 73.7114 140.331 
380.756 65.1418 142.357 383.221 65.0587 141.559 379.518 65.8459 143.197 
390.095 66.865 141.778 380.639 67.6853 142.552 390.504 69.1548 141.486 
382.015 69.7774 142.484 389.283 71.9746 141.711 389.106 72.4662 141.383 
388.135 63.5503 143.432 388.558 63.7913 143.458 378.748 63.9061 143.87 
378.543 64.206 143.926 384.133 63.7149 142.474 388.796 64.1422 143.278 
389.044 64.4243 143.461 378.646 64.6912 143.842 378.177 64.3019 144.27 
378.669 65.6076 144.204 379.69 66.6728 143.422 390.25 67.9637 142.151 
390.033 68.4768 142.624 383.375 70.8403 143.277 388.465 71.8416 142.512 
387.542 72.7188 142.105 377.943 63.0961 144.84 377.572 63.4336 145.085 
377.599 63.9162 144.778 389.457 65.6322 143.897 378.876 66.1995 144.5 
379.697 67.2754 144.445 381.074 68.8106 143.893 387.738 71.3041 143.524 
385.127 71.5354 143.512 387.746 72.2463 142.606 388.073 62.9321 144.427 
388.5 63.3097 144.429 388.973 64.1169 144.594 377.122 63.3622 145.74 
377.287 63.9606 145.573 389.203 64.8331 144.519 377.439 64.6726 145.776 
389.285 65.4016 144.582 380.092 67.8146 144.861 387.662 69.6588 145.031 
384.72 70.9552 144.507 387.07 71.8756 143.273 386.151 61.3324 145.458 
387.085 61.582 145.864 388.531 63.2269 145.134 388.783 65.7882 145.6 
388.682 67.1019 145.459 384.886 70.6666 145.011 385.903 70.5835 145.116 
376.053 60.9063 147.571 387.025 61.3476 146.527 387.584 61.9262 146.378 
376.086 61.5531 147.428 387.896 62.4477 146.409 387.78 62.6294 147.035 
376.066 62.8762 147.591 376.627 63.7951 146.864 377.49 65.3337 146.864 
378.249 66.1886 146.92 380.052 67.7698 146.463 380.95 68.265 146.837 
376.565 64.3348 147.914 386.861 67.0545 147.442 381.531 68.4231 147.157 
384.937 58.6541 148.712 386.558 60.5054 148.784 374.95 62.6201 149.668 
387.247 63.2343 148.312 385.519 66.4225 148.867 384.837 67.044 148.81 
383.367 57.0663 149.707 382.76 67.1304 149.356 379.467 55.329 150.788 
373.161 55.958 151.35 371.855 56.5537 151.725 385.002 57.5512 150.593 
385.735 58.7158 150.251 385.837 59.3319 150.992 372.67 60.9508 151.666 
385.517 62.7316 151.07 384.872 56.7692 151.488 371.495 57.9158 151.666 
378.434 65.3859 151.266 382.296 65.3502 151.481 381.584 53.6075 153.095 
385.075 57.0161 152.543 385.394 58.7287 152.436 370.572 59.2478 153.114 
370.343 59.2845 153.543 383.767 62.8806 152.68 383.243 62.8616 153.155 
380.352 64.7632 152.572 379.436 65.325 151.781 382.382 53.1752 154.204 
382.993 53.7417 153.878 384.689 56.0259 153.056 369.527 55.6787 153.873 
369.668 56.2887 153.593 384.868 58.7084 153.594 371.646 60.9746 154.064 
373.511 62.2144 154.131 382.033 63.1595 153.674 377.075 51.1774 154.963 
368.659 55.8716 154.73 368.315 56.5301 155.313 368.16 56.6493 155.749 
368.882 58.0617 155.596 383.73 60.0247 154.634 371.065 60.4621 154.496 
371.88 61.2124 154.588 371.934 61.2047 155.019 375.926 62.9051 154.627 
381.199 61.9344 155.219 381.273 51.3764 156.275 382.51 52.7492 155.201 
382.906 53.1347 155.263 383.003 53.2038 155.722 367.625 55.1887 156.249 
368.264 55.6177 155.233 372.703 61.5107 155.462 369.275 49.9722 157.079 
366.789 50.8145 157.711 381.706 51.5854 156.67 382.205 52.133 156.947 
366.467 51.6705 157.721 383.257 54.0202 156.335 367.371 55.7789 157.774 
367.888 56.684 157.71 381.113 50.717 157.633 381.627 51.3493 157.47 
368.585 57.5514 157.77 369.711 58.7012 157.512 378.958 48.4365 159.254 
364.476 50.6489 159.832 381.736 51.5192 158.093 381.557 51.4865 158.795 
382.009 52.1781 158.19 365.381 52.6707 159.632 381.93 53.406 158.845 
370.394 58.8638 158.13 368.119 47.2522 159.86 376.886 47.2723 159.845 
379.9 49.0237 159.545 364.14 49.2174 160.305 364.358 51.834 160.78 
364.52 52.0502 160.375 364.451 52.0825 160.535 364.508 52.1662 160.46 
364.815 52.2034 160.098 364.643 52.2519 160.405 364.985 52.5442 160.582 
366.737 54.7328 159.625 380.007 49.1132 160.143 380.607 49.994 160.016 
380.849 50.5925 160.056 363.83 51.2165 161.657 365.913 53.4908 160.835 
375.494 45.7835 161.878 377.725 46.8199 162.165 378.52 47.5557 161.713 
361.756 47.5621 163.056 362.428 48.5611 162.326 380.314 51.148 161.138 
[...]
POINT_DATA 2354
COLOR_SCALARS scalars 3
0.101961 0.65098 0.596078 0.101961 0.65098 0.596078 0.101961 0.65098 0.596078 
0.101961 0.65098 0.596078 0.101961 0.65098 0.596078 
0.101961 0.65098 0.596078 0.101961 0.65098 0.596078 
0.101961 0.65098 0.596078 0.101961 0.65098 0.596078 
0.101961 0.65098 0.596078 0.101961 0.65098 0.596078 
0.101961 0.65098 0.596078 0.101961 0.65098 0.596078 
0.101961 0.65098 0.596078 0.101961 0.65098 0.596078 
0.101961 0.65098 0.596078 0.101961 0.65098 0.596078 
0.101961 0.65098 0.596078 0.101961 0.65098 0.596078 
0.101961 0.65098 0.596078 0.101961 0.65098 0.596078 
0.101961 0.65098 0.596078 0.101961 0.65098 0.596078 
0.101961 0.65098 0.596078 0.101961 0.65098 0.596078 
0.101961 0.65098 0.596078 0.101961 0.65098 0.596078 
0.101961 0.65098 0.596078 0.101961 0.65098 0.596078 
0.101961 0.65098 0.596078 0.101961 0.65098 0.596078 
0.101961 0.65098 0.596078 0.101961 0.65098 0.596078 
0.101961 0.65098 0.596078 0.101961 0.65098 0.596078 
0.101961 0.65098 0.596078 0.101961 0.65098 0.596078 
0.101961 0.65098 0.596078 0.101961 0.65098 0.596078 
0.101961 0.65098 0.596078 0.101961 0.65098 0.596078 
0.101961 0.65098 0.596078 0.101961 0.65098 0.596078 
0.101961 0.65098 0.596078 0.101961 0.65098 0.596078 
0.101961 0.65098 0.596078 0.101961 0.65098 0.596078 
0.101961 0.65098 0.596078 0.101961 0.65098 0.596078 
0.101961 0.65098 0.596078 0.101961 0.65098 0.596078 
0.101961 0.65098 0.596078 0.101961 0.65098 0.596078 
0.101961 0.65098 0.596078 0.101961 0.65098 0.596078 
0.101961 0.65098 0.596078 0.101961 0.65098 0.596078 
0.101961 0.65098 0.596078 0.101961 0.65098 0.596078 
0.101961 0.65098 0.596078 0.101961 0.65098 0.596078 
0.101961 0.65098 0.596078 0.101961 0.65098 0.596078 
0.101961 0.65098 0.596078 0.101961 0.65098 0.596078 
0.101961 0.65098 0.596078 0.101961 0.65098 0.596078 
0.101961 0.65098 0.596078 0.101961 0.65098 0.596078 
0.101961 0.65098 0.596078 0.101961 0.65098 0.596078 
0.101961 0.65098 0.596078 0.101961 0.65098 0.596078 
0.101961 0.65098 0.596078 0.101961 0.65098 0.596078 
0.101961 0.65098 0.596078 0.101961 0.65098 0.596078 
0.101961 0.65098 0.596078 0.101961 0.65098 0.596078 
0.101961 0.65098 0.596078 0.101961 0.65098 0.596078 
0.101961 0.65098 0.596078 0.101961 0.65098 0.596078 
0.101961 0.65098 0.596078 0.101961 0.65098 0.596078 
0.101961 0.65098 0.596078 0.101961 0.65098 0.596078 
0.101961 0.65098 0.596078 0.101961 0.65098 0.596078 
0.101961 0.65098 0.596078 0.101961 0.65098 0.596078 
0.101961 0.65098 0.596078 0.101961 0.65098 0.596078 
0.101961 0.65098 0.596078 0.101961 0.65098 0.596078 
0.101961 0.65098 0.596078 0.101961 0.65098 0.596078 
0.101961 0.65098 0.596078 0.101961 0.65098 0.596078 
0.101961 0.65098 0.596078 0.101961 0.65098 0.596078 
0.101961 0.65098 0.596078 0.101961 0.65098 0.596078 
0.101961 0.65098 0.596078 0.101961 0.65098 0.596078 
0.101961 0.65098 0.596078 0.101961 0.65098 0.596078 
0.101961 0.65098 0.596078 0.101961 0.65098 0.596078 
0.101961 0.65098 0.596078 0.101961 0.65098 0.596078 
0.101961 0.65098 0.596078 0.101961 0.65098 0.596078 
0.101961 0.65098 0.596078 0.101961 0.65098 0.596078 
0.101961 0.65098 0.596078 0.101961 0.65098 0.596078 
0.101961 0.65098 0.596078 0.101961 0.65098 0.596078 
0.101961 0.65098 0.596078 0.101961 0.65098 0.596078 
0.101961 0.65098 0.596078 0.101961 0.65098 0.596078 
0.101961 0.65098 0.596078 0.101961 0.65098 0.596078 
0.101961 0.65098 0.596078 0.101961 0.65098 0.596078 
0.101961 0.65098 0.596078 0.101961 0.65098 0.596078 
0.101961 0.65098 0.596078 0.101961 0.65098 0.596078 
0.101961 0.65098 0.596078 0.101961 0.65098 0.596078 
0.101961 0.65098 0.596078 0.101961 0.65098 0.596078 
0.101961 0.65098 0.596078 0.101961 0.65098 0.596078 
0.101961 0.65098 0.596078 0.101961 0.65098 0.596078 
0.101961 0.65098 0.596078 0.101961 0.65098 0.596078 
0.101961 0.65098 0.596078 0.101961 0.65098 0.596078 
0.101961 0.65098 0.596078 0.101961 0.65098 0.596078 
0.101961 0.65098 0.596078 0.101961 0.65098 0.596078 
0.101961 0.65098 0.596078 0.101961 0.65098 0.596078 
0.101961 0.65098 0.596078 0.101961 0.65098 0.596078 
0.101961 0.65098 0.596078 0.101961 0.65098 0.596078 
0.101961 0.65098 0.596078 0.101961 0.65098 0.596078 
0.101961 0.65098 0.596078 0.101961 0.65098 0.596078 
0.101961 0.65098 0.596078 0.101961 0.65098 0.596078 
0.101961 0.65098 0.596078 0.101961 0.65098 0.596078 
0.101961 0.65098 0.596078 0.101961 0.65098 0.596078 
0.101961 0.65098 0.596078 0.101961 0.65098 0.596078 
0.101961 0.65098 0.596078 0.101961 0.65098 0.596078 
0.101961 0.65098 0.596078 0.101961 0.65098 0.596078 
0.101961 0.65098 0.596078 0.101961 0.65098 0.596078 
0.101961 0.65098 0.596078 0.101961 0.65098 0.596078 
0.101961 0.65098 0.596078 0.101961 0.65098 0.596078 
0.101961 0.65098 0.596078 0.101961 0.65098 0.596078 
0.101961 0.65098 0.596078 0.101961 0.65098 0.596078 
0.101961 0.65098 0.596078 0.101961 0.65098 0.596078 
0.101961 0.65098 0.596078 0.101961 0.65098 0.596078 
0.101961 0.65098 0.596078 0.101961 0.65098 0.596078 
0.101961 0.65098 0.596078 0.101961 0.65098 0.596078 
0.101961 0.65098 0.596078 0.101961 0.65098 0.596078 
0.101961 0.65098 0.596078 0.101961 0.65098 0.596078 
0.101961 0.65098 0.596078 0.101961 0.65098 0.596078 
0.101961 0.65098 0.596078 0.101961 0.65098 0.596078 
0.101961 0.65098 0.596078 0.101961 0.65098 0.596078 
0.101961 0.65098 0.596078 0.101961 0.65098 0.596078 
0.101961 0.65098 0.596078 0.101961 0.65098 0.596078 
0.101961 0.65098 0.596078 0.101961 0.65098 0.596078 
0.101961 0.65098 0.596078 0.101961 0.65098 0.596078 
0.101961 0.65098 0.596078 0.101961 0.65098 0.596078 
0.101961 0.65098 0.596078 0.101961 0.65098 0.596078 
0.101961 0.65098 0.596078 0.101961 0.65098 0.596078 
0.101961 0.65098 0.596078 0.101961 0.65098 0.596078 
0.101961 0.65098 0.596078 0.101961 0.65098 0.596078 
0.101961 0.65098 0.596078 0.101961 0.65098 0.596078 
0.101961 0.65098 0.596078 0.101961 0.65098 0.596078 
0.101961 0.65098 0.596078 0.101961 0.65098 0.596078 
0.101961 0.65098 0.596078 0.101961 0.65098 0.596078 
0.101961 0.65098 0.596078 0.101961 0.65098 0.596078 
0.101961 0.65098 0.596078 0.101961 0.65098 0.596078 
0.101961 0.65098 0.596078 0.101961 0.65098 0.596078 
0.101961 0.65098 0.596078 0.101961 0.65098 0.596078 
0.101961 0.65098 0.596078 0.101961 0.65098 0.596078 
0.101961 0.65098 0.596078 0.101961 0.65098 0.596078 
0.101961 0.65098 0.596078 0.101961 0.65098 0.596078 
0.101961 0.65098 0.596078 0.101961 0.65098 0.596078 
0.101961 0.65098 0.596078 0.101961 0.65098 0.596078 
0.101961 0.65098 0.596078 0.101961 0.65098 0.596078 
0.101961 0.65098 0.596078 0.101961 0.65098 0.596078 
0.101961 0.65098 0.596078 0.101961 0.65098 0.596078 
0.101961 0.65098 0.596078 0.101961 0.65098 0.596078 
0.101961 0.65098 0.596078 0.101961 0.65098 0.596078 
0.101961 0.65098 0.596078 0.101961 0.65098 0.596078 
0.101961 0.65098 0.596078 0.101961 0.65098 0.596078 
0.101961 0.65098 0.596078 0.101961 0.65098 0.596078 
0.101961 0.65098 0.596078 0.101961 0.65098 0.596078 
0.101961 0.65098 0.596078 0.101961 0.65098 0.596078 
0.101961 0.65098 0.596078 0.101961 0.65098 0.596078 
0.101961 0.65098 0.596078 0.101961 0.65098 0.596078 
0.101961 0.65098 0.596078 0.101961 0.65098 0.596078 
0.101961 0.65098 0.596078 0.101961 0.65098 0.596078 
0.101961 0.65098 0.596078 0.101961 0.65098 0.596078 
0.101961 0.65098 0.596078 0.101961 0.65098 0.596078 
0.101961 0.65098 0.596078 0.101961 0.65098 0.596078 
0.101961 0.65098 0.596078 0.101961 0.65098 0.596078 
0.101961 0.65098 0.596078 0.101961 0.65098 0.596078 
0.101961 0.65098 0.596078 0.101961 0.65098 0.596078 
0.101961 0.65098 0.596078 0.101961 0.65098 0.596078 
0.101961 0.65098 0.596078 0.101961 0.65098 0.596078 
0.101961 0.65098 0.596078 0.101961 0.65098 0.596078 
0.101961 0.65098 0.596078 0.101961 0.65098 0.596078 
0.101961 0.65098 0.596078 0.101961 0.65098 0.596078 
0.101961 0.65098 0.596078 0.101961 0.65098 0.596078 
0.101961 0.65098 0.596078 0.101961 0.65098 0.596078 
0.101961 0.65098 0.596078 0.101961 0.65098 0.596078 
0.101961 0.65098 0.596078 0.101961 0.65098 0.596078 
0.101961 0.65098 0.596078 0.101961 0.65098 0.596078 
0.101961 0.65098 0.596078 0.101961 0.65098 0.596078 
0.101961 0.65098 0.596078 0.101961 0.65098 0.596078 
0.101961 0.65098 0.596078 0.101961 0.65098 0.596078 
0.101961 0.65098 0.596078 0.101961 0.65098 0.596078 
0.101961 0.65098 0.596078 0.101961 0.65098 0.596078 
0.101961 0.65098 0.596078 0.101961 0.65098 0.596078 
0.101961 0.65098 0.596078 0.101961 0.65098 0.596078 
0.101961 0.65098 0.596078 0.101961 0.65098 0.596078 
0.101961 0.65098 0.596078 0.101961 0.65098 0.596078 
0.101961 0.65098 0.596078 0.101961 0.65098 0.596078 
0.101961 0.65098 0.596078 0.101961 0.65098 0.596078 
0.101961 0.65098 0.596078 0.101961 0.65098 0.596078 
0.101961 0.65098 0.596078 0.101961 0.65098 0.596078 
0.101961 0.65098 0.596078 0.101961 0.65098 0.596078 
0.101961 0.65098 0.596078 0.101961 0.65098 0.596078 
0.101961 0.65098 0.596078 0.101961 0.65098 0.596078 
0.101961 0.65098 0.596078 0.101961 0.65098 0.596078 
0.101961 0.65098 0.596078 0.101961 0.65098 0.596078 
0.101961 0.65098 0.596078 0.101961 0.65098 0.596078 
0.101961 0.65098 0.596078 0.101961 0.65098 0.596078 
0.101961 0.65098 0.596078 0.101961 0.65098 0.596078 
0.101961 0.65098 0.596078 0.101961 0.65098 0.596078 
0.101961 0.65098 0.596078 0.101961 0.65098 0.596078 
0.101961 0.65098 0.596078 0.101961 0.65098 0.596078 
0.101961 0.65098 0.596078 0.101961 0.65098 0.596078 
0.101961 0.65098 0.596078 0.101961 0.65098 0.596078 
0.101961 0.65098 0.596078 0.101961 0.65098 0.596078 
0.101961 0.65098 0.596078 0.101961 0.65098 0.596078 
0.101961 0.65098 0.596078 0.101961 0.65098 0.596078 
0.101961 0.65098 0.596078 0.101961 0.65098 0.596078 
0.101961 0.65098 0.596078 0.101961 0.65098 0.596078 
0.101961 0.65098 0.596078 0.101961 0.65098 0.596078 
0.101961 0.65098 0.596078 0.101961 0.65098 0.596078 
0.101961 0.65098 0.596078 0.101961 0.65098 0.596078 
0.101961 0.65098 0.596078 0.101961 0.65098 0.596078 
0.101961 0.65098 0.596078 0.101961 0.65098 0.596078 
0.101961 0.65098 0.596078 0.101961 0.65098 0.596078 
0.101961 0.65098 0.596078 0.101961 0.65098 0.596078 
0.101961 0.65098 0.596078 0.101961 0.65098 0.596078 
0.101961 0.65098 0.596078 0.101961 0.65098 0.596078 
0.101961 0.65098 0.596078 0.101961 0.65098 0.596078 
0.101961 0.65098 0.596078 0.101961 0.65098 0.596078 
0.101961 0.65098 0.596078 0.101961 0.65098 0.596078 
0.101961 0.65098 0.596078 0.101961 0.65098 0.596078 
0.101961 0.65098 0.596078 0.101961 0.65098 0.596078 
0.101961 0.65098 0.596078 0.101961 0.65098 0.596078 
0.101961 0.65098 0.596078 0.101961 0.65098 0.596078 
0.101961 0.65098 0.596078 0.101961 0.65098 0.596078 
0.101961 0.65098 0.596078 0.101961 0.65098 0.596078 
0.101961 0.65098 0.596078 0.101961 0.65098 0.596078 
0.101961 0.65098 0.596078 0.101961 0.65098 0.596078 
0.101961 0.65098 0.596078 0.101961 0.65098 0.596078 
0.101961 0.65098 0.596078 0.101961 0.65098 0.596078 
0.101961 0.65098 0.596078 0.101961 0.65098 0.596078 
0.101961 0.65098 0.596078 0.101961 0.65098 0.596078 
0.101961 0.65098 0.596078 0.101961 0.65098 0.596078 
0.101961 0.65098 0.596078 0.101961 0.65098 0.596078 
0.101961 0.65098 0.596078 0.101961 0.65098 0.596078 
0.101961 0.65098 0.596078 0.101961 0.65098 0.596078 
0.101961 0.65098 0.596078 0.101961 0.65098 0.596078 
0.101961 0.65098 0.596078 0.101961 0.65098 0.596078 
0.101961 0.65098 0.596078 0.101961 0.65098 0.596078 
0.101961 0.65098 0.596078 0.101961 0.65098 0.596078 
0.101961 0.65098 0.596078 0.101961 0.65098 0.596078 
0.101961 0.65098 0.596078 0.101961 0.65098 0.596078 
0.101961 0.65098 0.596078 0.101961 0.65098 0.596078 
0.101961 0.65098 0.596078 0.101961 0.65098 0.596078 
0.101961 0.65098 0.596078 0.101961 0.65098 0.596078 
0.101961 0.65098 0.596078 0.101961 0.65098 0.596078 
0.101961 0.65098 0.596078 0.101961 0.65098 0.596078 
0.101961 0.65098 0.596078 0.101961 0.65098 0.596078 
0.101961 0.65098 0.596078 0.101961 0.65098 0.596078 
0.101961 0.65098 0.596078 0.101961 0.65098 0.596078 
0.101961 0.65098 0.596078 0.101961 0.65098 0.596078 
0.101961 0.65098 0.596078 0.101961 0.65098 0.596078 
0.101961 0.65098 0.596078 0.101961 0.65098 0.596078 
0.101961 0.65098 0.596078 0.101961 0.65098 0.596078 
0.101961 0.65098 0.596078 0.101961 0.65098 0.596078 
0.101961 0.65098 0.596078 0.101961 0.65098 0.596078 
0.101961 0.65098 0.596078 0.101961 0.65098 0.596078 
0.101961 0.65098 0.596078 0.101961 0.65098 0.596078 
0.101961 0.65098 0.596078 0.101961 0.65098 0.596078 
0.101961 0.65098 0.596078 0.101961 0.65098 0.596078 
0.101961 0.65098 0.596078 0.101961 0.65098 0.596078 
0.101961 0.65098 0.596078 0.101961 0.65098 0.596078 
0.101961 0.65098 0.596078 0.101961 0.65098 0.596078 
0.101961 0.65098 0.596078 0.101961 0.65098 0.596078 
0.101961 0.65098 0.596078 0.101961 0.65098 0.596078 
0.101961 0.65098 0.596078 0.101961 0.65098 0.596078 
0.101961 0.65098 0.596078 0.101961 0.65098 0.596078 
0.101961 0.65098 0.596078 0.101961 0.65098 0.596078 
0.101961 0.65098 0.596078 0.101961 0.65098 0.596078 
0.101961 0.65098 0.596078 0.101961 0.65098 0.596078 
0.101961 0.65098 0.596078 0.101961 0.65098 0.596078 
0.101961 0.65098 0.596078 0.101961 0.65098 0.596078 
0.101961 0.65098 0.596078 0.101961 0.65098 0.596078 
0.101961 0.65098 0.596078 0.101961 0.65098 0.596078 
0.101961 0.65098 0.596078 0.101961 0.65098 0.596078 
0.101961 0.65098 0.596078 0.101961 0.65098 0.596078 
0.101961 0.65098 0.596078 0.101961 0.65098 0.596078 
0.101961 0.65098 0.596078 0.101961 0.65098 0.596078 
0.101961 0.65098 0.596078 0.101961 0.65098 0.596078 
0.101961 0.65098 0.596078 0.101961 0.65098 0.596078 
0.101961 0.65098 0.596078 0.101961 0.65098 0.596078 
0.101961 0.65098 0.596078 0.101961 0.65098 0.596078 
0.101961 0.65098 0.596078 0.101961 0.65098 0.596078 
0.101961 0.65098 0.596078 0.101961 0.65098 0.596078 
0.101961 0.65098 0.596078 0.101961 0.65098 0.596078 
0.101961 0.65098 0.596078 0.101961 0.65098 0.596078 
0.101961 0.65098 0.596078 0.101961 0.65098 0.596078 
0.101961 0.65098 0.596078 0.101961 0.65098 0.596078 
0.101961 0.65098 0.596078 0.101961 0.65098 0.596078 
0.101961 0.65098 0.596078 0.101961 0.65098 0.596078 
0.101961 0.65098 0.596078 0.101961 0.65098 0.596078 
0.101961 0.65098 0.596078 0.101961 0.65098 0.596078 
0.101961 0.65098 0.596078 0.101961 0.65098 0.596078 
0.101961 0.65098 0.596078 0.101961 0.65098 0.596078 
0.101961 0.65098 0.596078 0.101961 0.65098 0.596078 
0.101961 0.65098 0.596078 0.101961 0.65098 0.596078 
0.101961 0.65098 0.596078 0.101961 0.65098 0.596078 
0.101961 0.65098 0.596078 0.101961 0.65098 0.596078 
0.101961 0.65098 0.596078 0.101961 0.65098 0.596078 
0.101961 0.65098 0.596078 0.101961 0.65098 0.596078 
0.101961 0.65098 0.596078 0.101961 0.65098 0.596078 
0.101961 0.65098 0.596078 0.101961 0.65098 0.596078 
0.101961 0.65098 0.596078 0.101961 0.65098 0.596078 
0.101961 0.65098 0.596078 0.101961 0.65098 0.596078 
0.101961 0.65098 0.596078 0.101961 0.65098 0.596078 
0.101961 0.65098 0.596078 0.101961 0.65098 0.596078 
0.101961 0.65098 0.596078 0.101961 0.65098 0.596078 
0.101961 0.65098 0.596078 0.101961 0.65098 0.596078 
0.101961 0.65098 0.596078 0.101961 0.65098 0.596078 
0.101961 0.65098 0.596078 0.101961 0.65098 0.596078 
0.101961 0.65098 0.596078 0.101961 0.65098 0.596078 
0.101961 0.65098 0.596078 0.101961 0.65098 0.596078 
0.101961 0.65098 0.596078 0.101961 0.65098 0.596078 
0.101961 0.65098 0.596078 0.101961 0.65098 0.596078 
0.101961 0.65098 0.596078 0.101961 0.65098 0.596078 
0.101961 0.65098 0.596078 0.101961 0.65098 0.596078 
0.101961 0.65098 0.596078 0.101961 0.65098 0.596078 
0.101961 0.65098 0.596078 0.101961 0.65098 0.596078 
0.101961 0.65098 0.596078 0.101961 0.65098 0.596078 
0.101961 0.65098 0.596078 0.101961 0.65098 0.596078 
0.101961 0.65098 0.596078 0.101961 0.65098 0.596078 
0.101961 0.65098 0.596078 0.101961 0.65098 0.596078 
0.101961 0.65098 0.596078 0.101961 0.65098 0.596078 
0.101961 0.65098 0.596078 0.101961 0.65098 0.596078 
0.101961 0.65098 0.596078 0.101961 0.65098 0.596078 
0.101961 0.65098 0.596078 0.101961 0.65098 0.596078 
0.101961 0.65098 0.596078 0.101961 0.65098 0.596078 
0.101961 0.65098 0.596078 0.101961 0.65098 0.596078 
0.101961 0.65098 0.596078 0.101961 0.65098 0.596078 
0.101961 0.65098 0.596078 0.101961 0.65098 0.596078 
0.101961 0.65098 0.596078 0.101961 0.65098 0.596078 
0.101961 0.65098 0.596078 0.101961 0.65098 0.596078 
0.101961 0.65098 0.596078 0.101961 0.65098 0.596078 
0.101961 0.65098 0.596078 0.101961 0.65098 0.596078 
0.101961 0.65098 0.596078 0.101961 0.65098 0.596078 
0.101961 0.65098 0.596078 0.101961 0.65098 0.596078 
0.101961 0.65098 0.596078 0.101961 0.65098 0.596078 
0.101961 0.65098 0.596078 0.101961 0.65098 0.596078 
0.101961 0.65098 0.596078 0.101961 0.65098 0.596078 
0.101961 0.65098 0.596078 0.101961 0.65098 0.596078 
0.101961 0.65098 0.596078 0.101961 0.65098 0.596078 
0.101961 0.65098 0.596078 0.101961 0.65098 0.596078 
0.101961 0.65098 0.596078 0.101961 0.65098 0.596078 
0.101961 0.65098 0.596078 0.101961 0.65098 0.596078 
0.101961 0.65098 0.596078 0.101961 0.65098 0.596078 
0.101961 0.65098 0.596078 0.101961 0.65098 0.596078 
0.101961 0.65098 0.596078 0.101961 0.65098 0.596078 
0.101961 0.65098 0.596078 0.101961 0.65098 0.596078 
0.101961 0.65098 0.596078 0.101961 0.65098 0.596078 
0.101961 0.65098 0.596078 0.101961 0.65098 0.596078 
0.101961 0.65098 0.596078 0.101961 0.65098 0.596078 
0.101961 0.65098 0.596078 0.101961 0.65098 0.596078 
0.101961 0.65098 0.596078 0.101961 0.65098 0.596078 
0.101961 0.65098 0.596078 0.101961 0.65098 0.596078 
0.101961 0.65098 0.596078 0.101961 0.65098 0.596078 
0.101961 0.65098 0.596078 0.101961 0.65098 0.596078 
0.101961 0.65098 0.596078 0.101961 0.65098 0.596078 
0.101961 0.65098 0.596078 0.101961 0.65098 0.596078 
0.101961 0.65098 0.596078 0.101961 0.65098 0.596078 
0.101961 0.65098 0.596078 0.101961 0.65098 0.596078 
0.101961 0.65098 0.596078 0.101961 0.65098 0.596078 
0.101961 0.65098 0.596078 0.101961 0.65098 0.596078 
0.101961 0.65098 0.596078 0.101961 0.65098 0.596078 
0.101961 0.65098 0.596078 0.101961 0.65098 0.596078 
0.101961 0.65098 0.596078 0.101961 0.65098 0.596078 
0.101961 0.65098 0.596078 0.101961 0.65098 0.596078 
0.101961 0.65098 0.596078 0.101961 0.65098 0.596078 
0.101961 0.65098 0.596078 0.101961 0.65098 0.596078 
0.101961 0.65098 0.596078 0.101961 0.65098 0.596078 
0.101961 0.65098 0.596078 0.101961 0.65098 0.596078 
0.101961 0.65098 0.596078 0.101961 0.65098 0.596078 
0.101961 0.65098 0.596078 0.101961 0.65098 0.596078 
0.101961 0.65098 0.596078 0.101961 0.65098 0.596078 
0.101961 0.65098 0.596078 0.101961 0.65098 0.596078 
0.101961 0.65098 0.596078 0.101961 0.65098 0.596078 
0.101961 0.65098 0.596078 0.101961 0.65098 0.596078 
0.101961 0.65098 0.596078 0.101961 0.65098 0.596078 
0.101961 0.65098 0.596078 0.101961 0.65098 0.596078 
0.101961 0.65098 0.596078 0.101961 0.65098 0.596078 
0.101961 0.65098 0.596078 0.101961 0.65098 0.596078 
0.101961 0.65098 0.596078 0.101961 0.65098 0.596078 
0.101961 0.65098 0.596078 0.101961 0.65098 0.596078 
0.101961 0.65098 0.596078 0.101961 0.65098 0.596078 
0.101961 0.65098 0.596078 0.101961 0.65098 0.596078 
0.101961 0.65098 0.596078 0.101961 0.65098 0.596078 
0.101961 0.65098 0.596078 0.101961 0.65098 0.596078 
0.101961 0.65098 0.596078 0.101961 0.65098 0.596078 
0.101961 0.65098 0.596078 0.101961 0.65098 0.596078 
0.101961 0.65098 0.596078 0.101961 0.65098 0.596078 
0.101961 0.65098 0.596078 0.101961 0.65098 0.596078 
0.101961 0.65098 0.596078 0.101961 0.65098 0.596078 
0.101961 0.65098 0.596078 0.101961 0.65098 0.596078 
0.101961 0.65098 0.596078 0.101961 0.65098 0.596078 
0.101961 0.65098 0.596078 0.101961 0.65098 0.596078 
0.101961 0.65098 0.596078 0.101961 0.65098 0.596078 
0.101961 0.65098 0.596078 0.101961 0.65098 0.596078 
0.101961 0.65098 0.596078 0.101961 0.65098 0.596078 
0.101961 0.65098 0.596078 0.101961 0.65098 0.596078 
0.101961 0.65098 0.596078 0.101961 0.65098 0.596078 
0.101961 0.65098 0.596078 0.101961 0.65098 0.596078 
0.101961 0.65098 0.596078 0.101961 0.65098 0.596078 
0.101961 0.65098 0.596078 0.101961 0.65098 0.596078 
0.101961 0.65098 0.596078 0.101961 0.65098 0.596078 