# vtk DataFile Version 4.2
vtk output
ASCII
DATASET POLYDATA
POINTS 2865 float
366.342 59.0852 156.661 366.039 59.4161 156.456 366.803 59.3211 156.621 
365.464 59.7988 156.421 366.477 59.9306 156.418 366.953 59.587 156.558 
366.883 59.8757 156.497 366.202 60.1505 156.443 368.291 60.8194 156.826 
368.419 60.7728 156.907 363.585 58.7608 156.958 364.822 58.6124 156.852 
365.756 59.1605 156.554 365.681 58.6639 156.835 366.548 58.5076 157.108 
367.151 59.3894 156.731 363.648 59.6845 156.845 363.889 60.0805 156.851 
366.807 60.7 156.669 367.604 60.513 156.781 368.69 60.9259 157.097 
367.999 61.2031 156.97 369.405 61.8489 157.498 369.709 61.8246 157.729 
369.274 62.0782 157.542 365.451 56.3932 158.431 367.025 57.2097 158.217 
360.029 59.0536 158.083 368.545 60.0257 157.269 362.802 60.5966 157.35 
363.799 61.1487 157.305 368.614 61.7908 157.31 370.358 61.5794 158.254 
369.772 62.6657 157.873 369.269 63.012 157.888 370.811 62.7601 158.283 
370.88 63.0789 158.322 371.171 63.3862 158.604 370.476 63.6366 158.32 
371.768 64.3404 159.011 371.692 64.4088 158.98 371.808 64.4641 159.039 
371.931 64.443 159.188 371.709 64.5872 159.147 362.921 56.7234 158.176 
369.364 60.3704 157.814 359.057 60.5479 158.755 360.488 61.2343 158.501 
368.776 63.0459 157.889 371.746 63.4915 159.157 371.354 64.1664 158.894 
371.884 64.1237 159.17 371.706 64.9331 159.422 371.503 65.1986 159.566 
368.529 58.2031 158.58 357.663 58.87 159.412 357.208 58.5772 159.74 
371.092 61.7047 158.858 367.775 63.3796 158.24 366.809 63.9143 158.916 
371.124 65.3022 159.591 372.451 65.0704 160.212 372.816 66.071 160.912 
366.084 55.3234 159.873 367.585 55.9174 160.277 356.274 59.3926 160.134 
355.935 59.1817 160.381 357.269 61.1996 159.927 371.702 61.1572 160.268 
372.851 65.1804 160.716 373.027 65.4781 161.116 372.268 66.0677 160.716 
372.021 66.2841 160.857 360.842 53.9015 161.165 369.794 58.3831 160.068 
355.95 58.5705 160.549 354.604 59.1025 161.244 355.398 59.4258 160.751 
373.131 64.5932 161.215 369.709 65.9344 160.48 372.232 66.6949 161.686 
372.728 66.5551 162.054 364.306 52.8689 162.239 354.752 56.9596 161.936 
353.887 58.0362 161.946 373.246 64.0227 161.933 371.456 66.9964 162.376 
372.373 66.8082 162.475 372.655 66.652 162.376 375.009 69.0043 162.013 
375.009 69.0043 162.013 375.009 69.0043 162.013 375.009 69.0044 162.013 
375.009 69.0044 162.013 360.4 51.6811 163.308 356.32 54.0391 162.928 
351.403 58.8175 163.231 351.487 59.4524 163.125 351.43 61.1225 163.328 
353.074 62.4517 163.02 366.535 66.7612 163.215 370.51 66.9615 162.957 
371.111 67.0136 162.849 372.552 66.6711 162.731 375.009 69.0043 162.013 
365.932 52.4328 163.701 367.521 53.9857 163.179 353.575 63.791 163.729 
354.963 64.7571 164.049 372.909 65.6674 163.499 362.092 66.5469 163.693 
372.474 66.3066 163.562 372.649 66.0245 163.686 368.413 67.0002 163.735 
371.292 66.9099 163.148 371.458 66.6285 163.741 372.084 66.4551 163.668 
369.215 66.9968 163.894 369.698 66.9544 163.885 359.928 49.6263 165.386 
358.318 50.4055 164.942 361.444 50.2159 164.794 349.639 56.5795 165.166 
372.84 61.6126 164.908 373.085 63.2932 164.614 373.245 64.2267 163.76 
372.266 65.7822 164.43 372.492 65.3696 164.597 369.358 66.6812 164.709 
361.241 67.1989 165.676 368.809 66.9137 164.327 365.647 66.9688 165.221 
367 51.0087 166.017 367 51.0087 166.017 367 51.0087 166.017 
367 51.0087 166.017 367 51.0088 166.017 346.898 60.9539 165.898 
348.785 63.5587 165.757 372.697 63.6527 165.444 371.805 65.0221 165.581 
372.439 64.5662 165.314 369.662 65.8739 165.867 367.298 66.4616 165.905 
356.303 48.166 167.605 360.672 47.8625 167.559 367 51.0087 166.017 
371.698 57.5456 166.388 345.58 58.3151 167.171 372.381 63.1181 166.249 
352.469 66.2651 166.91 365.774 66.1174 167.223 357.06 67.2808 167.251 
363.362 66.9151 167.008 361.974 67.1424 166.84 364.59 48.9734 167.925 
371.987 60.9734 168.171 371.139 62.8795 167.807 371.541 62.6743 167.626 
345.197 64.561 167.85 368.865 64.3316 167.905 356.573 67.4687 168.395 
358.192 67.357 168.384 361.907 47.1269 169.006 371.788 60.1604 169.208 
342.307 60.2895 169.055 371.903 60.7953 168.758 371.605 61.3272 168.579 
372.004 61.8989 167.57 353.14 67.5473 168.949 353.514 46.3684 170.306 
369.963 52.7675 169.472 371.039 54.9139 169.053 371.156 54.8861 169.903 
371.633 59.777 169.879 371.714 59.9898 169.671 371.674 59.9478 169.811 
371.446 60.9227 169.134 341.365 65.0016 169.949 361.484 65.8526 169.794 
342.929 66.5067 170.031 346.709 67.0319 169.376 347.744 67.1297 169.26 
354.293 67.8534 170.24 355.25 67.6485 170.275 356.003 67.5012 169.936 
359.219 45.036 171.24 367.794 49.607 170.729 371.628 56.7156 170.65 
342.166 56.1528 170.966 371.583 58.4133 170.517 371.285 59.9973 170.145 
340.85 66.4958 171.057 358.532 66.5675 170.547 350.735 68.0155 170.183 
353.589 68.0249 170.978 354.036 68.0085 170.726 354.731 67.7494 170.877 
363.082 45.8827 171.794 349.806 46.7695 171.866 371.389 55.1558 172.518 
371.243 58.4405 171.246 370.427 59.5574 171.339 349.653 68.68 171.542 
350.653 68.5593 171.547 352.614 68.225 171.618 354.138 67.9603 170.959 
348.174 69.1005 172.208 351.981 68.4152 172.127 352.637 68.2174 172.376 
355.258 44.0144 172.546 347.045 48.2489 172.621 371.333 54.2488 173.375 
371.452 55.0054 173.092 371.396 56.0892 172.233 371.188 55.7172 173.335 
366.189 60.4031 173.135 355.449 67.0708 172.255 353.099 67.9253 173.134 
349.516 69.1196 172.804 351.089 68.7153 173.196 349.805 69.1516 173.331 
349.948 44.2881 173.93 343.971 50.252 173.5 371.397 54.0401 173.888 
371.308 54.5839 174.027 371.208 55.173 174.111 370.906 57.0975 172.785 
369.521 57.5539 174.074 337.439 58.8064 173.929 335.973 65.1704 174.249 
347.721 44.2547 175.137 362.502 43.7558 175.191 335.59 67.7111 175.183 
349.987 69.0728 174.636 345.959 70.4092 175.147 344.193 70.9017 175.54 
354.468 41.6132 176.293 370.493 50.8252 176.176 339.388 52.7308 175.567 
371.149 54.1944 175.203 370.627 55.3009 175.495 361.902 60.0453 176.109 
335.552 69.4109 175.867 338.135 70.7911 175.669 359.133 41.8598 176.884 
365.466 44.6465 176.8 370.724 54.2453 176.301 369.099 55.2633 177.293 
370.514 54.7075 176.289 346.827 70.1421 176.397 345.362 70.7692 176.561 
341.115 72.1335 177.231 362 41.0087 178.017 362 41.0087 178.017 
362 41.0087 178.017 362 41.0087 178.017 345.341 42.8223 177.774 
362 41.0088 178.017 343.471 43.895 178.017 367.907 46.3474 177.715 
368.982 47.5602 177.713 369.567 48.5988 177.324 370.358 50.0759 177.97 
370.644 51.3509 177.807 370.453 52.6345 178.065 334.503 57.0924 177.758 
332.974 67.6287 177.42 346.072 70.3144 177.769 347.655 69.0633 178.471 
334.017 71.797 178.09 336.585 73.1071 178.105 337.711 72.7537 177.673 
341.774 72.3724 178.467 346.4 41.466 178.782 348.189 41.1521 178.436 
362 41.0087 178.017 363 41.0087 179.017 363 41.0087 179.017 
363 41.0087 179.017 363 41.0087 179.017 363 41.0088 179.017 
369.75 48.5242 178.375 370.317 49.8776 179.051 370.501 51.2833 178.655 
369.015 53.6093 179.366 369.883 53.4943 178.393 345.001 70.6455 179.052 
332.123 71.5994 179.222 333.419 73.465 179.423 339.484 73.4314 179.058 
340.04 73.2779 179.283 336.969 74.4675 179.584 352.048 39.8341 179.865 
363 41.0087 179.017 342.319 42.2982 180.041 367.909 45.5311 179.683 
369.94 48.5065 179.808 370.013 51.9399 179.774 369.548 52.3096 180.295 
367.883 54.2829 179.522 331.861 61.0295 179.407 342.064 72.3138 179.729 
341.08 72.8563 179.855 333.523 74.7212 180.352 338.462 74.1218 179.723 
335.587 75.1121 180.357 362.786 41.3401 180.748 339.733 42.8077 181.285 
370.134 49.6426 180.884 330.25 63.1046 180.854 329.521 68.0691 181.09 
340.814 72.9785 180.572 340.098 73.3952 180.856 337.646 74.9448 181.706 
336.013 75.5614 181.319 356.375 38.9218 182.161 369.498 51.0463 181.934 
361.571 55.8202 182.17 341.939 71.5561 182.723 329.716 73.9394 182.23 
340.02 73.4147 181.491 331.257 76.0565 182.342 331.961 76.5542 182.446 
332.855 76.7989 182.463 333.633 76.9851 182.892 360.837 39.5312 182.98 
336.068 42.3682 183.965 369.704 48.0616 182.742 369.871 49.651 182.158 
368.615 51.4191 182.631 369.213 50.9365 182.476 369.349 50.2615 182.949 
331.35 54.1841 182.665 327.868 68.5078 183.048 332.668 77.6725 183.7 
366 41.0087 184.017 366 41.0087 184.017 366 41.0087 184.017 
366 41.0087 184.017 366 41.0088 184.017 369.497 48.6494 183.914 
363.495 53.4822 184.047 329.852 76.8867 184.04 331.429 78.1085 184.436 
331.407 78.4039 184.87 331.573 78.5561 185.141 332.302 78.3737 185.113 
366 41.0087 184.017 370 44.0087 185.017 370 44.0087 185.017 
370 44.0087 185.017 370 44.0087 185.017 370 44.0088 185.017 
355.095 58.4204 185.414 329.359 77.726 185.226 331.215 78.573 185.241 
331.829 78.7088 185.857 370 44.0087 185.017 368.472 49.5184 185.434 
368.081 49.7775 185.636 364.488 51.6773 186.141 367.511 50.161 185.707 
329.22 52.5438 185.482 326.081 68.4384 185.658 325.916 72.3372 186.173 
334.101 77.2752 186.215 329.824 78.6957 186.189 332.092 78.6474 186.278 
330.973 78.9034 186.25 366.743 41.5818 186.933 369.075 45.8922 187.101 
371 46.0087 187.017 371 46.0087 187.017 371 46.0087 187.017 
371 46.0087 187.017 371 46.0088 187.017 368.895 47.8778 186.693 
368.558 48.1313 187.17 331.494 78.9501 187.086 331.871 78.7786 187.363 
330.822 79.1353 187.159 330.129 79.4645 187.788 360.553 37.739 187.914 
363.804 39.2901 187.212 367 40.0087 188.017 367 40.0087 188.017 
367 40.0087 188.017 367 40.0087 188.017 367 40.0088 188.017 
368.004 41.0131 188.009 368.004 41.0131 188.009 368.004 41.0131 188.009 
368.004 41.0131 188.009 368.004 41.0131 188.009 368.643 44.1158 187.572 
370 44.0087 188.017 370 44.0087 188.017 370 44.0087 188.017 
370 44.0087 188.017 370 44.0088 188.017 368.977 45.9729 188.493 
371 46.0087 187.017 327.475 50.6664 187.704 326.476 54.1562 187.772 
329.209 79.7132 188.8 367 40.0087 188.017 368.004 41.0131 188.009 
370 44.0087 188.017 369.025 45.8009 189.272 328.272 80.4515 190.334 
329.939 79.7305 189.618 328.489 80.6007 190.703 328.771 80.5329 190.701 
369 41.0087 190.017 369 41.0087 190.017 369 41.0087 190.017 
369 41.0087 190.017 326.915 42.7687 189.984 369 41.0088 190.017 
[...]
POINT_DATA 2865
COLOR_SCALARS scalars 3
0.101961 0.65098 0.596078 0.101961 0.65098 0.596078 0.101961 0.65098 0.596078 
0.101961 0.65098 0.596078 0.101961 0.65098 0.596078 
0.101961 0.65098 0.596078 0.101961 0.65098 0.596078 
0.101961 0.65098 0.596078 0.101961 0.65098 0.596078 
0.101961 0.65098 0.596078 0.101961 0.65098 0.596078 
0.101961 0.65098 0.596078 0.101961 0.65098 0.596078 
0.101961 0.65098 0.596078 0.101961 0.65098 0.596078 
0.101961 0.65098 0.596078 0.101961 0.65098 0.596078 
0.101961 0.65098 0.596078 0.101961 0.65098 0.596078 
0.101961 0.65098 0.596078 0.101961 0.65098 0.596078 
0.101961 0.65098 0.596078 0.101961 0.65098 0.596078 
0.101961 0.65098 0.596078 0.101961 0.65098 0.596078 
0.101961 0.65098 0.596078 0.101961 0.65098 0.596078 
0.101961 0.65098 0.596078 0.101961 0.65098 0.596078 
0.101961 0.65098 0.596078 0.101961 0.65098 0.596078 
0.101961 0.65098 0.596078 0.101961 0.65098 0.596078 
0.101961 0.65098 0.596078 0.101961 0.65098 0.596078 
0.101961 0.65098 0.596078 0.101961 0.65098 0.596078 
0.101961 0.65098 0.596078 0.101961 0.65098 0.596078 
0.101961 0.65098 0.596078 0.101961 0.65098 0.596078 
0.101961 0.65098 0.596078 0.101961 0.65098 0.596078 
0.101961 0.65098 0.596078 0.101961 0.65098 0.596078 
0.101961 0.65098 0.596078 0.101961 0.65098 0.596078 
0.101961 0.65098 0.596078 0.101961 0.65098 0.596078 
0.101961 0.65098 0.596078 0.101961 0.65098 0.596078 
0.101961 0.65098 0.596078 0.101961 0.65098 0.596078 
0.101961 0.65098 0.596078 0.101961 0.65098 0.596078 
0.101961 0.65098 0.596078 0.101961 0.65098 0.596078 
0.101961 0.65098 0.596078 0.101961 0.65098 0.596078 
0.101961 0.65098 0.596078 0.101961 0.65098 0.596078 
0.101961 0.65098 0.596078 0.101961 0.65098 0.596078 
0.101961 0.65098 0.596078 0.101961 0.65098 0.596078 
0.101961 0.65098 0.596078 0.101961 0.65098 0.596078 
0.101961 0.65098 0.596078 0.101961 0.65098 0.596078 
0.101961 0.65098 0.596078 0.101961 0.65098 0.596078 
0.101961 0.65098 0.596078 0.101961 0.65098 0.596078 
0.101961 0.65098 0.596078 0.101961 0.65098 0.596078 
0.101961 0.65098 0.596078 0.101961 0.65098 0.596078 
0.101961 0.65098 0.596078 0.101961 0.65098 0.596078 
0.101961 0.65098 0.596078 0.101961 0.65098 0.596078 
0.101961 0.65098 0.596078 0.101961 0.65098 0.596078 
0.101961 0.65098 0.596078 0.101961 0.65098 0.596078 
0.101961 0.65098 0.596078 0.101961 0.65098 0.596078 
0.101961 0.65098 0.596078 0.101961 0.65098 0.596078 
0.101961 0.65098 0.596078 0.101961 0.65098 0.596078 
0.101961 0.65098 0.596078 0.101961 0.65098 0.596078 
0.101961 0.65098 0.596078 0.101961 0.65098 0.596078 
0.101961 0.65098 0.596078 0.101961 0.65098 0.596078 
0.101961 0.65098 0.596078 0.101961 0.65098 0.596078 
0.101961 0.65098 0.596078 0.101961 0.65098 0.596078 
0.101961 0.65098 0.596078 0.101961 0.65098 0.596078 
0.101961 0.65098 0.596078 0.101961 0.65098 0.596078 
0.101961 0.65098 0.596078 0.101961 0.65098 0.596078 
0.101961 0.65098 0.596078 0.101961 0.65098 0.596078 
0.101961 0.65098 0.596078 0.101961 0.65098 0.596078 
0.101961 0.65098 0.596078 0.101961 0.65098 0.596078 
0.101961 0.65098 0.596078 0.101961 0.65098 0.596078 
0.101961 0.65098 0.596078 0.101961 0.65098 0.596078 
0.101961 0.65098 0.596078 0.101961 0.65098 0.596078 
0.101961 0.65098 0.596078 0.101961 0.65098 0.596078 
0.101961 0.65098 0.596078 0.101961 0.65098 0.596078 
0.101961 0.65098 0.596078 0.101961 0.65098 0.596078 
0.101961 0.65098 0.596078 0.101961 0.65098 0.596078 
0.101961 0.65098 0.596078 0.101961 0.65098 0.596078 
0.101961 0.65098 0.596078 0.101961 0.65098 0.596078 
0.101961 0.65098 0.596078 0.101961 0.65098 0.596078 
0.101961 0.65098 0.596078 0.101961 0.65098 0.596078 
0.101961 0.65098 0.596078 0.101961 0.65098 0.596078 
0.101961 0.65098 0.596078 0.101961 0.65098 0.596078 
0.101961 0.65098 0.596078 0.101961 0.65098 0.596078 
0.101961 0.65098 0.596078 0.101961 0.65098 0.596078 
0.101961 0.65098 0.596078 0.101961 0.65098 0.596078 
0.101961 0.65098 0.596078 0.101961 0.65098 0.596078 
0.101961 0.65098 0.596078 0.101961 0.65098 0.596078 
0.101961 0.65098 0.596078 0.101961 0.65098 0.596078 
0.101961 0.65098 0.596078 0.101961 0.65098 0.596078 
0.101961 0.65098 0.596078 0.101961 0.65098 0.596078 
0.101961 0.65098 0.596078 0.101961 0.65098 0.596078 
0.101961 0.65098 0.596078 0.101961 0.65098 0.596078 
0.101961 0.65098 0.596078 0.101961 0.65098 0.596078 
0.101961 0.65098 0.596078 0.101961 0.65098 0.596078 
0.101961 0.65098 0.596078 0.101961 0.65098 0.596078 
0.101961 0.65098 0.596078 0.101961 0.65098 0.596078 
0.101961 0.65098 0.596078 0.101961 0.65098 0.596078 
0.101961 0.65098 0.596078 0.101961 0.65098 0.596078 
0.101961 0.65098 0.596078 0.101961 0.65098 0.596078 
0.101961 0.65098 0.596078 0.101961 0.65098 0.596078 
0.101961 0.65098 0.596078 0.101961 0.65098 0.596078 
0.101961 0.65098 0.596078 0.101961 0.65098 0.596078 
0.101961 0.65098 0.596078 0.101961 0.65098 0.596078 
0.101961 0.65098 0.596078 0.101961 0.65098 0.596078 
0.101961 0.65098 0.596078 0.101961 0.65098 0.596078 
0.101961 0.65098 0.596078 0.101961 0.65098 0.596078 
0.101961 0.65098 0.596078 0.101961 0.65098 0.596078 
0.101961 0.65098 0.596078 0.101961 0.65098 0.596078 
0.101961 0.65098 0.596078 0.101961 0.65098 0.596078 
0.101961 0.65098 0.596078 0.101961 0.65098 0.596078 
0.101961 0.65098 0.596078 0.101961 0.65098 0.596078 
0.101961 0.65098 0.596078 0.101961 0.65098 0.596078 
0.101961 0.65098 0.596078 0.101961 0.65098 0.596078 
0.101961 0.65098 0.596078 0.101961 0.65098 0.596078 
0.101961 0.65098 0.596078 0.101961 0.65098 0.596078 
0.101961 0.65098 0.596078 0.101961 0.65098 0.596078 
0.101961 0.65098 0.596078 0.101961 0.65098 0.596078 
0.101961 0.65098 0.596078 0.101961 0.65098 0.596078 
0.101961 0.65098 0.596078 0.101961 0.65098 0.596078 
0.101961 0.65098 0.596078 0.101961 0.65098 0.596078 
0.101961 0.65098 0.596078 0.101961 0.65098 0.596078 
0.101961 0.65098 0.596078 0.101961 0.65098 0.596078 
0.101961 0.65098 0.596078 0.101961 0.65098 0.596078 
0.101961 0.65098 0.596078 0.101961 0.65098 0.596078 
0.101961 0.65098 0.596078 0.101961 0.65098 0.596078 
0.101961 0.65098 0.596078 0.101961 0.65098 0.596078 
0.101961 0.65098 0.596078 0.101961 0.65098 0.596078 
0.101961 0.65098 0.596078 0.101961 0.65098 0.596078 
0.101961 0.65098 0.596078 0.101961 0.65098 0.596078 
0.101961 0.65098 0.596078 0.101961 0.65098 0.596078 
0.101961 0.65098 0.596078 0.101961 0.65098 0.596078 
0.101961 0.65098 0.596078 0.101961 0.65098 0.596078 
0.101961 0.65098 0.596078 0.101961 0.65098 0.596078 
0.101961 0.65098 0.596078 0.101961 0.65098 0.596078 
0.101961 0.65098 0.596078 0.101961 0.65098 0.596078 
0.101961 0.65098 0.596078 0.101961 0.65098 0.596078 
0.101961 0.65098 0.596078 0.101961 0.65098 0.596078 
0.101961 0.65098 0.596078 0.101961 0.65098 0.596078 
0.101961 0.65098 0.596078 0.101961 0.65098 0.596078 
0.101961 0.65098 0.596078 0.101961 0.65098 0.596078 
0.101961 0.65098 0.596078 0.101961 0.65098 0.596078 
0.101961 0.65098 0.596078 0.101961 0.65098 0.596078 
0.101961 0.65098 0.596078 0.101961 0.65098 0.596078 
0.101961 0.65098 0.596078 0.101961 0.65098 0.596078 
0.101961 0.65098 0.596078 0.101961 0.65098 0.596078 
0.101961 0.65098 0.596078 0.101961 0.65098 0.596078 
0.101961 0.65098 0.596078 0.101961 0.65098 0.596078 
0.101961 0.65098 0.596078 0.101961 0.65098 0.596078 
0.101961 0.65098 0.596078 0.101961 0.65098 0.596078 
0.101961 0.65098 0.596078 0.101961 0.65098 0.596078 
0.101961 0.65098 0.596078 0.101961 0.65098 0.596078 
0.101961 0.65098 0.596078 0.101961 0.65098 0.596078 
0.101961 0.65098 0.596078 0.101961 0.65098 0.596078 
0.101961 0.65098 0.596078 0.101961 0.65098 0.596078 
0.101961 0.65098 0.596078 0.101961 0.65098 0.596078 
0.101961 0.65098 0.596078 0.101961 0.65098 0.596078 
0.101961 0.65098 0.596078 0.101961 0.65098 0.596078 
0.101961 0.65098 0.596078 0.101961 0.65098 0.596078 
0.101961 0.65098 0.596078 0.101961 0.65098 0.596078 
0.101961 0.65098 0.596078 0.101961 0.65098 0.596078 
0.101961 0.65098 0.596078 0.101961 0.65098 0.596078 
0.101961 0.65098 0.596078 0.101961 0.65098 0.596078 
0.101961 0.65098 0.596078 0.101961 0.65098 0.596078 
0.101961 0.65098 0.596078 0.101961 0.65098 0.596078 
0.101961 0.65098 0.596078 0.101961 0.65098 0.596078 
0.101961 0.65098 0.596078 0.101961 0.65098 0.596078 
0.101961 0.65098 0.596078 0.101961 0.65098 0.596078 
0.101961 0.65098 0.596078 0.101961 0.65098 0.596078 
0.101961 0.65098 0.596078 0.101961 0.65098 0.596078 
0.101961 0.65098 0.596078 0.101961 0.65098 0.596078 
0.101961 0.65098 0.596078 0.101961 0.65098 0.596078 
0.101961 0.65098 0.596078 0.101961 0.65098 0.596078 
0.101961 0.65098 0.596078 0.101961 0.65098 0.596078 
0.101961 0.65098 0.596078 0.101961 0.65098 0.596078 
0.101961 0.65098 0.596078 0.101961 0.65098 0.596078 
0.101961 0.65098 0.596078 0.101961 0.65098 0.596078 
0.101961 0.65098 0.596078 0.101961 0.65098 0.596078 
0.101961 0.65098 0.596078 0.101961 0.65098 0.596078 
0.101961 0.65098 0.596078 0.101961 0.65098 0.596078 
0.101961 0.65098 0.596078 0.101961 0.65098 0.596078 
0.101961 0.65098 0.596078 0.101961 0.65098 0.596078 
0.101961 0.65098 0.596078 0.101961 0.65098 0.596078 
0.101961 0.65098 0.596078 0.101961 0.65098 0.596078 
0.101961 0.65098 0.596078 0.101961 0.65098 0.596078 
0.101961 0.65098 0.596078 0.101961 0.65098 0.596078 
0.101961 0.65098 0.596078 0.101961 0.65098 0.596078 
0.101961 0.65098 0.596078 0.101961 0.65098 0.596078 
0.101961 0.65098 0.596078 0.101961 0.65098 0.596078 
0.101961 0.65098 0.596078 0.101961 0.65098 0.596078 
0.101961 0.65098 0.596078 0.101961 0.65098 0.596078 
0.101961 0.65098 0.596078 0.101961 0.65098 0.596078 
0.101961 0.65098 0.596078 0.101961 0.65098 0.596078 
0.101961 0.65098 0.596078 0.101961 0.65098 0.596078 
0.101961 0.65098 0.596078 0.101961 0.65098 0.596078 
0.101961 0.65098 0.596078 0.101961 0.65098 0.596078 
0.101961 0.65098 0.596078 0.101961 0.65098 0.596078 
0.101961 0.65098 0.596078 0.101961 0.65098 0.596078 
0.101961 0.65098 0.596078 0.101961 0.65098 0.596078 
0.101961 0.65098 0.596078 0.101961 0.65098 0.596078 
0.101961 0.65098 0.596078 0.101961 0.65098 0.596078 
0.101961 0.65098 0.596078 0.101961 0.65098 0.596078 
0.101961 0.65098 0.596078 0.101961 0.65098 0.596078 
0.101961 0.65098 0.596078 0.101961 0.65098 0.596078 
0.101961 0.65098 0.596078 0.101961 0.65098 0.596078 
0.101961 0.65098 0.596078 0.101961 0.65098 0.596078 
0.101961 0.65098 0.596078 0.101961 0.65098 0.596078 
0.101961 0.65098 0.596078 0.101961 0.65098 0.596078 
0.101961 0.65098 0.596078 0.101961 0.65098 0.596078 
0.101961 0.65098 0.596078 0.101961 0.65098 0.596078 
0.101961 0.65098 0.596078 0.101961 0.65098 0.596078 
0.101961 0.65098 0.596078 0.101961 0.65098 0.596078 
0.101961 0.65098 0.596078 0.101961 0.65098 0.596078 
0.101961 0.65098 0.596078 0.101961 0.65098 0.596078 
0.101961 0.65098 0.596078 0.101961 0.65098 0.596078 
0.101961 0.65098 0.596078 0.101961 0.65098 0.596078 
0.101961 0.65098 0.596078 0.101961 0.65098 0.596078 
0.101961 0.65098 0.596078 0.101961 0.65098 0.596078 
0.101961 0.65098 0.596078 0.101961 0.65098 0.596078 
0.101961 0.65098 0.596078 0.101961 0.65098 0.596078 
0.101961 0.65098 0.596078 0.101961 0.65098 0.596078 
0.101961 0.65098 0.596078 0.101961 0.65098 0.596078 
0.101961 0.65098 0.596078 0.101961 0.65098 0.596078 
0.101961 0.65098 0.596078 0.101961 0.65098 0.596078 
0.101961 0.65098 0.596078 0.101961 0.65098 0.596078 
0.101961 0.65098 0.596078 0.101961 0.65098 0.596078 
0.101961 0.65098 0.596078 0.101961 0.65098 0.596078 
0.101961 0.65098 0.596078 0.101961 0.65098 0.596078 
0.101961 0.65098 0.596078 0.101961 0.65098 0.596078 
0.101961 0.65098 0.596078 0.101961 0.65098 0.596078 
0.101961 0.65098 0.596078 0.101961 0.65098 0.596078 
0.101961 0.65098 0.596078 0.101961 0.65098 0.596078 
0.101961 0.65098 0.596078 0.101961 0.65098 0.596078 
0.101961 0.65098 0.596078 0.101961 0.65098 0.596078 
0.101961 0.65098 0.596078 0.101961 0.65098 0.596078 
0.101961 0.65098 0.596078 0.101961 0.65098 0.596078 
0.101961 0.65098 0.596078 0.101961 0.65098 0.596078 
0.101961 0.65098 0.596078 0.101961 0.65098 0.596078 
0.101961 0.65098 0.596078 0.101961 0.65098 0.596078 
0.101961 0.65098 0.596078 0.101961 0.65098 0.596078 
0.101961 0.65098 0.596078 0.101961 0.65098 0.596078 
0.101961 0.65098 0.596078 0.101961 0.65098 0.596078 
0.101961 0.65098 0.596078 0.101961 0.65098 0.596078 
0.101961 0.65098 0.596078 0.101961 0.65098 0.596078 
0.101961 0.65098 0.596078 0.101961 0.65098 0.596078 
0.101961 0.65098 0.596078 0.101961 0.65098 0.596078 
0.101961 0.65098 0.596078 0.101961 0.65098 0.596078 
0.101961 0.65098 0.596078 0.101961 0.65098 0.596078 
0.101961 0.65098 0.596078 0.101961 0.65098 0.596078 
0.101961 0.65098 0.596078 0.101961 0.65098 0.596078 
0.101961 0.65098 0.596078 0.101961 0.65098 0.596078 
0.101961 0.65098 0.596078 0.101961 0.65098 0.596078 
0.101961 0.65098 0.596078 0.101961 0.65098 0.596078 
0.101961 0.65098 0.596078 0.101961 0.65098 0.596078 
0.101961 0.65098 0.596078 0.101961 0.65098 0.596078 
0.101961 0.65098 0.596078 0.101961 0.65098 0.596078 
0.101961 0.65098 0.596078 0.101961 0.65098 0.596078 
0.101961 0.65098 0.596078 0.101961 0.65098 0.596078 
0.101961 0.65098 0.596078 0.101961 0.65098 0.596078 
0.101961 0.65098 0.596078 0.101961 0.65098 0.596078 
0.101961 0.65098 0.596078 0.101961 0.65098 0.596078 
0.101961 0.65098 0.596078 0.101961 0.65098 0.596078 
0.101961 0.65098 0.596078 0.101961 0.65098 0.596078 
0.101961 0.65098 0.596078 0.101961 0.65098 0.596078 
0.101961 0.65098 0.596078 0.101961 0.65098 0.596078 
0.101961 0.65098 0.596078 0.101961 0.65098 0.596078 
0.101961 0.65098 0.596078 0.101961 0.65098 0.596078 
0.101961 0.65098 0.596078 0.101961 0.65098 0.596078 
0.101961 0.65098 0.596078 0.101961 0.65098 0.596078 
0.101961 0.65098 0.596078 0.101961 0.65098 0.596078 
0.101961 0.65098 0.596078 0.101961 0.65098 0.596078 
0.101961 0.65098 0.596078 0.101961 0.65098 0.596078 
0.101961 0.65098 0.596078 0.101961 0.65098 0.596078 
0.101961 0.65098 0.596078 0.101961 0.65098 0.596078 
0.101961 0.65098 0.596078 0.101961 0.65098 0.596078 
0.101961 0.65098 0.596078 0.101961 0.65098 0.596078 
0.101961 0.65098 0.596078 0.101961 0.65098 0.596078 
0.101961 0.65098 0.596078 0.101961 0.65098 0.596078 
0.101961 0.65098 0.596078 0.101961 0.65098 0.596078 
0.101961 0.65098 0.596078 0.101961 0.65098 0.596078 
0.101961 0.65098 0.596078 0.101961 0.65098 0.596078 
0.101961 0.65098 0.596078 0.101961 0.65098 0.596078 
0.101961 0.65098 0.596078 0.101961 0.65098 0.596078 
0.101961 0.65098 0.596078 0.101961 0.65098 0.596078 
0.101961 0.65098 0.596078 0.101961 0.65098 0.596078 
0.101961 0.65098 0.596078 0.101961 0.65098 0.596078 
0.101961 0.65098 0.596078 0.101961 0.65098 0.596078 
0.101961 0.65098 0.596078 0.101961 0.65098 0.596078 
0.101961 0.65098 0.596078 0.101961 0.65098 0.596078 
0.101961 0.65098 0.596078 0.101961 0.65098 0.596078 
0.101961 0.65098 0.596078 0.101961 0.65098 0.596078 
0.101961 0.65098 0.596078 0.101961 0.65098 0.596078 
0.101961 0.65098 0.596078 0.101961 0.65098 0.596078 
0.101961 0.65098 0.596078 0.101961 0.65098 0.596078 
0.101961 0.65098 0.596078 0.101961 0.65098 0.596078 
0.101961 0.65098 0.596078 0.101961 0.65098 0.596078 
0.101961 0.65098 0.596078 0.101961 0.65098 0.596078 
0.101961 0.65098 0.596078 0.101961 0.65098 0.596078 
0.101961 0.65098 0.596078 0.101961 0.65098 0.596078 
0.101961 0.65098 0.596078 0.101961 0.65098 0.596078 
0.101961 0.65098 0.596078 0.101961 0.65098 0.596078 
0.101961 0.65098 0.596078 0.101961 0.65098 0.596078 
0.101961 0.65098 0.596078 0.101961 0.65098 0.596078 
0.101961 0.65098 0.596078 0.101961 0.65098 0.596078 
0.101961 0.65098 0.596078 0.101961 0.65098 0.596078 
0.101961 0.65098 0.596078 0.101961 0.65098 0.596078 
0.101961 0.65098 0.596078 0.101961 0.65098 0.596078 
0.101961 0.65098 0.596078 0.101961 0.65098 0.596078 
0.101961 0.65098 0.596078 0.101961 0.65098 0.596078 
0.101961 0.65098 0.596078 0.101961 0.65098 0.596078 
0.101961 0.65098 0.596078 0.101961 0.65098 0.596078 
0.101961 0.65098 0.596078 0.101961 0.65098 0.596078 
0.101961 0.65098 0.596078 0.101961 0.65098 0.596078 
0.101961 0.65098 0.596078 0.101961 0.65098 0.596078 
0.101961 0.65098 0.596078 0.101961 0.65098 0.596078 
0.101961 0.65098 0.596078 0.101961 0.65098 0.596078 
0.101961 0.65098 0.596078 0.101961 0.65098 0.596078 
0.101961 0.65098 0.596078 0.101961 0.65098 0.596078 
0.101961 0.65098 0.596078 0.101961 0.65098 0.596078 
0.101961 0.65098 0.596078 0.101961 0.65098 0.596078 
0.101961 0.65098 0.596078 0.101961 0.65098 0.596078 
0.101961 0.65098 0.596078 0.101961 0.65098 0.596078 
0.101961 0.65098 0.596078 0.101961 0.65098 0.596078 
0.101961 0.65098 0.596078 0.101961 0.65098 0.596078 
0.101961 0.65098 0.596078 0.101961 0.65098 0.596078 
0.101961 0.65098 0.596078 0.101961 0.65098 0.596078 
0.101961 0.65098 0.596078 0.101961 0.65098 0.596078 
0.101961 0.65098 0.596078 0.101961 0.65098 0.596078 
0.101961 0.65098 0.596078 0.101961 0.65098 0.596078 
0.101961 0.65098 0.596078 0.101961 0.65098 0.596078 
0.101961 0.65098 0.596078 0.101961 0.65098 0.596078 
0.101961 0.65098 0.596078 0.101961 0.65098 0.596078 
0.101961 0.65098 0.596078 0.101961 0.65098 0.596078 
0.101961 0.65098 0.596078 0.101961 0.65098 0.596078 
0.101961 0.65098 0.596078 0.101961 0.65098 0.596078 
0.101961 0.65098 0.596078 0.101961 0.65098 0.596078 
0.101961 0.65098 0.596078 0.101961 0.65098 0.596078 
0.101961 0.65098 0.596078 0.101961 0.65098 0.596078 
0.101961 0.65098 0.596078 0.101961 0.65098 0.596078 
0.101961 0.65098 0.596078 0.101961 0.65098 0.596078 
0.101961 0.65098 0.596078 0.101961 0.65098 0.596078 
0.101961 0.65098 0.596078 0.101961 0.65098 0.596078 
0.101961 0.65098 0.596078 0.101961 0.65098 0.596078 
0.101961 0.65098 0.596078 0.101961 0.65098 0.596078 
0.101961 0.65098 0.596078 0.101961 0.65098 0.596078 
0.101961 0.65098 0.596078 0.101961 0.65098 0.596078 
0.101961 0.65098 0.596078 0.101961 0.65098 0.596078 
0.101961 0.65098 0.596078 0.101961 0.65098 0.596078 
0.101961 0.65098 0.596078 0.101961 0.65098 0.596078 
0.101961 0.65098 0.596078 0.101961 0.65098 0.596078 
0.101961 0.65098 0.596078 0.101961 0.65098 0.596078 
0.101961 0.65098 0.596078 0.101961 0.65098 0.596078 
0.101961 0.65098 0.596078 0.101961 0.65098 0.596078 
0.101961 0.65098 0.596078 0.101961 0.65098 0.596078 
0.101961 0.65098 0.596078 0.101961 0.65098 0.596078 
0.101961 0.65098 0.596078 0.101961 0.65098 0.596078 
0.101961 0.65098 0.596078 0.101961 0.65098 0.596078 
0.101961 0.65098 0.596078 0.101961 0.65098 0.596078 
0.101961 0.65098 0.596078 0.101961 0.65098 0.596078 
0.101961 0.65098 0.596078 0.101961 0.65098 0.596078 
0.101961 0.65098 0.596078 0.101961 0.65098 0.596078 
0.101961 0.65098 0.596078 0.101961 0.65098 0.596078 
0.101961 0.65098 0.596078 0.101961 0.65098 0.596078 
0.101961 0.65098 0.596078 0.101961 0.65098 0.596078 
0.101961 0.65098 0.596078 0.101961 0.65098 0.596078 
0.101961 0.65098 0.596078 0.101961 0.65098 0.596078 
0.101961 0.65098 0.596078 0.101961 0.65098 0.596078 
0.101961 0.65098 0.596078 0.101961 0.65098 0.596078 
0.101961 0.65098 0.596078 0.101961 0.65098 0.596078 
0.101961 0.65098 0.596078 0.101961 0.65098 0.596078 
0.101961 0.65098 0.596078 0.101961 0.65098 0.596078 
0.101961 0.65098 0.596078 0.101961 0.65098 0.596078 
0.101961 0.65098 0.596078 0.101961 0.65098 0.596078 
0.101961 0.65098 0.596078 0.101961 0.65098 0.596078 
0.101961 0.65098 0.596078 0.101961 0.65098 0.596078 
0.101961 0.65098 0.596078 0.101961 0.65098 0.596078 
0.101961 0.65098 0.596078 0.101961 0.65098 0.596078 
0.101961 0.65098 0.596078 0.101961 0.65098 0.596078 
0.101961 0.65098 0.596078 0.101961 0.65098 0.596078 
0.101961 0.65098 0.596078 0.101961 0.65098 0.596078 
0.101961 0.65098 0.596078 0.101961 0.65098 0.596078 
0.101961 0.65098 0.596078 0.101961 0.65098 0.596078 
0.101961 0.65098 0.596078 0.101961 0.65098 0.596078 
0.101961 0.65098 0.596078 0.101961 0.65098 0.596078 
0.101961 0.65098 0.596078 0.101961 0.65098 0.596078 
0.101961 0.65098 0.596078 0.101961 0.65098 0.596078 
0.101961 0.65098 0.596078 0.101961 0.65098 0.596078 
0.101961 0.65098 0.596078 0.101961 0.65098 0.596078 
0.101961 0.65098 0.596078 0.101961 0.65098 0.596078 
0.101961 0.65098 0.596078 0.101961 0.65098 0.596078 