# vtk DataFile Version 4.2
vtk output
ASCII
DATASET POLYDATA
POINTS 3350 float
366.299 58.9324 156.76 366.09 59.1711 156.603 365.633 59.356 156.66 
365.271 59.3592 156.812 366.104 59.4018 156.59 366.555 59.5297 156.554 
366.876 59.358 156.624 366.863 59.5299 156.571 367.174 59.4928 156.717 
366.842 59.6964 156.612 367.63 60.025 156.524 367.712 60.0739 156.484 
367.724 60.0562 156.509 367.7 60.0569 156.523 363.625 58.5053 157.172 
365.199 58.9001 156.798 363.151 58.9588 157.35 362.612 58.7977 157.487 
363.741 59.1184 157.239 364.611 59.1375 156.974 367.589 59.5839 157.027 
363.103 59.2344 157.601 367.02 59.824 156.698 367.376 59.8384 156.633 
367.721 60.0234 156.564 367.276 59.8937 156.707 367.535 59.9643 156.641 
367.674 59.9953 156.619 364.428 57.3719 157.614 363.272 57.6525 157.587 
360.175 58.8461 158.293 360.035 58.7318 158.335 367.897 59.4411 157.508 
359.934 59.1027 158.522 360.957 59.1342 158.268 365.28 59.5639 157.503 
367.419 59.6818 157.223 367.566 59.8609 156.822 367.763 59.5323 157.422 
367.675 59.909 156.704 364.747 55.8283 158.962 367.821 59.0343 158.014 
358.664 58.9589 159.169 367.926 59.4532 157.586 367.932 59.3427 157.681 
367.95 59.4078 157.679 359.142 59.1732 158.978 359.534 59.3074 158.723 
359.427 59.3425 158.85 359.731 59.3334 158.668 360.124 59.3047 158.7 
361.113 59.3221 158.626 363.014 59.4076 158.328 365.616 59.5247 157.894 
366.397 59.5505 157.764 359.556 59.3787 158.734 365.511 55.5455 159.569 
360.516 56.8664 159.046 367.141 57.3389 158.669 367.579 58.2305 158.298 
357.659 58.6126 159.826 357.243 58.5236 160.168 357.959 58.2464 159.962 
367.78 58.6613 158.408 367.872 58.7902 158.395 356.931 58.7836 160.127 
356.733 58.822 160.265 358.016 58.8116 159.559 360.842 59.3325 159.072 
360.972 59.2362 159.431 367.532 58.9996 158.364 367.701 59.2825 157.926 
357.231 58.9078 160.063 359.401 59.2772 159.146 359.626 59.3667 158.796 
366.056 55.4883 160.074 367.187 57.3131 159.782 358.393 57.6877 160.022 
358.121 57.4968 160.367 357.874 58.1238 160.512 356.726 58.3592 160.589 
357.42 58.3782 160.384 365.902 58.7947 159.345 366.862 58.3267 159.468 
367.622 58.6589 158.656 356.222 58.7327 160.59 355.741 58.7286 160.904 
356.221 58.8305 160.664 357.61 58.9476 160.065 358.515 59.0838 159.691 
366.448 55.5125 160.822 366.922 56.3102 160.102 357.277 56.3243 161.217 
367.109 56.8006 160.272 367.184 56.9359 160.302 357.532 57.6269 160.74 
366.747 57.2811 160.436 357.081 58.3049 160.752 357.768 58.5679 160.419 
357.324 58.168 161.2 358.428 58.5059 160.602 358.089 58.2549 161.031 
354.577 58.4795 161.701 356.792 58.5827 160.843 357.169 58.7206 160.517 
354.419 58.7 161.802 355.781 58.7789 161.162 361.061 52.371 162.602 
362.389 52.4418 162.456 366.47 55.4306 161.657 366.961 56.8052 160.61 
354.604 57.745 162.047 354.186 57.4381 162.485 354.003 58.0711 162.601 
354.057 58.353 162.188 353.923 58.377 162.399 353.729 58.5115 162.411 
356.552 58.4783 161.215 356.472 58.2679 161.778 358.014 58.0622 161.7 
353.553 58.6259 162.394 353.243 58.5849 162.696 352.893 58.7508 162.768 
353.534 58.7538 162.354 363.038 52.4636 162.489 366.143 54.4277 162.731 
366.463 55.2052 162.055 366.354 54.993 162.156 366.421 55.1308 162.221 
366.28 55.6359 162.085 353.273 56.4847 163.248 353.482 57.6016 162.879 
352.86 58.1823 163.037 354.007 58.4551 162.454 353.312 58.1834 163.128 
353.02 58.4739 163.02 354.65 58.2146 162.668 354.012 58.0491 163.281 
351.572 58.6215 163.522 353.067 58.719 162.86 351.126 58.9846 163.875 
352.016 58.8895 163.282 352.771 58.8579 162.882 352.093 58.9741 163.298 
351.835 59.0188 163.413 364.501 51.3172 164.717 366.142 54.1726 163.195 
365.999 53.8716 163.409 366.113 54.1183 163.357 366.266 55.0547 162.486 
366.011 54.6388 163.17 361.304 56.2947 163.758 365.401 55.5386 163.073 
365.593 54.9287 163.462 350.226 57.6408 164.421 353.753 57.9141 163.875 
352.738 58.5459 163.442 353.214 58.1827 163.718 350.501 58.6263 164.165 
351.716 58.9552 163.823 350.163 59.1661 164.549 350.639 59.1902 164.263 
350.476 59.2315 164.407 351.332 59.0338 163.967 365.806 52.8613 164.635 
365.712 52.7481 164.641 365.447 52.5359 164.298 365.794 53.2176 163.992 
365.779 53.6708 164.161 366 54.1517 163.54 350.632 55.9079 164.943 
351.655 58.4403 164.864 348.278 58.9575 165.401 349.999 59.2493 164.993 
350.561 59.1709 164.528 348.536 59.641 165.46 348.273 59.7989 165.707 
349.163 59.4881 165.284 348.521 59.7433 165.569 367 51.0087 166.017 
367 51.0087 166.017 367 51.0087 166.017 367 51.0087 166.017 
365.357 52.1558 165.251 367 51.0088 166.017 365.752 52.8546 164.755 
365.291 52.2572 165.804 368 52.0087 166.017 368 52.0087 166.017 
368 52.0087 166.017 368 52.0087 166.017 365.561 52.6287 164.996 
368 52.0088 166.017 365.659 53.1007 164.796 347.401 59.761 166.05 
346.914 60.3249 166.559 347.818 59.9411 166.153 364.894 50.7729 166.838 
367 51.0087 166.017 365.085 51.2277 166.985 365.244 51.5609 166.461 
368 52.0087 166.017 365.274 51.7241 166.453 363.429 52.6431 167.024 
347.742 59.6259 167.44 344.724 61.1035 167.457 346.815 60.5566 167.205 
346.402 60.816 167.696 344.439 61.7042 167.715 346.003 61.1433 167.582 
344.23 62.069 167.933 344.235 62.2484 168.085 344.99 61.8807 167.934 
363.951 49.3318 167.657 364.846 50.4147 167.715 365.055 50.8446 167.316 
365.098 50.903 167.413 365.194 51.6209 166.648 347.671 59.25 167.992 
343.739 60.2477 168.033 346.45 60.5553 168.112 343.302 62.4354 168.518 
343.807 62.3087 168.244 344.717 62.131 168.276 355.977 46.6941 169.266 
361.198 47.3099 168.778 362.874 48.2024 168.649 363.37 48.6161 168.561 
364.281 49.4916 167.845 364.463 49.6069 167.954 364.338 49.4393 168.148 
364.728 49.9858 168.143 364.84 50.0898 168.187 364.543 50.4283 168.252 
364.791 50.814 167.751 365.008 50.7913 167.541 343.511 57.946 168.898 
347.636 57.4673 169.558 344.885 61.3976 169.377 341.93 62.148 169.299 
341.221 63.1743 170.015 341.598 63.3503 169.76 341.707 63.6025 169.809 
341.998 63.266 169.518 342.606 63.1651 169.292 341.771 63.7702 169.914 
342.325 63.5642 169.728 342.715 63.3282 169.578 341.971 63.7775 169.919 
360.436 45.997 170.424 362.44 47.4221 169.567 363.214 47.9224 169.878 
363.537 48.4926 170.037 363.84 48.951 169.001 364.258 49.364 168.503 
363.802 50.0814 169.132 364.587 50.0098 168.454 342.837 63.2019 169.98 
342.14 63.7248 169.991 341.676 63.8421 170.151 341.89 63.8249 170.142 
361.615 46.3014 170.815 363.261 47.6014 170.676 363.705 48.1038 170.531 
363.592 47.9958 170.449 363.817 48.0301 170.622 363.789 48.0175 170.59 
363.825 48.0058 170.64 363.038 48.5599 170.785 363.455 48.1075 170.728 
363.838 49.3013 169.394 363.736 48.0165 170.658 364.173 49.3882 168.879 
340.396 63.5169 170.933 339.797 64.0745 171.742 340.116 63.9112 171.443 
340.897 63.7788 171.048 340.331 63.9715 171.574 362.242 46.4045 171.562 
362.39 46.4302 172.248 362.658 46.8943 171.342 363.218 47.4162 170.991 
363.056 47.2787 171.014 363.166 47.3476 171.119 363.561 47.903 170.704 
363.29 47.7525 170.999 363.202 47.4729 171.102 363.749 47.9819 170.624 
338.913 63.8662 172.409 340.923 63.5309 171.849 339.312 64.0267 172.24 
340.153 64.035 171.844 339.683 64.1088 171.992 339.889 64.0966 172.003 
360.959 45.109 172.363 361.815 45.3468 172.891 362.707 47.0835 171.817 
362.385 46.9025 172.514 363.007 47.2565 171.316 361.997 47.8085 172.388 
346.297 54.3474 173.31 338.363 63.1917 172.514 339.49 63.8037 172.964 
337.185 64.4485 173.989 337.97 64.2231 173.443 338.842 64.0153 172.917 
338.349 64.1968 173.527 340.049 63.9792 172.099 337.516 64.4743 173.822 
337.274 64.5808 174.147 337.524 64.5603 173.969 356.314 43.1014 173.953 
362.23 45.6962 173.033 340.069 62.6769 173.791 336.515 64.1838 174.355 
336.751 64.5445 174.473 337.165 64.6199 174.603 337.572 64.5331 174.167 
360.071 43.3601 175.223 361.415 44.5932 174.913 362.013 45.3298 173.667 
362.162 45.5638 173.772 361.927 45.5963 174.288 362.044 45.5489 174.103 
362.174 45.7545 173.835 337.177 64.5356 175.29 335.515 65.2385 175.786 
335.277 65.4506 176.141 335.954 65.1807 175.585 336.427 65.013 175.739 
335.402 65.6734 176.172 335.55 65.687 176.046 360.494 43.5554 175.364 
360.988 43.8656 175.844 361.409 44.4263 175.273 361.261 44.2647 175.357 
361.371 44.3812 175.424 347.516 44.3938 175.695 361.726 45.2622 174.534 
361.344 44.8676 175.309 360.895 45.7535 175.313 358.016 47.1383 175.763 
336.298 57.4571 175.623 334.883 65.3335 176.585 335.193 65.6067 176.54 
335.403 65.711 176.353 335.611 65.6874 176.124 335.492 65.744 176.176 
360.968 43.6835 176.22 360.782 43.5251 176.318 360.931 43.6407 176.37 
361.226 44.3652 175.667 360.939 44.068 176.293 334.232 65.2596 177.143 
333.577 66.2336 178.032 334.806 65.6109 177.439 334.209 66.0614 177.943 
335.436 65.5694 176.69 333.848 66.302 178.047 333.994 66.3168 178.246 
335.538 65.6931 176.3 333.126 67.2265 178.622 333.682 66.5591 178.337 
333.157 67.2165 178.667 355.021 41.0588 177.468 362 41.0087 178.017 
362 41.0087 178.017 362 41.0087 178.017 362 41.0087 178.017 
346.723 42.5034 177.91 358.29 41.5294 178.052 359.538 42.4444 177.212 
362 41.0088 178.017 360.081 42.8801 177.732 360.809 43.6482 176.592 
360.48 43.958 177.137 360.52 43.6831 177.197 358.538 44.9566 177.976 
360.142 44.1898 177.335 332.521 64.9214 178.416 333.264 66.7447 178.469 
332.865 67.0742 178.905 333.862 66.4719 178.622 333.529 66.7608 178.612 
333.281 67.0408 178.728 333.127 67.2195 178.819 357.886 40.6298 179.848 
362 41.0087 178.017 358.873 41.6466 178.747 359.482 42.1979 178.423 
359.825 42.4135 178.18 359.945 42.5577 178.043 359.918 42.4947 178.205 
360.023 43.2905 177.894 359.918 42.6242 178.199 360.357 43.3765 177.393 
358.704 43.7872 178.931 359.114 43.5166 178.739 334.048 66.1959 179.234 
332.263 67.0143 179.356 333.262 66.9362 179.602 331.771 67.8051 180.142 
332.686 67.318 179.614 332.296 67.6508 179.907 331.974 67.8727 180.02 
331.886 67.9542 180.186 331.991 67.9408 180.081 358.931 41.4745 179.424 
359.08 41.5657 179.617 358.944 41.3738 179.795 359.074 41.504 179.761 
359.11 41.9351 179.381 359.606 42.5631 178.599 359.106 41.6171 179.678 
[...]
POINT_DATA 3350
COLOR_SCALARS scalars 3
0.101961 0.65098 0.596078 0.101961 0.65098 0.596078 0.101961 0.65098 0.596078 
0.101961 0.65098 0.596078 0.101961 0.65098 0.596078 
0.101961 0.65098 0.596078 0.101961 0.65098 0.596078 
0.101961 0.65098 0.596078 0.101961 0.65098 0.596078 
0.101961 0.65098 0.596078 0.101961 0.65098 0.596078 
0.101961 0.65098 0.596078 0.101961 0.65098 0.596078 
0.101961 0.65098 0.596078 0.101961 0.65098 0.596078 
0.101961 0.65098 0.596078 0.101961 0.65098 0.596078 
0.101961 0.65098 0.596078 0.101961 0.65098 0.596078 
0.101961 0.65098 0.596078 0.101961 0.65098 0.596078 
0.101961 0.65098 0.596078 0.101961 0.65098 0.596078 
0.101961 0.65098 0.596078 0.101961 0.65098 0.596078 
0.101961 0.65098 0.596078 0.101961 0.65098 0.596078 
0.101961 0.65098 0.596078 0.101961 0.65098 0.596078 
0.101961 0.65098 0.596078 0.101961 0.65098 0.596078 
0.101961 0.65098 0.596078 0.101961 0.65098 0.596078 
0.101961 0.65098 0.596078 0.101961 0.65098 0.596078 
0.101961 0.65098 0.596078 0.101961 0.65098 0.596078 
0.101961 0.65098 0.596078 0.101961 0.65098 0.596078 
0.101961 0.65098 0.596078 0.101961 0.65098 0.596078 
0.101961 0.65098 0.596078 0.101961 0.65098 0.596078 
0.101961 0.65098 0.596078 0.101961 0.65098 0.596078 
0.101961 0.65098 0.596078 0.101961 0.65098 0.596078 
0.101961 0.65098 0.596078 0.101961 0.65098 0.596078 
0.101961 0.65098 0.596078 0.101961 0.65098 0.596078 
0.101961 0.65098 0.596078 0.101961 0.65098 0.596078 
0.101961 0.65098 0.596078 0.101961 0.65098 0.596078 
0.101961 0.65098 0.596078 0.101961 0.65098 0.596078 
0.101961 0.65098 0.596078 0.101961 0.65098 0.596078 
0.101961 0.65098 0.596078 0.101961 0.65098 0.596078 
0.101961 0.65098 0.596078 0.101961 0.65098 0.596078 
0.101961 0.65098 0.596078 0.101961 0.65098 0.596078 
0.101961 0.65098 0.596078 0.101961 0.65098 0.596078 
0.101961 0.65098 0.596078 0.101961 0.65098 0.596078 
0.101961 0.65098 0.596078 0.101961 0.65098 0.596078 
0.101961 0.65098 0.596078 0.101961 0.65098 0.596078 
0.101961 0.65098 0.596078 0.101961 0.65098 0.596078 
0.101961 0.65098 0.596078 0.101961 0.65098 0.596078 
0.101961 0.65098 0.596078 0.101961 0.65098 0.596078 
0.101961 0.65098 0.596078 0.101961 0.65098 0.596078 
0.101961 0.65098 0.596078 0.101961 0.65098 0.596078 
0.101961 0.65098 0.596078 0.101961 0.65098 0.596078 
0.101961 0.65098 0.596078 0.101961 0.65098 0.596078 
0.101961 0.65098 0.596078 0.101961 0.65098 0.596078 
0.101961 0.65098 0.596078 0.101961 0.65098 0.596078 
0.101961 0.65098 0.596078 0.101961 0.65098 0.596078 
0.101961 0.65098 0.596078 0.101961 0.65098 0.596078 
0.101961 0.65098 0.596078 0.101961 0.65098 0.596078 
0.101961 0.65098 0.596078 0.101961 0.65098 0.596078 
0.101961 0.65098 0.596078 0.101961 0.65098 0.596078 
0.101961 0.65098 0.596078 0.101961 0.65098 0.596078 
0.101961 0.65098 0.596078 0.101961 0.65098 0.596078 
0.101961 0.65098 0.596078 0.101961 0.65098 0.596078 
0.101961 0.65098 0.596078 0.101961 0.65098 0.596078 
0.101961 0.65098 0.596078 0.101961 0.65098 0.596078 
0.101961 0.65098 0.596078 0.101961 0.65098 0.596078 
0.101961 0.65098 0.596078 0.101961 0.65098 0.596078 
0.101961 0.65098 0.596078 0.101961 0.65098 0.596078 
0.101961 0.65098 0.596078 0.101961 0.65098 0.596078 
0.101961 0.65098 0.596078 0.101961 0.65098 0.596078 
0.101961 0.65098 0.596078 0.101961 0.65098 0.596078 
0.101961 0.65098 0.596078 0.101961 0.65098 0.596078 
0.101961 0.65098 0.596078 0.101961 0.65098 0.596078 
0.101961 0.65098 0.596078 0.101961 0.65098 0.596078 
0.101961 0.65098 0.596078 0.101961 0.65098 0.596078 
0.101961 0.65098 0.596078 0.101961 0.65098 0.596078 
0.101961 0.65098 0.596078 0.101961 0.65098 0.596078 
0.101961 0.65098 0.596078 0.101961 0.65098 0.596078 
0.101961 0.65098 0.596078 0.101961 0.65098 0.596078 
0.101961 0.65098 0.596078 0.101961 0.65098 0.596078 
0.101961 0.65098 0.596078 0.101961 0.65098 0.596078 
0.101961 0.65098 0.596078 0.101961 0.65098 0.596078 
0.101961 0.65098 0.596078 0.101961 0.65098 0.596078 
0.101961 0.65098 0.596078 0.101961 0.65098 0.596078 
0.101961 0.65098 0.596078 0.101961 0.65098 0.596078 
0.101961 0.65098 0.596078 0.101961 0.65098 0.596078 
0.101961 0.65098 0.596078 0.101961 0.65098 0.596078 
0.101961 0.65098 0.596078 0.101961 0.65098 0.596078 
0.101961 0.65098 0.596078 0.101961 0.65098 0.596078 
0.101961 0.65098 0.596078 0.101961 0.65098 0.596078 
0.101961 0.65098 0.596078 0.101961 0.65098 0.596078 
0.101961 0.65098 0.596078 0.101961 0.65098 0.596078 
0.101961 0.65098 0.596078 0.101961 0.65098 0.596078 
0.101961 0.65098 0.596078 0.101961 0.65098 0.596078 
0.101961 0.65098 0.596078 0.101961 0.65098 0.596078 
0.101961 0.65098 0.596078 0.101961 0.65098 0.596078 
0.101961 0.65098 0.596078 0.101961 0.65098 0.596078 
0.101961 0.65098 0.596078 0.101961 0.65098 0.596078 
0.101961 0.65098 0.596078 0.101961 0.65098 0.596078 
0.101961 0.65098 0.596078 0.101961 0.65098 0.596078 
0.101961 0.65098 0.596078 0.101961 0.65098 0.596078 
0.101961 0.65098 0.596078 0.101961 0.65098 0.596078 
0.101961 0.65098 0.596078 0.101961 0.65098 0.596078 
0.101961 0.65098 0.596078 0.101961 0.65098 0.596078 
0.101961 0.65098 0.596078 0.101961 0.65098 0.596078 
0.101961 0.65098 0.596078 0.101961 0.65098 0.596078 
0.101961 0.65098 0.596078 0.101961 0.65098 0.596078 
0.101961 0.65098 0.596078 0.101961 0.65098 0.596078 
0.101961 0.65098 0.596078 0.101961 0.65098 0.596078 
0.101961 0.65098 0.596078 0.101961 0.65098 0.596078 
0.101961 0.65098 0.596078 0.101961 0.65098 0.596078 
0.101961 0.65098 0.596078 0.101961 0.65098 0.596078 
0.101961 0.65098 0.596078 0.101961 0.65098 0.596078 
0.101961 0.65098 0.596078 0.101961 0.65098 0.596078 
0.101961 0.65098 0.596078 0.101961 0.65098 0.596078 
0.101961 0.65098 0.596078 0.101961 0.65098 0.596078 
0.101961 0.65098 0.596078 0.101961 0.65098 0.596078 
0.101961 0.65098 0.596078 0.101961 0.65098 0.596078 
0.101961 0.65098 0.596078 0.101961 0.65098 0.596078 
0.101961 0.65098 0.596078 0.101961 0.65098 0.596078 
0.101961 0.65098 0.596078 0.101961 0.65098 0.596078 
0.101961 0.65098 0.596078 0.101961 0.65098 0.596078 
0.101961 0.65098 0.596078 0.101961 0.65098 0.596078 
0.101961 0.65098 0.596078 0.101961 0.65098 0.596078 
0.101961 0.65098 0.596078 0.101961 0.65098 0.596078 
0.101961 0.65098 0.596078 0.101961 0.65098 0.596078 
0.101961 0.65098 0.596078 0.101961 0.65098 0.596078 
0.101961 0.65098 0.596078 0.101961 0.65098 0.596078 
0.101961 0.65098 0.596078 0.101961 0.65098 0.596078 
0.101961 0.65098 0.596078 0.101961 0.65098 0.596078 
0.101961 0.65098 0.596078 0.101961 0.65098 0.596078 
0.101961 0.65098 0.596078 0.101961 0.65098 0.596078 
0.101961 0.65098 0.596078 0.101961 0.65098 0.596078 
0.101961 0.65098 0.596078 0.101961 0.65098 0.596078 
0.101961 0.65098 0.596078 0.101961 0.65098 0.596078 
0.101961 0.65098 0.596078 0.101961 0.65098 0.596078 
0.101961 0.65098 0.596078 0.101961 0.65098 0.596078 
0.101961 0.65098 0.596078 0.101961 0.65098 0.596078 
0.101961 0.65098 0.596078 0.101961 0.65098 0.596078 
0.101961 0.65098 0.596078 0.101961 0.65098 0.596078 
0.101961 0.65098 0.596078 0.101961 0.65098 0.596078 
0.101961 0.65098 0.596078 0.101961 0.65098 0.596078 
0.101961 0.65098 0.596078 0.101961 0.65098 0.596078 
0.101961 0.65098 0.596078 0.101961 0.65098 0.596078 
0.101961 0.65098 0.596078 0.101961 0.65098 0.596078 
0.101961 0.65098 0.596078 0.101961 0.65098 0.596078 
0.101961 0.65098 0.596078 0.101961 0.65098 0.596078 
0.101961 0.65098 0.596078 0.101961 0.65098 0.596078 
0.101961 0.65098 0.596078 0.101961 0.65098 0.596078 
0.101961 0.65098 0.596078 0.101961 0.65098 0.596078 
0.101961 0.65098 0.596078 0.101961 0.65098 0.596078 
0.101961 0.65098 0.596078 0.101961 0.65098 0.596078 
0.101961 0.65098 0.596078 0.101961 0.65098 0.596078 
0.101961 0.65098 0.596078 0.101961 0.65098 0.596078 
0.101961 0.65098 0.596078 0.101961 0.65098 0.596078 
0.101961 0.65098 0.596078 0.101961 0.65098 0.596078 
0.101961 0.65098 0.596078 0.101961 0.65098 0.596078 
0.101961 0.65098 0.596078 0.101961 0.65098 0.596078 
0.101961 0.65098 0.596078 0.101961 0.65098 0.596078 
0.101961 0.65098 0.596078 0.101961 0.65098 0.596078 
0.101961 0.65098 0.596078 0.101961 0.65098 0.596078 
0.101961 0.65098 0.596078 0.101961 0.65098 0.596078 
0.101961 0.65098 0.596078 0.101961 0.65098 0.596078 
0.101961 0.65098 0.596078 0.101961 0.65098 0.596078 
0.101961 0.65098 0.596078 0.101961 0.65098 0.596078 
0.101961 0.65098 0.596078 0.101961 0.65098 0.596078 
0.101961 0.65098 0.596078 0.101961 0.65098 0.596078 
0.101961 0.65098 0.596078 0.101961 0.65098 0.596078 
0.101961 0.65098 0.596078 0.101961 0.65098 0.596078 
0.101961 0.65098 0.596078 0.101961 0.65098 0.596078 
0.101961 0.65098 0.596078 0.101961 0.65098 0.596078 
0.101961 0.65098 0.596078 0.101961 0.65098 0.596078 
0.101961 0.65098 0.596078 0.101961 0.65098 0.596078 
0.101961 0.65098 0.596078 0.101961 0.65098 0.596078 
0.101961 0.65098 0.596078 0.101961 0.65098 0.596078 
0.101961 0.65098 0.596078 0.101961 0.65098 0.596078 
0.101961 0.65098 0.596078 0.101961 0.65098 0.596078 
0.101961 0.65098 0.596078 0.101961 0.65098 0.596078 
0.101961 0.65098 0.596078 0.101961 0.65098 0.596078 
0.101961 0.65098 0.596078 0.101961 0.65098 0.596078 
0.101961 0.65098 0.596078 0.101961 0.65098 0.596078 
0.101961 0.65098 0.596078 0.101961 0.65098 0.596078 
0.101961 0.65098 0.596078 0.101961 0.65098 0.596078 
0.101961 0.65098 0.596078 0.101961 0.65098 0.596078 
0.101961 0.65098 0.596078 0.101961 0.65098 0.596078 
0.101961 0.65098 0.596078 0.101961 0.65098 0.596078 
0.101961 0.65098 0.596078 0.101961 0.65098 0.596078 
0.101961 0.65098 0.596078 0.101961 0.65098 0.596078 
0.101961 0.65098 0.596078 0.101961 0.65098 0.596078 
0.101961 0.65098 0.596078 0.101961 0.65098 0.596078 
0.101961 0.65098 0.596078 0.101961 0.65098 0.596078 
0.101961 0.65098 0.596078 0.101961 0.65098 0.596078 
0.101961 0.65098 0.596078 0.101961 0.65098 0.596078 
0.101961 0.65098 0.596078 0.101961 0.65098 0.596078 
0.101961 0.65098 0.596078 0.101961 0.65098 0.596078 
0.101961 0.65098 0.596078 0.101961 0.65098 0.596078 
0.101961 0.65098 0.596078 0.101961 0.65098 0.596078 
0.101961 0.65098 0.596078 0.101961 0.65098 0.596078 
0.101961 0.65098 0.596078 0.101961 0.65098 0.596078 
0.101961 0.65098 0.596078 0.101961 0.65098 0.596078 
0.101961 0.65098 0.596078 0.101961 0.65098 0.596078 
0.101961 0.65098 0.596078 0.101961 0.65098 0.596078 
0.101961 0.65098 0.596078 0.101961 0.65098 0.596078 
0.101961 0.65098 0.596078 0.101961 0.65098 0.596078 
0.101961 0.65098 0.596078 0.101961 0.65098 0.596078 
0.101961 0.65098 0.596078 0.101961 0.65098 0.596078 
0.101961 0.65098 0.596078 0.101961 0.65098 0.596078 
0.101961 0.65098 0.596078 0.101961 0.65098 0.596078 
0.101961 0.65098 0.596078 0.101961 0.65098 0.596078 
0.101961 0.65098 0.596078 0.101961 0.65098 0.596078 
0.101961 0.65098 0.596078 0.101961 0.65098 0.596078 
0.101961 0.65098 0.596078 0.101961 0.65098 0.596078 
0.101961 0.65098 0.596078 0.101961 0.65098 0.596078 
0.101961 0.65098 0.596078 0.101961 0.65098 0.596078 
0.101961 0.65098 0.596078 0.101961 0.65098 0.596078 
0.101961 0.65098 0.596078 0.101961 0.65098 0.596078 
0.101961 0.65098 0.596078 0.101961 0.65098 0.596078 
0.101961 0.65098 0.596078 0.101961 0.65098 0.596078 
0.101961 0.65098 0.596078 0.101961 0.65098 0.596078 
0.101961 0.65098 0.596078 0.101961 0.65098 0.596078 
0.101961 0.65098 0.596078 0.101961 0.65098 0.596078 
0.101961 0.65098 0.596078 0.101961 0.65098 0.596078 
0.101961 0.65098 0.596078 0.101961 0.65098 0.596078 
0.101961 0.65098 0.596078 0.101961 0.65098 0.596078 
0.101961 0.65098 0.596078 0.101961 0.65098 0.596078 
0.101961 0.65098 0.596078 0.101961 0.65098 0.596078 
0.101961 0.65098 0.596078 0.101961 0.65098 0.596078 
0.101961 0.65098 0.596078 0.101961 0.65098 0.596078 
0.101961 0.65098 0.596078 0.101961 0.65098 0.596078 
0.101961 0.65098 0.596078 0.101961 0.65098 0.596078 
0.101961 0.65098 0.596078 0.101961 0.65098 0.596078 
0.101961 0.65098 0.596078 0.101961 0.65098 0.596078 
0.101961 0.65098 0.596078 0.101961 0.65098 0.596078 
0.101961 0.65098 0.596078 0.101961 0.65098 0.596078 
0.101961 0.65098 0.596078 0.101961 0.65098 0.596078 
0.101961 0.65098 0.596078 0.101961 0.65098 0.596078 
0.101961 0.65098 0.596078 0.101961 0.65098 0.596078 
0.101961 0.65098 0.596078 0.101961 0.65098 0.596078 
0.101961 0.65098 0.596078 0.101961 0.65098 0.596078 
0.101961 0.65098 0.596078 0.101961 0.65098 0.596078 
0.101961 0.65098 0.596078 0.101961 0.65098 0.596078 
0.101961 0.65098 0.596078 0.101961 0.65098 0.596078 
0.101961 0.65098 0.596078 0.101961 0.65098 0.596078 
0.101961 0.65098 0.596078 0.101961 0.65098 0.596078 
0.101961 0.65098 0.596078 0.101961 0.65098 0.596078 
0.101961 0.65098 0.596078 0.101961 0.65098 0.596078 
0.101961 0.65098 0.596078 0.101961 0.65098 0.596078 
0.101961 0.65098 0.596078 0.101961 0.65098 0.596078 
0.101961 0.65098 0.596078 0.101961 0.65098 0.596078 
0.101961 0.65098 0.596078 0.101961 0.65098 0.596078 
0.101961 0.65098 0.596078 0.101961 0.65098 0.596078 
0.101961 0.65098 0.596078 0.101961 0.65098 0.596078 
0.101961 0.65098 0.596078 0.101961 0.65098 0.596078 
0.101961 0.65098 0.596078 0.101961 0.65098 0.596078 
0.101961 0.65098 0.596078 0.101961 0.65098 0.596078 
0.101961 0.65098 0.596078 0.101961 0.65098 0.596078 
0.101961 0.65098 0.596078 0.101961 0.65098 0.596078 
0.101961 0.65098 0.596078 0.101961 0.65098 0.596078 
0.101961 0.65098 0.596078 0.101961 0.65098 0.596078 
0.101961 0.65098 0.596078 0.101961 0.65098 0.596078 
0.101961 0.65098 0.596078 0.101961 0.65098 0.596078 
0.101961 0.65098 0.596078 0.101961 0.65098 0.596078 
0.101961 0.65098 0.596078 0.101961 0.65098 0.596078 
0.101961 0.65098 0.596078 0.101961 0.65098 0.596078 
0.101961 0.65098 0.596078 0.101961 0.65098 0.596078 
0.101961 0.65098 0.596078 0.101961 0.65098 0.596078 
0.101961 0.65098 0.596078 0.101961 0.65098 0.596078 
0.101961 0.65098 0.596078 0.101961 0.65098 0.596078 
0.101961 0.65098 0.596078 0.101961 0.65098 0.596078 
0.101961 0.65098 0.596078 0.101961 0.65098 0.596078 
0.101961 0.65098 0.596078 0.101961 0.65098 0.596078 
0.101961 0.65098 0.596078 0.101961 0.65098 0.596078 
0.101961 0.65098 0.596078 0.101961 0.65098 0.596078 
0.101961 0.65098 0.596078 0.101961 0.65098 0.596078 
0.101961 0.65098 0.596078 0.101961 0.65098 0.596078 
0.101961 0.65098 0.596078 0.101961 0.65098 0.596078 
0.101961 0.65098 0.596078 0.101961 0.65098 0.596078 
0.101961 0.65098 0.596078 0.101961 0.65098 0.596078 
0.101961 0.65098 0.596078 0.101961 0.65098 0.596078 
0.101961 0.65098 0.596078 0.101961 0.65098 0.596078 
0.101961 0.65098 0.596078 0.101961 0.65098 0.596078 
0.101961 0.65098 0.596078 0.101961 0.65098 0.596078 
0.101961 0.65098 0.596078 0.101961 0.65098 0.596078 
0.101961 0.65098 0.596078 0.101961 0.65098 0.596078 
0.101961 0.65098 0.596078 0.101961 0.65098 0.596078 
0.101961 0.65098 0.596078 0.101961 0.65098 0.596078 
0.101961 0.65098 0.596078 0.101961 0.65098 0.596078 
0.101961 0.65098 0.596078 0.101961 0.65098 0.596078 
0.101961 0.65098 0.596078 0.101961 0.65098 0.596078 
0.101961 0.65098 0.596078 0.101961 0.65098 0.596078 
0.101961 0.65098 0.596078 0.101961 0.65098 0.596078 
0.101961 0.65098 0.596078 0.101961 0.65098 0.596078 
0.101961 0.65098 0.596078 0.101961 0.65098 0.596078 
0.101961 0.65098 0.596078 0.101961 0.65098 0.596078 
0.101961 0.65098 0.596078 0.101961 0.65098 0.596078 
0.101961 0.65098 0.596078 0.101961 0.65098 0.596078 
0.101961 0.65098 0.596078 0.101961 0.65098 0.596078 
0.101961 0.65098 0.596078 0.101961 0.65098 0.596078 
0.101961 0.65098 0.596078 0.101961 0.65098 0.596078 
0.101961 0.65098 0.596078 0.101961 0.65098 0.596078 
0.101961 0.65098 0.596078 0.101961 0.65098 0.596078 
0.101961 0.65098 0.596078 0.101961 0.65098 0.596078 
0.101961 0.65098 0.596078 0.101961 0.65098 0.596078 
0.101961 0.65098 0.596078 0.101961 0.65098 0.596078 
0.101961 0.65098 0.596078 0.101961 0.65098 0.596078 
0.101961 0.65098 0.596078 0.101961 0.65098 0.596078 
0.101961 0.65098 0.596078 0.101961 0.65098 0.596078 
0.101961 0.65098 0.596078 0.101961 0.65098 0.596078 
0.101961 0.65098 0.596078 0.101961 0.65098 0.596078 
0.101961 0.65098 0.596078 0.101961 0.65098 0.596078 
0.101961 0.65098 0.596078 0.101961 0.65098 0.596078 
0.101961 0.65098 0.596078 0.101961 0.65098 0.596078 
0.101961 0.65098 0.596078 0.101961 0.65098 0.596078 
0.101961 0.65098 0.596078 0.101961 0.65098 0.596078 
0.101961 0.65098 0.596078 0.101961 0.65098 0.596078 
0.101961 0.65098 0.596078 0.101961 0.65098 0.596078 
0.101961 0.65098 0.596078 0.101961 0.65098 0.596078 
0.101961 0.65098 0.596078 0.101961 0.65098 0.596078 
0.101961 0.65098 0.596078 0.101961 0.65098 0.596078 
0.101961 0.65098 0.596078 0.101961 0.65098 0.596078 
0.101961 0.65098 0.596078 0.101961 0.65098 0.596078 
0.101961 0.65098 0.596078 0.101961 0.65098 0.596078 
0.101961 0.65098 0.596078 0.101961 0.65098 0.596078 
0.101961 0.65098 0.596078 0.101961 0.65098 0.596078 
0.101961 0.65098 0.596078 0.101961 0.65098 0.596078 
0.101961 0.65098 0.596078 0.101961 0.65098 0.596078 
0.101961 0.65098 0.596078 0.101961 0.65098 0.596078 
0.101961 0.65098 0.596078 0.101961 0.65098 0.596078 
0.101961 0.65098 0.596078 0.101961 0.65098 0.596078 
0.101961 0.65098 0.596078 0.101961 0.65098 0.596078 
0.101961 0.65098 0.596078 0.101961 0.65098 0.596078 
0.101961 0.65098 0.596078 0.101961 0.65098 0.596078 
0.101961 0.65098 0.596078 0.101961 0.65098 0.596078 
0.101961 0.65098 0.596078 0.101961 0.65098 0.596078 
0.101961 0.65098 0.596078 0.101961 0.65098 0.596078 
0.101961 0.65098 0.596078 0.101961 0.65098 0.596078 
0.101961 0.65098 0.596078 0.101961 0.65098 0.596078 
0.101961 0.65098 0.596078 0.101961 0.65098 0.596078 
0.101961 0.65098 0.596078 0.101961 0.65098 0.596078 
0.101961 0.65098 0.596078 0.101961 0.65098 0.596078 
0.101961 0.65098 0.596078 0.101961 0.65098 0.596078 
0.101961 0.65098 0.596078 0.101961 0.65098 0.596078 
0.101961 0.65098 0.596078 0.101961 0.65098 0.596078 
0.101961 0.65098 0.596078 0.101961 0.65098 0.596078 
0.101961 0.65098 0.596078 0.101961 0.65098 0.596078 
0.101961 0.65098 0.596078 0.101961 0.65098 0.596078 
0.101961 0.65098 0.596078 0.101961 0.65098 0.596078 
0.101961 0.65098 0.596078 0.101961 0.65098 0.596078 
0.101961 0.65098 0.596078 0.101961 0.65098 0.596078 
0.101961 0.65098 0.596078 0.101961 0.65098 0.596078 
0.101961 0.65098 0.596078 0.101961 0.65098 0.596078 
0.101961 0.65098 0.596078 0.101961 0.65098 0.596078 
0.101961 0.65098 0.596078 0.101961 0.65098 0.596078 
0.101961 0.65098 0.596078 0.101961 0.65098 0.596078 
0.101961 0.65098 0.596078 0.101961 0.65098 0.596078 
0.101961 0.65098 0.596078 0.101961 0.65098 0.596078 
0.101961 0.65098 0.596078 0.101961 0.65098 0.596078 
0.101961 0.65098 0.596078 0.101961 0.65098 0.596078 
0.101961 0.65098 0.596078 0.101961 0.65098 0.596078 
0.101961 0.65098 0.596078 0.101961 0.65098 0.596078 
0.101961 0.65098 0.596078 0.101961 0.65098 0.596078 
0.101961 0.65098 0.596078 0.101961 0.65098 0.596078 
0.101961 0.65098 0.596078 0.101961 0.65098 0.596078 
0.101961 0.65098 0.596078 0.101961 0.65098 0.596078 
0.101961 0.65098 0.596078 0.101961 0.65098 0.596078 
0.101961 0.65098 0.596078 0.101961 0.65098 0.596078 
0.101961 0.65098 0.596078 0.101961 0.65098 0.596078 
0.101961 0.65098 0.596078 0.101961 0.65098 0.596078 
0.101961 0.65098 0.596078 0.101961 0.65098 0.596078 
0.101961 0.65098 0.596078 0.101961 0.65098 0.596078 
0.101961 0.65098 0.596078 0.101961 0.65098 0.596078 
0.101961 0.65098 0.596078 0.101961 0.65098 0.596078 
0.101961 0.65098 0.596078 0.101961 0.65098 0.596078 
0.101961 0.65098 0.596078 0.101961 0.65098 0.596078 
0.101961 0.65098 0.596078 0.101961 0.65098 0.596078 
0.101961 0.65098 0.596078 0.101961 0.65098 0.596078 
0.101961 0.65098 0.596078 0.101961 0.65098 0.596078 
0.101961 0.65098 0.596078 0.101961 0.65098 0.596078 
0.101961 0.65098 0.596078 0.101961 0.65098 0.596078 
0.101961 0.65098 0.596078 0.101961 0.65098 0.596078 
0.101961 0.65098 0.596078 0.101961 0.65098 0.596078 
0.101961 0.65098 0.596078 0.101961 0.65098 0.596078 
0.101961 0.65098 0.596078 0.101961 0.65098 0.596078 
0.101961 0.65098 0.596078 0.101961 0.65098 0.596078 
0.101961 0.65098 0.596078 0.101961 0.65098 0.596078 
0.101961 0.65098 0.596078 0.101961 0.65098 0.596078 