# vtk DataFile Version 4.2
vtk output
ASCII
DATASET POLYDATA
POINTS 2552 float
372.598 65.8709 161.1 372.554 65.8654 161.124 372.436 65.8189 161.17 
372.254 65.6932 161.248 372.221 65.7315 161.28 372.429 65.7928 161.246 
372.533 65.7485 161.263 366.514 64.4335 162.226 366.02 64.458 162.335 
367.622 64.229 162.145 369.034 64.7335 161.986 370.917 64.9063 161.706 
371.13 64.6169 161.809 372.266 65.1853 161.555 372.267 65.0165 161.733 
370.744 65.1707 161.741 371.995 65.4077 161.403 372.411 65.3578 161.519 
370.119 65.1914 162.058 371.678 65.5242 161.63 371.715 65.5029 161.482 
362.169 63.5443 163.047 368.562 63.4331 162.422 370.933 63.8109 162.341 
371.863 64.3335 162.272 372.163 64.7659 161.999 361.764 64.1675 163.047 
372.31 65.0903 161.801 367.078 64.9502 162.462 368.625 65.0438 162.274 
372.38 65.3648 161.643 369.21 65.0955 162.424 372.391 65.5456 161.535 
359.981 62.8762 163.88 363.405 62.9621 163.074 368.541 62.4518 163.085 
371.511 63.7298 162.713 371.215 63.1611 163.107 371.446 63.3703 163.164 
358.09 63.7514 164.151 371.682 64.0228 162.771 372 64.5347 162.285 
358.603 64.2813 164.114 358.992 64.4581 164.045 361.24 64.2805 163.281 
371.507 64.7313 162.544 371.496 64.263 162.87 372.158 64.8422 162.068 
359.482 64.6192 164.033 360.595 64.7801 163.832 360.898 64.6013 163.573 
362.86 64.666 163.199 369.582 64.9633 162.761 361.361 64.7892 163.766 
365.249 61.8786 163.571 370.645 61.9159 164.151 371.24 62.9125 163.46 
371.061 62.4813 163.902 371.303 62.9776 163.607 371.429 63.4411 163.35 
356.183 63.652 165.027 355.91 63.5153 165.171 357.984 64.3958 164.462 
358.153 64.6509 164.673 359.002 64.7952 164.616 359.584 64.8336 164.238 
359.906 64.8877 164.252 360.538 64.8651 164.152 370.689 60.9286 165.293 
370.845 61.231 165.116 370.841 61.8799 164.648 371.115 62.6348 164.018 
370.874 61.4217 164.988 370.498 62.2168 164.882 354.175 64.3331 166.186 
355.409 64.2218 165.561 360.704 64.6933 165.108 356.126 64.7686 165.707 
360.047 64.7837 165.055 357.037 64.8782 165.822 357.819 64.8556 165.762 
370.422 59.0132 166.858 370.431 60.1204 165.841 370.552 60.581 165.959 
370.776 61.2452 165.228 352.784 63.9717 166.896 354.631 64.8082 166.382 
354.731 64.9612 166.651 370.27 58.611 167.016 355.587 61.2854 166.827 
352.379 63.4437 167.334 351.386 64.6082 168.042 370.305 57.8116 168.103 
368.624 59.8575 168.251 370.111 59.2574 167.919 350.073 64.9346 169.011 
350.732 64.9224 168.625 355.736 64.7629 167.677 351.002 65.2531 168.913 
368.847 55.9636 169.178 368.433 56.0435 169.052 369.587 56.1148 169.38 
370.097 57.127 168.734 370.301 58.2384 168.508 370.2 58.7631 168.277 
349.394 64.3482 169.522 348.2 65.1327 170.268 348.048 65.5879 170.472 
368.666 55.1146 170.123 368.216 55.1275 170.064 369.306 55.6302 169.763 
369.643 55.759 169.896 369.751 55.5226 170.477 369.969 56.2192 170.449 
370.226 57.566 169.142 369.315 57.7839 169.96 369.902 58.0308 169.28 
370.157 57.9525 169.048 348.733 63.6362 170.321 346.862 66.115 171.278 
348.304 66.0641 170.634 351.78 65.3059 169.663 346.954 66.4815 171.378 
368.501 54.191 171.236 369.179 54.8148 170.721 369.513 54.9998 170.761 
369.356 54.607 171.149 369.976 55.7322 171.116 370.053 55.8759 171.029 
369.605 56.3835 170.975 351.154 65.3015 171.011 346.585 65.7067 171.495 
346.577 66.9922 171.805 346.592 67.2965 172.088 347.759 66.9566 171.917 
366.864 53.8653 171.556 369.605 54.5252 171.957 369.816 55.781 171.356 
369.585 55.4813 171.874 355.324 57.1399 171.84 345.628 67.5399 172.592 
345.191 67.5571 172.848 346.046 67.6176 172.549 368.789 52.4377 173.637 
369.525 54.4356 172.646 368.15 55.3728 173.157 344.013 67.7541 173.679 
343.722 67.6471 173.884 344.958 68.3577 173.599 344.568 68.5428 173.921 
345.451 68.2406 173.519 344.938 68.5302 173.947 368.623 52.1035 174.003 
368.283 51.7903 174.195 368.8 51.8591 174.683 369.086 52.4153 174.806 
369.275 53.2281 173.588 369.418 53.8003 173.306 350.248 64.4914 173.908 
343.452 67.3808 174.172 342.45 68.3049 175.026 342.205 68.6978 175.334 
343.354 68.488 174.515 344.058 68.574 174.181 345.732 68.2789 174.044 
343.549 68.9548 174.923 344.919 68.6112 174.456 367.497 51.4161 174.565 
368.039 51.4906 174.53 368.539 51.1851 175.312 368.914 51.3684 175.668 
369.176 52.0601 175.367 369.173 51.8793 175.661 368.796 52.5971 175.463 
369.238 53.3595 173.982 368.099 53.9922 174.681 343.046 66.175 175.03 
342.207 67.7791 175.251 342.815 69.3233 175.717 343.315 69.2444 175.361 
343.222 69.3117 175.53 369.058 51.5311 176.096 354.65 59.7213 175.801 
344.147 68.7474 176.034 341.287 69.8605 176.54 342.481 69.5746 176.487 
343.404 69.2221 175.676 366.965 49.4134 177.172 368.354 49.5886 177.363 
368.863 50.9746 177.048 362.412 54.5569 177.286 339.961 68.2328 177.233 
338.861 70.3103 177.703 338.269 70.9173 178.088 337.874 70.8409 178.322 
338.326 71.332 178.222 368.093 48.5177 178.671 365.198 49.1698 177.882 
368.498 50.9608 177.919 367.184 51.8625 178.062 368.203 51.2861 177.878 
345.966 59.8561 177.534 337.291 71.9099 179.035 338.473 71.5961 178.361 
339.467 71.3427 178.482 338.39 71.9926 178.86 366.839 47.958 179.158 
366.468 48.093 179.026 368.491 48.5474 179.426 368.656 49.9269 178.802 
335.177 71.8228 180.364 334.46 73.0665 180.67 335.258 72.8838 180.227 
336.817 72.5021 179.621 336.175 73.0931 180.229 367.257 47.6985 179.668 
367.907 47.5055 180.581 368.375 48.0649 180.365 368.575 48.6351 179.756 
368.392 49.8215 179.493 368.515 49.5637 179.58 367.257 50.3265 180.065 
333.871 73.1197 181.204 333.684 73.472 181.385 333.805 73.9512 181.351 
334.002 74.352 181.361 336.114 73.4033 180.761 335.085 74.0004 181.038 
367.816 47.1459 181.121 367.687 46.9332 181.455 367.989 47.2133 181.41 
368.408 47.7813 180.75 368.272 47.6246 180.862 368.388 47.6938 180.915 
368.271 48.0933 181.185 368.16 48.9607 180.656 367.907 48.5211 181.648 
368.491 49.2046 179.879 344.341 66.1733 180.641 333.562 73.124 181.622 
336.929 72.8942 181.633 332.561 74.3039 182.586 332.615 74.7112 182.441 
332.911 75.3937 182.441 333.24 75.0072 182.018 334.345 74.6803 181.744 
333.225 75.3261 182.132 333.17 75.4562 182.283 333.355 75.3877 182.136 
333.576 75.3149 182.126 366.86 46.3621 182.171 366.314 46.3567 182.118 
368.282 47.6248 181.19 368.099 47.4077 181.919 368.161 47.8052 182.012 
368.16 48.0859 181.785 368.176 47.9647 182.002 334.145 74.9546 182.228 
332.673 75.6462 183.043 333.069 75.5188 182.543 333.341 75.4512 182.341 
367.524 46.4625 182.856 332.035 73.7258 183.689 331.61 75.0579 183.709 
331.417 75.7125 183.897 334.012 74.978 183.147 331.983 75.9961 183.709 
333.303 75.4544 182.776 331.486 76.3135 184.15 331.268 76.4816 184.416 
332.114 76.0809 184.064 331.441 76.4475 184.359 365.514 45.0555 184.612 
367.127 45.5725 184.735 367.372 46.1795 184.604 367.665 46.6697 183.63 
334.307 69.8571 184.085 333.18 71.6852 183.69 332.707 75.7175 184.686 
330.886 76.2731 184.672 330.624 76.1696 185.056 332.434 75.9189 184.308 
330.683 76.6211 185.276 331.284 76.5352 184.583 366.5 44.6454 185.568 
366.365 44.3013 186.103 366.153 44.5189 185.625 370 44.0087 185.017 
370 44.0087 185.017 370 44.0087 185.017 370 44.0087 185.017 
366.834 45.0174 185.298 367.224 45.3474 185.591 370 44.0088 185.017 
367.392 45.7778 185.248 367.395 45.8176 185.358 330.263 76.9664 185.906 
330.07 77.0388 186.12 330.99 76.7145 185.704 330.052 77.1772 186.365 
370 44.0087 185.017 367.206 45.4649 186.148 366.531 46.9715 185.491 
329.622 76.097 186.9 329.639 76.5391 186.718 329.886 77.0399 186.415 
329.691 77.3605 187.083 329.942 77.3496 186.677 329.884 77.4006 186.811 
330.176 77.2395 186.555 329.982 77.3756 186.706 365.954 43.2593 187.965 
366.657 43.8368 187.26 367.218 44.3441 187.19 366.898 45.2443 187.464 
329.208 77.177 187.647 329.191 77.6014 188.082 329.479 77.5898 187.634 
329.411 77.6421 187.84 329.91 77.3928 187.246 329.978 77.3613 186.884 
329.507 77.6261 187.735 364.426 43.115 188.36 365.25 42.8568 188.593 
366.859 43.6166 188.376 367.08 44.1732 187.974 370 44.0087 188.017 
370 44.0087 188.017 370 44.0087 188.017 370 44.0087 188.017 
370 44.0088 188.017 332.219 75.4875 187.796 329.707 77.4859 188.428 
329.262 77.7047 188.761 328.378 77.935 189.304 363.648 43.3486 188.307 
370 44.0087 188.017 367.083 44.0842 188.748 366.774 44.8773 188.328 
327.517 77.9957 190.478 328.014 78.1505 190.011 328.265 78.1562 189.628 
328.206 78.213 189.77 328.499 78.0788 189.508 328.303 78.198 189.671 
365.86 41.7602 190.98 365.801 41.9436 190.443 369 41.0087 190.017 
369 41.0087 190.017 369 41.0087 190.017 369 41.0087 190.017 
369 41.0088 190.017 366.721 43.105 189.801 366.852 43.4925 189.622 
367.047 43.935 188.914 366.914 43.8241 189.305 327.146 77.6539 190.948 
327.605 78.2809 190.592 327.311 78.3223 190.974 327.778 78.34 190.696 
328.18 78.2178 190.399 328.3 78.1831 189.871 327.486 78.4057 190.934 
364.419 41.2864 191.699 365.353 41.2741 191.78 369 41.0087 190.017 
366.485 43.6521 190.403 327.058 77.0807 191.272 326.619 77.3504 191.897 
326.532 77.733 191.906 326.721 77.9587 191.641 326.404 78.0207 192.154 
326.549 78.4544 192.241 327.287 78.4542 191.263 365.987 41.1974 192.511 
362.966 41.4921 191.945 360.706 43.1239 191.1 365.841 43.3945 191.973 
326.925 78.6572 192.623 366.296 41.0376 193.364 366.427 41.1328 193.608 
366.282 41.4753 193.587 351.109 48.26 192.512 325.478 79.341 193.936 
325.836 79.2747 193.918 325.535 79.446 194.047 325.391 79.5093 194.16 
364.58 39.552 194.777 365.659 40.1907 194.574 366.455 40.9622 193.703 
366.484 40.9029 193.835 366.35 40.8357 193.905 366.471 40.9773 193.839 
366.383 41.1289 193.877 325.295 79.5741 194.387 364.169 39.2656 195.232 
365.247 39.8223 194.779 365.31 39.7368 195.42 365.647 40.1629 195.639 
366.456 40.896 193.921 366.044 40.6059 194.546 366.326 40.9226 194.13 
366.086 40.902 194.611 327.009 74.9055 194.429 324.216 78.6475 196.051 
327.3 78.3347 195.269 324.784 79.5677 195.151 324.533 79.8661 195.964 
325.123 79.6608 195.276 364.257 39.0009 196.15 365.548 39.9227 196.527 
365.877 40.6903 195.121 365.607 40.6783 195.795 333.607 66.1177 195.818 
[...]
POINT_DATA 2552
COLOR_SCALARS scalars 3
0.101961 0.65098 0.596078 0.101961 0.65098 0.596078 0.101961 0.65098 0.596078 
0.101961 0.65098 0.596078 0.101961 0.65098 0.596078 
0.101961 0.65098 0.596078 0.101961 0.65098 0.596078 
0.101961 0.65098 0.596078 0.101961 0.65098 0.596078 
0.101961 0.65098 0.596078 0.101961 0.65098 0.596078 
0.101961 0.65098 0.596078 0.101961 0.65098 0.596078 
0.101961 0.65098 0.596078 0.101961 0.65098 0.596078 
0.101961 0.65098 0.596078 0.101961 0.65098 0.596078 
0.101961 0.65098 0.596078 0.101961 0.65098 0.596078 
0.101961 0.65098 0.596078 0.101961 0.65098 0.596078 
0.101961 0.65098 0.596078 0.101961 0.65098 0.596078 
0.101961 0.65098 0.596078 0.101961 0.65098 0.596078 
0.101961 0.65098 0.596078 0.101961 0.65098 0.596078 
0.101961 0.65098 0.596078 0.101961 0.65098 0.596078 
0.101961 0.65098 0.596078 0.101961 0.65098 0.596078 
0.101961 0.65098 0.596078 0.101961 0.65098 0.596078 
0.101961 0.65098 0.596078 0.101961 0.65098 0.596078 
0.101961 0.65098 0.596078 0.101961 0.65098 0.596078 
0.101961 0.65098 0.596078 0.101961 0.65098 0.596078 
0.101961 0.65098 0.596078 0.101961 0.65098 0.596078 
0.101961 0.65098 0.596078 0.101961 0.65098 0.596078 
0.101961 0.65098 0.596078 0.101961 0.65098 0.596078 
0.101961 0.65098 0.596078 0.101961 0.65098 0.596078 
0.101961 0.65098 0.596078 0.101961 0.65098 0.596078 
0.101961 0.65098 0.596078 0.101961 0.65098 0.596078 
0.101961 0.65098 0.596078 0.101961 0.65098 0.596078 
0.101961 0.65098 0.596078 0.101961 0.65098 0.596078 
0.101961 0.65098 0.596078 0.101961 0.65098 0.596078 
0.101961 0.65098 0.596078 0.101961 0.65098 0.596078 
0.101961 0.65098 0.596078 0.101961 0.65098 0.596078 
0.101961 0.65098 0.596078 0.101961 0.65098 0.596078 
0.101961 0.65098 0.596078 0.101961 0.65098 0.596078 
0.101961 0.65098 0.596078 0.101961 0.65098 0.596078 
0.101961 0.65098 0.596078 0.101961 0.65098 0.596078 
0.101961 0.65098 0.596078 0.101961 0.65098 0.596078 
0.101961 0.65098 0.596078 0.101961 0.65098 0.596078 
0.101961 0.65098 0.596078 0.101961 0.65098 0.596078 
0.101961 0.65098 0.596078 0.101961 0.65098 0.596078 
0.101961 0.65098 0.596078 0.101961 0.65098 0.596078 
0.101961 0.65098 0.596078 0.101961 0.65098 0.596078 
0.101961 0.65098 0.596078 0.101961 0.65098 0.596078 
0.101961 0.65098 0.596078 0.101961 0.65098 0.596078 
0.101961 0.65098 0.596078 0.101961 0.65098 0.596078 
0.101961 0.65098 0.596078 0.101961 0.65098 0.596078 
0.101961 0.65098 0.596078 0.101961 0.65098 0.596078 
0.101961 0.65098 0.596078 0.101961 0.65098 0.596078 
0.101961 0.65098 0.596078 0.101961 0.65098 0.596078 
0.101961 0.65098 0.596078 0.101961 0.65098 0.596078 
0.101961 0.65098 0.596078 0.101961 0.65098 0.596078 
0.101961 0.65098 0.596078 0.101961 0.65098 0.596078 
0.101961 0.65098 0.596078 0.101961 0.65098 0.596078 
0.101961 0.65098 0.596078 0.101961 0.65098 0.596078 
0.101961 0.65098 0.596078 0.101961 0.65098 0.596078 
0.101961 0.65098 0.596078 0.101961 0.65098 0.596078 
0.101961 0.65098 0.596078 0.101961 0.65098 0.596078 
0.101961 0.65098 0.596078 0.101961 0.65098 0.596078 
0.101961 0.65098 0.596078 0.101961 0.65098 0.596078 
0.101961 0.65098 0.596078 0.101961 0.65098 0.596078 
0.101961 0.65098 0.596078 0.101961 0.65098 0.596078 
0.101961 0.65098 0.596078 0.101961 0.65098 0.596078 
0.101961 0.65098 0.596078 0.101961 0.65098 0.596078 
0.101961 0.65098 0.596078 0.101961 0.65098 0.596078 
0.101961 0.65098 0.596078 0.101961 0.65098 0.596078 
0.101961 0.65098 0.596078 0.101961 0.65098 0.596078 
0.101961 0.65098 0.596078 0.101961 0.65098 0.596078 
0.101961 0.65098 0.596078 0.101961 0.65098 0.596078 
0.101961 0.65098 0.596078 0.101961 0.65098 0.596078 
0.101961 0.65098 0.596078 0.101961 0.65098 0.596078 
0.101961 0.65098 0.596078 0.101961 0.65098 0.596078 
0.101961 0.65098 0.596078 0.101961 0.65098 0.596078 
0.101961 0.65098 0.596078 0.101961 0.65098 0.596078 
0.101961 0.65098 0.596078 0.101961 0.65098 0.596078 
0.101961 0.65098 0.596078 0.101961 0.65098 0.596078 
0.101961 0.65098 0.596078 0.101961 0.65098 0.596078 
0.101961 0.65098 0.596078 0.101961 0.65098 0.596078 
0.101961 0.65098 0.596078 0.101961 0.65098 0.596078 
0.101961 0.65098 0.596078 0.101961 0.65098 0.596078 
0.101961 0.65098 0.596078 0.101961 0.65098 0.596078 
0.101961 0.65098 0.596078 0.101961 0.65098 0.596078 
0.101961 0.65098 0.596078 0.101961 0.65098 0.596078 
0.101961 0.65098 0.596078 0.101961 0.65098 0.596078 
0.101961 0.65098 0.596078 0.101961 0.65098 0.596078 
0.101961 0.65098 0.596078 0.101961 0.65098 0.596078 
0.101961 0.65098 0.596078 0.101961 0.65098 0.596078 
0.101961 0.65098 0.596078 0.101961 0.65098 0.596078 
0.101961 0.65098 0.596078 0.101961 0.65098 0.596078 
0.101961 0.65098 0.596078 0.101961 0.65098 0.596078 
0.101961 0.65098 0.596078 0.101961 0.65098 0.596078 
0.101961 0.65098 0.596078 0.101961 0.65098 0.596078 
0.101961 0.65098 0.596078 0.101961 0.65098 0.596078 
0.101961 0.65098 0.596078 0.101961 0.65098 0.596078 
0.101961 0.65098 0.596078 0.101961 0.65098 0.596078 
0.101961 0.65098 0.596078 0.101961 0.65098 0.596078 
0.101961 0.65098 0.596078 0.101961 0.65098 0.596078 
0.101961 0.65098 0.596078 0.101961 0.65098 0.596078 
0.101961 0.65098 0.596078 0.101961 0.65098 0.596078 
0.101961 0.65098 0.596078 0.101961 0.65098 0.596078 
0.101961 0.65098 0.596078 0.101961 0.65098 0.596078 
0.101961 0.65098 0.596078 0.101961 0.65098 0.596078 
0.101961 0.65098 0.596078 0.101961 0.65098 0.596078 
0.101961 0.65098 0.596078 0.101961 0.65098 0.596078 
0.101961 0.65098 0.596078 0.101961 0.65098 0.596078 
0.101961 0.65098 0.596078 0.101961 0.65098 0.596078 
0.101961 0.65098 0.596078 0.101961 0.65098 0.596078 
0.101961 0.65098 0.596078 0.101961 0.65098 0.596078 
0.101961 0.65098 0.596078 0.101961 0.65098 0.596078 
0.101961 0.65098 0.596078 0.101961 0.65098 0.596078 
0.101961 0.65098 0.596078 0.101961 0.65098 0.596078 
0.101961 0.65098 0.596078 0.101961 0.65098 0.596078 
0.101961 0.65098 0.596078 0.101961 0.65098 0.596078 
0.101961 0.65098 0.596078 0.101961 0.65098 0.596078 
0.101961 0.65098 0.596078 0.101961 0.65098 0.596078 
0.101961 0.65098 0.596078 0.101961 0.65098 0.596078 
0.101961 0.65098 0.596078 0.101961 0.65098 0.596078 
0.101961 0.65098 0.596078 0.101961 0.65098 0.596078 
0.101961 0.65098 0.596078 0.101961 0.65098 0.596078 
0.101961 0.65098 0.596078 0.101961 0.65098 0.596078 
0.101961 0.65098 0.596078 0.101961 0.65098 0.596078 
0.101961 0.65098 0.596078 0.101961 0.65098 0.596078 
0.101961 0.65098 0.596078 0.101961 0.65098 0.596078 
0.101961 0.65098 0.596078 0.101961 0.65098 0.596078 
0.101961 0.65098 0.596078 0.101961 0.65098 0.596078 
0.101961 0.65098 0.596078 0.101961 0.65098 0.596078 
0.101961 0.65098 0.596078 0.101961 0.65098 0.596078 
0.101961 0.65098 0.596078 0.101961 0.65098 0.596078 
0.101961 0.65098 0.596078 0.101961 0.65098 0.596078 
0.101961 0.65098 0.596078 0.101961 0.65098 0.596078 
0.101961 0.65098 0.596078 0.101961 0.65098 0.596078 
0.101961 0.65098 0.596078 0.101961 0.65098 0.596078 
0.101961 0.65098 0.596078 0.101961 0.65098 0.596078 
0.101961 0.65098 0.596078 0.101961 0.65098 0.596078 
0.101961 0.65098 0.596078 0.101961 0.65098 0.596078 
0.101961 0.65098 0.596078 0.101961 0.65098 0.596078 
0.101961 0.65098 0.596078 0.101961 0.65098 0.596078 
0.101961 0.65098 0.596078 0.101961 0.65098 0.596078 
0.101961 0.65098 0.596078 0.101961 0.65098 0.596078 
0.101961 0.65098 0.596078 0.101961 0.65098 0.596078 
0.101961 0.65098 0.596078 0.101961 0.65098 0.596078 
0.101961 0.65098 0.596078 0.101961 0.65098 0.596078 
0.101961 0.65098 0.596078 0.101961 0.65098 0.596078 
0.101961 0.65098 0.596078 0.101961 0.65098 0.596078 
0.101961 0.65098 0.596078 0.101961 0.65098 0.596078 
0.101961 0.65098 0.596078 0.101961 0.65098 0.596078 
0.101961 0.65098 0.596078 0.101961 0.65098 0.596078 
0.101961 0.65098 0.596078 0.101961 0.65098 0.596078 
0.101961 0.65098 0.596078 0.101961 0.65098 0.596078 
0.101961 0.65098 0.596078 0.101961 0.65098 0.596078 
0.101961 0.65098 0.596078 0.101961 0.65098 0.596078 
0.101961 0.65098 0.596078 0.101961 0.65098 0.596078 
0.101961 0.65098 0.596078 0.101961 0.65098 0.596078 
0.101961 0.65098 0.596078 0.101961 0.65098 0.596078 
0.101961 0.65098 0.596078 0.101961 0.65098 0.596078 
0.101961 0.65098 0.596078 0.101961 0.65098 0.596078 
0.101961 0.65098 0.596078 0.101961 0.65098 0.596078 
0.101961 0.65098 0.596078 0.101961 0.65098 0.596078 
0.101961 0.65098 0.596078 0.101961 0.65098 0.596078 
0.101961 0.65098 0.596078 0.101961 0.65098 0.596078 
0.101961 0.65098 0.596078 0.101961 0.65098 0.596078 
0.101961 0.65098 0.596078 0.101961 0.65098 0.596078 
0.101961 0.65098 0.596078 0.101961 0.65098 0.596078 
0.101961 0.65098 0.596078 0.101961 0.65098 0.596078 
0.101961 0.65098 0.596078 0.101961 0.65098 0.596078 
0.101961 0.65098 0.596078 0.101961 0.65098 0.596078 
0.101961 0.65098 0.596078 0.101961 0.65098 0.596078 
0.101961 0.65098 0.596078 0.101961 0.65098 0.596078 
0.101961 0.65098 0.596078 0.101961 0.65098 0.596078 
0.101961 0.65098 0.596078 0.101961 0.65098 0.596078 
0.101961 0.65098 0.596078 0.101961 0.65098 0.596078 
0.101961 0.65098 0.596078 0.101961 0.65098 0.596078 
0.101961 0.65098 0.596078 0.101961 0.65098 0.596078 
0.101961 0.65098 0.596078 0.101961 0.65098 0.596078 
0.101961 0.65098 0.596078 0.101961 0.65098 0.596078 
0.101961 0.65098 0.596078 0.101961 0.65098 0.596078 
0.101961 0.65098 0.596078 0.101961 0.65098 0.596078 
0.101961 0.65098 0.596078 0.101961 0.65098 0.596078 
0.101961 0.65098 0.596078 0.101961 0.65098 0.596078 
0.101961 0.65098 0.596078 0.101961 0.65098 0.596078 
0.101961 0.65098 0.596078 0.101961 0.65098 0.596078 
0.101961 0.65098 0.596078 0.101961 0.65098 0.596078 
0.101961 0.65098 0.596078 0.101961 0.65098 0.596078 
0.101961 0.65098 0.596078 0.101961 0.65098 0.596078 
0.101961 0.65098 0.596078 0.101961 0.65098 0.596078 
0.101961 0.65098 0.596078 0.101961 0.65098 0.596078 
0.101961 0.65098 0.596078 0.101961 0.65098 0.596078 
0.101961 0.65098 0.596078 0.101961 0.65098 0.596078 
0.101961 0.65098 0.596078 0.101961 0.65098 0.596078 
0.101961 0.65098 0.596078 0.101961 0.65098 0.596078 
0.101961 0.65098 0.596078 0.101961 0.65098 0.596078 
0.101961 0.65098 0.596078 0.101961 0.65098 0.596078 
0.101961 0.65098 0.596078 0.101961 0.65098 0.596078 
0.101961 0.65098 0.596078 0.101961 0.65098 0.596078 
0.101961 0.65098 0.596078 0.101961 0.65098 0.596078 
0.101961 0.65098 0.596078 0.101961 0.65098 0.596078 
0.101961 0.65098 0.596078 0.101961 0.65098 0.596078 
0.101961 0.65098 0.596078 0.101961 0.65098 0.596078 
0.101961 0.65098 0.596078 0.101961 0.65098 0.596078 
0.101961 0.65098 0.596078 0.101961 0.65098 0.596078 
0.101961 0.65098 0.596078 0.101961 0.65098 0.596078 
0.101961 0.65098 0.596078 0.101961 0.65098 0.596078 
0.101961 0.65098 0.596078 0.101961 0.65098 0.596078 
0.101961 0.65098 0.596078 0.101961 0.65098 0.596078 
0.101961 0.65098 0.596078 0.101961 0.65098 0.596078 
0.101961 0.65098 0.596078 0.101961 0.65098 0.596078 
0.101961 0.65098 0.596078 0.101961 0.65098 0.596078 
0.101961 0.65098 0.596078 0.101961 0.65098 0.596078 
0.101961 0.65098 0.596078 0.101961 0.65098 0.596078 
0.101961 0.65098 0.596078 0.101961 0.65098 0.596078 
0.101961 0.65098 0.596078 0.101961 0.65098 0.596078 
0.101961 0.65098 0.596078 0.101961 0.65098 0.596078 
0.101961 0.65098 0.596078 0.101961 0.65098 0.596078 
0.101961 0.65098 0.596078 0.101961 0.65098 0.596078 
0.101961 0.65098 0.596078 0.101961 0.65098 0.596078 
0.101961 0.65098 0.596078 0.101961 0.65098 0.596078 
0.101961 0.65098 0.596078 0.101961 0.65098 0.596078 
0.101961 0.65098 0.596078 0.101961 0.65098 0.596078 
0.101961 0.65098 0.596078 0.101961 0.65098 0.596078 
0.101961 0.65098 0.596078 0.101961 0.65098 0.596078 
0.101961 0.65098 0.596078 0.101961 0.65098 0.596078 
0.101961 0.65098 0.596078 0.101961 0.65098 0.596078 
0.101961 0.65098 0.596078 0.101961 0.65098 0.596078 
0.101961 0.65098 0.596078 0.101961 0.65098 0.596078 
0.101961 0.65098 0.596078 0.101961 0.65098 0.596078 
0.101961 0.65098 0.596078 0.101961 0.65098 0.596078 
0.101961 0.65098 0.596078 0.101961 0.65098 0.596078 
0.101961 0.65098 0.596078 0.101961 0.65098 0.596078 
0.101961 0.65098 0.596078 0.101961 0.65098 0.596078 
0.101961 0.65098 0.596078 0.101961 0.65098 0.596078 
0.101961 0.65098 0.596078 0.101961 0.65098 0.596078 
0.101961 0.65098 0.596078 0.101961 0.65098 0.596078 
0.101961 0.65098 0.596078 0.101961 0.65098 0.596078 
0.101961 0.65098 0.596078 0.101961 0.65098 0.596078 
0.101961 0.65098 0.596078 0.101961 0.65098 0.596078 
0.101961 0.65098 0.596078 0.101961 0.65098 0.596078 
0.101961 0.65098 0.596078 0.101961 0.65098 0.596078 
0.101961 0.65098 0.596078 0.101961 0.65098 0.596078 
0.101961 0.65098 0.596078 0.101961 0.65098 0.596078 
0.101961 0.65098 0.596078 0.101961 0.65098 0.596078 
0.101961 0.65098 0.596078 0.101961 0.65098 0.596078 
0.101961 0.65098 0.596078 0.101961 0.65098 0.596078 
0.101961 0.65098 0.596078 0.101961 0.65098 0.596078 
0.101961 0.65098 0.596078 0.101961 0.65098 0.596078 
0.101961 0.65098 0.596078 0.101961 0.65098 0.596078 
0.101961 0.65098 0.596078 0.101961 0.65098 0.596078 
0.101961 0.65098 0.596078 0.101961 0.65098 0.596078 
0.101961 0.65098 0.596078 0.101961 0.65098 0.596078 
0.101961 0.65098 0.596078 0.101961 0.65098 0.596078 
0.101961 0.65098 0.596078 0.101961 0.65098 0.596078 
0.101961 0.65098 0.596078 0.101961 0.65098 0.596078 
0.101961 0.65098 0.596078 0.101961 0.65098 0.596078 
0.101961 0.65098 0.596078 0.101961 0.65098 0.596078 
0.101961 0.65098 0.596078 0.101961 0.65098 0.596078 
0.101961 0.65098 0.596078 0.101961 0.65098 0.596078 
0.101961 0.65098 0.596078 0.101961 0.65098 0.596078 
0.101961 0.65098 0.596078 0.101961 0.65098 0.596078 
0.101961 0.65098 0.596078 0.101961 0.65098 0.596078 
0.101961 0.65098 0.596078 0.101961 0.65098 0.596078 
0.101961 0.65098 0.596078 0.101961 0.65098 0.596078 
0.101961 0.65098 0.596078 0.101961 0.65098 0.596078 
0.101961 0.65098 0.596078 0.101961 0.65098 0.596078 
0.101961 0.65098 0.596078 0.101961 0.65098 0.596078 
0.101961 0.65098 0.596078 0.101961 0.65098 0.596078 
0.101961 0.65098 0.596078 0.101961 0.65098 0.596078 
0.101961 0.65098 0.596078 0.101961 0.65098 0.596078 
0.101961 0.65098 0.596078 0.101961 0.65098 0.596078 
0.101961 0.65098 0.596078 0.101961 0.65098 0.596078 
0.101961 0.65098 0.596078 0.101961 0.65098 0.596078 
0.101961 0.65098 0.596078 0.101961 0.65098 0.596078 
0.101961 0.65098 0.596078 0.101961 0.65098 0.596078 
0.101961 0.65098 0.596078 0.101961 0.65098 0.596078 
0.101961 0.65098 0.596078 0.101961 0.65098 0.596078 
0.101961 0.65098 0.596078 0.101961 0.65098 0.596078 
0.101961 0.65098 0.596078 0.101961 0.65098 0.596078 
0.101961 0.65098 0.596078 0.101961 0.65098 0.596078 
0.101961 0.65098 0.596078 0.101961 0.65098 0.596078 
0.101961 0.65098 0.596078 0.101961 0.65098 0.596078 
0.101961 0.65098 0.596078 0.101961 0.65098 0.596078 
0.101961 0.65098 0.596078 0.101961 0.65098 0.596078 
0.101961 0.65098 0.596078 0.101961 0.65098 0.596078 
0.101961 0.65098 0.596078 0.101961 0.65098 0.596078 
0.101961 0.65098 0.596078 0.101961 0.65098 0.596078 
0.101961 0.65098 0.596078 0.101961 0.65098 0.596078 
0.101961 0.65098 0.596078 0.101961 0.65098 0.596078 
0.101961 0.65098 0.596078 0.101961 0.65098 0.596078 
0.101961 0.65098 0.596078 0.101961 0.65098 0.596078 
0.101961 0.65098 0.596078 0.101961 0.65098 0.596078 
0.101961 0.65098 0.596078 0.101961 0.65098 0.596078 
0.101961 0.65098 0.596078 0.101961 0.65098 0.596078 
0.101961 0.65098 0.596078 0.101961 0.65098 0.596078 
0.101961 0.65098 0.596078 0.101961 0.65098 0.596078 
0.101961 0.65098 0.596078 0.101961 0.65098 0.596078 
0.101961 0.65098 0.596078 0.101961 0.65098 0.596078 
0.101961 0.65098 0.596078 0.101961 0.65098 0.596078 
0.101961 0.65098 0.596078 0.101961 0.65098 0.596078 
0.101961 0.65098 0.596078 0.101961 0.65098 0.596078 
0.101961 0.65098 0.596078 0.101961 0.65098 0.596078 
0.101961 0.65098 0.596078 0.101961 0.65098 0.596078 
0.101961 0.65098 0.596078 0.101961 0.65098 0.596078 
0.101961 0.65098 0.596078 0.101961 0.65098 0.596078 
0.101961 0.65098 0.596078 0.101961 0.65098 0.596078 
0.101961 0.65098 0.596078 0.101961 0.65098 0.596078 
0.101961 0.65098 0.596078 0.101961 0.65098 0.596078 
0.101961 0.65098 0.596078 0.101961 0.65098 0.596078 
0.101961 0.65098 0.596078 0.101961 0.65098 0.596078 
0.101961 0.65098 0.596078 0.101961 0.65098 0.596078 
0.101961 0.65098 0.596078 0.101961 0.65098 0.596078 
0.101961 0.65098 0.596078 0.101961 0.65098 0.596078 
0.101961 0.65098 0.596078 0.101961 0.65098 0.596078 
0.101961 0.65098 0.596078 0.101961 0.65098 0.596078 
0.101961 0.65098 0.596078 0.101961 0.65098 0.596078 
0.101961 0.65098 0.596078 0.101961 0.65098 0.596078 
0.101961 0.65098 0.596078 0.101961 0.65098 0.596078 
0.101961 0.65098 0.596078 0.101961 0.65098 0.596078 
0.101961 0.65098 0.596078 0.101961 0.65098 0.596078 
0.101961 0.65098 0.596078 0.101961 0.65098 0.596078 
0.101961 0.65098 0.596078 0.101961 0.65098 0.596078 
0.101961 0.65098 0.596078 0.101961 0.65098 0.596078 
0.101961 0.65098 0.596078 0.101961 0.65098 0.596078 
0.101961 0.65098 0.596078 0.101961 0.65098 0.596078 
0.101961 0.65098 0.596078 0.101961 0.65098 0.596078 
0.101961 0.65098 0.596078 0.101961 0.65098 0.596078 
0.101961 0.65098 0.596078 0.101961 0.65098 0.596078 
0.101961 0.65098 0.596078 0.101961 0.65098 0.596078 
0.101961 0.65098 0.596078 0.101961 0.65098 0.596078 
0.101961 0.65098 0.596078 0.101961 0.65098 0.596078 
0.101961 0.65098 0.596078 0.101961 0.65098 0.596078 
0.101961 0.65098 0.596078 0.101961 0.65098 0.596078 
0.101961 0.65098 0.596078 0.101961 0.65098 0.596078 
0.101961 0.65098 0.596078 0.101961 0.65098 0.596078 
0.101961 0.65098 0.596078 0.101961 0.65098 0.596078 
0.101961 0.65098 0.596078 0.101961 0.65098 0.596078 
0.101961 0.65098 0.596078 0.101961 0.65098 0.596078 
0.101961 0.65098 0.596078 0.101961 0.65098 0.596078 
0.101961 0.65098 0.596078 0.101961 0.65098 0.596078 
0.101961 0.65098 0.596078 0.101961 0.65098 0.596078 
0.101961 0.65098 0.596078 0.101961 0.65098 0.596078 
0.101961 0.65098 0.596078 0.101961 0.65098 0.596078 
0.101961 0.65098 0.596078 0.101961 0.65098 0.596078 
0.101961 0.65098 0.596078 0.101961 0.65098 0.596078 
0.101961 0.65098 0.596078 0.101961 0.65098 0.596078 
0.101961 0.65098 0.596078 0.101961 0.65098 0.596078 
0.101961 0.65098 0.596078 0.101961 0.65098 0.596078 
0.101961 0.65098 0.596078 0.101961 0.65098 0.596078 
0.101961 0.65098 0.596078 0.101961 0.65098 0.596078 
0.101961 0.65098 0.596078 0.101961 0.65098 0.596078 
0.101961 0.65098 0.596078 0.101961 0.65098 0.596078 
0.101961 0.65098 0.596078 0.101961 0.65098 0.596078 
0.101961 0.65098 0.596078 0.101961 0.65098 0.596078 
0.101961 0.65098 0.596078 0.101961 0.65098 0.596078 
0.101961 0.65098 0.596078 0.101961 0.65098 0.596078 
0.101961 0.65098 0.596078 0.101961 0.65098 0.596078 
0.101961 0.65098 0.596078 0.101961 0.65098 0.596078 
0.101961 0.65098 0.596078 0.101961 0.65098 0.596078 
0.101961 0.65098 0.596078 0.101961 0.65098 0.596078 
0.101961 0.65098 0.596078 0.101961 0.65098 0.596078 
0.101961 0.65098 0.596078 0.101961 0.65098 0.596078 
0.101961 0.65098 0.596078 0.101961 0.65098 0.596078 
0.101961 0.65098 0.596078 0.101961 0.65098 0.596078 
0.101961 0.65098 0.596078 0.101961 0.65098 0.596078 
0.101961 0.65098 0.596078 0.101961 0.65098 0.596078 
0.101961 0.65098 0.596078 0.101961 0.65098 0.596078 
0.101961 0.65098 0.596078 0.101961 0.65098 0.596078 
0.101961 0.65098 0.596078 0.101961 0.65098 0.596078 
0.101961 0.65098 0.596078 0.101961 0.65098 0.596078 
0.101961 0.65098 0.596078 0.101961 0.65098 0.596078 
0.101961 0.65098 0.596078 0.101961 0.65098 0.596078 
0.101961 0.65098 0.596078 0.101961 0.65098 0.596078 
0.101961 0.65098 0.596078 0.101961 0.65098 0.596078 
0.101961 0.65098 0.596078 0.101961 0.65098 0.596078 
0.101961 0.65098 0.596078 0.101961 0.65098 0.596078 
0.101961 0.65098 0.596078 0.101961 0.65098 0.596078 
0.101961 0.65098 0.596078 0.101961 0.65098 0.596078 
0.101961 0.65098 0.596078 0.101961 0.65098 0.596078 
0.101961 0.65098 0.596078 0.101961 0.65098 0.596078 
0.101961 0.65098 0.596078 0.101961 0.65098 0.596078 
0.101961 0.65098 0.596078 0.101961 0.65098 0.596078 
0.101961 0.65098 0.596078 0.101961 0.65098 0.596078 