# vtk DataFile Version 4.2
vtk output
ASCII
DATASET POLYDATA
POINTS 2303 float
372.336 66.8188 162.829 372.165 66.8271 162.894 372.44 66.7859 162.85 
372.353 66.7047 162.84 372.476 66.6351 162.925 372.348 66.8378 162.926 
372.492 66.7535 162.93 371.007 66.4695 163.156 371.571 66.8048 163.139 
371.811 66.7029 162.971 372.527 66.5833 163.08 371.986 66.8425 163.091 
372.468 66.7528 163.05 375.009 69.0043 162.013 375.009 69.0043 162.013 
375.009 69.0043 162.013 375.009 69.0044 162.013 375.009 69.0044 162.013 
372.326 65.5324 163.5 372.211 65.2318 163.637 372.359 65.293 163.744 
367.757 65.7992 163.956 372.287 65.8717 163.276 372.512 66.2819 163.415 
370.662 66.7115 163.624 371.214 66.8179 163.434 372.514 66.6009 163.212 
371.796 66.821 163.361 372.392 66.707 163.247 375.009 69.0043 162.013 
372.038 64.3562 164.275 365.687 64.9991 164.5 363.484 65.4423 164.998 
366.409 65.5224 164.291 367.18 65.4785 164.12 363.192 66.2054 165.182 
366.834 66.4626 164.663 369.82 66.7563 163.996 370.79 66.6624 164.051 
371.438 66.5396 164.045 372.46 66.5163 163.405 368.927 66.7779 164.344 
369.816 66.7674 164.243 371.772 62.8593 165.643 371.961 62.9227 165.905 
372.154 63.4828 165.444 364.392 63.8229 165.295 362.535 64.8357 165.421 
364.514 64.8132 164.843 360.032 65.6237 166.01 372.048 65.5264 164.94 
362.414 66.1048 165.419 372.149 66.0975 164.224 361.168 66.6091 166.061 
363.979 66.5968 165.349 370.12 66.6359 164.458 364.276 66.7577 165.612 
365.83 66.7256 165.528 371.316 61.8535 166.579 370.129 61.803 166.083 
371.102 62.3697 165.759 371.944 62.6373 166.465 366.759 62.2738 165.857 
372.178 63.4307 165.746 372.074 63.1224 166.198 372.29 64.445 165.289 
371.647 65.0304 165.706 372.236 64.9602 165.125 369.664 65.8315 165.936 
371.481 65.4391 165.425 358.324 66.1797 167.018 367.346 66.5554 165.527 
360.153 66.8224 166.675 364.888 66.8005 166.078 371.949 62.7555 166.679 
371.065 63.9521 167.002 371.411 63.7461 166.918 372.168 64.2406 165.703 
368.383 65.3346 167.08 356.867 66.036 167.799 363.422 66.8096 167.108 
358.534 67.0581 168.037 370.989 60.2642 168.734 371.39 61.302 168.258 
371.609 61.7676 167.52 371.771 62.5842 167.159 371.286 62.7868 167.708 
371.681 63.0871 167.064 356.058 64.871 168.46 355.935 65.4832 168.352 
355.332 65.7855 168.723 355.759 66.5693 168.74 356.729 66.8382 168.433 
357.318 66.9848 168.337 356.888 67.0741 168.759 360.937 66.989 167.903 
366.405 59.2009 168.968 369.593 59.3616 168.705 370.231 59.5034 168.807 
370.431 59.134 169.367 363.084 60.2106 168.837 371.214 60.3397 169.379 
371.422 60.9027 168.828 371.457 61.0671 168.671 371.45 60.9813 168.82 
371.21 62.218 168.123 371.374 61.1195 168.768 356.447 63.996 168.681 
355.683 63.8712 169.239 354.66 66.2368 169.217 357.412 67.1614 169.332 
370.169 58.5839 169.788 371.168 59.8962 170.04 371.261 60.1078 169.805 
371.257 60.0493 169.934 371.092 61.0463 169.201 371.355 60.8703 169.002 
353.586 64.976 169.944 361.491 65.8359 169.804 352.308 66.397 170.451 
353.022 67.082 170.366 353.508 67.2655 170.302 354.525 67.5619 170.532 
357.165 67.0981 170.073 370.099 57.7155 170.786 370.355 57.4488 171.324 
370.949 60.0812 170.25 350.797 66.1525 171.6 349.864 67.0575 172.241 
350.776 67.1715 171.67 353.785 67.7842 171.224 354.196 67.7981 170.926 
354.107 67.8422 171.053 354.402 67.7533 170.908 354.856 67.5787 171.034 
354.231 67.8354 170.99 370.545 57.2613 171.789 370.693 57.3743 172.063 
370.637 58.8111 171.655 351.255 65.3107 171.581 349.393 67.8514 172.712 
349.767 68.0654 172.611 350.366 68.0576 172.374 351.152 68.0641 172.156 
352.006 68.0294 171.958 354.271 67.7813 171.127 370.157 55.7067 173.262 
369.967 55.0303 173.832 370.49 55.7062 173.48 370.415 55.4198 173.67 
370.555 55.593 173.578 370.515 56.1504 173.42 370.64 56.8375 172.623 
370.575 55.7399 173.529 370.649 57.0898 172.636 370.547 57.8841 172.467 
368.784 59.3666 172.717 370.116 58.6646 172.347 353.158 67.845 173.211 
349.971 68.691 173.27 350.633 68.6362 173.233 352.038 68.2581 172.997 
348.746 68.9691 174.051 349.487 68.9317 173.841 350.582 68.7753 173.786 
370.043 54.3303 174.569 370.342 54.4072 174.644 370.511 54.5536 174.506 
370.495 55.0105 174.262 370.555 55.5684 173.681 370.541 54.675 174.43 
370.367 56.044 174.464 350.914 68.6778 174.338 348.304 69.2325 174.605 
368.046 53.7158 175.087 368.943 53.9961 174.75 370.361 54.2543 175.173 
370.496 54.564 174.59 363.368 55.0536 174.985 370.62 55.1219 174.627 
370.49 55.4247 175.115 349.461 69.1408 174.885 348.894 69.2953 175.14 
349.193 69.2163 175.359 344.879 69.4973 176.184 346.189 69.9367 175.924 
370.232 55.2351 175.973 370.363 55.4081 175.523 350.838 61.8413 175.889 
352.068 67.4083 175.881 349.258 69.126 175.724 368.355 52.0653 177.37 
369.272 52.5773 176.838 369.827 52.6008 177.476 369.027 55.2848 177.302 
369.713 54.7448 177.2 343.37 69.063 177.758 342.534 70.154 178.133 
343.471 70.6048 177.571 343.541 71.0744 178.004 369.269 51.8658 177.93 
369.581 52.0846 177.87 369.685 52.0023 178.298 369.945 52.8863 178.284 
363.539 58.0221 177.559 345.159 70.6907 177.821 345.085 70.7258 178.188 
341.002 71.8373 179.156 340.735 71.7393 179.276 340.433 72.1284 179.516 
344.09 71.0636 178.196 340.847 72.3336 179.482 368.598 51.4382 178.394 
368.945 50.9282 179.472 369.687 51.7765 179.034 369.425 53.3107 179.15 
348.706 67.8493 179.443 341.08 70.3443 179.47 345.041 70.665 178.66 
340.485 71.4972 179.503 339.625 72.3705 179.966 338.402 73.039 180.567 
338.039 73.8632 180.743 338.778 73.816 180.541 339.369 73.513 180.408 
369.079 50.5934 180.109 368.899 50.2789 180.484 369.184 50.3513 180.726 
369.647 51.5243 179.916 340.422 69.9513 180.53 339.532 71.44 180.31 
341.312 72.5815 180.195 337.371 73.8993 181.163 339.005 73.8366 180.557 
337.26 74.4968 181.27 337.756 74.3451 181.037 368.08 49.2926 181.881 
368.589 49.5657 181.576 368.988 49.7719 181.573 367.007 49.9869 180.808 
369.49 50.7943 180.703 345.271 69.6466 180.918 338.971 71.3435 181.023 
340.975 72.7902 180.826 337.178 73.5805 181.453 338.781 74.1341 181.091 
335.424 75.1519 182.42 336.35 74.871 181.885 336.558 75.2395 182.063 
369.155 49.5207 182.441 369.431 50.1347 181.916 369.516 50.5545 181.37 
369.507 50.5269 181.841 369.455 50.9263 181.852 369.287 51.1529 182.04 
345.455 68.9797 181.903 340.2 73.1958 182.021 334.923 75.4555 182.811 
336.907 75.422 182.681 333.924 76.4063 183.416 333.737 76.6256 183.614 
335.76 76.1305 183.165 333.728 77.0328 183.853 334.323 76.8665 183.598 
369.045 48.7949 183.501 369.379 49.9768 182.507 339.581 73.339 183.331 
334.292 75.2853 183.533 335.792 76.2051 183.545 332.967 76.6912 184.346 
332.796 77.0618 184.486 335.27 76.5131 183.698 332.912 77.8268 184.703 
333.603 77.4349 184.248 334.115 77.16 184.064 368.973 48.2368 184.127 
369.282 49.9593 183.053 334.172 74.9035 184.055 332.58 76.3759 185.104 
336.054 76.0163 184.08 332.287 77.9128 185.105 331.98 77.7895 185.371 
332.619 77.8815 184.839 332.081 78.4411 185.62 332.473 78.1729 185.204 
332.268 78.4764 185.718 368.815 49.378 184.931 349.163 58.2122 184.904 
333.062 75.2517 185.41 331.938 77.4977 185.463 331.835 78.4459 185.802 
331.858 78.6294 186.122 368.079 46.5032 186.827 368.4 49.2404 185.954 
331.021 78.3933 186.883 367.684 45.9903 187.531 371 46.0087 187.017 
371 46.0087 187.017 371 46.0087 187.017 371 46.0087 187.017 
371 46.0088 187.017 368.662 48.0913 186.849 330.324 78.9255 188.023 
330.011 78.8289 188.439 329.949 79.1783 188.729 330.714 78.7902 187.439 
332.102 78.7183 187.008 330.433 79.4175 188.39 330.686 79.1481 187.819 
331.264 79.0517 187.494 330.682 79.3518 188.109 366.888 45.9789 187.569 
368.615 46.4364 188.81 371 46.0087 187.017 368.664 47.1169 187.6 
368.689 47.6166 187.398 368.608 47.8874 187.404 359.685 53.6369 187.813 
329.959 78.4848 188.565 330.069 79.5421 189.123 330.596 79.4427 188.417 
364.756 45.5663 189.287 368.731 45.9543 189.495 368.733 46.1512 189.478 
331.899 78.7086 188.522 330.616 79.4494 188.863 328.924 80.269 190.91 
329.154 80.2696 190.855 370 43.0087 190.017 370 43.0087 190.017 
370 43.0087 190.017 370 43.0087 190.017 370 43.0088 190.017 
366.397 44.4652 190.557 368.736 45.6421 189.895 368.773 45.8926 190.255 
329.145 78.2773 190.313 328.173 79.8298 191.366 370 43.0087 190.017 
367.376 44.3442 190.69 367.928 44.244 191.2 368.44 44.7685 190.686 
368.569 44.8403 190.915 368.874 45.3965 190.814 368.746 45.1425 190.974 
368.876 45.3081 190.976 368.791 45.6401 190.798 368.884 45.4087 190.942 
368.183 46.2995 191.093 330.522 79.4253 191.592 327.914 80.0787 191.824 
327.682 79.9529 192.199 327.59 80.3182 192.465 328.211 80.4884 191.773 
327.985 80.6444 192.231 329.2 80.3799 191.811 328.352 80.6664 192.137 
328.779 80.5985 192.113 366.994 43.2341 192.987 368.791 45.3227 191.197 
368.48 45.7182 191.535 368.582 45.4776 191.666 359.246 47.2386 191.39 
327.656 79.6563 192.348 327.723 80.6106 192.501 367.167 42.9726 193.602 
366.921 42.6837 194.121 367.972 43.7466 193.252 368.235 45.0916 192.576 
368.517 45.2662 191.928 336.246 73.0429 192.677 326.923 80.3756 193.746 
328.448 80.8441 193.418 328.706 80.6803 193.822 328.059 80.9559 193.406 
366.534 42.6598 194.07 365.475 42.7009 194.292 367.956 43.8752 194.12 
328.088 77.6492 194.056 326.522 81.0276 194.963 367.733 42.9767 195.067 
367.858 43.2979 194.557 325.936 80.89 195.859 326.205 80.9869 195.442 
325.43 81.4489 197.177 326.053 81.5121 196.663 326.702 81.4366 196.086 
365.486 41.3668 197.045 367.152 41.8312 197.221 367.367 42.3088 197.427 
367.59 43.6127 196.343 366.022 45.2048 196.597 325.161 80.9877 197.379 
325.582 81.9084 197.862 325.08 82.1473 198.254 324.551 82.2796 198.603 
324.515 82.4709 198.886 367.246 42.616 198.237 366.841 43.7406 197.951 
366.949 43.2076 198.596 324.465 81.2943 198.454 324.132 81.7922 198.926 
326.858 81.5416 197.708 324.037 82.5547 199.453 324.323 82.6512 199.403 
365.905 40.2616 199.208 365.685 40.0228 199.547 366.353 40.434 199.151 
366.553 40.2774 199.707 366.743 40.8731 198.863 324.296 80.4387 199.584 
323.725 81.5052 199.7 325.085 82.5066 199.313 324.284 82.8388 199.952 
[...]
POINT_DATA 2303
COLOR_SCALARS scalars 3
0.101961 0.65098 0.596078 0.101961 0.65098 0.596078 0.101961 0.65098 0.596078 
0.101961 0.65098 0.596078 0.101961 0.65098 0.596078 
0.101961 0.65098 0.596078 0.101961 0.65098 0.596078 
0.101961 0.65098 0.596078 0.101961 0.65098 0.596078 
0.101961 0.65098 0.596078 0.101961 0.65098 0.596078 
0.101961 0.65098 0.596078 0.101961 0.65098 0.596078 
0.101961 0.65098 0.596078 0.101961 0.65098 0.596078 
0.101961 0.65098 0.596078 0.101961 0.65098 0.596078 
0.101961 0.65098 0.596078 0.101961 0.65098 0.596078 
0.101961 0.65098 0.596078 0.101961 0.65098 0.596078 
0.101961 0.65098 0.596078 0.101961 0.65098 0.596078 
0.101961 0.65098 0.596078 0.101961 0.65098 0.596078 
0.101961 0.65098 0.596078 0.101961 0.65098 0.596078 
0.101961 0.65098 0.596078 0.101961 0.65098 0.596078 
0.101961 0.65098 0.596078 0.101961 0.65098 0.596078 
0.101961 0.65098 0.596078 0.101961 0.65098 0.596078 
0.101961 0.65098 0.596078 0.101961 0.65098 0.596078 
0.101961 0.65098 0.596078 0.101961 0.65098 0.596078 
0.101961 0.65098 0.596078 0.101961 0.65098 0.596078 
0.101961 0.65098 0.596078 0.101961 0.65098 0.596078 
0.101961 0.65098 0.596078 0.101961 0.65098 0.596078 
0.101961 0.65098 0.596078 0.101961 0.65098 0.596078 
0.101961 0.65098 0.596078 0.101961 0.65098 0.596078 
0.101961 0.65098 0.596078 0.101961 0.65098 0.596078 
0.101961 0.65098 0.596078 0.101961 0.65098 0.596078 
0.101961 0.65098 0.596078 0.101961 0.65098 0.596078 
0.101961 0.65098 0.596078 0.101961 0.65098 0.596078 
0.101961 0.65098 0.596078 0.101961 0.65098 0.596078 
0.101961 0.65098 0.596078 0.101961 0.65098 0.596078 
0.101961 0.65098 0.596078 0.101961 0.65098 0.596078 
0.101961 0.65098 0.596078 0.101961 0.65098 0.596078 
0.101961 0.65098 0.596078 0.101961 0.65098 0.596078 
0.101961 0.65098 0.596078 0.101961 0.65098 0.596078 
0.101961 0.65098 0.596078 0.101961 0.65098 0.596078 
0.101961 0.65098 0.596078 0.101961 0.65098 0.596078 
0.101961 0.65098 0.596078 0.101961 0.65098 0.596078 
0.101961 0.65098 0.596078 0.101961 0.65098 0.596078 
0.101961 0.65098 0.596078 0.101961 0.65098 0.596078 
0.101961 0.65098 0.596078 0.101961 0.65098 0.596078 
0.101961 0.65098 0.596078 0.101961 0.65098 0.596078 
0.101961 0.65098 0.596078 0.101961 0.65098 0.596078 
0.101961 0.65098 0.596078 0.101961 0.65098 0.596078 
0.101961 0.65098 0.596078 0.101961 0.65098 0.596078 
0.101961 0.65098 0.596078 0.101961 0.65098 0.596078 
0.101961 0.65098 0.596078 0.101961 0.65098 0.596078 
0.101961 0.65098 0.596078 0.101961 0.65098 0.596078 
0.101961 0.65098 0.596078 0.101961 0.65098 0.596078 
0.101961 0.65098 0.596078 0.101961 0.65098 0.596078 
0.101961 0.65098 0.596078 0.101961 0.65098 0.596078 
0.101961 0.65098 0.596078 0.101961 0.65098 0.596078 
0.101961 0.65098 0.596078 0.101961 0.65098 0.596078 
0.101961 0.65098 0.596078 0.101961 0.65098 0.596078 
0.101961 0.65098 0.596078 0.101961 0.65098 0.596078 
0.101961 0.65098 0.596078 0.101961 0.65098 0.596078 
0.101961 0.65098 0.596078 0.101961 0.65098 0.596078 
0.101961 0.65098 0.596078 0.101961 0.65098 0.596078 
0.101961 0.65098 0.596078 0.101961 0.65098 0.596078 
0.101961 0.65098 0.596078 0.101961 0.65098 0.596078 
0.101961 0.65098 0.596078 0.101961 0.65098 0.596078 
0.101961 0.65098 0.596078 0.101961 0.65098 0.596078 
0.101961 0.65098 0.596078 0.101961 0.65098 0.596078 
0.101961 0.65098 0.596078 0.101961 0.65098 0.596078 
0.101961 0.65098 0.596078 0.101961 0.65098 0.596078 
0.101961 0.65098 0.596078 0.101961 0.65098 0.596078 
0.101961 0.65098 0.596078 0.101961 0.65098 0.596078 
0.101961 0.65098 0.596078 0.101961 0.65098 0.596078 
0.101961 0.65098 0.596078 0.101961 0.65098 0.596078 
0.101961 0.65098 0.596078 0.101961 0.65098 0.596078 
0.101961 0.65098 0.596078 0.101961 0.65098 0.596078 
0.101961 0.65098 0.596078 0.101961 0.65098 0.596078 
0.101961 0.65098 0.596078 0.101961 0.65098 0.596078 
0.101961 0.65098 0.596078 0.101961 0.65098 0.596078 
0.101961 0.65098 0.596078 0.101961 0.65098 0.596078 
0.101961 0.65098 0.596078 0.101961 0.65098 0.596078 
0.101961 0.65098 0.596078 0.101961 0.65098 0.596078 
0.101961 0.65098 0.596078 0.101961 0.65098 0.596078 
0.101961 0.65098 0.596078 0.101961 0.65098 0.596078 
0.101961 0.65098 0.596078 0.101961 0.65098 0.596078 
0.101961 0.65098 0.596078 0.101961 0.65098 0.596078 
0.101961 0.65098 0.596078 0.101961 0.65098 0.596078 
0.101961 0.65098 0.596078 0.101961 0.65098 0.596078 
0.101961 0.65098 0.596078 0.101961 0.65098 0.596078 
0.101961 0.65098 0.596078 0.101961 0.65098 0.596078 
0.101961 0.65098 0.596078 0.101961 0.65098 0.596078 
0.101961 0.65098 0.596078 0.101961 0.65098 0.596078 
0.101961 0.65098 0.596078 0.101961 0.65098 0.596078 
0.101961 0.65098 0.596078 0.101961 0.65098 0.596078 
0.101961 0.65098 0.596078 0.101961 0.65098 0.596078 
0.101961 0.65098 0.596078 0.101961 0.65098 0.596078 
0.101961 0.65098 0.596078 0.101961 0.65098 0.596078 
0.101961 0.65098 0.596078 0.101961 0.65098 0.596078 
0.101961 0.65098 0.596078 0.101961 0.65098 0.596078 
0.101961 0.65098 0.596078 0.101961 0.65098 0.596078 
0.101961 0.65098 0.596078 0.101961 0.65098 0.596078 
0.101961 0.65098 0.596078 0.101961 0.65098 0.596078 
0.101961 0.65098 0.596078 0.101961 0.65098 0.596078 
0.101961 0.65098 0.596078 0.101961 0.65098 0.596078 
0.101961 0.65098 0.596078 0.101961 0.65098 0.596078 
0.101961 0.65098 0.596078 0.101961 0.65098 0.596078 
0.101961 0.65098 0.596078 0.101961 0.65098 0.596078 
0.101961 0.65098 0.596078 0.101961 0.65098 0.596078 
0.101961 0.65098 0.596078 0.101961 0.65098 0.596078 
0.101961 0.65098 0.596078 0.101961 0.65098 0.596078 
0.101961 0.65098 0.596078 0.101961 0.65098 0.596078 
0.101961 0.65098 0.596078 0.101961 0.65098 0.596078 
0.101961 0.65098 0.596078 0.101961 0.65098 0.596078 
0.101961 0.65098 0.596078 0.101961 0.65098 0.596078 
0.101961 0.65098 0.596078 0.101961 0.65098 0.596078 
0.101961 0.65098 0.596078 0.101961 0.65098 0.596078 
0.101961 0.65098 0.596078 0.101961 0.65098 0.596078 
0.101961 0.65098 0.596078 0.101961 0.65098 0.596078 
0.101961 0.65098 0.596078 0.101961 0.65098 0.596078 
0.101961 0.65098 0.596078 0.101961 0.65098 0.596078 
0.101961 0.65098 0.596078 0.101961 0.65098 0.596078 
0.101961 0.65098 0.596078 0.101961 0.65098 0.596078 
0.101961 0.65098 0.596078 0.101961 0.65098 0.596078 
0.101961 0.65098 0.596078 0.101961 0.65098 0.596078 
0.101961 0.65098 0.596078 0.101961 0.65098 0.596078 
0.101961 0.65098 0.596078 0.101961 0.65098 0.596078 
0.101961 0.65098 0.596078 0.101961 0.65098 0.596078 
0.101961 0.65098 0.596078 0.101961 0.65098 0.596078 
0.101961 0.65098 0.596078 0.101961 0.65098 0.596078 
0.101961 0.65098 0.596078 0.101961 0.65098 0.596078 
0.101961 0.65098 0.596078 0.101961 0.65098 0.596078 
0.101961 0.65098 0.596078 0.101961 0.65098 0.596078 
0.101961 0.65098 0.596078 0.101961 0.65098 0.596078 
0.101961 0.65098 0.596078 0.101961 0.65098 0.596078 
0.101961 0.65098 0.596078 0.101961 0.65098 0.596078 
0.101961 0.65098 0.596078 0.101961 0.65098 0.596078 
0.101961 0.65098 0.596078 0.101961 0.65098 0.596078 
0.101961 0.65098 0.596078 0.101961 0.65098 0.596078 
0.101961 0.65098 0.596078 0.101961 0.65098 0.596078 
0.101961 0.65098 0.596078 0.101961 0.65098 0.596078 
0.101961 0.65098 0.596078 0.101961 0.65098 0.596078 
0.101961 0.65098 0.596078 0.101961 0.65098 0.596078 
0.101961 0.65098 0.596078 0.101961 0.65098 0.596078 
0.101961 0.65098 0.596078 0.101961 0.65098 0.596078 
0.101961 0.65098 0.596078 0.101961 0.65098 0.596078 
0.101961 0.65098 0.596078 0.101961 0.65098 0.596078 
0.101961 0.65098 0.596078 0.101961 0.65098 0.596078 
0.101961 0.65098 0.596078 0.101961 0.65098 0.596078 
0.101961 0.65098 0.596078 0.101961 0.65098 0.596078 
0.101961 0.65098 0.596078 0.101961 0.65098 0.596078 
0.101961 0.65098 0.596078 0.101961 0.65098 0.596078 
0.101961 0.65098 0.596078 0.101961 0.65098 0.596078 
0.101961 0.65098 0.596078 0.101961 0.65098 0.596078 
0.101961 0.65098 0.596078 0.101961 0.65098 0.596078 
0.101961 0.65098 0.596078 0.101961 0.65098 0.596078 
0.101961 0.65098 0.596078 0.101961 0.65098 0.596078 
0.101961 0.65098 0.596078 0.101961 0.65098 0.596078 
0.101961 0.65098 0.596078 0.101961 0.65098 0.596078 
0.101961 0.65098 0.596078 0.101961 0.65098 0.596078 
0.101961 0.65098 0.596078 0.101961 0.65098 0.596078 
0.101961 0.65098 0.596078 0.101961 0.65098 0.596078 
0.101961 0.65098 0.596078 0.101961 0.65098 0.596078 
0.101961 0.65098 0.596078 0.101961 0.65098 0.596078 
0.101961 0.65098 0.596078 0.101961 0.65098 0.596078 
0.101961 0.65098 0.596078 0.101961 0.65098 0.596078 
0.101961 0.65098 0.596078 0.101961 0.65098 0.596078 
0.101961 0.65098 0.596078 0.101961 0.65098 0.596078 
0.101961 0.65098 0.596078 0.101961 0.65098 0.596078 
0.101961 0.65098 0.596078 0.101961 0.65098 0.596078 
0.101961 0.65098 0.596078 0.101961 0.65098 0.596078 
0.101961 0.65098 0.596078 0.101961 0.65098 0.596078 
0.101961 0.65098 0.596078 0.101961 0.65098 0.596078 
0.101961 0.65098 0.596078 0.101961 0.65098 0.596078 
0.101961 0.65098 0.596078 0.101961 0.65098 0.596078 
0.101961 0.65098 0.596078 0.101961 0.65098 0.596078 
0.101961 0.65098 0.596078 0.101961 0.65098 0.596078 
0.101961 0.65098 0.596078 0.101961 0.65098 0.596078 
0.101961 0.65098 0.596078 0.101961 0.65098 0.596078 
0.101961 0.65098 0.596078 0.101961 0.65098 0.596078 
0.101961 0.65098 0.596078 0.101961 0.65098 0.596078 
0.101961 0.65098 0.596078 0.101961 0.65098 0.596078 
0.101961 0.65098 0.596078 0.101961 0.65098 0.596078 
0.101961 0.65098 0.596078 0.101961 0.65098 0.596078 
0.101961 0.65098 0.596078 0.101961 0.65098 0.596078 
0.101961 0.65098 0.596078 0.101961 0.65098 0.596078 
0.101961 0.65098 0.596078 0.101961 0.65098 0.596078 
0.101961 0.65098 0.596078 0.101961 0.65098 0.596078 
0.101961 0.65098 0.596078 0.101961 0.65098 0.596078 
0.101961 0.65098 0.596078 0.101961 0.65098 0.596078 
0.101961 0.65098 0.596078 0.101961 0.65098 0.596078 
0.101961 0.65098 0.596078 0.101961 0.65098 0.596078 
0.101961 0.65098 0.596078 0.101961 0.65098 0.596078 
0.101961 0.65098 0.596078 0.101961 0.65098 0.596078 
0.101961 0.65098 0.596078 0.101961 0.65098 0.596078 
0.101961 0.65098 0.596078 0.101961 0.65098 0.596078 
0.101961 0.65098 0.596078 0.101961 0.65098 0.596078 
0.101961 0.65098 0.596078 0.101961 0.65098 0.596078 
0.101961 0.65098 0.596078 0.101961 0.65098 0.596078 
0.101961 0.65098 0.596078 0.101961 0.65098 0.596078 
0.101961 0.65098 0.596078 0.101961 0.65098 0.596078 
0.101961 0.65098 0.596078 0.101961 0.65098 0.596078 
0.101961 0.65098 0.596078 0.101961 0.65098 0.596078 
0.101961 0.65098 0.596078 0.101961 0.65098 0.596078 
0.101961 0.65098 0.596078 0.101961 0.65098 0.596078 
0.101961 0.65098 0.596078 0.101961 0.65098 0.596078 
0.101961 0.65098 0.596078 0.101961 0.65098 0.596078 
0.101961 0.65098 0.596078 0.101961 0.65098 0.596078 
0.101961 0.65098 0.596078 0.101961 0.65098 0.596078 
0.101961 0.65098 0.596078 0.101961 0.65098 0.596078 
0.101961 0.65098 0.596078 0.101961 0.65098 0.596078 
0.101961 0.65098 0.596078 0.101961 0.65098 0.596078 
0.101961 0.65098 0.596078 0.101961 0.65098 0.596078 
0.101961 0.65098 0.596078 0.101961 0.65098 0.596078 
0.101961 0.65098 0.596078 0.101961 0.65098 0.596078 
0.101961 0.65098 0.596078 0.101961 0.65098 0.596078 
0.101961 0.65098 0.596078 0.101961 0.65098 0.596078 
0.101961 0.65098 0.596078 0.101961 0.65098 0.596078 
0.101961 0.65098 0.596078 0.101961 0.65098 0.596078 
0.101961 0.65098 0.596078 0.101961 0.65098 0.596078 
0.101961 0.65098 0.596078 0.101961 0.65098 0.596078 
0.101961 0.65098 0.596078 0.101961 0.65098 0.596078 
0.101961 0.65098 0.596078 0.101961 0.65098 0.596078 
0.101961 0.65098 0.596078 0.101961 0.65098 0.596078 
0.101961 0.65098 0.596078 0.101961 0.65098 0.596078 
0.101961 0.65098 0.596078 0.101961 0.65098 0.596078 
0.101961 0.65098 0.596078 0.101961 0.65098 0.596078 
0.101961 0.65098 0.596078 0.101961 0.65098 0.596078 
0.101961 0.65098 0.596078 0.101961 0.65098 0.596078 
0.101961 0.65098 0.596078 0.101961 0.65098 0.596078 
0.101961 0.65098 0.596078 0.101961 0.65098 0.596078 
0.101961 0.65098 0.596078 0.101961 0.65098 0.596078 
0.101961 0.65098 0.596078 0.101961 0.65098 0.596078 
0.101961 0.65098 0.596078 0.101961 0.65098 0.596078 
0.101961 0.65098 0.596078 0.101961 0.65098 0.596078 
0.101961 0.65098 0.596078 0.101961 0.65098 0.596078 
0.101961 0.65098 0.596078 0.101961 0.65098 0.596078 
0.101961 0.65098 0.596078 0.101961 0.65098 0.596078 
0.101961 0.65098 0.596078 0.101961 0.65098 0.596078 
0.101961 0.65098 0.596078 0.101961 0.65098 0.596078 
0.101961 0.65098 0.596078 0.101961 0.65098 0.596078 
0.101961 0.65098 0.596078 0.101961 0.65098 0.596078 
0.101961 0.65098 0.596078 0.101961 0.65098 0.596078 
0.101961 0.65098 0.596078 0.101961 0.65098 0.596078 
0.101961 0.65098 0.596078 0.101961 0.65098 0.596078 
0.101961 0.65098 0.596078 0.101961 0.65098 0.596078 
0.101961 0.65098 0.596078 0.101961 0.65098 0.596078 
0.101961 0.65098 0.596078 0.101961 0.65098 0.596078 
0.101961 0.65098 0.596078 0.101961 0.65098 0.596078 
0.101961 0.65098 0.596078 0.101961 0.65098 0.596078 
0.101961 0.65098 0.596078 0.101961 0.65098 0.596078 
0.101961 0.65098 0.596078 0.101961 0.65098 0.596078 
0.101961 0.65098 0.596078 0.101961 0.65098 0.596078 
0.101961 0.65098 0.596078 0.101961 0.65098 0.596078 
0.101961 0.65098 0.596078 0.101961 0.65098 0.596078 
0.101961 0.65098 0.596078 0.101961 0.65098 0.596078 
0.101961 0.65098 0.596078 0.101961 0.65098 0.596078 
0.101961 0.65098 0.596078 0.101961 0.65098 0.596078 
0.101961 0.65098 0.596078 0.101961 0.65098 0.596078 
0.101961 0.65098 0.596078 0.101961 0.65098 0.596078 
0.101961 0.65098 0.596078 0.101961 0.65098 0.596078 
0.101961 0.65098 0.596078 0.101961 0.65098 0.596078 
0.101961 0.65098 0.596078 0.101961 0.65098 0.596078 
0.101961 0.65098 0.596078 0.101961 0.65098 0.596078 
0.101961 0.65098 0.596078 0.101961 0.65098 0.596078 
0.101961 0.65098 0.596078 0.101961 0.65098 0.596078 
0.101961 0.65098 0.596078 0.101961 0.65098 0.596078 
0.101961 0.65098 0.596078 0.101961 0.65098 0.596078 
0.101961 0.65098 0.596078 0.101961 0.65098 0.596078 
0.101961 0.65098 0.596078 0.101961 0.65098 0.596078 
0.101961 0.65098 0.596078 0.101961 0.65098 0.596078 
0.101961 0.65098 0.596078 0.101961 0.65098 0.596078 
0.101961 0.65098 0.596078 0.101961 0.65098 0.596078 
0.101961 0.65098 0.596078 0.101961 0.65098 0.596078 
0.101961 0.65098 0.596078 0.101961 0.65098 0.596078 
0.101961 0.65098 0.596078 0.101961 0.65098 0.596078 
0.101961 0.65098 0.596078 0.101961 0.65098 0.596078 
0.101961 0.65098 0.596078 0.101961 0.65098 0.596078 
0.101961 0.65098 0.596078 0.101961 0.65098 0.596078 
0.101961 0.65098 0.596078 0.101961 0.65098 0.596078 
0.101961 0.65098 0.596078 0.101961 0.65098 0.596078 
0.101961 0.65098 0.596078 0.101961 0.65098 0.596078 
0.101961 0.65098 0.596078 0.101961 0.65098 0.596078 
0.101961 0.65098 0.596078 0.101961 0.65098 0.596078 
0.101961 0.65098 0.596078 0.101961 0.65098 0.596078 
0.101961 0.65098 0.596078 0.101961 0.65098 0.596078 
0.101961 0.65098 0.596078 0.101961 0.65098 0.596078 
0.101961 0.65098 0.596078 0.101961 0.65098 0.596078 
0.101961 0.65098 0.596078 0.101961 0.65098 0.596078 
0.101961 0.65098 0.596078 0.101961 0.65098 0.596078 
0.101961 0.65098 0.596078 0.101961 0.65098 0.596078 
0.101961 0.65098 0.596078 0.101961 0.65098 0.596078 
0.101961 0.65098 0.596078 0.101961 0.65098 0.596078 
0.101961 0.65098 0.596078 0.101961 0.65098 0.596078 
0.101961 0.65098 0.596078 0.101961 0.65098 0.596078 
0.101961 0.65098 0.596078 0.101961 0.65098 0.596078 
0.101961 0.65098 0.596078 0.101961 0.65098 0.596078 
0.101961 0.65098 0.596078 0.101961 0.65098 0.596078 
0.101961 0.65098 0.596078 0.101961 0.65098 0.596078 
0.101961 0.65098 0.596078 0.101961 0.65098 0.596078 
0.101961 0.65098 0.596078 0.101961 0.65098 0.596078 
0.101961 0.65098 0.596078 0.101961 0.65098 0.596078 
0.101961 0.65098 0.596078 0.101961 0.65098 0.596078 
0.101961 0.65098 0.596078 0.101961 0.65098 0.596078 
0.101961 0.65098 0.596078 0.101961 0.65098 0.596078 
0.101961 0.65098 0.596078 0.101961 0.65098 0.596078 
0.101961 0.65098 0.596078 0.101961 0.65098 0.596078 
0.101961 0.65098 0.596078 0.101961 0.65098 0.596078 
0.101961 0.65098 0.596078 0.101961 0.65098 0.596078 
0.101961 0.65098 0.596078 0.101961 0.65098 0.596078 
0.101961 0.65098 0.596078 0.101961 0.65098 0.596078 
0.101961 0.65098 0.596078 0.101961 0.65098 0.596078 
0.101961 0.65098 0.596078 0.101961 0.65098 0.596078 
0.101961 0.65098 0.596078 0.101961 0.65098 0.596078 
0.101961 0.65098 0.596078 0.101961 0.65098 0.596078 
0.101961 0.65098 0.596078 0.101961 0.65098 0.596078 
0.101961 0.65098 0.596078 0.101961 0.65098 0.596078 
0.101961 0.65098 0.596078 0.101961 0.65098 0.596078 
0.101961 0.65098 0.596078 0.101961 0.65098 0.596078 
0.101961 0.65098 0.596078 0.101961 0.65098 0.596078 
0.101961 0.65098 0.596078 0.101961 0.65098 0.596078 
0.101961 0.65098 0.596078 0.101961 0.65098 0.596078 
0.101961 0.65098 0.596078 0.101961 0.65098 0.596078 
0.101961 0.65098 0.596078 0.101961 0.65098 0.596078 
0.101961 0.65098 0.596078 0.101961 0.65098 0.596078 
0.101961 0.65098 0.596078 0.101961 0.65098 0.596078 
0.101961 0.65098 0.596078 0.101961 0.65098 0.596078 
0.101961 0.65098 0.596078 0.101961 0.65098 0.596078 
0.101961 0.65098 0.596078 0.101961 0.65098 0.596078 
0.101961 0.65098 0.596078 0.101961 0.65098 0.596078 
0.101961 0.65098 0.596078 0.101961 0.65098 0.596078 
0.101961 0.65098 0.596078 0.101961 0.65098 0.596078 
0.101961 0.65098 0.596078 0.101961 0.65098 0.596078 
0.101961 0.65098 0.596078 0.101961 0.65098 0.596078 
0.101961 0.65098 0.596078 0.101961 0.65098 0.596078 
0.101961 0.65098 0.596078 0.101961 0.65098 0.596078 
0.101961 0.65098 0.596078 0.101961 0.65098 0.596078 
0.101961 0.65098 0.596078 0.101961 0.65098 0.596078 
0.101961 0.65098 0.596078 0.101961 0.65098 0.596078 
0.101961 0.65098 0.596078 0.101961 0.65098 0.596078 
0.101961 0.65098 0.596078 0.101961 0.65098 0.596078 
0.101961 0.65098 0.596078 0.101961 0.65098 0.596078 
0.101961 0.65098 0.596078 0.101961 0.65098 0.596078 
0.101961 0.65098 0.596078 0.101961 0.65098 0.596078 
0.101961 0.65098 0.596078 0.101961 0.65098 0.596078 
0.101961 0.65098 0.596078 0.101961 0.65098 0.596078 
0.101961 0.65098 0.596078 0.101961 0.65098 0.596078 
0.101961 0.65098 0.596078 0.101961 0.65098 0.596078 
0.101961 0.65098 0.596078 0.101961 0.65098 0.596078 
0.101961 0.65098 0.596078 0.101961 0.65098 0.596078 
0.101961 0.65098 0.596078 0.101961 0.65098 0.596078 
0.101961 0.65098 0.596078 0.101961 0.65098 0.596078 
0.101961 0.65098 0.596078 0.101961 0.65098 0.596078 
0.101961 0.65098 0.596078 0.101961 0.65098 0.596078 
0.101961 0.65098 0.596078 0.101961 0.65098 0.596078 
0.101961 0.65098 0.596078 0.101961 0.65098 0.596078 
0.101961 0.65098 0.596078 0.101961 0.65098 0.596078 
0.101961 0.65098 0.596078 0.101961 0.65098 0.596078 
0.101961 0.65098 0.596078 0.101961 0.65098 0.596078 
0.101961 0.65098 0.596078 0.101961 0.65098 0.596078 
0.101961 0.65098 0.596078 0.101961 0.65098 0.596078 
0.101961 0.65098 0.596078 0.101961 0.65098 0.596078 
0.101961 0.65098 0.596078 0.101961 0.65098 0.596078 
0.101961 0.65098 0.596078 0.101961 0.65098 0.596078 
0.101961 0.65098 0.596078 0.101961 0.65098 0.596078 
0.101961 0.65098 0.596078 0.101961 0.65098 0.596078 
0.101961 0.65098 0.596078 0.101961 0.65098 0.596078 
0.101961 0.65098 0.596078 0.101961 0.65098 0.596078 
0.101961 0.65098 0.596078 0.101961 0.65098 0.596078 
0.101961 0.65098 0.596078 0.101961 0.65098 0.596078 
0.101961 0.65098 0.596078 0.101961 0.65098 0.596078 
0.101961 0.65098 0.596078 0.101961 0.65098 0.596078 
0.101961 0.65098 0.596078 0.101961 0.65098 0.596078 
0.101961 0.65098 0.596078 0.101961 0.65098 0.596078 
0.101961 0.65098 0.596078 0.101961 0.65098 0.596078 
0.101961 0.65098 0.596078 0.101961 0.65098 0.596078 
0.101961 0.65098 0.596078 0.101961 0.65098 0.596078 
0.101961 0.65098 0.596078 0.101961 0.65098 0.596078 
0.101961 0.65098 0.596078 0.101961 0.65098 0.596078 
0.101961 0.65098 0.596078 0.101961 0.65098 0.596078 
0.101961 0.65098 0.596078 0.101961 0.65098 0.596078 
0.101961 0.65098 0.596078 0.101961 0.65098 0.596078 
0.101961 0.65098 0.596078 0.101961 0.65098 0.596078 
0.101961 0.65098 0.596078 0.101961 0.65098 0.596078 