# vtk DataFile Version 4.2
vtk output
ASCII
DATASET POLYDATA
POINTS 5300 float
360 51.0087 163.017 360 51.0087 163.017 360 51.0087 163.017 
360 51.0087 163.017 360 51.0088 163.017 359.504 50.0044 164.017 
359.504 50.0044 164.018 359.504 50.0044 164.017 359.505 50.0044 164.017 
359.505 50.0044 164.017 359.505 50.0044 164.018 359.504 50.0044 164.017 
359.505 50.0044 164.018 360 51.0087 163.017 358.002 49.5109 165.015 
358.002 49.5109 165.015 358.002 49.5109 165.015 358.002 49.5109 165.015 
358.002 49.511 165.015 358.002 49.511 165.015 358.002 49.511 165.015 
359.504 50.0044 164.018 359.505 50.0044 164.018 358.002 49.511 165.015 
357 49.0087 166.017 357 49.0087 166.017 357 49.0087 166.017 
358.002 49.5109 165.015 357 49.0087 166.017 357 49.0088 166.017 
358.002 49.511 165.015 357 49.0087 166.017 353 46.0087 170.017 
353 46.0087 170.017 353 46.0087 170.017 353 46.0087 170.017 
353 46.0088 170.017 352 46.0087 171.017 352 46.0087 171.017 
352 46.0087 171.017 353 46.0087 170.017 352 46.0087 171.017 
352 46.0088 171.017 351 45.0087 172.017 351 45.0087 172.017 
351 45.0087 172.017 351 45.0087 172.017 351 45.0088 172.017 
352 46.0087 171.017 349.749 44.628 173.635 349.749 44.6281 173.635 
349.749 44.6282 173.635 349.749 44.628 173.635 349.749 44.6282 173.635 
349.748 44.6287 173.636 349.749 44.6281 173.635 351 45.0087 172.017 
349.749 44.6286 173.635 349.749 44.6282 173.635 349.748 44.6286 173.636 
349.749 44.6282 173.635 349.748 44.6291 173.636 349.748 44.6291 173.636 
349.747 44.6292 173.636 349.749 44.6284 173.635 349.748 44.629 173.636 
349.748 44.6288 173.636 347.466 44.1267 175.682 347.468 44.1195 175.684 
347.413 44.1053 175.732 347.217 44.0397 175.911 347.446 44.1349 175.694 
347.462 44.1305 175.685 349.749 44.6285 173.635 347.369 44.1345 175.754 
349.748 44.6289 173.636 347.429 44.1339 175.709 349.749 44.6286 173.636 
347.253 44.1226 175.845 347.131 44.0925 175.952 347.285 44.1276 175.822 
347.339 44.13 175.781 347.225 44.1223 175.869 346.931 43.9154 176.182 
346.708 43.7963 176.407 347.412 44.1029 175.735 346.956 43.9189 176.169 
346.647 43.8757 176.41 347.143 44.0169 175.985 347.367 44.1018 175.772 
346.946 44.0242 176.12 346.837 43.9902 176.218 347.244 44.088 175.875 
346.984 44.0353 176.093 346.404 43.6379 176.705 346.222 43.5253 176.898 
346.334 43.5817 176.798 346.548 43.7165 176.576 346.294 43.7081 176.734 
346.055 43.6433 176.935 345.958 43.6103 177.024 346.177 43.6881 176.839 
345.991 43.6401 176.984 346.018 43.4618 177.075 345.957 43.4784 177.103 
346.113 43.4763 177.007 346.215 43.517 176.92 345.908 43.5107 177.124 
345.898 43.5546 177.101 345.865 43.5343 177.142 345.858 43.5447 177.141 
345.88 43.558 177.119 345.968 43.5977 177.037 341.926 42.9483 180.002 
342.008 42.9513 179.945 342.168 42.943 179.837 342.081 42.9427 179.898 
345.973 43.4773 177.105 342.175 42.9453 179.832 346.046 43.4688 177.063 
342.038 42.959 179.923 342.202 42.9508 179.812 341.942 42.9713 179.986 
342.174 42.9593 179.83 341.946 42.9819 179.98 342.025 42.9766 179.928 
341.777 42.9604 180.1 341.561 42.9683 180.245 341.855 42.9513 180.052 
341.797 42.9701 180.085 341.92 42.9578 180.005 341.808 42.973 180.079 
342.051 42.9562 179.916 341.301 43.0229 180.405 341.68 42.9976 180.157 
341.8 42.9905 180.079 341.112 43.0023 180.539 341.479 42.9733 180.302 
339.832 43.1412 181.342 339.738 43.2095 181.392 340.549 43.0952 180.887 
339.637 43.2215 181.458 341.387 43.0157 180.352 339 45.0087 181.017 
339 45.0087 181.017 339 45.0087 181.017 339.069 43.3331 181.803 
339 45.0087 181.017 339 45.0088 181.017 337.614 43.3398 182.716 
338.249 43.261 182.333 339.06 43.1946 181.825 338.756 43.2073 182.019 
340.667 43.0469 180.822 339.116 43.1937 181.796 337.46 43.6412 182.781 
338.597 43.4087 182.086 337.113 43.7901 182.992 336.802 43.9752 183.183 
337.795 43.6635 182.573 339 45.0087 181.017 338.276 43.5227 182.286 
337.787 43.6756 182.582 337.213 43.8624 182.94 337.371 43.8082 182.851 
336.515 43.5162 183.354 335.9 43.5015 183.788 336.792 43.414 183.263 
337.611 43.3344 182.746 335.742 43.8513 183.742 336.728 43.7614 183.206 
337.172 43.6188 182.993 336.887 43.7882 183.186 337.619 43.586 182.702 
337.051 43.8539 183.073 336.068 44.2926 183.662 336.644 44.0581 183.347 
335.034 43.5238 184.401 334.763 43.6949 184.431 335.799 43.4842 184.002 
337.131 43.4105 183.077 337.024 43.522 183.161 336.556 43.9549 183.469 
334.396 45.1082 184.731 333.303 43.5819 185.523 334.968 43.6695 184.804 
333.248 43.7753 185.445 335.518 43.7271 184.381 333.935 44.276 184.854 
333.726 45.3053 185.053 333.222 45.9073 185.409 333.747 45.6789 185.214 
334.413 45.2068 184.946 333.772 45.7329 185.383 332.964 46.2931 185.607 
333.421 46.0904 185.534 332.32 47.1562 186.022 332.298 47.1145 186.046 
332.865 46.4998 185.741 332.358 47.0589 186.024 333.08 46.4023 185.717 
332.314 47.1345 186.063 333.031 43.506 186.128 333.887 43.5266 185.497 
332.804 44.4402 185.594 332.413 46.7493 185.997 332.018 46.8234 186.374 
333.108 46.2833 185.893 332.184 47.154 186.159 332.744 46.6249 185.929 
332.432 46.9007 186.087 332.236 47.16 186.117 331.464 43.5976 187.104 
331.093 43.8109 187.11 332.423 43.586 186.824 330.92 44.0682 187.092 
330.939 46.2442 187.206 331.527 46.4684 186.747 331.246 46.4562 187.117 
330 49.0087 187.017 330 49.0087 187.017 330 49.0087 187.017 
332.179 47.0758 186.212 330 49.0087 187.017 332.248 46.84 186.315 
330 49.0088 187.017 329.676 43.6145 188.391 330.682 43.7037 187.55 
330.528 43.6112 187.933 331.479 43.5832 187.404 331.972 43.8378 187.331 
331.715 45.2403 187.55 330.108 45.4956 187.615 330.073 46.1499 187.826 
331.107 46.2185 187.606 329.156 46.4533 188.476 330.66 46.3457 187.694 
331.464 46.4361 187.145 330 49.0087 187.017 330.084 44.3155 188.779 
331.279 44.3631 187.935 330.463 46.102 188.199 327.936 47.2133 189.461 
328.494 47.096 189.083 328.999 46.8555 188.88 328.524 47.1813 189.191 
328.018 47.4042 189.446 328.335 47.3558 189.236 328.116 47.4685 189.363 
328.208 47.4628 189.319 328.376 43.7192 189.41 327.695 43.8464 189.737 
328.963 43.7867 189.311 327.238 46.3781 189.944 327.694 46.865 189.67 
328.742 46.8353 189.232 327.902 47.2157 189.569 328.118 47.3364 189.491 
328.024 47.371 189.505 328.146 47.4378 189.406 325.472 43.1631 191.125 
325.358 43.0289 191.206 325.25 43.0626 191.264 325.424 43.0578 191.18 
325.017 43.0653 191.388 325.573 43.1992 191.134 325.946 43.4355 190.869 
327.841 43.8041 189.831 326.052 43.4915 190.91 326.854 43.7991 190.4 
327.855 44.0577 189.998 326.952 44.7935 190.657 326.901 45.4675 190.655 
327.61 45.9412 190.151 325.414 46.2907 191.129 326.411 46.1343 190.615 
325.46 46.4531 191.343 327.438 46.4604 190.037 324.863 46.9323 191.562 
327.805 46.9501 189.719 323.872 48.1358 192.028 324.525 47.4388 191.859 
324.829 47.0684 191.744 327.996 47.1887 189.593 324.183 47.8914 191.994 
323.292 50.0438 192.325 323.239 50.2357 192.349 323.271 50.1669 192.381 
323.206 50.3606 192.396 324.712 42.9181 191.591 324.668 42.9177 191.637 
324.645 42.9705 191.628 324.861 42.9638 191.515 324.747 42.9086 191.597 
325.345 43.0427 191.238 324.586 43.1226 191.657 325.184 43.1112 191.379 
324.495 43.4572 191.673 324.034 43.9668 191.886 323.392 44.5174 192.094 
324.961 46.1339 191.947 325.019 46.7766 191.723 324.549 47.2591 192.014 
324.247 47.7927 192.084 323.338 49.143 192.278 323.82 48.4097 192.249 
323.425 49.2646 192.446 322.734 50.3742 192.643 322.827 50.5542 192.638 
322.992 50.5488 192.56 322.927 50.5956 192.582 320.683 43.2218 193.394 
320.411 43.2903 193.47 320.92 43.2324 193.307 321.116 43.2814 193.279 
319.834 43.4009 193.725 319.788 43.5688 193.664 321.204 43.5394 193.109 
321.354 43.3835 193.193 321.547 43.5375 193.06 324.518 43.2751 191.734 
321.656 43.5493 193.116 324.645 43.2734 191.722 320.187 43.97 193.442 
322.166 43.8319 192.873 322.497 44.0143 192.907 324.315 43.6922 191.901 
322.482 44.221 192.575 323.313 44.1515 192.426 324.329 45.0488 192.295 
323.737 45.3315 192.691 323.665 47.6436 192.701 323.478 48.5807 192.642 
322.264 50.4054 193.028 322.047 50.3333 193.2 322.58 50.4528 192.84 
322.335 50.4462 193.051 322.864 50.5397 192.665 322.204 50.4474 193.119 
320.449 43.2729 193.535 320.863 43.2566 193.393 317.272 43.4882 194.624 
316.717 43.4762 194.807 318.055 43.5553 194.373 317.642 43.5164 194.533 
319.114 43.5861 193.968 318.823 43.5201 194.146 319.622 43.4819 193.915 
320.194 43.4011 193.713 320.722 43.3774 193.536 317.744 43.6621 194.522 
317.917 43.9071 194.561 318.623 44.2498 194.382 319.233 44.4594 194.134 
319.402 44.3637 193.945 319.585 44.8161 194.019 319.71 45.4627 194.023 
320.029 45.0794 193.674 319.435 46.1448 194.155 323.227 46.4305 193.072 
320.329 47.576 193.73 320.406 48.4765 193.999 320.965 49.1406 193.808 
321.266 49.5961 193.689 321.454 49.8499 193.568 321.589 50.0174 193.523 
321.71 50.007 193.364 322.445 50.2527 193.076 321.892 50.2037 193.37 
322.172 50.3694 193.191 313.253 43.3297 195.82 312.73 43.3529 196.001 
312.791 43.4154 195.984 313.927 43.3491 195.622 313.656 43.3466 195.716 
314.659 43.4097 195.431 316.058 43.5559 195.02 315.812 43.4917 195.111 
317.58 43.6322 194.598 317.108 43.699 194.771 318.301 43.7204 194.412 
313.937 43.4119 195.648 314.594 43.5232 195.476 315.012 43.849 195.476 
317.318 44.0176 194.769 317.231 43.9334 194.876 318.024 43.9755 194.618 
318.927 44.0839 194.319 318.171 44.2555 194.661 315.547 44.1583 195.314 
317.895 44.4773 194.679 319.336 44.519 194.19 318.146 44.6219 194.732 
321.242 44.3523 193.685 318.353 45.1662 194.702 318.165 45.113 194.917 
318.62 45.5189 194.79 319.809 45.1384 194.151 318.566 45.7152 194.556 
319.281 45.7171 194.442 317.908 47.6258 195.165 319.369 47.8298 194.594 
318.478 47.8298 195.065 320.656 48.5672 194.093 317.82 47.9391 195.356 
318.01 47.9484 195.319 321.448 49.8118 193.641 321.669 50.0252 193.534 
310.495 43.4417 196.667 310.043 43.4155 196.846 311.191 43.485 196.472 
310.83 43.3989 196.607 312.123 43.4695 196.203 311.784 43.4213 196.361 
313.784 43.4139 195.708 313.248 43.57 195.954 314.48 43.4821 195.514 
[...]
POINT_DATA 5300
COLOR_SCALARS scalars 3
0.101961 0.65098 0.596078 0.101961 0.65098 0.596078 0.101961 0.65098 0.596078 
0.101961 0.65098 0.596078 0.101961 0.65098 0.596078 
0.101961 0.65098 0.596078 0.101961 0.65098 0.596078 
0.101961 0.65098 0.596078 0.101961 0.65098 0.596078 
0.101961 0.65098 0.596078 0.101961 0.65098 0.596078 
0.101961 0.65098 0.596078 0.101961 0.65098 0.596078 
0.101961 0.65098 0.596078 0.101961 0.65098 0.596078 
0.101961 0.65098 0.596078 0.101961 0.65098 0.596078 
0.101961 0.65098 0.596078 0.101961 0.65098 0.596078 
0.101961 0.65098 0.596078 0.101961 0.65098 0.596078 
0.101961 0.65098 0.596078 0.101961 0.65098 0.596078 
0.101961 0.65098 0.596078 0.101961 0.65098 0.596078 
0.101961 0.65098 0.596078 0.101961 0.65098 0.596078 
0.101961 0.65098 0.596078 0.101961 0.65098 0.596078 
0.101961 0.65098 0.596078 0.101961 0.65098 0.596078 
0.101961 0.65098 0.596078 0.101961 0.65098 0.596078 
0.101961 0.65098 0.596078 0.101961 0.65098 0.596078 
0.101961 0.65098 0.596078 0.101961 0.65098 0.596078 
0.101961 0.65098 0.596078 0.101961 0.65098 0.596078 
0.101961 0.65098 0.596078 0.101961 0.65098 0.596078 
0.101961 0.65098 0.596078 0.101961 0.65098 0.596078 
0.101961 0.65098 0.596078 0.101961 0.65098 0.596078 
0.101961 0.65098 0.596078 0.101961 0.65098 0.596078 
0.101961 0.65098 0.596078 0.101961 0.65098 0.596078 
0.101961 0.65098 0.596078 0.101961 0.65098 0.596078 
0.101961 0.65098 0.596078 0.101961 0.65098 0.596078 
0.101961 0.65098 0.596078 0.101961 0.65098 0.596078 
0.101961 0.65098 0.596078 0.101961 0.65098 0.596078 
0.101961 0.65098 0.596078 0.101961 0.65098 0.596078 
0.101961 0.65098 0.596078 0.101961 0.65098 0.596078 
0.101961 0.65098 0.596078 0.101961 0.65098 0.596078 
0.101961 0.65098 0.596078 0.101961 0.65098 0.596078 
0.101961 0.65098 0.596078 0.101961 0.65098 0.596078 
0.101961 0.65098 0.596078 0.101961 0.65098 0.596078 
0.101961 0.65098 0.596078 0.101961 0.65098 0.596078 
0.101961 0.65098 0.596078 0.101961 0.65098 0.596078 
0.101961 0.65098 0.596078 0.101961 0.65098 0.596078 
0.101961 0.65098 0.596078 0.101961 0.65098 0.596078 
0.101961 0.65098 0.596078 0.101961 0.65098 0.596078 
0.101961 0.65098 0.596078 0.101961 0.65098 0.596078 
0.101961 0.65098 0.596078 0.101961 0.65098 0.596078 
0.101961 0.65098 0.596078 0.101961 0.65098 0.596078 
0.101961 0.65098 0.596078 0.101961 0.65098 0.596078 
0.101961 0.65098 0.596078 0.101961 0.65098 0.596078 
0.101961 0.65098 0.596078 0.101961 0.65098 0.596078 
0.101961 0.65098 0.596078 0.101961 0.65098 0.596078 
0.101961 0.65098 0.596078 0.101961 0.65098 0.596078 
0.101961 0.65098 0.596078 0.101961 0.65098 0.596078 
0.101961 0.65098 0.596078 0.101961 0.65098 0.596078 
0.101961 0.65098 0.596078 0.101961 0.65098 0.596078 
0.101961 0.65098 0.596078 0.101961 0.65098 0.596078 
0.101961 0.65098 0.596078 0.101961 0.65098 0.596078 
0.101961 0.65098 0.596078 0.101961 0.65098 0.596078 
0.101961 0.65098 0.596078 0.101961 0.65098 0.596078 
0.101961 0.65098 0.596078 0.101961 0.65098 0.596078 
0.101961 0.65098 0.596078 0.101961 0.65098 0.596078 
0.101961 0.65098 0.596078 0.101961 0.65098 0.596078 
0.101961 0.65098 0.596078 0.101961 0.65098 0.596078 
0.101961 0.65098 0.596078 0.101961 0.65098 0.596078 
0.101961 0.65098 0.596078 0.101961 0.65098 0.596078 
0.101961 0.65098 0.596078 0.101961 0.65098 0.596078 
0.101961 0.65098 0.596078 0.101961 0.65098 0.596078 
0.101961 0.65098 0.596078 0.101961 0.65098 0.596078 
0.101961 0.65098 0.596078 0.101961 0.65098 0.596078 
0.101961 0.65098 0.596078 0.101961 0.65098 0.596078 
0.101961 0.65098 0.596078 0.101961 0.65098 0.596078 
0.101961 0.65098 0.596078 0.101961 0.65098 0.596078 
0.101961 0.65098 0.596078 0.101961 0.65098 0.596078 
0.101961 0.65098 0.596078 0.101961 0.65098 0.596078 
0.101961 0.65098 0.596078 0.101961 0.65098 0.596078 
0.101961 0.65098 0.596078 0.101961 0.65098 0.596078 
0.101961 0.65098 0.596078 0.101961 0.65098 0.596078 
0.101961 0.65098 0.596078 0.101961 0.65098 0.596078 
0.101961 0.65098 0.596078 0.101961 0.65098 0.596078 
0.101961 0.65098 0.596078 0.101961 0.65098 0.596078 
0.101961 0.65098 0.596078 0.101961 0.65098 0.596078 
0.101961 0.65098 0.596078 0.101961 0.65098 0.596078 
0.101961 0.65098 0.596078 0.101961 0.65098 0.596078 
0.101961 0.65098 0.596078 0.101961 0.65098 0.596078 
0.101961 0.65098 0.596078 0.101961 0.65098 0.596078 
0.101961 0.65098 0.596078 0.101961 0.65098 0.596078 
0.101961 0.65098 0.596078 0.101961 0.65098 0.596078 
0.101961 0.65098 0.596078 0.101961 0.65098 0.596078 
0.101961 0.65098 0.596078 0.101961 0.65098 0.596078 
0.101961 0.65098 0.596078 0.101961 0.65098 0.596078 
0.101961 0.65098 0.596078 0.101961 0.65098 0.596078 
0.101961 0.65098 0.596078 0.101961 0.65098 0.596078 
0.101961 0.65098 0.596078 0.101961 0.65098 0.596078 
0.101961 0.65098 0.596078 0.101961 0.65098 0.596078 
0.101961 0.65098 0.596078 0.101961 0.65098 0.596078 
0.101961 0.65098 0.596078 0.101961 0.65098 0.596078 
0.101961 0.65098 0.596078 0.101961 0.65098 0.596078 
0.101961 0.65098 0.596078 0.101961 0.65098 0.596078 
0.101961 0.65098 0.596078 0.101961 0.65098 0.596078 
0.101961 0.65098 0.596078 0.101961 0.65098 0.596078 
0.101961 0.65098 0.596078 0.101961 0.65098 0.596078 
0.101961 0.65098 0.596078 0.101961 0.65098 0.596078 
0.101961 0.65098 0.596078 0.101961 0.65098 0.596078 
0.101961 0.65098 0.596078 0.101961 0.65098 0.596078 
0.101961 0.65098 0.596078 0.101961 0.65098 0.596078 
0.101961 0.65098 0.596078 0.101961 0.65098 0.596078 
0.101961 0.65098 0.596078 0.101961 0.65098 0.596078 
0.101961 0.65098 0.596078 0.101961 0.65098 0.596078 
0.101961 0.65098 0.596078 0.101961 0.65098 0.596078 
0.101961 0.65098 0.596078 0.101961 0.65098 0.596078 
0.101961 0.65098 0.596078 0.101961 0.65098 0.596078 
0.101961 0.65098 0.596078 0.101961 0.65098 0.596078 
0.101961 0.65098 0.596078 0.101961 0.65098 0.596078 
0.101961 0.65098 0.596078 0.101961 0.65098 0.596078 
0.101961 0.65098 0.596078 0.101961 0.65098 0.596078 
0.101961 0.65098 0.596078 0.101961 0.65098 0.596078 
0.101961 0.65098 0.596078 0.101961 0.65098 0.596078 
0.101961 0.65098 0.596078 0.101961 0.65098 0.596078 
0.101961 0.65098 0.596078 0.101961 0.65098 0.596078 
0.101961 0.65098 0.596078 0.101961 0.65098 0.596078 
0.101961 0.65098 0.596078 0.101961 0.65098 0.596078 
0.101961 0.65098 0.596078 0.101961 0.65098 0.596078 
0.101961 0.65098 0.596078 0.101961 0.65098 0.596078 
0.101961 0.65098 0.596078 0.101961 0.65098 0.596078 
0.101961 0.65098 0.596078 0.101961 0.65098 0.596078 
0.101961 0.65098 0.596078 0.101961 0.65098 0.596078 
0.101961 0.65098 0.596078 0.101961 0.65098 0.596078 
0.101961 0.65098 0.596078 0.101961 0.65098 0.596078 
0.101961 0.65098 0.596078 0.101961 0.65098 0.596078 
0.101961 0.65098 0.596078 0.101961 0.65098 0.596078 
0.101961 0.65098 0.596078 0.101961 0.65098 0.596078 
0.101961 0.65098 0.596078 0.101961 0.65098 0.596078 
0.101961 0.65098 0.596078 0.101961 0.65098 0.596078 
0.101961 0.65098 0.596078 0.101961 0.65098 0.596078 
0.101961 0.65098 0.596078 0.101961 0.65098 0.596078 
0.101961 0.65098 0.596078 0.101961 0.65098 0.596078 
0.101961 0.65098 0.596078 0.101961 0.65098 0.596078 
0.101961 0.65098 0.596078 0.101961 0.65098 0.596078 
0.101961 0.65098 0.596078 0.101961 0.65098 0.596078 
0.101961 0.65098 0.596078 0.101961 0.65098 0.596078 
0.101961 0.65098 0.596078 0.101961 0.65098 0.596078 
0.101961 0.65098 0.596078 0.101961 0.65098 0.596078 
0.101961 0.65098 0.596078 0.101961 0.65098 0.596078 
0.101961 0.65098 0.596078 0.101961 0.65098 0.596078 
0.101961 0.65098 0.596078 0.101961 0.65098 0.596078 
0.101961 0.65098 0.596078 0.101961 0.65098 0.596078 
0.101961 0.65098 0.596078 0.101961 0.65098 0.596078 
0.101961 0.65098 0.596078 0.101961 0.65098 0.596078 
0.101961 0.65098 0.596078 0.101961 0.65098 0.596078 
0.101961 0.65098 0.596078 0.101961 0.65098 0.596078 
0.101961 0.65098 0.596078 0.101961 0.65098 0.596078 
0.101961 0.65098 0.596078 0.101961 0.65098 0.596078 
0.101961 0.65098 0.596078 0.101961 0.65098 0.596078 
0.101961 0.65098 0.596078 0.101961 0.65098 0.596078 
0.101961 0.65098 0.596078 0.101961 0.65098 0.596078 
0.101961 0.65098 0.596078 0.101961 0.65098 0.596078 
0.101961 0.65098 0.596078 0.101961 0.65098 0.596078 
0.101961 0.65098 0.596078 0.101961 0.65098 0.596078 
0.101961 0.65098 0.596078 0.101961 0.65098 0.596078 
0.101961 0.65098 0.596078 0.101961 0.65098 0.596078 
0.101961 0.65098 0.596078 0.101961 0.65098 0.596078 
0.101961 0.65098 0.596078 0.101961 0.65098 0.596078 
0.101961 0.65098 0.596078 0.101961 0.65098 0.596078 
0.101961 0.65098 0.596078 0.101961 0.65098 0.596078 
0.101961 0.65098 0.596078 0.101961 0.65098 0.596078 
0.101961 0.65098 0.596078 0.101961 0.65098 0.596078 
0.101961 0.65098 0.596078 0.101961 0.65098 0.596078 
0.101961 0.65098 0.596078 0.101961 0.65098 0.596078 
0.101961 0.65098 0.596078 0.101961 0.65098 0.596078 
0.101961 0.65098 0.596078 0.101961 0.65098 0.596078 
0.101961 0.65098 0.596078 0.101961 0.65098 0.596078 
0.101961 0.65098 0.596078 0.101961 0.65098 0.596078 
0.101961 0.65098 0.596078 0.101961 0.65098 0.596078 
0.101961 0.65098 0.596078 0.101961 0.65098 0.596078 
0.101961 0.65098 0.596078 0.101961 0.65098 0.596078 
0.101961 0.65098 0.596078 0.101961 0.65098 0.596078 
0.101961 0.65098 0.596078 0.101961 0.65098 0.596078 
0.101961 0.65098 0.596078 0.101961 0.65098 0.596078 
0.101961 0.65098 0.596078 0.101961 0.65098 0.596078 
0.101961 0.65098 0.596078 0.101961 0.65098 0.596078 
0.101961 0.65098 0.596078 0.101961 0.65098 0.596078 
0.101961 0.65098 0.596078 0.101961 0.65098 0.596078 
0.101961 0.65098 0.596078 0.101961 0.65098 0.596078 
0.101961 0.65098 0.596078 0.101961 0.65098 0.596078 
0.101961 0.65098 0.596078 0.101961 0.65098 0.596078 
0.101961 0.65098 0.596078 0.101961 0.65098 0.596078 
0.101961 0.65098 0.596078 0.101961 0.65098 0.596078 
0.101961 0.65098 0.596078 0.101961 0.65098 0.596078 
0.101961 0.65098 0.596078 0.101961 0.65098 0.596078 
0.101961 0.65098 0.596078 0.101961 0.65098 0.596078 
0.101961 0.65098 0.596078 0.101961 0.65098 0.596078 
0.101961 0.65098 0.596078 0.101961 0.65098 0.596078 
0.101961 0.65098 0.596078 0.101961 0.65098 0.596078 
0.101961 0.65098 0.596078 0.101961 0.65098 0.596078 
0.101961 0.65098 0.596078 0.101961 0.65098 0.596078 
0.101961 0.65098 0.596078 0.101961 0.65098 0.596078 
0.101961 0.65098 0.596078 0.101961 0.65098 0.596078 
0.101961 0.65098 0.596078 0.101961 0.65098 0.596078 
0.101961 0.65098 0.596078 0.101961 0.65098 0.596078 
0.101961 0.65098 0.596078 0.101961 0.65098 0.596078 
0.101961 0.65098 0.596078 0.101961 0.65098 0.596078 
0.101961 0.65098 0.596078 0.101961 0.65098 0.596078 
0.101961 0.65098 0.596078 0.101961 0.65098 0.596078 
0.101961 0.65098 0.596078 0.101961 0.65098 0.596078 
0.101961 0.65098 0.596078 0.101961 0.65098 0.596078 
0.101961 0.65098 0.596078 0.101961 0.65098 0.596078 
0.101961 0.65098 0.596078 0.101961 0.65098 0.596078 
0.101961 0.65098 0.596078 0.101961 0.65098 0.596078 
0.101961 0.65098 0.596078 0.101961 0.65098 0.596078 
0.101961 0.65098 0.596078 0.101961 0.65098 0.596078 
0.101961 0.65098 0.596078 0.101961 0.65098 0.596078 
0.101961 0.65098 0.596078 0.101961 0.65098 0.596078 
0.101961 0.65098 0.596078 0.101961 0.65098 0.596078 
0.101961 0.65098 0.596078 0.101961 0.65098 0.596078 
0.101961 0.65098 0.596078 0.101961 0.65098 0.596078 
0.101961 0.65098 0.596078 0.101961 0.65098 0.596078 
0.101961 0.65098 0.596078 0.101961 0.65098 0.596078 
0.101961 0.65098 0.596078 0.101961 0.65098 0.596078 
0.101961 0.65098 0.596078 0.101961 0.65098 0.596078 
0.101961 0.65098 0.596078 0.101961 0.65098 0.596078 
0.101961 0.65098 0.596078 0.101961 0.65098 0.596078 
0.101961 0.65098 0.596078 0.101961 0.65098 0.596078 
0.101961 0.65098 0.596078 0.101961 0.65098 0.596078 
0.101961 0.65098 0.596078 0.101961 0.65098 0.596078 
0.101961 0.65098 0.596078 0.101961 0.65098 0.596078 
0.101961 0.65098 0.596078 0.101961 0.65098 0.596078 
0.101961 0.65098 0.596078 0.101961 0.65098 0.596078 
0.101961 0.65098 0.596078 0.101961 0.65098 0.596078 
0.101961 0.65098 0.596078 0.101961 0.65098 0.596078 
0.101961 0.65098 0.596078 0.101961 0.65098 0.596078 
0.101961 0.65098 0.596078 0.101961 0.65098 0.596078 
0.101961 0.65098 0.596078 0.101961 0.65098 0.596078 
0.101961 0.65098 0.596078 0.101961 0.65098 0.596078 
0.101961 0.65098 0.596078 0.101961 0.65098 0.596078 
0.101961 0.65098 0.596078 0.101961 0.65098 0.596078 
0.101961 0.65098 0.596078 0.101961 0.65098 0.596078 
0.101961 0.65098 0.596078 0.101961 0.65098 0.596078 
0.101961 0.65098 0.596078 0.101961 0.65098 0.596078 
0.101961 0.65098 0.596078 0.101961 0.65098 0.596078 
0.101961 0.65098 0.596078 0.101961 0.65098 0.596078 
0.101961 0.65098 0.596078 0.101961 0.65098 0.596078 
0.101961 0.65098 0.596078 0.101961 0.65098 0.596078 
0.101961 0.65098 0.596078 0.101961 0.65098 0.596078 
0.101961 0.65098 0.596078 0.101961 0.65098 0.596078 
0.101961 0.65098 0.596078 0.101961 0.65098 0.596078 
0.101961 0.65098 0.596078 0.101961 0.65098 0.596078 
0.101961 0.65098 0.596078 0.101961 0.65098 0.596078 
0.101961 0.65098 0.596078 0.101961 0.65098 0.596078 
0.101961 0.65098 0.596078 0.101961 0.65098 0.596078 
0.101961 0.65098 0.596078 0.101961 0.65098 0.596078 
0.101961 0.65098 0.596078 0.101961 0.65098 0.596078 
0.101961 0.65098 0.596078 0.101961 0.65098 0.596078 
0.101961 0.65098 0.596078 0.101961 0.65098 0.596078 
0.101961 0.65098 0.596078 0.101961 0.65098 0.596078 
0.101961 0.65098 0.596078 0.101961 0.65098 0.596078 
0.101961 0.65098 0.596078 0.101961 0.65098 0.596078 
0.101961 0.65098 0.596078 0.101961 0.65098 0.596078 
0.101961 0.65098 0.596078 0.101961 0.65098 0.596078 
0.101961 0.65098 0.596078 0.101961 0.65098 0.596078 
0.101961 0.65098 0.596078 0.101961 0.65098 0.596078 
0.101961 0.65098 0.596078 0.101961 0.65098 0.596078 
0.101961 0.65098 0.596078 0.101961 0.65098 0.596078 
0.101961 0.65098 0.596078 0.101961 0.65098 0.596078 
0.101961 0.65098 0.596078 0.101961 0.65098 0.596078 
0.101961 0.65098 0.596078 0.101961 0.65098 0.596078 
0.101961 0.65098 0.596078 0.101961 0.65098 0.596078 
0.101961 0.65098 0.596078 0.101961 0.65098 0.596078 
0.101961 0.65098 0.596078 0.101961 0.65098 0.596078 
0.101961 0.65098 0.596078 0.101961 0.65098 0.596078 
0.101961 0.65098 0.596078 0.101961 0.65098 0.596078 
0.101961 0.65098 0.596078 0.101961 0.65098 0.596078 
0.101961 0.65098 0.596078 0.101961 0.65098 0.596078 
0.101961 0.65098 0.596078 0.101961 0.65098 0.596078 
0.101961 0.65098 0.596078 0.101961 0.65098 0.596078 
0.101961 0.65098 0.596078 0.101961 0.65098 0.596078 
0.101961 0.65098 0.596078 0.101961 0.65098 0.596078 
0.101961 0.65098 0.596078 0.101961 0.65098 0.596078 
0.101961 0.65098 0.596078 0.101961 0.65098 0.596078 
0.101961 0.65098 0.596078 0.101961 0.65098 0.596078 
0.101961 0.65098 0.596078 0.101961 0.65098 0.596078 
0.101961 0.65098 0.596078 0.101961 0.65098 0.596078 
0.101961 0.65098 0.596078 0.101961 0.65098 0.596078 
0.101961 0.65098 0.596078 0.101961 0.65098 0.596078 
0.101961 0.65098 0.596078 0.101961 0.65098 0.596078 
0.101961 0.65098 0.596078 0.101961 0.65098 0.596078 
0.101961 0.65098 0.596078 0.101961 0.65098 0.596078 
0.101961 0.65098 0.596078 0.101961 0.65098 0.596078 
0.101961 0.65098 0.596078 0.101961 0.65098 0.596078 
0.101961 0.65098 0.596078 0.101961 0.65098 0.596078 
0.101961 0.65098 0.596078 0.101961 0.65098 0.596078 
0.101961 0.65098 0.596078 0.101961 0.65098 0.596078 
0.101961 0.65098 0.596078 0.101961 0.65098 0.596078 
0.101961 0.65098 0.596078 0.101961 0.65098 0.596078 
0.101961 0.65098 0.596078 0.101961 0.65098 0.596078 
0.101961 0.65098 0.596078 0.101961 0.65098 0.596078 
0.101961 0.65098 0.596078 0.101961 0.65098 0.596078 
0.101961 0.65098 0.596078 0.101961 0.65098 0.596078 
0.101961 0.65098 0.596078 0.101961 0.65098 0.596078 
0.101961 0.65098 0.596078 0.101961 0.65098 0.596078 
0.101961 0.65098 0.596078 0.101961 0.65098 0.596078 
0.101961 0.65098 0.596078 0.101961 0.65098 0.596078 
0.101961 0.65098 0.596078 0.101961 0.65098 0.596078 
0.101961 0.65098 0.596078 0.101961 0.65098 0.596078 
0.101961 0.65098 0.596078 0.101961 0.65098 0.596078 
0.101961 0.65098 0.596078 0.101961 0.65098 0.596078 
0.101961 0.65098 0.596078 0.101961 0.65098 0.596078 
0.101961 0.65098 0.596078 0.101961 0.65098 0.596078 
0.101961 0.65098 0.596078 0.101961 0.65098 0.596078 
0.101961 0.65098 0.596078 0.101961 0.65098 0.596078 
0.101961 0.65098 0.596078 0.101961 0.65098 0.596078 
0.101961 0.65098 0.596078 0.101961 0.65098 0.596078 
0.101961 0.65098 0.596078 0.101961 0.65098 0.596078 
0.101961 0.65098 0.596078 0.101961 0.65098 0.596078 
0.101961 0.65098 0.596078 0.101961 0.65098 0.596078 
0.101961 0.65098 0.596078 0.101961 0.65098 0.596078 
0.101961 0.65098 0.596078 0.101961 0.65098 0.596078 
0.101961 0.65098 0.596078 0.101961 0.65098 0.596078 
0.101961 0.65098 0.596078 0.101961 0.65098 0.596078 
0.101961 0.65098 0.596078 0.101961 0.65098 0.596078 
0.101961 0.65098 0.596078 0.101961 0.65098 0.596078 
0.101961 0.65098 0.596078 0.101961 0.65098 0.596078 
0.101961 0.65098 0.596078 0.101961 0.65098 0.596078 
0.101961 0.65098 0.596078 0.101961 0.65098 0.596078 
0.101961 0.65098 0.596078 0.101961 0.65098 0.596078 
0.101961 0.65098 0.596078 0.101961 0.65098 0.596078 
0.101961 0.65098 0.596078 0.101961 0.65098 0.596078 
0.101961 0.65098 0.596078 0.101961 0.65098 0.596078 
0.101961 0.65098 0.596078 0.101961 0.65098 0.596078 
0.101961 0.65098 0.596078 0.101961 0.65098 0.596078 
0.101961 0.65098 0.596078 0.101961 0.65098 0.596078 
0.101961 0.65098 0.596078 0.101961 0.65098 0.596078 
0.101961 0.65098 0.596078 0.101961 0.65098 0.596078 
0.101961 0.65098 0.596078 0.101961 0.65098 0.596078 
0.101961 0.65098 0.596078 0.101961 0.65098 0.596078 
0.101961 0.65098 0.596078 0.101961 0.65098 0.596078 
0.101961 0.65098 0.596078 0.101961 0.65098 0.596078 
0.101961 0.65098 0.596078 0.101961 0.65098 0.596078 
0.101961 0.65098 0.596078 0.101961 0.65098 0.596078 
0.101961 0.65098 0.596078 0.101961 0.65098 0.596078 
0.101961 0.65098 0.596078 0.101961 0.65098 0.596078 
0.101961 0.65098 0.596078 0.101961 0.65098 0.596078 
0.101961 0.65098 0.596078 0.101961 0.65098 0.596078 
0.101961 0.65098 0.596078 0.101961 0.65098 0.596078 
0.101961 0.65098 0.596078 0.101961 0.65098 0.596078 
0.101961 0.65098 0.596078 0.101961 0.65098 0.596078 
0.101961 0.65098 0.596078 0.101961 0.65098 0.596078 
0.101961 0.65098 0.596078 0.101961 0.65098 0.596078 
0.101961 0.65098 0.596078 0.101961 0.65098 0.596078 
0.101961 0.65098 0.596078 0.101961 0.65098 0.596078 
0.101961 0.65098 0.596078 0.101961 0.65098 0.596078 
0.101961 0.65098 0.596078 0.101961 0.65098 0.596078 
0.101961 0.65098 0.596078 0.101961 0.65098 0.596078 
0.101961 0.65098 0.596078 0.101961 0.65098 0.596078 
0.101961 0.65098 0.596078 0.101961 0.65098 0.596078 
0.101961 0.65098 0.596078 0.101961 0.65098 0.596078 
0.101961 0.65098 0.596078 0.101961 0.65098 0.596078 
0.101961 0.65098 0.596078 0.101961 0.65098 0.596078 
0.101961 0.65098 0.596078 0.101961 0.65098 0.596078 
0.101961 0.65098 0.596078 0.101961 0.65098 0.596078 
0.101961 0.65098 0.596078 0.101961 0.65098 0.596078 
0.101961 0.65098 0.596078 0.101961 0.65098 0.596078 
0.101961 0.65098 0.596078 0.101961 0.65098 0.596078 
0.101961 0.65098 0.596078 0.101961 0.65098 0.596078 
0.101961 0.65098 0.596078 0.101961 0.65098 0.596078 
0.101961 0.65098 0.596078 0.101961 0.65098 0.596078 
0.101961 0.65098 0.596078 0.101961 0.65098 0.596078 
0.101961 0.65098 0.596078 0.101961 0.65098 0.596078 
0.101961 0.65098 0.596078 0.101961 0.65098 0.596078 
0.101961 0.65098 0.596078 0.101961 0.65098 0.596078 
0.101961 0.65098 0.596078 0.101961 0.65098 0.596078 
0.101961 0.65098 0.596078 0.101961 0.65098 0.596078 
0.101961 0.65098 0.596078 0.101961 0.65098 0.596078 
0.101961 0.65098 0.596078 0.101961 0.65098 0.596078 
0.101961 0.65098 0.596078 0.101961 0.65098 0.596078 
0.101961 0.65098 0.596078 0.101961 0.65098 0.596078 
0.101961 0.65098 0.596078 0.101961 0.65098 0.596078 
0.101961 0.65098 0.596078 0.101961 0.65098 0.596078 
0.101961 0.65098 0.596078 0.101961 0.65098 0.596078 
0.101961 0.65098 0.596078 0.101961 0.65098 0.596078 
0.101961 0.65098 0.596078 0.101961 0.65098 0.596078 
0.101961 0.65098 0.596078 0.101961 0.65098 0.596078 