# vtk DataFile Version 4.2
vtk output
ASCII
DATASET POLYDATA
POINTS 424 float
388.408 141.106 144.319 388.038 140.768 144.482 387.941 141.167 144.228 
388.762 140.884 144.517 388.869 140.61 144.743 387.846 142.399 143.957 
388.402 142.111 144.149 388.815 141.811 144.391 389.083 141.464 144.699 
387.173 143.414 143.774 385.392 144.201 143.707 387.482 143.774 143.917 
388.679 143.165 144.477 389.071 142.723 144.785 385.647 144.558 143.687 
386.745 144.538 143.828 386.053 145.317 143.869 387.779 145.13 144.533 
386.69 145.95 144.359 388.727 140.377 144.806 388.646 140.201 145.032 
388.521 140.308 144.816 388.881 140.365 145.017 386.041 142.488 143.92 
383.993 143.422 144.276 382.238 144.885 144.473 388.621 144.416 144.861 
386.218 146.621 144.549 387.637 145.88 144.903 381.344 147.913 144.491 
386.618 147.012 144.991 382.354 148.286 144.428 382.659 148.622 144.555 
388.369 140.179 145.023 388.762 140.185 145.29 383.736 141.353 145.892 
384.895 141.463 144.947 389.355 141.24 145.563 383.092 142.091 145.506 
384.339 142.089 144.743 381.447 143.621 145.368 389.499 143.003 145.886 
379.522 145.094 145.547 389.168 144 145.472 387.446 146.625 145.451 
382.768 149.235 144.902 384.359 149.367 145.458 378.586 150.419 145.314 
380.01 151.18 145.558 387.225 139.935 145.865 385.177 140.65 145.717 
373.174 152.609 146.506 381.177 152.511 146.737 376.148 153.894 146.71 
387.252 139.631 147.202 388.654 140.103 146.34 388.969 140.47 146.589 
389.45 141.545 146.787 381.282 142.198 146.913 389.378 144.02 147.363 
374.793 147.054 147.467 373.48 147.843 147.981 386.928 148.32 147.358 
371.767 150.72 147.585 372.396 152.033 146.923 382.034 152.612 147.415 
370.969 153.871 147.744 378.918 154.143 147.471 370.729 155.075 147.988 
370.925 155.473 148.058 386.589 139.622 148.035 384.181 140.262 148.032 
389.248 141.169 147.277 375.356 145.746 148.25 371.407 149.901 148.516 
369.751 152.794 148.898 369.408 155.695 149.113 378.144 155.314 148.524 
369.716 155.998 148.945 370.514 156.643 148.912 387.468 139.692 148.029 
388.489 140.201 147.772 384.695 140.029 149.035 389.265 141.851 148.123 
380.492 142.082 148.49 389.243 142.606 148.659 377.346 143.758 149.285 
374.79 145.651 149.423 372.327 148.172 149.252 370.742 150.5 149.023 
386.793 148.691 149.184 369.636 152.222 149.473 369.479 152.796 149.384 
382.66 152.81 148.73 368.995 154.346 149.625 368.705 154.757 149.927 
375.119 156.821 149.008 368.982 157.311 150.126 370.866 157.337 149.336 
385.766 139.814 149.384 387.779 140.101 148.904 388.637 140.934 148.722 
376.272 144.322 150.372 373.367 146.743 150.299 387.249 147.742 150.227 
368.897 153.721 150.233 383.211 152.557 149.781 368.288 156.778 150.642 
368.58 157.67 150.718 369.244 158.582 151.024 370.469 158.833 150.866 
384.162 140.414 150.207 385.551 140.208 150.249 387.78 140.834 150.067 
381.623 141.334 150.421 369.102 152.872 150.697 367.997 156.273 151.18 
367.898 156.233 151.643 375.498 157.667 150.511 368.809 159.104 152.106 
371.999 159.395 151.802 376.693 144.092 152.266 370.109 150.85 151.79 
382.949 152.704 151.988 367.824 156.727 151.922 377.551 157.067 151.84 
367.9 157.689 152.364 368.356 158.679 152.251 370.338 159.763 152.718 
374.355 146.15 153.231 386.559 146.372 152.694 368.243 155.12 153.018 
368.027 155.686 152.698 368.665 159.234 153.234 368.979 159.569 153.225 
370.318 159.971 153.318 369.238 159.78 153.544 369.632 159.934 153.508 
383.626 141.69 152.543 381.031 142.361 152.93 378.736 143.413 153.63 
385.767 143.667 153.284 385.866 144.496 153.416 372.028 148.893 154.05 
385.227 148.698 153.567 367.818 156.724 152.987 367.901 156.845 153.386 
367.969 157.803 153.429 369.045 159.531 154.091 369.204 159.738 153.902 
369.539 159.896 153.922 385.195 142.676 153.161 373.386 147.918 155.074 
368.979 154.526 154.602 368.463 158.815 154.128 371.265 159.92 155.163 
383.122 150.499 155.343 373.948 159.526 155.363 372.518 159.796 155.637 
382.366 149.116 156.604 370.318 159.249 156.262 370.967 159.49 156.305 
372.411 159.65 156.35 377.898 146.224 157.075 380.105 146.186 157.061 
380.693 146.338 157.034 381.163 147.376 157.291 379.329 155.326 157.783 
369.763 158.205 156.617 370.722 158.908 157.06 371.522 159.292 156.948 
374.582 149.863 158.411 371.315 153.982 157.933 379.416 154.799 158.374 
379.139 155.296 158.415 371.586 158.346 157.989 376.563 148.873 158.657 
378.769 149.203 158.946 379.162 150.292 159.178 379.349 153.875 159.126 
379.134 153.519 159.486 372.261 154.788 159.252 378.518 155.501 159.333 
377.666 156.372 159.462 372.594 158.138 158.869 375.408 158.342 158.618 
373.629 158.523 158.768 376.913 149.737 159.22 379.005 152.772 159.618 
373.743 154.634 160.274 378.424 154.804 159.976 378.241 154.517 160.251 
372.477 157.092 159.35 376.029 157.344 159.933 373.278 157.653 159.492 
373.986 157.723 159.648 374.178 158.186 159.232 377.087 152.411 160.587 
378.192 153.438 160.373 375.136 153.759 160.673 377.779 154.444 160.555 
377.493 155.163 160.55 374.418 156.322 160.577 376.972 156.125 160.539 
376.674 156.178 160.666 374.516 156.671 160.469 374.443 157.172 160.123 
375.684 156.768 160.502 375.769 157.195 160.17 377.453 153.446 160.737 
376.358 155.362 160.956 374.866 156.374 160.687 377.339 153.791 294.199 
377.148 153.504 294.176 377.658 153.912 294.401 375.68 155.177 294.065 
376.759 155.137 294.138 377.19 154.837 294.246 375.317 155.434 294.166 
375.203 155.916 294.276 376.113 155.673 294.117 376.522 155.709 294.226 
375.541 156.131 294.258 377.364 155.647 294.584 376.002 156.553 294.502 
376.713 152.671 294.444 375.847 154.139 294.13 378.064 154.853 294.934 
373.818 155.931 294.863 376.819 156.383 294.638 373.914 156.669 295.036 
374.367 156.759 294.922 375.356 157.333 295.269 377.079 150.885 295.363 
375.728 151.58 295.198 373.938 153.476 295.208 378.593 154.223 295.303 
372.349 157.005 296.15 376.468 156.969 295.051 373.697 158.27 296.312 
377.988 150.2 295.861 373.753 152.044 296.021 374.742 158.283 296.3 
376.524 157.561 296.308 376.003 148.306 297.269 370.997 154.698 297.536 
371.324 158.267 297.713 375.411 147.867 297.959 381.446 147.266 298.264 
377.282 157.599 298.064 370.406 158.14 298.652 371.342 158.984 298.531 
373.597 159.365 298.378 381.295 144.491 299.561 382.346 144.48 299.741 
382.573 148.198 298.833 373.355 148.355 299.462 382.756 149.571 299.092 
381.005 153.843 299.162 369.669 158.606 299.859 371.574 159.605 299.76 
380.42 143.798 300.281 383.438 143.864 300.507 371.953 149.535 300.053 
379.565 155.923 300.254 368.524 157.844 300.881 375.377 158.913 299.873 
368.931 158.57 300.678 385.991 143.455 302.099 371.681 149.189 301.125 
380.681 154.796 300.559 368.312 155.531 301.672 377.127 157.893 300.777 
373.843 159.492 300.339 369.115 159.767 301.919 385.247 141.724 302.686 
386.177 141.691 303.096 385.032 142.24 302.221 379.983 142.726 302.265 
386.497 144.532 302.37 373.814 146.406 302.207 385.67 148.193 302.134 
371.322 149.153 302.408 380.66 155.002 301.577 367.823 156.591 302.6 
367.823 157.036 302.607 368.689 159.331 302.47 368.935 159.653 302.143 
368.937 159.723 302.455 369.361 160.043 302.2 385.558 140.744 303.757 
386.986 141.513 303.711 387.228 141.884 303.696 376.421 144.348 302.605 
386.84 147.189 303.453 368.025 155.52 303.033 367.784 156.636 303.016 
379.945 155.666 302.902 368.32 158.768 303.497 369.107 159.877 302.564 
369.255 159.886 302.786 369.681 160.059 302.516 385.417 140.528 304.069 
385.095 140.393 304.448 386.613 140.46 304.542 388.146 142.389 304.608 
388.224 144.656 304.717 373.578 146.428 303.455 370.245 150.429 303.406 
385.763 149.344 303.574 368.421 154.267 304.295 377.484 157.243 303.63 
368.204 158.308 303.965 368.536 159.079 303.61 368.659 159.119 303.857 
387.452 140.232 305.275 387.41 140.072 305.551 388.457 140.849 305.648 
377.339 143.681 305.251 385.233 150.467 304.632 368.054 156.312 304.478 
368.139 157.785 304.313 368.371 158.474 304.229 373.45 158.684 304.502 
368.751 158.968 304.172 368.879 159.23 303.932 371.09 159.425 303.896 
387.015 139.772 306.4 388.324 140.472 305.864 388.983 141.055 306.346 
389.254 142.073 306.546 377.971 143.395 306.14 374.291 146.083 305.834 
370.428 150.324 305.657 368.529 154.69 305.175 368.718 154.858 305.58 
368.516 156.909 305.135 377.347 156.505 305.703 368.298 157.744 304.636 
369.373 158.334 305.091 370.315 158.779 304.943 388.241 140.016 306.782 
388.884 140.389 306.882 388.683 140.184 306.929 388.891 140.293 307.201 
369.795 152.152 306.349 369.334 155.7 306.336 369.109 157.168 305.618 
374.117 157.263 306.519 370.492 158.309 305.47 371.456 157.781 306.19 
386.985 139.675 308.04 389.581 141.877 308.224 377.136 144.803 307.714 
388.706 145.682 307.374 373.812 147.335 307.304 371.34 149.721 306.786 
384.665 151.012 307.367 370.174 152.747 307.031 371.622 157.327 306.64 
385.91 139.8 308.655 388.999 140.457 308.3 389.499 141.477 308.744 
389.532 143.307 309.218 374.474 148.784 308.738 372.168 151.325 308.318 
371.036 153.307 307.839 370.211 155.322 307.155 373.723 154.296 308.54 
376.033 154.631 308.308 378.719 154.474 307.792 370.648 155.855 307.242 
372.264 155.532 307.805 385.417 140.327 309.424 389.297 141.129 309.229 
389.543 142.28 309.544 389.066 144.679 309.609 376.153 148.189 309.361 
386.794 148.263 309.051 385.7 149.316 309.064 374.458 151.015 309.329 
374.933 151.702 309.472 376.628 152.222 309.523 371.949 153.817 308.347 
387.147 140.046 309.841 387.881 140.114 309.883 384.483 141.422 310.196 
382.152 143.237 310.091 389.302 143.095 310.269 389.089 143.859 310.322 
388.568 144.854 310.455 388.006 145.902 310.092 386.453 148.037 309.831 
385.02 148.438 310.472 377.297 150.105 309.914 388.151 140.316 310.084 
388.511 140.509 309.981 387.244 140.691 310.672 388.709 140.906 310.323 
389.038 141.454 310.419 385.676 142.066 311.094 383.616 144.113 311.172 
388.811 143.843 310.829 383.196 145.123 311.368 388.508 144.138 310.982 
383.121 146.202 311.478 386.707 146.057 311.034 386.994 146.49 310.646 
383.521 146.933 311.474 383.675 147.365 311.367 384.183 147.469 311.289 
[...]
POINT_DATA 424
COLOR_SCALARS scalars 3
1 0.478431 1 1 0.478431 1 1 0.478431 1 
1 0.478431 1 1 0.478431 1 
1 0.478431 1 1 0.478431 1 
1 0.478431 1 1 0.478431 1 
1 0.478431 1 1 0.478431 1 
1 0.478431 1 1 0.478431 1 
1 0.478431 1 1 0.478431 1 
1 0.478431 1 1 0.478431 1 
1 0.478431 1 1 0.478431 1 
1 0.478431 1 1 0.478431 1 
1 0.478431 1 1 0.478431 1 
1 0.478431 1 1 0.478431 1 
1 0.478431 1 1 0.478431 1 
1 0.478431 1 1 0.478431 1 
1 0.478431 1 1 0.478431 1 
1 0.478431 1 1 0.478431 1 
1 0.478431 1 1 0.478431 1 
1 0.478431 1 1 0.478431 1 
1 0.478431 1 1 0.478431 1 
1 0.478431 1 1 0.478431 1 
1 0.478431 1 1 0.478431 1 
1 0.478431 1 1 0.478431 1 
1 0.478431 1 1 0.478431 1 
1 0.478431 1 1 0.478431 1 
1 0.478431 1 1 0.478431 1 
1 0.478431 1 1 0.478431 1 
1 0.478431 1 1 0.478431 1 
1 0.478431 1 1 0.478431 1 
1 0.478431 1 1 0.478431 1 
1 0.478431 1 1 0.478431 1 
1 0.478431 1 1 0.478431 1 
1 0.478431 1 1 0.478431 1 
1 0.478431 1 1 0.478431 1 
1 0.478431 1 1 0.478431 1 
1 0.478431 1 1 0.478431 1 
1 0.478431 1 1 0.478431 1 
1 0.478431 1 1 0.478431 1 
1 0.478431 1 1 0.478431 1 
1 0.478431 1 1 0.478431 1 
1 0.478431 1 1 0.478431 1 
1 0.478431 1 1 0.478431 1 
1 0.478431 1 1 0.478431 1 
1 0.478431 1 1 0.478431 1 
1 0.478431 1 1 0.478431 1 
1 0.478431 1 1 0.478431 1 
1 0.478431 1 1 0.478431 1 
1 0.478431 1 1 0.478431 1 
1 0.478431 1 1 0.478431 1 
1 0.478431 1 1 0.478431 1 
1 0.478431 1 1 0.478431 1 
1 0.478431 1 1 0.478431 1 
1 0.478431 1 1 0.478431 1 
1 0.478431 1 1 0.478431 1 
1 0.478431 1 1 0.478431 1 
1 0.478431 1 1 0.478431 1 
1 0.478431 1 1 0.478431 1 
1 0.478431 1 1 0.478431 1 
1 0.478431 1 1 0.478431 1 
1 0.478431 1 1 0.478431 1 
1 0.478431 1 1 0.478431 1 
1 0.478431 1 1 0.478431 1 
1 0.478431 1 1 0.478431 1 
1 0.478431 1 1 0.478431 1 
1 0.478431 1 1 0.478431 1 
1 0.478431 1 1 0.478431 1 
1 0.478431 1 1 0.478431 1 
1 0.478431 1 1 0.478431 1 
1 0.478431 1 1 0.478431 1 
1 0.478431 1 1 0.478431 1 
1 0.478431 1 1 0.478431 1 
1 0.478431 1 1 0.478431 1 
1 0.478431 1 1 0.478431 1 
1 0.478431 1 1 0.478431 1 
1 0.478431 1 1 0.478431 1 
1 0.478431 1 1 0.478431 1 
1 0.478431 1 1 0.478431 1 
1 0.478431 1 1 0.478431 1 
1 0.478431 1 1 0.478431 1 
1 0.478431 1 1 0.478431 1 
1 0.478431 1 1 0.478431 1 
1 0.478431 1 1 0.478431 1 
1 0.478431 1 1 0.478431 1 
1 0.478431 1 1 0.478431 1 
1 0.478431 1 1 0.478431 1 
1 0.478431 1 1 0.478431 1 
1 0.478431 1 1 0.478431 1 
1 0.478431 1 1 0.478431 1 
1 0.478431 1 1 0.478431 1 
1 0.478431 1 1 0.478431 1 
1 0.478431 1 1 0.478431 1 
1 0.478431 1 1 0.478431 1 
1 0.478431 1 1 0.478431 1 
1 0.478431 1 1 0.478431 1 
1 0.478431 1 1 0.478431 1 
1 0.478431 1 1 0.478431 1 
1 0.478431 1 1 0.478431 1 
1 0.478431 1 1 0.478431 1 
1 0.478431 1 1 0.478431 1 
1 0.478431 1 1 0.478431 1 
1 0.478431 1 1 0.478431 1 
1 0.478431 1 1 0.478431 1 
1 0.478431 1 1 0.478431 1 
1 0.478431 1 1 0.478431 1 
1 0.478431 1 1 0.478431 1 
1 0.478431 1 1 0.478431 1 
1 0.478431 1 1 0.478431 1 
1 0.478431 1 1 0.478431 1 
1 0.478431 1 1 0.478431 1 
1 0.478431 1 1 0.478431 1 
1 0.478431 1 1 0.478431 1 
1 0.478431 1 1 0.478431 1 
1 0.478431 1 1 0.478431 1 
1 0.478431 1 1 0.478431 1 
1 0.478431 1 1 0.478431 1 
1 0.478431 1 1 0.478431 1 
1 0.478431 1 1 0.478431 1 
1 0.478431 1 1 0.478431 1 
1 0.478431 1 1 0.478431 1 
1 0.478431 1 1 0.478431 1 
1 0.478431 1 1 0.478431 1 
1 0.478431 1 1 0.478431 1 
1 0.478431 1 1 0.478431 1 
1 0.478431 1 1 0.478431 1 
1 0.478431 1 1 0.478431 1 
1 0.478431 1 1 0.478431 1 
1 0.478431 1 1 0.478431 1 
1 0.478431 1 1 0.478431 1 
1 0.478431 1 1 0.478431 1 
1 0.478431 1 1 0.478431 1 
1 0.478431 1 1 0.478431 1 
1 0.478431 1 1 0.478431 1 
1 0.478431 1 1 0.478431 1 
1 0.478431 1 1 0.478431 1 
1 0.478431 1 1 0.478431 1 
1 0.478431 1 1 0.478431 1 
1 0.478431 1 1 0.478431 1 
1 0.478431 1 1 0.478431 1 
1 0.478431 1 1 0.478431 1 
1 0.478431 1 1 0.478431 1 
1 0.478431 1 1 0.478431 1 
1 0.478431 1 1 0.478431 1 
1 0.478431 1 1 0.478431 1 
1 0.478431 1 1 0.478431 1 
1 0.478431 1 1 0.478431 1 
1 0.478431 1 1 0.478431 1 
1 0.478431 1 1 0.478431 1 
1 0.478431 1 1 0.478431 1 
1 0.478431 1 1 0.478431 1 
1 0.478431 1 1 0.478431 1 
1 0.478431 1 1 0.478431 1 
1 0.478431 1 1 0.478431 1 
1 0.478431 1 1 0.478431 1 
1 0.478431 1 1 0.478431 1 
1 0.478431 1 1 0.478431 1 
1 0.478431 1 1 0.478431 1 
1 0.478431 1 1 0.478431 1 
1 0.478431 1 1 0.478431 1 
1 0.478431 1 1 0.478431 1 
1 0.478431 1 1 0.478431 1 
1 0.478431 1 1 0.478431 1 
1 0.478431 1 1 0.478431 1 
1 0.478431 1 1 0.478431 1 
1 0.478431 1 1 0.478431 1 
1 0.478431 1 1 0.478431 1 
1 0.478431 1 1 0.478431 1 
1 0.478431 1 1 0.478431 1 
1 0.478431 1 1 0.478431 1 
1 0.478431 1 1 0.478431 1 
1 0.478431 1 1 0.478431 1 
1 0.478431 1 1 0.478431 1 
1 0.478431 1 1 0.478431 1 
1 0.478431 1 1 0.478431 1 
1 0.478431 1 1 0.478431 1 
1 0.478431 1 1 0.478431 1 
1 0.478431 1 1 0.478431 1 
1 0.478431 1 1 0.478431 1 
1 0.478431 1 1 0.478431 1 
1 0.478431 1 1 0.478431 1 
1 0.478431 1 1 0.478431 1 
1 0.478431 1 1 0.478431 1 
1 0.478431 1 1 0.478431 1 
1 0.478431 1 1 0.478431 1 
1 0.478431 1 1 0.478431 1 
1 0.478431 1 1 0.478431 1 
1 0.478431 1 1 0.478431 1 
1 0.478431 1 1 0.478431 1 
1 0.478431 1 1 0.478431 1 
1 0.478431 1 1 0.478431 1 
1 0.478431 1 1 0.478431 1 
1 0.478431 1 1 0.478431 1 
1 0.478431 1 1 0.478431 1 
1 0.478431 1 1 0.478431 1 
1 0.478431 1 1 0.478431 1 
1 0.478431 1 1 0.478431 1 
1 0.478431 1 1 0.478431 1 
1 0.478431 1 1 0.478431 1 
1 0.478431 1 1 0.478431 1 
1 0.478431 1 1 0.478431 1 
1 0.478431 1 1 0.478431 1 
1 0.478431 1 1 0.478431 1 
1 0.478431 1 1 0.478431 1 
1 0.478431 1 1 0.478431 1 
1 0.478431 1 1 0.478431 1 
1 0.478431 1 1 0.478431 1 
1 0.478431 1 1 0.478431 1 
1 0.478431 1 1 0.478431 1 
1 0.478431 1 1 0.478431 1 
1 0.478431 1 1 0.478431 1 
1 0.478431 1 1 0.478431 1 
1 0.478431 1 1 0.478431 1 
1 0.478431 1 1 0.478431 1 
1 0.478431 1 
NORMALS Normals float
0.200121 -0.349825 -0.915191 -0.104347 -0.590956 -0.799927 -0.0210609 -0.380302 -0.924623 
0.503057 -0.306309 -0.808151 0.724898 -0.387754 -0.569359 0.259704 -0.0278135 -0.965288 
0.460428 -0.00564808 -0.887679 0.517615 -0.0550528 -0.853841 0.857072 -0.136433 -0.496804 
0.171923 -0.0339205 -0.984526 -0.174409 -0.105912 -0.978961 0.357571 0.171746 -0.917958 
0.639271 0.175877 -0.748599 0.81844 0.125868 -0.560637 0.014219 0.0846687 -0.996308 
0.3263 0.269097 -0.906154 0.172163 0.281235 -0.944069 0.479156 0.368916 -0.796436 
0.430319 0.441264 -0.787472 0.332305 -0.611568 -0.718024 0.3003 -0.875277 -0.379092 
-0.0389012 -0.746716 -0.664005 0.77487 -0.548355 -0.314456 -0.13583 -0.275152 -0.951757 
-0.314052 -0.352433 -0.881568 -0.259983 -0.0817589 -0.962146 0.632348 0.343106 -0.694561 
0.356579 0.44529 -0.821321 0.696152 0.474562 -0.538668 -0.220279 0.125536 -0.967325 
0.561303 0.585976 -0.584441 0.0415619 0.266393 -0.962968 0.206316 0.295197 -0.932895 
-0.0208143 -0.929123 -0.369185 0.441854 -0.890515 -0.108391 -0.471381 -0.778804 -0.413842 
-0.278094 -0.590217 -0.757831 0.942742 -0.302643 -0.140161 -0.487444 -0.584308 -0.648832 
-0.388881 -0.568534 -0.724942 -0.534317 -0.555225 -0.637362 0.991514 0.104357 -0.0775268 
-0.440338 -0.354782 -0.824762 0.872666 0.356722 -0.333473 0.67266 0.504471 -0.54133 
0.0385359 0.487333 -0.872366 0.392937 0.450309 -0.801762 -0.137678 0.265852 -0.954132 
0.147843 0.517149 -0.84303 -0.229028 -0.83123 -0.506559 -0.375101 -0.811523 -0.448029 
-0.28586 0.0491487 -0.95701 0.199342 0.606162 -0.769955 0.0247503 0.581719 -0.813013 
-0.00917618 -0.990798 -0.135035 0.615519 -0.787695 0.0259353 0.781876 -0.619527 0.0696895 
0.974346 -0.158033 0.160236 -0.595539 -0.654672 -0.465551 0.935733 0.347654 0.0594978 
-0.530804 -0.589702 -0.608686 -0.623224 -0.567249 -0.538349 0.802815 0.566829 -0.184913 
-0.542484 -0.325792 -0.774319 -0.583374 -0.116907 -0.803746 0.536664 0.63615 -0.554351 
-0.575224 0.0271912 -0.817544 0.32748 0.692883 -0.642394 -0.489922 0.149155 -0.858911 
-0.245524 0.36938 -0.896257 0.0678398 -0.981423 0.179464 -0.355054 -0.923537 -0.144969 
0.929315 -0.255604 0.266532 -0.529192 -0.704682 -0.47263 -0.729072 -0.558236 -0.396014 
-0.787336 -0.138627 -0.600737 -0.638362 0.00838006 -0.769691 0.368771 0.758224 -0.537684 
-0.525931 0.290531 -0.799368 -0.262265 0.565415 -0.781999 0.350577 -0.923144 0.1578 
0.712348 -0.661441 0.234641 -0.279648 -0.951869 0.125466 0.931879 -0.274081 0.237659 
-0.535712 -0.789417 -0.299722 0.910197 -0.091021 0.40405 -0.494694 -0.799334 -0.341091 
-0.652786 -0.720546 -0.233845 -0.712643 -0.633092 -0.302215 -0.78025 -0.353593 -0.515928 
0.804486 0.591574 0.053315 -0.885329 -0.375544 -0.274153 -0.881547 -0.0722257 -0.466538 
0.663163 0.713483 -0.226178 -0.761775 -0.204268 -0.614796 -0.93007 -0.150763 -0.335021 
0.219309 0.748526 -0.625789 -0.469677 0.488891 -0.735112 -0.226097 0.631485 -0.741692 
-0.0309938 -0.984427 0.17304 0.407314 -0.827497 0.38645 0.795614 -0.461665 0.392255 
-0.539555 -0.838184 -0.0795432 -0.724196 -0.688944 0.0299386 0.854537 0.46916 0.222835 
-0.898157 -0.32281 -0.298511 0.789623 0.613578 0.00417612 -0.796129 0.201726 -0.570513 
-0.75928 0.437484 -0.481769 -0.390253 0.66807 -0.633549 -0.106826 0.776657 -0.6208 
-0.298145 -0.890995 0.342399 0.054867 -0.857315 0.511859 0.597338 -0.532036 0.600105 
-0.395657 -0.904936 0.156673 -0.922098 -0.377745 -0.0839343 -0.956122 -0.0169912 -0.292474 
-0.948847 -0.288997 -0.127157 0.385793 0.824006 -0.414943 -0.504391 0.769107 -0.39251 
0.145523 0.898802 -0.413494 -0.498077 -0.856846 0.133171 -0.835614 -0.549312 -0.0022215 
0.713979 0.695436 0.081257 -0.993668 -0.0157493 -0.111245 0.510701 0.820509 -0.256805 
-0.963645 0.234087 -0.128805 -0.849277 0.502063 -0.163284 -0.0348251 0.933216 -0.357623 
-0.582443 -0.748008 0.318191 0.844366 0.106614 0.525052 -0.942019 -0.326155 0.0788942 
-0.939489 -0.267269 0.214309 -0.762574 0.64685 -0.00816326 -0.49345 0.838337 -0.231728 
0.0849444 0.989252 -0.119013 -0.618269 0.785885 0.0113141 -0.246175 0.948401 -0.199833 
0.0119173 -0.742065 0.670222 -0.150348 -0.814457 0.560407 -0.354381 -0.873196 0.334577 
0.663511 -0.213977 0.716915 0.564974 -0.16015 0.809417 -0.771614 -0.573176 0.275829 
0.785027 0.407532 0.466531 -0.993169 -0.0507217 0.105084 -0.929801 -0.057785 0.363498 
-0.954337 0.248423 0.16591 -0.647957 0.706 0.285859 -0.567243 0.798567 0.201312 
-0.293567 0.932184 0.211781 0.290284 -0.493746 0.819726 -0.65249 -0.661822 0.369119 
-0.846037 -0.331269 0.417711 -0.830427 0.455807 0.320361 0.0302973 0.996481 0.0781522 
0.832525 0.372444 0.410108 0.411962 0.90913 0.061402 0.0165637 0.989185 0.145732 
0.673817 0.0135659 0.738774 -0.48471 0.761699 0.429967 -0.266506 0.872916 0.408648 
0.0185333 0.920649 0.389952 -0.235814 -0.668857 0.704998 0.0665703 -0.600569 0.796797 
0.240225 -0.430877 0.869849 0.406346 -0.261596 0.875472 0.865638 0.450071 0.219332 
-0.816457 0.0407374 0.575968 -0.498823 0.606414 0.619224 -0.135286 0.877392 0.460305 
-0.509387 -0.528231 0.679336 -0.726093 -0.273742 0.630757 0.981955 0.147567 0.118268 
0.753449 0.557345 0.348828 -0.295844 0.686807 0.663907 -0.28853 -0.588693 0.75511 
0.200108 -0.394373 0.896899 0.367818 -0.263335 0.891832 0.851734 0.142288 0.504285 
0.756257 0.0912144 0.647885 -0.624467 -0.187074 0.758316 0.686142 0.498912 0.52943 
0.615241 0.696158 0.369923 -0.369634 0.599037 0.710299 0.295724 0.827729 0.476878 
-0.0573238 0.851224 0.521662 -0.094355 -0.424239 0.900621 0.656764 -0.0937268 0.748249 
-0.484364 -0.172606 0.85767 0.676111 0.348765 0.649028 0.596388 0.145607 0.78938 
-0.585548 0.212885 0.782185 0.294055 0.733007 0.613378 -0.259066 0.526698 0.809613 
-0.110446 0.523739 0.844689 0.00791201 0.727246 0.686331 0.130124 -0.334661 0.933311 
0.584577 -0.0263509 0.810911 -0.324343 -0.285472 0.901835 0.456071 0.181481 0.871243 
0.531073 0.323096 0.783307 -0.388891 0.181874 0.903153 0.526172 0.535216 0.660823 
0.340045 0.50719 0.791914 -0.315223 0.451118 0.834941 -0.125073 0.647517 0.751717 
0.104576 0.501886 0.858588 0.114201 0.692307 0.712509 0.283852 -0.0726136 0.956115 
0.0835181 0.106458 0.990803 -0.113268 0.356191 0.927523 0.499388 0.0658373 -0.863874 
0.343063 -0.266794 -0.900627 0.63418 -0.124183 -0.763148 -0.0696928 -0.0575905 -0.995905 
0.242917 0.127204 -0.961671 0.245575 0.0344891 -0.968764 -0.329083 0.0600312 -0.942391 
-0.3364 0.141186 -0.931075 0.015258 0.186416 -0.982352 0.253361 0.283453 -0.924912 
-0.0665352 0.442185 -0.894453 0.573919 0.317149 -0.755005 0.109462 0.599253 -0.793041 
-0.139734 -0.378245 -0.915098 -0.150892 -0.160404 -0.97545 0.722839 0.44256 -0.530702 
-0.448938 0.172484 -0.876758 0.509684 0.558923 -0.654086 -0.387675 0.410835 -0.82518 
-0.204193 0.531131 -0.822317 0.0406998 0.746263 -0.664406 -0.0227944 -0.561069 -0.827455 
-0.332096 -0.523329 -0.784754 -0.509712 -0.21134 -0.833984 0.789564 0.0947939 -0.606302 
-0.62537 0.214399 -0.750297 0.328461 0.763623 -0.555871 -0.252645 0.703422 -0.664355 
-0.000161915 -0.571975 -0.820271 -0.578064 -0.440207 -0.687066 0.105313 0.816751 -0.567298 
0.518407 0.780593 -0.349183 -0.140307 -0.564416 -0.813479 -0.754249 -0.212959 -0.621093 
-0.541951 0.53921 -0.644626 -0.515347 -0.580799 -0.630151 0.481701 -0.140614 -0.864981 
0.61127 0.757368 -0.229658 -0.716941 0.324066 -0.617233 -0.40556 0.764885 -0.500472 
0.156385 0.944925 -0.287507 0.0440172 -0.602449 -0.796943 0.274107 -0.460484 -0.844287 
0.591813 -0.0512527 -0.804444 -0.658967 -0.646077 -0.385158 0.685484 0.174506 -0.706866 
0.797485 0.519477 -0.306856 -0.62033 0.582118 -0.52567 -0.222432 0.919303 -0.324662 
-0.162956 -0.765758 -0.622141 0.38208 -0.415014 -0.825699 -0.790098 -0.409958 -0.455719 
0.667333 0.738688 -0.0949055 -0.871187 0.200326 -0.448221 0.460195 0.887603 -0.0195482 
-0.705391 0.53976 -0.459437 0.580117 -0.220247 -0.784191 -0.791117 -0.535509 -0.295576 
0.758003 0.650651 -0.0456581 -0.908685 -0.274148 -0.314855 0.556962 0.827791 0.067493 
0.226283 0.973684 0.0271102 -0.676235 0.563853 -0.474106 0.179735 -0.549261 -0.816093 
0.429489 -0.351671 -0.831785 0.173538 -0.656336 -0.73424 -0.282763 -0.882774 -0.375174 
0.694175 -0.0180934 -0.719579 -0.694536 -0.677758 -0.241381 0.706124 0.283709 -0.648766 
-0.800244 -0.557764 -0.220248 0.704316 0.707071 -0.0631574 -0.968475 -0.130337 -0.212296 
-0.976442 0.130483 -0.171857 -0.856731 0.506868 -0.0953737 -0.797319 0.526323 -0.29541 
-0.763195 0.634517 0.122154 -0.430351 0.898038 -0.0912486 0.0524703 -0.741781 -0.668586 
0.526219 -0.540351 -0.656592 0.637196 -0.157034 -0.754534 -0.466081 -0.836718 -0.287526 
0.88057 0.381243 -0.281514 -0.961702 -0.271915 -0.0345275 -0.995733 -0.0911436 0.0144513 
0.590745 0.799474 0.10891 -0.936183 0.351157 0.0158172 -0.606194 0.769462 0.201141 
-0.510044 0.784638 0.352418 0.0439363 0.965525 0.256576 -0.102325 -0.851599 -0.51411 
-0.177998 -0.901678 -0.394073 0.206586 -0.832082 -0.514745 0.791456 -0.19612 -0.578908 
0.86067 0.127467 -0.492949 -0.731491 -0.681733 0.0126819 -0.867002 -0.491613 -0.0813939 
0.731717 0.574129 -0.367377 -0.885916 -0.44219 0.140077 0.468844 0.859207 0.204813 
-0.90498 0.375961 0.199159 -0.739152 0.637908 0.216165 -0.66504 0.661549 0.346518 
0.252229 -0.800229 -0.544071 0.15065 -0.91333 -0.378328 0.726755 -0.371443 -0.577804 
-0.547375 -0.822007 0.157116 0.801335 0.552651 -0.228994 -0.907456 -0.095437 0.409165 
-0.973962 0.158278 0.162315 -0.72063 0.485971 0.494495 0.314548 0.905516 0.284781 
-0.682899 0.566151 0.461651 -0.361207 0.846221 0.391714 0.118747 0.866262 0.485272 
0.0184881 -0.970321 -0.241112 0.56113 -0.721839 -0.40507 0.88463 -0.318288 -0.340767 
0.950677 0.0125759 -0.309927 -0.458907 -0.874304 0.158105 -0.665696 -0.705201 0.244009 
-0.822225 -0.539268 0.182034 -0.787147 -0.444198 0.427888 -0.783946 -0.182526 0.593391 
-0.692432 -0.076462 0.71742 0.422127 0.784887 0.453609 -0.76325 0.296489 0.574059 
-0.319848 0.675166 0.664717 -0.13994 0.82174 0.552413 0.371383 -0.912688 -0.170515 
0.713016 -0.590922 -0.377385 0.515807 -0.812013 -0.273089 0.809367 -0.583588 -0.0659605 
-0.797135 -0.330583 0.505263 -0.685149 0.165534 0.709345 -0.54599 0.30024 0.782145 
0.166438 0.736585 0.655546 -0.127234 0.666622 0.734457 0.0387731 0.718677 0.694262 
0.20264 -0.977052 0.0656239 0.97705 -0.191479 -0.0933219 -0.55612 -0.659118 0.506256 
0.872272 0.4819 -0.0831493 -0.614318 -0.616486 0.492502 -0.695545 -0.509087 0.506998 
0.605319 0.751632 0.261989 -0.752521 0.0697049 0.654869 0.000971863 0.657805 0.753188 
-0.387449 -0.914022 0.120196 0.691354 -0.719566 0.065218 0.96847 -0.23589 0.0801324 
0.982676 0.13637 0.125503 -0.400137 -0.319246 0.859053 -0.477642 -0.128677 0.86908 
-0.640066 -0.00902002 0.768267 -0.606209 0.0795297 0.791319 -0.102286 0.332757 0.937449 
0.098286 0.558398 0.82373 0.277365 0.655273 0.702628 -0.407176 0.358897 0.839881 
-0.155023 0.403911 0.901567 -0.411134 -0.7676 0.49169 0.851438 -0.476579 0.21892 
0.954474 -0.0343235 0.296312 0.896185 0.396224 0.199648 -0.424526 -0.280153 0.860983 
0.678454 0.673518 0.293383 0.676505 0.69983 0.229301 -0.185667 -0.166115 0.96847 
-0.180631 0.159468 0.970537 -0.0669887 0.191531 0.979198 -0.410129 0.294227 0.863264 
-0.118431 -0.849865 0.513521 0.30928 -0.912466 0.267865 -0.545421 -0.691752 0.473281 
-0.480662 -0.474413 0.737493 0.901147 0.133453 0.412462 0.860591 0.291514 0.417616 
0.644966 0.471927 0.601086 0.686978 0.517222 0.510434 0.511283 0.600607 0.614705 
0.339294 0.648276 0.681629 -0.291911 -0.0204111 0.956228 0.291484 -0.763146 0.576754 
0.627512 -0.749604 0.21053 -0.121643 -0.641227 0.757648 0.655401 -0.620338 0.430848 
0.8806 -0.302073 0.365097 -0.281105 -0.467675 0.83801 -0.232605 -0.345019 0.909317 
0.681245 0.249243 0.688319 -0.30998 -0.180049 0.933539 0.675389 0.36667 0.639847 
-0.377095 0.0194345 0.925971 0.337454 0.353823 0.872315 0.510925 0.456662 0.728296 
-0.0984383 0.325389 0.940443 -0.0926043 0.326731 0.94057 0.15599 0.401314 0.90256 
0.113861 -0.546791 0.829491 0.497495 -0.621473 0.605203 0.703539 -0.524411 0.47961 
-0.116858 -0.183428 0.976063 0.0890978 -0.395585 0.914098 0.508231 0.199876 0.837706 
0.767072 0.0308713 0.640817 -0.101576 -0.216781 0.970921 0.0304963 -0.053524 0.998101 
0.344055 0.300886 0.889435 0.0369254 0.105931 0.993688 0.63044 -0.331534 0.701876 
0.264036 -0.170062 0.949402 
