# vtk DataFile Version 4.2
vtk output
ASCII
DATASET POLYDATA
POINTS 689 float
232.492 265.151 216.105 233.627 266.177 216.01 234.259 267.467 216.143 
235.1 266.986 216.191 229.76 268.621 216.615 230.996 268.436 216.222 
232.826 268.559 216.239 229.701 269.482 216.829 229.647 269.598 217.04 
230.041 269.491 216.662 230.582 269.363 216.545 232.764 268.966 216.434 
229.867 269.755 216.889 230.037 269.724 216.73 230.356 269.638 216.73 
232.967 269.189 216.656 229.941 269.783 216.784 231.971 259.839 217.14 
236.604 260.656 216.877 236.69 265.688 216.523 228.032 266.844 218.016 
237.24 267.2 216.753 228.843 268.827 217.479 235.889 268.362 216.863 
228.292 269.081 218.427 228.626 269.181 217.858 229.312 269.432 217.698 
228.796 269.394 217.856 229.916 269.686 217.142 230.176 269.61 217.494 
233.379 269.158 216.809 238.127 268.378 217.687 228.436 269.236 218.1 
228.6 269.357 217.983 236.488 249.475 218.052 238.616 248.875 217.928 
234.755 250.668 218.344 228.856 262.46 218.013 228.549 262.01 218.462 
227.733 265.097 218.619 227.773 267.459 218.817 235.241 268.713 218.02 
237.781 268.479 218.266 241.85 267.887 218.582 228.113 268.775 219.053 
233.241 269.217 217.556 237.494 268.52 217.879 239.628 268.133 217.863 
228.88 269.394 218.363 228.791 269.423 218.002 240.428 268.327 218.518 
238.662 240.198 220.121 238.418 240.673 219.694 241.359 240.194 219.869 
237.701 241.073 219.608 241.763 240.422 219.653 241.963 240.963 219.312 
246.209 241.243 219.593 245.652 240.778 220.023 248.837 241.368 219.718 
249.173 241.156 219.978 246.789 241.787 219.282 249.924 241.927 219.612 
244.314 243.229 218.595 249.802 243.041 219.323 247.864 243.867 218.845 
235.33 247.207 218.817 233.68 248.919 219.402 247.698 254.016 219.161 
243.811 259.738 218.317 228.511 260.065 219.434 246.691 259.854 219.315 
228.193 261.879 219.028 227.668 263.302 219.351 227.568 264.894 219.226 
236.091 268.133 218.926 244.477 267.364 218.959 245.785 266.892 219.423 
241.396 268.432 219.877 242.923 268.411 219.14 244.487 268.159 219.205 
242.011 268.552 219.465 240.885 268.399 218.936 243.096 268.843 219.548 
228.396 269.074 219.396 245.407 269.52 220.101 242.247 239.947 220.413 
244.21 240.243 220.409 243.71 240.074 220.55 236.886 240.434 220.375 
236.615 240.738 220.307 252.646 241.39 220.798 252.762 241.521 220.804 
252.892 241.64 220.954 235.712 242.425 220.251 252.071 243.001 220.243 
252.822 243.335 220.887 234.055 246.14 220.238 250.651 246.018 219.626 
251.278 246.592 220.067 252.114 246.215 220.694 251.615 247.407 220.532 
229.846 255.666 220.141 248.254 256.468 219.813 248.716 256.453 220.233 
248.084 258.413 220.073 227.669 262.435 219.963 247.126 262.489 219.949 
236.694 266.786 220.585 227.541 266.859 220.162 246.216 267.385 219.788 
246.667 267.358 220.218 247.026 266.91 220.746 246.934 267.739 220.658 
246.278 268.935 220.251 246.675 268.682 220.502 245.101 269.741 220.3 
245.226 269.846 220.54 246.292 269.438 220.469 246.425 269.956 221.004 
237.076 239.615 221.52 236.785 239.78 221.352 238.299 239.538 221.155 
237.944 239.48 221.356 236.689 239.996 221.059 236.503 240.053 221.366 
236.36 240.325 221.074 242.629 239.887 220.94 236.098 240.894 220.889 
244.968 240.338 221.29 249.052 240.834 220.914 252.197 241.226 220.941 
252.786 241.425 220.905 252.597 241.318 220.933 252.824 241.459 221.085 
253.021 241.784 221.248 253.121 242.325 221.319 234.912 243.224 220.783 
234.931 242.931 221.109 233.777 246.065 220.798 233.587 246.412 221.11 
252.665 245.224 221.152 252.34 246.346 221.132 251.913 247.534 220.937 
231.931 250.074 221.274 251.157 249.695 221.086 230.178 254.26 220.912 
248.886 256.783 220.635 249.175 255.989 220.989 248.584 258.717 221.017 
248.786 258.012 221.313 228.051 259.968 221.08 248.268 259.604 220.783 
248.474 259.348 221.285 247.963 261.513 220.972 247.957 261.86 221.247 
227.497 265.307 220.682 245.519 269.94 220.768 246.923 269.262 221.266 
246.682 269.835 221.078 246.82 269.722 221.3 246.378 270.109 221.302 
237.127 239.701 221.819 237.416 239.539 221.697 237.908 239.495 221.695 
236.481 240.212 221.689 242.661 239.936 221.413 242.383 240.014 221.7 
245.2 240.544 221.83 252.55 241.318 221.173 252.832 241.505 221.318 
252.995 241.71 221.554 253.183 241.996 221.516 253.177 241.922 221.673 
235.097 242.533 221.3 253.219 242.284 221.579 253.236 242.099 221.672 
234.643 243.862 221.517 253.088 242.776 221.611 233.949 245.383 221.372 
234.052 245.262 221.686 252.639 245.239 221.892 252.513 246.162 221.486 
252.612 245.74 221.647 231.796 250.191 221.658 231.844 250.106 221.966 
231.603 250.702 221.821 251.425 248.884 221.506 251.724 248.109 221.702 
230.465 253.291 221.592 249.747 254.312 221.407 249.66 254.305 221.746 
228.821 257.264 221.46 228.904 257.129 221.796 248.839 257.401 221.744 
228.298 259.72 221.725 248.728 258.185 221.702 248.55 258.628 221.871 
248.101 260.461 221.873 227.775 262.71 221.262 247.986 261.268 221.811 
227.646 264.65 221.309 247.55 263.172 221.452 247.732 262.345 221.72 
227.676 266.317 221.45 229.425 269.043 221.452 243.65 268.894 221.711 
228.465 268.988 221.659 228.344 268.917 221.947 246.859 269.482 221.575 
246.758 269.881 221.556 246.363 270.147 221.591 246.592 270.091 221.554 
237.246 239.908 222.079 236.604 240.426 222.002 239.545 239.949 222.187 
240.204 239.885 221.962 243.631 240.54 222.187 244.359 240.709 222.263 
245.876 240.869 222.15 251.221 241.225 221.678 235.663 242.169 222.109 
252.351 241.569 221.834 253.055 241.853 221.758 235.068 243.37 221.996 
253.137 242.081 221.795 252.436 245.321 222.202 252.26 244.98 222.414 
251.975 246.177 222.388 251.98 246.735 222.167 251.492 247.274 222.393 
232.062 249.82 222.214 231.16 252.108 222.349 230.918 252.719 222.544 
250.209 251.526 222.212 230.028 254.699 222.547 229.736 255.245 222.334 
229.259 256.811 222.386 248.966 255.608 222.119 228.914 258.761 222.372 
228.249 260.355 221.835 228.571 260.646 222.322 228.069 262.104 221.85 
247.849 260.381 222.295 247.407 261.489 222.405 247.751 261.767 221.984 
228.494 264.302 222.719 247.149 263.676 222.066 227.799 265.732 221.848 
228.257 266.02 222.594 236.873 265.986 222.452 232.932 266.736 222.611 
228.128 267.769 222.394 228.426 267.447 222.775 240.759 266.943 222.614 
228.123 268.21 222.316 242.6 268.067 222.098 243.239 268.241 222.235 
228.956 269.054 221.998 229.672 268.816 222.199 243.626 268.601 222.064 
228.619 268.953 222.611 228.983 268.964 222.405 246.658 269.967 221.729 
246.341 270.094 221.78 246.511 270.075 221.758 237.697 240.078 222.298 
236.573 241.038 222.257 237.207 240.937 222.557 240.289 240.887 222.798 
235.687 242.83 222.384 236.321 242.714 222.749 245.497 241.763 222.873 
252.218 241.844 222.09 242.183 242.373 223.306 251.494 242.381 222.5 
249.752 243.912 223.201 234.766 247.317 223.068 251.059 245.189 222.972 
231.998 250.459 222.662 247.683 248.658 223.593 232.081 251.262 223.092 
233.876 253.008 223.931 231.143 253.255 223.055 248.864 251.893 223.021 
230.036 255.052 222.734 248.804 253.864 222.709 229.718 257.361 223.031 
247.198 256.251 223.189 228.99 261.087 222.778 229.349 262.472 223.141 
244.655 261.655 223.518 238.969 262.967 224.032 231.391 263.534 223.813 
229.22 265.996 223.27 228.791 266.76 223.062 229.649 266.305 223.427 
232.614 266.575 222.953 237.498 265.649 223.001 240.776 266.47 223.121 
240.453 266.619 223.012 240.283 266.435 223.15 228.319 268.393 222.625 
228.517 268.07 222.856 228.816 267.658 223.054 240.447 266.532 223.128 
243.84 268.317 222.346 245.334 268.217 222.531 229.375 268.856 222.411 
244.622 268.91 222.119 245.402 269.051 222.177 228.593 268.851 222.834 
228.606 268.98 222.82 228.672 268.972 222.825 228.872 268.884 222.756 
229.267 268.734 222.685 246.138 269.582 222.022 246.459 269.339 222.024 
228.632 268.959 222.877 246.374 269.961 221.887 246.513 269.82 221.891 
232.077 252.022 223.279 232.726 251.95 223.572 231.755 253.117 223.376 
230.924 255.834 223.548 230.637 257.326 223.591 235.219 263.344 224.017 
235.9 264.608 223.643 235.694 265.181 223.318 232.283 266.23 223.277 
229.352 267.635 223.198 230.001 267.355 223.275 231.314 266.961 223.161 
229.328 268.146 223.068 228.746 268.643 222.938 229.057 268.576 222.926 
228.742 268.856 222.892 235.292 262.858 231.044 234.841 264.314 231.227 
235.591 264.866 231.44 237.679 264.786 231.403 231.033 265.963 231.433 
238.556 265.416 231.648 229.788 266.357 231.677 231.394 266.477 231.515 
233.125 266.115 231.707 233.889 266.12 231.931 237.056 265.857 232.205 
229.399 267.644 231.773 230.501 267.206 231.624 231.156 267.143 231.716 
231.868 267.036 231.895 228.905 268.357 231.965 228.864 268.527 232.028 
229.23 268.538 231.899 229.077 268.742 231.959 229.297 268.664 232.107 
228.97 268.787 231.973 236.532 240.724 233.037 240.542 239.961 233.01 
237.47 241.117 232.433 240.94 240.203 232.789 235.763 242.199 232.873 
247.347 241.493 232.731 235.556 242.958 232.697 241.573 242.372 231.763 
236.88 243.664 231.915 246.298 243.219 231.874 235.321 245.933 232.108 
245.82 246.798 231.427 232.422 249.883 233.091 232.392 250.512 232.807 
232.153 251.203 232.799 232.444 251.892 232.376 231.484 252.854 232.863 
235.368 252.245 231.374 231.905 255.646 231.913 229.332 257.615 233.172 
229.288 258.294 232.885 246.312 258.423 231.796 247.627 257.896 232.337 
229.418 262.213 231.979 247.112 262.715 232.637 246.031 264.257 232.081 
239.748 265.412 231.611 246.567 264.93 232.475 228.551 266.589 232.383 
234.037 266.328 232.208 233.729 266.619 232.508 228.337 266.93 232.636 
232.907 266.908 232.389 246.438 267.733 232.765 228.724 268.597 232.339 
228.65 268.698 232.493 245.329 268.825 232.739 245.891 268.712 232.746 
228.755 268.741 232.496 228.976 268.761 232.317 229.019 268.786 232.055 
245.804 269.909 233.31 246.102 269.759 233.222 246.474 269.786 233.293 
237.57 239.708 233.38 237.304 239.612 233.773 238.327 239.398 233.702 
236.134 240.867 233.34 241.779 239.918 233.209 241.544 239.753 233.526 
235.666 241.503 233.47 252.478 241.486 233.678 252.3 241.299 233.759 
[...]
POINT_DATA 689
COLOR_SCALARS scalars 3
1 0.333333 0.278431 1 0.333333 0.278431 1 0.333333 0.278431 
1 0.333333 0.278431 1 0.333333 0.278431 
1 0.333333 0.278431 1 0.333333 0.278431 
1 0.333333 0.278431 1 0.333333 0.278431 
1 0.333333 0.278431 1 0.333333 0.278431 
1 0.333333 0.278431 1 0.333333 0.278431 
1 0.333333 0.278431 1 0.333333 0.278431 
1 0.333333 0.278431 1 0.333333 0.278431 
1 0.333333 0.278431 1 0.333333 0.278431 
1 0.333333 0.278431 1 0.333333 0.278431 
1 0.333333 0.278431 1 0.333333 0.278431 
1 0.333333 0.278431 1 0.333333 0.278431 
1 0.333333 0.278431 1 0.333333 0.278431 
1 0.333333 0.278431 1 0.333333 0.278431 
1 0.333333 0.278431 1 0.333333 0.278431 
1 0.333333 0.278431 1 0.333333 0.278431 
1 0.333333 0.278431 1 0.333333 0.278431 
1 0.333333 0.278431 1 0.333333 0.278431 
1 0.333333 0.278431 1 0.333333 0.278431 
1 0.333333 0.278431 1 0.333333 0.278431 
1 0.333333 0.278431 1 0.333333 0.278431 
1 0.333333 0.278431 1 0.333333 0.278431 
1 0.333333 0.278431 1 0.333333 0.278431 
1 0.333333 0.278431 1 0.333333 0.278431 
1 0.333333 0.278431 1 0.333333 0.278431 
1 0.333333 0.278431 1 0.333333 0.278431 
1 0.333333 0.278431 1 0.333333 0.278431 
1 0.333333 0.278431 1 0.333333 0.278431 
1 0.333333 0.278431 1 0.333333 0.278431 
1 0.333333 0.278431 1 0.333333 0.278431 
1 0.333333 0.278431 1 0.333333 0.278431 
1 0.333333 0.278431 1 0.333333 0.278431 
1 0.333333 0.278431 1 0.333333 0.278431 
1 0.333333 0.278431 1 0.333333 0.278431 
1 0.333333 0.278431 1 0.333333 0.278431 
1 0.333333 0.278431 1 0.333333 0.278431 
1 0.333333 0.278431 1 0.333333 0.278431 
1 0.333333 0.278431 1 0.333333 0.278431 
1 0.333333 0.278431 1 0.333333 0.278431 
1 0.333333 0.278431 1 0.333333 0.278431 
1 0.333333 0.278431 1 0.333333 0.278431 
1 0.333333 0.278431 1 0.333333 0.278431 
1 0.333333 0.278431 1 0.333333 0.278431 
1 0.333333 0.278431 1 0.333333 0.278431 
1 0.333333 0.278431 1 0.333333 0.278431 
1 0.333333 0.278431 1 0.333333 0.278431 
1 0.333333 0.278431 1 0.333333 0.278431 
1 0.333333 0.278431 1 0.333333 0.278431 
1 0.333333 0.278431 1 0.333333 0.278431 
1 0.333333 0.278431 1 0.333333 0.278431 
1 0.333333 0.278431 1 0.333333 0.278431 
1 0.333333 0.278431 1 0.333333 0.278431 
1 0.333333 0.278431 1 0.333333 0.278431 
1 0.333333 0.278431 1 0.333333 0.278431 
1 0.333333 0.278431 1 0.333333 0.278431 
1 0.333333 0.278431 1 0.333333 0.278431 
1 0.333333 0.278431 1 0.333333 0.278431 
1 0.333333 0.278431 1 0.333333 0.278431 
1 0.333333 0.278431 1 0.333333 0.278431 
1 0.333333 0.278431 1 0.333333 0.278431 
1 0.333333 0.278431 1 0.333333 0.278431 
1 0.333333 0.278431 1 0.333333 0.278431 
1 0.333333 0.278431 1 0.333333 0.278431 
1 0.333333 0.278431 1 0.333333 0.278431 
1 0.333333 0.278431 1 0.333333 0.278431 
1 0.333333 0.278431 1 0.333333 0.278431 
1 0.333333 0.278431 1 0.333333 0.278431 
1 0.333333 0.278431 1 0.333333 0.278431 
1 0.333333 0.278431 1 0.333333 0.278431 
1 0.333333 0.278431 1 0.333333 0.278431 
1 0.333333 0.278431 1 0.333333 0.278431 
1 0.333333 0.278431 1 0.333333 0.278431 
1 0.333333 0.278431 1 0.333333 0.278431 
1 0.333333 0.278431 1 0.333333 0.278431 
1 0.333333 0.278431 1 0.333333 0.278431 
1 0.333333 0.278431 1 0.333333 0.278431 
1 0.333333 0.278431 1 0.333333 0.278431 
1 0.333333 0.278431 1 0.333333 0.278431 
1 0.333333 0.278431 1 0.333333 0.278431 
1 0.333333 0.278431 1 0.333333 0.278431 
1 0.333333 0.278431 1 0.333333 0.278431 
1 0.333333 0.278431 1 0.333333 0.278431 
1 0.333333 0.278431 1 0.333333 0.278431 
1 0.333333 0.278431 1 0.333333 0.278431 
1 0.333333 0.278431 1 0.333333 0.278431 
1 0.333333 0.278431 1 0.333333 0.278431 
1 0.333333 0.278431 1 0.333333 0.278431 
1 0.333333 0.278431 1 0.333333 0.278431 
1 0.333333 0.278431 1 0.333333 0.278431 
1 0.333333 0.278431 1 0.333333 0.278431 
1 0.333333 0.278431 1 0.333333 0.278431 
1 0.333333 0.278431 1 0.333333 0.278431 
1 0.333333 0.278431 1 0.333333 0.278431 
1 0.333333 0.278431 1 0.333333 0.278431 
1 0.333333 0.278431 1 0.333333 0.278431 
1 0.333333 0.278431 1 0.333333 0.278431 
1 0.333333 0.278431 1 0.333333 0.278431 
1 0.333333 0.278431 1 0.333333 0.278431 
1 0.333333 0.278431 1 0.333333 0.278431 
1 0.333333 0.278431 1 0.333333 0.278431 
1 0.333333 0.278431 1 0.333333 0.278431 
1 0.333333 0.278431 1 0.333333 0.278431 
1 0.333333 0.278431 1 0.333333 0.278431 
1 0.333333 0.278431 1 0.333333 0.278431 
1 0.333333 0.278431 1 0.333333 0.278431 
1 0.333333 0.278431 1 0.333333 0.278431 
1 0.333333 0.278431 1 0.333333 0.278431 
1 0.333333 0.278431 1 0.333333 0.278431 
1 0.333333 0.278431 1 0.333333 0.278431 
1 0.333333 0.278431 1 0.333333 0.278431 
1 0.333333 0.278431 1 0.333333 0.278431 
1 0.333333 0.278431 1 0.333333 0.278431 
1 0.333333 0.278431 1 0.333333 0.278431 
1 0.333333 0.278431 1 0.333333 0.278431 
1 0.333333 0.278431 1 0.333333 0.278431 
1 0.333333 0.278431 1 0.333333 0.278431 
1 0.333333 0.278431 1 0.333333 0.278431 
1 0.333333 0.278431 1 0.333333 0.278431 
1 0.333333 0.278431 1 0.333333 0.278431 
1 0.333333 0.278431 1 0.333333 0.278431 
1 0.333333 0.278431 1 0.333333 0.278431 
1 0.333333 0.278431 1 0.333333 0.278431 
1 0.333333 0.278431 1 0.333333 0.278431 
1 0.333333 0.278431 1 0.333333 0.278431 
1 0.333333 0.278431 1 0.333333 0.278431 
1 0.333333 0.278431 1 0.333333 0.278431 
1 0.333333 0.278431 1 0.333333 0.278431 
1 0.333333 0.278431 1 0.333333 0.278431 
1 0.333333 0.278431 1 0.333333 0.278431 
1 0.333333 0.278431 1 0.333333 0.278431 
1 0.333333 0.278431 1 0.333333 0.278431 
1 0.333333 0.278431 1 0.333333 0.278431 
1 0.333333 0.278431 1 0.333333 0.278431 
1 0.333333 0.278431 1 0.333333 0.278431 
1 0.333333 0.278431 1 0.333333 0.278431 
1 0.333333 0.278431 1 0.333333 0.278431 
1 0.333333 0.278431 1 0.333333 0.278431 
1 0.333333 0.278431 1 0.333333 0.278431 
1 0.333333 0.278431 1 0.333333 0.278431 
1 0.333333 0.278431 1 0.333333 0.278431 
1 0.333333 0.278431 1 0.333333 0.278431 
1 0.333333 0.278431 1 0.333333 0.278431 
1 0.333333 0.278431 1 0.333333 0.278431 
1 0.333333 0.278431 1 0.333333 0.278431 
1 0.333333 0.278431 1 0.333333 0.278431 
1 0.333333 0.278431 1 0.333333 0.278431 
1 0.333333 0.278431 1 0.333333 0.278431 
1 0.333333 0.278431 1 0.333333 0.278431 
1 0.333333 0.278431 1 0.333333 0.278431 
1 0.333333 0.278431 1 0.333333 0.278431 
1 0.333333 0.278431 1 0.333333 0.278431 
1 0.333333 0.278431 1 0.333333 0.278431 
1 0.333333 0.278431 1 0.333333 0.278431 
1 0.333333 0.278431 1 0.333333 0.278431 
1 0.333333 0.278431 1 0.333333 0.278431 
1 0.333333 0.278431 1 0.333333 0.278431 
1 0.333333 0.278431 1 0.333333 0.278431 
1 0.333333 0.278431 1 0.333333 0.278431 
1 0.333333 0.278431 1 0.333333 0.278431 
1 0.333333 0.278431 1 0.333333 0.278431 
1 0.333333 0.278431 1 0.333333 0.278431 
1 0.333333 0.278431 1 0.333333 0.278431 
1 0.333333 0.278431 1 0.333333 0.278431 
1 0.333333 0.278431 1 0.333333 0.278431 
1 0.333333 0.278431 1 0.333333 0.278431 
1 0.333333 0.278431 1 0.333333 0.278431 
1 0.333333 0.278431 1 0.333333 0.278431 
1 0.333333 0.278431 1 0.333333 0.278431 
1 0.333333 0.278431 1 0.333333 0.278431 
1 0.333333 0.278431 1 0.333333 0.278431 
1 0.333333 0.278431 1 0.333333 0.278431 
1 0.333333 0.278431 1 0.333333 0.278431 
1 0.333333 0.278431 1 0.333333 0.278431 
1 0.333333 0.278431 1 0.333333 0.278431 
1 0.333333 0.278431 1 0.333333 0.278431 
1 0.333333 0.278431 1 0.333333 0.278431 
1 0.333333 0.278431 1 0.333333 0.278431 
1 0.333333 0.278431 1 0.333333 0.278431 
1 0.333333 0.278431 1 0.333333 0.278431 
1 0.333333 0.278431 1 0.333333 0.278431 
1 0.333333 0.278431 1 0.333333 0.278431 
1 0.333333 0.278431 1 0.333333 0.278431 
1 0.333333 0.278431 1 0.333333 0.278431 
1 0.333333 0.278431 1 0.333333 0.278431 
1 0.333333 0.278431 1 0.333333 0.278431 
1 0.333333 0.278431 1 0.333333 0.278431 
1 0.333333 0.278431 1 0.333333 0.278431 
1 0.333333 0.278431 1 0.333333 0.278431 
1 0.333333 0.278431 1 0.333333 0.278431 
1 0.333333 0.278431 1 0.333333 0.278431 
1 0.333333 0.278431 1 0.333333 0.278431 
1 0.333333 0.278431 1 0.333333 0.278431 
1 0.333333 0.278431 1 0.333333 0.278431 
1 0.333333 0.278431 1 0.333333 0.278431 
1 0.333333 0.278431 1 0.333333 0.278431 
1 0.333333 0.278431 1 0.333333 0.278431 
1 0.333333 0.278431 1 0.333333 0.278431 
1 0.333333 0.278431 1 0.333333 0.278431 
1 0.333333 0.278431 1 0.333333 0.278431 
1 0.333333 0.278431 1 0.333333 0.278431 
1 0.333333 0.278431 1 0.333333 0.278431 
1 0.333333 0.278431 1 0.333333 0.278431 
1 0.333333 0.278431 1 0.333333 0.278431 
1 0.333333 0.278431 1 0.333333 0.278431 
1 0.333333 0.278431 1 0.333333 0.278431 
1 0.333333 0.278431 1 0.333333 0.278431 
1 0.333333 0.278431 1 0.333333 0.278431 
1 0.333333 0.278431 1 0.333333 0.278431 
1 0.333333 0.278431 1 0.333333 0.278431 
1 0.333333 0.278431 1 0.333333 0.278431 
1 0.333333 0.278431 1 0.333333 0.278431 
1 0.333333 0.278431 1 0.333333 0.278431 
1 0.333333 0.278431 1 0.333333 0.278431 
1 0.333333 0.278431 1 0.333333 0.278431 
1 0.333333 0.278431 1 0.333333 0.278431 
1 0.333333 0.278431 1 0.333333 0.278431 
1 0.333333 0.278431 1 0.333333 0.278431 
1 0.333333 0.278431 1 0.333333 0.278431 
1 0.333333 0.278431 1 0.333333 0.278431 
1 0.333333 0.278431 1 0.333333 0.278431 
1 0.333333 0.278431 1 0.333333 0.278431 
1 0.333333 0.278431 1 0.333333 0.278431 
1 0.333333 0.278431 1 0.333333 0.278431 
1 0.333333 0.278431 1 0.333333 0.278431 
1 0.333333 0.278431 1 0.333333 0.278431 
1 0.333333 0.278431 1 0.333333 0.278431 
1 0.333333 0.278431 1 0.333333 0.278431 
1 0.333333 0.278431 1 0.333333 0.278431 
1 0.333333 0.278431 1 0.333333 0.278431 
1 0.333333 0.278431 1 0.333333 0.278431 
1 0.333333 0.278431 1 0.333333 0.278431 
1 0.333333 0.278431 1 0.333333 0.278431 
1 0.333333 0.278431 1 0.333333 0.278431 
1 0.333333 0.278431 1 0.333333 0.278431 
1 0.333333 0.278431 1 0.333333 0.278431 
1 0.333333 0.278431 1 0.333333 0.278431 
1 0.333333 0.278431 1 0.333333 0.278431 
1 0.333333 0.278431 1 0.333333 0.278431 
1 0.333333 0.278431 1 0.333333 0.278431 
1 0.333333 0.278431 1 0.333333 0.278431 
1 0.333333 0.278431 1 0.333333 0.278431 
1 0.333333 0.278431 1 0.333333 0.278431 
1 0.333333 0.278431 1 0.333333 0.278431 
1 0.333333 0.278431 1 0.333333 0.278431 
1 0.333333 0.278431 1 0.333333 0.278431 
1 0.333333 0.278431 1 0.333333 0.278431 
1 0.333333 0.278431 1 0.333333 0.278431 
1 0.333333 0.278431 1 0.333333 0.278431 
1 0.333333 0.278431 1 0.333333 0.278431 
1 0.333333 0.278431 1 0.333333 0.278431 
1 0.333333 0.278431 1 0.333333 0.278431 
1 0.333333 0.278431 1 0.333333 0.278431 
1 0.333333 0.278431 1 0.333333 0.278431 
1 0.333333 0.278431 1 0.333333 0.278431 
1 0.333333 0.278431 1 0.333333 0.278431 
1 0.333333 0.278431 1 0.333333 0.278431 
1 0.333333 0.278431 1 0.333333 0.278431 
1 0.333333 0.278431 1 0.333333 0.278431 
1 0.333333 0.278431 1 0.333333 0.278431 
1 0.333333 0.278431 1 0.333333 0.278431 
1 0.333333 0.278431 1 0.333333 0.278431 
1 0.333333 0.278431 1 0.333333 0.278431 
1 0.333333 0.278431 1 0.333333 0.278431 
1 0.333333 0.278431 1 0.333333 0.278431 
1 0.333333 0.278431 1 0.333333 0.278431 
1 0.333333 0.278431 1 0.333333 0.278431 
1 0.333333 0.278431 1 0.333333 0.278431 
1 0.333333 0.278431 1 0.333333 0.278431 
1 0.333333 0.278431 1 0.333333 0.278431 
1 0.333333 0.278431 1 0.333333 0.278431 
1 0.333333 0.278431 1 0.333333 0.278431 
1 0.333333 0.278431 1 0.333333 0.278431 
1 0.333333 0.278431 1 0.333333 0.278431 
1 0.333333 0.278431 1 0.333333 0.278431 
1 0.333333 0.278431 1 0.333333 0.278431 
1 0.333333 0.278431 1 0.333333 0.278431 
1 0.333333 0.278431 1 0.333333 0.278431 
1 0.333333 0.278431 1 0.333333 0.278431 
1 0.333333 0.278431 1 0.333333 0.278431 
1 0.333333 0.278431 1 0.333333 0.278431 
1 0.333333 0.278431 1 0.333333 0.278431 
1 0.333333 0.278431 1 0.333333 0.278431 
1 0.333333 0.278431 1 0.333333 0.278431 
1 0.333333 0.278431 1 0.333333 0.278431 
1 0.333333 0.278431 1 0.333333 0.278431 
1 0.333333 0.278431 1 0.333333 0.278431 
1 0.333333 0.278431 1 0.333333 0.278431 
1 0.333333 0.278431 1 0.333333 0.278431 
1 0.333333 0.278431 1 0.333333 0.278431 
1 0.333333 0.278431 1 0.333333 0.278431 
1 0.333333 0.278431 1 0.333333 0.278431 
1 0.333333 0.278431 1 0.333333 0.278431 
1 0.333333 0.278431 1 0.333333 0.278431 
1 0.333333 0.278431 1 0.333333 0.278431 
1 0.333333 0.278431 1 0.333333 0.278431 
1 0.333333 0.278431 1 0.333333 0.278431 
1 0.333333 0.278431 1 0.333333 0.278431 
1 0.333333 0.278431 1 0.333333 0.278431 
1 0.333333 0.278431 1 0.333333 0.278431 
1 0.333333 0.278431 1 0.333333 0.278431 
1 0.333333 0.278431 1 0.333333 0.278431 
1 0.333333 0.278431 1 0.333333 0.278431 
1 0.333333 0.278431 1 0.333333 0.278431 
1 0.333333 0.278431 1 0.333333 0.278431 
1 0.333333 0.278431 1 0.333333 0.278431 
1 0.333333 0.278431 1 0.333333 0.278431 
1 0.333333 0.278431 1 0.333333 0.278431 
1 0.333333 0.278431 1 0.333333 0.278431 
1 0.333333 0.278431 1 0.333333 0.278431 
1 0.333333 0.278431 1 0.333333 0.278431 
1 0.333333 0.278431 1 0.333333 0.278431 
1 0.333333 0.278431 1 0.333333 0.278431 
1 0.333333 0.278431 1 0.333333 0.278431 
1 0.333333 0.278431 1 0.333333 0.278431 
1 0.333333 0.278431 1 0.333333 0.278431 
1 0.333333 0.278431 1 0.333333 0.278431 
1 0.333333 0.278431 1 0.333333 0.278431 
1 0.333333 0.278431 1 0.333333 0.278431 
1 0.333333 0.278431 1 0.333333 0.278431 
1 0.333333 0.278431 1 0.333333 0.278431 
1 0.333333 0.278431 1 0.333333 0.278431 
1 0.333333 0.278431 1 0.333333 0.278431 
1 0.333333 0.278431 1 0.333333 0.278431 
1 0.333333 0.278431 1 0.333333 0.278431 
1 0.333333 0.278431 1 0.333333 0.278431 
1 0.333333 0.278431 1 0.333333 0.278431 
1 0.333333 0.278431 1 0.333333 0.278431 
1 0.333333 0.278431 1 0.333333 0.278431 
1 0.333333 0.278431 1 0.333333 0.278431 
1 0.333333 0.278431 1 0.333333 0.278431 
1 0.333333 0.278431 1 0.333333 0.278431 
1 0.333333 0.278431 1 0.333333 0.278431 
1 0.333333 0.278431 1 0.333333 0.278431 
1 0.333333 0.278431 1 0.333333 0.278431 
1 0.333333 0.278431 1 0.333333 0.278431 
1 0.333333 0.278431 1 0.333333 0.278431 
1 0.333333 0.278431 1 0.333333 0.278431 
1 0.333333 0.278431 1 0.333333 0.278431 
1 0.333333 0.278431 1 0.333333 0.278431 
1 0.333333 0.278431 1 0.333333 0.278431 
1 0.333333 0.278431 1 0.333333 0.278431 
1 0.333333 0.278431 1 0.333333 0.278431 
1 0.333333 0.278431 1 0.333333 0.278431 
1 0.333333 0.278431 1 0.333333 0.278431 

NORMALS Normals float
-0.102582 -0.122041 -0.98721 0.0562717 -0.0626409 -0.996448 0.10619 0.276936 -0.955003 
0.245054 0.00363624 -0.969503 -0.446558 0.0455822 -0.893593 -0.106002 0.266962 -0.95786 
0.176696 0.372383 -0.911104 -0.683074 0.350241 -0.640891 -0.671442 0.720975 -0.171348 
-0.238238 0.27212 -0.932305 -0.0744988 0.371576 -0.925408 0.0764188 0.572798 -0.816127 
-0.393516 0.913899 0.0996694 -0.0167173 0.500601 -0.865516 0.166618 0.908505 -0.38322 
0.181206 0.622381 -0.76145 -0.304299 0.823011 -0.479641 -0.327714 -0.24547 -0.912331 
0.211529 0.0503577 -0.976073 0.196435 -0.0154757 -0.980395 -0.852714 0.028727 -0.521587 
0.290951 0.0955572 -0.951954 -0.6893 0.314284 -0.652756 0.222822 0.449916 -0.864827 
-0.395156 0.877552 0.271576 -0.549306 0.367091 -0.750671 -0.40501 0.867588 -0.288546 
-0.364955 0.728327 -0.579955 -0.0551614 0.972992 0.224152 0.0426444 0.991434 0.123449 
0.229388 0.886469 -0.401938 0.166509 0.918846 -0.357765 -0.842561 0.204107 -0.498428 
-0.527077 0.844401 -0.0957937 -0.231841 -0.103508 -0.967231 -0.0234769 -0.000181697 -0.999724 
-0.157925 -0.0916412 -0.98319 -0.612058 -0.153494 -0.775774 -0.699235 -0.247249 -0.670775 
-0.868822 -0.104643 -0.483941 -0.963381 0.148506 -0.223256 0.138903 0.983157 0.118781 
-0.0802812 0.923368 0.375427 0.165656 0.770342 -0.615736 -0.863802 0.502653 -0.0344275 
0.198027 0.93823 0.283743 0.0611144 0.996033 -0.0646704 0.319762 0.680972 -0.65881 
-0.205688 0.973893 0.09605 -0.191942 0.98049 -0.0423983 0.00310346 0.984946 -0.172837 
-0.140097 -0.738044 -0.660048 -0.14683 -0.596085 -0.789382 -0.113871 -0.835379 -0.53775 
-0.259715 -0.400911 -0.878532 0.142651 -0.653969 -0.74295 0.0372733 -0.540173 -0.840728 
0.226206 -0.696372 -0.6811 0.167371 -0.748265 -0.64194 0.100817 -0.457196 -0.883633 
0.12535 -0.781796 -0.610804 0.194956 -0.606191 -0.771054 0.250852 -0.429048 -0.867751 
0.0183199 -0.161622 -0.986683 0.295391 -0.0901994 -0.951109 0.130046 -0.0956944 -0.986879 
-0.401545 -0.248662 -0.881436 -0.669945 -0.295167 -0.681212 0.330136 0.0835466 -0.940229 
0.288657 0.0897894 -0.953213 -0.869984 -0.270392 -0.412329 0.462994 0.217948 -0.859148 
-0.850891 -0.167553 -0.497906 -0.903826 -0.146477 -0.402049 -0.987691 -0.0259149 -0.154255 
0.0338822 0.876025 0.481074 0.267298 0.386087 -0.882887 0.525756 0.0388788 -0.849747 
-0.248287 0.960666 0.124399 0.0449917 0.605689 -0.794429 0.273573 0.378327 -0.884323 
-0.0958448 0.905247 -0.413935 0.185026 0.875413 -0.446562 -0.0884552 0.783565 -0.614981 
-0.453038 0.887199 0.08737 0.230003 0.61569 -0.753674 0.107308 -0.891174 -0.440788 
0.0685818 -0.838889 -0.539964 0.105757 -0.874814 -0.472775 -0.404914 -0.622112 -0.670091 
-0.506692 -0.496902 -0.704522 0.3609 -0.710218 -0.604436 0.600807 -0.245281 -0.760834 
0.86581 -0.181693 -0.466219 -0.676671 -0.364067 -0.639978 0.526572 0.0215665 -0.849857 
0.861992 0.0890074 -0.499046 -0.787008 -0.311134 -0.532742 0.389291 0.0995031 -0.915725 
0.599307 0.159329 -0.784503 0.718824 0.125576 -0.683756 0.653582 0.221938 -0.723584 
-0.843807 -0.338663 -0.416291 0.587053 0.199934 -0.784471 0.798655 0.229245 -0.556415 
0.672537 0.145737 -0.725572 -0.978697 -0.180446 -0.0979397 0.692906 0.0895794 -0.715441 
0.0181437 0.862998 0.504881 -0.992312 0.120597 -0.0278113 0.593755 0.193857 -0.780945 
0.743888 0.0193582 -0.668024 0.927136 0.00665747 -0.374665 0.876821 0.123517 -0.464681 
0.520727 0.238054 -0.819862 0.714772 0.208295 -0.667618 -0.0850308 0.872146 -0.4818 
-0.169136 0.970166 -0.173696 0.516491 0.444404 -0.731944 0.311799 0.793579 -0.522506 
-0.279217 -0.938512 -0.203062 -0.57586 -0.81616 -0.0476281 -0.0218077 -0.953925 -0.299253 
-0.0668683 -0.978889 -0.193146 -0.400637 -0.77053 -0.495756 -0.812465 -0.578458 0.0727064 
-0.727126 -0.576557 -0.372652 -0.00244987 -0.999583 -0.028778 -0.847407 -0.442223 -0.293838 
0.180777 -0.956637 0.228397 0.128225 -0.991514 -0.0213933 0.182643 -0.928029 -0.324659 
0.706168 -0.634891 -0.313432 0.38008 -0.919101 -0.103886 0.713625 -0.7003 0.01785 
0.896245 -0.406999 -0.176344 0.952502 0.0643961 -0.297645 -0.790092 -0.384495 -0.477408 
-0.908713 -0.409571 -0.080577 -0.869742 -0.340401 -0.357317 -0.923309 -0.295443 -0.245386 
0.772062 0.13876 -0.620214 0.915423 0.252025 -0.313821 0.868277 0.252267 -0.427149 
-0.882163 -0.415718 -0.221285 0.934688 0.309251 -0.175278 -0.922169 -0.341855 -0.180942 
0.851205 0.237344 -0.4681 0.949978 0.204366 -0.236169 0.946615 0.224875 -0.23098 
0.970319 0.238688 -0.0388461 -0.965662 -0.224879 0.1301 0.87862 0.228511 -0.419297 
0.967586 0.237536 0.0857605 0.975364 0.165507 -0.14585 0.970203 0.231495 0.0715212 
-0.99473 0.0102707 0.102012 -0.108544 0.97155 -0.210498 0.976861 0.14408 -0.158063 
0.762017 0.440841 -0.474331 0.908079 0.395362 -0.138135 0.175358 0.947525 -0.267292 
-0.509416 -0.717235 0.475468 -0.127282 -0.848584 0.513521 0.0286028 -0.977579 0.20862 
-0.738996 -0.486753 0.465786 0.121213 -0.964285 0.235505 0.0106157 -0.742937 0.669277 
0.138935 -0.832609 0.536152 0.291543 -0.932453 0.213388 0.56543 -0.781486 0.263759 
0.726689 -0.681211 0.0887442 0.924186 -0.280402 -0.259337 0.835073 -0.479288 0.270067 
-0.854081 -0.517261 -0.054651 0.979672 0.103793 -0.17167 0.968417 -0.0388555 0.246291 
-0.833092 -0.466611 0.297038 0.963001 0.224086 0.149713 -0.917448 -0.389567 -0.0807838 
-0.846332 -0.358464 0.393988 0.892194 0.188074 0.410631 0.90411 0.322793 0.279983 
0.978099 0.207273 0.0189888 -0.867363 -0.490895 -0.0818795 -0.891067 -0.416667 0.179968 
-0.929702 -0.364199 0.0548858 0.917254 0.348454 0.192938 0.79989 0.37116 0.471611 
-0.932061 -0.347547 0.102344 0.955771 0.290843 0.0437343 0.803569 0.257437 0.536659 
-0.961713 -0.273628 -0.0153361 -0.943914 -0.242098 0.224533 0.941867 0.187993 0.278468 
-0.810872 -0.253865 0.527295 0.953141 0.233059 0.192886 0.894359 0.221399 0.388722 