# vtk DataFile Version 4.2
vtk output
ASCII
DATASET POLYDATA
POINTS 984 float
467.921 272.264 134.782 467.427 272.374 134.8 469.154 272.109 135.014 
470.829 272.58 134.777 470.86 272.376 134.956 471.186 272.751 134.799 
466.465 271.831 135.166 464.011 272.12 135.324 464.205 271.892 135.379 
468.805 271.808 135.456 472.095 272.797 134.991 475.83 272.929 135.432 
475.767 272.729 135.591 476.303 272.87 135.62 465.395 272.72 135.107 
465.662 272.994 135.169 466.113 272.697 135.01 472.016 273.234 134.952 
475.565 273.145 135.337 469.552 273.498 134.994 472.462 273.574 135.093 
459.499 271.824 136.765 459.844 271.991 136.559 461.504 272.173 136.115 
470.75 271.918 135.873 475.646 272.511 135.906 477.041 273.011 135.815 
478.018 273.03 136.123 478.257 272.828 136.374 461.35 272.603 136.167 
479.572 273.468 136.452 463.48 273.112 135.802 465.521 273.427 135.495 
476.926 273.893 135.801 477.815 273.736 135.964 480.017 273.662 136.562 
467.426 274.259 135.876 475.518 274.309 135.807 458.292 271.883 137.24 
469 271.551 136.85 475.398 272.348 136.243 478.707 272.788 136.669 
478.725 272.685 136.97 457.987 272.262 137.404 459.39 272.729 136.856 
458.916 272.873 137.144 460.9 272.89 136.422 480.981 273.709 136.927 
483.885 273.842 137.568 483.857 273.61 137.741 479.124 274.034 136.335 
483.015 274.407 137.397 484.325 273.963 137.646 456.369 271.658 138.506 
456.157 271.836 138.546 473.502 272.078 136.987 457.109 272.407 137.953 
481.809 273.093 137.87 485.219 273.918 137.949 488.48 273.874 138.619 
488.511 273.716 138.783 488.857 273.836 138.798 458.661 273.195 137.55 
488.743 273.991 138.693 455.972 271.666 138.887 457.667 271.124 138.854 
461.756 270.976 138.023 455.8 271.934 138.827 455.642 271.793 139.035 
455.475 271.929 139.165 475.173 272.323 138.294 489.243 274.004 138.951 
489.779 273.909 139.284 459.094 273.928 138.174 483.544 275.091 137.776 
478.831 275.999 137.715 483.516 275.502 138.065 486.059 275.52 138.629 
455.52 271.699 139.409 455.161 271.743 139.861 457.384 271.047 139.518 
455.151 272 139.61 454.922 271.897 140.05 466.822 271.476 138.822 
455.026 272.374 139.735 455.272 272.607 139.493 475.937 272.527 139.007 
489.456 273.515 139.697 490.201 273.768 139.742 487.341 275.243 138.763 
455.009 271.722 140.253 454.989 271.647 140.822 481.499 272.996 139.795 
456.61 274.252 140.438 454.448 272.302 141.457 454.592 272.659 140.74 
474.277 272.903 140.52 490.448 273.425 141.002 494.021 274.115 141.938 
493.491 274.737 141.331 495.277 275.423 142.29 494.667 275.684 142.078 
455.562 271.333 141.842 454.371 272.485 141.982 488.983 273.335 141.747 
496.007 275.081 142.68 496.382 275.009 143.032 496.187 275.388 142.755 
495.966 275.703 142.708 454.68 271.862 142.809 454.583 272.133 143.3 
492.149 273.642 142.445 493.855 273.897 142.567 454.663 273.888 142.853 
454.979 274.247 142.808 456.059 274.953 142.713 488.171 274.079 143.56 
497.91 276.189 144.118 496.087 276.539 143.145 493.113 277.684 142.804 
454.871 271.821 143.17 455.712 271.688 143.797 492.78 273.956 143.815 
494.578 274.119 143.86 495.42 274.278 143.905 496.72 274.754 143.876 
454.476 273.918 143.68 498.504 275.429 144.975 499.374 276.805 145.167 
455.551 271.947 144.567 454.253 273.908 145.222 454.482 274.225 144.478 
499.857 275.992 145.537 500.258 275.858 145.975 500.667 276.05 146.144 
500.285 276.272 145.734 497.671 277.866 144.756 454.624 272.779 145.848 
454.983 272.446 145.541 456.663 272.187 145.928 454.212 273.536 145.589 
454.215 273.867 145.979 499.528 275.436 146.253 500.217 275.678 146.343 
501.254 276.093 146.889 501.209 276.708 146.478 501.775 276.498 147.122 
454.461 273.096 146.212 454.674 272.923 146.407 455.537 272.382 145.979 
467.747 274.768 146.646 499.468 275.405 146.873 500.867 275.838 146.931 
503.049 276.821 148.061 501.598 278.421 147.212 454.925 272.92 146.754 
455.187 273.145 147.408 457.115 272.693 147.297 454.31 274.26 147.276 
501.621 276.018 148.178 454.96 275.486 147.32 455.792 276.247 147.691 
504.279 277.644 148.756 504.975 277.55 149.235 454.577 274.205 148.289 
454.415 274.29 147.862 454.477 274.659 148.096 500.032 275.988 148.932 
504.432 276.912 149.188 504.19 276.742 149.305 506.273 277.68 150.157 
505.791 278.311 149.665 506.777 278.192 150.235 471.514 282.148 149.45 
479.451 283.201 148.548 456.917 273.662 149.068 454.818 274.36 148.721 
455.097 274.107 148.86 454.652 274.871 148.45 455.172 275.372 149.253 
504.184 276.654 149.871 506.995 278.425 150.367 507.379 278.514 150.614 
505.098 279.648 149.784 503.106 280.841 149.54 455.647 274.168 149.254 
455.759 274.77 149.848 455.855 275.258 150.279 508.324 277.881 151.604 
466.094 277.797 151.406 509.598 278.371 152.038 507.646 279.412 151.034 
469.367 282.095 151.279 486.388 284.837 151.041 499.31 284.28 151.322 
461.179 275.926 151.641 456.428 276.621 151.154 510.517 278.678 152.44 
510.838 278.654 152.669 459.226 278.75 151.295 495.104 278.747 151.245 
509.919 279.308 152.158 466.748 279.394 152.461 471.976 280.993 152.377 
473.236 283.278 151.712 474.618 283.654 151.988 498.766 284.654 151.712 
483.269 284.681 151.837 488.875 285.113 151.643 491.248 285.183 151.875 
492.888 285.07 151.727 497.138 284.894 151.885 456.783 276.543 151.881 
504.292 277.595 152.541 512.196 278.279 153.855 456.836 276.995 151.691 
457.192 277.415 151.92 511.538 278.95 153.091 511.644 279.443 153.153 
459.239 278.736 152.214 510.953 280.132 153.032 512.434 279.973 153.66 
466.03 281.268 152.607 473.754 281.542 152.592 508.408 281.949 152.936 
469.198 282.071 152.34 470.267 282.32 152.864 505.81 283.691 153.22 
477.732 284.182 152.288 503.374 284.433 152.995 484.203 284.75 152.276 
484.991 284.857 152.55 485.797 285.009 152.183 487.508 285.134 152.184 
495.498 285.047 152.364 485.507 284.967 152.497 487.032 285.064 152.579 
494.911 285.009 152.816 457.474 276.396 152.245 456.773 276.735 151.86 
457.098 276.848 152.12 459.157 276.827 152.785 508.087 277.756 153.575 
509.591 277.797 153.675 510.371 277.888 153.691 511.246 278.021 153.855 
512.58 278.217 154.506 457.269 277.279 152.178 457.476 277.584 152.18 
504.617 278.222 153.509 508.455 277.984 154.174 514.517 278.754 154.874 
515.531 279.112 154.981 515.423 278.923 155.119 515.919 279.071 155.229 
457.96 277.89 152.311 458.518 278.117 152.647 515.913 279.288 155.125 
466.263 280.091 153.034 510.189 281.178 153.25 464.858 280.781 152.863 
469.003 281.706 152.807 489.279 282.024 153.047 495.025 281.677 153.395 
497.512 281.632 153.889 467.988 281.66 152.745 470.751 282.549 153.175 
470.72 282.623 153.177 470.909 282.269 153.09 494.724 282.329 153.626 
476.593 283.136 153.076 474.145 283.579 152.836 476.911 284.016 152.65 
479.483 284.148 152.754 483.474 284.449 152.725 485.541 284.652 153.007 
485.987 284.869 152.891 489.225 284.932 152.931 494.258 284.832 153.173 
457.63 277.233 152.476 458.187 277.242 152.748 509.713 277.883 154.116 
511.088 278.02 154.344 460.184 277.919 153.354 460.967 277.981 153.399 
461.817 278.038 153.364 508.294 278.292 154.648 516.48 279.234 155.498 
517.071 279.272 155.856 458.977 278.116 152.988 459.582 278.319 153.255 
462.342 278.614 153.528 517.719 279.444 156.276 460.679 279.266 153.186 
460.794 279.168 153.34 464.117 279.207 153.378 503.738 280.085 154.889 
516.736 279.994 155.624 517.773 279.785 156.159 463.481 280.239 153.153 
465.185 280.276 153.315 464.991 280.508 153.23 467.452 281.242 153.078 
467.485 281.435 153.016 466.463 281.224 153.089 470.837 282.669 153.214 
470.976 282.681 153.262 495.41 282.835 153.882 471.083 282.754 153.204 
474.575 283.481 153.115 477.378 283.542 153.062 485.349 283.946 153.261 
494.205 283.562 153.782 473.48 283.354 153.155 477.312 283.848 152.952 
482.824 284.085 152.981 493.909 284.098 153.666 496.315 283.913 154.08 
494.662 284.497 153.547 497.17 284.215 154.248 497.553 284.465 154.232 
504.383 284.98 154.476 503 285.069 154.688 509.652 278.39 155.124 
511.463 278.487 155.607 514.152 278.537 156.078 516.821 278.996 156.095 
461.433 278.919 153.53 462.959 279.079 153.545 518.631 279.888 156.671 
519.541 280.04 157.084 461.327 279.252 153.406 463.046 279.589 153.469 
518.579 280.34 156.611 520.127 280.361 157.332 519.589 280.638 157.118 
466.746 281.211 153.151 467.101 281.283 153.118 503.669 281.738 155.882 
471.218 282.742 153.271 500.018 282.996 155.038 473.79 283.346 153.235 
474.16 283.378 153.218 500.957 283.55 155.417 504.907 285.053 154.978 
506.468 284.958 155.287 521.381 280.249 157.992 521.256 280.036 158.083 
520.729 280.385 157.6 517.675 281.437 156.684 519.438 281.053 157.213 
521.344 280.719 157.972 503.505 284.14 156.249 504.907 284.713 156.705 
505.162 284.981 156.422 519.584 279.487 158.163 520.375 279.663 158.242 
522.39 280.223 158.793 522.291 280.601 158.551 522.724 280.446 159.017 
523.078 280.844 159.292 522.326 280.929 158.655 522.823 281.007 159.045 
508.262 281.681 157.778 510.728 285.044 156.855 505.277 284.544 157.063 
522.577 280.251 158.985 522.707 280.337 159.255 523.325 280.876 159.588 
523.128 280.658 159.523 523.467 280.96 159.864 523.142 281.653 159.558 
513.886 285.56 158.643 507.428 285.284 157.991 509.716 286.174 158.28 
511.037 286.479 158.981 512.254 286.518 159.275 520.117 279.779 159.284 
520.936 279.885 159.319 522.32 280.19 159.338 519.875 280.021 159.835 
523.35 280.809 159.937 523.546 281.02 160.13 523.714 281.409 160.345 
509.276 283.809 159.348 508.308 284.796 158.941 508.905 284.524 159.289 
507.943 285.142 158.598 513.379 286.418 159.437 509.596 286.246 159.344 
511.377 286.605 159.349 512.7 286.622 159.659 509.939 286.396 159.384 
511.505 286.64 159.815 521.353 280.459 160.469 523.446 281.011 160.407 
516.307 281.113 160.531 524.189 282.208 161.117 524.261 282.257 161.39 
509.36 285.536 159.556 510.095 285.94 159.967 510.673 286.171 160.299 
511.028 286.356 160.38 514.846 286.729 160.825 514.437 286.778 161.057 
523.195 281.328 161.355 524.002 281.699 161.35 520.869 281.584 161.991 
524.101 281.954 161.61 524.295 282.831 161.584 511.47 285.136 160.836 
[...]
POINT_DATA 984
COLOR_SCALARS scalars 3
0.8 0.8 0.8 0.8 0.8 0.8 0.8 0.8 0.8 
0.8 0.8 0.8 0.8 0.8 0.8 
0.8 0.8 0.8 0.8 0.8 0.8 
0.8 0.8 0.8 0.8 0.8 0.8 
0.8 0.8 0.8 0.8 0.8 0.8 
0.8 0.8 0.8 0.8 0.8 0.8 
0.8 0.8 0.8 0.8 0.8 0.8 
0.8 0.8 0.8 0.8 0.8 0.8 
0.8 0.8 0.8 0.8 0.8 0.8 
0.8 0.8 0.8 0.8 0.8 0.8 
0.8 0.8 0.8 0.8 0.8 0.8 
0.8 0.8 0.8 0.8 0.8 0.8 
0.8 0.8 0.8 0.8 0.8 0.8 
0.8 0.8 0.8 0.8 0.8 0.8 
0.8 0.8 0.8 0.8 0.8 0.8 
0.8 0.8 0.8 0.8 0.8 0.8 
0.8 0.8 0.8 0.8 0.8 0.8 
0.8 0.8 0.8 0.8 0.8 0.8 
0.8 0.8 0.8 0.8 0.8 0.8 
0.8 0.8 0.8 0.8 0.8 0.8 
0.8 0.8 0.8 0.8 0.8 0.8 
0.8 0.8 0.8 0.8 0.8 0.8 
0.8 0.8 0.8 0.8 0.8 0.8 
0.8 0.8 0.8 0.8 0.8 0.8 
0.8 0.8 0.8 0.8 0.8 0.8 
0.8 0.8 0.8 0.8 0.8 0.8 
0.8 0.8 0.8 0.8 0.8 0.8 
0.8 0.8 0.8 0.8 0.8 0.8 
0.8 0.8 0.8 0.8 0.8 0.8 
0.8 0.8 0.8 0.8 0.8 0.8 
0.8 0.8 0.8 0.8 0.8 0.8 
0.8 0.8 0.8 0.8 0.8 0.8 
0.8 0.8 0.8 0.8 0.8 0.8 
0.8 0.8 0.8 0.8 0.8 0.8 
0.8 0.8 0.8 0.8 0.8 0.8 
0.8 0.8 0.8 0.8 0.8 0.8 
0.8 0.8 0.8 0.8 0.8 0.8 
0.8 0.8 0.8 0.8 0.8 0.8 
0.8 0.8 0.8 0.8 0.8 0.8 
0.8 0.8 0.8 0.8 0.8 0.8 
0.8 0.8 0.8 0.8 0.8 0.8 
0.8 0.8 0.8 0.8 0.8 0.8 
0.8 0.8 0.8 0.8 0.8 0.8 
0.8 0.8 0.8 0.8 0.8 0.8 
0.8 0.8 0.8 0.8 0.8 0.8 
0.8 0.8 0.8 0.8 0.8 0.8 
0.8 0.8 0.8 0.8 0.8 0.8 
0.8 0.8 0.8 0.8 0.8 0.8 
0.8 0.8 0.8 0.8 0.8 0.8 
0.8 0.8 0.8 0.8 0.8 0.8 
0.8 0.8 0.8 0.8 0.8 0.8 
0.8 0.8 0.8 0.8 0.8 0.8 
0.8 0.8 0.8 0.8 0.8 0.8 
0.8 0.8 0.8 0.8 0.8 0.8 
0.8 0.8 0.8 0.8 0.8 0.8 
0.8 0.8 0.8 0.8 0.8 0.8 
0.8 0.8 0.8 0.8 0.8 0.8 
0.8 0.8 0.8 0.8 0.8 0.8 
0.8 0.8 0.8 0.8 0.8 0.8 
0.8 0.8 0.8 0.8 0.8 0.8 
0.8 0.8 0.8 0.8 0.8 0.8 
0.8 0.8 0.8 0.8 0.8 0.8 
0.8 0.8 0.8 0.8 0.8 0.8 
0.8 0.8 0.8 0.8 0.8 0.8 
0.8 0.8 0.8 0.8 0.8 0.8 
0.8 0.8 0.8 0.8 0.8 0.8 
0.8 0.8 0.8 0.8 0.8 0.8 
0.8 0.8 0.8 0.8 0.8 0.8 
0.8 0.8 0.8 0.8 0.8 0.8 
0.8 0.8 0.8 0.8 0.8 0.8 
0.8 0.8 0.8 0.8 0.8 0.8 
0.8 0.8 0.8 0.8 0.8 0.8 
0.8 0.8 0.8 0.8 0.8 0.8 
0.8 0.8 0.8 0.8 0.8 0.8 
0.8 0.8 0.8 0.8 0.8 0.8 
0.8 0.8 0.8 0.8 0.8 0.8 
0.8 0.8 0.8 0.8 0.8 0.8 
0.8 0.8 0.8 0.8 0.8 0.8 
0.8 0.8 0.8 0.8 0.8 0.8 
0.8 0.8 0.8 0.8 0.8 0.8 
0.8 0.8 0.8 0.8 0.8 0.8 
0.8 0.8 0.8 0.8 0.8 0.8 
0.8 0.8 0.8 0.8 0.8 0.8 
0.8 0.8 0.8 0.8 0.8 0.8 
0.8 0.8 0.8 0.8 0.8 0.8 
0.8 0.8 0.8 0.8 0.8 0.8 
0.8 0.8 0.8 0.8 0.8 0.8 
0.8 0.8 0.8 0.8 0.8 0.8 
0.8 0.8 0.8 0.8 0.8 0.8 
0.8 0.8 0.8 0.8 0.8 0.8 
0.8 0.8 0.8 0.8 0.8 0.8 
0.8 0.8 0.8 0.8 0.8 0.8 
0.8 0.8 0.8 0.8 0.8 0.8 
0.8 0.8 0.8 0.8 0.8 0.8 
0.8 0.8 0.8 0.8 0.8 0.8 
0.8 0.8 0.8 0.8 0.8 0.8 
0.8 0.8 0.8 0.8 0.8 0.8 
0.8 0.8 0.8 0.8 0.8 0.8 
0.8 0.8 0.8 0.8 0.8 0.8 
0.8 0.8 0.8 0.8 0.8 0.8 
0.8 0.8 0.8 0.8 0.8 0.8 
0.8 0.8 0.8 0.8 0.8 0.8 
0.8 0.8 0.8 0.8 0.8 0.8 
0.8 0.8 0.8 0.8 0.8 0.8 
0.8 0.8 0.8 0.8 0.8 0.8 
0.8 0.8 0.8 0.8 0.8 0.8 
0.8 0.8 0.8 0.8 0.8 0.8 
0.8 0.8 0.8 0.8 0.8 0.8 
0.8 0.8 0.8 0.8 0.8 0.8 
0.8 0.8 0.8 0.8 0.8 0.8 
0.8 0.8 0.8 0.8 0.8 0.8 
0.8 0.8 0.8 0.8 0.8 0.8 
0.8 0.8 0.8 0.8 0.8 0.8 
0.8 0.8 0.8 0.8 0.8 0.8 
0.8 0.8 0.8 0.8 0.8 0.8 
0.8 0.8 0.8 0.8 0.8 0.8 
0.8 0.8 0.8 0.8 0.8 0.8 
0.8 0.8 0.8 0.8 0.8 0.8 
0.8 0.8 0.8 0.8 0.8 0.8 
0.8 0.8 0.8 0.8 0.8 0.8 
0.8 0.8 0.8 0.8 0.8 0.8 
0.8 0.8 0.8 0.8 0.8 0.8 
0.8 0.8 0.8 0.8 0.8 0.8 
0.8 0.8 0.8 0.8 0.8 0.8 
0.8 0.8 0.8 0.8 0.8 0.8 
0.8 0.8 0.8 0.8 0.8 0.8 
0.8 0.8 0.8 0.8 0.8 0.8 
0.8 0.8 0.8 0.8 0.8 0.8 
0.8 0.8 0.8 0.8 0.8 0.8 
0.8 0.8 0.8 0.8 0.8 0.8 
0.8 0.8 0.8 0.8 0.8 0.8 
0.8 0.8 0.8 0.8 0.8 0.8 
0.8 0.8 0.8 0.8 0.8 0.8 
0.8 0.8 0.8 0.8 0.8 0.8 
0.8 0.8 0.8 0.8 0.8 0.8 
0.8 0.8 0.8 0.8 0.8 0.8 
0.8 0.8 0.8 0.8 0.8 0.8 
0.8 0.8 0.8 0.8 0.8 0.8 
0.8 0.8 0.8 0.8 0.8 0.8 
0.8 0.8 0.8 0.8 0.8 0.8 
0.8 0.8 0.8 0.8 0.8 0.8 
0.8 0.8 0.8 0.8 0.8 0.8 
0.8 0.8 0.8 0.8 0.8 0.8 
0.8 0.8 0.8 0.8 0.8 0.8 
0.8 0.8 0.8 0.8 0.8 0.8 
0.8 0.8 0.8 0.8 0.8 0.8 
0.8 0.8 0.8 0.8 0.8 0.8 
0.8 0.8 0.8 0.8 0.8 0.8 
0.8 0.8 0.8 0.8 0.8 0.8 
0.8 0.8 0.8 0.8 0.8 0.8 
0.8 0.8 0.8 0.8 0.8 0.8 
0.8 0.8 0.8 0.8 0.8 0.8 
0.8 0.8 0.8 0.8 0.8 0.8 
0.8 0.8 0.8 0.8 0.8 0.8 
0.8 0.8 0.8 0.8 0.8 0.8 
0.8 0.8 0.8 0.8 0.8 0.8 
0.8 0.8 0.8 0.8 0.8 0.8 
0.8 0.8 0.8 0.8 0.8 0.8 
0.8 0.8 0.8 0.8 0.8 0.8 
0.8 0.8 0.8 0.8 0.8 0.8 
0.8 0.8 0.8 0.8 0.8 0.8 
0.8 0.8 0.8 0.8 0.8 0.8 
0.8 0.8 0.8 0.8 0.8 0.8 
0.8 0.8 0.8 0.8 0.8 0.8 
0.8 0.8 0.8 0.8 0.8 0.8 
0.8 0.8 0.8 0.8 0.8 0.8 
0.8 0.8 0.8 0.8 0.8 0.8 
0.8 0.8 0.8 0.8 0.8 0.8 
0.8 0.8 0.8 0.8 0.8 0.8 
0.8 0.8 0.8 0.8 0.8 0.8 
0.8 0.8 0.8 0.8 0.8 0.8 
0.8 0.8 0.8 0.8 0.8 0.8 
0.8 0.8 0.8 0.8 0.8 0.8 
0.8 0.8 0.8 0.8 0.8 0.8 
0.8 0.8 0.8 0.8 0.8 0.8 
0.8 0.8 0.8 0.8 0.8 0.8 
0.8 0.8 0.8 0.8 0.8 0.8 
0.8 0.8 0.8 0.8 0.8 0.8 
0.8 0.8 0.8 0.8 0.8 0.8 
0.8 0.8 0.8 0.8 0.8 0.8 
0.8 0.8 0.8 0.8 0.8 0.8 
0.8 0.8 0.8 0.8 0.8 0.8 
0.8 0.8 0.8 0.8 0.8 0.8 
0.8 0.8 0.8 0.8 0.8 0.8 
0.8 0.8 0.8 0.8 0.8 0.8 
0.8 0.8 0.8 0.8 0.8 0.8 
0.8 0.8 0.8 0.8 0.8 0.8 
0.8 0.8 0.8 0.8 0.8 0.8 
0.8 0.8 0.8 0.8 0.8 0.8 
0.8 0.8 0.8 0.8 0.8 0.8 
0.8 0.8 0.8 0.8 0.8 0.8 
0.8 0.8 0.8 0.8 0.8 0.8 
0.8 0.8 0.8 0.8 0.8 0.8 
0.8 0.8 0.8 0.8 0.8 0.8 
0.8 0.8 0.8 0.8 0.8 0.8 
0.8 0.8 0.8 0.8 0.8 0.8 
0.8 0.8 0.8 0.8 0.8 0.8 
0.8 0.8 0.8 0.8 0.8 0.8 
0.8 0.8 0.8 0.8 0.8 0.8 
0.8 0.8 0.8 0.8 0.8 0.8 
0.8 0.8 0.8 0.8 0.8 0.8 
0.8 0.8 0.8 0.8 0.8 0.8 
0.8 0.8 0.8 0.8 0.8 0.8 
0.8 0.8 0.8 0.8 0.8 0.8 
0.8 0.8 0.8 0.8 0.8 0.8 
0.8 0.8 0.8 0.8 0.8 0.8 
0.8 0.8 0.8 0.8 0.8 0.8 
0.8 0.8 0.8 0.8 0.8 0.8 
0.8 0.8 0.8 0.8 0.8 0.8 
0.8 0.8 0.8 0.8 0.8 0.8 
0.8 0.8 0.8 0.8 0.8 0.8 
0.8 0.8 0.8 0.8 0.8 0.8 
0.8 0.8 0.8 0.8 0.8 0.8 
0.8 0.8 0.8 0.8 0.8 0.8 
0.8 0.8 0.8 0.8 0.8 0.8 
0.8 0.8 0.8 0.8 0.8 0.8 
0.8 0.8 0.8 0.8 0.8 0.8 
0.8 0.8 0.8 0.8 0.8 0.8 
0.8 0.8 0.8 0.8 0.8 0.8 
0.8 0.8 0.8 0.8 0.8 0.8 
0.8 0.8 0.8 0.8 0.8 0.8 
0.8 0.8 0.8 0.8 0.8 0.8 
0.8 0.8 0.8 0.8 0.8 0.8 
0.8 0.8 0.8 0.8 0.8 0.8 
0.8 0.8 0.8 0.8 0.8 0.8 
0.8 0.8 0.8 0.8 0.8 0.8 
0.8 0.8 0.8 0.8 0.8 0.8 
0.8 0.8 0.8 0.8 0.8 0.8 
0.8 0.8 0.8 0.8 0.8 0.8 
0.8 0.8 0.8 0.8 0.8 0.8 
0.8 0.8 0.8 0.8 0.8 0.8 
0.8 0.8 0.8 0.8 0.8 0.8 
0.8 0.8 0.8 0.8 0.8 0.8 
0.8 0.8 0.8 0.8 0.8 0.8 
0.8 0.8 0.8 0.8 0.8 0.8 
0.8 0.8 0.8 0.8 0.8 0.8 
0.8 0.8 0.8 0.8 0.8 0.8 
0.8 0.8 0.8 0.8 0.8 0.8 
0.8 0.8 0.8 0.8 0.8 0.8 
0.8 0.8 0.8 0.8 0.8 0.8 
0.8 0.8 0.8 0.8 0.8 0.8 
0.8 0.8 0.8 0.8 0.8 0.8 
0.8 0.8 0.8 0.8 0.8 0.8 
0.8 0.8 0.8 0.8 0.8 0.8 
0.8 0.8 0.8 0.8 0.8 0.8 
0.8 0.8 0.8 0.8 0.8 0.8 
0.8 0.8 0.8 0.8 0.8 0.8 
0.8 0.8 0.8 0.8 0.8 0.8 
0.8 0.8 0.8 0.8 0.8 0.8 
0.8 0.8 0.8 0.8 0.8 0.8 
0.8 0.8 0.8 0.8 0.8 0.8 
0.8 0.8 0.8 0.8 0.8 0.8 
0.8 0.8 0.8 0.8 0.8 0.8 
0.8 0.8 0.8 0.8 0.8 0.8 
0.8 0.8 0.8 0.8 0.8 0.8 
0.8 0.8 0.8 0.8 0.8 0.8 
0.8 0.8 0.8 0.8 0.8 0.8 
0.8 0.8 0.8 0.8 0.8 0.8 
0.8 0.8 0.8 0.8 0.8 0.8 
0.8 0.8 0.8 0.8 0.8 0.8 
0.8 0.8 0.8 0.8 0.8 0.8 
0.8 0.8 0.8 0.8 0.8 0.8 
0.8 0.8 0.8 0.8 0.8 0.8 
0.8 0.8 0.8 0.8 0.8 0.8 
0.8 0.8 0.8 0.8 0.8 0.8 
0.8 0.8 0.8 0.8 0.8 0.8 
0.8 0.8 0.8 0.8 0.8 0.8 
0.8 0.8 0.8 0.8 0.8 0.8 
0.8 0.8 0.8 0.8 0.8 0.8 
0.8 0.8 0.8 0.8 0.8 0.8 
0.8 0.8 0.8 0.8 0.8 0.8 
0.8 0.8 0.8 0.8 0.8 0.8 
0.8 0.8 0.8 0.8 0.8 0.8 
0.8 0.8 0.8 0.8 0.8 0.8 
0.8 0.8 0.8 0.8 0.8 0.8 
0.8 0.8 0.8 0.8 0.8 0.8 
0.8 0.8 0.8 0.8 0.8 0.8 
0.8 0.8 0.8 0.8 0.8 0.8 
0.8 0.8 0.8 0.8 0.8 0.8 
0.8 0.8 0.8 0.8 0.8 0.8 
0.8 0.8 0.8 0.8 0.8 0.8 
0.8 0.8 0.8 0.8 0.8 0.8 
0.8 0.8 0.8 0.8 0.8 0.8 
0.8 0.8 0.8 0.8 0.8 0.8 
0.8 0.8 0.8 0.8 0.8 0.8 
0.8 0.8 0.8 0.8 0.8 0.8 
0.8 0.8 0.8 0.8 0.8 0.8 
0.8 0.8 0.8 0.8 0.8 0.8 
0.8 0.8 0.8 0.8 0.8 0.8 
0.8 0.8 0.8 0.8 0.8 0.8 
0.8 0.8 0.8 0.8 0.8 0.8 
0.8 0.8 0.8 0.8 0.8 0.8 
0.8 0.8 0.8 0.8 0.8 0.8 
0.8 0.8 0.8 0.8 0.8 0.8 
0.8 0.8 0.8 0.8 0.8 0.8 
0.8 0.8 0.8 0.8 0.8 0.8 
0.8 0.8 0.8 0.8 0.8 0.8 
0.8 0.8 0.8 0.8 0.8 0.8 
0.8 0.8 0.8 0.8 0.8 0.8 
0.8 0.8 0.8 0.8 0.8 0.8 
0.8 0.8 0.8 0.8 0.8 0.8 
0.8 0.8 0.8 0.8 0.8 0.8 
0.8 0.8 0.8 0.8 0.8 0.8 
0.8 0.8 0.8 0.8 0.8 0.8 
0.8 0.8 0.8 0.8 0.8 0.8 
0.8 0.8 0.8 0.8 0.8 0.8 
0.8 0.8 0.8 0.8 0.8 0.8 
0.8 0.8 0.8 0.8 0.8 0.8 
0.8 0.8 0.8 0.8 0.8 0.8 
0.8 0.8 0.8 0.8 0.8 0.8 
0.8 0.8 0.8 0.8 0.8 0.8 
0.8 0.8 0.8 0.8 0.8 0.8 
0.8 0.8 0.8 0.8 0.8 0.8 
0.8 0.8 0.8 0.8 0.8 0.8 
0.8 0.8 0.8 0.8 0.8 0.8 
0.8 0.8 0.8 0.8 0.8 0.8 
0.8 0.8 0.8 0.8 0.8 0.8 
0.8 0.8 0.8 0.8 0.8 0.8 
0.8 0.8 0.8 0.8 0.8 0.8 
0.8 0.8 0.8 0.8 0.8 0.8 
0.8 0.8 0.8 0.8 0.8 0.8 
0.8 0.8 0.8 0.8 0.8 0.8 
0.8 0.8 0.8 0.8 0.8 0.8 
0.8 0.8 0.8 0.8 0.8 0.8 
0.8 0.8 0.8 0.8 0.8 0.8 
0.8 0.8 0.8 0.8 0.8 0.8 
0.8 0.8 0.8 0.8 0.8 0.8 
0.8 0.8 0.8 0.8 0.8 0.8 
0.8 0.8 0.8 0.8 0.8 0.8 
0.8 0.8 0.8 0.8 0.8 0.8 
0.8 0.8 0.8 0.8 0.8 0.8 
0.8 0.8 0.8 0.8 0.8 0.8 
0.8 0.8 0.8 0.8 0.8 0.8 
0.8 0.8 0.8 0.8 0.8 0.8 
0.8 0.8 0.8 0.8 0.8 0.8 
0.8 0.8 0.8 0.8 0.8 0.8 
0.8 0.8 0.8 0.8 0.8 0.8 
0.8 0.8 0.8 0.8 0.8 0.8 
0.8 0.8 0.8 0.8 0.8 0.8 
0.8 0.8 0.8 0.8 0.8 0.8 
0.8 0.8 0.8 0.8 0.8 0.8 
0.8 0.8 0.8 0.8 0.8 0.8 
0.8 0.8 0.8 0.8 0.8 0.8 
0.8 0.8 0.8 0.8 0.8 0.8 
0.8 0.8 0.8 0.8 0.8 0.8 
0.8 0.8 0.8 0.8 0.8 0.8 
0.8 0.8 0.8 0.8 0.8 0.8 
0.8 0.8 0.8 0.8 0.8 0.8 
0.8 0.8 0.8 0.8 0.8 0.8 
0.8 0.8 0.8 0.8 0.8 0.8 
0.8 0.8 0.8 0.8 0.8 0.8 
0.8 0.8 0.8 0.8 0.8 0.8 
0.8 0.8 0.8 0.8 0.8 0.8 
0.8 0.8 0.8 0.8 0.8 0.8 
0.8 0.8 0.8 0.8 0.8 0.8 
0.8 0.8 0.8 0.8 0.8 0.8 
0.8 0.8 0.8 0.8 0.8 0.8 
0.8 0.8 0.8 0.8 0.8 0.8 
0.8 0.8 0.8 0.8 0.8 0.8 
0.8 0.8 0.8 0.8 0.8 0.8 
0.8 0.8 0.8 0.8 0.8 0.8 
0.8 0.8 0.8 0.8 0.8 0.8 
0.8 0.8 0.8 0.8 0.8 0.8 
0.8 0.8 0.8 0.8 0.8 0.8 
0.8 0.8 0.8 0.8 0.8 0.8 
0.8 0.8 0.8 0.8 0.8 0.8 
0.8 0.8 0.8 0.8 0.8 0.8 
0.8 0.8 0.8 0.8 0.8 0.8 
0.8 0.8 0.8 0.8 0.8 0.8 
0.8 0.8 0.8 0.8 0.8 0.8 
0.8 0.8 0.8 0.8 0.8 0.8 
0.8 0.8 0.8 0.8 0.8 0.8 
0.8 0.8 0.8 0.8 0.8 0.8 
0.8 0.8 0.8 0.8 0.8 0.8 
0.8 0.8 0.8 0.8 0.8 0.8 
0.8 0.8 0.8 0.8 0.8 0.8 
0.8 0.8 0.8 0.8 0.8 0.8 
0.8 0.8 0.8 0.8 0.8 0.8 
0.8 0.8 0.8 0.8 0.8 0.8 
0.8 0.8 0.8 0.8 0.8 0.8 
0.8 0.8 0.8 0.8 0.8 0.8 
0.8 0.8 0.8 0.8 0.8 0.8 
0.8 0.8 0.8 0.8 0.8 0.8 
0.8 0.8 0.8 0.8 0.8 0.8 
0.8 0.8 0.8 0.8 0.8 0.8 
0.8 0.8 0.8 0.8 0.8 0.8 
0.8 0.8 0.8 0.8 0.8 0.8 
0.8 0.8 0.8 0.8 0.8 0.8 
0.8 0.8 0.8 0.8 0.8 0.8 
0.8 0.8 0.8 0.8 0.8 0.8 
0.8 0.8 0.8 0.8 0.8 0.8 
0.8 0.8 0.8 0.8 0.8 0.8 
0.8 0.8 0.8 0.8 0.8 0.8 
0.8 0.8 0.8 0.8 0.8 0.8 
0.8 0.8 0.8 0.8 0.8 0.8 
0.8 0.8 0.8 0.8 0.8 0.8 
0.8 0.8 0.8 0.8 0.8 0.8 
0.8 0.8 0.8 0.8 0.8 0.8 
0.8 0.8 0.8 0.8 0.8 0.8 
0.8 0.8 0.8 0.8 0.8 0.8 
0.8 0.8 0.8 0.8 0.8 0.8 
0.8 0.8 0.8 0.8 0.8 0.8 
0.8 0.8 0.8 0.8 0.8 0.8 
0.8 0.8 0.8 0.8 0.8 0.8 
0.8 0.8 0.8 0.8 0.8 0.8 
0.8 0.8 0.8 0.8 0.8 0.8 
0.8 0.8 0.8 0.8 0.8 0.8 
0.8 0.8 0.8 0.8 0.8 0.8 
0.8 0.8 0.8 0.8 0.8 0.8 
0.8 0.8 0.8 0.8 0.8 0.8 
0.8 0.8 0.8 0.8 0.8 0.8 
0.8 0.8 0.8 0.8 0.8 0.8 
0.8 0.8 0.8 0.8 0.8 0.8 
0.8 0.8 0.8 0.8 0.8 0.8 
0.8 0.8 0.8 0.8 0.8 0.8 
0.8 0.8 0.8 0.8 0.8 0.8 
0.8 0.8 0.8 0.8 0.8 0.8 
0.8 0.8 0.8 0.8 0.8 0.8 
0.8 0.8 0.8 0.8 0.8 0.8 
0.8 0.8 0.8 0.8 0.8 0.8 
0.8 0.8 0.8 0.8 0.8 0.8 
0.8 0.8 0.8 0.8 0.8 0.8 
0.8 0.8 0.8 0.8 0.8 0.8 
0.8 0.8 0.8 0.8 0.8 0.8 
0.8 0.8 0.8 0.8 0.8 0.8 
0.8 0.8 0.8 0.8 0.8 0.8 
0.8 0.8 0.8 0.8 0.8 0.8 
0.8 0.8 0.8 0.8 0.8 0.8 
0.8 0.8 0.8 0.8 0.8 0.8 
0.8 0.8 0.8 0.8 0.8 0.8 
0.8 0.8 0.8 0.8 0.8 0.8 
0.8 0.8 0.8 0.8 0.8 0.8 
0.8 0.8 0.8 0.8 0.8 0.8 
0.8 0.8 0.8 0.8 0.8 0.8 
0.8 0.8 0.8 0.8 0.8 0.8 
0.8 0.8 0.8 0.8 0.8 0.8 
0.8 0.8 0.8 0.8 0.8 0.8 
0.8 0.8 0.8 0.8 0.8 0.8 
0.8 0.8 0.8 0.8 0.8 0.8 
0.8 0.8 0.8 0.8 0.8 0.8 
0.8 0.8 0.8 0.8 0.8 0.8 
0.8 0.8 0.8 0.8 0.8 0.8 
0.8 0.8 0.8 0.8 0.8 0.8 
0.8 0.8 0.8 0.8 0.8 0.8 
0.8 0.8 0.8 0.8 0.8 0.8 
0.8 0.8 0.8 0.8 0.8 0.8 
0.8 0.8 0.8 0.8 0.8 0.8 
0.8 0.8 0.8 0.8 0.8 0.8 
0.8 0.8 0.8 0.8 0.8 0.8 
0.8 0.8 0.8 0.8 0.8 0.8 
0.8 0.8 0.8 0.8 0.8 0.8 
0.8 0.8 0.8 0.8 0.8 0.8 
0.8 0.8 0.8 0.8 0.8 0.8 
0.8 0.8 0.8 0.8 0.8 0.8 
0.8 0.8 0.8 0.8 0.8 0.8 
0.8 0.8 0.8 0.8 0.8 0.8 
0.8 0.8 0.8 0.8 0.8 0.8 
0.8 0.8 0.8 0.8 0.8 0.8 
0.8 0.8 0.8 0.8 0.8 0.8 
0.8 0.8 0.8 0.8 0.8 0.8 
0.8 0.8 0.8 0.8 0.8 0.8 
0.8 0.8 0.8 0.8 0.8 0.8 
0.8 0.8 0.8 0.8 0.8 0.8 
0.8 0.8 0.8 0.8 0.8 0.8 
0.8 0.8 0.8 0.8 0.8 0.8 
0.8 0.8 0.8 0.8 0.8 0.8 
0.8 0.8 0.8 0.8 0.8 0.8 
0.8 0.8 0.8 0.8 0.8 0.8 
0.8 0.8 0.8 0.8 0.8 0.8 
0.8 0.8 0.8 0.8 0.8 0.8 
0.8 0.8 0.8 0.8 0.8 0.8 
0.8 0.8 0.8 0.8 0.8 0.8 
0.8 0.8 0.8 0.8 0.8 0.8 
0.8 0.8 0.8 0.8 0.8 0.8 
0.8 0.8 0.8 0.8 0.8 0.8 
0.8 0.8 0.8 0.8 0.8 0.8 
0.8 0.8 0.8 0.8 0.8 0.8 
0.8 0.8 0.8 0.8 0.8 0.8 
0.8 0.8 0.8 0.8 0.8 0.8 
0.8 0.8 0.8 0.8 0.8 0.8 
0.8 0.8 0.8 0.8 0.8 0.8 
0.8 0.8 0.8 0.8 0.8 0.8 
0.8 0.8 0.8 0.8 0.8 0.8 
0.8 0.8 0.8 0.8 0.8 0.8 
0.8 0.8 0.8 0.8 0.8 0.8 
0.8 0.8 0.8 0.8 0.8 0.8 
0.8 0.8 0.8 0.8 0.8 0.8 
0.8 0.8 0.8 0.8 0.8 0.8 
0.8 0.8 0.8 0.8 0.8 0.8 
0.8 0.8 0.8 0.8 0.8 0.8 
0.8 0.8 0.8 0.8 0.8 0.8 
0.8 0.8 0.8 
NORMALS Normals float
0.000810378 -0.548791 -0.83596 -0.0853518 0.141427 -0.986262 0.133935 -0.838684 -0.527892 
0.0431792 -0.140725 -0.989107 0.158788 -0.76503 -0.624112 -0.0161499 0.256585 -0.966387 
-0.0628197 -0.659494 -0.749081 -0.198639 -0.0916724 -0.975776 -0.105245 -0.855243 -0.507428 
0.105168 -0.942003 -0.3187 0.167842 -0.340834 -0.92502 0.216489 -0.396478 -0.892153 
0.0500557 -0.749974 -0.659571 0.289874 -0.521592 -0.802443 -0.215078 0.32238 -0.921853 
-0.102216 0.497095 -0.861655 -0.0546276 0.310062 -0.949146 0.0615586 0.188665 -0.98011 
0.190294 0.0997313 -0.976648 -0.0442248 0.445547 -0.894166 -0.11332 0.697865 -0.707208 
-0.263548 -0.65286 -0.710152 -0.349739 -0.0732276 -0.933981 -0.296603 -0.128109 -0.946369 
0.163929 -0.983783 -0.0727835 0.167755 -0.917281 -0.361184 0.264888 -0.259031 -0.928837 
0.339099 -0.513093 -0.78851 0.26883 -0.72332 -0.636034 -0.332282 0.125072 -0.934851 
0.31501 -0.342263 -0.885226 -0.239149 0.443438 -0.863812 -0.122573 0.606521 -0.785562 
0.243312 0.254891 -0.935858 0.223346 0.342134 -0.912722 0.317083 -0.0225832 -0.948129 
-0.1212 0.878014 -0.463035 0.128685 0.60255 -0.787638 -0.409969 -0.23436 -0.881477 
0.179037 -0.980792 -0.0774129 0.0729422 -0.946041 -0.315731 0.311306 -0.742794 -0.592744 
0.147711 -0.969132 -0.197393 -0.481345 0.205175 -0.852179 -0.31294 0.489721 -0.813783 
-0.41431 0.316015 -0.853511 -0.323092 0.368349 -0.87174 0.307047 -0.308747 -0.900221 
0.0936109 -0.422515 -0.901509 0.179279 -0.649661 -0.738783 0.229569 0.253482 -0.939705 
0.159087 0.116126 -0.980411 0.285268 -0.200563 -0.937228 -0.39184 -0.763156 -0.513862 
-0.562165 -0.255784 -0.786477 0.0515139 -0.989693 -0.133622 -0.512223 0.478308 -0.713337 
0.194389 -0.909928 -0.366394 0.275289 -0.186469 -0.943104 0.264498 -0.411757 -0.872065 
0.202645 -0.875617 -0.43844 0.415048 -0.637703 -0.648899 -0.376088 0.61983 -0.688744 
0.335226 0.167914 -0.927054 -0.392578 -0.835395 -0.384705 0.0308558 -0.975383 -0.218347 
0.129786 -0.96596 0.223777 -0.653658 -0.157759 -0.740164 -0.633941 -0.537226 -0.556334 
-0.774436 -0.248458 -0.581822 0.162276 -0.98104 0.105959 0.426109 -0.608636 -0.669323 
0.399087 -0.588697 -0.702969 -0.274919 0.758086 -0.591376 0.151965 0.430319 -0.889793 
0.0767638 0.718032 -0.691764 0.0963784 0.600928 -0.793471 0.176118 0.58025 -0.795168 
-0.532721 -0.790121 -0.303178 -0.41668 -0.880812 -0.224827 -0.0947317 -0.992771 -0.0736952 
-0.778824 -0.292187 -0.555032 -0.862552 -0.392874 -0.318834 0.130836 -0.96706 0.218351 
-0.85025 0.0518225 -0.523822 -0.682202 0.377841 -0.625969 0.199882 -0.914092 0.352822 
0.198054 -0.915657 -0.349782 0.276108 -0.877921 -0.391177 0.252411 0.460612 -0.850956 
-0.610058 -0.769783 -0.187785 -0.58633 -0.809296 -0.035465 0.0201265 -0.941931 0.335204 
-0.398366 0.808841 -0.432528 -0.922795 -0.369681 -0.108557 -0.932434 0.220491 -0.286271 
0.110524 -0.899751 0.422176 0.154134 -0.987002 0.0454971 0.399776 -0.813354 -0.422653 
0.444698 0.0695344 -0.892977 0.425315 0.297544 -0.854737 0.364943 0.435692 -0.822794 
-0.335011 -0.938567 0.0828222 -0.956434 -0.291107 -0.0221683 0.0559768 -0.99534 0.0785123 
0.486418 -0.329059 -0.809393 0.55641 -0.560441 -0.613444 0.581197 0.0626758 -0.811346 
0.443101 0.211553 -0.871153 -0.608885 -0.79138 0.0545713 -0.763947 -0.606889 0.21925 
0.158651 -0.984636 -0.0729449 0.235662 -0.971035 -0.0394343 -0.77301 0.442873 -0.454224 
-0.58788 0.61007 -0.531236 -0.353582 0.882974 -0.308766 -0.0410578 -0.815783 0.576899 
0.564639 0.0032426 -0.825332 0.399575 0.570158 -0.717816 0.311896 0.641479 -0.700875 
-0.454488 -0.850364 0.265184 -0.169722 -0.955919 0.239611 0.0054364 -0.828938 0.559314 
0.24285 -0.932648 0.266818 0.167439 -0.899663 0.403201 0.401564 -0.863001 -0.306555 
-0.864608 0.473308 -0.168619 0.538799 -0.666715 -0.514963 0.53478 0.192805 -0.822701 
-0.410599 -0.889868 0.198853 -0.97866 0.124994 -0.163099 -0.77458 0.624205 -0.101952 
0.491971 -0.537476 -0.684898 0.411263 -0.7733 -0.482567 0.606888 -0.56153 -0.562468 
0.58674 -0.133126 -0.798758 0.398384 0.519314 -0.756044 -0.691766 -0.707013 0.146946 
-0.411833 -0.888858 0.200813 -0.0831893 -0.950104 0.300637 -0.989267 -0.13365 -0.0590615 
-0.981541 0.188756 0.0307997 0.319062 -0.917379 -0.237938 0.338724 -0.924907 -0.172667 
0.598931 -0.76742 -0.228796 0.617498 0.0545665 -0.784677 0.6329 -0.609639 -0.477261 
-0.862859 -0.421605 0.278788 -0.585414 -0.732002 0.348516 -0.272873 -0.912592 0.304495 
0.316792 -0.764128 0.561918 0.294747 -0.955557 -0.00592417 0.495133 -0.854151 -0.158962 
0.566512 -0.531641 -0.62962 0.216484 0.561833 -0.798423 -0.511134 -0.742098 0.433628 
-0.3877 -0.792569 0.470663 0.0563732 -0.908392 0.414302 -0.976351 -0.139915 0.164811 
0.303885 -0.949915 -0.0729096 -0.74555 0.654411 -0.1261 -0.627114 0.775797 -0.0697556 
0.571503 -0.0325698 -0.819953 0.52055 -0.115627 -0.845965 -0.800912 -0.449534 0.39555 
-0.926238 -0.194503 0.32288 -0.950964 0.239446 0.195788 0.00372564 -0.904899 0.425609 
0.544378 -0.651916 -0.527881 0.448933 -0.834247 -0.320141 0.534478 -0.522743 -0.664133 
0.473596 0.0186556 -0.880545 0.456035 0.0315311 -0.889403 -0.24225 0.906723 -0.345207 
0.0404508 0.834658 -0.549281 -0.00337004 -0.810133 0.586236 -0.723686 -0.321298 0.610776 
-0.560028 -0.567975 0.603136 -0.897889 0.267273 0.349799 -0.878328 0.175951 0.444502 
0.278509 -0.959993 -0.0290932 0.284088 0.328819 -0.900651 0.548351 -0.0683777 -0.833448 
0.426117 0.312494 -0.848983 0.345226 0.526956 -0.776619 -0.377796 -0.634375 0.674416 
-0.513233 -0.482407 0.709842 -0.685596 -0.325676 0.651071 0.469916 -0.643849 -0.603852 
0.339455 -0.615194 0.711553 0.486486 -0.24989 -0.837189 0.354636 0.42267 -0.834017 
-0.354965 0.912539 -0.203157 -0.0912555 0.958676 -0.269467 0.0696018 0.675329 -0.734225 
0.167941 -0.718033 0.675444 -0.862467 0.401527 0.308101 0.511106 -0.234011 -0.827048 
0.533703 -0.0525696 -0.844036 -0.433882 0.898199 -0.0706013 -0.202238 -0.65264 0.730179 
0.47128 0.193794 -0.860429 0.258723 -0.563772 0.784362 0.141132 -0.494188 0.857823 
-0.236444 0.944619 -0.227571 -0.0982261 0.987262 -0.125164 0.0407902 0.835423 -0.548092 
-0.108405 0.993252 0.0412193 0.0430165 0.965032 -0.258578 0.0288834 0.994083 -0.104713 
0.0846517 0.965045 -0.248038 0.0679484 0.925311 -0.373072 -0.649933 -0.165755 0.741696 
-0.180091 -0.838963 0.513525 0.403559 -0.71059 -0.57637 -0.785942 0.503895 0.358307 
-0.727392 0.641045 0.244874 0.496319 -0.239055 -0.834578 0.507878 0.229799 -0.830212 
-0.495706 0.83314 0.245262 0.503728 0.355483 -0.787331 0.407325 0.316615 -0.856645 
-0.265244 0.959961 0.090113 0.0792595 -0.577443 0.812574 0.312166 0.682166 -0.661213 
-0.271514 0.92551 0.264028 -0.500805 0.664497 0.554651 0.344596 0.702168 -0.623068 
-0.134204 0.981079 -0.139543 0.230164 0.727793 -0.646019 -0.175708 0.949844 0.258696 
-0.235628 0.957981 0.163562 -0.124392 0.992187 -0.00951979 -0.0139325 0.999791 0.0149665 
0.128868 0.939187 -0.318311 -0.143006 0.94224 0.302875 -0.0120184 0.9717 0.235912 
0.000434699 0.965002 0.262241 -0.358227 -0.42664 0.830453 -0.808143 0.232986 0.540946 
-0.63371 0.110747 0.765602 -0.0369629 -0.581493 0.812711 -0.0696807 -0.964558 0.254505 
-0.0830512 -0.979988 0.180904 0.14804 -0.981342 -0.122687 0.192569 -0.965191 -0.176985 
0.178233 -0.983986 -0.00227322 -0.66435 0.344052 0.663527 -0.602891 0.746008 0.282834 
-0.143018 -0.720552 0.678492 -0.0417965 -0.88054 0.472126 0.304027 -0.892023 -0.334458 
0.399352 -0.421175 -0.814328 0.274482 -0.942796 -0.189197 0.436754 -0.648009 -0.623963 
-0.553841 0.633882 0.539865 -0.555923 0.701367 0.446132 0.427021 -0.0300824 -0.903741 
0.233651 -0.424359 0.87483 0.429182 0.499352 -0.752629 -0.300284 0.95385 -0.000594884 