# vtk DataFile Version 4.2
vtk output
ASCII
DATASET POLYDATA
POINTS 3860 float
220.14 142.928 191.422 220.332 143.36 191.427 220.437 142.954 191.616 
219.734 144.197 191.269 219.531 143.693 191.502 220.067 144.26 191.228 
219.91 145.002 191.141 218.163 148.269 190.98 217.748 147.766 191.348 
218.707 148.391 190.739 219.074 149.027 190.62 219.938 148.428 190.883 
218.444 150.234 190.58 217.264 152.399 190.647 216.37 153.591 191.031 
217.719 153.368 190.336 218.963 153.123 190.279 220.141 152.669 190.812 
218.262 154.196 190.153 215.574 157.184 191.141 216.708 157.059 190.333 
221.081 157.42 191.004 215.12 159.274 191.225 216.377 158.878 190.429 
218.399 158.47 190.069 215.068 160.122 191.069 216.877 159.636 190.274 
217.601 159.473 190.167 219.794 159.423 190.495 220.265 159.147 190.663 
215.638 160.936 190.643 219.088 160.282 190.43 215.014 162.25 191.014 
217.163 161.971 190.476 215.714 162.802 190.771 220.385 141.705 191.846 
220.496 141.457 191.924 220.454 141.915 191.867 219.449 142.911 191.99 
217.369 147.626 191.792 216.614 149.284 192.07 216.822 151.054 191.192 
215.902 153.484 191.493 215.665 153.244 191.925 214.729 159.251 191.647 
214.532 159.114 192.029 221.574 159.868 191.729 214.454 161.397 191.631 
214.137 163.112 191.862 214.176 163.507 191.757 216.298 163.036 190.72 
218.488 162.618 190.847 220.487 162.601 191.838 214.368 163.827 191.633 
216.793 163.606 190.845 214.152 164.216 191.932 215.363 164.461 191.259 
217.456 164.645 191.282 214.734 166.083 191.759 214.504 166.611 191.969 
215.672 166.068 191.583 220.514 141.267 191.964 220.53 141.182 192.015 
220.337 141.459 192.194 220.047 141.749 192.528 220.494 141.903 192.205 
219.206 142.933 192.377 217.374 146.188 192.545 222.187 156.177 192.514 
222.222 158.865 192.288 213.94 162.009 192.573 221.568 161.701 192.329 
214.004 163.569 192.035 213.815 164.06 192.565 213.814 165.102 192.493 
216.78 166.752 191.993 213.965 167.968 192.436 214.644 167.439 192.102 
213.629 168.855 192.537 213.514 168.815 192.83 213.458 169.296 192.506 
213.432 169.348 192.592 213.414 169.426 192.511 214.112 169.048 192.353 
213.452 169.459 192.476 213.657 169.746 192.489 213.705 169.586 192.405 
213.936 169.433 192.383 214.61 169.522 192.782 215.131 169.552 193.264 
213.735 169.798 192.42 213.739 169.862 192.478 213.8 169.866 192.439 
220.547 141.16 192.054 219.983 141.751 193.152 220.346 141.62 192.526 
220.236 141.867 193.324 220.461 142.134 192.753 221.453 163.457 193.367 
217.199 168 192.993 213.529 169.251 192.861 213.511 168.608 193.323 
213.601 169.606 192.656 213.796 169.581 193.029 213.937 169.503 193.542 
217.148 168.661 193.709 213.788 169.794 192.651 214.018 169.767 192.905 
214.643 169.76 193.609 214.399 169.729 193.003 215.204 169.851 193.99 
213.831 169.882 192.517 214.022 169.821 192.653 221 138.009 194.017 
221 138.009 194.017 221 138.009 194.017 221 138.009 194.017 
220.532 141.182 192.116 221 138.009 194.017 220.521 141.253 192.171 
220.164 141.855 194.292 220.734 143.165 194.326 214.862 153.17 194.19 
219.259 166.333 193.796 220.242 165.679 194.827 214.272 169.598 194.664 
216.05 169.634 193.989 221 138.009 194.017 219.738 141.566 194.638 
219.355 141.67 194.644 220.284 141.849 195.231 218.08 143.015 194.877 
223.809 158.922 195.869 219.301 165.359 196.077 218.649 165.369 196.401 
219.353 165.789 195.575 218.507 166.426 195.569 219.881 165.702 195.482 
219.395 166.14 194.862 220.494 165.581 195.797 220.779 165.621 195.677 
217.491 168.281 194.618 216.056 169.972 194.992 216.197 169.931 195.113 
221 137.009 196.017 221 137.009 196.017 221 137.009 196.017 
221 137.009 196.017 221 137.009 196.017 221.682 148.535 195.416 
219.19 163.478 197.492 222.598 162.71 195.634 218.043 165.972 196.625 
220.391 165.134 196.42 221.533 164.929 195.722 212.763 166.241 196.76 
220.835 165.66 195.935 220.861 165.623 196.176 221.026 165.562 195.92 
220.973 165.675 196.098 213.728 169.141 196.127 215.59 170.193 196.432 
221 137.009 196.017 219.818 140.914 196.593 221.664 144.354 197.235 
222.618 153.246 196.224 223.751 159.846 197.328 219.041 162.743 198.025 
219.245 162.901 197.889 222.769 162.182 197.013 217.553 165.851 197.607 
221.278 165.316 196.363 221.015 165.601 196.345 221.089 165.611 196.198 
221.016 165.668 196.237 213.921 169.943 197.491 214.857 170.235 196.631 
216.179 169.758 197.888 215.449 170.672 197.559 215.202 171.015 198.175 
215.535 170.923 198.05 219.797 140.538 197.533 219.172 140.733 198.093 
224.183 154.627 197.868 223.659 159.832 197.903 219.459 161.399 198.934 
218.696 162.281 198.549 218.557 161.796 199.007 222.538 162.282 197.62 
220.928 164.234 197.387 221.155 165.111 196.763 221.379 164.637 197.217 
221.724 164.693 196.906 221.492 164.911 196.905 221.108 165.578 196.331 
215.472 171.199 198.35 215.361 171.359 198.62 215.641 171.075 198.446 
215.532 171.36 198.528 219.855 140.362 197.912 219.819 140.222 198.147 
219.906 140.323 198.149 219.537 140.432 198.277 220.021 140.613 198.358 
219.324 140.615 199.132 220.817 141.752 198.704 223.171 147.956 198.488 
222.98 160.677 198.465 217.923 162.328 199.328 221.057 163.829 197.658 
221.404 163.516 197.828 221.592 164.485 197.36 221.667 164.693 197.129 
221.574 164.691 197.208 212.457 168.495 199.366 213.943 170.931 199.481 
214.515 171.183 199.355 214.938 171.336 199.802 215.251 171.39 199.034 
215.513 171.479 198.649 215.578 171.416 198.64 215.541 171.509 198.712 
219.838 140.169 198.297 218.949 140.622 200.011 219.209 140.608 200.059 
219.746 140.378 198.587 219.902 140.705 199.085 222.429 143.885 199.183 
225.97 151.204 201.064 219.944 158.515 200.823 219.497 158.872 200.656 
223.54 159.059 199.348 223.074 159.764 199.287 222.146 161.725 198.554 
221.684 164.541 197.291 212.304 168.786 199.926 215.705 169.98 200.352 
214.525 171.638 200.583 215.431 171.303 199.116 220 137.009 201.017 
220 137.009 201.017 220 137.009 201.017 220 137.009 201.017 
219.819 140.146 198.38 220 137.009 201.017 225.18 154.395 201.277 
219.378 157.535 201.69 222.052 158.858 200.708 222.639 159.508 199.958 
211.873 169.314 201.129 214.359 171.989 201.295 214.535 171.89 201.387 
214.354 172.072 201.533 220 137.009 201.017 219 138.009 202.017 
219 138.009 202.017 219 138.009 202.017 219 138.009 202.017 
219 138.009 202.017 218.086 141.002 201.099 221.733 141.769 201.285 
221.937 141.611 201.982 225.729 144.509 202.109 226.432 145.704 202.621 
226.706 149.161 202.634 220.16 156.228 202.459 220.303 155.664 202.825 
212.634 171.53 201.911 213.583 172.325 202.89 214.384 172.045 201.731 
219 137.009 203.017 219 137.009 203.017 219 137.009 203.017 
219 137.009 203.017 219 138.009 202.017 219 137.009 203.017 
218.136 140.848 202.489 218.294 140.811 202.669 218.673 140.823 202.774 
216.979 142.099 202.36 219.158 140.785 202.621 222.533 141.18 203.406 
220.059 153.609 204.221 220.963 153.473 204.242 219.538 154.125 204.069 
218.697 155.518 203.674 224.865 155.02 202.439 222.815 155.75 203.493 
223.464 156.639 202.396 212.795 172.436 203.125 214.334 171.743 202.685 
214.044 172.012 203.695 213.274 172.873 203.842 213.621 172.665 204.096 
215.004 175.013 203.009 215.004 175.013 203.009 215.004 175.013 203.009 
215.004 175.013 203.009 215.004 175.013 203.009 219 137.009 203.017 
218.103 140.873 202.758 217.699 141.253 202.951 218.343 141.019 203.371 
224.443 140.848 204.347 220.993 140.957 203.889 227.06 146.754 204.215 
221.173 152.413 204.955 221.512 152.46 205.075 218.045 155.891 204.13 
223.046 154.75 204.779 223.572 155.366 204.078 210.076 168.893 204.349 
211.952 173.003 204.221 212.567 173.646 204.865 215.004 175.013 203.009 
215.004 176.013 204.009 215.004 176.013 204.009 215.004 176.013 204.009 
215.004 176.013 204.009 215.004 176.013 204.009 217.975 141 202.947 
217.127 141.84 204.083 217.063 141.936 203.917 223.332 139.801 205.672 
224.224 140.258 204.98 226.297 141.21 205.094 219.413 141.162 204.873 
220.668 150.906 205.908 220.984 150.666 206.018 221.683 150.564 206.221 
219.786 152.486 205.194 222.204 151.527 206.224 222.158 153.047 205.287 
223.723 154.649 205.423 210.017 171.277 205.362 214.107 171.803 205.261 
213.881 172.574 205.541 212.899 174.177 205.64 213.062 174.598 206.309 
215.004 176.013 204.009 212.768 175.121 206.584 216.569 143.005 205.617 
215.508 143.983 205.088 220.855 150.209 206.333 221.48 149.706 206.678 
219.606 150.743 206.552 222.772 152.38 206.691 223.669 153.915 207.1 
224.194 154.355 206.121 209.425 167.374 206.145 209.394 170.848 206.695 
213.846 172.839 206.35 213.366 174.376 206.663 215.009 177.004 206.013 
215.009 177.004 206.013 215.009 177.004 206.013 215.009 177.004 206.013 
215.009 177.004 206.013 229.923 121.561 208.911 229.901 121.474 208.95 
229.867 121.559 208.919 230.02 121.501 209.008 229.908 121.748 208.941 
229.215 123.083 208.626 228.051 124.675 208.284 227.519 124.624 208.52 
227.46 125.06 208.447 227.697 125.341 208.303 227.985 125.561 208.243 
228.276 125.381 208.247 227.716 125.836 208.334 227.931 135.385 207.743 
228.558 135.606 207.876 228.687 135.489 208.001 228.449 135.93 207.814 
228.639 135.703 207.935 228.147 136.447 207.693 228.529 136.202 208.005 
226.863 137.73 207.033 227.901 137.274 207.61 222.472 139.433 206.964 
227.1 139.453 206.696 220.842 140.533 206.8 213.912 146.553 206.592 
213.377 147.845 206.002 220.253 148.033 208.018 222.5 148.096 208.138 
219.426 149.082 207.982 222.337 149.153 207.561 223.308 152.99 207.582 
209.307 170.141 207.29 214.162 169.852 206.463 209.09 170.942 207.644 
208.635 171.139 208.533 208.462 171.829 208.129 213.51 174.475 207.412 
211.208 175.849 207.26 212.285 176.115 207.456 215.009 177.004 206.013 
213.083 175.903 208.036 212.786 176.227 207.918 215.004 178.013 207.009 
215.004 178.013 207.009 215.004 178.013 207.009 215.004 178.013 207.009 
215.004 178.013 207.009 229.957 121.307 209.082 229.742 121.489 209.038 
227.076 124.857 208.805 228.795 125.273 208.372 226.516 125.13 209.147 
229.512 125.673 208.562 228.876 126.971 208.382 228.037 128.063 208.361 
230.132 129.923 208.819 230.331 130.678 208.838 228.534 132.863 208.335 
[...]
POINT_DATA 3860
COLOR_SCALARS scalars 3
0.564706 0.796078 0.929412 0.564706 0.796078 0.929412 0.564706 0.796078 0.929412 
0.564706 0.796078 0.929412 0.564706 0.796078 0.929412 
0.564706 0.796078 0.929412 0.564706 0.796078 0.929412 
0.564706 0.796078 0.929412 0.564706 0.796078 0.929412 
0.564706 0.796078 0.929412 0.564706 0.796078 0.929412 
0.564706 0.796078 0.929412 0.564706 0.796078 0.929412 
0.564706 0.796078 0.929412 0.564706 0.796078 0.929412 
0.564706 0.796078 0.929412 0.564706 0.796078 0.929412 
0.564706 0.796078 0.929412 0.564706 0.796078 0.929412 
0.564706 0.796078 0.929412 0.564706 0.796078 0.929412 
0.564706 0.796078 0.929412 0.564706 0.796078 0.929412 
0.564706 0.796078 0.929412 0.564706 0.796078 0.929412 
0.564706 0.796078 0.929412 0.564706 0.796078 0.929412 
0.564706 0.796078 0.929412 0.564706 0.796078 0.929412 
0.564706 0.796078 0.929412 0.564706 0.796078 0.929412 
0.564706 0.796078 0.929412 0.564706 0.796078 0.929412 
0.564706 0.796078 0.929412 0.564706 0.796078 0.929412 
0.564706 0.796078 0.929412 0.564706 0.796078 0.929412 
0.564706 0.796078 0.929412 0.564706 0.796078 0.929412 
0.564706 0.796078 0.929412 0.564706 0.796078 0.929412 
0.564706 0.796078 0.929412 0.564706 0.796078 0.929412 
0.564706 0.796078 0.929412 0.564706 0.796078 0.929412 
0.564706 0.796078 0.929412 0.564706 0.796078 0.929412 
0.564706 0.796078 0.929412 0.564706 0.796078 0.929412 
0.564706 0.796078 0.929412 0.564706 0.796078 0.929412 
0.564706 0.796078 0.929412 0.564706 0.796078 0.929412 
0.564706 0.796078 0.929412 0.564706 0.796078 0.929412 
0.564706 0.796078 0.929412 0.564706 0.796078 0.929412 
0.564706 0.796078 0.929412 0.564706 0.796078 0.929412 
0.564706 0.796078 0.929412 0.564706 0.796078 0.929412 
0.564706 0.796078 0.929412 0.564706 0.796078 0.929412 
0.564706 0.796078 0.929412 0.564706 0.796078 0.929412 
0.564706 0.796078 0.929412 0.564706 0.796078 0.929412 
0.564706 0.796078 0.929412 0.564706 0.796078 0.929412 
0.564706 0.796078 0.929412 0.564706 0.796078 0.929412 
0.564706 0.796078 0.929412 0.564706 0.796078 0.929412 
0.564706 0.796078 0.929412 0.564706 0.796078 0.929412 
0.564706 0.796078 0.929412 0.564706 0.796078 0.929412 
0.564706 0.796078 0.929412 0.564706 0.796078 0.929412 
0.564706 0.796078 0.929412 0.564706 0.796078 0.929412 
0.564706 0.796078 0.929412 0.564706 0.796078 0.929412 
0.564706 0.796078 0.929412 0.564706 0.796078 0.929412 
0.564706 0.796078 0.929412 0.564706 0.796078 0.929412 
0.564706 0.796078 0.929412 0.564706 0.796078 0.929412 
0.564706 0.796078 0.929412 0.564706 0.796078 0.929412 
0.564706 0.796078 0.929412 0.564706 0.796078 0.929412 
0.564706 0.796078 0.929412 0.564706 0.796078 0.929412 
0.564706 0.796078 0.929412 0.564706 0.796078 0.929412 
0.564706 0.796078 0.929412 0.564706 0.796078 0.929412 
0.564706 0.796078 0.929412 0.564706 0.796078 0.929412 
0.564706 0.796078 0.929412 0.564706 0.796078 0.929412 
0.564706 0.796078 0.929412 0.564706 0.796078 0.929412 
0.564706 0.796078 0.929412 0.564706 0.796078 0.929412 
0.564706 0.796078 0.929412 0.564706 0.796078 0.929412 
0.564706 0.796078 0.929412 0.564706 0.796078 0.929412 
0.564706 0.796078 0.929412 0.564706 0.796078 0.929412 
0.564706 0.796078 0.929412 0.564706 0.796078 0.929412 
0.564706 0.796078 0.929412 0.564706 0.796078 0.929412 
0.564706 0.796078 0.929412 0.564706 0.796078 0.929412 
0.564706 0.796078 0.929412 0.564706 0.796078 0.929412 
0.564706 0.796078 0.929412 0.564706 0.796078 0.929412 
0.564706 0.796078 0.929412 0.564706 0.796078 0.929412 
0.564706 0.796078 0.929412 0.564706 0.796078 0.929412 
0.564706 0.796078 0.929412 0.564706 0.796078 0.929412 
0.564706 0.796078 0.929412 0.564706 0.796078 0.929412 
0.564706 0.796078 0.929412 0.564706 0.796078 0.929412 
0.564706 0.796078 0.929412 0.564706 0.796078 0.929412 
0.564706 0.796078 0.929412 0.564706 0.796078 0.929412 
0.564706 0.796078 0.929412 0.564706 0.796078 0.929412 
0.564706 0.796078 0.929412 0.564706 0.796078 0.929412 
0.564706 0.796078 0.929412 0.564706 0.796078 0.929412 
0.564706 0.796078 0.929412 0.564706 0.796078 0.929412 
0.564706 0.796078 0.929412 0.564706 0.796078 0.929412 
0.564706 0.796078 0.929412 0.564706 0.796078 0.929412 
0.564706 0.796078 0.929412 0.564706 0.796078 0.929412 
0.564706 0.796078 0.929412 0.564706 0.796078 0.929412 
0.564706 0.796078 0.929412 0.564706 0.796078 0.929412 
0.564706 0.796078 0.929412 0.564706 0.796078 0.929412 
0.564706 0.796078 0.929412 0.564706 0.796078 0.929412 
0.564706 0.796078 0.929412 0.564706 0.796078 0.929412 
0.564706 0.796078 0.929412 0.564706 0.796078 0.929412 
0.564706 0.796078 0.929412 0.564706 0.796078 0.929412 
0.564706 0.796078 0.929412 0.564706 0.796078 0.929412 
0.564706 0.796078 0.929412 0.564706 0.796078 0.929412 
0.564706 0.796078 0.929412 0.564706 0.796078 0.929412 
0.564706 0.796078 0.929412 0.564706 0.796078 0.929412 
0.564706 0.796078 0.929412 0.564706 0.796078 0.929412 
0.564706 0.796078 0.929412 0.564706 0.796078 0.929412 
0.564706 0.796078 0.929412 0.564706 0.796078 0.929412 
0.564706 0.796078 0.929412 0.564706 0.796078 0.929412 
0.564706 0.796078 0.929412 0.564706 0.796078 0.929412 
0.564706 0.796078 0.929412 0.564706 0.796078 0.929412 
0.564706 0.796078 0.929412 0.564706 0.796078 0.929412 
0.564706 0.796078 0.929412 0.564706 0.796078 0.929412 
0.564706 0.796078 0.929412 0.564706 0.796078 0.929412 
0.564706 0.796078 0.929412 0.564706 0.796078 0.929412 
0.564706 0.796078 0.929412 0.564706 0.796078 0.929412 
0.564706 0.796078 0.929412 0.564706 0.796078 0.929412 
0.564706 0.796078 0.929412 0.564706 0.796078 0.929412 
0.564706 0.796078 0.929412 0.564706 0.796078 0.929412 
0.564706 0.796078 0.929412 0.564706 0.796078 0.929412 
0.564706 0.796078 0.929412 0.564706 0.796078 0.929412 
0.564706 0.796078 0.929412 0.564706 0.796078 0.929412 
0.564706 0.796078 0.929412 0.564706 0.796078 0.929412 
0.564706 0.796078 0.929412 0.564706 0.796078 0.929412 
0.564706 0.796078 0.929412 0.564706 0.796078 0.929412 
0.564706 0.796078 0.929412 0.564706 0.796078 0.929412 
0.564706 0.796078 0.929412 0.564706 0.796078 0.929412 
0.564706 0.796078 0.929412 0.564706 0.796078 0.929412 
0.564706 0.796078 0.929412 0.564706 0.796078 0.929412 
0.564706 0.796078 0.929412 0.564706 0.796078 0.929412 
0.564706 0.796078 0.929412 0.564706 0.796078 0.929412 
0.564706 0.796078 0.929412 0.564706 0.796078 0.929412 
0.564706 0.796078 0.929412 0.564706 0.796078 0.929412 
0.564706 0.796078 0.929412 0.564706 0.796078 0.929412 
0.564706 0.796078 0.929412 0.564706 0.796078 0.929412 
0.564706 0.796078 0.929412 0.564706 0.796078 0.929412 
0.564706 0.796078 0.929412 0.564706 0.796078 0.929412 
0.564706 0.796078 0.929412 0.564706 0.796078 0.929412 
0.564706 0.796078 0.929412 0.564706 0.796078 0.929412 
0.564706 0.796078 0.929412 0.564706 0.796078 0.929412 
0.564706 0.796078 0.929412 0.564706 0.796078 0.929412 
0.564706 0.796078 0.929412 0.564706 0.796078 0.929412 
0.564706 0.796078 0.929412 0.564706 0.796078 0.929412 
0.564706 0.796078 0.929412 0.564706 0.796078 0.929412 
0.564706 0.796078 0.929412 0.564706 0.796078 0.929412 
0.564706 0.796078 0.929412 0.564706 0.796078 0.929412 
0.564706 0.796078 0.929412 0.564706 0.796078 0.929412 
0.564706 0.796078 0.929412 0.564706 0.796078 0.929412 
0.564706 0.796078 0.929412 0.564706 0.796078 0.929412 
0.564706 0.796078 0.929412 0.564706 0.796078 0.929412 
0.564706 0.796078 0.929412 0.564706 0.796078 0.929412 
0.564706 0.796078 0.929412 0.564706 0.796078 0.929412 
0.564706 0.796078 0.929412 0.564706 0.796078 0.929412 
0.564706 0.796078 0.929412 0.564706 0.796078 0.929412 
0.564706 0.796078 0.929412 0.564706 0.796078 0.929412 
0.564706 0.796078 0.929412 0.564706 0.796078 0.929412 
0.564706 0.796078 0.929412 0.564706 0.796078 0.929412 
0.564706 0.796078 0.929412 0.564706 0.796078 0.929412 
0.564706 0.796078 0.929412 0.564706 0.796078 0.929412 
0.564706 0.796078 0.929412 0.564706 0.796078 0.929412 
0.564706 0.796078 0.929412 0.564706 0.796078 0.929412 
0.564706 0.796078 0.929412 0.564706 0.796078 0.929412 
0.564706 0.796078 0.929412 0.564706 0.796078 0.929412 
0.564706 0.796078 0.929412 0.564706 0.796078 0.929412 
0.564706 0.796078 0.929412 0.564706 0.796078 0.929412 
0.564706 0.796078 0.929412 0.564706 0.796078 0.929412 
0.564706 0.796078 0.929412 0.564706 0.796078 0.929412 
0.564706 0.796078 0.929412 0.564706 0.796078 0.929412 
0.564706 0.796078 0.929412 0.564706 0.796078 0.929412 
0.564706 0.796078 0.929412 0.564706 0.796078 0.929412 
0.564706 0.796078 0.929412 0.564706 0.796078 0.929412 
0.564706 0.796078 0.929412 0.564706 0.796078 0.929412 
0.564706 0.796078 0.929412 0.564706 0.796078 0.929412 
0.564706 0.796078 0.929412 0.564706 0.796078 0.929412 
0.564706 0.796078 0.929412 0.564706 0.796078 0.929412 
0.564706 0.796078 0.929412 0.564706 0.796078 0.929412 
0.564706 0.796078 0.929412 0.564706 0.796078 0.929412 
0.564706 0.796078 0.929412 0.564706 0.796078 0.929412 
0.564706 0.796078 0.929412 0.564706 0.796078 0.929412 
0.564706 0.796078 0.929412 0.564706 0.796078 0.929412 
0.564706 0.796078 0.929412 0.564706 0.796078 0.929412 
0.564706 0.796078 0.929412 0.564706 0.796078 0.929412 
0.564706 0.796078 0.929412 0.564706 0.796078 0.929412 
0.564706 0.796078 0.929412 0.564706 0.796078 0.929412 
0.564706 0.796078 0.929412 0.564706 0.796078 0.929412 
0.564706 0.796078 0.929412 0.564706 0.796078 0.929412 
0.564706 0.796078 0.929412 0.564706 0.796078 0.929412 
0.564706 0.796078 0.929412 0.564706 0.796078 0.929412 
0.564706 0.796078 0.929412 0.564706 0.796078 0.929412 
0.564706 0.796078 0.929412 0.564706 0.796078 0.929412 
0.564706 0.796078 0.929412 0.564706 0.796078 0.929412 
0.564706 0.796078 0.929412 0.564706 0.796078 0.929412 
0.564706 0.796078 0.929412 0.564706 0.796078 0.929412 
0.564706 0.796078 0.929412 0.564706 0.796078 0.929412 
0.564706 0.796078 0.929412 0.564706 0.796078 0.929412 
0.564706 0.796078 0.929412 0.564706 0.796078 0.929412 
0.564706 0.796078 0.929412 0.564706 0.796078 0.929412 
0.564706 0.796078 0.929412 0.564706 0.796078 0.929412 
0.564706 0.796078 0.929412 0.564706 0.796078 0.929412 
0.564706 0.796078 0.929412 0.564706 0.796078 0.929412 
0.564706 0.796078 0.929412 0.564706 0.796078 0.929412 
0.564706 0.796078 0.929412 0.564706 0.796078 0.929412 
0.564706 0.796078 0.929412 0.564706 0.796078 0.929412 
0.564706 0.796078 0.929412 0.564706 0.796078 0.929412 
0.564706 0.796078 0.929412 0.564706 0.796078 0.929412 
0.564706 0.796078 0.929412 0.564706 0.796078 0.929412 
0.564706 0.796078 0.929412 0.564706 0.796078 0.929412 
0.564706 0.796078 0.929412 0.564706 0.796078 0.929412 
0.564706 0.796078 0.929412 0.564706 0.796078 0.929412 
0.564706 0.796078 0.929412 0.564706 0.796078 0.929412 
0.564706 0.796078 0.929412 0.564706 0.796078 0.929412 
0.564706 0.796078 0.929412 0.564706 0.796078 0.929412 
0.564706 0.796078 0.929412 0.564706 0.796078 0.929412 
0.564706 0.796078 0.929412 0.564706 0.796078 0.929412 
0.564706 0.796078 0.929412 0.564706 0.796078 0.929412 
0.564706 0.796078 0.929412 0.564706 0.796078 0.929412 
0.564706 0.796078 0.929412 0.564706 0.796078 0.929412 
0.564706 0.796078 0.929412 0.564706 0.796078 0.929412 
0.564706 0.796078 0.929412 0.564706 0.796078 0.929412 
0.564706 0.796078 0.929412 0.564706 0.796078 0.929412 
0.564706 0.796078 0.929412 0.564706 0.796078 0.929412 
0.564706 0.796078 0.929412 0.564706 0.796078 0.929412 
0.564706 0.796078 0.929412 0.564706 0.796078 0.929412 
0.564706 0.796078 0.929412 0.564706 0.796078 0.929412 
0.564706 0.796078 0.929412 0.564706 0.796078 0.929412 
0.564706 0.796078 0.929412 0.564706 0.796078 0.929412 
0.564706 0.796078 0.929412 0.564706 0.796078 0.929412 
0.564706 0.796078 0.929412 0.564706 0.796078 0.929412 
0.564706 0.796078 0.929412 0.564706 0.796078 0.929412 
0.564706 0.796078 0.929412 0.564706 0.796078 0.929412 
0.564706 0.796078 0.929412 0.564706 0.796078 0.929412 
0.564706 0.796078 0.929412 0.564706 0.796078 0.929412 
0.564706 0.796078 0.929412 0.564706 0.796078 0.929412 
0.564706 0.796078 0.929412 0.564706 0.796078 0.929412 
0.564706 0.796078 0.929412 0.564706 0.796078 0.929412 
0.564706 0.796078 0.929412 0.564706 0.796078 0.929412 
0.564706 0.796078 0.929412 0.564706 0.796078 0.929412 
0.564706 0.796078 0.929412 0.564706 0.796078 0.929412 
0.564706 0.796078 0.929412 0.564706 0.796078 0.929412 
0.564706 0.796078 0.929412 0.564706 0.796078 0.929412 
0.564706 0.796078 0.929412 0.564706 0.796078 0.929412 
0.564706 0.796078 0.929412 0.564706 0.796078 0.929412 
0.564706 0.796078 0.929412 0.564706 0.796078 0.929412 
0.564706 0.796078 0.929412 0.564706 0.796078 0.929412 
0.564706 0.796078 0.929412 0.564706 0.796078 0.929412 
0.564706 0.796078 0.929412 0.564706 0.796078 0.929412 
0.564706 0.796078 0.929412 0.564706 0.796078 0.929412 
0.564706 0.796078 0.929412 0.564706 0.796078 0.929412 
0.564706 0.796078 0.929412 0.564706 0.796078 0.929412 
0.564706 0.796078 0.929412 0.564706 0.796078 0.929412 
0.564706 0.796078 0.929412 0.564706 0.796078 0.929412 
0.564706 0.796078 0.929412 0.564706 0.796078 0.929412 
0.564706 0.796078 0.929412 0.564706 0.796078 0.929412 
0.564706 0.796078 0.929412 0.564706 0.796078 0.929412 
0.564706 0.796078 0.929412 0.564706 0.796078 0.929412 
0.564706 0.796078 0.929412 0.564706 0.796078 0.929412 
0.564706 0.796078 0.929412 0.564706 0.796078 0.929412 
0.564706 0.796078 0.929412 0.564706 0.796078 0.929412 
0.564706 0.796078 0.929412 0.564706 0.796078 0.929412 
0.564706 0.796078 0.929412 0.564706 0.796078 0.929412 
0.564706 0.796078 0.929412 0.564706 0.796078 0.929412 
0.564706 0.796078 0.929412 0.564706 0.796078 0.929412 
0.564706 0.796078 0.929412 0.564706 0.796078 0.929412 
0.564706 0.796078 0.929412 0.564706 0.796078 0.929412 
0.564706 0.796078 0.929412 0.564706 0.796078 0.929412 
0.564706 0.796078 0.929412 0.564706 0.796078 0.929412 
0.564706 0.796078 0.929412 0.564706 0.796078 0.929412 
0.564706 0.796078 0.929412 0.564706 0.796078 0.929412 
0.564706 0.796078 0.929412 0.564706 0.796078 0.929412 
0.564706 0.796078 0.929412 0.564706 0.796078 0.929412 
0.564706 0.796078 0.929412 0.564706 0.796078 0.929412 
0.564706 0.796078 0.929412 0.564706 0.796078 0.929412 
0.564706 0.796078 0.929412 0.564706 0.796078 0.929412 
0.564706 0.796078 0.929412 0.564706 0.796078 0.929412 
0.564706 0.796078 0.929412 0.564706 0.796078 0.929412 
0.564706 0.796078 0.929412 0.564706 0.796078 0.929412 
0.564706 0.796078 0.929412 0.564706 0.796078 0.929412 
0.564706 0.796078 0.929412 0.564706 0.796078 0.929412 
0.564706 0.796078 0.929412 0.564706 0.796078 0.929412 
0.564706 0.796078 0.929412 0.564706 0.796078 0.929412 
0.564706 0.796078 0.929412 0.564706 0.796078 0.929412 
0.564706 0.796078 0.929412 0.564706 0.796078 0.929412 
0.564706 0.796078 0.929412 0.564706 0.796078 0.929412 
0.564706 0.796078 0.929412 0.564706 0.796078 0.929412 
0.564706 0.796078 0.929412 0.564706 0.796078 0.929412 
0.564706 0.796078 0.929412 0.564706 0.796078 0.929412 
0.564706 0.796078 0.929412 0.564706 0.796078 0.929412 
0.564706 0.796078 0.929412 0.564706 0.796078 0.929412 
0.564706 0.796078 0.929412 0.564706 0.796078 0.929412 
0.564706 0.796078 0.929412 0.564706 0.796078 0.929412 
0.564706 0.796078 0.929412 0.564706 0.796078 0.929412 
0.564706 0.796078 0.929412 0.564706 0.796078 0.929412 
0.564706 0.796078 0.929412 0.564706 0.796078 0.929412 
0.564706 0.796078 0.929412 0.564706 0.796078 0.929412 
0.564706 0.796078 0.929412 0.564706 0.796078 0.929412 
0.564706 0.796078 0.929412 0.564706 0.796078 0.929412 
0.564706 0.796078 0.929412 0.564706 0.796078 0.929412 
0.564706 0.796078 0.929412 0.564706 0.796078 0.929412 
0.564706 0.796078 0.929412 0.564706 0.796078 0.929412 
0.564706 0.796078 0.929412 0.564706 0.796078 0.929412 
0.564706 0.796078 0.929412 0.564706 0.796078 0.929412 
0.564706 0.796078 0.929412 0.564706 0.796078 0.929412 
0.564706 0.796078 0.929412 0.564706 0.796078 0.929412 
0.564706 0.796078 0.929412 0.564706 0.796078 0.929412 
0.564706 0.796078 0.929412 0.564706 0.796078 0.929412 
0.564706 0.796078 0.929412 0.564706 0.796078 0.929412 
0.564706 0.796078 0.929412 0.564706 0.796078 0.929412 
0.564706 0.796078 0.929412 0.564706 0.796078 0.929412 
0.564706 0.796078 0.929412 0.564706 0.796078 0.929412 
0.564706 0.796078 0.929412 0.564706 0.796078 0.929412 
0.564706 0.796078 0.929412 0.564706 0.796078 0.929412 
0.564706 0.796078 0.929412 0.564706 0.796078 0.929412 
0.564706 0.796078 0.929412 0.564706 0.796078 0.929412 
0.564706 0.796078 0.929412 0.564706 0.796078 0.929412 
0.564706 0.796078 0.929412 0.564706 0.796078 0.929412 
0.564706 0.796078 0.929412 0.564706 0.796078 0.929412 
0.564706 0.796078 0.929412 0.564706 0.796078 0.929412 
0.564706 0.796078 0.929412 0.564706 0.796078 0.929412 
0.564706 0.796078 0.929412 0.564706 0.796078 0.929412 
0.564706 0.796078 0.929412 0.564706 0.796078 0.929412 
0.564706 0.796078 0.929412 0.564706 0.796078 0.929412 
0.564706 0.796078 0.929412 0.564706 0.796078 0.929412 
0.564706 0.796078 0.929412 0.564706 0.796078 0.929412 
0.564706 0.796078 0.929412 0.564706 0.796078 0.929412 
0.564706 0.796078 0.929412 0.564706 0.796078 0.929412 
0.564706 0.796078 0.929412 0.564706 0.796078 0.929412 
0.564706 0.796078 0.929412 0.564706 0.796078 0.929412 
0.564706 0.796078 0.929412 0.564706 0.796078 0.929412 
0.564706 0.796078 0.929412 0.564706 0.796078 0.929412 
0.564706 0.796078 0.929412 0.564706 0.796078 0.929412 
0.564706 0.796078 0.929412 0.564706 0.796078 0.929412 
0.564706 0.796078 0.929412 0.564706 0.796078 0.929412 
0.564706 0.796078 0.929412 0.564706 0.796078 0.929412 
0.564706 0.796078 0.929412 0.564706 0.796078 0.929412 
0.564706 0.796078 0.929412 0.564706 0.796078 0.929412 
0.564706 0.796078 0.929412 0.564706 0.796078 0.929412 
0.564706 0.796078 0.929412 0.564706 0.796078 0.929412 
0.564706 0.796078 0.929412 0.564706 0.796078 0.929412 
0.564706 0.796078 0.929412 0.564706 0.796078 0.929412 
0.564706 0.796078 0.929412 0.564706 0.796078 0.929412 
0.564706 0.796078 0.929412 0.564706 0.796078 0.929412 
0.564706 0.796078 0.929412 0.564706 0.796078 0.929412 
0.564706 0.796078 0.929412 0.564706 0.796078 0.929412 
0.564706 0.796078 0.929412 0.564706 0.796078 0.929412 
0.564706 0.796078 0.929412 0.564706 0.796078 0.929412 
0.564706 0.796078 0.929412 0.564706 0.796078 0.929412 
0.564706 0.796078 0.929412 0.564706 0.796078 0.929412 
0.564706 0.796078 0.929412 0.564706 0.796078 0.929412 
0.564706 0.796078 0.929412 0.564706 0.796078 0.929412 
0.564706 0.796078 0.929412 0.564706 0.796078 0.929412 
0.564706 0.796078 0.929412 0.564706 0.796078 0.929412 
0.564706 0.796078 0.929412 0.564706 0.796078 0.929412 
0.564706 0.796078 0.929412 0.564706 0.796078 0.929412 
0.564706 0.796078 0.929412 0.564706 0.796078 0.929412 
0.564706 0.796078 0.929412 0.564706 0.796078 0.929412 
0.564706 0.796078 0.929412 0.564706 0.796078 0.929412 
0.564706 0.796078 0.929412 0.564706 0.796078 0.929412 
0.564706 0.796078 0.929412 0.564706 0.796078 0.929412 
0.564706 0.796078 0.929412 0.564706 0.796078 0.929412 
0.564706 0.796078 0.929412 0.564706 0.796078 0.929412 
0.564706 0.796078 0.929412 0.564706 0.796078 0.929412 
0.564706 0.796078 0.929412 0.564706 0.796078 0.929412 
0.564706 0.796078 0.929412 0.564706 0.796078 0.929412 
0.564706 0.796078 0.929412 0.564706 0.796078 0.929412 
0.564706 0.796078 0.929412 0.564706 0.796078 0.929412 
0.564706 0.796078 0.929412 0.564706 0.796078 0.929412 
0.564706 0.796078 0.929412 0.564706 0.796078 0.929412 
0.564706 0.796078 0.929412 0.564706 0.796078 0.929412 
0.564706 0.796078 0.929412 0.564706 0.796078 0.929412 
0.564706 0.796078 0.929412 0.564706 0.796078 0.929412 
0.564706 0.796078 0.929412 0.564706 0.796078 0.929412 
0.564706 0.796078 0.929412 0.564706 0.796078 0.929412 
0.564706 0.796078 0.929412 0.564706 0.796078 0.929412 
0.564706 0.796078 0.929412 0.564706 0.796078 0.929412 
0.564706 0.796078 0.929412 0.564706 0.796078 0.929412 
0.564706 0.796078 0.929412 0.564706 0.796078 0.929412 
0.564706 0.796078 0.929412 0.564706 0.796078 0.929412 
0.564706 0.796078 0.929412 0.564706 0.796078 0.929412 
0.564706 0.796078 0.929412 0.564706 0.796078 0.929412 
0.564706 0.796078 0.929412 0.564706 0.796078 0.929412 
0.564706 0.796078 0.929412 0.564706 0.796078 0.929412 