# vtk DataFile Version 4.2
vtk output
ASCII
DATASET POLYDATA
POINTS 305 float
432.237 194.69 213.39 432.985 194.904 213.099 435.037 194.944 213.295 
435.234 194.68 213.542 432.086 195.31 213.166 431.626 195.387 213.35 
434.763 195.384 213.08 435.498 195.422 213.262 435.977 195.625 213.379 
435.975 195.334 213.526 431.833 195.628 213.213 432.293 195.73 213.093 
433.696 195.723 212.913 435.781 195.9 213.288 433.11 196.344 213.028 
433.436 196.653 213.105 434.903 196.412 213.145 436.055 196.247 213.466 
431.638 194.345 214.197 433.583 194.176 213.593 433.888 193.954 213.905 
434.466 194.153 213.705 434.302 194.019 213.851 430.975 194.855 214.268 
435.569 194.719 213.754 435.676 194.609 214.166 430.682 195.14 214.473 
430.629 195.57 214.32 436.496 195.838 213.812 436.34 195.445 213.824 
436.628 195.661 214.115 430.842 195.656 213.945 430.911 195.88 213.847 
436.494 196.371 213.856 431.138 196.671 213.897 435.109 197.476 213.684 
436.967 197.32 214.533 436.153 197.931 214.275 431.956 193.876 214.942 
432.507 193.786 214.69 430.53 195.087 214.995 436.461 195.313 214.275 
430.416 196.027 214.827 431.198 197.409 214.401 431.012 197.552 214.734 
437.371 197.478 215.125 432.17 198.261 214.75 431.909 193.795 215.52 
434.585 193.882 215.239 436.201 194.846 215.213 430.214 195.983 215.561 
437.656 196.839 215.687 437.684 197.196 215.569 430.61 197.551 215.395 
437.7 197.503 215.611 431.831 198.718 215.605 434.954 199.376 215.58 
437.158 199.031 216.083 431.504 193.989 215.833 434.418 193.84 215.794 
430.451 195.165 216.348 430.115 196.149 216.206 430.066 196.67 216.501 
430.394 197.328 215.734 431.128 198.322 215.766 437.606 198.428 216.063 
432.979 199.579 216.629 435.916 199.795 216.667 436.58 199.586 216.655 
431.62 193.962 216.296 431.915 193.854 216.455 433.811 193.812 216.439 
435.554 194.524 216.826 437.469 196.429 217.065 430.032 197.363 217.407 
430.248 197.911 217.45 437.883 198.288 217.045 430.668 198.452 217.255 
437.563 198.986 216.804 437.738 198.809 217.202 432.65 193.831 216.732 
430.936 194.827 217.265 431.245 194.675 217.496 435.044 194.551 217.488 
436.757 195.533 217.216 430.024 196.547 217.657 429.963 197.069 217.826 
437.886 198.118 217.611 430.874 198.856 217.909 431.797 199.462 218.307 
436.113 200.087 217.749 436.651 199.937 217.767 437.337 199.463 217.932 
435.293 200.204 218.313 432.64 194.453 217.926 430.556 196.023 218.585 
430.235 196.312 218.254 436.859 196.445 218.617 430.016 197.253 218.43 
437.489 197.462 218.743 430.078 197.744 218.631 437.698 197.702 218.374 
437.706 198.77 218.169 430.771 198.947 218.996 431.754 199.453 218.898 
437.071 199.724 218.326 437.315 199.456 218.506 436.195 200.036 218.645 
433.07 194.611 218.2 430.754 196.182 219.037 431.324 196.118 219.334 
434.858 195.639 219.08 430.219 196.896 218.852 430.895 196.452 219.412 
430.294 198.245 219.355 437.438 198.21 219.002 430.481 198.604 219.267 
430.739 198.917 219.37 437.403 199.215 218.712 431.469 199.295 219.267 
432.053 199.448 219.248 434.416 199.873 219.259 437.258 199.384 218.808 
434.833 200.013 219.113 431.813 195.995 219.442 430.479 197.001 219.378 
433.917 196.643 219.991 430.734 197.285 219.692 431.121 197.081 219.837 
435.45 196.84 219.773 437.042 197.318 219.274 436.707 197.707 219.707 
436.81 198.022 219.691 430.398 198.297 219.591 430.384 198.431 219.495 
430.548 198.51 219.624 437.075 198.313 219.466 430.9 198.993 219.541 
430.989 198.905 219.704 436.733 199.107 219.493 434.966 199.416 219.746 
435.496 199.718 219.45 436.281 199.228 219.636 432.461 197.526 220.212 
433.247 197.392 220.226 432.338 198.075 220.225 432.901 198.537 220.166 
434.559 198.46 220.176 436.071 198.397 219.968 436.647 198.381 219.759 
434.35 198.998 219.996 435.857 198.879 219.912 431.528 197.451 235.137 
431.352 197.106 235.265 433.531 197.49 234.872 434.47 197.087 235.072 
434.019 197.978 234.841 434.775 197.432 234.995 435.385 198.04 235.045 
431.156 198.105 235.427 430.959 198.1 235.608 432.293 198.491 235.115 
433.053 198.49 234.958 434.512 198.452 234.927 435.193 198.429 235.032 
432.405 198.935 235.325 432.778 199.208 235.466 433.605 198.94 235.104 
434.181 199.321 235.343 435.36 199.293 235.428 431.502 195.6 236.336 
432.889 195.996 235.686 434.003 195.564 236.088 431.261 196.642 235.542 
430.984 196.264 235.836 430.733 196.404 235.915 435.094 195.976 235.944 
430.44 196.562 236.113 436.273 198.694 235.482 436.865 198.549 235.767 
437.504 198.111 236.127 431.242 198.834 236.145 431.698 198.989 235.879 
436.121 199.259 235.636 433.681 199.677 235.907 434.111 199.618 235.689 
435.489 199.924 236.062 436.28 199.658 235.962 437.152 199.372 236.312 
436.972 199.622 236.357 430.795 195.546 236.785 430.3 196.052 236.596 
436.051 196.28 236.017 437.224 197.17 236.227 437.653 197.95 236.307 
437.594 197.648 236.355 430.965 198.971 237.252 437.724 198.823 236.966 
434.995 200.13 236.648 437.245 199.518 236.651 436.138 200.137 236.624 
436.515 200.011 236.611 431.861 194.654 237.438 432.605 194.585 237.354 
430.392 195.797 236.804 430.417 195.586 237.293 430.197 196.021 236.996 
430.856 195.079 237.546 436.635 195.906 236.955 430.045 196.441 237.219 
436.961 196.041 237.205 429.981 196.962 237.493 437.67 197.448 236.671 
430.599 198.604 237.743 437.212 199.66 237.086 435.991 200.21 236.948 
436.79 199.963 237.083 433.157 193.636 239.145 432.887 193.817 238.677 
433.597 193.686 238.972 431.125 194.673 237.963 435.136 194.434 238.321 
430.011 197.497 238.589 437.937 198.484 238.034 431.335 199.242 238.374 
437.759 198.93 238.156 435.385 200.228 237.373 436.805 199.933 237.557 
432.184 193.83 239.21 433.279 193.533 239.678 434.16 193.682 239.406 
431.216 194.348 239.33 430.738 194.82 238.778 430.354 195.298 239 
430.098 195.838 238.453 437.066 195.836 238.102 437.474 196.417 238.824 
437.923 197.495 238.403 437.974 198.026 238.526 430.329 198.037 239.453 
430.436 198.33 239.062 430.569 198.372 239.417 431.656 199.354 238.574 
437.739 198.68 238.989 436.696 195.396 239.082 429.998 196.883 239.85 
437.887 198.055 239.088 430.827 198.518 239.578 437.805 198.394 239.156 
437.125 198.966 239.386 432.115 193.932 241.164 433.081 193.568 240.74 
434.102 193.641 240.42 435.614 194.543 240.781 430.46 195.42 240.55 
437.015 195.932 240.133 430.113 196.837 240.526 437.687 197.167 239.484 
430.29 197.499 240.431 430.408 197.464 240.716 437.372 197.876 240.06 
434.762 199.374 239.753 436.496 198.746 240.228 431.695 194.314 241.467 
431.243 194.66 241.398 430.309 195.938 240.698 436.991 196.581 240.857 
430.195 196.939 240.808 430.368 196.959 241.013 430.498 197.262 240.981 
430.792 197.382 241.112 430.972 197.696 240.908 433.898 198.612 240.834 
436.65 198.345 240.568 432.038 194.252 241.856 433.157 193.877 241.781 
434.147 193.876 241.544 434.025 193.944 241.778 431.171 194.85 241.546 
431.93 194.511 241.991 435.404 194.721 241.798 430.908 195.529 241.533 
431.271 196.066 241.965 436.547 197.125 241.466 436.186 197.001 241.816 
434.309 197.061 242.212 435.743 197.075 241.973 432.773 194.18 242.21 
434.606 194.556 242.317 434.4 194.692 242.551 435.282 195.212 242.326 
435.271 195.593 242.497 436.17 195.743 241.734 432.462 195.504 242.676 
432.763 195.646 242.779 434.75 195.95 242.67 434.958 195.682 242.654 
435.842 196.15 242.192 432.973 195.911 242.75 434.181 195.997 242.731 
433.41 194.772 242.68 432.809 195.322 242.775 433.309 195.198 242.82 
434.407 195.018 242.699 433.749 195.561 242.841 
POLYGONS 602 2408
3 0 1 19 
3 1 2 21 
3 19 1 21 
3 21 2 3 
3 5 4 0 
3 1 0 4 
3 12 1 4 
3 2 1 12 
3 6 2 12 
3 24 3 2 
3 24 2 7 
3 7 2 6 
3 7 8 9 
3 24 7 9 
3 10 4 5 
3 11 4 10 
3 12 4 14 
3 14 4 11 
3 6 12 15 
3 7 6 15 
3 8 7 13 
3 14 15 12 
3 7 15 16 
3 13 7 16 
3 8 13 17 
3 18 0 39 
3 39 0 19 
3 19 21 20 
3 20 21 22 
3 18 23 5 
3 0 18 5 
3 3 24 25 
3 23 26 27 
3 24 9 25 
3 8 28 29 
3 8 29 9 
3 29 28 30 
3 23 27 31 
3 31 32 23 
3 23 32 5 
3 5 32 10 
3 28 8 33 
3 33 30 28 
3 10 32 34 
3 10 15 11 
3 34 15 10 
3 15 14 11 
3 16 15 35 
3 16 35 13 
3 13 35 17 
3 17 33 8 
3 17 35 33 
3 35 36 33 
3 36 30 33 
3 34 43 15 
3 37 36 35 
3 35 15 46 
3 18 39 38 
3 19 20 39 
3 40 23 18 
3 21 25 22 
3 3 25 21 
3 27 26 40 
3 40 26 23 
3 9 41 25 
3 29 41 9 
3 41 29 30 
3 32 31 27 
3 32 27 42 
3 42 27 40 
3 32 42 44 
3 32 44 34 
3 30 36 51 
3 34 44 43 
3 36 45 51 
3 15 43 46 
3 46 37 35 
3 45 36 37 
3 37 46 56 
3 18 38 47 
3 39 47 38 
3 20 22 39 
3 47 40 18 
3 22 25 48 
3 41 49 25 
3 41 30 49 
3 40 50 42 
3 84 30 51 
3 44 42 63 
3 63 42 50 
3 52 45 54 
3 51 45 52 
3 54 51 52 
3 44 53 64 
3 44 64 43 
3 43 64 55 
3 46 43 55 
3 37 57 65 
3 45 37 65 
3 45 65 54 
3 66 46 55 
3 46 66 56 
3 56 57 37 
3 57 56 67 
3 47 70 58 
3 22 59 39 
3 59 22 48 
3 58 40 47 
3 69 40 58 
3 25 59 48 
3 59 25 49 
3 72 59 49 
3 40 60 50 
3 30 84 49 
3 84 51 73 
3 50 61 63 
3 61 62 63 
3 44 63 53 
3 53 63 64 
3 76 51 54 
3 65 76 54 
3 57 67 68 
3 57 68 78 
3 70 69 58 
3 39 80 47 
3 47 80 70 
3 39 71 80 
3 59 71 39 
3 40 69 81 
3 70 81 69 
3 81 60 40 
3 49 84 72 
3 50 60 61 
3 60 62 61 
3 87 73 51 
3 51 76 87 
3 77 63 62 
3 77 62 75 
3 75 62 74 
3 77 64 63 
3 65 78 76 
3 89 64 77 
3 55 64 89 
3 89 66 55 
3 65 57 78 
3 79 76 78 
3 67 56 93 
3 56 66 93 
3 67 93 90 
3 68 67 90 
3 68 90 78 
3 82 81 70 
3 80 82 70 
3 59 83 71 
3 72 83 59 
3 81 95 85 
3 60 81 85 
3 82 95 81 
3 60 85 62 
3 62 85 74 
3 85 86 74 
3 86 98 74 
3 74 98 75 
3 98 100 75 
3 77 75 100 
3 89 77 88 
3 77 100 88 
3 76 79 87 
3 87 79 102 
3 90 91 78 
3 105 78 91 
3 105 92 78 
3 92 79 78 
3 92 102 79 
3 90 93 107 
3 91 90 107 
3 105 91 107 
3 82 80 94 
3 94 80 108 
3 71 108 80 
3 85 95 96 
3 108 82 94 
3 72 84 83 
3 96 86 85 
3 84 73 97 
3 101 99 97 
3 73 101 97 
3 73 87 101 
3 101 87 102 
3 100 114 103 
3 88 100 103 
3 88 103 119 
3 88 119 89 
3 89 119 104 
3 66 89 120 
3 89 104 120 
3 121 93 66 
3 92 105 106 
3 118 102 92 
3 106 118 92 
3 110 109 95 
3 110 95 124 
3 124 95 82 
3 108 124 82 
3 71 111 108 
3 83 111 71 
3 111 83 84 
3 95 113 112 
3 95 112 96 
3 96 112 86 
3 109 113 95 
3 110 113 109 
3 84 97 111 
3 86 112 98 
3 97 130 111 
3 130 97 99 
3 98 114 100 
3 130 99 101 
3 115 130 101 
3 115 101 118 
3 118 101 102 
3 103 114 116 
3 117 103 116 
3 103 117 137 
3 119 103 137 
3 104 119 120 
3 66 120 121 
3 105 122 106 
3 122 118 106 
3 93 121 123 
3 107 93 141 
3 105 107 141 
3 141 122 105 
3 124 108 126 
3 126 108 111 
3 113 125 112 
3 113 128 125 
3 110 128 113 
3 110 124 128 
3 112 125 98 
3 128 127 125 
3 129 126 111 
3 131 129 111 
3 131 111 130 
3 98 125 114 
3 125 133 114 
3 131 130 132 
3 133 134 114 
3 133 135 134 
3 130 136 132 
3 115 136 130 
3 115 118 136 
3 114 134 116 
3 116 137 117 
3 116 135 137 
3 116 134 135 
3 139 136 122 
3 136 118 122 
3 121 120 119 
3 123 140 141 
3 121 140 123 
3 141 93 123 
3 139 141 142 
3 122 141 139 
3 124 126 143 
3 128 124 143 
3 143 138 128 
3 126 144 143 
3 126 129 147 
3 147 129 131 
3 125 127 133 
3 138 127 128 
3 143 145 138 
3 144 146 143 
3 146 145 143 
3 126 147 144 
3 147 146 144 
3 131 148 147 
3 135 133 138 
3 138 133 127 
3 146 138 145 
3 132 136 149 
3 132 149 131 
3 131 149 148 
3 135 138 137 
3 147 150 146 
3 150 138 146 
3 148 140 147 
3 140 150 147 
3 151 140 148 
3 149 142 148 
3 142 151 148 
3 136 139 142 
3 149 136 142 
3 119 137 138 
3 150 119 138 
3 121 119 150 
3 140 121 150 
3 151 141 140 
3 142 141 151 
3 153 152 154 
3 159 152 153 
3 160 159 153 
3 154 152 162 
3 155 154 156 
3 156 154 162 
3 157 155 156 
3 161 152 159 
3 162 152 161 
3 156 162 167 
3 157 156 163 
3 163 156 167 
3 158 157 164 
3 164 157 163 
3 182 159 160 
3 161 159 182 
3 165 161 182 
3 165 166 161 
3 161 166 162 
3 167 162 166 
3 163 167 164 
3 169 158 164 
3 164 167 168 
3 173 174 175 
3 174 173 170 
3 170 173 154 
3 171 170 154 
3 172 171 154 
3 176 172 154 
3 173 175 177 
3 173 177 153 
3 154 173 153 
3 155 176 154 
3 155 157 176 
3 192 176 158 
3 158 176 157 
3 192 158 193 
3 177 160 153 
3 178 193 158 
3 180 193 178 
3 180 178 179 
3 181 182 160 
3 178 169 183 
3 158 169 178 
3 179 178 189 
3 189 178 183 
3 180 179 188 
3 188 179 189 
3 188 194 180 
3 166 165 182 
3 167 166 184 
3 168 167 185 
3 167 184 185 
3 164 168 169 
3 168 185 169 
3 169 186 183 
3 186 187 183 
3 189 183 187 
3 194 188 199 
3 187 186 200 
3 189 187 200 
3 191 174 170 
3 191 170 190 
3 190 170 207 
3 171 202 170 
3 170 202 207 
3 171 172 202 
3 191 175 174 
3 175 191 177 
3 177 191 160 
3 180 194 195 
3 193 180 195 
3 181 160 196 
3 181 196 182 
3 166 182 184 
3 186 185 198 
3 186 169 185 
3 197 194 199 
3 214 197 199 
3 189 200 201 
3 199 188 189 
3 202 203 220 
3 203 219 218 
3 220 203 218 
3 204 205 206 
3 204 191 190 
3 204 190 205 
3 205 190 207 
3 220 207 202 
3 172 203 202 
3 219 203 172 
3 172 176 219 
3 176 192 208 
3 176 208 219 
3 191 204 206 
3 191 206 209 
3 210 235 208 
3 210 208 192 
3 209 211 191 
3 210 192 193 
3 193 212 210 
3 193 195 212 
3 212 195 194 
3 212 194 223 
3 191 211 160 
3 211 222 160 
3 160 222 213 
3 196 160 213 
3 224 196 213 
3 194 197 223 
3 184 182 196 
3 185 184 198 
3 184 196 198 
3 223 197 214 
3 186 198 226 
3 200 186 215 
3 186 226 215 
3 200 215 201 
3 189 201 216 
3 214 199 189 
3 216 214 189 
3 217 218 219 
3 220 218 228 
3 220 234 207 
3 234 205 207 
3 219 208 221 
3 208 235 221 
3 206 205 209 
3 210 237 235 
3 212 237 210 
3 209 222 211 
3 212 223 237 
3 213 222 240 
3 213 240 224 
3 198 196 226 
3 227 243 214 
3 225 223 214 
3 243 225 214 
3 201 215 227 
3 215 226 227 
3 227 216 201 
3 214 216 227 
3 228 218 229 
3 218 217 229 
3 219 230 217 
3 217 230 229 
3 220 231 232 
3 231 220 228 
3 219 221 230 
3 232 234 220 
3 233 234 232 
3 221 235 244 
3 205 234 209 
3 235 237 236 
3 209 234 222 
3 234 245 222 
3 237 223 238 
3 239 240 245 
3 245 240 222 
3 239 241 240 
3 238 223 243 
3 224 240 242 
3 225 243 223 
3 224 242 196 
3 196 242 226 
3 226 261 227 
3 232 231 254 
3 230 221 252 
3 253 252 221 
3 233 254 234 
3 254 233 232 
3 221 255 253 
3 244 255 221 
3 235 236 244 
3 244 236 257 
3 237 257 236 
3 246 257 237 
3 237 238 246 
3 239 245 258 
3 241 239 247 
3 239 258 247 
3 248 246 243 
3 243 246 238 
3 241 247 240 
3 240 247 242 
3 243 249 248 
3 227 261 262 
3 243 227 249 
3 227 262 249 
3 228 251 250 
3 229 251 228 
3 230 252 229 
3 229 252 251 
3 254 256 234 
3 244 257 255 
3 234 256 245 
3 267 258 256 
3 256 258 245 
3 267 259 258 
3 260 257 248 
3 257 246 248 
3 247 258 271 
3 248 262 260 
3 242 247 271 
3 272 242 271 
3 242 272 226 
3 261 273 262 
3 249 262 248 
3 250 274 263 
3 228 250 263 
3 251 275 250 
3 250 275 274 
3 252 276 251 
3 276 252 280 
3 231 264 278 
3 254 231 278 
3 263 231 228 
3 264 231 263 
3 280 252 253 
3 265 254 278 
3 253 255 280 
3 254 265 256 
3 265 267 256 
3 255 257 266 
3 267 269 259 
3 267 268 269 
3 269 270 259 
3 257 260 266 
3 266 260 273 
3 259 270 271 
3 259 271 258 
3 262 273 260 
3 261 226 272 
3 273 261 272 
3 287 274 275 
3 251 277 275 
3 276 277 251 
3 263 278 264 
3 263 279 278 
3 263 274 279 
3 287 279 274 
3 280 277 276 
3 278 281 265 
3 292 255 266 
3 265 268 267 
3 282 265 281 
3 282 268 265 
3 292 266 283 
3 270 268 282 
3 298 270 282 
3 268 270 269 
3 284 283 286 
3 266 273 283 
3 298 271 270 
3 272 271 298 
3 285 272 298 
3 286 272 285 
3 273 272 286 
3 283 273 286 
3 287 275 277 
3 289 287 277 
3 277 288 289 
3 288 277 280 
3 278 282 281 
3 278 279 282 
3 282 279 293 
3 293 279 287 
3 290 288 280 
3 297 291 290 
3 280 297 290 
3 280 255 292 
3 297 280 292 
3 298 282 293 
3 291 295 296 
3 292 283 297 
3 298 293 294 
3 298 304 285 
3 285 299 295 
3 304 299 285 
3 291 286 295 
3 297 286 291 
3 283 284 297 
3 286 285 295 
3 284 286 297 
3 301 287 300 
3 300 287 289 
3 287 301 293 
3 300 302 301 
3 289 304 300 
3 304 302 300 
3 289 288 303 
3 289 303 304 
3 288 290 296 
3 303 288 296 
3 290 291 296 
3 294 293 301 
3 294 301 298 
3 298 301 302 
3 304 298 302 
3 296 295 303 
3 303 299 304 
3 295 299 303 

POINT_DATA 305
COLOR_SCALARS scalars 3
1 0.729412 0.52549 1 0.729412 0.52549 1 0.729412 0.52549 
1 0.729412 0.52549 1 0.729412 0.52549 
1 0.729412 0.52549 1 0.729412 0.52549 
1 0.729412 0.52549 1 0.729412 0.52549 
1 0.729412 0.52549 1 0.729412 0.52549 
1 0.729412 0.52549 1 0.729412 0.52549 
1 0.729412 0.52549 1 0.729412 0.52549 
1 0.729412 0.52549 1 0.729412 0.52549 
1 0.729412 0.52549 1 0.729412 0.52549 
1 0.729412 0.52549 1 0.729412 0.52549 
1 0.729412 0.52549 1 0.729412 0.52549 
1 0.729412 0.52549 1 0.729412 0.52549 
1 0.729412 0.52549 1 0.729412 0.52549 
1 0.729412 0.52549 1 0.729412 0.52549 
1 0.729412 0.52549 1 0.729412 0.52549 
1 0.729412 0.52549 1 0.729412 0.52549 
1 0.729412 0.52549 1 0.729412 0.52549 
1 0.729412 0.52549 1 0.729412 0.52549 
1 0.729412 0.52549 1 0.729412 0.52549 
1 0.729412 0.52549 1 0.729412 0.52549 
1 0.729412 0.52549 1 0.729412 0.52549 
1 0.729412 0.52549 1 0.729412 0.52549 
1 0.729412 0.52549 1 0.729412 0.52549 
1 0.729412 0.52549 1 0.729412 0.52549 
1 0.729412 0.52549 1 0.729412 0.52549 
1 0.729412 0.52549 1 0.729412 0.52549 
1 0.729412 0.52549 1 0.729412 0.52549 
1 0.729412 0.52549 1 0.729412 0.52549 
1 0.729412 0.52549 1 0.729412 0.52549 
1 0.729412 0.52549 1 0.729412 0.52549 
1 0.729412 0.52549 1 0.729412 0.52549 
1 0.729412 0.52549 1 0.729412 0.52549 
1 0.729412 0.52549 1 0.729412 0.52549 
1 0.729412 0.52549 1 0.729412 0.52549 
1 0.729412 0.52549 1 0.729412 0.52549 
1 0.729412 0.52549 1 0.729412 0.52549 
1 0.729412 0.52549 1 0.729412 0.52549 
1 0.729412 0.52549 1 0.729412 0.52549 
1 0.729412 0.52549 1 0.729412 0.52549 
1 0.729412 0.52549 1 0.729412 0.52549 
1 0.729412 0.52549 1 0.729412 0.52549 
1 0.729412 0.52549 1 0.729412 0.52549 
1 0.729412 0.52549 1 0.729412 0.52549 
1 0.729412 0.52549 1 0.729412 0.52549 
1 0.729412 0.52549 1 0.729412 0.52549 
1 0.729412 0.52549 1 0.729412 0.52549 
1 0.729412 0.52549 1 0.729412 0.52549 
1 0.729412 0.52549 1 0.729412 0.52549 
1 0.729412 0.52549 1 0.729412 0.52549 
1 0.729412 0.52549 1 0.729412 0.52549 
1 0.729412 0.52549 1 0.729412 0.52549 
1 0.729412 0.52549 1 0.729412 0.52549 
1 0.729412 0.52549 1 0.729412 0.52549 
1 0.729412 0.52549 1 0.729412 0.52549 
1 0.729412 0.52549 1 0.729412 0.52549 
1 0.729412 0.52549 1 0.729412 0.52549 
1 0.729412 0.52549 1 0.729412 0.52549 
1 0.729412 0.52549 1 0.729412 0.52549 
1 0.729412 0.52549 1 0.729412 0.52549 
1 0.729412 0.52549 1 0.729412 0.52549 
1 0.729412 0.52549 1 0.729412 0.52549 
1 0.729412 0.52549 1 0.729412 0.52549 
1 0.729412 0.52549 1 0.729412 0.52549 
1 0.729412 0.52549 1 0.729412 0.52549 
1 0.729412 0.52549 1 0.729412 0.52549 
1 0.729412 0.52549 1 0.729412 0.52549 
1 0.729412 0.52549 1 0.729412 0.52549 
1 0.729412 0.52549 1 0.729412 0.52549 
1 0.729412 0.52549 1 0.729412 0.52549 
1 0.729412 0.52549 1 0.729412 0.52549 
1 0.729412 0.52549 1 0.729412 0.52549 
1 0.729412 0.52549 1 0.729412 0.52549 
1 0.729412 0.52549 1 0.729412 0.52549 
1 0.729412 0.52549 1 0.729412 0.52549 
1 0.729412 0.52549 1 0.729412 0.52549 
1 0.729412 0.52549 1 0.729412 0.52549 
1 0.729412 0.52549 1 0.729412 0.52549 
1 0.729412 0.52549 1 0.729412 0.52549 
1 0.729412 0.52549 1 0.729412 0.52549 
1 0.729412 0.52549 1 0.729412 0.52549 
1 0.729412 0.52549 1 0.729412 0.52549 
1 0.729412 0.52549 1 0.729412 0.52549 
1 0.729412 0.52549 1 0.729412 0.52549 
1 0.729412 0.52549 1 0.729412 0.52549 
1 0.729412 0.52549 1 0.729412 0.52549 
1 0.729412 0.52549 1 0.729412 0.52549 
1 0.729412 0.52549 1 0.729412 0.52549 
1 0.729412 0.52549 1 0.729412 0.52549 
1 0.729412 0.52549 1 0.729412 0.52549 
1 0.729412 0.52549 1 0.729412 0.52549 
1 0.729412 0.52549 1 0.729412 0.52549 
1 0.729412 0.52549 1 0.729412 0.52549 
1 0.729412 0.52549 1 0.729412 0.52549 
1 0.729412 0.52549 1 0.729412 0.52549 
1 0.729412 0.52549 1 0.729412 0.52549 
1 0.729412 0.52549 1 0.729412 0.52549 
1 0.729412 0.52549 1 0.729412 0.52549 
1 0.729412 0.52549 1 0.729412 0.52549 
1 0.729412 0.52549 1 0.729412 0.52549 
1 0.729412 0.52549 1 0.729412 0.52549 
1 0.729412 0.52549 1 0.729412 0.52549 
1 0.729412 0.52549 1 0.729412 0.52549 
1 0.729412 0.52549 1 0.729412 0.52549 
1 0.729412 0.52549 1 0.729412 0.52549 
1 0.729412 0.52549 1 0.729412 0.52549 
1 0.729412 0.52549 1 0.729412 0.52549 
1 0.729412 0.52549 1 0.729412 0.52549 
1 0.729412 0.52549 1 0.729412 0.52549 
1 0.729412 0.52549 1 0.729412 0.52549 
1 0.729412 0.52549 1 0.729412 0.52549 
1 0.729412 0.52549 1 0.729412 0.52549 
1 0.729412 0.52549 1 0.729412 0.52549 
1 0.729412 0.52549 1 0.729412 0.52549 
1 0.729412 0.52549 1 0.729412 0.52549 
1 0.729412 0.52549 1 0.729412 0.52549 
1 0.729412 0.52549 1 0.729412 0.52549 
1 0.729412 0.52549 1 0.729412 0.52549 
1 0.729412 0.52549 1 0.729412 0.52549 
1 0.729412 0.52549 1 0.729412 0.52549 
1 0.729412 0.52549 1 0.729412 0.52549 
1 0.729412 0.52549 1 0.729412 0.52549 
1 0.729412 0.52549 1 0.729412 0.52549 
1 0.729412 0.52549 1 0.729412 0.52549 
1 0.729412 0.52549 1 0.729412 0.52549 
1 0.729412 0.52549 1 0.729412 0.52549 
1 0.729412 0.52549 1 0.729412 0.52549 
1 0.729412 0.52549 1 0.729412 0.52549 
1 0.729412 0.52549 1 0.729412 0.52549 
1 0.729412 0.52549 1 0.729412 0.52549 
1 0.729412 0.52549 1 0.729412 0.52549 
1 0.729412 0.52549 1 0.729412 0.52549 
1 0.729412 0.52549 1 0.729412 0.52549 
1 0.729412 0.52549 1 0.729412 0.52549 
1 0.729412 0.52549 1 0.729412 0.52549 
1 0.729412 0.52549 1 0.729412 0.52549 
1 0.729412 0.52549 1 0.729412 0.52549 
1 0.729412 0.52549 1 0.729412 0.52549 
1 0.729412 0.52549 1 0.729412 0.52549 
1 0.729412 0.52549 1 0.729412 0.52549 
1 0.729412 0.52549 1 0.729412 0.52549 
1 0.729412 0.52549 1 0.729412 0.52549 
1 0.729412 0.52549 1 0.729412 0.52549 
1 0.729412 0.52549 1 0.729412 0.52549 
1 0.729412 0.52549 1 0.729412 0.52549 
1 0.729412 0.52549 1 0.729412 0.52549 
1 0.729412 0.52549 1 0.729412 0.52549 
1 0.729412 0.52549 1 0.729412 0.52549 
1 0.729412 0.52549 1 0.729412 0.52549 
1 0.729412 0.52549 1 0.729412 0.52549 
1 0.729412 0.52549 1 0.729412 0.52549 
1 0.729412 0.52549 1 0.729412 0.52549 
1 0.729412 0.52549 1 0.729412 0.52549 

NORMALS Normals float
-0.30853 -0.617784 -0.723293 -0.0344808 -0.415905 -0.908754 0.23912 -0.429528 -0.87082 
0.400458 -0.685667 -0.60786 -0.216193 -0.190324 -0.957621 -0.530524 -0.335195 -0.778581 
0.184171 -0.0613309 -0.980979 0.269598 -0.225446 -0.936211 0.557051 -0.15104 -0.816628 
0.565962 -0.570554 -0.59511 -0.400653 0.131498 -0.906744 -0.295923 0.239912 -0.924593 
0.0120141 -0.0621476 -0.997995 0.301853 0.122874 -0.945403 -0.17505 0.208584 -0.962211 
-0.115468 0.424197 -0.898178 0.156446 0.17111 -0.972752 0.478208 0.234652 -0.846319 
-0.529202 -0.746455 -0.403423 -0.0745187 -0.742416 -0.665781 0.0262049 -0.898995 -0.437174 
0.208131 -0.712994 -0.669568 0.191104 -0.957787 -0.214762 -0.635221 -0.502701 -0.586332 
0.494507 -0.598265 -0.630509 0.544781 -0.804853 -0.235426 -0.830353 -0.380043 -0.407532 
-0.881109 -0.148318 -0.449054 0.77896 -0.133989 -0.612592 0.703039 -0.466367 -0.536878 
0.889928 -0.325757 -0.319235 -0.643884 -0.248695 -0.723578 -0.720252 0.0344592 -0.692856 
0.693262 0.17147 -0.69999 -0.554331 0.39112 -0.734672 0.246261 0.480109 -0.841933 
0.704003 0.170494 -0.689428 0.375253 0.594884 -0.710844 -0.425097 -0.871434 -0.244737 
-0.0925948 -0.972443 -0.213966 -0.819227 -0.554754 -0.14531 0.724766 -0.635544 -0.266079 
-0.924915 0.0910224 -0.369116 -0.425943 0.646122 -0.633324 -0.760496 0.412242 -0.5017 
0.765706 0.182977 -0.616615 -0.167474 0.745211 -0.645455 -0.386824 -0.917025 -0.0971184 
0.357236 -0.932915 -0.0452949 0.69382 -0.719906 -0.0186862 -0.980788 -0.10102 -0.16688 
0.939748 -0.257556 -0.224807 0.90147 -0.106671 -0.419491 -0.815766 0.44758 -0.36633 
0.952882 0.0951062 -0.288047 -0.42017 0.806006 -0.416906 0.0220289 0.859004 -0.511495 
0.455709 0.731326 -0.507436 -0.558959 -0.829146 -0.00902143 0.300821 -0.951831 0.0593712 
-0.901284 -0.426793 0.0743996 -0.993564 -0.0916351 -0.0665842 -0.982591 0.116153 -0.144997 
-0.911257 0.293507 -0.288903 -0.605545 0.720921 -0.337028 0.790431 0.414156 -0.451323 
-0.202861 0.954322 -0.219354 0.129693 0.912198 -0.388684 0.405697 0.857903 -0.315298 
-0.620899 -0.767006 0.161821 -0.360678 -0.905865 0.22208 0.121246 -0.944378 0.305694 
0.491034 -0.846276 0.206648 0.880938 -0.450982 0.1434 -0.976241 0.189488 -0.105109 
-0.89743 0.403046 -0.179368 0.978291 0.161896 -0.129372 -0.745648 0.62491 -0.231292 
0.669541 0.690388 -0.274006 0.92225 0.384751 -0.037701 -0.0610538 -0.954693 0.291262 
-0.689303 -0.687638 0.228066 -0.3974 -0.748311 0.531134 0.333681 -0.843295 0.421321 
0.683133 -0.698425 0.21338 -0.937782 -0.343502 0.0507159 -0.989132 -0.114076 0.0927634 
0.996451 -0.0196442 0.081852 -0.626403 0.763727 -0.156011 -0.381636 0.912808 -0.145378 
0.251437 0.945514 -0.20684 0.390072 0.906435 -0.161926 0.798754 0.601019 -0.0277166 
-0.048515 0.99878 0.00919259 -0.19762 -0.779932 0.593846 -0.661071 -0.635997 0.398111 
-0.87755 -0.434364 0.203063 0.686399 -0.597893 0.413982 -0.981652 0.0516046 0.183567 
0.845942 -0.229146 0.481534 -0.910902 0.41161 -0.0289038 0.925479 -0.108449 0.362944 
0.944808 0.273951 0.179689 -0.696154 0.70798 -0.118891 -0.256576 0.963816 0.0723032 
0.536358 0.828447 0.161232 0.784207 0.598248 0.164676 0.269147 0.930458 0.248614 
-0.0274565 -0.772242 0.634735 -0.58434 -0.599899 0.546505 -0.322706 -0.688152 0.649852 
0.293294 -0.697761 0.653535 -0.863988 -0.331803 0.378725 -0.610627 -0.457302 0.646536 
-0.973176 0.187515 0.13329 0.855305 -0.0113888 0.518 -0.816379 0.568683 0.100621 
-0.693752 0.696718 0.182463 0.886662 0.304341 0.348148 -0.321237 0.877256 0.356692 
-0.121554 0.959345 0.25472 -0.177449 0.844213 0.505782 0.619252 0.598597 0.508142 
-0.0284329 0.881093 0.472087 -0.223539 -0.634644 0.739769 -0.764357 -0.247929 0.595222 
0.051076 -0.437709 0.897665 -0.451143 -0.12717 0.883344 -0.337779 -0.301335 0.891685 
0.248048 -0.382897 0.889866 0.686167 -0.255502 0.681098 0.359776 -0.274153 0.891853 
0.588065 -0.0715563 0.805642 -0.650069 0.0387794 0.758885 -0.819903 0.462927 0.336836 
-0.606893 0.483663 0.630675 0.669922 0.13055 0.730863 -0.563672 0.744221 0.358343 
-0.267895 0.32384 0.907392 0.469825 0.515329 0.716729 0.0171891 0.504254 0.863384 
0.232251 0.759094 0.608141 0.363206 0.401239 0.840886 -0.135548 -0.176159 0.974985 
0.019117 -0.106424 0.994137 -0.166584 0.0711948 0.983454 -0.0258902 0.224835 0.974053 
0.114034 0.0473009 0.99235 0.199134 0.112697 0.973471 0.432004 0.132934 0.892021 
-0.0475649 0.567931 0.821701 0.12906 0.353837 0.92636 -0.285858 0.0187187 -0.958089 
-0.468281 -0.207232 -0.858934 -0.0567948 -0.370572 -0.927066 0.0910189 -0.401575 -0.911292 
0.0356357 0.0185627 -0.999192 0.212695 -0.19892 -0.956657 0.371227 -0.107277 -0.922324 
-0.537215 0.304386 -0.786606 -0.831806 0.36695 -0.416468 -0.273003 0.407786 -0.87131 
-0.132384 0.257215 -0.957243 0.109616 0.196861 -0.974284 0.19258 0.281618 -0.940002 
-0.297362 0.581494 -0.757259 -0.183886 0.672681 -0.716719 -0.0617282 0.544103 -0.836744 
0.00793552 0.595364 -0.803417 0.218721 0.506228 -0.834203 -0.234707 -0.681885 -0.692781 
-0.0921238 -0.621223 -0.7782 0.0566538 -0.71399 -0.69786 -0.282914 -0.42711 -0.8588 
-0.356792 -0.581029 -0.731508 -0.562963 -0.345998 -0.750572 0.231873 -0.64301 -0.729913 
-0.753691 -0.1076 -0.648362 0.411072 0.128647 -0.90248 0.479647 0.238085 -0.844544 
0.610687 -0.0515949 -0.790189 -0.617598 0.697644 -0.363134 -0.442295 0.75089 -0.490448 
0.320583 0.488874 -0.811313 -0.22108 0.891371 -0.395704 -0.0863536 0.803843 -0.58854 
0.0518904 0.862032 -0.50419 0.283543 0.684826 -0.671279 0.707918 0.392862 -0.586951 
0.499455 0.64243 -0.58123 -0.443392 -0.738911 -0.50736 -0.787135 -0.360572 -0.500406 
0.439999 -0.549402 -0.710323 0.586786 -0.372355 -0.719051 0.908283 0.066202 -0.413086 
0.740116 -0.305945 -0.598854 -0.484381 0.863496 -0.140532 0.904699 0.371588 -0.208429 
-0.120697 0.967574 -0.221884 0.777386 0.527694 -0.34236 0.201894 0.879343 -0.431271 
0.313024 0.927458 -0.204544 -0.199334 -0.820307 -0.536061 -0.0669005 -0.877329 -0.475203 
-0.67265 -0.648204 -0.356893 -0.774874 -0.607643 -0.174186 -0.895318 -0.418508 -0.152502 
-0.539981 -0.759685 -0.362351 0.40877 -0.770636 -0.488904 -0.975405 -0.192559 -0.107271 
0.731553 -0.574876 -0.366535 -0.961647 0.123866 -0.244729 0.904508 -0.317522 -0.284684 
-0.824224 0.560589 -0.0799711 0.717299 0.695793 -0.0368152 0.124448 0.989023 -0.0796578 
0.459858 0.882632 -0.0974194 -0.0884102 -0.978596 -0.185832 -0.198187 -0.922928 -0.33004 
0.134214 -0.879827 -0.45595 -0.477245 -0.833558 -0.27824 0.483136 -0.857882 -0.174981 
-0.980699 0.193921 -0.024977 0.982179 0.176032 -0.065861 -0.547592 0.832298 0.086156 
0.839664 0.538838 0.067965 -0.110596 0.991124 0.0737618 0.347807 0.909747 0.226696 
-0.390687 -0.916192 -0.0892012 -0.0979631 -0.991889 -0.0809966 0.251677 -0.956698 -0.146247 
-0.672261 -0.73969 0.0304089 -0.751531 -0.654989 -0.0786785 -0.846636 -0.532147 0.00525617 
-0.917271 -0.395611 -0.0458991 0.726656 -0.666265 -0.167516 0.871021 -0.484948 0.0784078 
0.962497 -0.26818 -0.0409781 0.994056 0.0740827 0.0797805 -0.841067 0.482419 0.244701 
-0.767831 0.626757 0.13271 -0.677186 0.668563 0.307316 -0.321224 0.912334 0.253895 
0.829469 0.507235 0.233868 0.716219 -0.688966 0.111159 -0.984203 0.152675 0.0896349 
0.973957 0.058016 0.219187 -0.554001 0.743181 0.375187 0.802076 0.326818 0.499864 
0.532651 0.683443 0.499188 -0.41179 -0.885756 0.214162 -0.0694615 -0.983477 0.167177 
0.367624 -0.926421 0.0812225 0.61327 -0.785001 0.0876007 -0.877058 -0.465591 0.118297 
0.770552 -0.595652 0.22682 -0.988707 -0.0589527 0.137778 0.92401 -0.220673 0.312264 
-0.801659 0.518479 0.297528 -0.620799 0.598152 0.506776 0.782952 0.296584 0.546831 
-0.00437327 0.865665 0.500604 0.425568 0.710137 0.560889 -0.598066 -0.739874 0.308064 
-0.731847 -0.631179 0.256929 -0.882132 -0.194156 0.429122 0.857018 -0.0537204 0.512478 
-0.861199 0.201425 0.466652 -0.67939 0.145112 0.719285 -0.627938 0.419895 0.655273 
-0.42789 0.492141 0.758095 -0.328816 0.743151 0.582758 -0.115765 0.779417 0.615717 
0.457186 0.572956 0.680222 -0.439614 -0.759696 0.479167 -0.128086 -0.908626 0.397484 
0.294378 -0.912209 0.284986 0.200231 -0.846014 0.494134 -0.745836 -0.457905 0.483789 
-0.543895 -0.442114 0.713241 0.603961 -0.666078 0.437688 -0.765291 -0.164035 0.622433 