# vtk DataFile Version 4.2
vtk output
ASCII
DATASET POLYDATA
POINTS 422 float
167.893 157.92 216.694 168.062 158.128 216.479 168.039 158.595 216.254 
168.58 158.74 216.167 168.873 158.48 216.295 169.224 159.32 216.126 
167.579 159.753 216.098 167 160.45 216.4 168.897 160.337 215.986 
167.8 161.025 216.085 168.301 160.919 215.989 168.572 157.856 216.739 
169.611 161.186 216.25 169.435 161.827 216.291 166.565 162.983 217.098 
166.568 163.737 217.372 166.993 164.034 217.11 167.29 164.413 217.138 
169.014 163.831 216.78 168.296 164.395 216.95 167.408 157.409 217.764 
167.22 157.403 218.091 166.787 158.209 217.567 170.631 158.127 217.317 
170.185 158.775 216.777 172.183 159.846 217.597 165.841 160.932 217.668 
165.961 162.183 217.595 171.326 163.037 217.558 167.023 165.579 218.174 
167.116 157.418 218.61 167.829 157.085 218.355 165.756 160.327 218.157 
165.773 163.354 218.563 166.114 164.4 218.489 166.596 165.576 219.15 
169.196 166.283 218.149 168.167 166.548 218.586 169.67 166.538 218.626 
168.064 166.747 219.112 175.126 155.724 220.231 175.487 156.154 220.064 
175.395 155.863 220.175 167.08 157.472 219.247 167.987 156.984 219.636 
174.933 156.625 219.721 170.972 156.735 219.087 174.896 157.188 219.585 
175.328 157.806 219.732 165.726 160.363 219.111 171.624 165.39 219.032 
166.641 165.75 219.749 170.609 166.177 218.852 167.422 166.616 219.844 
169.207 166.955 219.387 169.755 166.893 219.368 173.324 155.94 220.084 
176.746 156.527 220.914 176.223 158.197 220.436 175.732 159.632 220.314 
165.839 161.899 220.082 165.969 163.583 220.129 166 164.424 219.409 
166.75 165.937 220.383 171.781 165.97 220.017 170.226 166.816 219.575 
169.168 167.073 220.158 177.287 153.695 222.22 176.186 155.126 221.074 
173.243 155.649 220.628 166.875 157.886 220.076 167.531 157.334 220.365 
176.564 159.018 221.049 175.567 160.918 220.716 167.119 166.44 220.961 
167.294 166.619 220.845 170.439 166.891 220.068 167.723 166.809 220.982 
177.133 152.963 222.889 178.001 152.559 223.008 176.48 153.408 222.79 
177.793 153.655 222.399 178.233 154.172 222.522 173.056 155.426 221.596 
174.876 163.39 222.136 167.049 165.094 221.898 173.603 164.882 221.765 
167.384 166.203 221.663 171.042 166.794 221.046 167.769 166.745 221.453 
169.762 167.025 221.622 179.688 150.672 224.066 179.636 150.457 224.198 
179.789 150.536 224.175 178.572 151.964 223.435 179.109 151.929 223.533 
179.843 151.113 224.047 179.741 151.626 223.911 176.456 153.224 223.45 
178.724 154.512 222.934 178.733 155.794 223.233 176.457 160.742 222.441 
174.597 163.843 222.88 167.925 166.379 222.11 168.104 166.014 222.613 
167.987 166.689 221.796 170.419 166.904 222.268 179.594 150.236 224.426 
179.893 150.619 224.257 179.786 150.391 224.334 179.894 150.504 224.425 
178.629 151.025 224.127 179.927 150.908 224.186 180.013 151.324 224.465 
179.94 152.301 224.133 176.531 153.168 223.904 174.946 154.579 223.637 
178.549 156.784 223.676 169.243 158.346 223.45 178.484 157.025 223.98 
176.376 161.02 223.545 175.618 162.265 223.311 173.605 164.918 223.183 
169.845 166.293 223.458 170.363 166.536 223.346 170.391 166.756 222.904 
179.483 150.081 224.604 179.435 150.021 224.748 179.264 150.203 224.609 
179.63 150.1 224.625 179.559 150.023 224.727 179.664 150.158 224.765 
179.774 150.289 224.562 179.904 150.588 224.597 178.844 150.672 224.558 
179.968 151.011 224.64 177.696 151.969 224.212 177.791 152.042 224.525 
176.455 153.335 224.104 172.814 156.146 223.631 179.625 154.765 224.542 
179.657 154.6 224.685 179.154 155.57 224.589 178.249 157.408 224.143 
170.051 159.552 224.59 169.273 161.353 224.437 176.577 160.248 224.265 
176.099 161.38 223.839 174.714 163.319 223.908 170.333 164.633 224.751 
173.896 164.424 223.702 172.293 165.791 223.87 172.793 165.388 223.952 
170.859 166.535 223.35 171.326 166.489 223.267 179.319 150.101 224.778 
179.416 150.042 224.843 179.525 150.042 224.83 179.573 150.184 224.886 
179.322 150.177 224.858 179.143 150.358 224.744 178.65 151.325 224.861 
178.249 151.679 224.731 179.744 151.37 224.996 179.863 151.607 224.914 
176.129 154.281 224.619 179.572 154.18 225 179.293 154.474 225.117 
178.855 155.756 224.896 178.268 156.994 224.671 178.489 156.096 225.012 
176.133 159.829 225.049 170.252 162.262 225.048 176.104 160.799 224.51 
175.099 162.145 224.575 171.125 164.557 225.015 173.517 164.367 224.331 
173.841 163.66 224.617 171.239 164.997 224.847 172.735 165.078 224.411 
172.982 164.647 224.578 170.898 165.758 224.303 179.056 151.194 225.005 
177.88 152.84 225.014 177.985 154.147 225.355 178.583 153.76 225.366 
177.159 155.188 225.362 177.819 154.876 225.405 178.241 155.25 225.346 
177.348 156.238 225.385 177.997 156.066 225.253 171.689 160.78 225.485 
175.28 159.266 225.522 173.014 161.069 225.668 171.447 162.463 225.438 
174.262 161.309 225.436 175.031 160.965 225.21 173.906 162.862 225.021 
172.318 164.094 225.101 171.829 165.456 224.484 179.665 150.121 230.177 
179.635 150.003 230.223 179.556 150.122 230.183 179.714 150.011 230.255 
179.516 150.383 230.126 179.387 150.298 230.22 179.285 150.586 230.15 
179.777 150.196 230.261 179.701 151.046 230.177 178.622 152.532 230.007 
178.331 152.989 230.083 179.238 152.467 230.035 179.448 152.22 230.116 
179.052 152.868 230.04 175.736 157.987 229.779 175.787 158.566 229.785 
172.617 160.529 229.502 171.641 160.851 229.711 173.22 160.964 229.44 
172.427 161.927 229.556 173.088 161.731 229.529 174.485 161.269 229.711 
171.617 162.898 229.791 171.776 163.83 229.96 172.097 163.922 229.985 
172.291 164.215 230.177 172.991 163.807 230.149 179.648 149.978 230.321 
179.749 150.041 230.383 179.864 150.446 230.367 179.868 150.398 230.522 
179.905 150.711 230.536 177.631 152.189 230.85 179.678 152.202 230.341 
177.763 153.141 230.32 177.025 153.359 230.727 179.811 152.569 230.701 
178.896 153.508 230.14 179.501 153.405 230.432 179.557 153.704 230.64 
176.195 156.24 230.121 173.485 157.47 230.225 177.312 156.431 230.237 
171.514 158.045 230.678 176.25 158.849 230.105 176.668 160.122 231.117 
170.429 162.324 230.171 174.625 162.277 230.189 175.298 162.434 230.902 
171.109 165.058 230.71 170.713 165.267 230.934 171.588 164.834 230.549 
173.004 164.74 230.964 171.135 165.652 231.138 171.509 165.358 230.937 
173.258 164.859 231.346 179.66 150 230.431 179.511 150.091 230.44 
179.709 150.048 230.488 179.282 150.383 230.685 178.905 150.71 230.603 
179.838 150.62 230.742 178.534 151.035 230.903 178.23 151.356 230.824 
179.899 150.987 230.736 177.524 152.129 231.164 179.852 152.651 231.018 
179.823 152.505 231.217 170.781 157.683 231.447 171.912 156.773 231.649 
169.744 158.173 231.811 178.338 156.879 231.295 177.256 159.337 231.724 
169.003 163.868 231.3 174.596 163.605 231.575 170.151 165.177 231.14 
169.77 165.83 231.741 171.283 166.27 231.926 171.818 166.072 231.914 
179.712 150.474 230.831 179.594 150.623 231.002 178.542 151.128 231.204 
179.724 150.717 230.963 177.733 151.846 231.289 176.837 152.859 231.681 
179.791 152.197 231.281 179.553 153.326 231.593 172.555 156.049 232.176 
179.087 155.188 231.678 171.256 156.789 232.295 168.253 159.044 232.459 
176.552 160.924 231.969 172.731 165.782 232.544 169.981 166.536 232.531 
179.341 150.779 231.151 179.549 150.972 231.188 177.703 152.119 231.912 
178.455 152.016 232.209 178.746 151.966 232.12 179.08 151.798 231.841 
179.506 151.577 231.446 177.02 152.78 232.178 178.919 153.3 232.403 
175.218 154.15 232.866 169.813 157.05 233.708 171.314 156.554 232.874 
177.968 156.99 232.707 175.588 162.268 233.184 166.986 163.964 233.481 
167.652 165.456 233.321 173.611 164.951 233.302 167.486 166.294 234.199 
167.849 166.492 233.973 168.096 166.706 234.121 168.677 166.826 234.034 
169.547 166.855 233.616 171.262 166.657 233.404 178.653 152.631 232.474 
176.288 153.612 233.104 175.794 153.813 232.991 178.195 153.814 232.976 
174.786 154.5 233.285 172.611 155.82 233.768 171.895 156.159 233.398 
167.49 157.837 234.374 167.132 157.917 234.752 177.659 156.999 233.254 
177.465 156.685 233.571 166.373 159.915 234.62 166.801 165.631 234.581 
171.854 166.315 234.11 168.678 166.998 234.67 167.241 157.351 235.743 
167.865 157.123 235.53 167.568 157.165 235.749 171.283 156.549 234.655 
166.525 158.618 235.229 165.888 163.034 235.269 166.297 165.292 235.527 
166.743 165.841 234.961 166.998 166.235 235.15 167.974 166.918 235.393 
169.601 166.987 234.835 176.036 154.799 234.133 167.823 157.167 236.551 
172.803 156.172 234.859 175.878 156.722 234.843 166.587 158.175 235.78 
168.436 157.099 236.344 175.047 159.793 235.479 165.637 160.78 236.364 
165.575 161.958 236.389 165.679 162.468 235.846 165.703 163.477 236.494 
173.092 164.228 235.543 165.839 164.173 236.571 171.68 165.872 235.48 
167.264 166.616 236.092 169.538 166.85 235.612 174.14 156.123 235.082 
175.503 155.775 234.748 174.07 156.742 235.46 166.47 158.329 236.364 
169.062 157.231 236.81 175.245 157.03 235.2 173.535 157.955 236.247 
175.087 157.897 235.409 174.188 158.988 236.132 165.797 160.362 237.093 
173.128 162.02 236.726 165.963 164.312 237.091 166.332 165.393 236.672 
168.054 166.84 236.249 167.093 157.582 237.026 167.301 157.631 237.396 
166.453 158.504 236.884 168.3 157.472 237.563 165.741 162.361 237.496 
166.215 164.89 237.144 166.87 165.94 237.21 169.203 166.19 237.243 
167.056 166.282 237.132 168.574 166.521 236.937 167.146 166.468 236.945 
167.012 157.871 237.336 166.735 158.411 237.452 167.823 157.802 237.948 
168.693 157.925 238.294 169.577 157.931 237.958 170.413 157.924 237.57 
169.702 158.342 238.397 169.952 158.602 238.5 166.224 160.403 238.105 
166.219 161.99 238.445 170.756 162.136 238.526 166.12 163.298 238.067 
166.357 164.061 238.036 166.48 164.824 237.664 169.484 164.04 238.581 
167.012 165.388 237.757 168.366 165.132 238.304 167.274 166.388 237.142 
167.632 166.313 237.247 167.445 158.428 238.334 169.081 158.62 238.833 
166.684 159.971 238.529 170.124 159.582 238.849 166.545 161.477 238.774 
166.622 162.664 238.905 169.019 162.315 239.226 166.948 163.363 238.923 
167.745 163.772 238.975 167.798 158.642 238.67 167.17 159.589 238.779 
[...]
POINT_DATA 422
COLOR_SCALARS scalars 3
0.564706 0.796078 0.929412 0.564706 0.796078 0.929412 0.564706 0.796078 0.929412 
0.564706 0.796078 0.929412 0.564706 0.796078 0.929412 
0.564706 0.796078 0.929412 0.564706 0.796078 0.929412 
0.564706 0.796078 0.929412 0.564706 0.796078 0.929412 
0.564706 0.796078 0.929412 0.564706 0.796078 0.929412 
0.564706 0.796078 0.929412 0.564706 0.796078 0.929412 
0.564706 0.796078 0.929412 0.564706 0.796078 0.929412 
0.564706 0.796078 0.929412 0.564706 0.796078 0.929412 
0.564706 0.796078 0.929412 0.564706 0.796078 0.929412 
0.564706 0.796078 0.929412 0.564706 0.796078 0.929412 
0.564706 0.796078 0.929412 0.564706 0.796078 0.929412 
0.564706 0.796078 0.929412 0.564706 0.796078 0.929412 
0.564706 0.796078 0.929412 0.564706 0.796078 0.929412 
0.564706 0.796078 0.929412 0.564706 0.796078 0.929412 
0.564706 0.796078 0.929412 0.564706 0.796078 0.929412 
0.564706 0.796078 0.929412 0.564706 0.796078 0.929412 
0.564706 0.796078 0.929412 0.564706 0.796078 0.929412 
0.564706 0.796078 0.929412 0.564706 0.796078 0.929412 
0.564706 0.796078 0.929412 0.564706 0.796078 0.929412 
0.564706 0.796078 0.929412 0.564706 0.796078 0.929412 
0.564706 0.796078 0.929412 0.564706 0.796078 0.929412 
0.564706 0.796078 0.929412 0.564706 0.796078 0.929412 
0.564706 0.796078 0.929412 0.564706 0.796078 0.929412 
0.564706 0.796078 0.929412 0.564706 0.796078 0.929412 
0.564706 0.796078 0.929412 0.564706 0.796078 0.929412 
0.564706 0.796078 0.929412 0.564706 0.796078 0.929412 
0.564706 0.796078 0.929412 0.564706 0.796078 0.929412 
0.564706 0.796078 0.929412 0.564706 0.796078 0.929412 
0.564706 0.796078 0.929412 0.564706 0.796078 0.929412 
0.564706 0.796078 0.929412 0.564706 0.796078 0.929412 
0.564706 0.796078 0.929412 0.564706 0.796078 0.929412 
0.564706 0.796078 0.929412 0.564706 0.796078 0.929412 
0.564706 0.796078 0.929412 0.564706 0.796078 0.929412 
0.564706 0.796078 0.929412 0.564706 0.796078 0.929412 
0.564706 0.796078 0.929412 0.564706 0.796078 0.929412 
0.564706 0.796078 0.929412 0.564706 0.796078 0.929412 
0.564706 0.796078 0.929412 0.564706 0.796078 0.929412 
0.564706 0.796078 0.929412 0.564706 0.796078 0.929412 
0.564706 0.796078 0.929412 0.564706 0.796078 0.929412 
0.564706 0.796078 0.929412 0.564706 0.796078 0.929412 
0.564706 0.796078 0.929412 0.564706 0.796078 0.929412 
0.564706 0.796078 0.929412 0.564706 0.796078 0.929412 
0.564706 0.796078 0.929412 0.564706 0.796078 0.929412 
0.564706 0.796078 0.929412 0.564706 0.796078 0.929412 
0.564706 0.796078 0.929412 0.564706 0.796078 0.929412 
0.564706 0.796078 0.929412 0.564706 0.796078 0.929412 
0.564706 0.796078 0.929412 0.564706 0.796078 0.929412 
0.564706 0.796078 0.929412 0.564706 0.796078 0.929412 
0.564706 0.796078 0.929412 0.564706 0.796078 0.929412 
0.564706 0.796078 0.929412 0.564706 0.796078 0.929412 
0.564706 0.796078 0.929412 0.564706 0.796078 0.929412 
0.564706 0.796078 0.929412 0.564706 0.796078 0.929412 
0.564706 0.796078 0.929412 0.564706 0.796078 0.929412 
0.564706 0.796078 0.929412 0.564706 0.796078 0.929412 
0.564706 0.796078 0.929412 0.564706 0.796078 0.929412 
0.564706 0.796078 0.929412 0.564706 0.796078 0.929412 
0.564706 0.796078 0.929412 0.564706 0.796078 0.929412 
0.564706 0.796078 0.929412 0.564706 0.796078 0.929412 
0.564706 0.796078 0.929412 0.564706 0.796078 0.929412 
0.564706 0.796078 0.929412 0.564706 0.796078 0.929412 
0.564706 0.796078 0.929412 0.564706 0.796078 0.929412 
0.564706 0.796078 0.929412 0.564706 0.796078 0.929412 
0.564706 0.796078 0.929412 0.564706 0.796078 0.929412 
0.564706 0.796078 0.929412 0.564706 0.796078 0.929412 
0.564706 0.796078 0.929412 0.564706 0.796078 0.929412 
0.564706 0.796078 0.929412 0.564706 0.796078 0.929412 
0.564706 0.796078 0.929412 0.564706 0.796078 0.929412 
0.564706 0.796078 0.929412 0.564706 0.796078 0.929412 
0.564706 0.796078 0.929412 0.564706 0.796078 0.929412 
0.564706 0.796078 0.929412 0.564706 0.796078 0.929412 
0.564706 0.796078 0.929412 0.564706 0.796078 0.929412 
0.564706 0.796078 0.929412 0.564706 0.796078 0.929412 
0.564706 0.796078 0.929412 0.564706 0.796078 0.929412 
0.564706 0.796078 0.929412 0.564706 0.796078 0.929412 
0.564706 0.796078 0.929412 0.564706 0.796078 0.929412 
0.564706 0.796078 0.929412 0.564706 0.796078 0.929412 
0.564706 0.796078 0.929412 0.564706 0.796078 0.929412 
0.564706 0.796078 0.929412 0.564706 0.796078 0.929412 
0.564706 0.796078 0.929412 0.564706 0.796078 0.929412 
0.564706 0.796078 0.929412 0.564706 0.796078 0.929412 
0.564706 0.796078 0.929412 0.564706 0.796078 0.929412 
0.564706 0.796078 0.929412 0.564706 0.796078 0.929412 
0.564706 0.796078 0.929412 0.564706 0.796078 0.929412 
0.564706 0.796078 0.929412 0.564706 0.796078 0.929412 
0.564706 0.796078 0.929412 0.564706 0.796078 0.929412 
0.564706 0.796078 0.929412 0.564706 0.796078 0.929412 
0.564706 0.796078 0.929412 0.564706 0.796078 0.929412 
0.564706 0.796078 0.929412 0.564706 0.796078 0.929412 
0.564706 0.796078 0.929412 0.564706 0.796078 0.929412 
0.564706 0.796078 0.929412 0.564706 0.796078 0.929412 
0.564706 0.796078 0.929412 0.564706 0.796078 0.929412 
0.564706 0.796078 0.929412 0.564706 0.796078 0.929412 
0.564706 0.796078 0.929412 0.564706 0.796078 0.929412 
0.564706 0.796078 0.929412 0.564706 0.796078 0.929412 
0.564706 0.796078 0.929412 0.564706 0.796078 0.929412 
0.564706 0.796078 0.929412 0.564706 0.796078 0.929412 
0.564706 0.796078 0.929412 0.564706 0.796078 0.929412 
0.564706 0.796078 0.929412 0.564706 0.796078 0.929412 
0.564706 0.796078 0.929412 0.564706 0.796078 0.929412 
0.564706 0.796078 0.929412 0.564706 0.796078 0.929412 
0.564706 0.796078 0.929412 0.564706 0.796078 0.929412 
0.564706 0.796078 0.929412 0.564706 0.796078 0.929412 
0.564706 0.796078 0.929412 0.564706 0.796078 0.929412 
0.564706 0.796078 0.929412 0.564706 0.796078 0.929412 
0.564706 0.796078 0.929412 0.564706 0.796078 0.929412 
0.564706 0.796078 0.929412 0.564706 0.796078 0.929412 
0.564706 0.796078 0.929412 0.564706 0.796078 0.929412 
0.564706 0.796078 0.929412 0.564706 0.796078 0.929412 
0.564706 0.796078 0.929412 0.564706 0.796078 0.929412 
0.564706 0.796078 0.929412 0.564706 0.796078 0.929412 
0.564706 0.796078 0.929412 0.564706 0.796078 0.929412 
0.564706 0.796078 0.929412 0.564706 0.796078 0.929412 
0.564706 0.796078 0.929412 0.564706 0.796078 0.929412 
0.564706 0.796078 0.929412 0.564706 0.796078 0.929412 
0.564706 0.796078 0.929412 0.564706 0.796078 0.929412 
0.564706 0.796078 0.929412 0.564706 0.796078 0.929412 
0.564706 0.796078 0.929412 0.564706 0.796078 0.929412 
0.564706 0.796078 0.929412 0.564706 0.796078 0.929412 
0.564706 0.796078 0.929412 0.564706 0.796078 0.929412 
0.564706 0.796078 0.929412 0.564706 0.796078 0.929412 
0.564706 0.796078 0.929412 0.564706 0.796078 0.929412 
0.564706 0.796078 0.929412 0.564706 0.796078 0.929412 
0.564706 0.796078 0.929412 0.564706 0.796078 0.929412 
0.564706 0.796078 0.929412 0.564706 0.796078 0.929412 
0.564706 0.796078 0.929412 0.564706 0.796078 0.929412 
0.564706 0.796078 0.929412 0.564706 0.796078 0.929412 
0.564706 0.796078 0.929412 0.564706 0.796078 0.929412 
0.564706 0.796078 0.929412 0.564706 0.796078 0.929412 
0.564706 0.796078 0.929412 0.564706 0.796078 0.929412 
0.564706 0.796078 0.929412 0.564706 0.796078 0.929412 
0.564706 0.796078 0.929412 0.564706 0.796078 0.929412 
0.564706 0.796078 0.929412 0.564706 0.796078 0.929412 
0.564706 0.796078 0.929412 0.564706 0.796078 0.929412 
0.564706 0.796078 0.929412 0.564706 0.796078 0.929412 
0.564706 0.796078 0.929412 0.564706 0.796078 0.929412 
0.564706 0.796078 0.929412 0.564706 0.796078 0.929412 
0.564706 0.796078 0.929412 0.564706 0.796078 0.929412 
0.564706 0.796078 0.929412 0.564706 0.796078 0.929412 
0.564706 0.796078 0.929412 0.564706 0.796078 0.929412 
0.564706 0.796078 0.929412 0.564706 0.796078 0.929412 
0.564706 0.796078 0.929412 0.564706 0.796078 0.929412 
0.564706 0.796078 0.929412 0.564706 0.796078 0.929412 
0.564706 0.796078 0.929412 0.564706 0.796078 0.929412 
0.564706 0.796078 0.929412 0.564706 0.796078 0.929412 
0.564706 0.796078 0.929412 0.564706 0.796078 0.929412 
0.564706 0.796078 0.929412 0.564706 0.796078 0.929412 
0.564706 0.796078 0.929412 0.564706 0.796078 0.929412 
0.564706 0.796078 0.929412 0.564706 0.796078 0.929412 
0.564706 0.796078 0.929412 0.564706 0.796078 0.929412 
0.564706 0.796078 0.929412 0.564706 0.796078 0.929412 
0.564706 0.796078 0.929412 0.564706 0.796078 0.929412 
0.564706 0.796078 0.929412 0.564706 0.796078 0.929412 
0.564706 0.796078 0.929412 0.564706 0.796078 0.929412 
0.564706 0.796078 0.929412 0.564706 0.796078 0.929412 
0.564706 0.796078 0.929412 0.564706 0.796078 0.929412 
0.564706 0.796078 0.929412 0.564706 0.796078 0.929412 
0.564706 0.796078 0.929412 0.564706 0.796078 0.929412 
0.564706 0.796078 0.929412 0.564706 0.796078 0.929412 
0.564706 0.796078 0.929412 0.564706 0.796078 0.929412 
0.564706 0.796078 0.929412 0.564706 0.796078 0.929412 
0.564706 0.796078 0.929412 0.564706 0.796078 0.929412 
0.564706 0.796078 0.929412 0.564706 0.796078 0.929412 
0.564706 0.796078 0.929412 0.564706 0.796078 0.929412 
0.564706 0.796078 0.929412 0.564706 0.796078 0.929412 
0.564706 0.796078 0.929412 0.564706 0.796078 0.929412 
0.564706 0.796078 0.929412 0.564706 0.796078 0.929412 
0.564706 0.796078 0.929412 0.564706 0.796078 0.929412 
0.564706 0.796078 0.929412 0.564706 0.796078 0.929412 
0.564706 0.796078 0.929412 0.564706 0.796078 0.929412 
0.564706 0.796078 0.929412 0.564706 0.796078 0.929412 
0.564706 0.796078 0.929412 0.564706 0.796078 0.929412 
0.564706 0.796078 0.929412 0.564706 0.796078 0.929412 
0.564706 0.796078 0.929412 0.564706 0.796078 0.929412 
0.564706 0.796078 0.929412 0.564706 0.796078 0.929412 
0.564706 0.796078 0.929412 0.564706 0.796078 0.929412 
0.564706 0.796078 0.929412 0.564706 0.796078 0.929412 
0.564706 0.796078 0.929412 0.564706 0.796078 0.929412 
0.564706 0.796078 0.929412 0.564706 0.796078 0.929412 
0.564706 0.796078 0.929412 0.564706 0.796078 0.929412 
0.564706 0.796078 0.929412 0.564706 0.796078 0.929412 
0.564706 0.796078 0.929412 0.564706 0.796078 0.929412 
0.564706 0.796078 0.929412 0.564706 0.796078 0.929412 
0.564706 0.796078 0.929412 0.564706 0.796078 0.929412 
0.564706 0.796078 0.929412 0.564706 0.796078 0.929412 
0.564706 0.796078 0.929412 0.564706 0.796078 0.929412 
0.564706 0.796078 0.929412 0.564706 0.796078 0.929412 
0.564706 0.796078 0.929412 0.564706 0.796078 0.929412 
0.564706 0.796078 0.929412 0.564706 0.796078 0.929412 
0.564706 0.796078 0.929412 0.564706 0.796078 0.929412 
0.564706 0.796078 0.929412 0.564706 0.796078 0.929412 
0.564706 0.796078 0.929412 0.564706 0.796078 0.929412 
0.564706 0.796078 0.929412 0.564706 0.796078 0.929412 
0.564706 0.796078 0.929412 0.564706 0.796078 0.929412 
0.564706 0.796078 0.929412 0.564706 0.796078 0.929412 
0.564706 0.796078 0.929412 0.564706 0.796078 0.929412 
0.564706 0.796078 0.929412 0.564706 0.796078 0.929412 
0.564706 0.796078 0.929412 0.564706 0.796078 0.929412 
0.564706 0.796078 0.929412 0.564706 0.796078 0.929412 
0.564706 0.796078 0.929412 0.564706 0.796078 0.929412 
0.564706 0.796078 0.929412 0.564706 0.796078 0.929412 
0.564706 0.796078 0.929412 0.564706 0.796078 0.929412 
0.564706 0.796078 0.929412 0.564706 0.796078 0.929412 
0.564706 0.796078 0.929412 0.564706 0.796078 0.929412 
0.564706 0.796078 0.929412 0.564706 0.796078 0.929412 
0.564706 0.796078 0.929412 0.564706 0.796078 0.929412 
0.564706 0.796078 0.929412 0.564706 0.796078 0.929412 
0.564706 0.796078 0.929412 0.564706 0.796078 0.929412 
0.564706 0.796078 0.929412 0.564706 0.796078 0.929412 
0.564706 0.796078 0.929412 0.564706 0.796078 0.929412 
0.564706 0.796078 0.929412 0.564706 0.796078 0.929412 
0.564706 0.796078 0.929412 
NORMALS Normals float
-0.353758 -0.660556 -0.66221 -0.28847 -0.475683 -0.83097 -0.19275 -0.2792 -0.940688 
0.0828647 -0.304757 -0.948818 0.225169 -0.447231 -0.865612 0.253427 -0.0797419 -0.964062 
-0.370813 -0.149937 -0.916524 -0.595974 -0.0560084 -0.801048 0.258103 -0.140167 -0.955895 
-0.186136 0.186972 -0.96457 -0.0655908 0.094799 -0.993333 0.114954 -0.681343 -0.722881 
0.465587 -0.0416838 -0.88402 0.19546 0.254957 -0.946991 -0.727548 0.208839 -0.653498 
-0.728049 0.385504 -0.566861 -0.396039 0.267626 -0.878368 -0.499056 0.489501 -0.715075 
0.206783 0.345872 -0.915212 -0.102017 0.41874 -0.902358 -0.257133 -0.891784 -0.372295 
-0.529893 -0.826582 -0.189673 -0.767996 -0.427631 -0.476775 0.301424 -0.550737 -0.778352 
0.413117 -0.277648 -0.867321 0.518737 -0.0452753 -0.853734 -0.883013 -0.079412 -0.462582 
-0.943489 0.0880571 -0.319489 0.573832 0.113484 -0.811072 -0.551171 0.690203 -0.468861 
-0.633792 -0.772322 -0.0427403 -0.340213 -0.93473 -0.102637 -0.949343 -0.219562 -0.224813 
-0.9592 0.172135 -0.224288 -0.831001 0.375598 -0.410322 -0.782484 0.580133 -0.226196 
0.0948045 0.663516 -0.742132 -0.198725 0.822592 -0.532776 0.232293 0.81561 -0.529924 
-0.34352 0.895743 -0.282201 0.0203776 -0.591396 -0.806124 0.4248 -0.266055 -0.865309 
0.222738 -0.503752 -0.834638 -0.630493 -0.772814 0.0723716 -0.313015 -0.948199 -0.0542272 
0.116497 -0.490606 -0.863559 -0.0202126 -0.902655 -0.429889 0.333239 -0.269827 -0.903408 
0.509484 0.0920703 -0.85554 -0.988142 -0.11895 0.097087 0.643186 0.527565 -0.554965 
-0.82332 0.567572 -0.00253082 0.476693 0.657938 -0.582993 -0.497349 0.856824 -0.136002 
-0.0404153 0.971125 -0.235125 0.252784 0.908612 -0.332451 -0.14605 -0.726682 -0.67127 
0.617474 -0.149502 -0.772253 0.661261 0.090662 -0.744657 0.641278 0.291494 -0.709785 
-0.955473 -0.034101 0.293101 -0.947497 0.14437 0.285319 -0.944774 0.327509 0.0117886 
-0.850384 0.523222 0.0555429 0.603278 0.71903 -0.345038 0.2315 0.954631 -0.187318 
-0.00750289 0.997613 -0.0686463 0.165445 -0.482633 -0.860054 0.218508 -0.612978 -0.759284 
-0.293357 -0.793237 -0.533589 -0.871401 -0.381958 0.307844 -0.536723 -0.804265 0.255119 
0.735487 0.287986 -0.613288 0.643268 0.318525 -0.696239 -0.696567 0.656001 0.290614 
-0.616915 0.785389 0.050794 0.403467 0.872003 -0.277174 -0.273372 0.957604 0.0908987 
-0.161689 -0.644465 -0.747343 -0.0195275 -0.552973 -0.83297 -0.306454 -0.819502 -0.484255 
0.21786 -0.398308 -0.891004 0.560119 -0.0718391 -0.825291 -0.499945 -0.86596 -0.0130115 
0.846311 0.506019 -0.166441 -0.831076 0.207024 0.516191 0.736235 0.657202 -0.161382 
-0.755419 0.436932 0.488296 0.434292 0.900675 -0.0132306 -0.494179 0.787885 0.367456 
-0.0965052 0.975275 0.198811 0.251002 -0.375614 -0.892139 -0.0628976 -0.651442 -0.756087 
0.545083 -0.430975 -0.719128 0.0196335 -0.51733 -0.855561 0.356339 -0.332096 -0.873347 
0.578657 -0.153414 -0.801012 0.590234 -0.168167 -0.789521 -0.478783 -0.875268 0.0683577 
0.896848 0.0642161 -0.437653 0.876519 0.152234 -0.456661 0.863574 0.440356 -0.245614 
0.775498 0.609519 0.164592 -0.60109 0.551227 0.578653 -0.452558 0.598402 0.66114 
-0.241562 0.862618 0.444452 0.199729 0.968125 0.151139 0.289345 -0.759791 -0.582234 
0.844185 -0.35748 -0.39945 0.588839 -0.665876 -0.458124 0.92896 -0.354096 -0.10793 
-0.494094 -0.699419 -0.516415 0.931749 -0.116943 -0.343756 0.993016 0.0203919 0.116204 
0.8602 0.0665022 -0.505602 -0.542019 -0.840336 0.00706223 -0.574581 -0.663197 0.479611 
0.924778 0.348146 -0.153557 -0.595008 -0.571727 0.564884 0.871985 0.470782 0.134185 
0.868031 0.474354 0.146666 0.833594 0.530986 0.152235 0.68367 0.711292 0.163278 
-0.279512 0.687744 0.669986 -0.203454 0.804502 0.558018 -0.0628318 0.94122 0.3319 
-0.107769 -0.804398 -0.584234 -0.287231 -0.950919 -0.115118 -0.60902 -0.712706 -0.34806 
0.55632 -0.762729 -0.329778 0.381911 -0.921649 -0.0686156 0.797928 -0.504603 0.329677 
0.787365 -0.605005 -0.118426 0.897606 -0.231565 0.375074 -0.770396 -0.618585 0.154413 
0.966114 -0.122369 0.227266 -0.762727 -0.597778 0.246795 -0.786304 -0.386334 0.482153 
-0.697947 -0.59316 0.401286 -0.490163 -0.632187 0.600066 0.880493 0.419883 0.22007 
0.890058 0.283454 0.357003 0.8198 0.512728 0.255025 0.845964 0.503315 0.176122 
-0.416486 -0.294213 0.86022 -0.622056 -0.105527 0.775829 0.840869 0.42167 0.339315 
0.837973 0.529019 0.133941 0.744646 0.551494 0.375973 -0.440919 0.286516 0.850587 
0.741354 0.603916 0.292711 0.437333 0.821467 0.365967 0.541468 0.697812 0.468904 
0.127028 0.872062 0.472622 0.277036 0.88708 0.369243 -0.726848 -0.66941 0.153567 
-0.290303 -0.699857 0.652628 0.34957 -0.780824 0.517798 0.33649 -0.261337 0.904698 
-0.510295 -0.351443 0.784912 -0.751352 -0.489026 0.443084 -0.61279 -0.404209 0.679046 
-0.516037 -0.392784 0.761201 0.441971 -0.103489 0.89104 0.751278 -0.0223655 0.659607 
-0.528638 -0.47858 0.701073 0.714324 0.112908 0.690647 0.41764 0.230376 0.878922 
0.60847 0.368923 0.702609 0.655908 0.422008 0.625855 0.669356 0.445727 0.594382 
0.556176 0.384191 0.73693 -0.405051 -0.0369095 0.913549 0.654638 0.431626 0.620603 
0.62898 0.478254 0.612909 -0.0312249 0.32325 0.945798 0.576577 0.498509 0.647339 
0.611487 0.522287 0.59439 -0.00148906 0.444847 0.895605 0.445103 0.572978 0.688171 
0.455817 0.424194 0.78249 -0.0325903 0.694409 0.718842 -0.282201 -0.184489 0.941449 
-0.486692 -0.308049 0.817457 -0.10183 -0.0590122 0.99305 0.0804237 -0.0752961 0.993913 
-0.155249 -0.137655 0.978238 -0.0638676 -0.0608819 0.9961 0.213314 0.151197 0.965213 
0.275391 0.167485 0.94663 0.298039 0.223734 0.927963 -0.203465 -0.228475 0.952051 
0.148663 0.103033 0.983506 0.0573678 -0.044841 0.997346 -0.181464 0.0473805 0.982255 
0.326269 0.223724 0.918421 0.407293 0.219057 0.886638 0.371016 0.354623 0.858248 
0.268908 0.362153 0.892488 0.245355 0.657363 0.712513 0.359109 -0.141294 -0.922538 
-0.484894 -0.741527 -0.463697 -0.346319 -0.388743 -0.853781 0.624933 -0.640194 -0.446778 
-0.154398 -0.159885 -0.974986 -0.647642 -0.493236 -0.580756 -0.460119 -0.27292 -0.84487 
0.84293 -0.169195 -0.510727 0.704452 0.0606036 -0.707159 -0.143923 -0.0965546 -0.984867 
-0.145131 0.12602 -0.981354 0.173703 0.0496843 -0.983544 0.506904 0.0821908 -0.858075 
0.392348 0.204688 -0.896753 0.160857 -0.0597971 -0.985165 0.193216 0.0188041 -0.980976 
-0.180058 -0.130114 -0.975013 -0.356771 -0.141668 -0.923387 0.104642 0.0165243 -0.994373 
-0.13875 0.0731606 -0.987621 0.043373 0.173469 -0.983884 0.399358 0.225721 -0.888574 
-0.301647 0.169333 -0.938262 -0.0513116 0.269205 -0.961715 0.0910261 0.285132 -0.954156 
0.0857797 0.571768 -0.815918 0.426537 0.478189 -0.767725 -0.00390673 -0.999909 0.0128841 
0.80102 -0.595868 0.0575107 0.905835 -0.0223343 -0.423041 0.940645 -0.277427 0.195502 
0.997127 0.00167666 -0.0757264 -0.710683 -0.484506 -0.510081 0.790026 0.150507 -0.594311 
-0.348773 -0.118639 -0.929668 -0.594699 -0.4381 -0.674093 0.969572 0.0822108 -0.230588 
0.0996669 0.214836 -0.971551 0.70363 0.25914 -0.661628 0.898475 0.30386 -0.316877 
-0.242273 -0.370113 -0.896839 -0.175503 -0.287828 -0.941464 0.327027 0.121008 -0.937235 
-0.368437 -0.541808 -0.755446 0.578462 0.214637 -0.786964 0.825159 0.405689 -0.393103 
-0.452833 0.00815764 -0.891558 0.391666 0.347384 -0.852011 0.683171 0.454305 -0.571738 
-0.17903 0.446819 -0.876528 -0.293188 0.530875 -0.795118 0.255622 0.681928 -0.685297 
0.374351 0.710072 -0.596372 -0.0565737 0.694442 -0.717321 0.235885 0.637113 -0.733788 
0.505717 0.706757 -0.494718 -0.131129 -0.858813 0.495222 -0.673385 -0.735116 0.0784675 
0.598908 -0.599373 0.531095 -0.720307 -0.692546 0.0392025 -0.701334 -0.70129 -0.127759 
0.881241 -0.17627 0.438569 -0.66343 -0.737756 0.124806 -0.743158 -0.65149 -0.152569 
0.940584 -0.0782611 0.33042 -0.755608 -0.653075 -0.0504876 0.992453 0.122201 -0.0102114 
0.862964 0.0293306 0.504414 -0.534984 -0.693113 -0.483102 -0.388258 -0.747358 -0.539178 
-0.523098 -0.543735 -0.656293 0.86173 0.413016 -0.294685 0.914454 0.370886 -0.161921 
-0.553485 0.217483 -0.803963 0.753039 0.612845 -0.239483 -0.389014 0.436149 -0.811445 
-0.39594 0.659802 -0.638665 0.137763 0.89513 -0.423986 0.397464 0.762481 -0.510535 
0.456099 -0.529056 0.715593 0.316519 -0.519823 0.793473 -0.567288 -0.761374 0.313837 
0.733054 -0.21068 0.646719 -0.742144 -0.670201 -0.00732316 -0.685161 -0.723578 -0.0836082 
0.931094 -0.0585635 0.360047 0.845046 0.0199022 0.534324 -0.446605 -0.727951 -0.520222 