# vtk DataFile Version 4.2
vtk output
ASCII
DATASET POLYDATA
POINTS 377 float
424.797 183.75 185.203 424.593 183.537 185.393 424.422 183.886 185.277 
425.118 183.712 185.213 424.469 184.274 185.206 425.022 183.997 185.135 
424.87 184.376 185.148 423.353 183.132 186.261 425.5 183.159 185.707 
426.247 183.12 185.865 427.092 182.843 186.328 422.705 183.945 186.091 
422.395 183.693 186.434 427.215 183.142 186.205 423.092 184.496 185.74 
423.936 184.254 185.444 422.62 185.447 185.862 425.309 184.843 185.26 
422.908 185.803 185.723 424.251 185.763 185.397 426.469 185.559 185.695 
423.17 186.981 185.813 424.796 186.454 185.489 423.959 187.205 185.635 
423.091 182.953 186.612 422.698 183.066 186.786 423.768 182.369 187.15 
425.861 182.329 186.644 422.406 183.375 186.696 428.033 183.368 186.787 
421.824 184.614 186.754 422.209 185.296 186.227 422.417 188.007 186.698 
427.429 182.11 187.283 421.968 183.129 187.748 428.004 182.546 187.229 
428.651 182.927 187.628 428.451 182.61 187.565 428.713 182.664 187.91 
421.46 183.722 187.684 421.296 184.117 187.729 428.319 184.273 187.015 
421.418 184.504 187.351 421.446 185.214 187.282 428.692 185.296 187.783 
427.723 187.074 187.006 421.982 189.28 187.822 423.266 191.504 187.795 
423.093 191.951 188.144 424.119 192.297 187.831 424.464 192.71 187.986 
425.226 192.182 187.8 424.962 192.812 188.058 426.402 181.83 187.688 
427.056 181.77 188.111 427.643 181.849 188.172 428.533 182.402 187.851 
428.407 182.222 187.998 423.647 182.162 188.345 428.859 182.759 188.325 
421.13 184.204 188.226 421.182 186.068 188.136 427.296 190.278 188.302 
422.351 191.205 188.353 423.944 193.402 188.595 424.351 194.366 189.114 
425.072 194.038 188.845 425.586 181.752 189.132 421.838 183.117 188.948 
421.435 183.532 189.061 421.213 183.824 188.624 421.033 185.381 188.602 
429.097 184.79 188.833 428.111 188.251 188.795 421.393 189.411 189.659 
427.698 190.022 189.426 421.991 191.327 189.329 422.215 191.359 188.747 
422.874 193.258 189.492 423.701 194.781 189.95 424.325 195.173 189.979 
424.832 195.414 190.087 425.481 181.855 189.609 427.485 181.852 189.164 
427.912 181.928 188.943 422.788 182.712 189.85 428.948 183.036 189.226 
421.377 183.761 189.474 421.041 184.339 189.15 429.081 183.98 189.527 
428.979 184.911 189.719 421.271 188.79 190.098 428.273 187.68 189.846 
427.786 189.448 189.871 421.592 190.534 190.418 422.531 193.321 190.391 
427.025 193.442 189.941 427.032 193.808 190.365 423.631 194.869 190.272 
424.823 195.928 190.889 425.261 195.808 190.46 425.147 196.016 190.779 
425.645 182.037 190.059 426.881 182.027 189.983 428.018 182.1 189.422 
428.3 182.359 189.693 422.281 183.198 190.313 424.052 182.586 190.374 
428.551 182.56 189.61 421.065 184.644 189.395 421.282 184.713 189.943 
421.202 185.605 190.088 428.959 184.62 189.929 428.844 184.489 190.123 
428.423 186.718 190.102 428.303 187.287 190.101 428.162 187.042 190.424 
427.531 189.748 190.517 421.831 191.288 191.258 421.988 192.171 190.743 
423.09 194.27 191.017 426.794 194.857 190.743 424.818 196.026 191.255 
425.625 196.31 191.144 425.852 196.377 191.273 422.46 183.337 190.581 
424.16 182.972 190.893 423.949 183.368 191.14 425.527 182.626 190.813 
426.933 182.524 190.66 427.738 182.93 190.747 422.133 184.142 190.853 
421.707 184.329 190.487 424.625 183.289 191.204 428.03 183.149 190.654 
428.418 183.265 190.272 428.155 184.164 190.828 427.888 184.474 191.043 
427.758 185.966 191.022 427.716 187 190.898 421.549 189.123 191.27 
427.303 189.064 191.01 426.805 193.766 191.55 424.641 195.889 191.729 
425.424 196.296 191.642 425.726 196.391 191.637 426.026 196.259 191.17 
426.387 195.842 191.515 425.856 196.423 191.489 426.03 196.338 191.409 
427.331 182.95 190.91 426.802 183.562 191.32 422.296 185.227 191.583 
424.251 184.894 191.833 422.871 186.468 192.162 424.238 185.81 192.086 
422.594 186.869 192.133 421.709 187.635 191.517 424.995 188.188 192.326 
424.246 189.336 192.506 426.289 188.626 191.857 422.7 190.762 192.349 
422.324 190.318 192.232 424.879 190.027 192.45 426.787 189.335 191.513 
422.93 191.534 192.456 424.132 191.168 192.602 426.119 190.527 192.008 
422.56 191.967 192.173 423.665 192.291 192.649 425.415 191.645 192.413 
423.97 193.195 192.683 426.154 193.908 192.311 426.517 194.001 192.012 
426.652 194.56 191.86 426.59 195.181 191.865 424.871 196.006 191.924 
424.951 195.953 192.14 426.491 195.577 191.811 425.945 196.336 191.652 
426.156 196.197 191.545 426.26 195.824 191.98 422.348 185.711 191.793 
422.012 186.177 191.653 422.119 187.013 191.858 422.086 188.815 192.009 
422.154 190.065 192.129 422.83 191.909 192.389 425.734 195.013 192.605 
426.154 195.419 192.384 425.168 195.975 192.254 425.265 195.83 192.399 
426.145 195.704 192.256 425.48 196.023 192.226 425.898 195.942 192.183 
424.771 195.368 192.498 425.174 195.473 192.541 423.354 193.466 263.318 
423.347 193.978 263.561 423.676 193.499 263.08 424.5 193.939 262.868 
425.974 194.559 262.994 425.658 193.993 262.893 424.158 195.188 263.409 
424.861 195.06 263.08 425.833 194.97 263.03 426.31 194.487 263.157 
424.774 195.717 263.563 425.727 195.904 263.477 426.13 195.832 263.471 
422.939 184.269 263.954 422.521 184.407 264.138 426.051 183.837 263.758 
423.341 184.793 263.599 424.691 184.57 263.445 422.593 185.582 263.737 
421.935 186.416 264.115 423.053 186.322 263.394 425.833 185.786 263.296 
422.356 187.22 263.681 421.815 188.115 264.158 426.477 186.959 263.383 
424.925 188.733 262.971 421.823 189.865 264.28 421.927 191.45 264.463 
426.83 190.432 263.624 422.29 192.175 264.075 424.659 192.486 262.842 
425.356 192.436 262.906 427.04 191.695 263.953 422.326 192.65 264.247 
422.53 193.182 264.309 424.006 193.329 262.944 425.923 193.326 263.03 
422.911 193.666 263.993 426.891 194.587 263.861 424.556 195.692 263.774 
426.64 195.418 263.555 426.775 195.161 263.715 425.503 196.074 263.767 
425.859 196.165 263.712 425.809 196.223 263.955 426.651 195.576 263.719 
426.08 196.237 263.845 426.282 196.154 263.808 423.53 183.082 264.624 
423.009 183.211 264.784 427.609 182.586 264.902 428.27 182.947 264.938 
427.505 185.045 264.104 427.889 185.71 264.386 428.245 186.042 264.804 
427.18 189.4 263.935 421.92 192.133 265.069 427.056 194.167 264.296 
424.511 195.739 264.516 426.812 195.414 263.952 426.848 195.393 264.168 
425.86 196.179 264.237 426.055 196.241 264.063 426.265 196.187 264.012 
425.989 182.074 265.292 426.693 182.135 265.213 427.15 181.92 265.62 
427.927 182.303 265.258 428.197 182.16 265.595 428.631 182.453 265.583 
428.491 182.274 265.626 428.627 182.34 265.783 428.784 183.345 265.421 
421.388 185.003 265.32 428.978 183.581 265.817 421.331 185.801 265.085 
421.23 187.262 265.304 428.464 186.843 265.517 421.433 189.904 265.536 
421.776 191.58 265.684 422.189 192.768 265.46 427.331 192.671 265.029 
422.76 193.797 265.011 427.045 194.55 264.77 426.678 195.295 264.972 
424.729 195.819 264.728 426.195 195.851 264.746 426.391 195.577 265.008 
425.772 195.974 264.663 426.433 196.009 264.171 426.354 181.688 266.221 
427.548 181.848 265.996 428.033 181.996 265.943 423.154 182.526 266.555 
428.831 182.786 266.164 421.511 183.694 266.537 421.276 184.034 266.291 
421.119 184.394 266.321 421.14 184.812 265.918 429.027 184.989 266.402 
428.691 186.285 266.034 421.329 189.102 266.171 428.365 187.708 266.169 
421.631 190.781 266.254 426.991 194.549 265.206 426.972 194.327 265.473 
424.065 195.085 265.754 424.371 195.337 265.501 424.841 195.557 265.435 
425.087 195.73 265.209 426.21 181.643 266.746 427.41 181.789 266.46 
421.074 184.433 266.78 429.071 184.073 266.706 421.053 185.591 266.483 
428.855 185.662 266.638 421.216 187.346 266.783 428.479 187.31 266.523 
422.674 193.215 266.1 423.594 194.332 266.175 423.847 194.563 266.161 
426.337 194.056 266.366 424.225 195.122 265.821 424.431 195.026 265.961 
426.201 195.049 265.648 425.721 194.945 265.975 425.279 195.123 265.919 
425.217 181.761 267.063 425.583 181.721 267.282 426.635 181.74 267.127 
427.857 181.997 266.754 428.24 182.246 266.79 422.447 183.042 268.144 
422.97 182.719 268.024 421.478 183.865 267.54 421.23 184.093 267.157 
421.115 184.465 267.175 429.016 184.757 267.072 428.934 184.651 267.288 
428.501 186.707 267.188 427.543 189.468 267.285 421.93 191.049 267.032 
426.699 191.38 267.491 426.438 192.677 267.07 426.158 192.257 267.465 
424.341 193.273 267.205 424.873 194.135 266.687 427.023 181.981 267.501 
427.69 182.179 267.315 422.45 183.194 268.514 424.239 182.408 268.408 
426.726 182.213 268.013 428.34 183.007 267.548 427.436 188.186 268.192 
427.114 187.903 268.655 422.933 189.938 268.472 425.919 189.631 268.708 
424.987 191.46 268.114 422.649 183.297 268.837 423.15 183.261 269.213 
427.337 183.236 268.684 427.104 184.744 269.3 422.316 186.643 269.13 
422.804 187.219 269.356 426.689 186.883 269.253 425.702 188.771 269.121 
424.378 183.001 269.5 424.926 182.887 269.336 425.224 183.225 269.677 
426.839 182.949 268.786 425.594 183.434 269.728 423.269 184.321 269.769 
425.667 184.317 270.003 423.757 184.938 270.082 425.25 185.091 270.126 
423.974 185.261 270.123 424.126 185.842 270.027 424.332 185.35 270.181 
424.817 183.703 270.008 423.759 184.496 270.035 
POLYGONS 746 2984
3 0 1 2 
3 0 3 1 
3 4 0 2 
3 3 0 5 
3 0 4 6 
3 5 0 6 
3 7 1 27 
3 26 7 27 
3 1 8 27 
3 27 8 9 
3 9 13 10 
3 11 7 28 
3 12 11 28 
3 3 8 1 
3 13 9 8 
3 11 14 7 
3 1 7 15 
3 15 7 14 
3 2 15 4 
3 1 15 2 
3 8 3 20 
3 16 14 11 
3 15 14 19 
3 19 14 16 
3 15 19 4 
3 6 17 5 
3 4 17 6 
3 5 20 3 
3 5 17 20 
3 20 13 8 
3 16 18 19 
3 17 4 19 
3 20 17 19 
3 19 18 21 
3 22 19 21 
3 20 19 22 
3 22 21 23 
3 22 23 51 
3 24 7 26 
3 9 10 27 
3 33 10 29 
3 25 28 24 
3 7 24 28 
3 10 13 29 
3 11 12 30 
3 30 12 28 
3 31 11 30 
3 11 31 16 
3 20 41 13 
3 16 31 18 
3 45 41 20 
3 32 21 31 
3 31 21 18 
3 21 32 23 
3 20 22 45 
3 22 51 45 
3 25 24 34 
3 34 24 58 
3 24 26 58 
3 27 67 26 
3 10 33 27 
3 29 36 35 
3 33 29 35 
3 35 36 37 
3 37 36 38 
3 25 34 39 
3 25 39 28 
3 28 39 30 
3 29 13 41 
3 36 29 41 
3 41 59 36 
3 39 40 42 
3 42 30 39 
3 42 43 30 
3 43 31 30 
3 72 41 44 
3 59 41 72 
3 43 61 31 
3 41 45 44 
3 32 31 61 
3 45 51 62 
3 46 23 32 
3 23 46 63 
3 63 47 23 
3 48 47 63 
3 51 23 47 
3 47 48 49 
3 47 49 51 
3 49 50 52 
3 51 49 52 
3 62 51 52 
3 53 33 54 
3 54 33 55 
3 33 56 55 
3 55 56 57 
3 34 58 68 
3 53 67 27 
3 33 53 27 
3 33 35 56 
3 37 56 35 
3 56 37 38 
3 56 38 59 
3 70 39 34 
3 38 36 59 
3 39 60 40 
3 40 60 42 
3 71 43 42 
3 43 71 61 
3 32 61 46 
3 44 45 73 
3 45 62 73 
3 48 50 49 
3 78 64 48 
3 48 64 50 
3 50 64 52 
3 62 52 146 
3 64 65 52 
3 146 52 66 
3 66 52 65 
3 53 54 67 
3 55 57 84 
3 58 85 68 
3 58 26 67 
3 56 59 57 
3 57 59 86 
3 68 70 34 
3 69 70 68 
3 39 70 60 
3 70 88 60 
3 59 72 86 
3 86 72 89 
3 60 71 42 
3 44 73 72 
3 61 91 46 
3 91 74 46 
3 77 63 46 
3 77 46 94 
3 94 46 74 
3 73 62 93 
3 93 62 75 
3 76 77 94 
3 62 96 75 
3 76 95 48 
3 76 48 77 
3 77 48 63 
3 48 95 78 
3 62 146 96 
3 79 64 78 
3 64 79 65 
3 65 80 66 
3 65 79 80 
3 80 81 66 
3 66 81 100 
3 146 66 100 
3 79 98 80 
3 67 82 58 
3 54 102 67 
3 67 102 82 
3 54 103 102 
3 55 83 54 
3 54 83 103 
3 55 84 83 
3 57 105 84 
3 108 105 57 
3 68 85 87 
3 57 86 108 
3 69 87 88 
3 70 69 88 
3 87 69 68 
3 60 88 109 
3 109 71 60 
3 89 72 112 
3 71 109 61 
3 109 111 61 
3 112 72 90 
3 111 91 61 
3 90 72 114 
3 72 73 114 
3 114 73 115 
3 115 73 92 
3 73 93 92 
3 94 118 76 
3 76 118 119 
3 119 95 76 
3 120 78 95 
3 120 79 78 
3 96 146 97 
3 79 120 98 
3 146 121 97 
3 100 98 99 
3 100 81 98 
3 81 80 98 
3 100 99 101 
3 146 100 101 
3 84 104 83 
3 105 104 84 
3 106 87 85 
3 85 107 106 
3 58 107 85 
3 82 102 58 
3 102 107 58 
3 103 128 102 
3 108 86 89 
3 87 109 88 
3 109 87 110 
3 110 111 109 
3 112 113 89 
3 90 113 112 
3 90 114 113 
3 115 92 116 
3 115 116 114 
3 91 140 74 
3 92 93 141 
3 141 93 117 
3 74 140 94 
3 140 118 94 
3 93 75 117 
3 117 75 96 
3 120 95 119 
3 97 121 142 
3 97 142 96 
3 98 120 143 
3 98 143 99 
3 99 122 123 
3 101 99 123 
3 146 101 123 
3 123 148 124 
3 146 123 124 
3 103 83 129 
3 83 104 105 
3 129 83 105 
3 125 106 107 
3 126 127 107 
3 107 102 133 
3 126 107 133 
3 133 102 128 
3 103 129 128 
3 129 105 130 
3 105 108 130 
3 87 131 132 
3 125 87 106 
3 125 131 87 
3 126 133 127 
3 134 130 135 
3 130 108 135 
3 108 89 135 
3 87 132 110 
3 132 131 110 
3 113 134 135 
3 136 134 113 
3 135 89 113 
3 110 131 111 
3 113 137 136 
3 113 114 137 
3 111 157 91 
3 114 138 137 
3 139 138 114 
3 91 157 140 
3 116 139 114 
3 116 92 139 
3 92 141 139 
3 117 96 142 
3 118 120 119 
3 142 121 175 
3 120 195 143 
3 99 143 122 
3 121 146 147 
3 121 147 175 
3 122 143 176 
3 122 176 123 
3 123 176 144 
3 144 148 123 
3 145 148 144 
3 146 124 149 
3 149 124 148 
3 107 127 125 
3 129 151 128 
3 129 130 150 
3 151 129 150 
3 131 125 152 
3 152 125 153 
3 125 127 153 
3 133 128 153 
3 127 133 153 
3 150 130 151 
3 128 151 153 
3 134 136 151 
3 130 134 151 
3 152 182 183 
3 152 183 131 
3 131 183 111 
3 154 182 152 
3 153 155 152 
3 155 154 152 
3 138 155 153 
3 151 138 153 
3 136 137 151 
3 138 158 155 
3 158 154 155 
3 137 138 151 
3 185 156 161 
3 154 161 156 
3 157 185 140 
3 186 185 161 
3 158 161 154 
3 138 160 158 
3 139 141 160 
3 138 139 160 
3 158 159 161 
3 160 159 158 
3 162 186 161 
3 159 163 161 
3 160 163 159 
3 164 163 160 
3 141 117 164 
3 160 141 164 
3 162 168 118 
3 162 118 186 
3 186 118 140 
3 165 168 161 
3 162 161 168 
3 163 166 161 
3 166 165 161 
3 167 166 163 
3 164 167 163 
3 117 142 167 
3 164 117 167 
3 169 187 165 
3 171 187 169 
3 166 169 165 
3 170 169 166 
3 167 170 166 
3 142 170 167 
3 170 171 169 
3 142 172 170 
3 118 168 120 
3 173 172 142 
3 173 142 174 
3 142 175 174 
3 143 177 176 
3 143 195 177 
3 175 147 178 
3 176 177 190 
3 176 190 144 
3 144 190 145 
3 180 147 146 
3 180 179 147 
3 179 181 147 
3 181 178 147 
3 145 179 148 
3 149 148 179 
3 180 149 179 
3 146 149 180 
3 183 182 154 
3 183 184 111 
3 156 184 154 
3 154 184 183 
3 111 184 157 
3 156 185 157 
3 184 156 157 
3 185 186 140 
3 187 171 168 
3 165 187 168 
3 120 168 195 
3 195 168 171 
3 171 170 195 
3 170 172 188 
3 195 170 188 
3 172 173 174 
3 188 172 174 
3 188 174 189 
3 177 191 190 
3 192 189 174 
3 175 178 192 
3 174 175 192 
3 190 191 193 
3 190 193 145 
3 179 145 194 
3 145 193 194 
3 192 181 194 
3 194 181 179 
3 178 181 192 
3 195 188 196 
3 196 177 195 
3 191 177 196 
3 191 196 188 
3 189 192 188 
3 194 193 191 
3 188 194 191 
3 192 194 188 
3 199 197 198 
3 203 199 198 
3 200 199 203 
3 204 201 202 
3 200 204 202 
3 202 201 206 
3 204 200 203 
3 205 201 204 
3 206 201 205 
3 203 207 204 
3 205 204 209 
3 237 205 209 
3 206 205 237 
3 208 204 207 
3 209 204 208 
3 211 210 245 
3 215 210 211 
3 213 210 215 
3 245 210 213 
3 212 245 214 
3 214 245 213 
3 214 213 215 
3 212 214 218 
3 217 215 216 
3 214 215 217 
3 273 219 216 
3 217 216 219 
3 218 214 217 
3 221 218 217 
3 220 219 273 
3 199 219 220 
3 217 219 199 
3 221 217 222 
3 222 217 199 
3 199 220 223 
3 252 221 222 
3 222 199 227 
3 252 222 227 
3 225 252 227 
3 199 223 224 
3 225 227 228 
3 253 226 224 
3 199 224 226 
3 226 253 230 
3 230 231 226 
3 197 231 198 
3 197 199 231 
3 199 226 231 
3 232 227 199 
3 228 227 232 
3 233 228 232 
3 225 228 233 
3 233 229 225 
3 234 198 231 
3 200 232 199 
3 202 232 200 
3 233 232 202 
3 206 233 202 
3 206 229 233 
3 255 203 198 
3 203 255 236 
3 203 236 207 
3 237 238 206 
3 206 238 235 
3 240 239 241 
3 240 208 239 
3 208 207 239 
3 208 244 209 
3 240 244 208 
3 237 209 244 
3 237 244 242 
3 238 237 242 
3 240 241 243 
3 244 240 243 
3 245 290 246 
3 290 245 261 
3 212 247 261 
3 261 247 262 
3 246 211 245 
3 212 261 245 
3 247 212 249 
3 248 247 249 
3 212 218 249 
3 249 251 248 
3 215 272 216 
3 250 249 218 
3 250 251 249 
3 250 218 221 
3 274 251 250 
3 252 250 221 
3 252 225 229 
3 277 231 230 
3 278 229 254 
3 231 277 234 
3 279 198 234 
3 229 206 254 
3 198 279 255 
3 206 235 254 
3 254 235 257 
3 256 257 238 
3 238 257 235 
3 236 255 282 
3 207 236 282 
3 239 207 241 
3 207 282 241 
3 242 257 256 
3 242 244 257 
3 238 242 256 
3 241 258 259 
3 243 241 259 
3 244 243 260 
3 243 259 260 
3 261 262 287 
3 307 261 287 
3 287 262 263 
3 263 264 289 
3 264 266 265 
3 289 264 265 
3 265 266 267 
3 267 266 268 
3 261 307 290 
3 247 263 262 
3 264 263 247 
3 248 264 247 
3 266 264 248 
3 246 290 211 
3 211 290 293 
3 248 269 266 
3 291 268 266 
3 269 291 266 
3 211 293 215 
3 293 270 215 
3 269 248 251 
3 271 291 269 
3 251 271 269 
3 215 270 272 
3 216 272 273 
3 220 273 223 
3 274 278 299 
3 274 250 278 
3 250 252 278 
3 223 275 224 
3 252 229 278 
3 276 253 224 
3 253 277 230 
3 278 254 302 
3 234 277 279 
3 302 254 280 
3 279 303 255 
3 257 281 280 
3 257 280 254 
3 255 303 304 
3 255 306 282 
3 281 283 284 
3 257 283 281 
3 258 285 286 
3 258 241 285 
3 241 282 285 
3 283 286 285 
3 257 244 286 
3 283 257 286 
3 258 286 259 
3 260 259 286 
3 244 260 286 
3 289 288 263 
3 267 268 265 
3 265 268 289 
3 293 290 292 
3 293 294 270 
3 295 270 294 
3 270 311 272 
3 296 271 251 
3 272 311 273 
3 251 274 297 
3 297 274 314 
3 273 298 223 
3 314 274 299 
3 223 298 275 
3 299 278 337 
3 275 300 224 
3 224 300 276 
3 276 277 253 
3 315 277 276 
3 277 303 279 
3 301 302 280 
3 281 321 301 
3 280 281 301 
3 304 306 255 
3 305 306 304 
3 283 321 284 
3 321 281 284 
3 285 282 306 
3 321 283 285 
3 306 321 285 
3 307 325 324 
3 263 326 287 
3 287 326 307 
3 288 308 263 
3 263 308 326 
3 288 289 308 
3 268 328 289 
3 290 329 331 
3 292 290 331 
3 290 330 329 
3 307 324 290 
3 268 291 328 
3 292 331 293 
3 293 309 294 
3 291 271 310 
3 294 309 295 
3 311 270 295 
3 310 271 334 
3 296 312 334 
3 251 312 296 
3 334 271 296 
3 311 313 273 
3 251 297 312 
3 312 297 336 
3 314 336 297 
3 273 313 298 
3 313 338 298 
3 298 338 275 
3 275 338 300 
3 338 276 300 
3 337 278 302 
3 276 338 315 
3 315 316 277 
3 316 303 277 
3 302 301 318 
3 303 316 317 
3 303 320 319 
3 322 318 321 
3 318 301 321 
3 303 319 304 
3 304 320 305 
3 304 319 320 
3 322 305 323 
3 321 305 322 
3 321 306 305 
3 307 326 325 
3 289 327 308 
3 328 327 289 
3 324 347 290 
3 290 347 330 
3 325 347 324 
3 293 331 332 
3 293 332 309 
3 332 333 309 
3 291 310 335 
3 309 311 295 
3 313 311 309 
3 334 335 310 
3 334 312 335 
3 336 335 312 
3 314 299 336 
3 299 350 336 
3 299 337 350 
3 341 339 340 
3 337 302 340 
3 339 337 340 
3 338 316 315 
3 354 340 318 
3 340 302 318 
3 317 316 343 
3 343 316 342 
3 342 354 343 
3 317 343 303 
3 320 303 343 
3 354 322 343 
3 322 320 343 
3 354 318 322 
3 323 305 320 
3 322 323 320 
3 326 308 344 
3 325 326 344 
3 308 327 345 
3 344 308 345 
3 327 328 345 
3 329 346 331 
3 346 329 355 
3 355 329 330 
3 330 363 355 
3 330 347 363 
3 344 348 325 
3 357 344 345 
3 328 349 357 
3 328 357 345 
3 328 291 349 
3 291 335 349 
3 333 332 331 
3 333 313 309 
3 333 359 313 
3 336 350 335 
3 350 337 351 
3 353 362 351 
3 337 353 351 
3 342 338 352 
3 337 339 353 
3 353 339 354 
3 338 342 316 
3 339 341 354 
3 341 340 354 
3 356 355 363 
3 325 364 347 
3 347 364 363 
3 348 364 325 
3 348 366 364 
3 348 344 366 
3 331 346 368 
3 355 368 346 
3 349 335 357 
3 331 368 333 
3 368 359 333 
3 358 357 335 
3 313 359 338 
3 360 338 359 
3 335 350 361 
3 358 335 361 
3 351 362 361 
3 350 351 361 
3 360 352 338 
3 354 352 362 
3 342 352 354 
3 362 353 354 
3 367 365 364 
3 367 364 366 
3 344 357 366 
3 368 355 356 
3 366 358 367 
3 366 357 358 
3 370 359 368 
3 367 358 369 
3 370 373 359 
3 372 373 370 
3 372 374 373 
3 358 371 369 
3 360 359 373 
3 371 373 374 
3 358 361 371 
3 373 352 360 
3 371 352 373 
3 361 352 371 
3 361 362 352 
3 364 375 363 
3 364 365 375 
3 363 376 356 
3 376 363 375 
3 356 376 368 
3 367 369 375 
3 365 367 375 
3 368 376 370 
3 370 376 372 
3 375 371 376 
3 371 372 376 
3 369 371 375 
3 374 372 371 

POINT_DATA 377
COLOR_SCALARS scalars 3
1 0.764706 0.584314 1 0.764706 0.584314 1 0.764706 0.584314 
1 0.764706 0.584314 1 0.764706 0.584314 
1 0.764706 0.584314 1 0.764706 0.584314 
1 0.764706 0.584314 1 0.764706 0.584314 
1 0.764706 0.584314 1 0.764706 0.584314 
1 0.764706 0.584314 1 0.764706 0.584314 
1 0.764706 0.584314 1 0.764706 0.584314 
1 0.764706 0.584314 1 0.764706 0.584314 
1 0.764706 0.584314 1 0.764706 0.584314 
1 0.764706 0.584314 1 0.764706 0.584314 
1 0.764706 0.584314 1 0.764706 0.584314 
1 0.764706 0.584314 1 0.764706 0.584314 
1 0.764706 0.584314 1 0.764706 0.584314 
1 0.764706 0.584314 1 0.764706 0.584314 
1 0.764706 0.584314 1 0.764706 0.584314 
1 0.764706 0.584314 1 0.764706 0.584314 
1 0.764706 0.584314 1 0.764706 0.584314 
1 0.764706 0.584314 1 0.764706 0.584314 
1 0.764706 0.584314 1 0.764706 0.584314 
1 0.764706 0.584314 1 0.764706 0.584314 
1 0.764706 0.584314 1 0.764706 0.584314 
1 0.764706 0.584314 1 0.764706 0.584314 
1 0.764706 0.584314 1 0.764706 0.584314 
1 0.764706 0.584314 1 0.764706 0.584314 
1 0.764706 0.584314 1 0.764706 0.584314 
1 0.764706 0.584314 1 0.764706 0.584314 
1 0.764706 0.584314 1 0.764706 0.584314 
1 0.764706 0.584314 1 0.764706 0.584314 
1 0.764706 0.584314 1 0.764706 0.584314 
1 0.764706 0.584314 1 0.764706 0.584314 
1 0.764706 0.584314 1 0.764706 0.584314 
1 0.764706 0.584314 1 0.764706 0.584314 
1 0.764706 0.584314 1 0.764706 0.584314 
1 0.764706 0.584314 1 0.764706 0.584314 
1 0.764706 0.584314 1 0.764706 0.584314 
1 0.764706 0.584314 1 0.764706 0.584314 
1 0.764706 0.584314 1 0.764706 0.584314 
1 0.764706 0.584314 1 0.764706 0.584314 
1 0.764706 0.584314 1 0.764706 0.584314 
1 0.764706 0.584314 1 0.764706 0.584314 
1 0.764706 0.584314 1 0.764706 0.584314 
1 0.764706 0.584314 1 0.764706 0.584314 
1 0.764706 0.584314 1 0.764706 0.584314 
1 0.764706 0.584314 1 0.764706 0.584314 
1 0.764706 0.584314 1 0.764706 0.584314 
1 0.764706 0.584314 1 0.764706 0.584314 
1 0.764706 0.584314 1 0.764706 0.584314 
1 0.764706 0.584314 1 0.764706 0.584314 
1 0.764706 0.584314 1 0.764706 0.584314 
1 0.764706 0.584314 1 0.764706 0.584314 
1 0.764706 0.584314 1 0.764706 0.584314 
1 0.764706 0.584314 1 0.764706 0.584314 
1 0.764706 0.584314 1 0.764706 0.584314 
1 0.764706 0.584314 1 0.764706 0.584314 
1 0.764706 0.584314 1 0.764706 0.584314 
1 0.764706 0.584314 1 0.764706 0.584314 
1 0.764706 0.584314 1 0.764706 0.584314 
1 0.764706 0.584314 1 0.764706 0.584314 
1 0.764706 0.584314 1 0.764706 0.584314 
1 0.764706 0.584314 1 0.764706 0.584314 
1 0.764706 0.584314 1 0.764706 0.584314 
1 0.764706 0.584314 1 0.764706 0.584314 
1 0.764706 0.584314 1 0.764706 0.584314 
1 0.764706 0.584314 1 0.764706 0.584314 
1 0.764706 0.584314 1 0.764706 0.584314 
1 0.764706 0.584314 1 0.764706 0.584314 
1 0.764706 0.584314 1 0.764706 0.584314 
1 0.764706 0.584314 1 0.764706 0.584314 
1 0.764706 0.584314 1 0.764706 0.584314 
1 0.764706 0.584314 1 0.764706 0.584314 
1 0.764706 0.584314 1 0.764706 0.584314 
1 0.764706 0.584314 1 0.764706 0.584314 
1 0.764706 0.584314 1 0.764706 0.584314 
1 0.764706 0.584314 1 0.764706 0.584314 
1 0.764706 0.584314 1 0.764706 0.584314 
1 0.764706 0.584314 1 0.764706 0.584314 
1 0.764706 0.584314 1 0.764706 0.584314 
1 0.764706 0.584314 1 0.764706 0.584314 
1 0.764706 0.584314 1 0.764706 0.584314 
1 0.764706 0.584314 1 0.764706 0.584314 
1 0.764706 0.584314 1 0.764706 0.584314 
1 0.764706 0.584314 1 0.764706 0.584314 
1 0.764706 0.584314 1 0.764706 0.584314 
1 0.764706 0.584314 1 0.764706 0.584314 
1 0.764706 0.584314 1 0.764706 0.584314 
1 0.764706 0.584314 1 0.764706 0.584314 
1 0.764706 0.584314 1 0.764706 0.584314 
1 0.764706 0.584314 1 0.764706 0.584314 
1 0.764706 0.584314 1 0.764706 0.584314 
1 0.764706 0.584314 1 0.764706 0.584314 
1 0.764706 0.584314 1 0.764706 0.584314 
1 0.764706 0.584314 1 0.764706 0.584314 
1 0.764706 0.584314 1 0.764706 0.584314 
1 0.764706 0.584314 1 0.764706 0.584314 
1 0.764706 0.584314 1 0.764706 0.584314 
1 0.764706 0.584314 1 0.764706 0.584314 
1 0.764706 0.584314 1 0.764706 0.584314 
1 0.764706 0.584314 1 0.764706 0.584314 
1 0.764706 0.584314 1 0.764706 0.584314 
1 0.764706 0.584314 1 0.764706 0.584314 
1 0.764706 0.584314 1 0.764706 0.584314 
1 0.764706 0.584314 1 0.764706 0.584314 
1 0.764706 0.584314 1 0.764706 0.584314 
1 0.764706 0.584314 1 0.764706 0.584314 
1 0.764706 0.584314 1 0.764706 0.584314 
1 0.764706 0.584314 1 0.764706 0.584314 
1 0.764706 0.584314 1 0.764706 0.584314 
1 0.764706 0.584314 1 0.764706 0.584314 
1 0.764706 0.584314 1 0.764706 0.584314 
1 0.764706 0.584314 1 0.764706 0.584314 
1 0.764706 0.584314 1 0.764706 0.584314 
1 0.764706 0.584314 1 0.764706 0.584314 
1 0.764706 0.584314 1 0.764706 0.584314 
1 0.764706 0.584314 1 0.764706 0.584314 
1 0.764706 0.584314 1 0.764706 0.584314 
1 0.764706 0.584314 1 0.764706 0.584314 
1 0.764706 0.584314 1 0.764706 0.584314 
1 0.764706 0.584314 1 0.764706 0.584314 
1 0.764706 0.584314 1 0.764706 0.584314 
1 0.764706 0.584314 1 0.764706 0.584314 
1 0.764706 0.584314 1 0.764706 0.584314 
1 0.764706 0.584314 1 0.764706 0.584314 
1 0.764706 0.584314 1 0.764706 0.584314 
1 0.764706 0.584314 1 0.764706 0.584314 
1 0.764706 0.584314 1 0.764706 0.584314 
1 0.764706 0.584314 1 0.764706 0.584314 
1 0.764706 0.584314 1 0.764706 0.584314 
1 0.764706 0.584314 1 0.764706 0.584314 
1 0.764706 0.584314 1 0.764706 0.584314 
1 0.764706 0.584314 1 0.764706 0.584314 
1 0.764706 0.584314 1 0.764706 0.584314 
1 0.764706 0.584314 1 0.764706 0.584314 
1 0.764706 0.584314 1 0.764706 0.584314 
1 0.764706 0.584314 1 0.764706 0.584314 
1 0.764706 0.584314 1 0.764706 0.584314 
1 0.764706 0.584314 1 0.764706 0.584314 
1 0.764706 0.584314 1 0.764706 0.584314 
1 0.764706 0.584314 1 0.764706 0.584314 
1 0.764706 0.584314 1 0.764706 0.584314 
1 0.764706 0.584314 1 0.764706 0.584314 
1 0.764706 0.584314 1 0.764706 0.584314 
1 0.764706 0.584314 1 0.764706 0.584314 
1 0.764706 0.584314 1 0.764706 0.584314 
1 0.764706 0.584314 1 0.764706 0.584314 
1 0.764706 0.584314 1 0.764706 0.584314 
1 0.764706 0.584314 1 0.764706 0.584314 
1 0.764706 0.584314 1 0.764706 0.584314 
1 0.764706 0.584314 1 0.764706 0.584314 
1 0.764706 0.584314 1 0.764706 0.584314 
1 0.764706 0.584314 1 0.764706 0.584314 
1 0.764706 0.584314 1 0.764706 0.584314 
1 0.764706 0.584314 1 0.764706 0.584314 
1 0.764706 0.584314 1 0.764706 0.584314 
1 0.764706 0.584314 1 0.764706 0.584314 
1 0.764706 0.584314 1 0.764706 0.584314 
1 0.764706 0.584314 1 0.764706 0.584314 
1 0.764706 0.584314 1 0.764706 0.584314 
1 0.764706 0.584314 1 0.764706 0.584314 
1 0.764706 0.584314 1 0.764706 0.584314 
1 0.764706 0.584314 1 0.764706 0.584314 
1 0.764706 0.584314 1 0.764706 0.584314 
1 0.764706 0.584314 1 0.764706 0.584314 
1 0.764706 0.584314 1 0.764706 0.584314 
1 0.764706 0.584314 1 0.764706 0.584314 
1 0.764706 0.584314 1 0.764706 0.584314 
1 0.764706 0.584314 1 0.764706 0.584314 
1 0.764706 0.584314 1 0.764706 0.584314 
1 0.764706 0.584314 1 0.764706 0.584314 
1 0.764706 0.584314 1 0.764706 0.584314 
1 0.764706 0.584314 1 0.764706 0.584314 
1 0.764706 0.584314 1 0.764706 0.584314 
1 0.764706 0.584314 1 0.764706 0.584314 
1 0.764706 0.584314 1 0.764706 0.584314 
1 0.764706 0.584314 1 0.764706 0.584314 
1 0.764706 0.584314 1 0.764706 0.584314 
1 0.764706 0.584314 1 0.764706 0.584314 
1 0.764706 0.584314 1 0.764706 0.584314 
1 0.764706 0.584314 1 0.764706 0.584314 
1 0.764706 0.584314 1 0.764706 0.584314 
1 0.764706 0.584314 1 0.764706 0.584314 
1 0.764706 0.584314 1 0.764706 0.584314 
1 0.764706 0.584314 1 0.764706 0.584314 
1 0.764706 0.584314 1 0.764706 0.584314 
1 0.764706 0.584314 1 0.764706 0.584314 
1 0.764706 0.584314 1 0.764706 0.584314 
1 0.764706 0.584314 1 0.764706 0.584314 
1 0.764706 0.584314 1 0.764706 0.584314 
1 0.764706 0.584314 1 0.764706 0.584314 

NORMALS Normals float
-0.166998 -0.278827 -0.94571 -0.253043 -0.616797 -0.74534 -0.403259 -0.310036 -0.860964 
0.211644 -0.414549 -0.885074 -0.246193 0.0476477 -0.968049 0.146917 -0.0627369 -0.987157 
-0.11365 0.10216 -0.988254 -0.331796 -0.596855 -0.730531 0.217798 -0.355946 -0.908772 
0.232998 -0.357 -0.904579 0.364763 -0.615482 -0.698663 -0.520054 -0.318949 -0.792348 
-0.637538 -0.402151 -0.65713 0.479883 -0.0355167 -0.876613 -0.364094 -0.186545 -0.912489 
-0.44538 -0.219581 -0.867998 -0.492103 -0.0407189 -0.869584 0.0802684 0.205281 -0.975406 
-0.481811 0.119666 -0.868066 -0.150572 0.0818714 -0.985203 0.40782 0.0565437 -0.91131 
-0.378946 0.202018 -0.9031 0.119606 0.230699 -0.965646 -0.27374 0.36512 -0.889805 
-0.421997 -0.795018 -0.435735 -0.537896 -0.727979 -0.425106 -0.236318 -0.898567 -0.369772 
-0.0450078 -0.836771 -0.545701 -0.573411 -0.553063 -0.604418 0.59766 -0.336522 -0.727706 
-0.771383 -0.193009 -0.606395 -0.733419 0.105313 -0.671569 -0.610287 0.335323 -0.71771 
0.292596 -0.79181 -0.53612 -0.578645 -0.78884 -0.207128 0.517096 -0.486758 -0.704044 
0.816857 -0.185387 -0.546239 0.677774 -0.412632 -0.60857 0.846414 -0.364858 -0.387894 
-0.792429 -0.462697 -0.397452 -0.902921 -0.214684 -0.372349 0.79825 0.0388572 -0.601071 
-0.891985 -0.0953874 -0.441887 -0.881974 0.060379 -0.467415 0.895761 0.173921 -0.4091 
0.663159 0.300698 -0.68542 -0.829876 0.28514 -0.479585 -0.353531 0.335604 -0.873147 
-0.61768 0.510945 -0.597835 -0.155105 0.379534 -0.912084 -0.183257 0.519824 -0.834386 
0.231529 0.368268 -0.900429 0.236224 0.493397 -0.837113 -0.0529877 -0.956929 -0.285447 
0.0678715 -0.997422 -0.0233083 0.260435 -0.935911 -0.237157 0.59894 -0.66441 -0.447024 
0.638335 -0.766965 -0.0655182 -0.369335 -0.927705 0.054369 0.939802 -0.294748 -0.172902 
-0.973824 -0.132801 -0.184472 -0.95707 0.195636 -0.213876 0.765548 0.33947 -0.546531 
-0.663469 0.3725 -0.648886 -0.37551 0.555039 -0.742243 -0.208876 0.622912 -0.753891 
0.161425 0.624994 -0.763757 -0.0546809 -0.998473 -0.00780667 -0.622784 -0.778254 0.0803822 
-0.802264 -0.583851 0.124459 -0.84286 -0.533835 -0.0678799 -0.990563 0.0956308 -0.0981818 
0.993571 0.0768011 -0.0831709 0.958677 0.24184 -0.149839 -0.977879 0.187806 -0.0920923 
0.987028 0.148132 -0.0619 -0.902063 0.355294 -0.24505 -0.858471 0.37243 -0.352594 
-0.74722 0.49676 -0.441466 -0.635037 0.603536 -0.482153 -0.292381 0.801857 -0.521093 
-0.261227 0.81718 -0.513788 -0.149182 -0.937172 0.315363 0.180635 -0.93119 0.316634 
0.439477 -0.892419 0.102216 -0.447538 -0.853085 0.268244 0.917962 -0.38006 0.113578 