# vtk DataFile Version 4.2
vtk output
ASCII
DATASET POLYDATA
POINTS 704 float
246.169 265.546 166.035 246.004 265.2 166.081 246.272 265.189 166.171 
246.151 265.958 165.972 246.392 265.629 166.196 245.729 266.368 165.955 
245.996 266.288 165.945 246.331 266.046 166.029 246.206 266.284 166.011 
246.348 266.183 166.032 244.983 266.782 166.305 245.561 266.644 166.051 
246.183 266.458 166.182 245.311 267.116 166.407 245.766 266.914 166.248 
245.99 266.763 166.274 245.555 267.087 166.387 246.289 263.363 166.795 
245.335 264.431 166.37 246.449 263.669 166.757 246.476 264.924 166.404 
246.602 265.032 166.574 246.386 266.057 166.12 246.355 266.07 166.394 
244.105 266.851 167.012 244.622 267.087 166.94 245.054 267.197 166.812 
246.002 266.806 166.434 245.319 267.19 166.582 245.542 267.128 166.593 
245.435 262.135 167.355 245.895 262.168 167.298 246.338 261.719 167.634 
246.474 262.038 167.549 246.61 262.255 167.677 246.72 263.942 167.185 
244.162 264.709 166.813 246.706 264.486 167.081 242.812 266.653 167.684 
245.969 266.754 166.678 244.374 267.154 167.541 244.899 267.139 167.214 
245.899 260.779 168.212 245.242 260.754 168.411 246.226 261.263 167.924 
246.443 260.873 168.433 246.543 261.209 168.377 246.603 261.779 168.128 
246.73 263.042 167.818 242.079 264.654 168.292 246.413 265.084 167.615 
245.775 266.314 167.722 241.032 267.362 169.024 241.028 267.796 169.232 
242.273 267.77 169 241.815 267.916 169.162 245.99 259.692 169.011 
245.968 259.547 169.147 246.112 259.699 169.045 246.059 259.56 169.127 
246.105 259.662 169.184 245.767 260.078 168.788 245.516 259.978 169.073 
246.185 259.949 169.04 246.247 260.3 169.094 246.538 261.436 168.589 
239.998 267.445 169.805 245.124 266.495 168.306 239.927 268.055 170.057 
240.28 268.243 169.973 240.828 268.162 169.677 241.953 268.017 169.538 
240.317 268.541 170.378 240.935 268.395 170.067 245.871 259.585 169.247 
246.005 259.544 169.238 245.871 259.657 169.375 245.607 259.811 169.352 
246.023 259.665 169.321 245.23 260.118 169.728 243.728 261.066 169.895 
246.099 261.313 169.638 242.092 262.587 169.639 241.97 268.042 170.282 
239.484 268.844 171.055 245.922 259.827 169.462 245.118 260.317 170.095 
245.453 260.224 169.917 245.837 260.234 169.668 244.297 260.78 170.574 
242.155 262.131 170.478 243.217 261.349 170.936 240.08 263.759 171.262 
238.582 265.853 171.49 243.239 266.075 171.63 238.045 267.665 171.678 
241.322 268.303 171.136 238.799 269.239 171.822 239.185 269.228 171.466 
239.096 269.315 171.608 239.38 269.183 171.46 239.84 269.003 171.662 
239.213 269.303 171.536 245.226 260.49 170.238 245.096 260.955 170.582 
244.633 261.133 171.025 243.138 261.508 171.588 244.815 261.984 171.154 
236.958 269.238 172.954 237.293 269.466 172.858 237.891 269.456 172.554 
239.042 269.406 172.422 239.221 269.288 171.725 237.165 269.904 173.406 
243.855 261.362 171.471 244.321 261.128 171.165 242.309 261.937 172.742 
241.798 262.076 172.565 243.149 264.241 173.33 238.054 265.044 173.055 
236.411 270.488 174.395 237.148 270.296 174.013 243.191 261.945 172.529 
240.285 262.851 173.831 242.974 262.549 173.361 237.787 264.848 174.213 
241.788 266.54 174.266 235.142 269.544 174.789 235.724 269.796 174.288 
238.839 269.631 174.07 237.84 270.187 174.314 236.781 270.719 175.063 
241.985 262.237 173.639 242.944 262.198 173.061 240.716 262.701 174.736 
241.852 262.472 174.21 234.634 268.767 175.321 238.908 269.44 175.448 
234.698 270.01 175.443 237.523 270.515 175.641 234.141 270.709 176.453 
241.02 262.714 175.085 242.086 263.321 175.157 241.92 265.261 175.665 
234.414 267.823 176.272 237.042 270.816 176.398 233.799 271.117 177.243 
241.191 262.887 175.489 239.632 263.624 176.709 241.885 264.329 176.191 
236.229 265.726 177.214 239.54 268.389 176.972 232.508 270.6 178.115 
235.429 271.438 177.481 241.283 263.64 176.659 238.485 264.321 177.558 
241.468 264.543 176.984 233.57 271.986 178.713 238.704 264.408 177.992 
239.308 264.232 177.903 240.976 265.089 177.646 236.313 265.731 178.827 
240.146 266.573 178.441 236.54 271.012 178.917 232.598 272.269 179.91 
239.575 264.47 178.246 237.482 265.33 179.378 238.076 265.175 179.29 
238.695 264.946 178.955 239.402 264.974 178.846 240.034 265.083 178.575 
240.581 264.956 178.054 239.842 266.532 179.077 231.272 270.114 180.426 
233.823 272.4 180.193 233.332 272.479 180.383 238.164 265.424 179.826 
238.77 265.655 179.987 239.127 266.29 180.253 239.266 267.097 180.068 
238.819 267.958 180.532 238.269 269.012 180.597 230.45 271.243 181.544 
234.95 272.016 181.093 231.143 272.497 181.695 236.393 266.289 181.127 
237.623 266.068 180.83 238.82 266.215 180.529 230.071 271.331 182.601 
229.984 271.925 182.902 230.492 272.491 182.436 233.659 272.577 181.701 
233.901 267.554 182.751 229.989 270.921 183.814 229.516 272.085 184.018 
230.188 272.366 182.774 234.969 267.378 183.185 236.379 267.203 182.87 
237.106 267.177 182.61 237.801 267.684 182.626 237.323 269.543 183.677 
229.998 273.053 184.01 237.116 269.035 184.61 229.506 271.341 185.352 
228.569 272.91 185.682 228.346 273.325 186.017 229.384 273.326 185.061 
229.839 273.81 185.619 230.553 273.903 185.721 234.508 268.259 184.874 
235.851 268.476 185.221 236.968 269.172 185.369 236.918 269.544 185.142 
236.927 269.31 185.424 228.041 272.726 187.157 228.01 273.976 186.937 
228.636 274.235 186.843 230.144 274.188 186.561 235.428 268.418 185.227 
233.33 269.18 186.093 236.574 269.072 185.596 236.849 269.196 185.505 
236.65 269.46 185.739 230.522 270.839 187.187 227.517 273.635 187.36 
227.054 273.833 188.011 231.519 273.896 186.859 234.242 269.306 186.42 
235.734 269.277 186.187 236.262 269.335 186.02 232.345 270.067 187.15 
235.325 269.678 186.632 236.31 269.61 186.16 228.987 271.966 188.385 
228.505 272.221 188.058 234.454 271.713 187.425 233.04 272.992 187.65 
226.181 274.119 189.264 226.079 274.554 189.034 233.261 270.156 187.45 
234.029 270.135 187.346 230.59 271.252 188.435 234.16 270.519 187.666 
234.86 270.909 187.314 228.907 272.124 188.88 234.549 271.374 187.572 
227.147 273.251 189.661 225.569 274.341 190.105 225.038 274.794 190.2 
231.921 273.721 188.271 224.394 275.477 190.502 225.181 275.295 189.768 
225.863 275.071 189.254 224.972 275.652 189.963 225.072 275.9 190.064 
225.554 276.011 190.013 232.396 271.053 188.526 233.749 271.333 188.353 
233.43 271.582 188.618 227.617 273.089 190.085 232.51 272.868 189.017 
232.956 272.277 188.858 224.357 275.792 190.505 224.656 275.907 190.315 
225.511 276.709 190.771 232.012 272.01 189.429 232.789 271.795 188.969 
232.154 272.509 189.53 228.907 272.796 190.373 226.531 273.779 191.005 
231.568 273.407 189.986 223.244 276.032 192.005 222.869 276.412 192.502 
229.601 275.227 190.409 223.918 276.675 191.368 223.609 276.869 191.758 
227.185 276.508 191.062 227.622 276.341 191.192 227.648 273.439 191.076 
228.727 273.156 190.914 230.3 272.734 190.457 231.53 272.728 190.073 
223.244 275.683 192.611 222.709 276.344 192.956 223.241 276.849 192.089 
228.055 276.039 191.821 228.66 275.636 191.53 222.644 277.092 192.933 
224.738 277.357 192.01 231.138 273.071 190.415 229.346 273.757 191.441 
223.437 275.512 193.185 226.852 274.462 192.478 229.46 274.93 191.387 
229.765 274.437 191.354 229.066 275.273 191.574 222.176 277.323 194.025 
226.086 277.287 192.585 225.291 277.574 192.998 227.471 274.333 192.295 
228.069 275.119 192.61 228.174 275.41 192.475 223.693 278.08 194.079 
225.144 277.636 193.699 222.631 278.139 194.501 223.015 278.172 194.319 
223.333 278.19 194.385 227.601 275.094 192.88 226.875 275.956 193.649 
221.481 278.061 195.617 223.372 278.208 194.728 225.743 276.721 194.826 
225.106 277.456 194.773 221.357 278.103 195.878 224.111 277.845 195.256 
221.507 278.174 195.78 223.132 276.541 195.877 225.04 276.143 195.09 
225.499 276.299 194.995 221.882 277.347 196.007 225.045 276.754 195.502 
221.694 277.767 196.242 224.041 277.689 195.742 224.254 277.429 195.853 
224.663 277.045 195.738 221.282 278.142 196.049 221.265 278.185 196.097 
222.12 278.172 195.936 221.316 278.19 196.01 221.451 278.19 196.018 
222.979 276.748 196.202 222.236 277.285 196.674 221.988 277.433 196.481 
223.008 277 196.451 224.146 276.815 196.094 224.59 276.717 195.793 
224.31 276.95 196.05 221.991 277.629 196.613 223.81 277.627 196.032 
223.438 277.656 196.227 221.34 278.178 196.108 221.577 278.076 196.167 
221.999 277.88 196.397 221.935 278.091 196.145 222.409 277.801 196.486 
222.253 277.366 196.851 222.105 277.45 196.771 222.513 277.266 196.75 
222.515 277.416 196.812 223.51 277.187 196.394 223.963 276.997 196.234 
222.139 277.543 196.815 222.221 277.665 196.685 222.316 277.511 196.846 
222.205 277.453 196.888 222.338 277.4 196.884 222.071 277.376 258.958 
222.679 277.223 258.825 223.508 277.213 258.886 222.088 277.504 258.848 
221.982 277.517 258.945 222.002 277.576 258.895 223.018 277.483 258.841 
223.682 277.322 258.952 223.381 276.338 259.664 225.034 276.492 259.745 
222.198 277.036 259.287 222.063 277.238 259.181 224.447 276.886 259.315 
221.978 277.472 259.251 223.227 277.578 258.961 224.013 277.346 259.155 
222.126 277.795 259.42 222.591 276.586 259.644 223.498 276.028 260.144 
224.581 276.026 260.062 226.027 276.528 260.281 225.616 276.744 260.001 
226.32 276.608 260.483 221.881 277.558 259.9 221.747 277.829 260.348 
221.794 278.047 260.322 222.086 278.073 259.856 222.393 278.102 259.735 
222.752 278.149 259.774 222.602 278.264 260.053 222.53 276.364 260.563 
224.437 275.75 260.437 226.883 276.112 261.005 227.273 275.945 261.421 
226.336 276.74 260.568 221.88 278.163 260.555 222.148 278.267 260.486 
222.927 278.316 260.403 225.884 275.257 261.279 225.704 274.872 261.845 
226.633 275.323 261.408 227.983 274.767 262.349 224.577 275.42 261.034 
226.815 276.581 261.101 221.836 277.492 261.222 226.372 277.094 261.469 
221.762 277.814 261.132 221.718 277.961 260.915 223.657 278.192 260.849 
221.829 278.091 260.893 228.87 274.351 262.885 229.513 274.154 263.187 
229.949 274.187 263.416 225.133 274.776 262.25 226.349 274.45 262.487 
[...]
POINT_DATA 704
COLOR_SCALARS scalars 3
1 0.364706 0.313725 1 0.364706 0.313725 1 0.364706 0.313725 
1 0.364706 0.313725 1 0.364706 0.313725 
1 0.364706 0.313725 1 0.364706 0.313725 
1 0.364706 0.313725 1 0.364706 0.313725 
1 0.364706 0.313725 1 0.364706 0.313725 
1 0.364706 0.313725 1 0.364706 0.313725 
1 0.364706 0.313725 1 0.364706 0.313725 
1 0.364706 0.313725 1 0.364706 0.313725 
1 0.364706 0.313725 1 0.364706 0.313725 
1 0.364706 0.313725 1 0.364706 0.313725 
1 0.364706 0.313725 1 0.364706 0.313725 
1 0.364706 0.313725 1 0.364706 0.313725 
1 0.364706 0.313725 1 0.364706 0.313725 
1 0.364706 0.313725 1 0.364706 0.313725 
1 0.364706 0.313725 1 0.364706 0.313725 
1 0.364706 0.313725 1 0.364706 0.313725 
1 0.364706 0.313725 1 0.364706 0.313725 
1 0.364706 0.313725 1 0.364706 0.313725 
1 0.364706 0.313725 1 0.364706 0.313725 
1 0.364706 0.313725 1 0.364706 0.313725 
1 0.364706 0.313725 1 0.364706 0.313725 
1 0.364706 0.313725 1 0.364706 0.313725 
1 0.364706 0.313725 1 0.364706 0.313725 
1 0.364706 0.313725 1 0.364706 0.313725 
1 0.364706 0.313725 1 0.364706 0.313725 
1 0.364706 0.313725 1 0.364706 0.313725 
1 0.364706 0.313725 1 0.364706 0.313725 
1 0.364706 0.313725 1 0.364706 0.313725 
1 0.364706 0.313725 1 0.364706 0.313725 
1 0.364706 0.313725 1 0.364706 0.313725 
1 0.364706 0.313725 1 0.364706 0.313725 
1 0.364706 0.313725 1 0.364706 0.313725 
1 0.364706 0.313725 1 0.364706 0.313725 
1 0.364706 0.313725 1 0.364706 0.313725 
1 0.364706 0.313725 1 0.364706 0.313725 
1 0.364706 0.313725 1 0.364706 0.313725 
1 0.364706 0.313725 1 0.364706 0.313725 
1 0.364706 0.313725 1 0.364706 0.313725 
1 0.364706 0.313725 1 0.364706 0.313725 
1 0.364706 0.313725 1 0.364706 0.313725 
1 0.364706 0.313725 1 0.364706 0.313725 
1 0.364706 0.313725 1 0.364706 0.313725 
1 0.364706 0.313725 1 0.364706 0.313725 
1 0.364706 0.313725 1 0.364706 0.313725 
1 0.364706 0.313725 1 0.364706 0.313725 
1 0.364706 0.313725 1 0.364706 0.313725 
1 0.364706 0.313725 1 0.364706 0.313725 
1 0.364706 0.313725 1 0.364706 0.313725 
1 0.364706 0.313725 1 0.364706 0.313725 
1 0.364706 0.313725 1 0.364706 0.313725 
1 0.364706 0.313725 1 0.364706 0.313725 
1 0.364706 0.313725 1 0.364706 0.313725 
1 0.364706 0.313725 1 0.364706 0.313725 
1 0.364706 0.313725 1 0.364706 0.313725 
1 0.364706 0.313725 1 0.364706 0.313725 
1 0.364706 0.313725 1 0.364706 0.313725 
1 0.364706 0.313725 1 0.364706 0.313725 
1 0.364706 0.313725 1 0.364706 0.313725 
1 0.364706 0.313725 1 0.364706 0.313725 
1 0.364706 0.313725 1 0.364706 0.313725 
1 0.364706 0.313725 1 0.364706 0.313725 
1 0.364706 0.313725 1 0.364706 0.313725 
1 0.364706 0.313725 1 0.364706 0.313725 
1 0.364706 0.313725 1 0.364706 0.313725 
1 0.364706 0.313725 1 0.364706 0.313725 
1 0.364706 0.313725 1 0.364706 0.313725 
1 0.364706 0.313725 1 0.364706 0.313725 
1 0.364706 0.313725 1 0.364706 0.313725 
1 0.364706 0.313725 1 0.364706 0.313725 
1 0.364706 0.313725 1 0.364706 0.313725 
1 0.364706 0.313725 1 0.364706 0.313725 
1 0.364706 0.313725 1 0.364706 0.313725 
1 0.364706 0.313725 1 0.364706 0.313725 
1 0.364706 0.313725 1 0.364706 0.313725 
1 0.364706 0.313725 1 0.364706 0.313725 
1 0.364706 0.313725 1 0.364706 0.313725 
1 0.364706 0.313725 1 0.364706 0.313725 
1 0.364706 0.313725 1 0.364706 0.313725 
1 0.364706 0.313725 1 0.364706 0.313725 
1 0.364706 0.313725 1 0.364706 0.313725 
1 0.364706 0.313725 1 0.364706 0.313725 
1 0.364706 0.313725 1 0.364706 0.313725 
1 0.364706 0.313725 1 0.364706 0.313725 
1 0.364706 0.313725 1 0.364706 0.313725 
1 0.364706 0.313725 1 0.364706 0.313725 
1 0.364706 0.313725 1 0.364706 0.313725 
1 0.364706 0.313725 1 0.364706 0.313725 
1 0.364706 0.313725 1 0.364706 0.313725 
1 0.364706 0.313725 1 0.364706 0.313725 
1 0.364706 0.313725 1 0.364706 0.313725 
1 0.364706 0.313725 1 0.364706 0.313725 
1 0.364706 0.313725 1 0.364706 0.313725 
1 0.364706 0.313725 1 0.364706 0.313725 
1 0.364706 0.313725 1 0.364706 0.313725 
1 0.364706 0.313725 1 0.364706 0.313725 
1 0.364706 0.313725 1 0.364706 0.313725 
1 0.364706 0.313725 1 0.364706 0.313725 
1 0.364706 0.313725 1 0.364706 0.313725 
1 0.364706 0.313725 1 0.364706 0.313725 
1 0.364706 0.313725 1 0.364706 0.313725 
1 0.364706 0.313725 1 0.364706 0.313725 
1 0.364706 0.313725 1 0.364706 0.313725 
1 0.364706 0.313725 1 0.364706 0.313725 
1 0.364706 0.313725 1 0.364706 0.313725 
1 0.364706 0.313725 1 0.364706 0.313725 
1 0.364706 0.313725 1 0.364706 0.313725 
1 0.364706 0.313725 1 0.364706 0.313725 
1 0.364706 0.313725 1 0.364706 0.313725 
1 0.364706 0.313725 1 0.364706 0.313725 
1 0.364706 0.313725 1 0.364706 0.313725 
1 0.364706 0.313725 1 0.364706 0.313725 
1 0.364706 0.313725 1 0.364706 0.313725 
1 0.364706 0.313725 1 0.364706 0.313725 
1 0.364706 0.313725 1 0.364706 0.313725 
1 0.364706 0.313725 1 0.364706 0.313725 
1 0.364706 0.313725 1 0.364706 0.313725 
1 0.364706 0.313725 1 0.364706 0.313725 
1 0.364706 0.313725 1 0.364706 0.313725 
1 0.364706 0.313725 1 0.364706 0.313725 
1 0.364706 0.313725 1 0.364706 0.313725 
1 0.364706 0.313725 1 0.364706 0.313725 
1 0.364706 0.313725 1 0.364706 0.313725 
1 0.364706 0.313725 1 0.364706 0.313725 
1 0.364706 0.313725 1 0.364706 0.313725 
1 0.364706 0.313725 1 0.364706 0.313725 
1 0.364706 0.313725 1 0.364706 0.313725 
1 0.364706 0.313725 1 0.364706 0.313725 
1 0.364706 0.313725 1 0.364706 0.313725 
1 0.364706 0.313725 1 0.364706 0.313725 
1 0.364706 0.313725 1 0.364706 0.313725 
1 0.364706 0.313725 1 0.364706 0.313725 
1 0.364706 0.313725 1 0.364706 0.313725 
1 0.364706 0.313725 1 0.364706 0.313725 
1 0.364706 0.313725 1 0.364706 0.313725 
1 0.364706 0.313725 1 0.364706 0.313725 
1 0.364706 0.313725 1 0.364706 0.313725 
1 0.364706 0.313725 1 0.364706 0.313725 
1 0.364706 0.313725 1 0.364706 0.313725 
1 0.364706 0.313725 1 0.364706 0.313725 
1 0.364706 0.313725 1 0.364706 0.313725 
1 0.364706 0.313725 1 0.364706 0.313725 
1 0.364706 0.313725 1 0.364706 0.313725 
1 0.364706 0.313725 1 0.364706 0.313725 
1 0.364706 0.313725 1 0.364706 0.313725 
1 0.364706 0.313725 1 0.364706 0.313725 
1 0.364706 0.313725 1 0.364706 0.313725 
1 0.364706 0.313725 1 0.364706 0.313725 
1 0.364706 0.313725 1 0.364706 0.313725 
1 0.364706 0.313725 1 0.364706 0.313725 
1 0.364706 0.313725 1 0.364706 0.313725 
1 0.364706 0.313725 1 0.364706 0.313725 
1 0.364706 0.313725 1 0.364706 0.313725 
1 0.364706 0.313725 1 0.364706 0.313725 
1 0.364706 0.313725 1 0.364706 0.313725 
1 0.364706 0.313725 1 0.364706 0.313725 
1 0.364706 0.313725 1 0.364706 0.313725 
1 0.364706 0.313725 1 0.364706 0.313725 
1 0.364706 0.313725 1 0.364706 0.313725 
1 0.364706 0.313725 1 0.364706 0.313725 
1 0.364706 0.313725 1 0.364706 0.313725 
1 0.364706 0.313725 1 0.364706 0.313725 
1 0.364706 0.313725 1 0.364706 0.313725 
1 0.364706 0.313725 1 0.364706 0.313725 
1 0.364706 0.313725 1 0.364706 0.313725 
1 0.364706 0.313725 1 0.364706 0.313725 
1 0.364706 0.313725 1 0.364706 0.313725 
1 0.364706 0.313725 1 0.364706 0.313725 
1 0.364706 0.313725 1 0.364706 0.313725 
1 0.364706 0.313725 1 0.364706 0.313725 
1 0.364706 0.313725 1 0.364706 0.313725 
1 0.364706 0.313725 1 0.364706 0.313725 
1 0.364706 0.313725 1 0.364706 0.313725 
1 0.364706 0.313725 1 0.364706 0.313725 
1 0.364706 0.313725 1 0.364706 0.313725 
1 0.364706 0.313725 1 0.364706 0.313725 
1 0.364706 0.313725 1 0.364706 0.313725 
1 0.364706 0.313725 1 0.364706 0.313725 
1 0.364706 0.313725 1 0.364706 0.313725 
1 0.364706 0.313725 1 0.364706 0.313725 
1 0.364706 0.313725 1 0.364706 0.313725 
1 0.364706 0.313725 1 0.364706 0.313725 
1 0.364706 0.313725 1 0.364706 0.313725 
1 0.364706 0.313725 1 0.364706 0.313725 
1 0.364706 0.313725 1 0.364706 0.313725 
1 0.364706 0.313725 1 0.364706 0.313725 
1 0.364706 0.313725 1 0.364706 0.313725 
1 0.364706 0.313725 1 0.364706 0.313725 
1 0.364706 0.313725 1 0.364706 0.313725 
1 0.364706 0.313725 1 0.364706 0.313725 
1 0.364706 0.313725 1 0.364706 0.313725 
1 0.364706 0.313725 1 0.364706 0.313725 
1 0.364706 0.313725 1 0.364706 0.313725 
1 0.364706 0.313725 1 0.364706 0.313725 
1 0.364706 0.313725 1 0.364706 0.313725 
1 0.364706 0.313725 1 0.364706 0.313725 
1 0.364706 0.313725 1 0.364706 0.313725 
1 0.364706 0.313725 1 0.364706 0.313725 
1 0.364706 0.313725 1 0.364706 0.313725 
1 0.364706 0.313725 1 0.364706 0.313725 
1 0.364706 0.313725 1 0.364706 0.313725 
1 0.364706 0.313725 1 0.364706 0.313725 
1 0.364706 0.313725 1 0.364706 0.313725 
1 0.364706 0.313725 1 0.364706 0.313725 
1 0.364706 0.313725 1 0.364706 0.313725 
1 0.364706 0.313725 1 0.364706 0.313725 
1 0.364706 0.313725 1 0.364706 0.313725 
1 0.364706 0.313725 1 0.364706 0.313725 
1 0.364706 0.313725 1 0.364706 0.313725 
1 0.364706 0.313725 1 0.364706 0.313725 
1 0.364706 0.313725 1 0.364706 0.313725 
1 0.364706 0.313725 1 0.364706 0.313725 
1 0.364706 0.313725 1 0.364706 0.313725 
1 0.364706 0.313725 1 0.364706 0.313725 
1 0.364706 0.313725 1 0.364706 0.313725 
1 0.364706 0.313725 1 0.364706 0.313725 
1 0.364706 0.313725 1 0.364706 0.313725 
1 0.364706 0.313725 1 0.364706 0.313725 
1 0.364706 0.313725 1 0.364706 0.313725 
1 0.364706 0.313725 1 0.364706 0.313725 
1 0.364706 0.313725 1 0.364706 0.313725 
1 0.364706 0.313725 1 0.364706 0.313725 
1 0.364706 0.313725 1 0.364706 0.313725 
1 0.364706 0.313725 1 0.364706 0.313725 
1 0.364706 0.313725 1 0.364706 0.313725 
1 0.364706 0.313725 1 0.364706 0.313725 
1 0.364706 0.313725 1 0.364706 0.313725 
1 0.364706 0.313725 1 0.364706 0.313725 
1 0.364706 0.313725 1 0.364706 0.313725 
1 0.364706 0.313725 1 0.364706 0.313725 
1 0.364706 0.313725 1 0.364706 0.313725 
1 0.364706 0.313725 1 0.364706 0.313725 
1 0.364706 0.313725 1 0.364706 0.313725 
1 0.364706 0.313725 1 0.364706 0.313725 
1 0.364706 0.313725 1 0.364706 0.313725 
1 0.364706 0.313725 1 0.364706 0.313725 
1 0.364706 0.313725 1 0.364706 0.313725 
1 0.364706 0.313725 1 0.364706 0.313725 
1 0.364706 0.313725 1 0.364706 0.313725 
1 0.364706 0.313725 1 0.364706 0.313725 
1 0.364706 0.313725 1 0.364706 0.313725 
1 0.364706 0.313725 1 0.364706 0.313725 
1 0.364706 0.313725 1 0.364706 0.313725 
1 0.364706 0.313725 1 0.364706 0.313725 
1 0.364706 0.313725 1 0.364706 0.313725 
1 0.364706 0.313725 1 0.364706 0.313725 
1 0.364706 0.313725 1 0.364706 0.313725 
1 0.364706 0.313725 1 0.364706 0.313725 
1 0.364706 0.313725 1 0.364706 0.313725 
1 0.364706 0.313725 1 0.364706 0.313725 
1 0.364706 0.313725 1 0.364706 0.313725 
1 0.364706 0.313725 1 0.364706 0.313725 
1 0.364706 0.313725 1 0.364706 0.313725 
1 0.364706 0.313725 1 0.364706 0.313725 
1 0.364706 0.313725 1 0.364706 0.313725 
1 0.364706 0.313725 1 0.364706 0.313725 
1 0.364706 0.313725 1 0.364706 0.313725 
1 0.364706 0.313725 1 0.364706 0.313725 
1 0.364706 0.313725 1 0.364706 0.313725 
1 0.364706 0.313725 1 0.364706 0.313725 
1 0.364706 0.313725 1 0.364706 0.313725 
1 0.364706 0.313725 1 0.364706 0.313725 
1 0.364706 0.313725 1 0.364706 0.313725 
1 0.364706 0.313725 1 0.364706 0.313725 
1 0.364706 0.313725 1 0.364706 0.313725 
1 0.364706 0.313725 1 0.364706 0.313725 
1 0.364706 0.313725 1 0.364706 0.313725 
1 0.364706 0.313725 1 0.364706 0.313725 
1 0.364706 0.313725 1 0.364706 0.313725 
1 0.364706 0.313725 1 0.364706 0.313725 
1 0.364706 0.313725 1 0.364706 0.313725 
1 0.364706 0.313725 1 0.364706 0.313725 
1 0.364706 0.313725 1 0.364706 0.313725 
1 0.364706 0.313725 1 0.364706 0.313725 
1 0.364706 0.313725 1 0.364706 0.313725 
1 0.364706 0.313725 1 0.364706 0.313725 
1 0.364706 0.313725 1 0.364706 0.313725 
1 0.364706 0.313725 1 0.364706 0.313725 
1 0.364706 0.313725 1 0.364706 0.313725 
1 0.364706 0.313725 1 0.364706 0.313725 
1 0.364706 0.313725 1 0.364706 0.313725 
1 0.364706 0.313725 1 0.364706 0.313725 
1 0.364706 0.313725 1 0.364706 0.313725 
1 0.364706 0.313725 1 0.364706 0.313725 
1 0.364706 0.313725 1 0.364706 0.313725 
1 0.364706 0.313725 1 0.364706 0.313725 
1 0.364706 0.313725 1 0.364706 0.313725 
1 0.364706 0.313725 1 0.364706 0.313725 
1 0.364706 0.313725 1 0.364706 0.313725 
1 0.364706 0.313725 1 0.364706 0.313725 
1 0.364706 0.313725 1 0.364706 0.313725 
1 0.364706 0.313725 1 0.364706 0.313725 
1 0.364706 0.313725 1 0.364706 0.313725 
1 0.364706 0.313725 1 0.364706 0.313725 
1 0.364706 0.313725 1 0.364706 0.313725 
1 0.364706 0.313725 1 0.364706 0.313725 
1 0.364706 0.313725 1 0.364706 0.313725 
1 0.364706 0.313725 1 0.364706 0.313725 
1 0.364706 0.313725 1 0.364706 0.313725 
1 0.364706 0.313725 1 0.364706 0.313725 
1 0.364706 0.313725 1 0.364706 0.313725 
1 0.364706 0.313725 1 0.364706 0.313725 
1 0.364706 0.313725 1 0.364706 0.313725 
1 0.364706 0.313725 1 0.364706 0.313725 
1 0.364706 0.313725 1 0.364706 0.313725 
1 0.364706 0.313725 1 0.364706 0.313725 
1 0.364706 0.313725 1 0.364706 0.313725 
1 0.364706 0.313725 1 0.364706 0.313725 
1 0.364706 0.313725 1 0.364706 0.313725 
1 0.364706 0.313725 1 0.364706 0.313725 
1 0.364706 0.313725 1 0.364706 0.313725 
1 0.364706 0.313725 1 0.364706 0.313725 
1 0.364706 0.313725 1 0.364706 0.313725 
1 0.364706 0.313725 1 0.364706 0.313725 
1 0.364706 0.313725 1 0.364706 0.313725 
1 0.364706 0.313725 1 0.364706 0.313725 
1 0.364706 0.313725 1 0.364706 0.313725 
1 0.364706 0.313725 1 0.364706 0.313725 
1 0.364706 0.313725 1 0.364706 0.313725 
1 0.364706 0.313725 1 0.364706 0.313725 
1 0.364706 0.313725 1 0.364706 0.313725 
1 0.364706 0.313725 1 0.364706 0.313725 
1 0.364706 0.313725 1 0.364706 0.313725 
1 0.364706 0.313725 1 0.364706 0.313725 
1 0.364706 0.313725 1 0.364706 0.313725 
1 0.364706 0.313725 1 0.364706 0.313725 
1 0.364706 0.313725 1 0.364706 0.313725 
1 0.364706 0.313725 1 0.364706 0.313725 
1 0.364706 0.313725 1 0.364706 0.313725 
1 0.364706 0.313725 1 0.364706 0.313725 
1 0.364706 0.313725 1 0.364706 0.313725 
1 0.364706 0.313725 1 0.364706 0.313725 
1 0.364706 0.313725 1 0.364706 0.313725 
1 0.364706 0.313725 1 0.364706 0.313725 
1 0.364706 0.313725 1 0.364706 0.313725 
1 0.364706 0.313725 1 0.364706 0.313725 
1 0.364706 0.313725 1 0.364706 0.313725 
1 0.364706 0.313725 1 0.364706 0.313725 
1 0.364706 0.313725 1 0.364706 0.313725 
1 0.364706 0.313725 1 0.364706 0.313725 
1 0.364706 0.313725 1 0.364706 0.313725 
1 0.364706 0.313725 1 0.364706 0.313725 
1 0.364706 0.313725 1 0.364706 0.313725 
1 0.364706 0.313725 1 0.364706 0.313725 
1 0.364706 0.313725 1 0.364706 0.313725 
1 0.364706 0.313725 1 0.364706 0.313725 
1 0.364706 0.313725 1 0.364706 0.313725 
1 0.364706 0.313725 1 0.364706 0.313725 
1 0.364706 0.313725 1 0.364706 0.313725 
1 0.364706 0.313725 1 0.364706 0.313725 
1 0.364706 0.313725 1 0.364706 0.313725 
1 0.364706 0.313725 1 0.364706 0.313725 
1 0.364706 0.313725 
NORMALS Normals float
0.123137 -0.123301 -0.9847 0.0768963 -0.328134 -0.941496 0.470519 -0.271587 -0.839555 
0.300458 -0.083265 -0.950154 0.802427 -0.07663 -0.59181 -0.0871223 0.182873 -0.979269 
0.0447777 0.0935708 -0.994605 0.551726 -0.0823964 -0.829945 0.374561 0.335602 -0.864335 
0.8254 0.331586 -0.456909 -0.459294 0.315386 -0.83041 -0.184794 0.364676 -0.912613 
0.787949 0.557651 -0.261078 -0.223766 0.775748 -0.590038 0.358938 0.63223 -0.686622 
0.623476 0.650476 -0.433772 0.252702 0.854668 -0.453524 0.175391 -0.368415 -0.912967 
-0.222672 -0.263422 -0.93863 0.684694 -0.248526 -0.685149 0.532841 -0.303763 -0.789815 
0.983584 0.139324 -0.114681 0.974403 0.0558396 -0.217761 0.945976 0.303228 0.114814 
-0.450311 0.58429 -0.675148 -0.337434 0.881041 -0.331519 0.0488627 0.997381 0.0533215 
0.693463 0.717608 -0.0644033 0.0799705 0.980392 -0.1801 0.439016 0.881785 0.172394 
-0.236106 -0.493419 -0.837133 0.110533 -0.461386 -0.880287 0.290807 -0.53997 -0.78985 
0.697431 -0.339236 -0.631276 0.888322 -0.15394 -0.432651 0.994754 -0.0367942 -0.0954518 
-0.534634 -0.133662 -0.834446 0.98359 0.139994 0.113811 -0.448731 0.362076 -0.817032 
0.78503 0.532244 0.316928 0.0436983 0.998488 -0.0333462 0.15845 0.969624 0.186341 
-0.105106 -0.550752 -0.828025 -0.497312 -0.571217 -0.652987 0.285207 -0.552123 -0.783465 
0.882542 -0.357706 -0.305231 0.975226 -0.21404 0.0558568 0.996121 -0.0712904 0.051572 
0.993941 -0.0348999 -0.104229 -0.585961 -0.349591 -0.731051 0.848524 0.263639 0.458804 
0.79275 0.463646 0.395702 -0.629345 0.100743 -0.770568 -0.353055 0.548954 -0.757629 
0.233839 0.918585 -0.318622 -0.00011704 0.827607 -0.561307 0.0278103 -0.577421 -0.815973 
-0.378809 -0.818997 -0.430984 0.599579 -0.532608 -0.597356 0.509864 -0.790442 -0.33947 
0.912483 -0.26857 0.308618 -0.225844 -0.602888 -0.765193 -0.712075 -0.60816 -0.350843 
0.954836 -0.196033 0.223291 0.916719 -0.176932 0.358219 0.957079 0.00365543 0.289805 
-0.60012 0.122616 -0.790456 0.531618 0.727324 0.43403 -0.477313 0.496599 -0.724956 
-0.376581 0.654414 -0.65569 -0.341694 0.624353 -0.702445 0.324938 0.933175 -0.153621 
-0.094125 0.903795 -0.417487 0.134035 0.949924 -0.282276 -0.461426 -0.87326 0.156534 
0.29495 -0.864967 0.406 -0.039502 -0.716229 0.696746 -0.626644 -0.779087 0.0184496 
0.608438 -0.388027 0.69227 -0.157144 -0.844074 0.512683 -0.575572 -0.810374 -0.109596 
0.828154 -0.0506203 0.55821 -0.616466 -0.615557 -0.490977 0.622089 0.778818 0.0802986 
-0.0202549 0.804594 -0.59348 0.680291 -0.218614 0.69958 0.0147842 -0.776953 0.629385 
0.213594 -0.671944 0.709132 0.576664 -0.305504 0.757711 -0.244314 -0.888782 0.387785 
-0.571851 -0.801873 -0.173164 -0.532017 -0.845315 -0.0489965 -0.645935 -0.714548 -0.268679 
-0.76433 -0.26722 -0.58685 0.744817 0.547453 0.3815 -0.670289 0.11092 -0.733764 
0.414385 0.909566 0.0312099 -0.364192 0.798698 -0.479005 -0.278528 0.621045 -0.732615 
-0.242662 0.928192 -0.282091 0.380632 0.828427 -0.410886 0.409568 0.885008 -0.221393 
0.158192 0.91547 -0.369986 0.415909 -0.469955 0.778564 0.440529 -0.477994 0.759906 
0.520692 -0.333026 0.786113 -0.308357 -0.912378 0.269225 0.726494 -0.187996 0.660957 
-0.574204 0.334922 -0.747072 -0.449141 0.533727 -0.716525 -0.347518 0.636375 -0.688664 
0.383443 0.919101 -0.090687 0.236726 0.971572 0.00291756 -0.285237 0.737863 -0.611718 
0.198987 -0.683533 0.702273 0.174586 -0.711567 0.680582 -0.0287001 -0.985582 0.166748 
-0.367292 -0.929429 0.0354658 0.886589 0.176452 0.42758 -0.879229 -0.324929 -0.348393 
-0.356634 0.756389 -0.548351 0.188945 0.915774 -0.354482 0.254324 -0.862155 0.438187 
-0.410467 -0.908441 -0.0790716 0.468537 -0.694476 0.546055 -0.774532 -0.597947 -0.206299 
0.856293 0.477717 0.19634 -0.690285 0.294523 -0.660881 -0.616702 0.380574 -0.689088 
0.544218 0.831011 -0.115097 0.434036 0.886618 -0.159753 0.134896 0.966748 -0.21726 
0.0234282 -0.907783 0.418786 0.349624 -0.764101 0.542137 -0.140607 -0.989937 0.015976 
0.0689791 -0.928888 0.363881 -0.760287 -0.073148 -0.645456 0.680554 0.727542 0.0867647 
-0.761721 0.207848 -0.613662 0.515345 0.856613 -0.025164 -0.430446 0.74494 -0.509687 
-0.0781421 -0.954331 0.288351 0.707152 -0.473647 0.524971 0.924768 0.269414 0.268736 
-0.798675 -0.47442 -0.370196 0.333308 0.941254 -0.0542749 -0.66982 0.511676 -0.538078 
0.236428 -0.8338 0.498878 -0.293301 -0.915657 0.274858 0.93268 -0.0302375 0.359435 
-0.582552 -0.81241 -0.0249861 0.761094 0.597619 0.252164 -0.799058 0.155592 -0.580773 
0.135361 0.953407 -0.269617 0.480161 -0.598809 0.640994 -0.384108 -0.885238 0.262325 
0.803117 -0.137956 0.57963 -0.278824 0.815629 -0.506958 -0.183803 -0.84302 0.505503 
-0.11767 -0.880375 0.459448 0.797213 0.0399544 0.602375 -0.463768 -0.869519 0.169872 
0.868173 0.122195 0.480983 0.558868 0.8292 -0.00963654 -0.262937 0.903211 -0.339224 
0.150917 -0.777592 0.610389 -0.266885 -0.88422 0.383311 -0.0330071 -0.906975 0.419888 
-0.108829 -0.878397 0.465376 0.225238 -0.758747 0.611205 0.639726 -0.349672 0.684456 
0.602627 -0.366159 0.709061 0.908131 0.123539 0.400045 -0.666574 -0.722124 -0.184979 
0.188655 0.967199 -0.170106 0.0701513 0.991737 -0.107404 0.0447444 -0.843273 0.535619 
0.17871 -0.794428 0.580472 0.795404 -0.214615 0.566809 0.843857 0.0704729 0.53192 
0.900339 0.36402 0.238492 0.792406 0.609222 0.0306671 -0.872661 0.0821265 -0.481372 
0.521527 0.852187 0.0422843 -0.561685 0.632105 -0.53381 -0.0210403 -0.844407 0.535289 
-0.0654349 -0.77217 0.632038 0.450531 -0.519615 0.725963 -0.948233 -0.212338 -0.236148 