# vtk DataFile Version 4.2
vtk output
ASCII
DATASET POLYDATA
POINTS 1022 float
404.295 263.507 160.931 403.295 264.322 160.688 406.289 263.852 161.128 
407.557 265.24 161.074 407.202 269.397 160.961 400.306 270.44 160.96 
404.388 270.202 160.777 397.29 260.379 161.443 391.794 261.362 161.827 
405.243 262.011 161.559 408.374 272.617 161.823 400.36 257.448 162.632 
388.096 260.38 162.973 412.535 262.194 164.133 386.947 264.475 163.425 
413.506 264.037 163.732 413.99 264.502 163.894 414.177 269.596 163.259 
390.933 270.774 162.954 411.973 271.34 162.387 414.554 272.164 163.863 
388.306 255.048 164.33 388.956 254.85 164.116 390.102 256.165 163.332 
386.785 257.329 164.48 406.644 258.364 163.933 386.055 260.852 164.205 
413.061 262.333 164.501 385.277 263.776 164.56 414.427 264.093 164.727 
386.784 267.599 164.017 415.187 266.196 164.583 415.778 270.089 165.026 
393.736 275.287 164.188 413.143 275.364 164.21 389.147 251.646 165.108 
390.482 252.389 164.466 387.378 254.105 165.456 404.114 255.1 164.729 
386.924 255.67 165.109 407.232 257.099 165.324 407.353 256.667 165.844 
385.536 258.935 165.318 384.382 262.93 165.499 385.905 269.117 165.202 
386.918 271.307 165.422 416.17 272.453 165.68 395.765 243.992 165.936 
392.131 246.034 165.671 390.198 247.676 165.786 388.889 248.826 166.142 
388.803 250.129 165.784 387.264 253.407 166.102 386.724 254.828 165.787 
386.679 254.566 166.093 410.422 259.384 165.772 415.486 265.456 165.799 
416.391 275.065 166.494 415.059 276.542 165.887 415.876 276.013 166.329 
415.701 276.561 166.516 398.387 279.803 165.984 405.493 280.483 165.948 
393.8 241.779 167.672 397.127 241.541 167.636 392.102 242.484 167.337 
393.971 242.449 166.793 397.563 241.706 167.486 397.808 242.179 167.112 
401.66 242.404 167.779 391.075 243.46 167.111 390.903 243.443 167.391 
390.687 243.798 167.25 391.482 243.403 166.854 403.193 243.146 167.735 
390.357 244.379 167.301 404.221 243.981 167.729 404.343 244.204 167.696 
404.435 244.427 167.801 389.688 245.828 166.885 389.534 245.868 167.254 
389.296 246.275 167.084 404.319 245.025 167.511 404.486 244.907 167.759 
389.061 246.696 167.097 388.912 247.092 166.969 403.92 245.834 167.112 
388.587 248.836 166.498 388.339 249.322 166.773 404.875 249.966 167.486 
387.023 253.452 166.605 386.79 253.915 166.772 405.89 253.469 167.019 
406.821 255.249 166.783 408.211 256.894 166.808 409.481 258.022 167.482 
383.408 264.235 166.419 383.639 266.727 166.44 416.852 270.616 167.222 
417.148 275.012 167.672 416.82 276.821 168.068 393.146 241.922 167.596 
392.783 242.053 167.703 394.44 241.648 168.023 397.059 241.453 167.984 
398.141 241.538 167.968 397.705 241.446 168.064 391.521 242.753 167.595 
391.767 242.632 167.712 401.908 242.42 167.944 401.826 242.374 168.2 
402.408 242.672 168.035 403.416 243.213 167.854 390.458 244.23 167.623 
403.735 243.481 167.89 404.339 244.115 167.813 404.337 244.237 167.976 
390.52 244.453 167.862 404.455 244.72 168.007 389.246 246.46 167.392 
388.955 247.678 167.747 388.539 248.6 167.415 388.564 249.01 167.662 
387.787 251.598 167.361 387.548 252.374 167.509 386.903 253.869 167.474 
407.065 255.154 168.23 385.634 256.738 167.514 384.494 258.533 167.517 
379.322 266.608 168.45 379.421 268.121 168.426 416.99 270.443 167.884 
409.763 281.476 167.873 392.899 242.452 168.387 395.576 241.879 168.821 
398.398 241.693 168.6 399.714 241.84 168.422 401.66 242.344 168.417 
402.907 242.964 168.234 403.33 243.284 168.308 391.676 243.948 168.473 
404.125 244.01 168.133 403.917 244.043 168.386 391.713 246.04 169.043 
404.306 245.821 168.568 403.969 246.188 168.954 404.522 245.719 168.22 
389.449 248.543 168.432 391.801 248.443 169.485 389.128 250.148 168.59 
389.625 249.712 168.81 387.621 252.719 167.971 405.266 251.358 168.369 
387.785 253.256 168.538 388.482 252.754 168.962 382.332 256.911 169.457 
383.01 256.636 169.567 386.613 255.654 168.996 407.343 255.634 168.643 
381.724 257.566 169.264 383.203 259.264 168.025 382.513 264.951 167.071 
383.697 271.502 167.666 417.628 276.122 169.638 413.083 279.817 168.13 
416.185 278.321 169.201 397.48 242.095 169.203 400.663 242.185 168.808 
401.041 242.487 169.012 401.724 242.752 168.922 401.931 243.228 169.191 
403.155 244.211 169.041 402.27 246.165 169.858 404.643 251.513 169.384 
390.639 253.066 170.202 388.106 254.138 169.369 380.559 255.448 170.538 
387.448 254.919 169.328 388.991 254.723 170.291 387.3 255.507 169.843 
388.049 255.587 170.581 379.754 256.969 170.241 384.392 256.933 169.349 
386.28 256.147 169.816 407.412 256.304 169.703 410.302 259.222 170.183 
378.299 262.285 169.829 416.879 278.084 170.144 417.223 277.718 170.524 
399.866 242.334 169.188 398.302 243.062 169.792 401.353 243.289 169.435 
398.245 244.48 170.198 395.163 249.795 170.507 396.131 250.447 170.738 
401.733 249.599 170.394 395.856 252.047 171.038 379.871 253.452 171.948 
380.615 253.688 171.644 381.74 253.846 171.57 395.616 252.81 171.23 
383.13 254.519 171.387 379.009 255.258 171.411 384.881 255.7 170.88 
404.173 254.865 171.276 385.834 255.993 170.723 388.953 255.585 170.91 
387.347 256.022 171.197 388.386 256.349 171.791 407.411 256.967 170.68 
385.425 256.662 169.407 388.888 256.428 171.78 389.393 256.382 171.723 
410.331 259.593 171.044 375.716 266.989 171.817 376.045 270.373 171.634 
382.603 276.699 170.341 381.997 277.64 171.181 383.907 278.788 171.133 
396.693 284.093 171.682 379.134 252.872 172.714 378.537 253.335 172.791 
378.27 254.16 172.572 401.523 254.611 171.978 385.848 255.456 172.204 
378.306 256.543 171.563 387.313 256.026 172.319 388.653 256.591 172.289 
389.116 256.772 172.343 391.9 257.321 172.615 390.476 257.52 172.882 
390 261 172 390 261 172 390 261 172 
390 261 172 390 261 172 376.832 273.581 171.963 
380.143 277.673 172.216 386.29 281.003 171.98 410.081 283.564 172.156 
378.864 251.99 173.784 379.991 252.038 173.54 378.764 252.57 173.23 
378.255 252.459 173.63 377.539 253.81 173.704 396.181 255.942 172.929 
390.774 257.827 173.148 391.77 258.055 173.065 391.369 258.207 173.336 
391.886 258.643 173.323 391.847 258.814 173.454 392.155 258.762 173.501 
390 261 172 391.909 259.061 173.356 391.927 259.114 173.39 
391.964 259.049 173.364 391.924 259.238 173.34 391.939 259.246 173.349 
391.932 259.223 173.335 391.932 259.286 173.33 417.986 276.668 173.082 
378.218 251.9 174.242 377.965 252.009 174.433 380.557 251.89 174.075 
378.068 252.233 174.025 381.144 252.169 174.078 377.165 253.997 174.339 
391.074 258.113 173.578 392.637 258.661 173.834 393.252 258.617 174.098 
391.986 258.935 173.513 392.044 258.688 173.878 392.887 258.916 174.366 
391.982 259.101 173.399 391.946 259.229 173.344 375.095 265.152 173.969 
375.182 273.319 175.105 418.14 275.28 173.748 376.195 275.607 174.361 
377.769 277.589 174.078 379.593 279.141 174.074 417.088 279.296 173.803 
378.66 251.044 175.367 378.332 251.132 175.395 379.016 251.002 175.414 
379.159 250.909 175.733 378.096 251.408 175.209 377.788 251.922 174.994 
391.196 258.155 174.176 395.125 258.399 174.929 392.509 258.922 174.775 
393.263 259.466 174.975 393.136 259.557 175.307 393.703 259.615 175.137 
394.21 259.267 175.261 393.51 260.368 175.513 393.573 260.057 175.293 
393.831 260.153 175.494 393.578 260.491 175.436 415.264 265.493 174.896 
377.181 277.813 175.163 404.698 285.151 174.603 378.056 251.12 176.134 
378.341 250.814 176.486 379.466 250.931 176.335 379.98 251.22 176.057 
391.868 258.402 175.003 393.87 258.741 176.802 397.512 258.342 175.821 
400.453 258.504 175.856 393.447 259.606 175.733 393.949 259.286 176.13 
395.151 259.019 176.222 393.824 259.901 175.741 394.366 259.389 175.879 
393.625 260.968 175.548 393.642 260.79 175.59 393.724 260.563 175.607 
393.69 260.901 175.536 393.727 260.991 175.586 393.691 261.494 175.619 
393.698 261.622 175.643 393.712 261.497 175.626 393.719 261.91 175.677 
393.722 261.913 175.68 393.721 261.885 175.673 393.732 262.094 175.702 
393.733 262.089 175.702 393.731 262.087 175.7 393.736 262.151 175.709 
418.061 277.039 175.744 382.149 281.805 176.02 378.379 250.675 176.772 
378.299 250.654 176.855 378.246 250.733 176.779 378.378 250.69 176.919 
378.037 251.047 176.834 378.69 250.766 176.802 394.925 258.987 176.729 
396.043 258.942 177.139 393.709 261.512 175.637 393.724 261.887 175.676 
413.36 264.226 176.459 393.732 262.08 175.7 378.056 279.684 177.251 
378.245 250.749 176.926 377.956 251.272 177.587 378.333 250.884 177.214 
379.103 251.03 177.736 379.698 251.232 177.688 386.655 254.92 177.808 
418.086 276.64 177.168 415.15 282.65 178.127 377.991 251.379 178.129 
378.372 251.108 177.886 378.629 251.217 178.298 377.026 252.392 178.211 
377.133 252.335 178.673 382.697 253.414 179.35 391.869 257.199 179.32 
397.361 259.424 178.981 406.258 262.65 178.829 375.922 277.327 179.465 
383.03 283.078 179.516 377.443 252.284 179.185 377.996 251.758 178.874 
378.66 251.521 178.829 379.639 251.623 178.977 380.993 252.76 179.872 
386.793 255.127 179.912 379.047 251.822 179.366 377.862 252.403 179.832 
378.369 252.34 180.023 386.151 255.112 180.902 375.402 256.758 180.447 
391.248 256.967 180.527 374.8 260.28 180.549 412.755 266.656 180.509 
417.91 279.514 181.147 378.431 280.288 180.886 417.055 281.376 181.226 
414.814 283.458 181.062 410.253 285.115 180.524 377.629 252.899 180.3 
376.737 254.175 180.783 380.514 253.92 181.703 416.936 272.688 181.982 
390.478 285.34 182.227 384.211 255.1 182.264 375.713 256.982 181.908 
396.427 259.651 182.773 377.703 278.923 183.491 416.056 282.793 182.743 
376.654 256.192 182.807 376.961 256.255 183.14 377.377 256.047 183.261 
376.098 257.358 182.871 375.795 258.948 183.261 394.43 258.859 183.405 
374.888 269.485 183.429 375.825 274.568 183.979 378.022 256.075 183.566 
385.779 256.114 183.78 377.625 257.963 184.774 375.366 266.029 184.839 
384.429 257.396 185.957 382.97 258.023 186.5 387.692 258.202 186.741 
377.644 261.769 186.856 376.134 264.706 186.054 418.224 278.865 186.93 
379.615 279.512 186.21 379.742 260.203 187.304 378.562 261.185 187.267 
[...]
POINT_DATA 1022
COLOR_SCALARS scalars 3
1 0.682353 0.435294 1 0.682353 0.435294 1 0.682353 0.435294 
1 0.682353 0.435294 1 0.682353 0.435294 
1 0.682353 0.435294 1 0.682353 0.435294 
1 0.682353 0.435294 1 0.682353 0.435294 
1 0.682353 0.435294 1 0.682353 0.435294 
1 0.682353 0.435294 1 0.682353 0.435294 
1 0.682353 0.435294 1 0.682353 0.435294 
1 0.682353 0.435294 1 0.682353 0.435294 
1 0.682353 0.435294 1 0.682353 0.435294 
1 0.682353 0.435294 1 0.682353 0.435294 
1 0.682353 0.435294 1 0.682353 0.435294 
1 0.682353 0.435294 1 0.682353 0.435294 
1 0.682353 0.435294 1 0.682353 0.435294 
1 0.682353 0.435294 1 0.682353 0.435294 
1 0.682353 0.435294 1 0.682353 0.435294 
1 0.682353 0.435294 1 0.682353 0.435294 
1 0.682353 0.435294 1 0.682353 0.435294 
1 0.682353 0.435294 1 0.682353 0.435294 
1 0.682353 0.435294 1 0.682353 0.435294 
1 0.682353 0.435294 1 0.682353 0.435294 
1 0.682353 0.435294 1 0.682353 0.435294 
1 0.682353 0.435294 1 0.682353 0.435294 
1 0.682353 0.435294 1 0.682353 0.435294 
1 0.682353 0.435294 1 0.682353 0.435294 
1 0.682353 0.435294 1 0.682353 0.435294 
1 0.682353 0.435294 1 0.682353 0.435294 
1 0.682353 0.435294 1 0.682353 0.435294 
1 0.682353 0.435294 1 0.682353 0.435294 
1 0.682353 0.435294 1 0.682353 0.435294 
1 0.682353 0.435294 1 0.682353 0.435294 
1 0.682353 0.435294 1 0.682353 0.435294 
1 0.682353 0.435294 1 0.682353 0.435294 
1 0.682353 0.435294 1 0.682353 0.435294 
1 0.682353 0.435294 1 0.682353 0.435294 
1 0.682353 0.435294 1 0.682353 0.435294 
1 0.682353 0.435294 1 0.682353 0.435294 
1 0.682353 0.435294 1 0.682353 0.435294 
1 0.682353 0.435294 1 0.682353 0.435294 
1 0.682353 0.435294 1 0.682353 0.435294 
1 0.682353 0.435294 1 0.682353 0.435294 
1 0.682353 0.435294 1 0.682353 0.435294 
1 0.682353 0.435294 1 0.682353 0.435294 
1 0.682353 0.435294 1 0.682353 0.435294 
1 0.682353 0.435294 1 0.682353 0.435294 
1 0.682353 0.435294 1 0.682353 0.435294 
1 0.682353 0.435294 1 0.682353 0.435294 
1 0.682353 0.435294 1 0.682353 0.435294 
1 0.682353 0.435294 1 0.682353 0.435294 
1 0.682353 0.435294 1 0.682353 0.435294 
1 0.682353 0.435294 1 0.682353 0.435294 
1 0.682353 0.435294 1 0.682353 0.435294 
1 0.682353 0.435294 1 0.682353 0.435294 
1 0.682353 0.435294 1 0.682353 0.435294 
1 0.682353 0.435294 1 0.682353 0.435294 
1 0.682353 0.435294 1 0.682353 0.435294 
1 0.682353 0.435294 1 0.682353 0.435294 
1 0.682353 0.435294 1 0.682353 0.435294 
1 0.682353 0.435294 1 0.682353 0.435294 
1 0.682353 0.435294 1 0.682353 0.435294 
1 0.682353 0.435294 1 0.682353 0.435294 
1 0.682353 0.435294 1 0.682353 0.435294 
1 0.682353 0.435294 1 0.682353 0.435294 
1 0.682353 0.435294 1 0.682353 0.435294 
1 0.682353 0.435294 1 0.682353 0.435294 
1 0.682353 0.435294 1 0.682353 0.435294 
1 0.682353 0.435294 1 0.682353 0.435294 
1 0.682353 0.435294 1 0.682353 0.435294 
1 0.682353 0.435294 1 0.682353 0.435294 
1 0.682353 0.435294 1 0.682353 0.435294 
1 0.682353 0.435294 1 0.682353 0.435294 
1 0.682353 0.435294 1 0.682353 0.435294 
1 0.682353 0.435294 1 0.682353 0.435294 
1 0.682353 0.435294 1 0.682353 0.435294 
1 0.682353 0.435294 1 0.682353 0.435294 
1 0.682353 0.435294 1 0.682353 0.435294 
1 0.682353 0.435294 1 0.682353 0.435294 
1 0.682353 0.435294 1 0.682353 0.435294 
1 0.682353 0.435294 1 0.682353 0.435294 
1 0.682353 0.435294 1 0.682353 0.435294 
1 0.682353 0.435294 1 0.682353 0.435294 
1 0.682353 0.435294 1 0.682353 0.435294 
1 0.682353 0.435294 1 0.682353 0.435294 
1 0.682353 0.435294 1 0.682353 0.435294 
1 0.682353 0.435294 1 0.682353 0.435294 
1 0.682353 0.435294 1 0.682353 0.435294 
1 0.682353 0.435294 1 0.682353 0.435294 
1 0.682353 0.435294 1 0.682353 0.435294 
1 0.682353 0.435294 1 0.682353 0.435294 
1 0.682353 0.435294 1 0.682353 0.435294 
1 0.682353 0.435294 1 0.682353 0.435294 
1 0.682353 0.435294 1 0.682353 0.435294 
1 0.682353 0.435294 1 0.682353 0.435294 
1 0.682353 0.435294 1 0.682353 0.435294 
1 0.682353 0.435294 1 0.682353 0.435294 
1 0.682353 0.435294 1 0.682353 0.435294 
1 0.682353 0.435294 1 0.682353 0.435294 
1 0.682353 0.435294 1 0.682353 0.435294 
1 0.682353 0.435294 1 0.682353 0.435294 
1 0.682353 0.435294 1 0.682353 0.435294 
1 0.682353 0.435294 1 0.682353 0.435294 
1 0.682353 0.435294 1 0.682353 0.435294 
1 0.682353 0.435294 1 0.682353 0.435294 
1 0.682353 0.435294 1 0.682353 0.435294 
1 0.682353 0.435294 1 0.682353 0.435294 
1 0.682353 0.435294 1 0.682353 0.435294 
1 0.682353 0.435294 1 0.682353 0.435294 
1 0.682353 0.435294 1 0.682353 0.435294 
1 0.682353 0.435294 1 0.682353 0.435294 
1 0.682353 0.435294 1 0.682353 0.435294 
1 0.682353 0.435294 1 0.682353 0.435294 
1 0.682353 0.435294 1 0.682353 0.435294 
1 0.682353 0.435294 1 0.682353 0.435294 
1 0.682353 0.435294 1 0.682353 0.435294 
1 0.682353 0.435294 1 0.682353 0.435294 
1 0.682353 0.435294 1 0.682353 0.435294 
1 0.682353 0.435294 1 0.682353 0.435294 
1 0.682353 0.435294 1 0.682353 0.435294 
1 0.682353 0.435294 1 0.682353 0.435294 
1 0.682353 0.435294 1 0.682353 0.435294 
1 0.682353 0.435294 1 0.682353 0.435294 
1 0.682353 0.435294 1 0.682353 0.435294 
1 0.682353 0.435294 1 0.682353 0.435294 
1 0.682353 0.435294 1 0.682353 0.435294 
1 0.682353 0.435294 1 0.682353 0.435294 
1 0.682353 0.435294 1 0.682353 0.435294 
1 0.682353 0.435294 1 0.682353 0.435294 
1 0.682353 0.435294 1 0.682353 0.435294 
1 0.682353 0.435294 1 0.682353 0.435294 
1 0.682353 0.435294 1 0.682353 0.435294 
1 0.682353 0.435294 1 0.682353 0.435294 
1 0.682353 0.435294 1 0.682353 0.435294 
1 0.682353 0.435294 1 0.682353 0.435294 
1 0.682353 0.435294 1 0.682353 0.435294 
1 0.682353 0.435294 1 0.682353 0.435294 
1 0.682353 0.435294 1 0.682353 0.435294 
1 0.682353 0.435294 1 0.682353 0.435294 
1 0.682353 0.435294 1 0.682353 0.435294 
1 0.682353 0.435294 1 0.682353 0.435294 
1 0.682353 0.435294 1 0.682353 0.435294 
1 0.682353 0.435294 1 0.682353 0.435294 
1 0.682353 0.435294 1 0.682353 0.435294 
1 0.682353 0.435294 1 0.682353 0.435294 
1 0.682353 0.435294 1 0.682353 0.435294 
1 0.682353 0.435294 1 0.682353 0.435294 
1 0.682353 0.435294 1 0.682353 0.435294 
1 0.682353 0.435294 1 0.682353 0.435294 
1 0.682353 0.435294 1 0.682353 0.435294 
1 0.682353 0.435294 1 0.682353 0.435294 
1 0.682353 0.435294 1 0.682353 0.435294 
1 0.682353 0.435294 1 0.682353 0.435294 
1 0.682353 0.435294 1 0.682353 0.435294 
1 0.682353 0.435294 1 0.682353 0.435294 
1 0.682353 0.435294 1 0.682353 0.435294 
1 0.682353 0.435294 1 0.682353 0.435294 
1 0.682353 0.435294 1 0.682353 0.435294 
1 0.682353 0.435294 1 0.682353 0.435294 
1 0.682353 0.435294 1 0.682353 0.435294 
1 0.682353 0.435294 1 0.682353 0.435294 
1 0.682353 0.435294 1 0.682353 0.435294 
1 0.682353 0.435294 1 0.682353 0.435294 
1 0.682353 0.435294 1 0.682353 0.435294 
1 0.682353 0.435294 1 0.682353 0.435294 
1 0.682353 0.435294 1 0.682353 0.435294 
1 0.682353 0.435294 1 0.682353 0.435294 
1 0.682353 0.435294 1 0.682353 0.435294 
1 0.682353 0.435294 1 0.682353 0.435294 
1 0.682353 0.435294 1 0.682353 0.435294 
1 0.682353 0.435294 1 0.682353 0.435294 
1 0.682353 0.435294 1 0.682353 0.435294 
1 0.682353 0.435294 1 0.682353 0.435294 
1 0.682353 0.435294 1 0.682353 0.435294 
1 0.682353 0.435294 1 0.682353 0.435294 
1 0.682353 0.435294 1 0.682353 0.435294 
1 0.682353 0.435294 1 0.682353 0.435294 
1 0.682353 0.435294 1 0.682353 0.435294 
1 0.682353 0.435294 1 0.682353 0.435294 
1 0.682353 0.435294 1 0.682353 0.435294 
1 0.682353 0.435294 1 0.682353 0.435294 
1 0.682353 0.435294 1 0.682353 0.435294 
1 0.682353 0.435294 1 0.682353 0.435294 
1 0.682353 0.435294 1 0.682353 0.435294 
1 0.682353 0.435294 1 0.682353 0.435294 
1 0.682353 0.435294 1 0.682353 0.435294 
1 0.682353 0.435294 1 0.682353 0.435294 
1 0.682353 0.435294 1 0.682353 0.435294 
1 0.682353 0.435294 1 0.682353 0.435294 
1 0.682353 0.435294 1 0.682353 0.435294 
1 0.682353 0.435294 1 0.682353 0.435294 
1 0.682353 0.435294 1 0.682353 0.435294 
1 0.682353 0.435294 1 0.682353 0.435294 
1 0.682353 0.435294 1 0.682353 0.435294 
1 0.682353 0.435294 1 0.682353 0.435294 
1 0.682353 0.435294 1 0.682353 0.435294 
1 0.682353 0.435294 1 0.682353 0.435294 
1 0.682353 0.435294 1 0.682353 0.435294 
1 0.682353 0.435294 1 0.682353 0.435294 
1 0.682353 0.435294 1 0.682353 0.435294 
1 0.682353 0.435294 1 0.682353 0.435294 
1 0.682353 0.435294 1 0.682353 0.435294 
1 0.682353 0.435294 1 0.682353 0.435294 
1 0.682353 0.435294 1 0.682353 0.435294 
1 0.682353 0.435294 1 0.682353 0.435294 
1 0.682353 0.435294 1 0.682353 0.435294 
1 0.682353 0.435294 1 0.682353 0.435294 
1 0.682353 0.435294 1 0.682353 0.435294 
1 0.682353 0.435294 1 0.682353 0.435294 
1 0.682353 0.435294 1 0.682353 0.435294 
1 0.682353 0.435294 1 0.682353 0.435294 
1 0.682353 0.435294 1 0.682353 0.435294 
1 0.682353 0.435294 1 0.682353 0.435294 
1 0.682353 0.435294 1 0.682353 0.435294 
1 0.682353 0.435294 1 0.682353 0.435294 
1 0.682353 0.435294 1 0.682353 0.435294 
1 0.682353 0.435294 1 0.682353 0.435294 
1 0.682353 0.435294 1 0.682353 0.435294 
1 0.682353 0.435294 1 0.682353 0.435294 
1 0.682353 0.435294 1 0.682353 0.435294 
1 0.682353 0.435294 1 0.682353 0.435294 
1 0.682353 0.435294 1 0.682353 0.435294 
1 0.682353 0.435294 1 0.682353 0.435294 
1 0.682353 0.435294 1 0.682353 0.435294 
1 0.682353 0.435294 1 0.682353 0.435294 
1 0.682353 0.435294 1 0.682353 0.435294 
1 0.682353 0.435294 1 0.682353 0.435294 
1 0.682353 0.435294 1 0.682353 0.435294 
1 0.682353 0.435294 1 0.682353 0.435294 
1 0.682353 0.435294 1 0.682353 0.435294 
1 0.682353 0.435294 1 0.682353 0.435294 
1 0.682353 0.435294 1 0.682353 0.435294 
1 0.682353 0.435294 1 0.682353 0.435294 
1 0.682353 0.435294 1 0.682353 0.435294 
1 0.682353 0.435294 1 0.682353 0.435294 
1 0.682353 0.435294 1 0.682353 0.435294 
1 0.682353 0.435294 1 0.682353 0.435294 
1 0.682353 0.435294 1 0.682353 0.435294 
1 0.682353 0.435294 1 0.682353 0.435294 
1 0.682353 0.435294 1 0.682353 0.435294 
1 0.682353 0.435294 1 0.682353 0.435294 
1 0.682353 0.435294 1 0.682353 0.435294 
1 0.682353 0.435294 1 0.682353 0.435294 
1 0.682353 0.435294 1 0.682353 0.435294 
1 0.682353 0.435294 1 0.682353 0.435294 
1 0.682353 0.435294 1 0.682353 0.435294 
1 0.682353 0.435294 1 0.682353 0.435294 
1 0.682353 0.435294 1 0.682353 0.435294 
1 0.682353 0.435294 1 0.682353 0.435294 
1 0.682353 0.435294 1 0.682353 0.435294 
1 0.682353 0.435294 1 0.682353 0.435294 
1 0.682353 0.435294 1 0.682353 0.435294 
1 0.682353 0.435294 1 0.682353 0.435294 
1 0.682353 0.435294 1 0.682353 0.435294 
1 0.682353 0.435294 1 0.682353 0.435294 
1 0.682353 0.435294 1 0.682353 0.435294 
1 0.682353 0.435294 1 0.682353 0.435294 
1 0.682353 0.435294 1 0.682353 0.435294 
1 0.682353 0.435294 1 0.682353 0.435294 
1 0.682353 0.435294 1 0.682353 0.435294 
1 0.682353 0.435294 1 0.682353 0.435294 
1 0.682353 0.435294 1 0.682353 0.435294 
1 0.682353 0.435294 1 0.682353 0.435294 
1 0.682353 0.435294 1 0.682353 0.435294 
1 0.682353 0.435294 1 0.682353 0.435294 
1 0.682353 0.435294 1 0.682353 0.435294 
1 0.682353 0.435294 1 0.682353 0.435294 
1 0.682353 0.435294 1 0.682353 0.435294 
1 0.682353 0.435294 1 0.682353 0.435294 
1 0.682353 0.435294 1 0.682353 0.435294 
1 0.682353 0.435294 1 0.682353 0.435294 
1 0.682353 0.435294 1 0.682353 0.435294 
1 0.682353 0.435294 1 0.682353 0.435294 
1 0.682353 0.435294 1 0.682353 0.435294 
1 0.682353 0.435294 1 0.682353 0.435294 
1 0.682353 0.435294 1 0.682353 0.435294 
1 0.682353 0.435294 1 0.682353 0.435294 
1 0.682353 0.435294 1 0.682353 0.435294 
1 0.682353 0.435294 1 0.682353 0.435294 
1 0.682353 0.435294 1 0.682353 0.435294 
1 0.682353 0.435294 1 0.682353 0.435294 
1 0.682353 0.435294 1 0.682353 0.435294 
1 0.682353 0.435294 1 0.682353 0.435294 
1 0.682353 0.435294 1 0.682353 0.435294 
1 0.682353 0.435294 1 0.682353 0.435294 
1 0.682353 0.435294 1 0.682353 0.435294 
1 0.682353 0.435294 1 0.682353 0.435294 
1 0.682353 0.435294 1 0.682353 0.435294 
1 0.682353 0.435294 1 0.682353 0.435294 
1 0.682353 0.435294 1 0.682353 0.435294 
1 0.682353 0.435294 1 0.682353 0.435294 
1 0.682353 0.435294 1 0.682353 0.435294 
1 0.682353 0.435294 1 0.682353 0.435294 
1 0.682353 0.435294 1 0.682353 0.435294 
1 0.682353 0.435294 1 0.682353 0.435294 
1 0.682353 0.435294 1 0.682353 0.435294 
1 0.682353 0.435294 1 0.682353 0.435294 
1 0.682353 0.435294 1 0.682353 0.435294 
1 0.682353 0.435294 1 0.682353 0.435294 
1 0.682353 0.435294 1 0.682353 0.435294 
1 0.682353 0.435294 1 0.682353 0.435294 
1 0.682353 0.435294 1 0.682353 0.435294 
1 0.682353 0.435294 1 0.682353 0.435294 
1 0.682353 0.435294 1 0.682353 0.435294 
1 0.682353 0.435294 1 0.682353 0.435294 
1 0.682353 0.435294 1 0.682353 0.435294 
1 0.682353 0.435294 1 0.682353 0.435294 
1 0.682353 0.435294 1 0.682353 0.435294 
1 0.682353 0.435294 1 0.682353 0.435294 
1 0.682353 0.435294 1 0.682353 0.435294 
1 0.682353 0.435294 1 0.682353 0.435294 
1 0.682353 0.435294 1 0.682353 0.435294 
1 0.682353 0.435294 1 0.682353 0.435294 
1 0.682353 0.435294 1 0.682353 0.435294 
1 0.682353 0.435294 1 0.682353 0.435294 
1 0.682353 0.435294 1 0.682353 0.435294 
1 0.682353 0.435294 1 0.682353 0.435294 
1 0.682353 0.435294 1 0.682353 0.435294 
1 0.682353 0.435294 1 0.682353 0.435294 
1 0.682353 0.435294 1 0.682353 0.435294 
1 0.682353 0.435294 1 0.682353 0.435294 
1 0.682353 0.435294 1 0.682353 0.435294 
1 0.682353 0.435294 1 0.682353 0.435294 
1 0.682353 0.435294 1 0.682353 0.435294 
1 0.682353 0.435294 1 0.682353 0.435294 
1 0.682353 0.435294 1 0.682353 0.435294 
1 0.682353 0.435294 1 0.682353 0.435294 
1 0.682353 0.435294 1 0.682353 0.435294 
1 0.682353 0.435294 1 0.682353 0.435294 
1 0.682353 0.435294 1 0.682353 0.435294 
1 0.682353 0.435294 1 0.682353 0.435294 
1 0.682353 0.435294 1 0.682353 0.435294 
1 0.682353 0.435294 1 0.682353 0.435294 
1 0.682353 0.435294 1 0.682353 0.435294 
1 0.682353 0.435294 1 0.682353 0.435294 
1 0.682353 0.435294 1 0.682353 0.435294 
1 0.682353 0.435294 1 0.682353 0.435294 
1 0.682353 0.435294 1 0.682353 0.435294 
1 0.682353 0.435294 1 0.682353 0.435294 
1 0.682353 0.435294 1 0.682353 0.435294 
1 0.682353 0.435294 1 0.682353 0.435294 
1 0.682353 0.435294 1 0.682353 0.435294 
1 0.682353 0.435294 1 0.682353 0.435294 
1 0.682353 0.435294 1 0.682353 0.435294 
1 0.682353 0.435294 1 0.682353 0.435294 
1 0.682353 0.435294 1 0.682353 0.435294 
1 0.682353 0.435294 1 0.682353 0.435294 
1 0.682353 0.435294 1 0.682353 0.435294 
1 0.682353 0.435294 1 0.682353 0.435294 
1 0.682353 0.435294 1 0.682353 0.435294 
1 0.682353 0.435294 1 0.682353 0.435294 
1 0.682353 0.435294 1 0.682353 0.435294 
1 0.682353 0.435294 1 0.682353 0.435294 
1 0.682353 0.435294 1 0.682353 0.435294 
1 0.682353 0.435294 1 0.682353 0.435294 
1 0.682353 0.435294 1 0.682353 0.435294 
1 0.682353 0.435294 1 0.682353 0.435294 
1 0.682353 0.435294 1 0.682353 0.435294 
1 0.682353 0.435294 1 0.682353 0.435294 
1 0.682353 0.435294 1 0.682353 0.435294 
1 0.682353 0.435294 1 0.682353 0.435294 
1 0.682353 0.435294 1 0.682353 0.435294 
1 0.682353 0.435294 1 0.682353 0.435294 
1 0.682353 0.435294 1 0.682353 0.435294 
1 0.682353 0.435294 1 0.682353 0.435294 
1 0.682353 0.435294 1 0.682353 0.435294 
1 0.682353 0.435294 1 0.682353 0.435294 
1 0.682353 0.435294 1 0.682353 0.435294 
1 0.682353 0.435294 1 0.682353 0.435294 
1 0.682353 0.435294 1 0.682353 0.435294 
1 0.682353 0.435294 1 0.682353 0.435294 
1 0.682353 0.435294 1 0.682353 0.435294 
1 0.682353 0.435294 1 0.682353 0.435294 
1 0.682353 0.435294 1 0.682353 0.435294 
1 0.682353 0.435294 1 0.682353 0.435294 
1 0.682353 0.435294 1 0.682353 0.435294 
1 0.682353 0.435294 1 0.682353 0.435294 
1 0.682353 0.435294 1 0.682353 0.435294 
1 0.682353 0.435294 1 0.682353 0.435294 
1 0.682353 0.435294 1 0.682353 0.435294 
1 0.682353 0.435294 1 0.682353 0.435294 
1 0.682353 0.435294 1 0.682353 0.435294 
1 0.682353 0.435294 1 0.682353 0.435294 
1 0.682353 0.435294 1 0.682353 0.435294 
1 0.682353 0.435294 1 0.682353 0.435294 
1 0.682353 0.435294 1 0.682353 0.435294 
1 0.682353 0.435294 1 0.682353 0.435294 
1 0.682353 0.435294 1 0.682353 0.435294 
1 0.682353 0.435294 1 0.682353 0.435294 
1 0.682353 0.435294 1 0.682353 0.435294 
1 0.682353 0.435294 1 0.682353 0.435294 
1 0.682353 0.435294 1 0.682353 0.435294 
1 0.682353 0.435294 1 0.682353 0.435294 
1 0.682353 0.435294 1 0.682353 0.435294 
1 0.682353 0.435294 1 0.682353 0.435294 
1 0.682353 0.435294 1 0.682353 0.435294 
1 0.682353 0.435294 1 0.682353 0.435294 
1 0.682353 0.435294 1 0.682353 0.435294 
1 0.682353 0.435294 1 0.682353 0.435294 
1 0.682353 0.435294 1 0.682353 0.435294 
1 0.682353 0.435294 1 0.682353 0.435294 
1 0.682353 0.435294 1 0.682353 0.435294 
1 0.682353 0.435294 1 0.682353 0.435294 
1 0.682353 0.435294 1 0.682353 0.435294 
1 0.682353 0.435294 1 0.682353 0.435294 
1 0.682353 0.435294 1 0.682353 0.435294 
1 0.682353 0.435294 1 0.682353 0.435294 
1 0.682353 0.435294 1 0.682353 0.435294 
1 0.682353 0.435294 1 0.682353 0.435294 
1 0.682353 0.435294 1 0.682353 0.435294 
1 0.682353 0.435294 1 0.682353 0.435294 
1 0.682353 0.435294 1 0.682353 0.435294 
1 0.682353 0.435294 1 0.682353 0.435294 
1 0.682353 0.435294 1 0.682353 0.435294 
1 0.682353 0.435294 1 0.682353 0.435294 
1 0.682353 0.435294 1 0.682353 0.435294 
1 0.682353 0.435294 1 0.682353 0.435294 
1 0.682353 0.435294 1 0.682353 0.435294 
1 0.682353 0.435294 1 0.682353 0.435294 
1 0.682353 0.435294 1 0.682353 0.435294 
1 0.682353 0.435294 1 0.682353 0.435294 
1 0.682353 0.435294 1 0.682353 0.435294 
1 0.682353 0.435294 1 0.682353 0.435294 
1 0.682353 0.435294 1 0.682353 0.435294 
1 0.682353 0.435294 1 0.682353 0.435294 
1 0.682353 0.435294 1 0.682353 0.435294 
1 0.682353 0.435294 1 0.682353 0.435294 
1 0.682353 0.435294 1 0.682353 0.435294 
1 0.682353 0.435294 1 0.682353 0.435294 
1 0.682353 0.435294 1 0.682353 0.435294 
1 0.682353 0.435294 1 0.682353 0.435294 
1 0.682353 0.435294 1 0.682353 0.435294 
1 0.682353 0.435294 1 0.682353 0.435294 
1 0.682353 0.435294 1 0.682353 0.435294 
1 0.682353 0.435294 1 0.682353 0.435294 
1 0.682353 0.435294 1 0.682353 0.435294 
1 0.682353 0.435294 1 0.682353 0.435294 
1 0.682353 0.435294 1 0.682353 0.435294 
1 0.682353 0.435294 1 0.682353 0.435294 
1 0.682353 0.435294 1 0.682353 0.435294 
1 0.682353 0.435294 1 0.682353 0.435294 
1 0.682353 0.435294 1 0.682353 0.435294 
1 0.682353 0.435294 1 0.682353 0.435294 
1 0.682353 0.435294 1 0.682353 0.435294 
1 0.682353 0.435294 1 0.682353 0.435294 
1 0.682353 0.435294 1 0.682353 0.435294 
1 0.682353 0.435294 1 0.682353 0.435294 
1 0.682353 0.435294 1 0.682353 0.435294 
1 0.682353 0.435294 1 0.682353 0.435294 
1 0.682353 0.435294 1 0.682353 0.435294 
1 0.682353 0.435294 1 0.682353 0.435294 
1 0.682353 0.435294 1 0.682353 0.435294 
1 0.682353 0.435294 1 0.682353 0.435294 
1 0.682353 0.435294 1 0.682353 0.435294 
1 0.682353 0.435294 1 0.682353 0.435294 
1 0.682353 0.435294 1 0.682353 0.435294 
1 0.682353 0.435294 1 0.682353 0.435294 
1 0.682353 0.435294 1 0.682353 0.435294 
1 0.682353 0.435294 1 0.682353 0.435294 
1 0.682353 0.435294 1 0.682353 0.435294 
1 0.682353 0.435294 1 0.682353 0.435294 
1 0.682353 0.435294 1 0.682353 0.435294 
1 0.682353 0.435294 1 0.682353 0.435294 
1 0.682353 0.435294 1 0.682353 0.435294 
1 0.682353 0.435294 1 0.682353 0.435294 
1 0.682353 0.435294 1 0.682353 0.435294 
1 0.682353 0.435294 1 0.682353 0.435294 
1 0.682353 0.435294 1 0.682353 0.435294 
1 0.682353 0.435294 1 0.682353 0.435294 
1 0.682353 0.435294 1 0.682353 0.435294 
1 0.682353 0.435294 1 0.682353 0.435294 
1 0.682353 0.435294 1 0.682353 0.435294 
1 0.682353 0.435294 1 0.682353 0.435294 
1 0.682353 0.435294 1 0.682353 0.435294 
1 0.682353 0.435294 1 0.682353 0.435294 
1 0.682353 0.435294 1 0.682353 0.435294 
1 0.682353 0.435294 1 0.682353 0.435294 
1 0.682353 0.435294 1 0.682353 0.435294 
1 0.682353 0.435294 1 0.682353 0.435294 
1 0.682353 0.435294 1 0.682353 0.435294 
1 0.682353 0.435294 1 0.682353 0.435294 
1 0.682353 0.435294 1 0.682353 0.435294 
1 0.682353 0.435294 1 0.682353 0.435294 
1 0.682353 0.435294 1 0.682353 0.435294 
1 0.682353 0.435294 1 0.682353 0.435294 
1 0.682353 0.435294 1 0.682353 0.435294 
1 0.682353 0.435294 1 0.682353 0.435294 
1 0.682353 0.435294 1 0.682353 0.435294 
1 0.682353 0.435294 1 0.682353 0.435294 