# vtk DataFile Version 4.2
vtk output
ASCII
DATASET POLYDATA
POINTS 518 float
387.429 256.98 177.25 386.939 257 177.335 388.877 257.111 177.258 
388.357 256.68 177.551 387.843 257.486 177.007 388.7 257.598 176.975 
389.506 257.066 177.462 387.777 257.943 176.914 392.667 258.326 177.514 
390.189 259.113 176.582 392.078 259.21 176.802 393.751 259.59 177.157 
390.302 259.717 176.507 392.761 259.881 176.736 394.059 260.54 176.954 
393.214 261.07 176.658 385.372 256.519 178.378 386.273 256.261 178.054 
386.946 256.027 178.177 389.284 256.723 177.782 389.277 256.516 178.248 
385.544 257.375 177.837 386.763 257.445 177.309 393.29 258.318 178.035 
388.119 259.111 176.91 394.821 259.931 177.63 388.461 261.819 177.379 
394.651 267.678 177.684 385.706 255.864 178.991 386.806 255.841 178.589 
389.182 256.308 178.92 390.63 256.949 178.446 393.761 258.309 178.915 
395.326 259.623 178.319 391.661 265.863 177.655 392.049 267.654 178.287 
393.045 267.764 177.972 396.349 271.095 178.69 384.705 256.099 179.901 
384.536 256.609 179.296 384.398 256.962 179.296 389.772 256.445 179.419 
384.983 258.105 178.448 384.639 257.875 178.889 399.993 262.794 180.034 
385.958 262.616 179.515 399.096 263.813 178.778 399.597 263.598 179.186 
398.574 265.341 178.26 400.357 264.831 179.177 397.415 268.308 177.959 
396.457 272.972 179.967 398.906 273.237 179.629 400.62 273.147 179.566 
384.956 255.856 180.376 385.426 255.678 180.132 384.125 256.82 180.206 
393.354 257.948 179.963 400.943 264.027 179.93 402.559 265.284 180.321 
402.883 271.012 179.47 405.242 274.878 180.615 384.257 256.406 180.776 
384.425 256.224 181.088 400.055 262.047 181.428 385.247 263.206 180.682 
403.232 264.293 181.954 408.012 268.622 181.424 407.979 269.169 181.125 
408.928 271.968 180.719 409.759 272.821 180.848 411.151 272.497 181.097 
395.419 273.713 181.13 406.48 273.823 180.487 409.59 273.664 180.904 
409.156 275.314 181.309 410.205 275.229 181.419 413.335 274.738 181.879 
384.89 255.978 181.633 385.244 255.806 181.399 383.773 257.72 181.542 
395.559 259.151 181.792 383.539 259.79 182.468 403.672 264.328 182.978 
408.374 267.494 182.962 410.742 268.679 182.995 411.923 269.214 183.114 
412.733 269.647 183.086 413.062 270.027 182.859 413.146 270.514 182.558 
413.741 271.967 182.266 414.434 271.302 182.832 414.568 271.921 182.725 
414.832 271.523 183.035 413.285 273.612 181.795 403.688 276.795 182.044 
408.175 277.224 182.459 384.844 256.099 181.96 384.03 257.064 182.167 
387.577 256.082 182.347 390.211 256.893 182.444 383.627 258.483 182.647 
403.525 264.215 183.544 411.589 268.829 183.403 411.297 268.618 183.585 
414.755 270.364 183.986 414.951 270.632 183.881 415.1 271.413 183.378 
416.069 272.951 183.608 416.709 274.578 184.056 415.962 275.448 183.489 
404.6 278.048 183.558 414.924 276.853 183.757 384.985 256.617 183.222 
383.6 258.739 183.498 383.435 259.457 183.704 399.94 262.019 183.982 
383.779 263.125 183.719 403.568 264.346 184.172 384.893 265.822 183.776 
411.131 268.431 184.086 413.213 269.312 184.309 414.142 269.798 184.171 
414.986 270.523 184.177 417.142 274.289 184.958 415.891 276.389 184.064 
416.792 275.613 184.685 402.014 277.948 184.111 384.809 256.964 183.645 
383.442 259.655 184.435 383.352 260.351 184.632 383.455 262.491 185.234 
384.415 265.875 185.373 412.98 269.109 184.871 417.118 273.517 185.269 
399.693 278.077 185.737 415.836 277.389 185.126 413.111 278.533 185.044 
414.066 278.275 185.085 384.104 258.793 185.517 396.488 260.893 186.185 
383.836 264.332 185.563 388.118 271.689 185.628 417.375 275.898 186.633 
416.598 277.11 185.942 410.248 279.535 186.236 412.201 279.352 186.258 
383.682 259.864 185.728 383.99 265.207 186.816 385.664 268.911 186.281 
386.141 269.691 186.434 416.327 271.898 186.593 417.234 273.396 186.413 
389.597 273.586 186.761 393.104 275.955 187.287 417.551 275.534 187.283 
417.212 277.004 187.523 411.167 279.716 186.892 384.898 258.794 186.483 
384.051 260.966 187.196 383.848 263.787 187.553 383.817 264.546 187.007 
384.181 265.531 187.585 384.833 267.631 187.586 414.365 270.206 187.532 
415.702 271.399 187.973 386.778 270.877 187.898 403.965 279.766 188.685 
414.302 279.571 187.967 388.939 259.338 187.92 384.325 264.87 188.29 
384.663 266.636 188.382 386.399 270.271 188.796 397.184 277.822 189.061 
415.923 279.157 188.78 416.39 278.924 189.006 416.728 278.577 189.07 
385.791 261.202 188.955 392.678 261.295 189.458 384.77 265.381 188.918 
385.206 264.954 189.451 386.401 270.081 189.276 392.137 275.446 189.676 
417.554 276.876 189.771 417.222 277.999 190.032 404.569 279.882 190.259 
410.914 280.179 189.975 388.01 261.496 189.85 386.563 262.598 189.972 
388.776 262.359 190.517 392.844 262.55 190.689 385.802 263.559 189.791 
395.966 263.296 190.511 385.733 265.491 189.94 386.925 268.501 190.648 
386.24 269.624 189.477 386.59 270.041 189.647 415.257 272.269 191.022 
389.679 273.607 190.103 390.833 274.385 190.352 392.462 275.515 190.072 
393.2 275.852 190.221 393.872 276.164 190.429 396.541 277.42 190.276 
402.765 279.292 191.158 416.383 279.037 190.534 390.964 263.563 191.454 
389.199 272.485 190.742 416.203 273.678 191.781 389.955 273.217 190.911 
392.847 275.151 191.071 393.104 275.517 190.814 396.356 276.885 191.167 
396.925 277.281 190.971 416.847 278.422 191.154 402.85 279.134 191.714 
389.723 269.705 192.038 393.721 270.329 193.273 390.287 272.976 191.233 
414.541 272.698 192.4 394.597 273.313 192.936 395 274.704 192.456 
417.037 275.474 191.689 397.707 277.136 191.674 402.161 278.443 192.411 
416.617 278.173 191.965 404.282 279.109 192.518 416.067 278.593 192.127 
416.548 278.723 191.343 409.071 279.599 192.413 411.094 279.661 192.193 
396.272 268.182 193.584 407.567 270.677 193.643 416.11 274.483 192.744 
415.862 274.521 193.021 416.098 274.792 192.904 416.197 275.287 192.863 
397.844 275.779 192.987 400.44 277.367 192.804 415.306 278.259 192.963 
405.686 279.182 192.703 407.902 278.81 193.421 409.152 279.237 193.051 
401.301 270.3 194.375 406.919 271.074 194.111 414.067 273.675 193.621 
399.169 274.071 194.089 413.245 274.105 194.295 413.872 274.783 194.316 
414.018 275.184 194.346 400.854 275.883 193.895 415.705 275.58 193.303 
413.775 276.919 194.284 410.536 278.288 193.977 411.345 277.537 194.48 
412.462 277.972 194.056 412.406 278.586 193.522 406.628 271.65 194.477 
405.449 272.367 194.826 409.556 276.439 194.881 412.961 276.101 194.661 
405.993 273.295 260.364 410.736 274.265 260.543 410.784 274.842 260.447 
410.086 275.566 260.348 398.538 269.087 261.603 407.121 270.752 261.7 
399.547 271.286 261.047 405.677 271.303 261.112 409.694 272.401 261.186 
399.438 272.764 261.028 415.457 274.115 262.26 400.645 275.052 261.216 
415.933 275.04 262.299 413.358 276.625 261.098 415.648 276.227 262.026 
411.576 277.289 260.972 412.49 277.261 261.062 414.751 277.08 261.68 
408.896 278.196 261.421 412.304 277.884 261.35 413.997 277.892 261.676 
413.711 278.243 261.821 394.569 266.223 262.6 399.904 267.508 262.637 
395.511 268.277 261.932 399.598 268.156 262.156 394.781 269.506 261.888 
396.484 269.116 261.704 409.464 270.697 262.526 397.459 274.995 262.186 
416.621 275.224 262.902 416.6 276.391 262.828 412.816 278.902 262.292 
415.403 278.644 262.809 416.267 278.204 263.098 408.522 279.507 263.049 
406.606 269.243 263.108 393.068 270.973 262.404 391.288 272.97 263.599 
415.792 273.529 263.027 417.204 275.572 263.78 416.947 276.685 263.346 
398.487 277.18 263.483 401.521 278.565 263.826 403.897 279.388 264.078 
415.729 278.769 263.186 416.673 278.441 263.891 416.982 278.131 264.186 
407.654 279.859 263.932 413.237 279.599 263.548 416.809 278.498 264.297 
389.807 263.686 264.029 388.178 264.795 264.073 398.404 264.984 264.325 
387.221 267.589 264.318 387.761 269.818 264.355 387.309 269.827 264.719 
388.42 269.829 263.963 391.891 274.535 264.422 392.782 275.52 265.083 
417.047 278.266 264.751 416.17 279.03 264.527 387.435 261.509 265.607 
390.817 261.61 265.303 386.338 262.648 265.406 385.646 263.355 265.663 
385.638 268.038 265.932 385.722 268.653 266.19 386.606 268.496 264.958 
386.757 269.447 265.172 391.19 274.722 265.789 417.618 275.812 265.181 
396.922 277.697 265.76 412.699 279.991 264.982 384.689 262.361 266.682 
384.465 264.904 266.728 384.439 265.585 266.913 385.506 268.655 266.813 
390.792 274.51 266.166 393.097 275.991 266.588 417.659 276.671 266.063 
417.166 278.047 266.1 403.035 279.594 266.442 407.892 280.178 265.944 
384.38 260.623 267.65 384.062 260.828 267.938 383.903 261.45 267.978 
383.918 263.823 267.577 384.748 267.124 267.137 411.495 269.045 267.049 
412.696 269.68 266.674 386.93 270.935 267.606 387.903 272.017 267.512 
417.222 273.795 265.839 417.583 274.612 266.572 416.049 279.112 266.488 
416.387 278.725 267.161 384.755 258.262 269.073 384.397 258.492 269.13 
384.453 259.459 268.325 383.442 262.35 268.804 384.449 266.843 268.684 
386.127 269.654 268.788 417.689 275.406 267.493 393.688 276.18 268.179 
384.651 257.688 269.923 384.135 258.457 269.544 388.377 258.031 269.149 
383.416 260.702 269.459 414.843 270.414 268.573 416.613 272.484 268.805 
401.635 278.968 268.347 413.38 279.183 268.933 404.92 279.521 268.651 
384.947 257.119 270.66 383.185 261.638 270.333 383.313 263.227 270.386 
384.337 266.171 270.154 410.456 268.179 269.263 416.956 273.49 269.835 
416.748 277.16 269.731 399.939 278.092 269.821 384.743 256.561 272.065 
384.285 257.276 271.075 384.057 257.196 271.615 395.904 260.047 270.595 
383.374 263.27 270.943 407.839 267.012 270.251 410.805 268.241 269.949 
411.537 268.588 270.83 416.76 273.448 270.536 417.198 274.21 269.738 
417.188 274.659 270.017 384.268 256.789 272.08 383.98 257.048 272.124 
383.751 257.597 271.86 385.405 266.373 272.4 408.051 267.083 271.231 
414.066 269.897 271.082 414.425 270.186 271.098 416.246 272.702 271.143 
415.97 276.708 271.149 401.225 277.826 271.214 414.323 277.05 271.799 
385.508 255.795 273.61 384.138 256.75 272.503 387.936 256.243 272.962 
395.209 259.058 272.925 383.315 260.051 272.943 405.14 265.364 271.763 
[...]
POINT_DATA 518
COLOR_SCALARS scalars 3
1 0.682353 0.435294 1 0.682353 0.435294 1 0.682353 0.435294 
1 0.682353 0.435294 1 0.682353 0.435294 
1 0.682353 0.435294 1 0.682353 0.435294 
1 0.682353 0.435294 1 0.682353 0.435294 
1 0.682353 0.435294 1 0.682353 0.435294 
1 0.682353 0.435294 1 0.682353 0.435294 
1 0.682353 0.435294 1 0.682353 0.435294 
1 0.682353 0.435294 1 0.682353 0.435294 
1 0.682353 0.435294 1 0.682353 0.435294 
1 0.682353 0.435294 1 0.682353 0.435294 
1 0.682353 0.435294 1 0.682353 0.435294 
1 0.682353 0.435294 1 0.682353 0.435294 
1 0.682353 0.435294 1 0.682353 0.435294 
1 0.682353 0.435294 1 0.682353 0.435294 
1 0.682353 0.435294 1 0.682353 0.435294 
1 0.682353 0.435294 1 0.682353 0.435294 
1 0.682353 0.435294 1 0.682353 0.435294 
1 0.682353 0.435294 1 0.682353 0.435294 
1 0.682353 0.435294 1 0.682353 0.435294 
1 0.682353 0.435294 1 0.682353 0.435294 
1 0.682353 0.435294 1 0.682353 0.435294 
1 0.682353 0.435294 1 0.682353 0.435294 
1 0.682353 0.435294 1 0.682353 0.435294 
1 0.682353 0.435294 1 0.682353 0.435294 
1 0.682353 0.435294 1 0.682353 0.435294 
1 0.682353 0.435294 1 0.682353 0.435294 
1 0.682353 0.435294 1 0.682353 0.435294 
1 0.682353 0.435294 1 0.682353 0.435294 
1 0.682353 0.435294 1 0.682353 0.435294 
1 0.682353 0.435294 1 0.682353 0.435294 
1 0.682353 0.435294 1 0.682353 0.435294 
1 0.682353 0.435294 1 0.682353 0.435294 
1 0.682353 0.435294 1 0.682353 0.435294 
1 0.682353 0.435294 1 0.682353 0.435294 
1 0.682353 0.435294 1 0.682353 0.435294 
1 0.682353 0.435294 1 0.682353 0.435294 
1 0.682353 0.435294 1 0.682353 0.435294 
1 0.682353 0.435294 1 0.682353 0.435294 
1 0.682353 0.435294 1 0.682353 0.435294 
1 0.682353 0.435294 1 0.682353 0.435294 
1 0.682353 0.435294 1 0.682353 0.435294 
1 0.682353 0.435294 1 0.682353 0.435294 
1 0.682353 0.435294 1 0.682353 0.435294 
1 0.682353 0.435294 1 0.682353 0.435294 
1 0.682353 0.435294 1 0.682353 0.435294 
1 0.682353 0.435294 1 0.682353 0.435294 
1 0.682353 0.435294 1 0.682353 0.435294 
1 0.682353 0.435294 1 0.682353 0.435294 
1 0.682353 0.435294 1 0.682353 0.435294 
1 0.682353 0.435294 1 0.682353 0.435294 
1 0.682353 0.435294 1 0.682353 0.435294 
1 0.682353 0.435294 1 0.682353 0.435294 
1 0.682353 0.435294 1 0.682353 0.435294 
1 0.682353 0.435294 1 0.682353 0.435294 
1 0.682353 0.435294 1 0.682353 0.435294 
1 0.682353 0.435294 1 0.682353 0.435294 
1 0.682353 0.435294 1 0.682353 0.435294 
1 0.682353 0.435294 1 0.682353 0.435294 
1 0.682353 0.435294 1 0.682353 0.435294 
1 0.682353 0.435294 1 0.682353 0.435294 
1 0.682353 0.435294 1 0.682353 0.435294 
1 0.682353 0.435294 1 0.682353 0.435294 
1 0.682353 0.435294 1 0.682353 0.435294 
1 0.682353 0.435294 1 0.682353 0.435294 
1 0.682353 0.435294 1 0.682353 0.435294 
1 0.682353 0.435294 1 0.682353 0.435294 
1 0.682353 0.435294 1 0.682353 0.435294 
1 0.682353 0.435294 1 0.682353 0.435294 
1 0.682353 0.435294 1 0.682353 0.435294 
1 0.682353 0.435294 1 0.682353 0.435294 
1 0.682353 0.435294 1 0.682353 0.435294 
1 0.682353 0.435294 1 0.682353 0.435294 
1 0.682353 0.435294 1 0.682353 0.435294 
1 0.682353 0.435294 1 0.682353 0.435294 
1 0.682353 0.435294 1 0.682353 0.435294 
1 0.682353 0.435294 1 0.682353 0.435294 
1 0.682353 0.435294 1 0.682353 0.435294 
1 0.682353 0.435294 1 0.682353 0.435294 
1 0.682353 0.435294 1 0.682353 0.435294 
1 0.682353 0.435294 1 0.682353 0.435294 
1 0.682353 0.435294 1 0.682353 0.435294 
1 0.682353 0.435294 1 0.682353 0.435294 
1 0.682353 0.435294 1 0.682353 0.435294 
1 0.682353 0.435294 1 0.682353 0.435294 
1 0.682353 0.435294 1 0.682353 0.435294 
1 0.682353 0.435294 1 0.682353 0.435294 
1 0.682353 0.435294 1 0.682353 0.435294 
1 0.682353 0.435294 1 0.682353 0.435294 
1 0.682353 0.435294 1 0.682353 0.435294 
1 0.682353 0.435294 1 0.682353 0.435294 
1 0.682353 0.435294 1 0.682353 0.435294 
1 0.682353 0.435294 1 0.682353 0.435294 
1 0.682353 0.435294 1 0.682353 0.435294 
1 0.682353 0.435294 1 0.682353 0.435294 
1 0.682353 0.435294 1 0.682353 0.435294 
1 0.682353 0.435294 1 0.682353 0.435294 
1 0.682353 0.435294 1 0.682353 0.435294 
1 0.682353 0.435294 1 0.682353 0.435294 
1 0.682353 0.435294 1 0.682353 0.435294 
1 0.682353 0.435294 1 0.682353 0.435294 
1 0.682353 0.435294 1 0.682353 0.435294 
1 0.682353 0.435294 1 0.682353 0.435294 
1 0.682353 0.435294 1 0.682353 0.435294 
1 0.682353 0.435294 1 0.682353 0.435294 
1 0.682353 0.435294 1 0.682353 0.435294 
1 0.682353 0.435294 1 0.682353 0.435294 
1 0.682353 0.435294 1 0.682353 0.435294 
1 0.682353 0.435294 1 0.682353 0.435294 
1 0.682353 0.435294 1 0.682353 0.435294 
1 0.682353 0.435294 1 0.682353 0.435294 
1 0.682353 0.435294 1 0.682353 0.435294 
1 0.682353 0.435294 1 0.682353 0.435294 
1 0.682353 0.435294 1 0.682353 0.435294 
1 0.682353 0.435294 1 0.682353 0.435294 
1 0.682353 0.435294 1 0.682353 0.435294 
1 0.682353 0.435294 1 0.682353 0.435294 
1 0.682353 0.435294 1 0.682353 0.435294 
1 0.682353 0.435294 1 0.682353 0.435294 
1 0.682353 0.435294 1 0.682353 0.435294 
1 0.682353 0.435294 1 0.682353 0.435294 
1 0.682353 0.435294 1 0.682353 0.435294 
1 0.682353 0.435294 1 0.682353 0.435294 
1 0.682353 0.435294 1 0.682353 0.435294 
1 0.682353 0.435294 1 0.682353 0.435294 
1 0.682353 0.435294 1 0.682353 0.435294 
1 0.682353 0.435294 1 0.682353 0.435294 
1 0.682353 0.435294 1 0.682353 0.435294 
1 0.682353 0.435294 1 0.682353 0.435294 
1 0.682353 0.435294 1 0.682353 0.435294 
1 0.682353 0.435294 1 0.682353 0.435294 
1 0.682353 0.435294 1 0.682353 0.435294 
1 0.682353 0.435294 1 0.682353 0.435294 
1 0.682353 0.435294 1 0.682353 0.435294 
1 0.682353 0.435294 1 0.682353 0.435294 
1 0.682353 0.435294 1 0.682353 0.435294 
1 0.682353 0.435294 1 0.682353 0.435294 
1 0.682353 0.435294 1 0.682353 0.435294 
1 0.682353 0.435294 1 0.682353 0.435294 
1 0.682353 0.435294 1 0.682353 0.435294 
1 0.682353 0.435294 1 0.682353 0.435294 
1 0.682353 0.435294 1 0.682353 0.435294 
1 0.682353 0.435294 1 0.682353 0.435294 
1 0.682353 0.435294 1 0.682353 0.435294 
1 0.682353 0.435294 1 0.682353 0.435294 
1 0.682353 0.435294 1 0.682353 0.435294 
1 0.682353 0.435294 1 0.682353 0.435294 
1 0.682353 0.435294 1 0.682353 0.435294 
1 0.682353 0.435294 1 0.682353 0.435294 
1 0.682353 0.435294 1 0.682353 0.435294 
1 0.682353 0.435294 1 0.682353 0.435294 
1 0.682353 0.435294 1 0.682353 0.435294 
1 0.682353 0.435294 1 0.682353 0.435294 
1 0.682353 0.435294 1 0.682353 0.435294 
1 0.682353 0.435294 1 0.682353 0.435294 
1 0.682353 0.435294 1 0.682353 0.435294 
1 0.682353 0.435294 1 0.682353 0.435294 
1 0.682353 0.435294 1 0.682353 0.435294 
1 0.682353 0.435294 1 0.682353 0.435294 
1 0.682353 0.435294 1 0.682353 0.435294 
1 0.682353 0.435294 1 0.682353 0.435294 
1 0.682353 0.435294 1 0.682353 0.435294 
1 0.682353 0.435294 1 0.682353 0.435294 
1 0.682353 0.435294 1 0.682353 0.435294 
1 0.682353 0.435294 1 0.682353 0.435294 
1 0.682353 0.435294 1 0.682353 0.435294 
1 0.682353 0.435294 1 0.682353 0.435294 
1 0.682353 0.435294 1 0.682353 0.435294 
1 0.682353 0.435294 1 0.682353 0.435294 
1 0.682353 0.435294 1 0.682353 0.435294 
1 0.682353 0.435294 1 0.682353 0.435294 
1 0.682353 0.435294 1 0.682353 0.435294 
1 0.682353 0.435294 1 0.682353 0.435294 
1 0.682353 0.435294 1 0.682353 0.435294 
1 0.682353 0.435294 1 0.682353 0.435294 
1 0.682353 0.435294 1 0.682353 0.435294 
1 0.682353 0.435294 1 0.682353 0.435294 
1 0.682353 0.435294 1 0.682353 0.435294 
1 0.682353 0.435294 1 0.682353 0.435294 
1 0.682353 0.435294 1 0.682353 0.435294 
1 0.682353 0.435294 1 0.682353 0.435294 
1 0.682353 0.435294 1 0.682353 0.435294 
1 0.682353 0.435294 1 0.682353 0.435294 
1 0.682353 0.435294 1 0.682353 0.435294 
1 0.682353 0.435294 1 0.682353 0.435294 
1 0.682353 0.435294 1 0.682353 0.435294 
1 0.682353 0.435294 1 0.682353 0.435294 
1 0.682353 0.435294 1 0.682353 0.435294 
1 0.682353 0.435294 1 0.682353 0.435294 
1 0.682353 0.435294 1 0.682353 0.435294 
1 0.682353 0.435294 1 0.682353 0.435294 
1 0.682353 0.435294 1 0.682353 0.435294 
1 0.682353 0.435294 1 0.682353 0.435294 
1 0.682353 0.435294 1 0.682353 0.435294 
1 0.682353 0.435294 1 0.682353 0.435294 
1 0.682353 0.435294 1 0.682353 0.435294 
1 0.682353 0.435294 1 0.682353 0.435294 
1 0.682353 0.435294 1 0.682353 0.435294 
1 0.682353 0.435294 1 0.682353 0.435294 
1 0.682353 0.435294 1 0.682353 0.435294 
1 0.682353 0.435294 1 0.682353 0.435294 
1 0.682353 0.435294 1 0.682353 0.435294 
1 0.682353 0.435294 1 0.682353 0.435294 
1 0.682353 0.435294 1 0.682353 0.435294 
1 0.682353 0.435294 1 0.682353 0.435294 
1 0.682353 0.435294 1 0.682353 0.435294 
1 0.682353 0.435294 1 0.682353 0.435294 
1 0.682353 0.435294 1 0.682353 0.435294 
1 0.682353 0.435294 1 0.682353 0.435294 
1 0.682353 0.435294 1 0.682353 0.435294 
1 0.682353 0.435294 1 0.682353 0.435294 
1 0.682353 0.435294 1 0.682353 0.435294 
1 0.682353 0.435294 1 0.682353 0.435294 
1 0.682353 0.435294 1 0.682353 0.435294 
1 0.682353 0.435294 1 0.682353 0.435294 
1 0.682353 0.435294 1 0.682353 0.435294 
1 0.682353 0.435294 1 0.682353 0.435294 
1 0.682353 0.435294 1 0.682353 0.435294 
1 0.682353 0.435294 1 0.682353 0.435294 
1 0.682353 0.435294 1 0.682353 0.435294 
1 0.682353 0.435294 1 0.682353 0.435294 
1 0.682353 0.435294 1 0.682353 0.435294 
1 0.682353 0.435294 1 0.682353 0.435294 
1 0.682353 0.435294 1 0.682353 0.435294 
1 0.682353 0.435294 1 0.682353 0.435294 
1 0.682353 0.435294 1 0.682353 0.435294 
1 0.682353 0.435294 1 0.682353 0.435294 
1 0.682353 0.435294 1 0.682353 0.435294 
1 0.682353 0.435294 1 0.682353 0.435294 
1 0.682353 0.435294 1 0.682353 0.435294 
1 0.682353 0.435294 1 0.682353 0.435294 
1 0.682353 0.435294 1 0.682353 0.435294 
1 0.682353 0.435294 1 0.682353 0.435294 
1 0.682353 0.435294 1 0.682353 0.435294 
1 0.682353 0.435294 1 0.682353 0.435294 
1 0.682353 0.435294 1 0.682353 0.435294 
1 0.682353 0.435294 1 0.682353 0.435294 
1 0.682353 0.435294 1 0.682353 0.435294 
1 0.682353 0.435294 1 0.682353 0.435294 
1 0.682353 0.435294 1 0.682353 0.435294 
1 0.682353 0.435294 1 0.682353 0.435294 
1 0.682353 0.435294 1 0.682353 0.435294 
1 0.682353 0.435294 1 0.682353 0.435294 
1 0.682353 0.435294 1 0.682353 0.435294 
1 0.682353 0.435294 1 0.682353 0.435294 
1 0.682353 0.435294 1 0.682353 0.435294 
1 0.682353 0.435294 1 0.682353 0.435294 
1 0.682353 0.435294 1 0.682353 0.435294 
1 0.682353 0.435294 1 0.682353 0.435294 
1 0.682353 0.435294 1 0.682353 0.435294 
1 0.682353 0.435294 1 0.682353 0.435294 
1 0.682353 0.435294 1 0.682353 0.435294 
1 0.682353 0.435294 1 0.682353 0.435294 
1 0.682353 0.435294 1 0.682353 0.435294 
1 0.682353 0.435294 1 0.682353 0.435294 
1 0.682353 0.435294 1 0.682353 0.435294 
1 0.682353 0.435294 1 0.682353 0.435294 
1 0.682353 0.435294 1 0.682353 0.435294 
1 0.682353 0.435294 1 0.682353 0.435294 
1 0.682353 0.435294 
NORMALS Normals float
-0.12306 -0.45675 -0.881042 -0.309734 -0.34931 -0.884334 0.144654 -0.602946 -0.784558 
0.0966713 -0.747842 -0.6568 -0.0319643 -0.37854 -0.925033 0.0687646 -0.346716 -0.935446 
0.338627 -0.691012 -0.638619 -0.274646 -0.03978 -0.960722 0.297828 -0.594795 -0.746671 
0.0273892 -0.276284 -0.960686 0.0280675 -0.0197751 -0.99941 0.376867 -0.418936 -0.826114 
0.00723281 0.142036 -0.989835 0.223679 -0.288062 -0.931122 0.458631 -0.0557927 -0.886874 
0.0704629 -0.0409314 -0.996674 -0.628832 -0.430971 -0.647174 -0.311836 -0.628187 -0.712839 
0.0332778 -0.836263 -0.547318 0.301446 -0.790955 -0.532467 0.323667 -0.889863 -0.321532 
-0.57385 -0.0860302 -0.814429 -0.382518 -0.0754849 -0.92086 0.469457 -0.780129 -0.413533 
-0.297189 0.064423 -0.952643 0.648331 -0.412328 -0.640041 -0.237224 0.332619 -0.912737 
-0.0503324 0.123515 -0.991066 -0.384769 -0.83073 -0.402293 0.0532329 -0.978888 -0.197342 
0.207182 -0.963332 -0.17049 0.388467 -0.887043 -0.249495 0.514801 -0.804078 -0.297386 
0.662194 -0.635451 -0.397116 -0.272882 0.297093 -0.915025 -0.40473 0.285 -0.868889 
-0.230043 0.32399 -0.917666 -0.140419 0.424529 -0.894459 -0.629409 -0.738756 -0.241004 
-0.730179 -0.533636 -0.426699 -0.877635 -0.124043 -0.463001 0.354349 -0.933084 -0.0615703 
-0.78183 0.324852 -0.532178 -0.849412 0.0887012 -0.520222 0.567009 -0.532684 -0.62829 
-0.610105 0.387007 -0.691373 0.502895 -0.332895 -0.79767 0.5082 -0.335304 -0.793287 
0.370564 -0.0728616 -0.925945 0.492385 -0.290326 -0.820529 0.0780333 0.249331 -0.965269 
-0.266349 0.622904 -0.73556 -0.0488421 0.581208 -0.812288 -0.0080388 0.540343 -0.841406 
-0.495582 -0.868557 -0.0028823 -0.204637 -0.978658 -0.0187749 -0.915791 -0.357959 -0.182185 
0.456639 -0.887105 -0.0672683 0.572266 -0.532578 -0.623596 0.468763 -0.340868 -0.814905 
0.19416 0.0754253 -0.978066 0.101396 0.475316 -0.873953 -0.826912 -0.560793 0.0415718 
-0.59257 -0.789795 0.158383 0.593074 -0.768339 -0.240662 -0.79711 0.295583 -0.526541 
0.531465 -0.743163 -0.406515 0.63391 -0.476819 -0.608935 0.37368 -0.372359 -0.849537 
0.0990034 0.00326089 -0.995082 0.253634 0.000141176 -0.9673 0.265079 -0.0480825 -0.963027 
-0.34689 0.71527 -0.606677 0.14056 0.191936 -0.97129 0.100779 0.172242 -0.979886 
0.0500033 0.344011 -0.937633 0.213136 0.331497 -0.919066 0.380648 0.265338 -0.885834 
-0.450695 -0.87782 0.162191 -0.23896 -0.955125 0.175026 -0.935405 0.155324 -0.317634 
0.456727 -0.878042 0.142976 -0.981377 0.00595705 -0.192 0.543547 -0.835102 -0.084622 
0.55794 -0.763357 -0.325559 0.352963 -0.789372 -0.502303 0.269375 -0.691909 -0.66985 
0.330902 -0.762504 -0.55596 0.441234 -0.537721 -0.718449 0.358692 -0.413943 -0.836655 
0.498418 -0.235536 -0.834328 0.503906 -0.457409 -0.732704 0.529627 -0.181518 -0.828581 
0.671004 -0.241365 -0.701067 0.387188 -0.0976076 -0.91682 -0.140957 0.703484 -0.696593 
0.107083 0.648151 -0.753945 -0.521357 -0.775798 0.355422 -0.903298 -0.409907 0.126604 
0.0936733 -0.95534 0.280271 0.321509 -0.931733 0.168835 -0.898866 -0.424655 0.108205 
0.559877 -0.828565 -0.00432186 0.353405 -0.816822 -0.455967 0.258207 -0.83855 -0.479752 
0.602884 -0.714757 -0.354477 0.701007 -0.539284 -0.466649 0.766563 -0.366338 -0.527426 
0.657987 -0.142336 -0.739455 0.781835 0.0527944 -0.621247 0.595697 0.278487 -0.753386 
-0.0316434 0.853599 -0.519968 0.313181 0.643809 -0.69816 -0.45518 -0.767201 0.4519 
-0.942219 -0.326468 0.0751164 -0.977233 -0.204982 0.0547556 0.513263 -0.851703 0.105653 
-0.87641 0.218337 -0.429225 0.590123 -0.80727 -0.00838926 -0.841908 0.406866 -0.354474 
0.346449 -0.934924 -0.0767448 0.414487 -0.895683 -0.161099 0.522857 -0.807866 -0.271979 
0.774794 -0.607763 -0.174123 0.958992 0.0619897 -0.276572 0.576799 0.519937 -0.630054 
0.831864 0.355807 -0.425916 -0.238278 0.82809 -0.507436 -0.531526 -0.739066 0.413838 
-0.979223 -0.170235 0.110191 -0.981588 -0.121398 0.147467 -0.986888 0.161391 0.00238225 
-0.869841 0.386232 -0.306923 0.394488 -0.910523 -0.123801 0.880455 -0.36145 -0.306845 
-0.264421 0.909562 -0.320592 0.576432 0.707068 -0.409611 0.127853 0.818826 -0.559623 
0.338157 0.798313 -0.498344 -0.820431 -0.475395 0.317635 0.37026 -0.82255 0.431646 
-0.978858 0.200645 -0.0397423 -0.613525 0.644489 -0.456312 0.959689 0.21519 -0.180805 
0.834816 0.493085 -0.244844 -0.0168059 0.945428 -0.325399 0.149954 0.921763 -0.357585 
-0.910846 -0.283135 0.300324 -0.964566 0.263821 -0.00318191 -0.849338 0.45859 -0.261383 
-0.753342 0.547073 -0.364947 0.814288 -0.574525 0.0827992 0.970933 -0.234233 -0.0492374 
-0.584587 0.769311 -0.257717 -0.423751 0.898338 -0.115866 0.986974 0.149653 -0.0590517 
0.832601 0.520659 -0.188916 0.056465 0.938798 -0.339809 -0.439911 -0.651681 0.617891 
-0.859824 -0.187522 0.474909 -0.940758 -0.00478547 0.339046 -0.986396 0.126784 0.104634 
-0.951456 0.279005 0.129951 -0.923601 0.382033 0.0318147 0.4942 -0.856224 0.150488 
0.725015 -0.659898 0.197201 -0.712668 0.700195 0.0427941 -0.19544 0.975237 -0.103518 
0.279795 0.940763 -0.191519 0.0645807 -0.810222 0.582554 -0.878932 0.0601434 0.473139 
-0.85328 0.261245 0.451291 -0.809847 0.565837 0.154841 -0.314864 0.947617 0.0536821 
0.432314 0.865821 -0.25191 0.673634 0.709104 -0.208298 0.826423 0.497772 -0.263149 
-0.405615 -0.507636 0.76012 0.145284 -0.723716 0.674631 -0.830182 0.050552 0.555195 
-0.736186 0.0250303 0.676317 -0.746803 0.581902 0.321987 -0.586164 0.806029 0.0820288 
0.984222 0.17682 0.0063843 0.907727 0.404627 0.110941 -0.111167 0.981358 0.156772 
0.0625447 0.998042 -0.000874886 -0.166773 -0.571172 0.80371 -0.430638 -0.28397 0.856687 
-0.196001 -0.319666 0.927037 0.195139 -0.676796 0.709837 -0.610897 -0.148309 0.777695 
0.310835 -0.721037 0.619264 -0.586085 0.0194789 0.810015 -0.604782 0.189052 0.773626 
-0.782504 0.326783 0.530001 -0.665511 0.616449 0.420816 0.637729 -0.684563 0.353094 
-0.670855 0.71237 0.206111 -0.516475 0.628573 0.581506 -0.48428 0.831149 0.273247 
-0.506417 0.827737 0.241648 -0.414497 0.844036 0.340287 -0.338873 0.893723 0.293979 
-0.317879 0.932007 0.174112 0.546882 0.834518 0.0670765 -0.00198259 -0.488323 0.872661 
-0.594497 0.385962 0.705412 0.744765 -0.512144 0.427824 -0.531416 0.55885 0.636619 
-0.511655 0.637547 0.575972 -0.447421 0.73603 0.50801 -0.329149 0.729883 0.599109 
-0.295353 0.819696 0.490779 0.845826 0.490393 0.209985 -0.278915 0.889573 0.361755 
-0.426171 0.0967839 0.899451 -0.205706 0.0473274 0.977469 -0.396592 0.36461 0.842481 
0.36091 -0.701235 0.614828 -0.326013 0.266457 0.907037 -0.322322 0.566068 0.758733 
0.92239 -0.112025 0.369659 -0.234245 0.691315 0.68353 -0.308051 0.743474 0.593592 
0.787472 0.307823 0.533977 -0.177337 0.74719 0.640515 0.4114 0.751843 0.51525 
0.536236 0.776565 0.330754 0.000212548 0.906388 0.422447 0.150856 0.909248 0.387956 
-0.213823 -0.0135757 0.976778 0.262065 -0.62157 0.738223 0.803374 -0.345513 0.484985 
0.557542 -0.33013 0.761683 0.804667 -0.177008 0.566727 0.683361 0.0288714 0.729509 
-0.122888 0.587583 0.799778 -0.314545 0.627779 0.712008 0.434842 0.487865 0.756901 
-0.126533 0.765565 0.630793 -0.108451 0.665294 0.738662 0.0420093 0.817476 0.574429 
0.0176819 -0.357294 0.933825 0.135093 -0.504758 0.852625 0.480753 -0.470445 0.739972 
-0.196872 0.332568 0.922301 0.194666 -0.405103 0.893307 0.370744 -0.265313 0.890033 
0.492045 -0.0710523 0.867665 -0.189267 0.40561 0.894236 0.618346 0.0206707 0.785634 
0.343813 0.355093 0.869311 0.0674483 0.689249 0.721378 0.0688964 0.544587 0.83587 
0.186256 0.504491 0.843088 0.148339 0.697378 0.701185 0.190897 -0.407359 0.893094 
-0.0746992 -0.0615142 0.995307 -0.0441201 0.228268 0.972598 0.162261 0.0752599 0.983874 
0.0190184 -0.14786 -0.988825 0.300819 -0.321767 -0.897761 0.060629 -0.0549374 -0.996647 
0.0186001 0.0587203 -0.998101 -0.0160692 -0.468391 -0.883375 0.200684 -0.646159 -0.736346 
-0.118229 -0.115496 -0.986247 0.083801 -0.431832 -0.898053 0.113882 -0.399381 -0.909684 
-0.181915 0.119659 -0.976007 0.396539 -0.46748 -0.790076 -0.254797 0.358938 -0.89791 
0.558547 -0.185066 -0.808564 0.257055 0.167426 -0.951783 0.501268 0.0401633 -0.864359 
0.0571583 0.442932 -0.894732 0.201314 0.344236 -0.917047 0.467994 0.173613 -0.86651 
-0.132338 0.554356 -0.821691 0.109189 0.551587 -0.82694 0.393981 0.506157 -0.767192 
0.28677 0.628953 -0.722621 0.00011697 -0.373687 -0.927555 0.176174 -0.729525 -0.660876 
-0.22948 -0.217655 -0.948665 0.0461449 -0.471191 -0.880823 -0.247221 -0.0572929 -0.967264 
-0.0230407 -0.20571 -0.978342 0.337974 -0.727408 -0.597203 -0.288298 0.314306 -0.904487 
0.799175 -0.224569 -0.557574 0.686575 0.116037 -0.71774 -0.033773 0.802006 -0.59636 
0.282789 0.747046 -0.601626 0.621548 0.477923 -0.620699 0.00407865 0.874497 -0.485013 
0.242535 -0.745363 -0.620976 -0.287557 0.0736173 -0.95493 -0.411845 0.446627 -0.794297 
0.637715 -0.55898 -0.529963 0.91384 -0.155951 -0.374935 0.896223 0.146221 -0.418813 
-0.303518 0.643638 -0.702572 -0.24274 0.924833 -0.292851 -0.146716 0.947575 -0.283858 
0.347292 0.842317 -0.412177 0.704666 0.55543 -0.441525 0.890477 0.332241 -0.310911 
-0.108774 0.90648 -0.407999 0.132441 0.900036 -0.415204 0.738099 0.642853 -0.204817 
-0.10613 -0.293281 -0.950117 -0.291281 -0.178445 -0.939847 0.262589 -0.710342 -0.65304 
-0.44925 0.023288 -0.893102 -0.566347 0.113019 -0.816381 -0.667587 0.628929 -0.398467 
-0.512274 0.167551 -0.842319 -0.597324 0.629176 -0.497334 -0.283895 0.891682 -0.352571 