# vtk DataFile Version 4.2
vtk output
ASCII
DATASET POLYDATA
POINTS 477 float
304.542 183.84 208.142 304.779 183.336 208.283 304.865 184.288 208.141 
302.585 185.352 208.451 302.002 187.038 208.469 302.502 187.751 208.19 
304.418 187.682 208.326 302.845 188.309 208.146 303.423 188.557 208.262 
302.342 189.025 208.235 302.46 189.441 208.32 302.795 189.661 208.409 
305.632 181.832 209.228 304.311 182.133 208.914 303.928 183.031 208.563 
303.699 182.636 208.882 305.59 185.992 208.721 301.471 186.789 208.829 
300.81 187.657 209.173 305.195 187.577 208.744 301.625 188.637 208.504 
300.911 190.568 209.039 302.057 190.782 208.9 305.001 180.946 209.771 
305.561 181.402 209.511 305.9 181.092 210.05 303.954 181.545 209.512 
303.759 181.401 209.822 303.324 182.416 209.353 306.414 184.867 209.687 
301.304 185.758 209.31 300.419 187.681 209.529 300.112 187.428 210.002 
305.603 188.308 209.436 299.537 189.479 209.996 300.374 190.574 209.329 
301.685 191.37 209.188 303.234 191.629 209.622 303.678 191.36 209.697 
300.07 192.345 209.77 299.093 193.498 210.319 300.67 192.933 209.884 
301.309 193.121 209.988 304.62 180.478 210.449 305.361 180.609 210.306 
304.415 180.536 210.412 304.185 180.717 210.354 306.03 181.059 210.43 
300.484 185.971 210.299 306.988 185.075 211.129 306.735 186.847 210.926 
304.739 191.129 210.519 303.263 192.813 210.529 298.117 193.553 210.978 
298.223 194.283 211.107 299.9 194.713 210.815 305.008 180.187 211.332 
305.622 180.414 211.238 306.451 181.594 211.134 307.094 185.982 211.907 
297.455 192.572 211.521 301.117 195.251 211.592 298.456 195.809 211.875 
304.559 180.178 212.12 304.124 180.378 211.795 305.322 180.216 211.577 
301.381 195.358 211.9 297.067 196.673 212.765 297.418 196.976 212.784 
297.573 197.359 213.015 301.475 182.516 212.873 302.701 194.842 212.762 
299.089 197.438 213.236 296.302 198.057 213.782 296.552 198.446 213.983 
299.681 197.529 213.751 304.291 180.334 213.012 304.604 180.266 213.164 
304.936 180.217 212.98 305.291 180.248 212.73 306.664 182.119 213.282 
300.01 184.207 213.466 307.229 185.861 214.091 305.95 191.08 213.996 
294.638 197.07 214.547 295.487 197.896 214.114 300.169 197.366 214.026 
295.227 199.166 214.779 304.838 180.368 213.431 303.668 181.049 214.467 
305.962 181.09 213.762 299.71 184.326 214.677 299.44 184.781 214.626 
307.033 187.666 215.141 303.783 194.369 214.949 300.852 197.233 215.27 
293.255 200.953 216.446 294.72 201.474 216.303 305.667 181.245 214.714 
301.491 182.538 214.938 302.309 182.132 215.399 301.45 182.72 215.397 
300.093 183.992 215.312 292.801 198.146 216.55 292.788 200.202 216.705 
293.462 201.833 216.932 293.287 201.936 217.147 302.654 182.311 216.017 
305.851 182.116 215.789 301.576 183.461 216.85 306.746 184.1 215.792 
299.547 185.229 216.828 292.452 196.832 217.793 298.296 199.736 216.912 
295.32 201.917 216.892 293.526 202.541 217.817 293.334 202.579 218.135 
294.337 202.626 217.702 306.161 182.98 216.295 306.022 183.134 216.644 
306.257 183.381 216.454 306.436 184.047 216.45 306.536 185.873 216.898 
297.805 187.195 217.285 299.491 185.811 217.659 306.181 189.337 217.443 
293.204 194.457 217.948 303.297 194.692 217.493 292.225 197.416 218.173 
291.863 199.112 218.31 291.755 199.407 218.564 292.798 202.22 218.802 
294.532 202.717 217.965 294.828 202.645 218.133 293.723 202.847 218.717 
294.096 202.863 218.553 305.174 183.659 217.566 305.349 184.009 217.703 
305.626 184.265 217.624 306.036 184.374 217.201 300.077 186.281 218.543 
301.219 186.399 219.047 305.814 188.378 218.104 294.392 191.919 218.659 
294.505 191.823 219.299 293.884 192.78 219.047 291.803 198.909 219.325 
291.714 199.43 218.973 291.735 200.376 219.248 291.927 200.969 218.771 
297.562 200.625 218.831 295.46 202.33 218.895 293.147 202.58 219.277 
293.564 202.809 219.145 304.927 184.051 217.848 301.609 186.784 219.343 
305.303 187.046 218.524 298.871 188.175 219.624 302.303 187.528 219.674 
294.596 191.921 219.879 304.301 191.819 218.974 292.504 196.26 219.838 
297.628 200.247 219.805 291.925 200.911 219.585 293.832 202.826 219.507 
294.323 202.732 219.6 304.321 187.192 219.128 295.961 190.732 220.495 
299.324 189.834 220.85 302.592 190.077 220.293 294.487 192.292 220.211 
303.186 190.949 220.006 293.712 193.68 220.369 293.349 194.231 220.079 
292.992 195.322 220.391 301.089 195.551 220.078 292.276 198.054 220.442 
291.982 200.698 219.898 292.26 200.573 220.416 295.037 202.166 220.493 
293.143 202.472 220.267 293.339 202.474 220.484 294.31 202.593 220.17 
296.048 191.348 221.057 302.284 190.977 220.513 294.603 192.79 220.836 
299.099 191.622 221.573 293.602 194.106 220.608 300.482 192.477 221.278 
301.288 192.481 220.881 293.761 194.315 220.983 299.978 194.302 221.365 
292.88 201.428 220.987 292.999 201.833 220.942 293.001 202.035 220.8 
293.213 202.017 220.958 295.253 201.635 221.12 293.474 202.263 220.801 
297.038 193.313 222.137 294.275 194.908 221.742 297.054 193.945 222.329 
297.221 194.369 222.387 297.619 195.333 222.302 294.477 195.998 222.207 
298.133 195.745 222.036 292.955 197.572 221.362 293.513 198.295 222.023 
296.697 198.629 222.018 296.01 199.048 222.186 295.713 199.76 222.059 
293.19 200.977 221.471 293.44 200.419 221.863 293.237 201.607 221.227 
293.574 200.867 221.826 293.854 200.945 221.922 294.402 201.064 221.881 
294.631 200.711 222.04 294.068 201.147 221.835 296.171 193.897 222.223 
296.504 195.173 222.497 294.518 198.422 222.485 294.236 199.707 222.323 
294.681 199.417 222.408 294.218 200.705 222.069 296.144 194.878 232.745 
295.48 195.389 232.799 296.527 194.815 232.759 295.575 196.003 232.73 
295.974 196 232.661 296.891 195.658 232.796 296.516 196.594 232.781 
295.122 197.645 232.987 296.653 191.505 233.928 297.805 191.54 233.701 
295.199 192.59 234.042 296.211 193.749 233.124 297.094 193.525 233.159 
294.157 194.227 234.001 293.482 196.252 234.046 298.969 195.825 233.753 
296.498 198.661 233.391 295.574 199.175 233.409 297.452 199.09 234.062 
296.132 200.371 234.043 292.874 201.116 234.384 293.303 201.672 234.361 
293.141 201.797 234.502 293.765 201.622 234.275 298.173 190.297 234.41 
294.813 192.517 234.404 294.679 192.317 234.782 299.72 191.274 234.073 
293.805 194.27 234.358 293.655 194.128 234.713 292.792 197.18 234.505 
292.637 196.927 234.821 292.446 198.355 234.771 296.498 200.581 234.342 
292.745 201.35 234.606 294.797 202.013 234.536 293.806 202.427 234.882 
293.729 202.648 235.327 296.055 190.163 235.742 302.707 188.715 235.411 
294.41 192.419 235.269 302.539 191.026 235.204 303.405 192.43 236.018 
293.168 195.01 235.188 299.681 197.558 235.198 291.768 199.517 235.67 
291.916 199.773 235.356 291.919 200.362 235.45 291.767 200.496 235.918 
296.519 201.078 234.823 292.939 202.327 235.606 293.179 202.593 235.88 
294.498 202.522 235.02 294.888 202.425 235.142 294.107 202.771 235.671 
305.062 184.927 236.946 304.554 184.877 236.878 305.184 184.51 237.144 
305.343 185.32 236.995 299.215 187.337 236.331 300.228 186.918 236.204 
303.778 187.437 236.016 305.75 186.486 237.245 301.178 188.581 235.266 
292.075 197.857 235.977 291.741 199.071 236.354 291.664 200.017 236.18 
291.687 200.407 236.326 297.58 200.462 235.643 291.988 201.216 236.153 
292.913 202.412 236.084 295.557 202.307 236.047 293.685 202.836 236.491 
294.082 202.847 236.275 305.612 182.847 238.091 305.381 182.521 238.21 
305.726 182.441 238.406 304.871 183.964 237.367 305.566 184.359 237.447 
301.431 184.998 237.075 298.028 187.074 237.807 298.55 186.694 237.533 
306.259 187.6 237.883 305.572 190.432 237.499 293.234 194.321 236.549 
304.842 192.097 237.648 291.745 200.545 236.655 291.853 200.909 236.684 
295.611 202.335 236.775 293.136 202.573 237.094 294.019 202.849 236.882 
305.487 182.19 238.495 305.374 181.928 238.761 303.935 182.928 237.948 
302.842 183.439 237.732 306.455 182.977 238.866 301.768 183.717 237.968 
298.242 186.449 238.832 297.781 187.144 238.429 296.606 188.801 237.902 
306.933 186.935 239.203 295.107 190.936 237.997 293.109 194.893 237.418 
292.129 197.839 237.218 292.975 202.315 237.781 293.266 202.482 237.977 
293.478 202.686 237.574 303.666 181.56 239.4 305.412 181.543 239.366 
305.955 181.898 239.193 301.572 182.786 239.148 306.231 182.182 239.14 
306.45 182.374 239.447 300.271 183.735 239.48 297.646 187.28 239.592 
297.371 187.67 239.025 303.785 194.239 239.025 301.363 196.866 238.712 
292.514 197.959 238.279 297.32 200.89 237.998 292.733 201.395 238.231 
293.331 202.231 238.376 293.518 202.478 238.273 294.828 202.46 238.219 
293.962 202.669 237.914 303.734 180.866 240.718 301.567 182.083 241.087 
302.117 181.994 239.963 306.318 181.768 240.122 300.546 183.113 240.687 
307.086 183.917 240.317 298.498 185.98 240.141 307.051 188.075 240.55 
292.658 199.474 238.611 296.249 201.15 239.245 293.885 201.96 238.921 
294.445 202.125 238.837 293.779 202.539 238.277 294.103 202.145 238.824 
304.905 180.356 241.257 305.183 180.413 241.173 305.154 180.273 241.515 
302.828 181.118 241.225 296.882 189.184 240.841 294.147 195.574 240.208 
294.738 200.182 240.228 295.801 200.665 239.96 295.777 200.204 240.354 
297.204 199.703 240.377 294.949 200.516 240.093 295.017 201.118 239.63 
304.439 180.208 241.941 304.137 180.277 242.258 305.03 180.097 242.376 
305.275 180.22 241.957 305.668 180.437 242.064 306.676 181.844 241.7 
296.873 189.91 241.64 306.75 189.218 242.536 304.754 193.038 241.991 
294.543 197.969 240.725 297.266 198.835 241.289 306.443 189.817 242.909 
305.641 191.38 243.131 295.841 194.568 242.253 302.965 194.754 242.467 
300.441 196.403 242.774 295.701 197.823 241.577 297.023 197.234 242.517 
297.191 197.661 242.264 297.028 198.245 241.783 304.98 180.122 243.637 
305.382 180.213 243.245 305.749 180.493 243.514 306.114 180.84 242.999 
300.985 183.697 244.224 305.469 191.208 244.112 301.739 195.173 243.645 
296.547 196.191 242.759 304.585 180.216 244.374 304.948 180.222 244.297 
297.684 192.491 244.136 304.543 192.184 244.412 303.665 192.929 244.608 
301.618 194.331 244.572 300.578 195.205 244.246 298.289 196.261 243.509 
[...]
POINT_DATA 477
COLOR_SCALARS scalars 3
1 0.501961 0.517647 1 0.501961 0.517647 1 0.501961 0.517647 
1 0.501961 0.517647 1 0.501961 0.517647 
1 0.501961 0.517647 1 0.501961 0.517647 
1 0.501961 0.517647 1 0.501961 0.517647 
1 0.501961 0.517647 1 0.501961 0.517647 
1 0.501961 0.517647 1 0.501961 0.517647 
1 0.501961 0.517647 1 0.501961 0.517647 
1 0.501961 0.517647 1 0.501961 0.517647 
1 0.501961 0.517647 1 0.501961 0.517647 
1 0.501961 0.517647 1 0.501961 0.517647 
1 0.501961 0.517647 1 0.501961 0.517647 
1 0.501961 0.517647 1 0.501961 0.517647 
1 0.501961 0.517647 1 0.501961 0.517647 
1 0.501961 0.517647 1 0.501961 0.517647 
1 0.501961 0.517647 1 0.501961 0.517647 
1 0.501961 0.517647 1 0.501961 0.517647 
1 0.501961 0.517647 1 0.501961 0.517647 
1 0.501961 0.517647 1 0.501961 0.517647 
1 0.501961 0.517647 1 0.501961 0.517647 
1 0.501961 0.517647 1 0.501961 0.517647 
1 0.501961 0.517647 1 0.501961 0.517647 
1 0.501961 0.517647 1 0.501961 0.517647 
1 0.501961 0.517647 1 0.501961 0.517647 
1 0.501961 0.517647 1 0.501961 0.517647 
1 0.501961 0.517647 1 0.501961 0.517647 
1 0.501961 0.517647 1 0.501961 0.517647 
1 0.501961 0.517647 1 0.501961 0.517647 
1 0.501961 0.517647 1 0.501961 0.517647 
1 0.501961 0.517647 1 0.501961 0.517647 
1 0.501961 0.517647 1 0.501961 0.517647 
1 0.501961 0.517647 1 0.501961 0.517647 
1 0.501961 0.517647 1 0.501961 0.517647 
1 0.501961 0.517647 1 0.501961 0.517647 
1 0.501961 0.517647 1 0.501961 0.517647 
1 0.501961 0.517647 1 0.501961 0.517647 
1 0.501961 0.517647 1 0.501961 0.517647 
1 0.501961 0.517647 1 0.501961 0.517647 
1 0.501961 0.517647 1 0.501961 0.517647 
1 0.501961 0.517647 1 0.501961 0.517647 
1 0.501961 0.517647 1 0.501961 0.517647 
1 0.501961 0.517647 1 0.501961 0.517647 
1 0.501961 0.517647 1 0.501961 0.517647 
1 0.501961 0.517647 1 0.501961 0.517647 
1 0.501961 0.517647 1 0.501961 0.517647 
1 0.501961 0.517647 1 0.501961 0.517647 
1 0.501961 0.517647 1 0.501961 0.517647 
1 0.501961 0.517647 1 0.501961 0.517647 
1 0.501961 0.517647 1 0.501961 0.517647 
1 0.501961 0.517647 1 0.501961 0.517647 
1 0.501961 0.517647 1 0.501961 0.517647 
1 0.501961 0.517647 1 0.501961 0.517647 
1 0.501961 0.517647 1 0.501961 0.517647 
1 0.501961 0.517647 1 0.501961 0.517647 
1 0.501961 0.517647 1 0.501961 0.517647 
1 0.501961 0.517647 1 0.501961 0.517647 
1 0.501961 0.517647 1 0.501961 0.517647 
1 0.501961 0.517647 1 0.501961 0.517647 
1 0.501961 0.517647 1 0.501961 0.517647 
1 0.501961 0.517647 1 0.501961 0.517647 
1 0.501961 0.517647 1 0.501961 0.517647 
1 0.501961 0.517647 1 0.501961 0.517647 
1 0.501961 0.517647 1 0.501961 0.517647 
1 0.501961 0.517647 1 0.501961 0.517647 
1 0.501961 0.517647 1 0.501961 0.517647 
1 0.501961 0.517647 1 0.501961 0.517647 
1 0.501961 0.517647 1 0.501961 0.517647 
1 0.501961 0.517647 1 0.501961 0.517647 
1 0.501961 0.517647 1 0.501961 0.517647 
1 0.501961 0.517647 1 0.501961 0.517647 
1 0.501961 0.517647 1 0.501961 0.517647 
1 0.501961 0.517647 1 0.501961 0.517647 
1 0.501961 0.517647 1 0.501961 0.517647 
1 0.501961 0.517647 1 0.501961 0.517647 
1 0.501961 0.517647 1 0.501961 0.517647 
1 0.501961 0.517647 1 0.501961 0.517647 
1 0.501961 0.517647 1 0.501961 0.517647 
1 0.501961 0.517647 1 0.501961 0.517647 
1 0.501961 0.517647 1 0.501961 0.517647 
1 0.501961 0.517647 1 0.501961 0.517647 
1 0.501961 0.517647 1 0.501961 0.517647 
1 0.501961 0.517647 1 0.501961 0.517647 
1 0.501961 0.517647 1 0.501961 0.517647 
1 0.501961 0.517647 1 0.501961 0.517647 
1 0.501961 0.517647 1 0.501961 0.517647 
1 0.501961 0.517647 1 0.501961 0.517647 
1 0.501961 0.517647 1 0.501961 0.517647 
1 0.501961 0.517647 1 0.501961 0.517647 
1 0.501961 0.517647 1 0.501961 0.517647 
1 0.501961 0.517647 1 0.501961 0.517647 
1 0.501961 0.517647 1 0.501961 0.517647 
1 0.501961 0.517647 1 0.501961 0.517647 
1 0.501961 0.517647 1 0.501961 0.517647 
1 0.501961 0.517647 1 0.501961 0.517647 
1 0.501961 0.517647 1 0.501961 0.517647 
1 0.501961 0.517647 1 0.501961 0.517647 
1 0.501961 0.517647 1 0.501961 0.517647 
1 0.501961 0.517647 1 0.501961 0.517647 
1 0.501961 0.517647 1 0.501961 0.517647 
1 0.501961 0.517647 1 0.501961 0.517647 
1 0.501961 0.517647 1 0.501961 0.517647 
1 0.501961 0.517647 1 0.501961 0.517647 
1 0.501961 0.517647 1 0.501961 0.517647 
1 0.501961 0.517647 1 0.501961 0.517647 
1 0.501961 0.517647 1 0.501961 0.517647 
1 0.501961 0.517647 1 0.501961 0.517647 
1 0.501961 0.517647 1 0.501961 0.517647 
1 0.501961 0.517647 1 0.501961 0.517647 
1 0.501961 0.517647 1 0.501961 0.517647 
1 0.501961 0.517647 1 0.501961 0.517647 
1 0.501961 0.517647 1 0.501961 0.517647 
1 0.501961 0.517647 1 0.501961 0.517647 
1 0.501961 0.517647 1 0.501961 0.517647 
1 0.501961 0.517647 1 0.501961 0.517647 
1 0.501961 0.517647 1 0.501961 0.517647 
1 0.501961 0.517647 1 0.501961 0.517647 
1 0.501961 0.517647 1 0.501961 0.517647 
1 0.501961 0.517647 1 0.501961 0.517647 
1 0.501961 0.517647 1 0.501961 0.517647 
1 0.501961 0.517647 1 0.501961 0.517647 
1 0.501961 0.517647 1 0.501961 0.517647 
1 0.501961 0.517647 1 0.501961 0.517647 
1 0.501961 0.517647 1 0.501961 0.517647 
1 0.501961 0.517647 1 0.501961 0.517647 
1 0.501961 0.517647 1 0.501961 0.517647 
1 0.501961 0.517647 1 0.501961 0.517647 
1 0.501961 0.517647 1 0.501961 0.517647 
1 0.501961 0.517647 1 0.501961 0.517647 
1 0.501961 0.517647 1 0.501961 0.517647 
1 0.501961 0.517647 1 0.501961 0.517647 
1 0.501961 0.517647 1 0.501961 0.517647 
1 0.501961 0.517647 1 0.501961 0.517647 
1 0.501961 0.517647 1 0.501961 0.517647 
1 0.501961 0.517647 1 0.501961 0.517647 
1 0.501961 0.517647 1 0.501961 0.517647 
1 0.501961 0.517647 1 0.501961 0.517647 
1 0.501961 0.517647 1 0.501961 0.517647 
1 0.501961 0.517647 1 0.501961 0.517647 
1 0.501961 0.517647 1 0.501961 0.517647 
1 0.501961 0.517647 1 0.501961 0.517647 
1 0.501961 0.517647 1 0.501961 0.517647 
1 0.501961 0.517647 1 0.501961 0.517647 
1 0.501961 0.517647 1 0.501961 0.517647 
1 0.501961 0.517647 1 0.501961 0.517647 
1 0.501961 0.517647 1 0.501961 0.517647 
1 0.501961 0.517647 1 0.501961 0.517647 
1 0.501961 0.517647 1 0.501961 0.517647 
1 0.501961 0.517647 1 0.501961 0.517647 
1 0.501961 0.517647 1 0.501961 0.517647 
1 0.501961 0.517647 1 0.501961 0.517647 
1 0.501961 0.517647 1 0.501961 0.517647 
1 0.501961 0.517647 1 0.501961 0.517647 
1 0.501961 0.517647 1 0.501961 0.517647 
1 0.501961 0.517647 1 0.501961 0.517647 
1 0.501961 0.517647 1 0.501961 0.517647 
1 0.501961 0.517647 1 0.501961 0.517647 
1 0.501961 0.517647 1 0.501961 0.517647 
1 0.501961 0.517647 1 0.501961 0.517647 
1 0.501961 0.517647 1 0.501961 0.517647 
1 0.501961 0.517647 1 0.501961 0.517647 
1 0.501961 0.517647 1 0.501961 0.517647 
1 0.501961 0.517647 1 0.501961 0.517647 
1 0.501961 0.517647 1 0.501961 0.517647 
1 0.501961 0.517647 1 0.501961 0.517647 
1 0.501961 0.517647 1 0.501961 0.517647 
1 0.501961 0.517647 1 0.501961 0.517647 
1 0.501961 0.517647 1 0.501961 0.517647 
1 0.501961 0.517647 1 0.501961 0.517647 
1 0.501961 0.517647 1 0.501961 0.517647 
1 0.501961 0.517647 1 0.501961 0.517647 
1 0.501961 0.517647 1 0.501961 0.517647 
1 0.501961 0.517647 1 0.501961 0.517647 
1 0.501961 0.517647 1 0.501961 0.517647 
1 0.501961 0.517647 1 0.501961 0.517647 
1 0.501961 0.517647 1 0.501961 0.517647 
1 0.501961 0.517647 1 0.501961 0.517647 
1 0.501961 0.517647 1 0.501961 0.517647 
1 0.501961 0.517647 1 0.501961 0.517647 
1 0.501961 0.517647 1 0.501961 0.517647 
1 0.501961 0.517647 1 0.501961 0.517647 
1 0.501961 0.517647 1 0.501961 0.517647 
1 0.501961 0.517647 1 0.501961 0.517647 
1 0.501961 0.517647 1 0.501961 0.517647 
1 0.501961 0.517647 1 0.501961 0.517647 
1 0.501961 0.517647 1 0.501961 0.517647 
1 0.501961 0.517647 1 0.501961 0.517647 
1 0.501961 0.517647 1 0.501961 0.517647 
1 0.501961 0.517647 1 0.501961 0.517647 
1 0.501961 0.517647 1 0.501961 0.517647 
1 0.501961 0.517647 1 0.501961 0.517647 
1 0.501961 0.517647 1 0.501961 0.517647 
1 0.501961 0.517647 1 0.501961 0.517647 
1 0.501961 0.517647 1 0.501961 0.517647 
1 0.501961 0.517647 1 0.501961 0.517647 
1 0.501961 0.517647 1 0.501961 0.517647 
1 0.501961 0.517647 1 0.501961 0.517647 
1 0.501961 0.517647 1 0.501961 0.517647 
1 0.501961 0.517647 1 0.501961 0.517647 
1 0.501961 0.517647 1 0.501961 0.517647 
1 0.501961 0.517647 1 0.501961 0.517647 
1 0.501961 0.517647 1 0.501961 0.517647 
1 0.501961 0.517647 1 0.501961 0.517647 
1 0.501961 0.517647 1 0.501961 0.517647 
1 0.501961 0.517647 1 0.501961 0.517647 
1 0.501961 0.517647 1 0.501961 0.517647 
1 0.501961 0.517647 1 0.501961 0.517647 
1 0.501961 0.517647 1 0.501961 0.517647 
1 0.501961 0.517647 1 0.501961 0.517647 
1 0.501961 0.517647 1 0.501961 0.517647 
1 0.501961 0.517647 1 0.501961 0.517647 
1 0.501961 0.517647 1 0.501961 0.517647 
1 0.501961 0.517647 1 0.501961 0.517647 
1 0.501961 0.517647 1 0.501961 0.517647 
1 0.501961 0.517647 1 0.501961 0.517647 
1 0.501961 0.517647 1 0.501961 0.517647 
1 0.501961 0.517647 1 0.501961 0.517647 
1 0.501961 0.517647 1 0.501961 0.517647 
1 0.501961 0.517647 1 0.501961 0.517647 
1 0.501961 0.517647 1 0.501961 0.517647 
1 0.501961 0.517647 1 0.501961 0.517647 
1 0.501961 0.517647 1 0.501961 0.517647 
1 0.501961 0.517647 1 0.501961 0.517647 
1 0.501961 0.517647 1 0.501961 0.517647 
1 0.501961 0.517647 1 0.501961 0.517647 
1 0.501961 0.517647 1 0.501961 0.517647 
1 0.501961 0.517647 1 0.501961 0.517647 
1 0.501961 0.517647 1 0.501961 0.517647 
1 0.501961 0.517647 1 0.501961 0.517647 
1 0.501961 0.517647 1 0.501961 0.517647 
1 0.501961 0.517647 1 0.501961 0.517647 
1 0.501961 0.517647 1 0.501961 0.517647 
1 0.501961 0.517647 1 0.501961 0.517647 
1 0.501961 0.517647 1 0.501961 0.517647 
1 0.501961 0.517647 1 0.501961 0.517647 
1 0.501961 0.517647 1 0.501961 0.517647 
1 0.501961 0.517647 1 0.501961 0.517647 
1 0.501961 0.517647 1 0.501961 0.517647 
1 0.501961 0.517647 1 0.501961 0.517647 
1 0.501961 0.517647 1 0.501961 0.517647 

NORMALS Normals float
-0.0995257 -0.171963 -0.980063 0.0741404 -0.379316 -0.922292 0.334061 -0.0476996 -0.941344 
-0.403928 -0.195413 -0.893676 -0.486473 -0.140917 -0.862257 -0.184383 -0.0656216 -0.980661 
0.348827 0.214667 -0.912271 0.0878678 -0.0132621 -0.996044 0.29677 0.202167 -0.933304 
-0.102899 0.147636 -0.983674 -0.187784 0.275529 -0.942773 0.123333 0.343014 -0.931198 
0.471653 -0.414816 -0.77812 -0.34864 -0.500297 -0.792561 -0.399969 -0.34646 -0.848522 
-0.407773 -0.445654 -0.79694 0.768438 0.125294 -0.627539 -0.596012 -0.223635 -0.771205 
-0.598673 -0.156058 -0.785644 0.577102 0.266603 -0.77193 -0.503085 0.0476603 -0.862922 
-0.368499 0.200954 -0.907648 0.075327 0.403698 -0.911786 0.00735822 -0.709369 -0.704799 
0.320147 -0.618905 -0.71726 0.641236 -0.560726 -0.523835 -0.336681 -0.569727 -0.749705 
-0.628895 -0.596158 -0.499085 -0.634025 -0.420771 -0.648818 0.85251 -0.0331632 -0.521658 
-0.697562 -0.400365 -0.594235 -0.660902 -0.141669 -0.73698 -0.769919 -0.297075 -0.564776 
0.697651 0.36919 -0.613989 -0.726969 -0.172713 -0.664595 -0.468021 0.135919 -0.873202 
-0.0965876 0.415 -0.90468 0.350556 0.523329 -0.776683 0.448945 0.463892 -0.76371 
-0.246371 0.173503 -0.953519 -0.36745 0.266193 -0.891135 0.0299116 0.399184 -0.916383 
0.136901 0.455917 -0.87943 -0.060065 -0.881085 -0.469129 0.273413 -0.835624 -0.476422 
-0.273048 -0.835158 -0.477447 -0.600878 -0.726887 -0.332537 0.74335 -0.620512 -0.249791 
-0.850031 -0.354911 -0.389211 0.954959 0.0674697 -0.288965 0.922212 0.175365 -0.344634 
0.679212 0.553268 -0.48225 0.595111 0.612761 -0.519968 -0.644483 0.122891 -0.754679 
-0.541525 0.313943 -0.779866 0.00809206 0.570095 -0.821539 0.0111057 -0.987191 -0.159157 
0.641958 -0.759404 -0.105808 0.958493 -0.232789 -0.16462 0.982103 0.0619006 -0.177885 
-0.752128 -0.113402 -0.649186 0.283994 0.669679 -0.686205 0.041621 0.6101 -0.79123 
-0.285139 -0.957484 0.0438232 -0.515449 -0.85272 -0.084739 0.467654 -0.883603 -0.0233556 
0.371295 0.740185 -0.560594 -0.450592 0.362146 -0.815977 -0.164916 0.546613 -0.820986 
-0.145649 0.60827 -0.780252 -0.742641 -0.662279 -0.0993514 0.639468 0.6966 -0.325313 
0.201608 0.690253 -0.694914 -0.219538 0.566551 -0.794244 -0.145249 0.633912 -0.759644 
0.498153 0.712068 -0.494775 -0.397283 -0.89733 0.192264 -0.21219 -0.922956 0.321135 
0.00899355 -0.982935 0.18373 0.347676 -0.927252 0.139017 0.922315 -0.37932 0.0738399 
-0.778815 -0.577708 -0.244337 0.99539 -0.00282717 0.095874 0.901874 0.415795 -0.117211 
-0.670522 0.0749298 -0.738096 -0.472405 0.367265 -0.801218 0.466768 0.760326 -0.451699 
-0.185888 0.538565 -0.821823 0.0301533 -0.872104 0.488391 -0.329343 -0.871786 0.362661 
0.674232 -0.695185 0.249256 -0.785609 -0.618599 0.0123829 -0.859352 -0.508367 -0.0554638 
0.98281 0.14137 0.11874 0.740062 0.65939 -0.132338 0.613978 0.776534 -0.141517 
-0.594684 0.397763 -0.698667 -0.0551906 0.643578 -0.763388 0.456713 -0.75134 0.476342 
-0.523042 -0.800774 0.29187 -0.501575 -0.772081 0.390273 -0.574684 -0.775853 0.260366 
-0.726682 -0.667815 0.161109 -0.862786 -0.0912458 -0.497267 -0.840793 0.100609 -0.531925 
-0.290223 0.657148 -0.695649 -0.582534 0.622609 -0.522506 -0.260148 -0.720381 0.642942 
0.632464 -0.617173 0.468067 -0.334177 -0.750267 0.570461 0.940874 -0.226883 0.251558 
-0.609918 -0.69506 0.380647 -0.877427 -0.236546 -0.417335 0.639193 0.752412 -0.159086 
0.40154 0.789938 -0.463426 -0.263676 0.883287 -0.387658 -0.515956 0.798353 -0.310517 
0.0306274 0.833809 -0.551202 0.734345 -0.547095 0.401777 0.616524 -0.478389 0.625334 
0.861538 -0.288398 0.417826 0.884101 -0.181439 0.430633 0.866023 -0.0703121 0.495036 
-0.654728 -0.651646 0.382999 -0.476059 -0.680687 0.556806 0.884212 0.16554 0.436767 
-0.906061 -0.398754 -0.141594 0.748559 0.613332 0.25196 -0.956638 -0.241234 -0.16325 
-0.941011 -0.250619 -0.227349 -0.899473 0.196724 -0.39019 -0.691279 0.63323 -0.348072 
0.0688406 0.951295 -0.300496 0.423076 0.875424 -0.23375 -0.376384 0.919677 -0.11193 
0.0967385 0.99393 -0.0523959 0.212138 -0.70048 0.681414 0.429449 -0.370237 0.82371 
0.60937 -0.283484 0.740476 0.783095 -0.228267 0.578496 -0.397265 -0.603284 0.691541 
-0.0099247 -0.638609 0.769468 0.691788 0.0942404 0.715924 -0.875679 -0.473084 -0.09684 
-0.820636 -0.548435 0.16055 -0.87996 -0.445687 0.16442 -0.968115 -0.222117 0.11583 
-0.989825 -0.106749 0.0940812 -0.987171 0.0665242 0.14515 -0.868372 0.468826 -0.161656 
0.696492 0.717538 0.00623673 0.54501 0.831039 0.111077 -0.64129 0.766099 0.0429028 
-0.175201 0.983824 0.0373409 0.171893 -0.402548 0.899115 0.0357639 -0.612112 0.789962 
0.696264 -0.169025 0.6976 -0.289042 -0.592064 0.752273 0.185967 -0.468564 0.863635 
-0.680336 -0.581011 0.446732 0.686256 0.189738 0.702176 -0.904704 -0.161133 0.394395 
0.717118 0.624493 0.309434 -0.864832 0.3991 0.304605 0.00716938 0.992074 0.125452 
0.191971 0.971953 0.135848 0.428549 -0.0310133 0.902986 -0.5938 -0.641089 0.486216 
0.113771 -0.348976 0.9302 0.423103 -0.182814 0.887448 -0.829346 -0.462131 0.314039 
0.613435 -0.011305 0.789665 -0.821253 -0.480593 0.307528 -0.913793 -0.3497 0.206618 
-0.892924 -0.264766 0.364123 0.623628 0.376645 0.685001 -0.91965 -0.197465 0.339487 
-0.886175 0.183281 0.425562 -0.859227 0.0871439 0.504119 0.478924 0.795796 0.370595 
-0.594421 0.772122 0.224703 -0.210136 0.913298 0.348898 0.216547 0.883522 0.415327 
-0.364374 -0.45833 0.810658 0.383685 0.0362647 0.922752 -0.670084 -0.489552 0.557967 
0.125781 -0.23461 0.963918 -0.835795 -0.325625 0.442059 0.438045 -0.0445676 0.897848 
0.44076 0.0441845 0.896537 -0.73118 -0.234416 0.640644 0.422981 0.0658291 0.903744 
-0.785445 0.23549 0.572381 -0.627625 0.394986 0.670875 -0.704014 0.581119 0.408246 
-0.340099 0.582625 0.73816 0.467458 0.628493 0.621674 -0.0883755 0.724354 0.683741 
0.0914418 -0.26478 0.959964 -0.490568 -0.29899 0.818504 -0.0650716 -0.27136 0.960276 
0.238621 -0.141777 0.960708 0.285563 0.113278 0.951642 -0.489542 -0.175119 0.854214 
0.356767 0.142889 0.923201 -0.759166 -0.15293 0.632677 -0.551361 -0.0511064 0.8327 
0.429804 0.274863 0.860069 0.443193 0.250499 0.860715 0.351575 0.393808 0.8493 
-0.606673 0.332622 0.722018 -0.577527 0.128396 0.806212 -0.411828 0.437867 0.799169 
-0.462129 0.464402 0.755492 -0.294089 0.377273 0.878167 0.216842 0.569008 0.793228 
0.230626 0.407408 0.883646 -0.168617 0.605877 0.777484 -0.199743 -0.240785 0.949803 
-0.0544051 -0.0164891 0.998383 -0.108659 0.0197661 0.993882 -0.15411 0.19187 0.969245 
0.00120262 0.107448 0.99421 -0.0598976 0.301448 0.951599 -0.0941774 -0.15586 -0.983279 
-0.418376 -0.100455 -0.902702 0.128617 -0.123429 -0.983983 -0.232107 0.098 -0.967741 
-0.0283244 0.0304133 -0.999136 0.287188 0.00930407 -0.957829 0.148999 0.208717 -0.966559 
-0.185316 0.162271 -0.969188 -0.359141 -0.55529 -0.750114 -0.0673651 -0.346241 -0.935724 
-0.37263 -0.454214 -0.80922 -0.177913 -0.376498 -0.909173 0.083888 -0.267132 -0.960002 
-0.637476 -0.349848 -0.686462 -0.715629 -0.202092 -0.668606 0.502049 0.164736 -0.849005 
0.340725 0.32072 -0.883768 0.161009 0.330972 -0.929803 0.539977 0.458919 -0.705562 
0.292379 0.451983 -0.842749 -0.505548 0.143526 -0.850777 -0.244106 0.402118 -0.882447 
-0.42904 0.587608 -0.686033 -0.0527671 0.440037 -0.896428 -0.174599 -0.579847 -0.795797 
-0.687232 -0.473134 -0.551231 -0.560899 -0.620913 -0.547595 0.269761 -0.148756 -0.951368 
-0.750979 -0.255705 -0.608806 -0.827307 -0.455898 -0.328207 -0.739225 -0.0770257 -0.669039 
-0.906554 -0.302635 -0.294231 -0.826964 -0.094953 -0.554179 0.449372 0.451699 -0.770735 
-0.77541 0.391435 -0.495498 0.236656 0.633746 -0.736451 -0.184786 0.750127 -0.634952 
-0.239244 0.901197 -0.361396 -0.68968 -0.642104 -0.33473 0.271831 -0.214824 -0.938061 
-0.841838 -0.475563 -0.255244 0.490023 0.0415193 -0.87072 0.598761 0.207862 -0.773485 
-0.91489 -0.275661 -0.294935 0.682029 0.452214 -0.574751 -0.947047 -0.105091 -0.30341 
-0.858532 0.0551267 -0.509788 -0.834938 0.131594 -0.534379 -0.896924 0.340411 -0.282218 
0.565803 0.673324 -0.475922 -0.651435 0.679393 -0.337723 -0.37768 0.911428 -0.163272 
0.189419 0.894626 -0.404678 0.429476 0.858609 -0.279896 0.00160531 0.98373 -0.179648 
0.271081 -0.207785 -0.939862 0.0840866 -0.33075 -0.939965 0.349408 -0.379133 -0.856839 
0.469057 -0.143738 -0.871392 -0.391285 -0.578182 -0.715962 -0.144817 -0.497691 -0.85518 
0.285554 -0.190206 -0.939298 0.687756 -0.0228549 -0.725582 0.046274 -0.370309 -0.927755 
-0.944603 -0.239679 -0.224232 -0.988484 -0.136593 0.0651333 -0.997157 0.023111 -0.0717268 
-0.992039 0.0877722 0.0903002 0.6982 0.646742 -0.306987 -0.845188 0.510801 -0.157287 
-0.695172 0.707733 -0.125899 0.491251 0.859519 -0.141065 -0.29282 0.956156 -0.00478858 
0.141843 0.984649 -0.101719 0.378603 -0.378346 -0.844698 0.163169 -0.541819 -0.824504 
0.512872 -0.550173 -0.658993 0.233178 -0.447464 -0.863368 0.655542 -0.280982 -0.700938 
-0.438768 -0.586574 -0.680745 -0.723026 -0.586849 -0.364475 -0.613834 -0.68157 -0.398334 
0.876074 0.111779 -0.469041 0.797241 0.228339 -0.55881 -0.920686 -0.387521 -0.0465334 
0.816224 0.434625 -0.380631 -0.953265 0.0743568 0.292842 -0.921229 0.33517 0.197478 
0.537455 0.843051 0.0201815 -0.475248 0.876284 0.0791499 0.0988984 0.99361 0.0543918 
0.193167 -0.684605 -0.702853 0.259095 -0.754305 -0.603236 -0.152031 -0.680891 -0.716431 
-0.150825 -0.567699 -0.809302 0.853323 -0.198114 -0.482277 -0.396747 -0.698263 -0.595836 
-0.70516 -0.691133 -0.15838 -0.789304 -0.59045 -0.16843 -0.80429 -0.59303 -0.0378598 
0.946637 -0.0135409 -0.322016 -0.87266 -0.479028 0.0948506 -0.923705 -0.336571 0.182999 
-0.934296 -0.304412 0.185537 -0.735135 0.632164 0.244836 -0.543461 0.759798 0.356871 
-0.335371 0.925078 0.178206 -0.215526 -0.788892 -0.575498 0.0535042 -0.836366 -0.545554 
0.561435 -0.724643 -0.399605 -0.535018 -0.71087 -0.45653 0.662768 -0.576551 -0.477837 
0.93544 -0.348749 -0.0576682 -0.646769 -0.656876 -0.387562 -0.823604 -0.549236 0.141481 
-0.837942 -0.539138 -0.0847534 0.752211 0.657985 -0.0351223 0.733238 0.674057 -0.0894928 
-0.839167 -0.0821647 0.537632 0.675311 0.697696 0.239113 -0.765368 0.300313 0.569231 
-0.529365 0.483828 0.69691 -0.303869 0.831025 0.465898 0.236565 0.891702 0.385882 