# vtk DataFile Version 4.2
vtk output
ASCII
DATASET POLYDATA
POINTS 648 float
327.185 173.844 151.803 327.008 173.703 151.87 326.944 173.894 151.907 
327.38 173.881 151.81 327.327 173.698 151.85 327.578 173.82 151.888 
327.522 173.997 151.926 325.987 173.014 152.398 325.741 173.143 152.375 
325.456 173.342 152.44 327.051 172.978 152.3 327.699 173.555 152.055 
328.211 173.658 152.233 328.427 173.478 152.38 325.34 173.633 152.457 
326.515 173.697 152.066 327.88 173.949 152.11 328.526 173.673 152.416 
328.427 173.972 152.432 326.006 174.067 152.359 326.764 174.182 152.201 
327.477 174.274 152.216 328.555 174.329 152.725 328.237 174.58 152.725 
325.497 172.944 152.659 327.727 172.742 152.644 327.956 172.62 152.894 
324.701 173.034 152.959 328.625 173.503 152.557 328.472 173.253 152.606 
328.935 173.586 153.13 328.807 174.211 152.91 326.691 175.354 153.611 
328.525 174.64 153.042 327.99 175.14 153.549 328.467 174.895 153.468 
327.429 172.113 153.584 328.243 172.671 153.06 323.638 173.019 153.732 
328.902 173.229 153.392 328.792 174.783 153.94 324.965 171.618 154.823 
327.837 171.79 154.409 328.115 172.113 154.085 328.59 172.474 153.984 
328.767 172.815 153.69 321.919 173.297 155.024 322.781 174.381 154.593 
323.356 174.628 154.311 325.023 175.745 154.91 329.072 174.541 154.511 
328.377 175.332 154.738 325.383 171.08 156.068 327.36 171.471 155.135 
328.035 171.844 154.548 322.346 172.703 155.114 322.41 172.149 155.826 
328.834 172.668 154.2 320.905 173.433 155.937 329.266 174.215 155.18 
327.755 175.811 155.591 328.761 175.148 155.389 320.33 172.97 156.938 
319.922 173.61 157.033 329.343 173.823 155.882 321.311 174.879 156.241 
329.064 174.861 156.094 328.219 175.691 156.306 322.852 171.201 157.271 
324.684 170.757 157.456 326.476 170.967 157.134 320.813 172.174 157.356 
319.486 173.625 157.6 329.261 174.494 156.816 321.401 175.654 157.35 
323.522 176.425 157.595 328.634 175.458 157.059 327.782 171.467 157.268 
328.683 172.24 157.344 319.05 173.441 158.196 318.771 173.093 158.821 
318.916 174.218 158.283 326.41 176.552 158.085 326.751 170.902 159.108 
329.071 172.905 158.388 318.637 175.182 159.489 328.795 172.55 159.264 
317.141 173.954 160.326 316.851 174.017 160.714 329.227 174.403 159.011 
317.09 174.222 160.418 317.31 174.5 160.304 318.381 175.535 160.253 
316.401 173.614 161.499 329.049 173.458 159.856 316.042 173.848 161.833 
316.018 174.164 161.786 316.243 174.38 161.533 315.905 174.482 162.033 
329.023 174.895 159.851 316.748 175.152 161.555 328.861 175.242 159.941 
327.093 176.507 160.91 324.209 170.165 162.341 315.836 175.011 162.52 
328.062 175.802 161.237 328.145 175.525 161.677 325.791 176.887 162.175 
318.925 171.012 163.169 327.599 172.153 162.552 316.392 172.553 163.055 
328.482 173.246 161.636 328.291 173.967 162.466 314.746 174.491 163.657 
328.221 174.639 162.468 328.358 175.056 161.757 327.462 175.883 162.575 
317.012 171.698 164.126 327.93 173.466 163.28 314.689 173.735 163.997 
314.172 174.374 164.44 314.006 174.605 164.681 314.122 175.147 164.699 
327.606 175.396 163.285 323.135 177.393 164.343 322.425 169.972 165.427 
318.323 170.922 164.601 326.33 171.415 164.707 313.472 174.27 165.55 
313.142 175.031 165.921 313.537 175.282 165.463 313.877 175.59 165.254 
326.512 172.006 165.643 326.845 172.703 165.746 313.215 174.076 166.123 
327.146 174.594 165.391 312.875 175.339 166.418 315.298 176.988 166 
318.154 170.466 167.227 312.924 173.591 167.345 326.848 173.393 166.297 
312.271 174.764 167.294 311.876 175.529 167.798 312.757 176.488 167.486 
325.838 176.061 166.781 319.142 177.877 166.861 320.553 169.894 168.482 
325.146 171.286 167.796 325.607 171.901 168.032 314.716 171.972 167.665 
326.376 175.305 167.012 326.335 174.994 167.472 311.622 176.272 168.474 
311.723 176.592 168.638 322.423 170.03 168.345 312.539 173.151 168.981 
326.145 173.893 168.375 311.196 175.211 168.876 310.96 175.542 169.284 
311.028 176.418 169.537 325.299 176.1 168.616 323.316 177.547 169.074 
310.624 175.446 170.094 310.492 175.983 170.304 325.257 175.814 169.807 
310.8 177.053 170.684 323.843 177.195 169.563 320.221 178.296 170.171 
321.115 178.153 170.12 318.239 170.027 170.604 321.401 170.01 170.324 
322.827 170.545 170.678 313.499 171.766 170.967 325.542 175.044 169.884 
325.381 175.473 169.989 310.27 177.137 172.124 323.876 176.961 170.628 
324.396 176.484 170.788 311.47 178.157 171.953 324.576 176.132 171.162 
323.301 171.428 172.612 324.669 173.074 171.929 310.271 177.956 173.594 
317.412 169.895 174.506 323.577 176.475 173.443 321.855 177.898 173.528 
311.718 179.133 174.546 318.73 169.937 174.67 310.823 172.931 174.428 
323.062 176.791 174.747 309.237 177.911 176.345 309.996 178.658 175.767 
310.468 178.984 175.596 310.264 179.069 176.316 319.913 170.372 175.855 
323.573 174.07 175.093 323.449 176.024 174.886 322.914 176.658 175.42 
320.64 178.494 175.478 315.258 179.656 176.132 310.871 179.518 176.815 
323.455 175.044 175.519 322.139 177.302 176.377 308.727 178.029 177.845 
308.505 177.753 178.167 308.92 178.734 178.782 311.487 179.72 176.705 
312.065 179.864 176.87 313.217 179.939 176.906 309.551 179.131 178.25 
310.236 179.554 178.2 314.376 170.219 177.542 316.714 169.947 177.722 
319.54 170.664 177.79 322.596 173.361 176.956 308.394 177.366 178.258 
320.837 178.217 177.739 321.157 177.827 178.286 317.724 179.484 177.896 
310.788 179.896 178.765 318.053 170.325 178.92 314.417 170.087 180.278 
308.215 175.542 179.98 308.242 178.966 181.186 317.079 179.817 179.418 
309.22 179.8 181.204 307.775 177.785 181.692 307.859 178.43 181.684 
307.921 178.783 182.031 307.661 176.952 182.311 320.618 177.204 181.143 
308.45 179.606 182.852 312.067 180.558 182.237 312.973 180.528 182.105 
319.097 172.098 182.33 308.145 174.611 182.879 320.282 175.997 182.594 
319.345 178.087 182.821 309.87 180.545 183.798 310.5 180.648 183.445 
313.781 180.472 182.956 317.411 171.364 183.543 308.295 174.212 183.342 
319.48 177.721 183.098 308.412 179.617 184.597 311.238 180.766 184.03 
317.005 179.544 183.396 318.939 173.293 184.098 307.898 179.039 185.846 
307.21 177.464 185.982 307.287 177.808 186.37 308.21 179.383 186.247 
310.161 180.498 186.056 314.395 180.138 185.653 316.387 171.973 186.551 
317.87 174.354 186.811 317.431 178.37 186.149 317.355 177.74 187.317 
310.973 180.294 187.839 316.576 173.886 188.749 307.666 174.924 189.062 
307.235 176.891 189.01 308.265 179.159 189.797 314.826 179.366 188.32 
310.013 180.015 188.9 314.141 172.324 189.636 310.296 172.536 189.768 
315.435 173.179 189.635 307.421 175.557 189.415 307.882 178.715 190.276 
311.55 172.248 190.228 307.372 177.673 191.531 309.206 179.581 190.736 
312.31 172.698 191.231 314.841 174.553 191.779 307.235 177.106 192.49 
307.131 176.853 193.28 307.11 176.979 193.681 312.79 178.433 192.704 
310.36 173.457 193.234 308.921 174.316 194.194 307.913 175.158 194.085 
307.522 175.673 193.586 307.197 176.544 194.483 311.321 178.673 193.527 
309.77 178.865 193.534 310.769 173.638 193.724 311.889 174.101 194.212 
313.1 176.503 194.505 312.153 177.289 194.963 312.495 176.9 194.988 
313.192 177.214 193.939 308.166 178.19 194.439 309.701 178.574 194.314 
310.077 174.286 195.179 310.695 174.182 194.921 311.732 174.635 195.114 
312.382 175.719 195.279 312.438 176.136 195.335 307.388 176.618 195.522 
307.296 176.798 195.231 312.197 176.355 195.564 308.066 177.578 195.515 
308.869 178.296 194.781 308.584 175.011 195.941 308.899 174.959 196.213 
309.409 174.791 196.143 307.861 175.893 196.104 307.437 176.861 195.535 
307.641 176.623 196.012 311.129 177.26 195.94 308.497 177.532 196.012 
309.587 175.003 196.578 310.296 175.067 196.511 308.368 175.782 196.929 
308.611 175.471 196.81 310.545 175.387 196.64 310.744 176.744 196.719 
310.861 176.499 196.74 308.071 176.878 196.669 309.624 177.199 196.677 
310.054 177.102 196.736 308.114 177.072 196.516 308.618 175.638 197.048 
309.426 175.445 197.034 309.947 175.58 197.036 309.876 175.96 197.227 
308.164 176.354 196.919 309.765 176.282 197.273 310.724 176.165 196.843 
308.478 176.395 197.186 309.486 176.412 197.32 308.279 176.972 196.756 
308.6 176.632 197.171 308.654 176.931 196.915 309.114 175.834 197.287 
308.79 176.144 197.323 309.098 176.102 197.395 308.763 176.44 197.311 
309.105 176.354 197.368 309.268 176.151 257.967 309.232 176.079 258.042 
309.204 176.216 258.027 309.366 176.091 258.048 309.338 176.228 258.033 
308.834 175.785 258.436 308.475 175.825 258.533 309.401 175.828 258.312 
310.66 175.869 258.661 311.057 175.678 258.925 308.283 175.968 258.616 
308.185 176.25 258.74 309.014 176.132 258.196 309.669 176.188 258.217 
311.107 176.155 258.844 308.435 176.525 258.566 308.781 176.418 258.328 
309.262 176.495 258.229 310.439 176.739 258.563 310.793 176.526 258.663 
308.412 176.836 258.729 308.591 177.071 258.827 309.617 176.895 258.443 
309.033 177.226 258.856 310.159 174.854 259.145 308.303 175.753 258.729 
307.888 176.274 259.228 311.568 176.073 259.116 307.715 176.741 259.634 
310.809 176.737 258.707 308.316 177.034 259.007 309.469 177.165 258.681 
309.902 177.181 258.729 308.952 174.758 259.539 310.055 174.21 260.109 
311.385 174.736 259.705 311.329 174.475 259.97 308.182 175.253 259.747 
312.574 175.357 260.171 312.394 175.904 259.806 307.425 176.639 260.017 
307.314 176.786 260.301 307.48 176.911 260.076 307.781 177.258 260.096 
311.143 177.102 259.218 309.255 174.122 260.654 312.299 174.378 260.721 
307.383 176.051 260.554 307.18 176.414 260.915 308.634 178.161 260.648 
311.807 177.556 260.342 308.901 178.463 261.2 310.53 173.554 261.395 
312.133 173.659 261.539 308.602 174.234 261.453 307.814 175.026 261.346 
307.28 177.1 261.067 308.053 177.975 261.197 310.503 178.596 261.155 
309.322 173.577 262.299 314.295 175.345 262.178 307.091 176.534 262.017 
307.075 176.722 261.675 307.177 177.027 261.628 307.348 177.298 262.303 
311.57 178.656 261.8 308.204 178.397 262.69 314.966 174.547 263.365 
307.244 175.923 262.909 308.045 178.401 263.497 312.622 172.223 264.734 
[...]
POINT_DATA 648
COLOR_SCALARS scalars 3
1 0.501961 0.517647 1 0.501961 0.517647 1 0.501961 0.517647 
1 0.501961 0.517647 1 0.501961 0.517647 
1 0.501961 0.517647 1 0.501961 0.517647 
1 0.501961 0.517647 1 0.501961 0.517647 
1 0.501961 0.517647 1 0.501961 0.517647 
1 0.501961 0.517647 1 0.501961 0.517647 
1 0.501961 0.517647 1 0.501961 0.517647 
1 0.501961 0.517647 1 0.501961 0.517647 
1 0.501961 0.517647 1 0.501961 0.517647 
1 0.501961 0.517647 1 0.501961 0.517647 
1 0.501961 0.517647 1 0.501961 0.517647 
1 0.501961 0.517647 1 0.501961 0.517647 
1 0.501961 0.517647 1 0.501961 0.517647 
1 0.501961 0.517647 1 0.501961 0.517647 
1 0.501961 0.517647 1 0.501961 0.517647 
1 0.501961 0.517647 1 0.501961 0.517647 
1 0.501961 0.517647 1 0.501961 0.517647 
1 0.501961 0.517647 1 0.501961 0.517647 
1 0.501961 0.517647 1 0.501961 0.517647 
1 0.501961 0.517647 1 0.501961 0.517647 
1 0.501961 0.517647 1 0.501961 0.517647 
1 0.501961 0.517647 1 0.501961 0.517647 
1 0.501961 0.517647 1 0.501961 0.517647 
1 0.501961 0.517647 1 0.501961 0.517647 
1 0.501961 0.517647 1 0.501961 0.517647 
1 0.501961 0.517647 1 0.501961 0.517647 
1 0.501961 0.517647 1 0.501961 0.517647 
1 0.501961 0.517647 1 0.501961 0.517647 
1 0.501961 0.517647 1 0.501961 0.517647 
1 0.501961 0.517647 1 0.501961 0.517647 
1 0.501961 0.517647 1 0.501961 0.517647 
1 0.501961 0.517647 1 0.501961 0.517647 
1 0.501961 0.517647 1 0.501961 0.517647 
1 0.501961 0.517647 1 0.501961 0.517647 
1 0.501961 0.517647 1 0.501961 0.517647 
1 0.501961 0.517647 1 0.501961 0.517647 
1 0.501961 0.517647 1 0.501961 0.517647 
1 0.501961 0.517647 1 0.501961 0.517647 
1 0.501961 0.517647 1 0.501961 0.517647 
1 0.501961 0.517647 1 0.501961 0.517647 
1 0.501961 0.517647 1 0.501961 0.517647 
1 0.501961 0.517647 1 0.501961 0.517647 
1 0.501961 0.517647 1 0.501961 0.517647 
1 0.501961 0.517647 1 0.501961 0.517647 
1 0.501961 0.517647 1 0.501961 0.517647 
1 0.501961 0.517647 1 0.501961 0.517647 
1 0.501961 0.517647 1 0.501961 0.517647 
1 0.501961 0.517647 1 0.501961 0.517647 
1 0.501961 0.517647 1 0.501961 0.517647 
1 0.501961 0.517647 1 0.501961 0.517647 
1 0.501961 0.517647 1 0.501961 0.517647 
1 0.501961 0.517647 1 0.501961 0.517647 
1 0.501961 0.517647 1 0.501961 0.517647 
1 0.501961 0.517647 1 0.501961 0.517647 
1 0.501961 0.517647 1 0.501961 0.517647 
1 0.501961 0.517647 1 0.501961 0.517647 
1 0.501961 0.517647 1 0.501961 0.517647 
1 0.501961 0.517647 1 0.501961 0.517647 
1 0.501961 0.517647 1 0.501961 0.517647 
1 0.501961 0.517647 1 0.501961 0.517647 
1 0.501961 0.517647 1 0.501961 0.517647 
1 0.501961 0.517647 1 0.501961 0.517647 
1 0.501961 0.517647 1 0.501961 0.517647 
1 0.501961 0.517647 1 0.501961 0.517647 
1 0.501961 0.517647 1 0.501961 0.517647 
1 0.501961 0.517647 1 0.501961 0.517647 
1 0.501961 0.517647 1 0.501961 0.517647 
1 0.501961 0.517647 1 0.501961 0.517647 
1 0.501961 0.517647 1 0.501961 0.517647 
1 0.501961 0.517647 1 0.501961 0.517647 
1 0.501961 0.517647 1 0.501961 0.517647 
1 0.501961 0.517647 1 0.501961 0.517647 
1 0.501961 0.517647 1 0.501961 0.517647 
1 0.501961 0.517647 1 0.501961 0.517647 
1 0.501961 0.517647 1 0.501961 0.517647 
1 0.501961 0.517647 1 0.501961 0.517647 
1 0.501961 0.517647 1 0.501961 0.517647 
1 0.501961 0.517647 1 0.501961 0.517647 
1 0.501961 0.517647 1 0.501961 0.517647 
1 0.501961 0.517647 1 0.501961 0.517647 
1 0.501961 0.517647 1 0.501961 0.517647 
1 0.501961 0.517647 1 0.501961 0.517647 
1 0.501961 0.517647 1 0.501961 0.517647 
1 0.501961 0.517647 1 0.501961 0.517647 
1 0.501961 0.517647 1 0.501961 0.517647 
1 0.501961 0.517647 1 0.501961 0.517647 
1 0.501961 0.517647 1 0.501961 0.517647 
1 0.501961 0.517647 1 0.501961 0.517647 
1 0.501961 0.517647 1 0.501961 0.517647 
1 0.501961 0.517647 1 0.501961 0.517647 
1 0.501961 0.517647 1 0.501961 0.517647 
1 0.501961 0.517647 1 0.501961 0.517647 
1 0.501961 0.517647 1 0.501961 0.517647 
1 0.501961 0.517647 1 0.501961 0.517647 
1 0.501961 0.517647 1 0.501961 0.517647 
1 0.501961 0.517647 1 0.501961 0.517647 
1 0.501961 0.517647 1 0.501961 0.517647 
1 0.501961 0.517647 1 0.501961 0.517647 
1 0.501961 0.517647 1 0.501961 0.517647 
1 0.501961 0.517647 1 0.501961 0.517647 
1 0.501961 0.517647 1 0.501961 0.517647 
1 0.501961 0.517647 1 0.501961 0.517647 
1 0.501961 0.517647 1 0.501961 0.517647 
1 0.501961 0.517647 1 0.501961 0.517647 
1 0.501961 0.517647 1 0.501961 0.517647 
1 0.501961 0.517647 1 0.501961 0.517647 
1 0.501961 0.517647 1 0.501961 0.517647 
1 0.501961 0.517647 1 0.501961 0.517647 
1 0.501961 0.517647 1 0.501961 0.517647 
1 0.501961 0.517647 1 0.501961 0.517647 
1 0.501961 0.517647 1 0.501961 0.517647 
1 0.501961 0.517647 1 0.501961 0.517647 
1 0.501961 0.517647 1 0.501961 0.517647 
1 0.501961 0.517647 1 0.501961 0.517647 
1 0.501961 0.517647 1 0.501961 0.517647 
1 0.501961 0.517647 1 0.501961 0.517647 
1 0.501961 0.517647 1 0.501961 0.517647 
1 0.501961 0.517647 1 0.501961 0.517647 
1 0.501961 0.517647 1 0.501961 0.517647 
1 0.501961 0.517647 1 0.501961 0.517647 
1 0.501961 0.517647 1 0.501961 0.517647 
1 0.501961 0.517647 1 0.501961 0.517647 
1 0.501961 0.517647 1 0.501961 0.517647 
1 0.501961 0.517647 1 0.501961 0.517647 
1 0.501961 0.517647 1 0.501961 0.517647 
1 0.501961 0.517647 1 0.501961 0.517647 
1 0.501961 0.517647 1 0.501961 0.517647 
1 0.501961 0.517647 1 0.501961 0.517647 
1 0.501961 0.517647 1 0.501961 0.517647 
1 0.501961 0.517647 1 0.501961 0.517647 
1 0.501961 0.517647 1 0.501961 0.517647 
1 0.501961 0.517647 1 0.501961 0.517647 
1 0.501961 0.517647 1 0.501961 0.517647 
1 0.501961 0.517647 1 0.501961 0.517647 
1 0.501961 0.517647 1 0.501961 0.517647 
1 0.501961 0.517647 1 0.501961 0.517647 
1 0.501961 0.517647 1 0.501961 0.517647 
1 0.501961 0.517647 1 0.501961 0.517647 
1 0.501961 0.517647 1 0.501961 0.517647 
1 0.501961 0.517647 1 0.501961 0.517647 
1 0.501961 0.517647 1 0.501961 0.517647 
1 0.501961 0.517647 1 0.501961 0.517647 
1 0.501961 0.517647 1 0.501961 0.517647 
1 0.501961 0.517647 1 0.501961 0.517647 
1 0.501961 0.517647 1 0.501961 0.517647 
1 0.501961 0.517647 1 0.501961 0.517647 
1 0.501961 0.517647 1 0.501961 0.517647 
1 0.501961 0.517647 1 0.501961 0.517647 
1 0.501961 0.517647 1 0.501961 0.517647 
1 0.501961 0.517647 1 0.501961 0.517647 
1 0.501961 0.517647 1 0.501961 0.517647 
1 0.501961 0.517647 1 0.501961 0.517647 
1 0.501961 0.517647 1 0.501961 0.517647 
1 0.501961 0.517647 1 0.501961 0.517647 
1 0.501961 0.517647 1 0.501961 0.517647 
1 0.501961 0.517647 1 0.501961 0.517647 
1 0.501961 0.517647 1 0.501961 0.517647 
1 0.501961 0.517647 1 0.501961 0.517647 
1 0.501961 0.517647 1 0.501961 0.517647 
1 0.501961 0.517647 1 0.501961 0.517647 
1 0.501961 0.517647 1 0.501961 0.517647 
1 0.501961 0.517647 1 0.501961 0.517647 
1 0.501961 0.517647 1 0.501961 0.517647 
1 0.501961 0.517647 1 0.501961 0.517647 
1 0.501961 0.517647 1 0.501961 0.517647 
1 0.501961 0.517647 1 0.501961 0.517647 
1 0.501961 0.517647 1 0.501961 0.517647 
1 0.501961 0.517647 1 0.501961 0.517647 
1 0.501961 0.517647 1 0.501961 0.517647 
1 0.501961 0.517647 1 0.501961 0.517647 
1 0.501961 0.517647 1 0.501961 0.517647 
1 0.501961 0.517647 1 0.501961 0.517647 
1 0.501961 0.517647 1 0.501961 0.517647 
1 0.501961 0.517647 1 0.501961 0.517647 
1 0.501961 0.517647 1 0.501961 0.517647 
1 0.501961 0.517647 1 0.501961 0.517647 
1 0.501961 0.517647 1 0.501961 0.517647 
1 0.501961 0.517647 1 0.501961 0.517647 
1 0.501961 0.517647 1 0.501961 0.517647 
1 0.501961 0.517647 1 0.501961 0.517647 
1 0.501961 0.517647 1 0.501961 0.517647 
1 0.501961 0.517647 1 0.501961 0.517647 
1 0.501961 0.517647 1 0.501961 0.517647 
1 0.501961 0.517647 1 0.501961 0.517647 
1 0.501961 0.517647 1 0.501961 0.517647 
1 0.501961 0.517647 1 0.501961 0.517647 
1 0.501961 0.517647 1 0.501961 0.517647 
1 0.501961 0.517647 1 0.501961 0.517647 
1 0.501961 0.517647 1 0.501961 0.517647 
1 0.501961 0.517647 1 0.501961 0.517647 
1 0.501961 0.517647 1 0.501961 0.517647 
1 0.501961 0.517647 1 0.501961 0.517647 
1 0.501961 0.517647 1 0.501961 0.517647 
1 0.501961 0.517647 1 0.501961 0.517647 
1 0.501961 0.517647 1 0.501961 0.517647 
1 0.501961 0.517647 1 0.501961 0.517647 
1 0.501961 0.517647 1 0.501961 0.517647 
1 0.501961 0.517647 1 0.501961 0.517647 
1 0.501961 0.517647 1 0.501961 0.517647 
1 0.501961 0.517647 1 0.501961 0.517647 
1 0.501961 0.517647 1 0.501961 0.517647 
1 0.501961 0.517647 1 0.501961 0.517647 
1 0.501961 0.517647 1 0.501961 0.517647 
1 0.501961 0.517647 1 0.501961 0.517647 
1 0.501961 0.517647 1 0.501961 0.517647 
1 0.501961 0.517647 1 0.501961 0.517647 
1 0.501961 0.517647 1 0.501961 0.517647 
1 0.501961 0.517647 1 0.501961 0.517647 
1 0.501961 0.517647 1 0.501961 0.517647 
1 0.501961 0.517647 1 0.501961 0.517647 
1 0.501961 0.517647 1 0.501961 0.517647 
1 0.501961 0.517647 1 0.501961 0.517647 
1 0.501961 0.517647 1 0.501961 0.517647 
1 0.501961 0.517647 1 0.501961 0.517647 
1 0.501961 0.517647 1 0.501961 0.517647 
1 0.501961 0.517647 1 0.501961 0.517647 
1 0.501961 0.517647 1 0.501961 0.517647 
1 0.501961 0.517647 1 0.501961 0.517647 
1 0.501961 0.517647 1 0.501961 0.517647 
1 0.501961 0.517647 1 0.501961 0.517647 
1 0.501961 0.517647 1 0.501961 0.517647 
1 0.501961 0.517647 1 0.501961 0.517647 
1 0.501961 0.517647 1 0.501961 0.517647 
1 0.501961 0.517647 1 0.501961 0.517647 
1 0.501961 0.517647 1 0.501961 0.517647 
1 0.501961 0.517647 1 0.501961 0.517647 
1 0.501961 0.517647 1 0.501961 0.517647 
1 0.501961 0.517647 1 0.501961 0.517647 
1 0.501961 0.517647 1 0.501961 0.517647 
1 0.501961 0.517647 1 0.501961 0.517647 
1 0.501961 0.517647 1 0.501961 0.517647 
1 0.501961 0.517647 1 0.501961 0.517647 
1 0.501961 0.517647 1 0.501961 0.517647 
1 0.501961 0.517647 1 0.501961 0.517647 
1 0.501961 0.517647 1 0.501961 0.517647 
1 0.501961 0.517647 1 0.501961 0.517647 
1 0.501961 0.517647 1 0.501961 0.517647 
1 0.501961 0.517647 1 0.501961 0.517647 
1 0.501961 0.517647 1 0.501961 0.517647 
1 0.501961 0.517647 1 0.501961 0.517647 
1 0.501961 0.517647 1 0.501961 0.517647 
1 0.501961 0.517647 1 0.501961 0.517647 
1 0.501961 0.517647 1 0.501961 0.517647 
1 0.501961 0.517647 1 0.501961 0.517647 
1 0.501961 0.517647 1 0.501961 0.517647 
1 0.501961 0.517647 1 0.501961 0.517647 
1 0.501961 0.517647 1 0.501961 0.517647 
1 0.501961 0.517647 1 0.501961 0.517647 
1 0.501961 0.517647 1 0.501961 0.517647 
1 0.501961 0.517647 1 0.501961 0.517647 
1 0.501961 0.517647 1 0.501961 0.517647 
1 0.501961 0.517647 1 0.501961 0.517647 
1 0.501961 0.517647 1 0.501961 0.517647 
1 0.501961 0.517647 1 0.501961 0.517647 
1 0.501961 0.517647 1 0.501961 0.517647 
1 0.501961 0.517647 1 0.501961 0.517647 
1 0.501961 0.517647 1 0.501961 0.517647 
1 0.501961 0.517647 1 0.501961 0.517647 
1 0.501961 0.517647 1 0.501961 0.517647 
1 0.501961 0.517647 1 0.501961 0.517647 
1 0.501961 0.517647 1 0.501961 0.517647 
1 0.501961 0.517647 1 0.501961 0.517647 
1 0.501961 0.517647 1 0.501961 0.517647 
1 0.501961 0.517647 1 0.501961 0.517647 
1 0.501961 0.517647 1 0.501961 0.517647 
1 0.501961 0.517647 1 0.501961 0.517647 
1 0.501961 0.517647 1 0.501961 0.517647 
1 0.501961 0.517647 1 0.501961 0.517647 
1 0.501961 0.517647 1 0.501961 0.517647 
1 0.501961 0.517647 1 0.501961 0.517647 
1 0.501961 0.517647 1 0.501961 0.517647 
1 0.501961 0.517647 1 0.501961 0.517647 
1 0.501961 0.517647 1 0.501961 0.517647 
1 0.501961 0.517647 1 0.501961 0.517647 
1 0.501961 0.517647 1 0.501961 0.517647 
1 0.501961 0.517647 1 0.501961 0.517647 
1 0.501961 0.517647 1 0.501961 0.517647 
1 0.501961 0.517647 1 0.501961 0.517647 
1 0.501961 0.517647 1 0.501961 0.517647 
1 0.501961 0.517647 1 0.501961 0.517647 
1 0.501961 0.517647 1 0.501961 0.517647 
1 0.501961 0.517647 1 0.501961 0.517647 
1 0.501961 0.517647 1 0.501961 0.517647 
1 0.501961 0.517647 1 0.501961 0.517647 
1 0.501961 0.517647 1 0.501961 0.517647 
1 0.501961 0.517647 1 0.501961 0.517647 
1 0.501961 0.517647 1 0.501961 0.517647 
1 0.501961 0.517647 1 0.501961 0.517647 
1 0.501961 0.517647 1 0.501961 0.517647 
1 0.501961 0.517647 1 0.501961 0.517647 
1 0.501961 0.517647 1 0.501961 0.517647 
1 0.501961 0.517647 1 0.501961 0.517647 
1 0.501961 0.517647 1 0.501961 0.517647 
1 0.501961 0.517647 1 0.501961 0.517647 
1 0.501961 0.517647 1 0.501961 0.517647 
1 0.501961 0.517647 1 0.501961 0.517647 
1 0.501961 0.517647 1 0.501961 0.517647 
1 0.501961 0.517647 1 0.501961 0.517647 
1 0.501961 0.517647 1 0.501961 0.517647 
1 0.501961 0.517647 1 0.501961 0.517647 
1 0.501961 0.517647 1 0.501961 0.517647 
1 0.501961 0.517647 1 0.501961 0.517647 
1 0.501961 0.517647 1 0.501961 0.517647 
1 0.501961 0.517647 1 0.501961 0.517647 
1 0.501961 0.517647 1 0.501961 0.517647 
1 0.501961 0.517647 1 0.501961 0.517647 
1 0.501961 0.517647 1 0.501961 0.517647 
1 0.501961 0.517647 1 0.501961 0.517647 
1 0.501961 0.517647 1 0.501961 0.517647 
1 0.501961 0.517647 1 0.501961 0.517647 
1 0.501961 0.517647 1 0.501961 0.517647 
1 0.501961 0.517647 1 0.501961 0.517647 
1 0.501961 0.517647 1 0.501961 0.517647 
1 0.501961 0.517647 1 0.501961 0.517647 
1 0.501961 0.517647 1 0.501961 0.517647 
1 0.501961 0.517647 1 0.501961 0.517647 
1 0.501961 0.517647 1 0.501961 0.517647 
1 0.501961 0.517647 1 0.501961 0.517647 
1 0.501961 0.517647 1 0.501961 0.517647 
1 0.501961 0.517647 1 0.501961 0.517647 
1 0.501961 0.517647 1 0.501961 0.517647 
1 0.501961 0.517647 1 0.501961 0.517647 
1 0.501961 0.517647 1 0.501961 0.517647 
1 0.501961 0.517647 
NORMALS Normals float
-0.136488 0.377678 -0.915822 -0.260367 -0.38789 -0.884167 -0.374003 0.314722 -0.872394 
0.190737 0.166172 -0.967474 0.0629277 -0.492711 -0.867915 0.450997 -0.0461242 -0.891333 
0.234976 0.601077 -0.763867 -0.108407 -0.4143 -0.903661 0.451056 0.783479 -0.427446 
-0.245788 -0.0702644 -0.966774 0.0647441 -0.654413 -0.753361 0.368105 -0.403314 -0.837757 
0.44455 0.00154837 -0.895753 0.482406 -0.397832 -0.780394 -0.449256 0.0763384 -0.890135 
-0.342759 -0.0539225 -0.937875 0.457946 0.317751 -0.830253 0.657924 0.0450855 -0.751734 
0.530196 0.337309 -0.777891 -0.347213 0.548953 -0.760325 -0.165641 0.707416 -0.687114 
0.0862335 0.754128 -0.651041 0.557624 0.518963 -0.647867 0.278504 0.7343 -0.619063 
-0.22786 -0.785593 -0.575259 0.104681 -0.788995 -0.605416 0.359685 -0.69609 -0.621357 
-0.443353 -0.53376 -0.720096 0.794848 -0.317951 -0.516841 0.57382 -0.592304 -0.565603 
0.974632 -0.109707 -0.19508 0.818747 0.332886 -0.467803 -0.0749826 0.852962 -0.516559 
0.576883 0.676633 -0.457573 0.249423 0.902547 -0.350994 0.657209 0.630325 -0.413238 
0.13463 -0.883808 -0.448061 0.574679 -0.700491 -0.42315 -0.567936 -0.35504 -0.74256 
0.853704 -0.420221 -0.307577 0.744289 0.579646 -0.331731 -0.226814 -0.846247 -0.482101 
0.17209 -0.916851 -0.360234 0.494444 -0.790041 -0.362436 0.612209 -0.737329 -0.285562 
0.676586 -0.628965 -0.382928 -0.66928 -0.238578 -0.703665 -0.560243 0.471401 -0.681109 
-0.45631 0.673631 -0.58138 -0.177031 0.905474 -0.385716 0.908539 0.339652 -0.243297 
0.575549 0.795523 -0.189437 0.00497172 -0.967725 -0.251962 0.152267 -0.945979 -0.286249 
0.629219 -0.757317 -0.174799 -0.490354 -0.687221 -0.535986 -0.433659 -0.772618 -0.463682 
0.837029 -0.533005 -0.12365 -0.688102 -0.214423 -0.693209 0.956565 0.273139 -0.10187 
0.202153 0.974212 -0.100225 0.713478 0.690782 -0.117342 -0.686978 -0.506254 -0.521314 
-0.75727 -0.0405116 -0.651845 0.999202 0.0325601 -0.023131 -0.526205 0.606934 -0.5956 
0.854793 0.515266 -0.0618954 0.395744 0.916364 0.0605255 -0.310972 -0.905428 -0.288959 
-0.0691997 -0.963988 -0.256786 0.223218 -0.95528 -0.193945 -0.555478 -0.735264 -0.388371 
-0.730676 -0.386022 -0.563116 0.942183 0.334876 0.0121902 -0.43102 0.776898 -0.458968 
-0.167096 0.955133 -0.24454 0.525379 0.846887 0.0822214 0.486794 -0.872364 -0.044858 
0.781842 -0.623436 0.00706216 -0.744457 -0.203541 -0.635889 -0.559971 -0.692984 -0.454098 
-0.726147 0.28994 -0.623414 0.244018 0.964083 -0.104874 0.478264 -0.874601 0.0796014 
0.869939 -0.492245 0.0300189 -0.353142 0.838725 -0.414526 0.838455 -0.501047 0.214347 
-0.755199 -0.186096 -0.628524 -0.798403 -0.0238635 -0.60165 0.996156 0.0590943 0.064667 
-0.768938 0.253887 -0.586751 -0.719185 0.369662 -0.588322 -0.375613 0.816768 -0.437955 
-0.689668 -0.382129 -0.61509 0.897875 -0.325614 0.296303 -0.81814 -0.278539 -0.503054 
-0.815499 -0.0575968 -0.575885 -0.749339 0.211065 -0.627648 -0.831499 0.180692 -0.525319 
0.940644 0.22522 0.2539 -0.642481 0.548787 -0.534838 0.822019 0.567255 0.0500681 
0.331339 0.943481 0.00757579 -0.074537 -0.993033 -0.0912702 -0.640117 0.567618 -0.517745 
0.762648 0.59708 0.248723 0.736954 0.598892 0.313413 0.290096 0.955193 0.0587389 
-0.315634 -0.908014 -0.275475 0.833401 -0.501878 0.231435 -0.569995 -0.70886 -0.41548 
0.930006 -0.263803 0.255925 0.931463 -0.0440254 0.361163 -0.783943 0.140933 -0.604625 
0.871401 0.32227 0.369869 0.928633 0.267032 0.257555 0.641952 0.705106 0.301202 
-0.52699 -0.815592 -0.238937 0.93864 -0.10093 0.329801 -0.730865 -0.586555 -0.348984 
-0.863113 -0.168165 -0.47619 -0.786181 -0.409861 -0.46253 -0.757565 0.239515 -0.607229 
0.794301 0.498922 0.346646 -0.0172721 0.979924 -0.198621 0.0378712 -0.998271 -0.0449438 
-0.304092 -0.923404 -0.234207 0.601524 -0.780606 0.169772 -0.802909 -0.226195 -0.551519 
-0.801963 0.273819 -0.530922 -0.78273 0.253525 -0.568383 -0.650028 0.53039 -0.544197 
0.733925 -0.616811 0.284426 0.892369 -0.341038 0.295584 -0.700694 -0.566207 -0.434093 
0.942046 0.174077 0.286785 -0.837262 0.00358241 -0.54679 -0.280498 0.903124 -0.325096 
-0.357935 -0.925494 -0.123866 -0.741701 -0.516184 -0.428292 0.893894 -0.320013 0.313919 
-0.79893 -0.305252 -0.518201 -0.747331 0.247079 -0.616805 -0.577061 0.606638 -0.546801 
0.733073 0.632371 0.250421 -0.00761633 0.973759 -0.227454 -0.105342 -0.994346 -0.0133763 
0.664111 -0.715852 0.215667 0.835156 -0.475453 0.276512 -0.514719 -0.805243 -0.29436 
0.915567 0.322912 0.239718 0.908991 0.325666 0.260148 -0.74894 0.33759 -0.570194 
-0.592208 0.596547 -0.541685 0.329224 -0.939476 0.0948513 -0.754361 -0.603356 -0.258652 
0.95351 -0.079846 0.290591 -0.879943 -0.105845 -0.463139 -0.906397 -0.167489 -0.387805 
-0.778505 0.382677 -0.497482 0.757933 0.632978 0.157723 0.46049 0.883627 0.0845733 
-0.91063 -0.278463 -0.305304 -0.963965 0.0484847 -0.261574 0.80089 0.578551 0.154444 
-0.706224 0.588892 -0.393007 0.541301 0.827576 0.148695 0.098876 0.992745 0.0684162 
0.233669 0.960389 0.151824 -0.0830991 -0.996539 0.00224349 0.0227775 -0.975616 0.218298 
0.440068 -0.856682 0.26914 -0.608018 -0.776349 -0.166123 0.924924 0.237682 0.296687 
0.865632 0.42229 0.268985 -0.916255 0.347597 -0.199128 0.532297 0.809002 0.249351 
0.706744 0.653787 0.270325 -0.386225 0.844948 -0.369991 0.769639 0.544823 0.332903 
0.72232 -0.625658 0.294627 0.846324 -0.412564 0.336937 -0.868913 0.439762 -0.227154 
-0.0224513 -0.997838 0.0617743 0.861762 0.461123 0.2115 0.54279 0.835253 0.0879228 
-0.296751 0.888964 -0.34883 0.146956 -0.984965 0.0908164 -0.725803 -0.664403 -0.178264 
0.724928 0.654161 0.215761 -0.89836 0.323554 -0.297091 -0.633916 0.702665 -0.323129 
-0.512052 0.772997 -0.374538 -0.518744 0.817732 -0.249438 0.365888 -0.913828 0.176192 
0.930486 -0.1149 0.347841 0.862801 0.284445 0.41793 0.742353 0.606362 0.285019 
0.305444 0.951396 -0.0393624 0.053017 0.985506 -0.161146 -0.386329 0.907483 -0.164996 
0.897808 0.164178 0.408639 0.765768 0.548358 0.336009 -0.832239 0.441596 -0.335219 
-0.930352 0.319665 -0.17961 -0.826982 0.529943 -0.187783 -0.236424 0.93105 -0.277936 
-0.202714 0.962478 -0.180396 0.0153474 0.978836 -0.204071 -0.605272 0.762711 -0.227854 
-0.415634 0.894775 -0.163177 -0.28411 -0.958535 0.0221914 0.0805061 -0.986354 0.143614 
0.464066 -0.862191 0.203146 0.840782 -0.16873 0.514408 -0.951663 0.149683 -0.268203 
0.625861 0.710798 0.321036 0.586607 0.765772 0.263601 0.355808 0.930758 0.0842003 
-0.341535 0.930499 -0.132385 0.207119 -0.953766 0.21779 -0.396021 -0.918002 0.0209682 
-0.937358 -0.265585 -0.225441 -0.7726 0.569958 -0.279709 0.353061 0.935472 0.0155087 
-0.301412 0.926186 -0.226563 -0.97833 0.0970218 -0.182913 -0.941539 0.219404 -0.255667 