# vtk DataFile Version 4.2
vtk output
ASCII
DATASET POLYDATA
POINTS 1024 float
240.293 106.951 63.0874 240.022 107.032 63.0808 240.536 106.674 63.1175 
241.108 106.851 63.3177 239.197 108.014 63.2324 239.534 107.934 63.3335 
236.976 108.898 63.1021 237.398 108.99 63.25 233.08 111.912 63.2343 
230.985 113.085 63.1631 230.937 112.941 63.1417 231.323 113.034 63.2839 
230.885 113.255 63.2278 227.971 115.034 63.2803 247.116 101.915 64.3593 
246.911 101.596 64.3707 247.19 101.608 64.5766 247.168 102.406 64.2844 
242.584 103.496 63.3395 246.998 102.896 64.1419 247.547 102.525 64.5653 
247.731 102.82 64.7326 247.488 103.451 64.5172 247.374 103.847 64.5538 
240.095 106.3 63.0826 235.441 107.029 63.2368 239.472 107.123 63.1203 
236.341 108.196 63.0648 232.709 109.384 63.1513 238.027 108.596 63.2928 
228.69 112.316 63.1983 230.454 112.352 63.1 235.254 111.265 63.6844 
232.17 112.64 63.3927 226.425 115.311 63.4146 229.427 114.937 63.6173 
218.486 121.56 64.0734 217.971 121.564 64.087 219.768 121.796 64.3949 
217.643 121.731 64.2013 217.478 122.035 64.3302 217.495 122.386 64.4828 
217.242 122.16 64.5267 217.891 122.959 64.797 244.878 100.348 64.3497 
242.358 101.274 63.9408 247.743 101.881 65.2211 236.095 105.276 63.5849 
246.69 105.082 64.6133 242.994 107.275 64.3227 219.142 118.739 63.9563 
218.334 119.612 64.0606 217.163 120.51 64.4721 222.184 120.504 64.7458 
218.225 122.96 64.7309 217.558 123.243 65.3602 244.419 98.442 65.4766 
245.705 98.5289 66.0815 238.159 102.073 64.35 247.961 101.796 65.8664 
247.906 103.857 65.2106 247.765 104.673 65.4151 242.568 108.193 64.9558 
236.68 111.216 64.3167 239.97 109.986 65.236 234.853 112.589 64.5662 
230.535 115.165 64.3883 230.84 115.796 65.4225 218.927 117.495 64.2855 
216.246 122.229 65.9758 216.984 122.95 65.5497 217.177 123.384 66.0577 
217.489 123.53 65.7772 217.586 123.696 66.0572 243.034 97.4817 66.0306 
248.386 103.569 66.5328 247.785 105.261 66.0267 245.158 107.25 65.8096 
237.702 111.512 65.4037 235.166 113.187 65.614 215.457 119.38 66.2019 
215.272 119.494 66.3761 215.478 120.124 66.4131 216.06 122.372 66.6663 
220.587 122.653 65.9676 219.205 123.424 65.8358 217.921 123.749 65.985 
242.859 96.4004 66.8049 246.721 98.6991 67.2251 247.443 99.8055 67.4412 
248.345 104.951 66.924 247.039 106.132 66.2012 247.425 106.012 66.6451 
247.742 105.885 67.0587 248.082 105.64 67.3321 248.344 105.39 67.4701 
245.474 107.213 66.1861 243.04 108.799 66.5845 231.843 115.62 66.1664 
233.326 114.737 66.3894 214.133 115.683 67.9149 215.319 116.268 66.7261 
228.309 117.622 66.4283 215.211 119.516 66.5719 223.256 120.764 66.2456 
216.386 122.774 67.2277 221.803 121.979 66.7024 217.578 123.857 66.9627 
217.89 123.995 67.3543 242.294 94.2772 68.3861 243.62 94.2796 69.0344 
241.699 95.1844 67.6392 248.531 104.88 67.707 248.431 105.234 67.7239 
248.235 105.517 67.7059 244.667 107.832 67.5272 242.288 109.329 66.8053 
240.338 110.487 66.7914 242.773 109.045 67.4173 240.914 110.134 67.3825 
213.665 116.175 68.7569 231.178 116.133 66.8595 231.526 115.922 67.1477 
232.875 115.085 67.1722 214.239 118.23 68.5845 224.777 119.941 67.1876 
215.651 121.781 67.9557 217.477 123.694 67.7268 217.727 123.865 67.6873 
218.497 124.031 67.0007 218.232 124.01 67.5052 218.528 123.996 67.3586 
239.575 93.4741 69.0368 247.715 100.02 68.7956 221.266 103.828 68.9432 
248.318 104.203 68.8134 247.953 105.646 68.0298 248.196 105.238 68.2916 
243.219 108.695 67.7997 214.098 110.286 69.1591 212.748 112.835 69.5423 
212.574 112.89 69.7016 213.641 112.399 68.8307 213.169 114.49 69.3095 
232.939 114.648 68.4015 213.412 116.14 69.4598 214.469 118.896 69.2364 
226.552 118.331 68.7881 227.508 118.083 67.9558 214.784 119.385 69.4143 
225.719 119.186 68.0338 223.09 120.719 68.4574 215.399 120.757 68.8078 
221.987 121.492 68.428 221.561 121.996 67.9202 218.695 123.599 68.2472 
242.964 92.3251 70.5066 248.34 104.049 69.1549 248.314 103.968 69.2721 
247.524 104.976 69.3133 248.2 104.084 69.2806 243.917 107.226 69.7263 
212.503 112.887 69.8772 212.787 114.411 70.0472 213.557 116.803 70.1867 
226.038 117.882 69.677 215.853 120.566 69.8116 222.286 120.426 69.5908 
217.578 122.755 69.0784 218.178 122.961 69.1487 219.183 122.991 68.8303 
217.89 123.018 69.0095 241.213 90.5231 71.5701 238.983 90.9503 71.0404 
240.273 90.7561 71.1513 247.4 101.918 70.794 211.725 109.407 71.747 
211.877 111.785 71.4933 213.606 116.693 71.0286 213.966 117.307 71.1786 
214.699 118.41 70.9841 216.83 120.869 70.2838 219.084 121.58 70.079 
217.68 122.181 69.5723 245.16 94.4164 71.8831 247.25 99.9197 71.3345 
212.045 112.834 72.3415 213.105 115.183 72.2871 214.172 117.275 71.7392 
215.67 118.538 71.886 246.049 96.1661 72.6626 246.861 100.585 72.0366 
245.702 101.572 72.9092 246.643 101.85 71.8623 213.155 104.676 72.1788 
213.308 115.208 72.8733 214.378 116.974 72.3769 216.9 117.961 72.776 
216.008 118.226 72.3819 246.289 98.4575 73.4152 246.138 99.0929 73.5191 
245.856 100.352 73.3649 210.595 104.633 74.1498 210.387 104.703 74.3122 
210.918 108.847 74.2784 211.11 109.702 73.9967 212.416 112.784 74.0464 
213.471 114.909 73.5328 214.663 115.813 73.7997 217.283 116.426 73.7968 
241.311 88.0466 74.8795 245.432 95.0459 74.7441 245.678 96.1754 74.5111 
245.732 99.0594 74.068 244.314 99.9806 74.8172 209.908 101.94 75.8565 
209.897 102.561 75.7139 210.315 104.716 74.4907 213.327 113.408 74.917 
213.666 114.575 74.1798 214.074 114.356 74.7403 215.116 115.517 74.318 
216.06 115.996 74.1426 238.617 85.4163 76.3359 215.696 96.3346 75.7662 
245.692 97.9207 74.4604 209.583 101.522 76.3352 209.39 101.588 76.4855 
209.471 102.229 76.4571 209.438 103.269 76.6491 211.14 109.331 75.6676 
213.322 112.42 75.8475 213.787 113.728 75.1 214.264 113.602 75.4931 
238.964 84.7423 77.3434 209.486 99.5084 77.3533 209.015 100.856 77.4996 
211.418 109.05 77.0772 215.22 114.017 75.5238 237.794 83.3306 78.592 
237.314 83.3931 78.4264 236.342 83.9421 77.8441 243.278 96.6796 77.5131 
208.992 99.4121 78.0181 209.363 104.142 77.5165 209.656 105.191 77.8368 
225.172 105.244 78.0538 215.368 111.048 77.5858 214.891 111.034 77.6443 
214.34 111.501 77.2546 214.012 111.568 77.0945 238.176 82.993 79.2249 
243.493 94.0484 78.5371 209.031 97.4843 79.0985 208.225 97.7567 79.9053 
208.277 100.303 79.4499 210.25 106.038 79.0445 213.376 109.97 78.0872 
213.944 110.496 77.8575 236.831 81.6905 80.2371 241.152 95.3077 79.8035 
242.209 94.6438 79.5984 242.664 94.1665 79.5269 209.271 95.213 80.3091 
207.991 98.866 80.0935 234.877 80.8194 81.1333 238.934 82.4901 81.0837 
229.063 83.1999 80.7997 239.422 82.9509 81.273 207.921 95.525 81.4444 
207.702 99.0089 81.2252 216.405 106.788 80.4554 213.592 107.209 80.6946 
236.135 79.731 82.5564 235.046 79.8509 82.1992 236.998 80.4454 82.1272 
214.844 89.2665 81.8994 240.586 92.9566 81.9938 207.42 95.1204 82.5836 
207.315 95.8401 82.1951 207.378 96.562 82.1098 242.132 89.5374 82.1418 
209.12 102.329 82.7043 233.61 78.5511 83.8969 209.469 102.007 83.9949 
234.436 77.4422 85.527 235.588 77.8318 85.6388 236.745 78.831 85.1862 
239.173 81.811 85.0607 209.19 89.7237 85.0092 240.661 89.4915 84.6113 
241.575 89.9174 83.298 207.409 91.2577 85.2941 207.174 91.7454 85.2123 
206.846 95.9859 85.0925 207.399 97.959 85.1669 234.23 76.9984 86.1792 
235.747 77.5381 86.6473 237.519 79.3266 86.3551 224.292 80.5279 85.6752 
240.81 86.8238 85.7999 206.308 91.7281 86.4032 206.974 96.613 85.6123 
210.685 101.861 85.4318 234.581 76.4938 87.155 234.536 76.3152 87.3716 
234.65 76.3569 87.3922 232.177 76.3986 87.122 234.844 76.4718 87.5462 
240.153 87.6393 86.5043 206.007 90.1954 88.0278 205.866 90.6523 88.1435 
207.341 97.1049 86.9178 208.466 98.9031 86.8784 233.173 75.6705 88.3673 
235.433 76.6884 88.393 239.714 85.9943 88.037 240.062 87.1436 86.9808 
239.569 87.77 87.1953 239.198 87.8861 87.4508 207.327 88.1789 88.054 
238.695 88.1624 87.5879 205.709 90.4249 88.8343 207.961 97.6408 87.8377 
208.79 98.5318 87.8142 233.927 75.372 89.5948 239.176 82.6055 88.5096 
239.554 85.617 88.6431 239.582 85.783 88.6376 239.07 86.3159 88.7354 
206.487 88.0645 89.2247 207.027 95.4442 89.1072 233.446 74.9442 90.2228 
234.294 75.4066 89.9894 238.101 80.5008 89.6219 238.884 83.1141 89.894 
239.38 84.2123 88.9308 239.308 85.7419 88.9263 239.053 85.4803 89.3319 
207.37 86.7166 89.7141 237.111 86.8378 89.8851 206.158 87.6135 90.354 
205.954 88.2513 90.1617 207.207 95.0139 90.4861 207.94 96.4668 89.4372 
210.388 97.781 89.6812 233.725 74.7657 91.1456 234.483 75.3822 90.7215 
238.436 83.1504 90.9321 237.801 85.1744 90.7635 206.833 86.307 90.9307 
206.275 87.12 90.7527 230.262 88.566 91.2391 205.517 89.0345 91.1924 
205.483 90.5027 90.8066 206.951 94.5271 90.747 209.087 96.5796 90.4715 
230.94 74.2871 91.4442 205.794 87.3891 91.8227 205.604 90.7398 92.3978 
231.941 73.8121 93.1601 234.472 75.2894 92.369 237.416 80.7235 92.8311 
237.769 83.3448 92.0589 236.849 83.6708 92.9736 237.409 83.484 92.4824 
206.515 85.8416 92.2317 206.208 91.911 93.1552 207.436 94.2492 92.2976 
208.307 94.4691 92.9307 209.559 95.1045 92.6993 231.65 73.6612 94.2347 
235.766 84.1956 93.503 206.598 85.2305 93.1753 206.074 85.8017 93.5165 
205.801 86.4898 93.4973 206.952 92.5381 94.1016 230.278 73.518 94.4271 
233.098 74.5852 95.4647 235.421 77.0293 94.62 237.034 81.3916 93.9062 
207.822 83.3151 94.7169 236.38 80.9371 95.3002 209.773 81.7488 95.3799 
235.92 82.0883 95.313 206.942 83.7636 95.6276 205.753 86.2935 95.6411 
233.198 75.2684 97.1647 234.989 77.3486 96.6207 236.055 79.8199 95.9035 
209.335 81.5949 96.6386 235.904 81.5126 95.7622 231.967 83.0007 97.5548 
205.97 88.4514 96.7337 206.219 89.5271 96.3904 229.876 73.4097 97.5569 
230.736 73.7087 97.4316 231.823 74.3227 97.4511 235.213 78.7084 97.3997 
235.295 79.8149 97.3205 208.659 81.9224 97.6229 233.892 82.1118 97.3543 
233.976 81.7667 97.6553 206.003 85.4565 96.7429 206.029 86.0911 97.8421 
207.564 90.5428 97.481 207.887 90.9985 97.3479 222.893 74.4626 98.8074 
233.03 76.3105 99.1676 207.695 82.92 98.2058 206.355 86.0833 98.472 
206.278 86.9788 98.2367 208.9 90.6355 98.332 224.826 74.0466 99.3828 
[...]
POINT_DATA 1024
COLOR_SCALARS scalars 3
0.0941176 0.501961 0.392157 0.0941176 0.501961 0.392157 0.0941176 0.501961 0.392157 
0.0941176 0.501961 0.392157 0.0941176 0.501961 0.392157 
0.0941176 0.501961 0.392157 0.0941176 0.501961 0.392157 
0.0941176 0.501961 0.392157 0.0941176 0.501961 0.392157 
0.0941176 0.501961 0.392157 0.0941176 0.501961 0.392157 
0.0941176 0.501961 0.392157 0.0941176 0.501961 0.392157 
0.0941176 0.501961 0.392157 0.0941176 0.501961 0.392157 
0.0941176 0.501961 0.392157 0.0941176 0.501961 0.392157 
0.0941176 0.501961 0.392157 0.0941176 0.501961 0.392157 
0.0941176 0.501961 0.392157 0.0941176 0.501961 0.392157 
0.0941176 0.501961 0.392157 0.0941176 0.501961 0.392157 
0.0941176 0.501961 0.392157 0.0941176 0.501961 0.392157 
0.0941176 0.501961 0.392157 0.0941176 0.501961 0.392157 
0.0941176 0.501961 0.392157 0.0941176 0.501961 0.392157 
0.0941176 0.501961 0.392157 0.0941176 0.501961 0.392157 
0.0941176 0.501961 0.392157 0.0941176 0.501961 0.392157 
0.0941176 0.501961 0.392157 0.0941176 0.501961 0.392157 
0.0941176 0.501961 0.392157 0.0941176 0.501961 0.392157 
0.0941176 0.501961 0.392157 0.0941176 0.501961 0.392157 
0.0941176 0.501961 0.392157 0.0941176 0.501961 0.392157 
0.0941176 0.501961 0.392157 0.0941176 0.501961 0.392157 
0.0941176 0.501961 0.392157 0.0941176 0.501961 0.392157 
0.0941176 0.501961 0.392157 0.0941176 0.501961 0.392157 
0.0941176 0.501961 0.392157 0.0941176 0.501961 0.392157 
0.0941176 0.501961 0.392157 0.0941176 0.501961 0.392157 
0.0941176 0.501961 0.392157 0.0941176 0.501961 0.392157 
0.0941176 0.501961 0.392157 0.0941176 0.501961 0.392157 
0.0941176 0.501961 0.392157 0.0941176 0.501961 0.392157 
0.0941176 0.501961 0.392157 0.0941176 0.501961 0.392157 
0.0941176 0.501961 0.392157 0.0941176 0.501961 0.392157 
0.0941176 0.501961 0.392157 0.0941176 0.501961 0.392157 
0.0941176 0.501961 0.392157 0.0941176 0.501961 0.392157 
0.0941176 0.501961 0.392157 0.0941176 0.501961 0.392157 
0.0941176 0.501961 0.392157 0.0941176 0.501961 0.392157 
0.0941176 0.501961 0.392157 0.0941176 0.501961 0.392157 
0.0941176 0.501961 0.392157 0.0941176 0.501961 0.392157 
0.0941176 0.501961 0.392157 0.0941176 0.501961 0.392157 
0.0941176 0.501961 0.392157 0.0941176 0.501961 0.392157 
0.0941176 0.501961 0.392157 0.0941176 0.501961 0.392157 
0.0941176 0.501961 0.392157 0.0941176 0.501961 0.392157 
0.0941176 0.501961 0.392157 0.0941176 0.501961 0.392157 
0.0941176 0.501961 0.392157 0.0941176 0.501961 0.392157 
0.0941176 0.501961 0.392157 0.0941176 0.501961 0.392157 
0.0941176 0.501961 0.392157 0.0941176 0.501961 0.392157 
0.0941176 0.501961 0.392157 0.0941176 0.501961 0.392157 
0.0941176 0.501961 0.392157 0.0941176 0.501961 0.392157 
0.0941176 0.501961 0.392157 0.0941176 0.501961 0.392157 
0.0941176 0.501961 0.392157 0.0941176 0.501961 0.392157 
0.0941176 0.501961 0.392157 0.0941176 0.501961 0.392157 
0.0941176 0.501961 0.392157 0.0941176 0.501961 0.392157 
0.0941176 0.501961 0.392157 0.0941176 0.501961 0.392157 
0.0941176 0.501961 0.392157 0.0941176 0.501961 0.392157 
0.0941176 0.501961 0.392157 0.0941176 0.501961 0.392157 
0.0941176 0.501961 0.392157 0.0941176 0.501961 0.392157 
0.0941176 0.501961 0.392157 0.0941176 0.501961 0.392157 
0.0941176 0.501961 0.392157 0.0941176 0.501961 0.392157 
0.0941176 0.501961 0.392157 0.0941176 0.501961 0.392157 
0.0941176 0.501961 0.392157 0.0941176 0.501961 0.392157 
0.0941176 0.501961 0.392157 0.0941176 0.501961 0.392157 
0.0941176 0.501961 0.392157 0.0941176 0.501961 0.392157 
0.0941176 0.501961 0.392157 0.0941176 0.501961 0.392157 
0.0941176 0.501961 0.392157 0.0941176 0.501961 0.392157 
0.0941176 0.501961 0.392157 0.0941176 0.501961 0.392157 
0.0941176 0.501961 0.392157 0.0941176 0.501961 0.392157 
0.0941176 0.501961 0.392157 0.0941176 0.501961 0.392157 
0.0941176 0.501961 0.392157 0.0941176 0.501961 0.392157 
0.0941176 0.501961 0.392157 0.0941176 0.501961 0.392157 
0.0941176 0.501961 0.392157 0.0941176 0.501961 0.392157 
0.0941176 0.501961 0.392157 0.0941176 0.501961 0.392157 
0.0941176 0.501961 0.392157 0.0941176 0.501961 0.392157 
0.0941176 0.501961 0.392157 0.0941176 0.501961 0.392157 
0.0941176 0.501961 0.392157 0.0941176 0.501961 0.392157 
0.0941176 0.501961 0.392157 0.0941176 0.501961 0.392157 
0.0941176 0.501961 0.392157 0.0941176 0.501961 0.392157 
0.0941176 0.501961 0.392157 0.0941176 0.501961 0.392157 
0.0941176 0.501961 0.392157 0.0941176 0.501961 0.392157 
0.0941176 0.501961 0.392157 0.0941176 0.501961 0.392157 
0.0941176 0.501961 0.392157 0.0941176 0.501961 0.392157 
0.0941176 0.501961 0.392157 0.0941176 0.501961 0.392157 
0.0941176 0.501961 0.392157 0.0941176 0.501961 0.392157 
0.0941176 0.501961 0.392157 0.0941176 0.501961 0.392157 
0.0941176 0.501961 0.392157 0.0941176 0.501961 0.392157 
0.0941176 0.501961 0.392157 0.0941176 0.501961 0.392157 
0.0941176 0.501961 0.392157 0.0941176 0.501961 0.392157 
0.0941176 0.501961 0.392157 0.0941176 0.501961 0.392157 
0.0941176 0.501961 0.392157 0.0941176 0.501961 0.392157 
0.0941176 0.501961 0.392157 0.0941176 0.501961 0.392157 
0.0941176 0.501961 0.392157 0.0941176 0.501961 0.392157 
0.0941176 0.501961 0.392157 0.0941176 0.501961 0.392157 
0.0941176 0.501961 0.392157 0.0941176 0.501961 0.392157 
0.0941176 0.501961 0.392157 0.0941176 0.501961 0.392157 
0.0941176 0.501961 0.392157 0.0941176 0.501961 0.392157 
0.0941176 0.501961 0.392157 0.0941176 0.501961 0.392157 
0.0941176 0.501961 0.392157 0.0941176 0.501961 0.392157 
0.0941176 0.501961 0.392157 0.0941176 0.501961 0.392157 
0.0941176 0.501961 0.392157 0.0941176 0.501961 0.392157 
0.0941176 0.501961 0.392157 0.0941176 0.501961 0.392157 
0.0941176 0.501961 0.392157 0.0941176 0.501961 0.392157 
0.0941176 0.501961 0.392157 0.0941176 0.501961 0.392157 
0.0941176 0.501961 0.392157 0.0941176 0.501961 0.392157 
0.0941176 0.501961 0.392157 0.0941176 0.501961 0.392157 
0.0941176 0.501961 0.392157 0.0941176 0.501961 0.392157 
0.0941176 0.501961 0.392157 0.0941176 0.501961 0.392157 
0.0941176 0.501961 0.392157 0.0941176 0.501961 0.392157 
0.0941176 0.501961 0.392157 0.0941176 0.501961 0.392157 
0.0941176 0.501961 0.392157 0.0941176 0.501961 0.392157 
0.0941176 0.501961 0.392157 0.0941176 0.501961 0.392157 
0.0941176 0.501961 0.392157 0.0941176 0.501961 0.392157 
0.0941176 0.501961 0.392157 0.0941176 0.501961 0.392157 
0.0941176 0.501961 0.392157 0.0941176 0.501961 0.392157 
0.0941176 0.501961 0.392157 0.0941176 0.501961 0.392157 
0.0941176 0.501961 0.392157 0.0941176 0.501961 0.392157 
0.0941176 0.501961 0.392157 0.0941176 0.501961 0.392157 
0.0941176 0.501961 0.392157 0.0941176 0.501961 0.392157 
0.0941176 0.501961 0.392157 0.0941176 0.501961 0.392157 
0.0941176 0.501961 0.392157 0.0941176 0.501961 0.392157 
0.0941176 0.501961 0.392157 0.0941176 0.501961 0.392157 
0.0941176 0.501961 0.392157 0.0941176 0.501961 0.392157 
0.0941176 0.501961 0.392157 0.0941176 0.501961 0.392157 
0.0941176 0.501961 0.392157 0.0941176 0.501961 0.392157 
0.0941176 0.501961 0.392157 0.0941176 0.501961 0.392157 
0.0941176 0.501961 0.392157 0.0941176 0.501961 0.392157 
0.0941176 0.501961 0.392157 0.0941176 0.501961 0.392157 
0.0941176 0.501961 0.392157 0.0941176 0.501961 0.392157 
0.0941176 0.501961 0.392157 0.0941176 0.501961 0.392157 
0.0941176 0.501961 0.392157 0.0941176 0.501961 0.392157 
0.0941176 0.501961 0.392157 0.0941176 0.501961 0.392157 
0.0941176 0.501961 0.392157 0.0941176 0.501961 0.392157 
0.0941176 0.501961 0.392157 0.0941176 0.501961 0.392157 
0.0941176 0.501961 0.392157 0.0941176 0.501961 0.392157 
0.0941176 0.501961 0.392157 0.0941176 0.501961 0.392157 
0.0941176 0.501961 0.392157 0.0941176 0.501961 0.392157 
0.0941176 0.501961 0.392157 0.0941176 0.501961 0.392157 
0.0941176 0.501961 0.392157 0.0941176 0.501961 0.392157 
0.0941176 0.501961 0.392157 0.0941176 0.501961 0.392157 
0.0941176 0.501961 0.392157 0.0941176 0.501961 0.392157 
0.0941176 0.501961 0.392157 0.0941176 0.501961 0.392157 
0.0941176 0.501961 0.392157 0.0941176 0.501961 0.392157 
0.0941176 0.501961 0.392157 0.0941176 0.501961 0.392157 
0.0941176 0.501961 0.392157 0.0941176 0.501961 0.392157 
0.0941176 0.501961 0.392157 0.0941176 0.501961 0.392157 
0.0941176 0.501961 0.392157 0.0941176 0.501961 0.392157 
0.0941176 0.501961 0.392157 0.0941176 0.501961 0.392157 
0.0941176 0.501961 0.392157 0.0941176 0.501961 0.392157 
0.0941176 0.501961 0.392157 0.0941176 0.501961 0.392157 
0.0941176 0.501961 0.392157 0.0941176 0.501961 0.392157 
0.0941176 0.501961 0.392157 0.0941176 0.501961 0.392157 
0.0941176 0.501961 0.392157 0.0941176 0.501961 0.392157 
0.0941176 0.501961 0.392157 0.0941176 0.501961 0.392157 
0.0941176 0.501961 0.392157 0.0941176 0.501961 0.392157 
0.0941176 0.501961 0.392157 0.0941176 0.501961 0.392157 
0.0941176 0.501961 0.392157 0.0941176 0.501961 0.392157 
0.0941176 0.501961 0.392157 0.0941176 0.501961 0.392157 
0.0941176 0.501961 0.392157 0.0941176 0.501961 0.392157 
0.0941176 0.501961 0.392157 0.0941176 0.501961 0.392157 
0.0941176 0.501961 0.392157 0.0941176 0.501961 0.392157 
0.0941176 0.501961 0.392157 0.0941176 0.501961 0.392157 
0.0941176 0.501961 0.392157 0.0941176 0.501961 0.392157 
0.0941176 0.501961 0.392157 0.0941176 0.501961 0.392157 
0.0941176 0.501961 0.392157 0.0941176 0.501961 0.392157 
0.0941176 0.501961 0.392157 0.0941176 0.501961 0.392157 
0.0941176 0.501961 0.392157 0.0941176 0.501961 0.392157 
0.0941176 0.501961 0.392157 0.0941176 0.501961 0.392157 
0.0941176 0.501961 0.392157 0.0941176 0.501961 0.392157 
0.0941176 0.501961 0.392157 0.0941176 0.501961 0.392157 
0.0941176 0.501961 0.392157 0.0941176 0.501961 0.392157 
0.0941176 0.501961 0.392157 0.0941176 0.501961 0.392157 
0.0941176 0.501961 0.392157 0.0941176 0.501961 0.392157 
0.0941176 0.501961 0.392157 0.0941176 0.501961 0.392157 
0.0941176 0.501961 0.392157 0.0941176 0.501961 0.392157 
0.0941176 0.501961 0.392157 0.0941176 0.501961 0.392157 
0.0941176 0.501961 0.392157 0.0941176 0.501961 0.392157 
0.0941176 0.501961 0.392157 0.0941176 0.501961 0.392157 
0.0941176 0.501961 0.392157 0.0941176 0.501961 0.392157 
0.0941176 0.501961 0.392157 0.0941176 0.501961 0.392157 
0.0941176 0.501961 0.392157 0.0941176 0.501961 0.392157 
0.0941176 0.501961 0.392157 0.0941176 0.501961 0.392157 
0.0941176 0.501961 0.392157 0.0941176 0.501961 0.392157 
0.0941176 0.501961 0.392157 0.0941176 0.501961 0.392157 
0.0941176 0.501961 0.392157 0.0941176 0.501961 0.392157 
0.0941176 0.501961 0.392157 0.0941176 0.501961 0.392157 
0.0941176 0.501961 0.392157 0.0941176 0.501961 0.392157 
0.0941176 0.501961 0.392157 0.0941176 0.501961 0.392157 
0.0941176 0.501961 0.392157 0.0941176 0.501961 0.392157 
0.0941176 0.501961 0.392157 0.0941176 0.501961 0.392157 
0.0941176 0.501961 0.392157 0.0941176 0.501961 0.392157 
0.0941176 0.501961 0.392157 0.0941176 0.501961 0.392157 
0.0941176 0.501961 0.392157 0.0941176 0.501961 0.392157 
0.0941176 0.501961 0.392157 0.0941176 0.501961 0.392157 
0.0941176 0.501961 0.392157 0.0941176 0.501961 0.392157 
0.0941176 0.501961 0.392157 0.0941176 0.501961 0.392157 
0.0941176 0.501961 0.392157 0.0941176 0.501961 0.392157 
0.0941176 0.501961 0.392157 0.0941176 0.501961 0.392157 
0.0941176 0.501961 0.392157 0.0941176 0.501961 0.392157 
0.0941176 0.501961 0.392157 0.0941176 0.501961 0.392157 
0.0941176 0.501961 0.392157 0.0941176 0.501961 0.392157 
0.0941176 0.501961 0.392157 0.0941176 0.501961 0.392157 
0.0941176 0.501961 0.392157 0.0941176 0.501961 0.392157 
0.0941176 0.501961 0.392157 0.0941176 0.501961 0.392157 
0.0941176 0.501961 0.392157 0.0941176 0.501961 0.392157 
0.0941176 0.501961 0.392157 0.0941176 0.501961 0.392157 
0.0941176 0.501961 0.392157 0.0941176 0.501961 0.392157 
0.0941176 0.501961 0.392157 0.0941176 0.501961 0.392157 
0.0941176 0.501961 0.392157 0.0941176 0.501961 0.392157 
0.0941176 0.501961 0.392157 0.0941176 0.501961 0.392157 
0.0941176 0.501961 0.392157 0.0941176 0.501961 0.392157 
0.0941176 0.501961 0.392157 0.0941176 0.501961 0.392157 
0.0941176 0.501961 0.392157 0.0941176 0.501961 0.392157 
0.0941176 0.501961 0.392157 0.0941176 0.501961 0.392157 
0.0941176 0.501961 0.392157 0.0941176 0.501961 0.392157 
0.0941176 0.501961 0.392157 0.0941176 0.501961 0.392157 
0.0941176 0.501961 0.392157 0.0941176 0.501961 0.392157 
0.0941176 0.501961 0.392157 0.0941176 0.501961 0.392157 
0.0941176 0.501961 0.392157 0.0941176 0.501961 0.392157 
0.0941176 0.501961 0.392157 0.0941176 0.501961 0.392157 
0.0941176 0.501961 0.392157 0.0941176 0.501961 0.392157 
0.0941176 0.501961 0.392157 0.0941176 0.501961 0.392157 
0.0941176 0.501961 0.392157 0.0941176 0.501961 0.392157 
0.0941176 0.501961 0.392157 0.0941176 0.501961 0.392157 
0.0941176 0.501961 0.392157 0.0941176 0.501961 0.392157 
0.0941176 0.501961 0.392157 0.0941176 0.501961 0.392157 
0.0941176 0.501961 0.392157 0.0941176 0.501961 0.392157 
0.0941176 0.501961 0.392157 0.0941176 0.501961 0.392157 
0.0941176 0.501961 0.392157 0.0941176 0.501961 0.392157 
0.0941176 0.501961 0.392157 0.0941176 0.501961 0.392157 
0.0941176 0.501961 0.392157 0.0941176 0.501961 0.392157 
0.0941176 0.501961 0.392157 0.0941176 0.501961 0.392157 
0.0941176 0.501961 0.392157 0.0941176 0.501961 0.392157 
0.0941176 0.501961 0.392157 0.0941176 0.501961 0.392157 
0.0941176 0.501961 0.392157 0.0941176 0.501961 0.392157 
0.0941176 0.501961 0.392157 0.0941176 0.501961 0.392157 
0.0941176 0.501961 0.392157 0.0941176 0.501961 0.392157 
0.0941176 0.501961 0.392157 0.0941176 0.501961 0.392157 
0.0941176 0.501961 0.392157 0.0941176 0.501961 0.392157 
0.0941176 0.501961 0.392157 0.0941176 0.501961 0.392157 
0.0941176 0.501961 0.392157 0.0941176 0.501961 0.392157 
0.0941176 0.501961 0.392157 0.0941176 0.501961 0.392157 
0.0941176 0.501961 0.392157 0.0941176 0.501961 0.392157 
0.0941176 0.501961 0.392157 0.0941176 0.501961 0.392157 
0.0941176 0.501961 0.392157 0.0941176 0.501961 0.392157 
0.0941176 0.501961 0.392157 0.0941176 0.501961 0.392157 
0.0941176 0.501961 0.392157 0.0941176 0.501961 0.392157 
0.0941176 0.501961 0.392157 0.0941176 0.501961 0.392157 
0.0941176 0.501961 0.392157 0.0941176 0.501961 0.392157 
0.0941176 0.501961 0.392157 0.0941176 0.501961 0.392157 
0.0941176 0.501961 0.392157 0.0941176 0.501961 0.392157 
0.0941176 0.501961 0.392157 0.0941176 0.501961 0.392157 
0.0941176 0.501961 0.392157 0.0941176 0.501961 0.392157 
0.0941176 0.501961 0.392157 0.0941176 0.501961 0.392157 
0.0941176 0.501961 0.392157 0.0941176 0.501961 0.392157 
0.0941176 0.501961 0.392157 0.0941176 0.501961 0.392157 
0.0941176 0.501961 0.392157 0.0941176 0.501961 0.392157 
0.0941176 0.501961 0.392157 0.0941176 0.501961 0.392157 
0.0941176 0.501961 0.392157 0.0941176 0.501961 0.392157 
0.0941176 0.501961 0.392157 0.0941176 0.501961 0.392157 
0.0941176 0.501961 0.392157 0.0941176 0.501961 0.392157 
0.0941176 0.501961 0.392157 0.0941176 0.501961 0.392157 
0.0941176 0.501961 0.392157 0.0941176 0.501961 0.392157 
0.0941176 0.501961 0.392157 0.0941176 0.501961 0.392157 
0.0941176 0.501961 0.392157 0.0941176 0.501961 0.392157 
0.0941176 0.501961 0.392157 0.0941176 0.501961 0.392157 
0.0941176 0.501961 0.392157 0.0941176 0.501961 0.392157 
0.0941176 0.501961 0.392157 0.0941176 0.501961 0.392157 
0.0941176 0.501961 0.392157 0.0941176 0.501961 0.392157 
0.0941176 0.501961 0.392157 0.0941176 0.501961 0.392157 
0.0941176 0.501961 0.392157 0.0941176 0.501961 0.392157 
0.0941176 0.501961 0.392157 0.0941176 0.501961 0.392157 
0.0941176 0.501961 0.392157 0.0941176 0.501961 0.392157 
0.0941176 0.501961 0.392157 0.0941176 0.501961 0.392157 
0.0941176 0.501961 0.392157 0.0941176 0.501961 0.392157 
0.0941176 0.501961 0.392157 0.0941176 0.501961 0.392157 
0.0941176 0.501961 0.392157 0.0941176 0.501961 0.392157 
0.0941176 0.501961 0.392157 0.0941176 0.501961 0.392157 
0.0941176 0.501961 0.392157 0.0941176 0.501961 0.392157 
0.0941176 0.501961 0.392157 0.0941176 0.501961 0.392157 
0.0941176 0.501961 0.392157 0.0941176 0.501961 0.392157 
0.0941176 0.501961 0.392157 0.0941176 0.501961 0.392157 
0.0941176 0.501961 0.392157 0.0941176 0.501961 0.392157 
0.0941176 0.501961 0.392157 0.0941176 0.501961 0.392157 
0.0941176 0.501961 0.392157 0.0941176 0.501961 0.392157 
0.0941176 0.501961 0.392157 0.0941176 0.501961 0.392157 
0.0941176 0.501961 0.392157 0.0941176 0.501961 0.392157 
0.0941176 0.501961 0.392157 0.0941176 0.501961 0.392157 
0.0941176 0.501961 0.392157 0.0941176 0.501961 0.392157 
0.0941176 0.501961 0.392157 0.0941176 0.501961 0.392157 
0.0941176 0.501961 0.392157 0.0941176 0.501961 0.392157 
0.0941176 0.501961 0.392157 0.0941176 0.501961 0.392157 
0.0941176 0.501961 0.392157 0.0941176 0.501961 0.392157 
0.0941176 0.501961 0.392157 0.0941176 0.501961 0.392157 
0.0941176 0.501961 0.392157 0.0941176 0.501961 0.392157 
0.0941176 0.501961 0.392157 0.0941176 0.501961 0.392157 
0.0941176 0.501961 0.392157 0.0941176 0.501961 0.392157 
0.0941176 0.501961 0.392157 0.0941176 0.501961 0.392157 
0.0941176 0.501961 0.392157 0.0941176 0.501961 0.392157 
0.0941176 0.501961 0.392157 0.0941176 0.501961 0.392157 
0.0941176 0.501961 0.392157 0.0941176 0.501961 0.392157 
0.0941176 0.501961 0.392157 0.0941176 0.501961 0.392157 
0.0941176 0.501961 0.392157 0.0941176 0.501961 0.392157 
0.0941176 0.501961 0.392157 0.0941176 0.501961 0.392157 
0.0941176 0.501961 0.392157 0.0941176 0.501961 0.392157 
0.0941176 0.501961 0.392157 0.0941176 0.501961 0.392157 
0.0941176 0.501961 0.392157 0.0941176 0.501961 0.392157 
0.0941176 0.501961 0.392157 0.0941176 0.501961 0.392157 
0.0941176 0.501961 0.392157 0.0941176 0.501961 0.392157 
0.0941176 0.501961 0.392157 0.0941176 0.501961 0.392157 
0.0941176 0.501961 0.392157 0.0941176 0.501961 0.392157 
0.0941176 0.501961 0.392157 0.0941176 0.501961 0.392157 
0.0941176 0.501961 0.392157 0.0941176 0.501961 0.392157 
0.0941176 0.501961 0.392157 0.0941176 0.501961 0.392157 
0.0941176 0.501961 0.392157 0.0941176 0.501961 0.392157 
0.0941176 0.501961 0.392157 0.0941176 0.501961 0.392157 
0.0941176 0.501961 0.392157 0.0941176 0.501961 0.392157 
0.0941176 0.501961 0.392157 0.0941176 0.501961 0.392157 
0.0941176 0.501961 0.392157 0.0941176 0.501961 0.392157 
0.0941176 0.501961 0.392157 0.0941176 0.501961 0.392157 
0.0941176 0.501961 0.392157 0.0941176 0.501961 0.392157 
0.0941176 0.501961 0.392157 0.0941176 0.501961 0.392157 
0.0941176 0.501961 0.392157 0.0941176 0.501961 0.392157 
0.0941176 0.501961 0.392157 0.0941176 0.501961 0.392157 
0.0941176 0.501961 0.392157 0.0941176 0.501961 0.392157 
0.0941176 0.501961 0.392157 0.0941176 0.501961 0.392157 
0.0941176 0.501961 0.392157 0.0941176 0.501961 0.392157 
0.0941176 0.501961 0.392157 0.0941176 0.501961 0.392157 
0.0941176 0.501961 0.392157 0.0941176 0.501961 0.392157 
0.0941176 0.501961 0.392157 0.0941176 0.501961 0.392157 
0.0941176 0.501961 0.392157 0.0941176 0.501961 0.392157 
0.0941176 0.501961 0.392157 0.0941176 0.501961 0.392157 
0.0941176 0.501961 0.392157 0.0941176 0.501961 0.392157 
0.0941176 0.501961 0.392157 0.0941176 0.501961 0.392157 
0.0941176 0.501961 0.392157 0.0941176 0.501961 0.392157 
0.0941176 0.501961 0.392157 0.0941176 0.501961 0.392157 
0.0941176 0.501961 0.392157 0.0941176 0.501961 0.392157 
0.0941176 0.501961 0.392157 0.0941176 0.501961 0.392157 
0.0941176 0.501961 0.392157 0.0941176 0.501961 0.392157 
0.0941176 0.501961 0.392157 0.0941176 0.501961 0.392157 
0.0941176 0.501961 0.392157 0.0941176 0.501961 0.392157 
0.0941176 0.501961 0.392157 0.0941176 0.501961 0.392157 
0.0941176 0.501961 0.392157 0.0941176 0.501961 0.392157 
0.0941176 0.501961 0.392157 0.0941176 0.501961 0.392157 
0.0941176 0.501961 0.392157 0.0941176 0.501961 0.392157 
0.0941176 0.501961 0.392157 0.0941176 0.501961 0.392157 
0.0941176 0.501961 0.392157 0.0941176 0.501961 0.392157 
0.0941176 0.501961 0.392157 0.0941176 0.501961 0.392157 
0.0941176 0.501961 0.392157 0.0941176 0.501961 0.392157 
0.0941176 0.501961 0.392157 0.0941176 0.501961 0.392157 
0.0941176 0.501961 0.392157 0.0941176 0.501961 0.392157 
0.0941176 0.501961 0.392157 0.0941176 0.501961 0.392157 
0.0941176 0.501961 0.392157 0.0941176 0.501961 0.392157 
0.0941176 0.501961 0.392157 0.0941176 0.501961 0.392157 