# vtk DataFile Version 4.2
vtk output
ASCII
DATASET POLYDATA
POINTS 4517 float
259.744 70.7803 150.994 259.943 70.5885 151.133 259.18 71.2786 150.977 
259.207 71.2217 150.983 259.017 71.3512 151.075 259.293 71.1938 150.974 
256.033 73.6648 150.782 256.402 73.46 150.803 256.628 73.277 150.889 
255.665 73.9838 150.706 256.146 73.6697 150.777 256.538 73.3798 150.879 
254.536 74.6372 150.717 255.128 74.3256 150.679 255.415 74.1708 150.718 
253.312 75.3546 150.812 252.821 75.6462 150.882 253.787 75.0962 150.765 
254.63 74.6169 150.751 250.326 77.2406 150.806 249.983 77.3887 150.819 
250.665 77.0774 150.842 250.995 76.7751 150.94 251.196 76.7015 150.932 
249.399 77.7424 150.806 249.128 77.8584 150.908 249.745 77.6013 150.793 
249.591 77.579 150.852 250.178 77.4059 150.81 250.435 77.2662 150.869 
249.268 77.8486 150.874 248.869 77.9886 151.079 249.423 77.8178 150.898 
249.741 77.669 150.912 249.023 77.9844 151.08 263.483 67.4576 152.212 
263.624 67.3381 152.252 260.69 69.8179 151.501 260.555 69.8384 151.455 
260.328 70.1313 151.312 260.406 69.946 151.386 260.237 70.0476 151.386 
260.539 70.0798 151.417 260.857 69.7441 151.673 259.426 71.0206 151.008 
260.276 70.3382 151.252 258.688 71.4903 151.254 259.435 71.0915 151.067 
259.764 70.841 151.229 256.942 72.9666 151.125 258.737 71.5435 151.308 
254.536 74.4553 151.127 256.837 73.0664 151.316 252.043 76.107 151.004 
248.04 78.224 151.661 248.422 78.1714 151.461 265.152 66.1638 152.641 
265.518 65.9416 152.752 265.741 65.625 152.882 266.062 65.49 152.967 
263.888 67.0884 152.389 264.501 66.6782 152.497 265.026 66.338 152.608 
265.315 66.1457 152.733 263.119 67.6583 152.349 263.911 67.1349 152.368 
264.172 66.9498 152.513 261.188 69.0206 152.229 261.241 69.2542 152.013 
257.886 72.0453 151.458 258.375 71.7567 151.856 254.72 74.2327 151.48 
253.851 74.695 151.758 254.456 74.5313 151.267 254.93 74.1012 151.728 
254.032 74.6554 151.677 251.734 76.1138 151.507 250.649 76.6775 151.71 
251.351 76.4205 151.382 251.884 75.9657 151.787 250.897 76.628 151.687 
247.245 78.4489 152.177 246.433 78.8093 152.522 245.931 79.0155 152.774 
246.738 78.7362 152.414 247.416 78.4902 152.185 246.158 78.9676 152.706 
268.441 63.2777 153.891 268.218 63.4495 153.857 268.678 63.0666 154.025 
266.692 64.7391 153.246 268.322 63.3876 153.894 266.437 65.0604 153.089 
266.764 64.8473 153.197 264.6 66.3934 152.934 264.047 66.7701 152.926 
262.205 68.2671 152.517 261.549 69.0107 152.51 263.283 67.5077 152.991 
256.815 72.3806 152.334 256.057 72.8884 152.408 254.367 74.3158 151.941 
251.316 76.2347 151.936 245.046 79.2461 153.324 245.514 79.1292 153.026 
245.013 79.3195 153.379 245.585 79.1582 153.046 269.505 62.4303 154.156 
269.601 62.357 154.172 269.149 62.6707 154.166 269.306 62.5677 154.18 
269.576 62.3414 154.275 269.056 62.772 154.107 267.443 63.8542 153.927 
267.711 63.8961 153.786 264.811 66.0805 153.389 263.781 66.7309 153.484 
264.464 66.5296 153.148 264.933 66.095 153.743 264.013 66.7107 153.584 
261.167 69.03 153.576 256.991 72.0352 152.936 256.019 72.6568 153.186 
256.611 72.6018 152.609 257.043 72.0713 153.343 256.137 72.7095 153.204 
253.969 74.2159 152.896 253.002 74.6946 153.304 253.571 74.6178 152.622 
254.058 74.1162 153.262 253.137 74.6907 153.229 251.04 76.0455 152.921 
249.651 76.7185 153.339 250.567 76.4449 152.705 251.037 75.9867 153.313 
250.106 76.6093 153.156 244.276 79.5015 153.78 244.021 79.5819 153.977 
244.157 79.5826 153.846 243.941 79.6324 154.028 244.09 79.6177 153.923 
244.01 79.6384 153.947 269.091 62.5413 154.674 268.429 62.9051 154.855 
268.815 62.84 154.433 269.03 62.5496 154.813 268.555 62.9302 154.808 
268.274 63.1896 154.9 264.564 65.6695 154.393 264.32 66.2357 153.952 
263.259 66.8284 153.912 264.456 66.2637 154.496 263.969 66.6811 154.066 
260.871 68.488 154.215 259.999 69.0789 154.244 256.686 71.6794 154.123 
256.443 72.2042 153.639 256.417 72.2146 154.206 253.535 74.2834 153.545 
255.682 72.9276 153.773 250.438 76.1567 153.745 249.688 76.3816 154.454 
248.631 77.0216 154.195 250.541 76.0564 154.123 246.95 77.9275 154.187 
245.587 78.691 154.25 246.643 78.3091 153.817 246.963 77.9223 154.544 
246.005 78.6451 153.962 243.685 79.6228 154.422 244.922 79.2783 154.075 
240.967 80.6291 155.991 240.559 80.7988 156.176 241.277 80.5153 155.874 
241.666 80.3378 155.77 243.578 79.683 154.741 243.925 79.639 154.129 
240.996 80.6419 156.018 268.78 62.6033 155.137 269.107 62.2866 155.388 
263.259 66.2428 155.395 263.332 66.8712 155.251 261.089 68.1669 154.922 
259.971 68.8771 155.279 260.769 68.6641 154.625 261.15 68.2098 155.351 
260.233 69.0587 155.004 257.855 70.4102 155.213 257.096 70.9577 155.285 
257.863 71.1344 154.643 253.157 74.0553 154.766 251.896 74.6841 155.211 
252.658 74.5804 154.412 253.105 74.0634 155.181 252.15 74.6776 155.143 
249.766 76.0417 155.24 249.568 75.9964 155.765 247.866 77.1272 155.201 
249.74 76.0552 155.435 248.875 77.0057 154.198 248.155 77.1325 154.929 
246.632 77.8632 155.02 246.167 78.0119 155.414 244.888 78.7363 155.158 
246.328 77.9837 155.419 245.643 78.7284 154.275 245.341 78.703 154.828 
242.467 79.9436 155.511 240.116 80.9294 156.38 239.723 81.0417 156.574 
242.581 79.9364 155.842 239.673 81.1036 156.576 239.481 81.138 156.675 
239.219 81.229 156.856 240.059 80.9927 156.441 240.564 80.7977 156.307 
268.869 62.1382 156.26 267.547 62.9571 156.284 268.147 62.9118 155.691 
268.341 62.5417 156.304 267.724 63.0309 156.344 267.17 63.8215 156.01 
262.689 66.5459 156.056 262.11 66.9062 156.384 260.539 68.3869 155.704 
260.607 68.3807 156.217 259.976 68.9911 155.907 257.965 70.1778 155.857 
259.423 69.4898 155.898 257.023 70.7569 156.287 257.596 70.7292 155.58 
257.937 70.2874 156.163 257.16 70.7769 156.242 252.524 74.171 155.651 
252.516 74.1689 156.175 249.297 75.99 156.183 251.72 74.8718 155.733 
247.854 76.9658 155.926 249.354 76.0015 156.301 245.554 78.305 155.586 
240.891 80.3474 156.741 240.262 80.6381 156.88 237.64 81.6649 157.793 
238.633 81.3519 157.236 238.086 81.5596 157.566 238.765 81.3794 157.235 
268.669 62.0437 156.879 268.645 62.0405 157.074 267.991 62.586 156.733 
268.036 62.4711 157.298 262.829 66.2698 156.889 264.457 65.4314 157.223 
260.702 67.6214 156.972 261.825 66.8562 157.242 262.552 66.7637 156.56 
263.015 66.2356 157.342 262.05 66.8898 157.308 257.53 70.2876 156.62 
254.812 72.1834 156.795 253.902 72.7353 156.941 254.601 72.6026 156.308 
254.936 72.1446 156.883 254.127 72.6792 157.04 248.502 76.3234 156.639 
250.471 75.2936 156.851 245.012 78.2047 156.772 243.691 78.6635 157.21 
244.54 78.6536 156.366 244.985 78.2219 157.153 243.903 78.7778 157.238 
240.91 80.2067 157.214 239.807 80.6264 157.594 240.601 80.538 156.978 
241.06 80.2278 157.47 239.993 80.6685 157.583 237.141 81.8047 158.085 
234.856 82.8746 158.592 237.327 81.7982 158.077 235.324 82.6278 158.604 
233.859 83.3108 158.882 234.32 83.1576 158.646 234.474 83.0978 158.589 
268.407 61.9094 157.975 267.017 62.716 158.076 264.833 64.2063 158.099 
266.733 63.2899 157.923 263.989 64.7553 158.413 262.389 66.4053 157.651 
259.05 68.5166 158.148 261.423 67.1431 158.438 258.197 69.1686 158.153 
257.005 70.2132 157.823 255.958 70.8731 158.095 256.61 70.7066 157.436 
256.948 70.1903 158.261 256.004 70.8498 158.188 254.37 72.3078 157.384 
250.837 74.3611 158.023 250.228 74.6713 158.311 248.157 76.0979 157.946 
246.408 77.1458 157.859 247.596 76.6301 157.446 248.277 75.9756 158.42 
244.332 78.2883 157.681 244.369 78.3421 158.242 240.392 80.3056 157.827 
240.53 80.2649 158.447 236.159 82.1841 158.531 238.437 81.38 158.11 
233.361 83.4124 159.143 232.53 83.8695 159.263 230.882 84.6413 159.44 
230.797 84.6237 159.51 231.459 84.4142 159.373 228.634 85.7042 159.817 
230.048 85.0642 159.557 230.649 84.811 159.485 226.135 87.0192 159.714 
225.041 87.5958 159.673 224.56 87.8766 159.691 225.261 87.3845 159.728 
226.008 87.1745 159.677 223.291 88.5869 159.564 223.171 88.6635 159.553 
225.699 87.3552 159.69 222.695 88.981 159.493 222.717 88.9514 159.517 
223.358 88.5732 159.593 222.757 88.9411 159.509 219.665 91.0043 158.655 
219.665 91.0043 158.655 219.665 91.0043 158.655 219.665 91.0043 158.655 
222.723 88.9575 159.526 219 92.0087 158.017 219 92.0087 158.017 
219 92.0088 158.017 219.665 91.0043 158.655 219 92.0088 158.017 
219 92.0088 158.017 268.21 61.8079 158.528 268.223 61.8224 158.637 
267.14 62.4328 158.846 266.139 63.1588 158.983 266.845 62.883 158.405 
267.216 62.4388 158.986 266.264 63.3177 158.651 264.81 64.1127 158.972 
263.954 64.6382 159.29 264.625 64.4726 158.624 264.866 64.1492 159.174 
264.208 64.793 158.939 259.249 68.1036 159.073 258.004 69.0802 159.063 
258.909 68.6967 158.474 259.436 68.1398 159.147 256.447 70.3381 158.619 
254.875 71.488 158.61 254.008 71.9234 159.094 254.528 71.8779 158.339 
254.87 71.3774 159.005 254.046 71.9781 159.101 250.869 74.141 158.844 
252.74 72.9317 159.385 249.877 74.6237 159.221 250.558 74.5822 158.45 
251.009 74.0599 159.258 250.023 74.6732 159.224 248.081 75.8657 158.88 
247.875 75.7424 159.485 247.732 75.8591 159.609 245.664 77.1843 158.92 
247.976 75.8507 159.375 246.266 77.327 157.858 245.865 77.2757 158.684 
238.065 81.2983 158.946 230.457 84.6132 160.037 229.003 85.3963 159.918 
229.674 84.9987 160.105 227.723 86.0043 160.003 227.46 86.3556 159.888 
228.325 85.8892 160.044 224.006 88.1047 159.681 223.835 88.1298 159.72 
226.381 87.0302 159.768 222.933 88.8072 159.549 223.059 88.6458 159.637 
224.604 87.9071 159.831 222.734 88.9054 159.56 222.745 88.8621 159.604 
222.705 88.8987 159.612 223.18 88.6908 159.623 222.876 88.8655 159.566 
219.665 91.0044 158.655 219.665 91.0045 158.655 219.665 91.0045 158.655 
219.665 91.0043 158.655 219.665 91.0043 158.655 222.71 88.9347 159.575 
219 92.0087 158.017 219.665 91.0045 158.655 219.665 91.0045 158.655 
268.063 61.7547 159.101 267.815 61.7158 159.773 267.045 62.2462 159.565 
265.822 63.0547 159.971 265.941 63.1731 159.624 266.926 62.361 159.718 
264.414 64.2945 159.581 265.567 63.5207 159.598 264.724 64.0281 159.984 
[...]
POINT_DATA 4517
COLOR_SCALARS scalars 3
0.0941176 0.501961 0.392157 0.0941176 0.501961 0.392157 0.0941176 0.501961 0.392157 
0.0941176 0.501961 0.392157 0.0941176 0.501961 0.392157 
0.0941176 0.501961 0.392157 0.0941176 0.501961 0.392157 
0.0941176 0.501961 0.392157 0.0941176 0.501961 0.392157 
0.0941176 0.501961 0.392157 0.0941176 0.501961 0.392157 
0.0941176 0.501961 0.392157 0.0941176 0.501961 0.392157 
0.0941176 0.501961 0.392157 0.0941176 0.501961 0.392157 
0.0941176 0.501961 0.392157 0.0941176 0.501961 0.392157 
0.0941176 0.501961 0.392157 0.0941176 0.501961 0.392157 
0.0941176 0.501961 0.392157 0.0941176 0.501961 0.392157 
0.0941176 0.501961 0.392157 0.0941176 0.501961 0.392157 
0.0941176 0.501961 0.392157 0.0941176 0.501961 0.392157 
0.0941176 0.501961 0.392157 0.0941176 0.501961 0.392157 
0.0941176 0.501961 0.392157 0.0941176 0.501961 0.392157 
0.0941176 0.501961 0.392157 0.0941176 0.501961 0.392157 
0.0941176 0.501961 0.392157 0.0941176 0.501961 0.392157 
0.0941176 0.501961 0.392157 0.0941176 0.501961 0.392157 
0.0941176 0.501961 0.392157 0.0941176 0.501961 0.392157 
0.0941176 0.501961 0.392157 0.0941176 0.501961 0.392157 
0.0941176 0.501961 0.392157 0.0941176 0.501961 0.392157 
0.0941176 0.501961 0.392157 0.0941176 0.501961 0.392157 
0.0941176 0.501961 0.392157 0.0941176 0.501961 0.392157 
0.0941176 0.501961 0.392157 0.0941176 0.501961 0.392157 
0.0941176 0.501961 0.392157 0.0941176 0.501961 0.392157 
0.0941176 0.501961 0.392157 0.0941176 0.501961 0.392157 
0.0941176 0.501961 0.392157 0.0941176 0.501961 0.392157 
0.0941176 0.501961 0.392157 0.0941176 0.501961 0.392157 
0.0941176 0.501961 0.392157 0.0941176 0.501961 0.392157 
0.0941176 0.501961 0.392157 0.0941176 0.501961 0.392157 
0.0941176 0.501961 0.392157 0.0941176 0.501961 0.392157 
0.0941176 0.501961 0.392157 0.0941176 0.501961 0.392157 
0.0941176 0.501961 0.392157 0.0941176 0.501961 0.392157 
0.0941176 0.501961 0.392157 0.0941176 0.501961 0.392157 
0.0941176 0.501961 0.392157 0.0941176 0.501961 0.392157 
0.0941176 0.501961 0.392157 0.0941176 0.501961 0.392157 
0.0941176 0.501961 0.392157 0.0941176 0.501961 0.392157 
0.0941176 0.501961 0.392157 0.0941176 0.501961 0.392157 
0.0941176 0.501961 0.392157 0.0941176 0.501961 0.392157 
0.0941176 0.501961 0.392157 0.0941176 0.501961 0.392157 
0.0941176 0.501961 0.392157 0.0941176 0.501961 0.392157 
0.0941176 0.501961 0.392157 0.0941176 0.501961 0.392157 
0.0941176 0.501961 0.392157 0.0941176 0.501961 0.392157 
0.0941176 0.501961 0.392157 0.0941176 0.501961 0.392157 
0.0941176 0.501961 0.392157 0.0941176 0.501961 0.392157 
0.0941176 0.501961 0.392157 0.0941176 0.501961 0.392157 
0.0941176 0.501961 0.392157 0.0941176 0.501961 0.392157 
0.0941176 0.501961 0.392157 0.0941176 0.501961 0.392157 
0.0941176 0.501961 0.392157 0.0941176 0.501961 0.392157 
0.0941176 0.501961 0.392157 0.0941176 0.501961 0.392157 
0.0941176 0.501961 0.392157 0.0941176 0.501961 0.392157 
0.0941176 0.501961 0.392157 0.0941176 0.501961 0.392157 
0.0941176 0.501961 0.392157 0.0941176 0.501961 0.392157 
0.0941176 0.501961 0.392157 0.0941176 0.501961 0.392157 
0.0941176 0.501961 0.392157 0.0941176 0.501961 0.392157 
0.0941176 0.501961 0.392157 0.0941176 0.501961 0.392157 
0.0941176 0.501961 0.392157 0.0941176 0.501961 0.392157 
0.0941176 0.501961 0.392157 0.0941176 0.501961 0.392157 
0.0941176 0.501961 0.392157 0.0941176 0.501961 0.392157 
0.0941176 0.501961 0.392157 0.0941176 0.501961 0.392157 
0.0941176 0.501961 0.392157 0.0941176 0.501961 0.392157 
0.0941176 0.501961 0.392157 0.0941176 0.501961 0.392157 
0.0941176 0.501961 0.392157 0.0941176 0.501961 0.392157 
0.0941176 0.501961 0.392157 0.0941176 0.501961 0.392157 
0.0941176 0.501961 0.392157 0.0941176 0.501961 0.392157 
0.0941176 0.501961 0.392157 0.0941176 0.501961 0.392157 
0.0941176 0.501961 0.392157 0.0941176 0.501961 0.392157 
0.0941176 0.501961 0.392157 0.0941176 0.501961 0.392157 
0.0941176 0.501961 0.392157 0.0941176 0.501961 0.392157 
0.0941176 0.501961 0.392157 0.0941176 0.501961 0.392157 
0.0941176 0.501961 0.392157 0.0941176 0.501961 0.392157 
0.0941176 0.501961 0.392157 0.0941176 0.501961 0.392157 
0.0941176 0.501961 0.392157 0.0941176 0.501961 0.392157 
0.0941176 0.501961 0.392157 0.0941176 0.501961 0.392157 
0.0941176 0.501961 0.392157 0.0941176 0.501961 0.392157 
0.0941176 0.501961 0.392157 0.0941176 0.501961 0.392157 
0.0941176 0.501961 0.392157 0.0941176 0.501961 0.392157 
0.0941176 0.501961 0.392157 0.0941176 0.501961 0.392157 
0.0941176 0.501961 0.392157 0.0941176 0.501961 0.392157 
0.0941176 0.501961 0.392157 0.0941176 0.501961 0.392157 
0.0941176 0.501961 0.392157 0.0941176 0.501961 0.392157 
0.0941176 0.501961 0.392157 0.0941176 0.501961 0.392157 
0.0941176 0.501961 0.392157 0.0941176 0.501961 0.392157 
0.0941176 0.501961 0.392157 0.0941176 0.501961 0.392157 
0.0941176 0.501961 0.392157 0.0941176 0.501961 0.392157 
0.0941176 0.501961 0.392157 0.0941176 0.501961 0.392157 
0.0941176 0.501961 0.392157 0.0941176 0.501961 0.392157 
0.0941176 0.501961 0.392157 0.0941176 0.501961 0.392157 
0.0941176 0.501961 0.392157 0.0941176 0.501961 0.392157 
0.0941176 0.501961 0.392157 0.0941176 0.501961 0.392157 
0.0941176 0.501961 0.392157 0.0941176 0.501961 0.392157 
0.0941176 0.501961 0.392157 0.0941176 0.501961 0.392157 
0.0941176 0.501961 0.392157 0.0941176 0.501961 0.392157 
0.0941176 0.501961 0.392157 0.0941176 0.501961 0.392157 
0.0941176 0.501961 0.392157 0.0941176 0.501961 0.392157 
0.0941176 0.501961 0.392157 0.0941176 0.501961 0.392157 
0.0941176 0.501961 0.392157 0.0941176 0.501961 0.392157 
0.0941176 0.501961 0.392157 0.0941176 0.501961 0.392157 
0.0941176 0.501961 0.392157 0.0941176 0.501961 0.392157 
0.0941176 0.501961 0.392157 0.0941176 0.501961 0.392157 
0.0941176 0.501961 0.392157 0.0941176 0.501961 0.392157 
0.0941176 0.501961 0.392157 0.0941176 0.501961 0.392157 
0.0941176 0.501961 0.392157 0.0941176 0.501961 0.392157 
0.0941176 0.501961 0.392157 0.0941176 0.501961 0.392157 
0.0941176 0.501961 0.392157 0.0941176 0.501961 0.392157 
0.0941176 0.501961 0.392157 0.0941176 0.501961 0.392157 
0.0941176 0.501961 0.392157 0.0941176 0.501961 0.392157 
0.0941176 0.501961 0.392157 0.0941176 0.501961 0.392157 
0.0941176 0.501961 0.392157 0.0941176 0.501961 0.392157 
0.0941176 0.501961 0.392157 0.0941176 0.501961 0.392157 
0.0941176 0.501961 0.392157 0.0941176 0.501961 0.392157 
0.0941176 0.501961 0.392157 0.0941176 0.501961 0.392157 
0.0941176 0.501961 0.392157 0.0941176 0.501961 0.392157 
0.0941176 0.501961 0.392157 0.0941176 0.501961 0.392157 
0.0941176 0.501961 0.392157 0.0941176 0.501961 0.392157 
0.0941176 0.501961 0.392157 0.0941176 0.501961 0.392157 
0.0941176 0.501961 0.392157 0.0941176 0.501961 0.392157 
0.0941176 0.501961 0.392157 0.0941176 0.501961 0.392157 
0.0941176 0.501961 0.392157 0.0941176 0.501961 0.392157 
0.0941176 0.501961 0.392157 0.0941176 0.501961 0.392157 
0.0941176 0.501961 0.392157 0.0941176 0.501961 0.392157 
0.0941176 0.501961 0.392157 0.0941176 0.501961 0.392157 
0.0941176 0.501961 0.392157 0.0941176 0.501961 0.392157 
0.0941176 0.501961 0.392157 0.0941176 0.501961 0.392157 
0.0941176 0.501961 0.392157 0.0941176 0.501961 0.392157 
0.0941176 0.501961 0.392157 0.0941176 0.501961 0.392157 
0.0941176 0.501961 0.392157 0.0941176 0.501961 0.392157 
0.0941176 0.501961 0.392157 0.0941176 0.501961 0.392157 
0.0941176 0.501961 0.392157 0.0941176 0.501961 0.392157 
0.0941176 0.501961 0.392157 0.0941176 0.501961 0.392157 
0.0941176 0.501961 0.392157 0.0941176 0.501961 0.392157 
0.0941176 0.501961 0.392157 0.0941176 0.501961 0.392157 
0.0941176 0.501961 0.392157 0.0941176 0.501961 0.392157 
0.0941176 0.501961 0.392157 0.0941176 0.501961 0.392157 
0.0941176 0.501961 0.392157 0.0941176 0.501961 0.392157 
0.0941176 0.501961 0.392157 0.0941176 0.501961 0.392157 
0.0941176 0.501961 0.392157 0.0941176 0.501961 0.392157 
0.0941176 0.501961 0.392157 0.0941176 0.501961 0.392157 
0.0941176 0.501961 0.392157 0.0941176 0.501961 0.392157 
0.0941176 0.501961 0.392157 0.0941176 0.501961 0.392157 
0.0941176 0.501961 0.392157 0.0941176 0.501961 0.392157 
0.0941176 0.501961 0.392157 0.0941176 0.501961 0.392157 
0.0941176 0.501961 0.392157 0.0941176 0.501961 0.392157 
0.0941176 0.501961 0.392157 0.0941176 0.501961 0.392157 
0.0941176 0.501961 0.392157 0.0941176 0.501961 0.392157 
0.0941176 0.501961 0.392157 0.0941176 0.501961 0.392157 
0.0941176 0.501961 0.392157 0.0941176 0.501961 0.392157 
0.0941176 0.501961 0.392157 0.0941176 0.501961 0.392157 
0.0941176 0.501961 0.392157 0.0941176 0.501961 0.392157 
0.0941176 0.501961 0.392157 0.0941176 0.501961 0.392157 
0.0941176 0.501961 0.392157 0.0941176 0.501961 0.392157 
0.0941176 0.501961 0.392157 0.0941176 0.501961 0.392157 
0.0941176 0.501961 0.392157 0.0941176 0.501961 0.392157 
0.0941176 0.501961 0.392157 0.0941176 0.501961 0.392157 
0.0941176 0.501961 0.392157 0.0941176 0.501961 0.392157 
0.0941176 0.501961 0.392157 0.0941176 0.501961 0.392157 
0.0941176 0.501961 0.392157 0.0941176 0.501961 0.392157 
0.0941176 0.501961 0.392157 0.0941176 0.501961 0.392157 
0.0941176 0.501961 0.392157 0.0941176 0.501961 0.392157 
0.0941176 0.501961 0.392157 0.0941176 0.501961 0.392157 
0.0941176 0.501961 0.392157 0.0941176 0.501961 0.392157 
0.0941176 0.501961 0.392157 0.0941176 0.501961 0.392157 
0.0941176 0.501961 0.392157 0.0941176 0.501961 0.392157 
0.0941176 0.501961 0.392157 0.0941176 0.501961 0.392157 
0.0941176 0.501961 0.392157 0.0941176 0.501961 0.392157 
0.0941176 0.501961 0.392157 0.0941176 0.501961 0.392157 
0.0941176 0.501961 0.392157 0.0941176 0.501961 0.392157 
0.0941176 0.501961 0.392157 0.0941176 0.501961 0.392157 
0.0941176 0.501961 0.392157 0.0941176 0.501961 0.392157 
0.0941176 0.501961 0.392157 0.0941176 0.501961 0.392157 
0.0941176 0.501961 0.392157 0.0941176 0.501961 0.392157 
0.0941176 0.501961 0.392157 0.0941176 0.501961 0.392157 
0.0941176 0.501961 0.392157 0.0941176 0.501961 0.392157 
0.0941176 0.501961 0.392157 0.0941176 0.501961 0.392157 
0.0941176 0.501961 0.392157 0.0941176 0.501961 0.392157 
0.0941176 0.501961 0.392157 0.0941176 0.501961 0.392157 
0.0941176 0.501961 0.392157 0.0941176 0.501961 0.392157 
0.0941176 0.501961 0.392157 0.0941176 0.501961 0.392157 
0.0941176 0.501961 0.392157 0.0941176 0.501961 0.392157 
0.0941176 0.501961 0.392157 0.0941176 0.501961 0.392157 
0.0941176 0.501961 0.392157 0.0941176 0.501961 0.392157 
0.0941176 0.501961 0.392157 0.0941176 0.501961 0.392157 
0.0941176 0.501961 0.392157 0.0941176 0.501961 0.392157 
0.0941176 0.501961 0.392157 0.0941176 0.501961 0.392157 
0.0941176 0.501961 0.392157 0.0941176 0.501961 0.392157 
0.0941176 0.501961 0.392157 0.0941176 0.501961 0.392157 
0.0941176 0.501961 0.392157 0.0941176 0.501961 0.392157 
0.0941176 0.501961 0.392157 0.0941176 0.501961 0.392157 
0.0941176 0.501961 0.392157 0.0941176 0.501961 0.392157 
0.0941176 0.501961 0.392157 0.0941176 0.501961 0.392157 
0.0941176 0.501961 0.392157 0.0941176 0.501961 0.392157 
0.0941176 0.501961 0.392157 0.0941176 0.501961 0.392157 
0.0941176 0.501961 0.392157 0.0941176 0.501961 0.392157 
0.0941176 0.501961 0.392157 0.0941176 0.501961 0.392157 
0.0941176 0.501961 0.392157 0.0941176 0.501961 0.392157 
0.0941176 0.501961 0.392157 0.0941176 0.501961 0.392157 
0.0941176 0.501961 0.392157 0.0941176 0.501961 0.392157 
0.0941176 0.501961 0.392157 0.0941176 0.501961 0.392157 
0.0941176 0.501961 0.392157 0.0941176 0.501961 0.392157 
0.0941176 0.501961 0.392157 0.0941176 0.501961 0.392157 
0.0941176 0.501961 0.392157 0.0941176 0.501961 0.392157 
0.0941176 0.501961 0.392157 0.0941176 0.501961 0.392157 
0.0941176 0.501961 0.392157 0.0941176 0.501961 0.392157 
0.0941176 0.501961 0.392157 0.0941176 0.501961 0.392157 
0.0941176 0.501961 0.392157 0.0941176 0.501961 0.392157 
0.0941176 0.501961 0.392157 0.0941176 0.501961 0.392157 
0.0941176 0.501961 0.392157 0.0941176 0.501961 0.392157 
0.0941176 0.501961 0.392157 0.0941176 0.501961 0.392157 
0.0941176 0.501961 0.392157 0.0941176 0.501961 0.392157 
0.0941176 0.501961 0.392157 0.0941176 0.501961 0.392157 
0.0941176 0.501961 0.392157 0.0941176 0.501961 0.392157 
0.0941176 0.501961 0.392157 0.0941176 0.501961 0.392157 
0.0941176 0.501961 0.392157 0.0941176 0.501961 0.392157 
0.0941176 0.501961 0.392157 0.0941176 0.501961 0.392157 
0.0941176 0.501961 0.392157 0.0941176 0.501961 0.392157 
0.0941176 0.501961 0.392157 0.0941176 0.501961 0.392157 
0.0941176 0.501961 0.392157 0.0941176 0.501961 0.392157 
0.0941176 0.501961 0.392157 0.0941176 0.501961 0.392157 
0.0941176 0.501961 0.392157 0.0941176 0.501961 0.392157 
0.0941176 0.501961 0.392157 0.0941176 0.501961 0.392157 
0.0941176 0.501961 0.392157 0.0941176 0.501961 0.392157 
0.0941176 0.501961 0.392157 0.0941176 0.501961 0.392157 
0.0941176 0.501961 0.392157 0.0941176 0.501961 0.392157 
0.0941176 0.501961 0.392157 0.0941176 0.501961 0.392157 
0.0941176 0.501961 0.392157 0.0941176 0.501961 0.392157 
0.0941176 0.501961 0.392157 0.0941176 0.501961 0.392157 
0.0941176 0.501961 0.392157 0.0941176 0.501961 0.392157 
0.0941176 0.501961 0.392157 0.0941176 0.501961 0.392157 
0.0941176 0.501961 0.392157 0.0941176 0.501961 0.392157 
0.0941176 0.501961 0.392157 0.0941176 0.501961 0.392157 
0.0941176 0.501961 0.392157 0.0941176 0.501961 0.392157 
0.0941176 0.501961 0.392157 0.0941176 0.501961 0.392157 
0.0941176 0.501961 0.392157 0.0941176 0.501961 0.392157 
0.0941176 0.501961 0.392157 0.0941176 0.501961 0.392157 
0.0941176 0.501961 0.392157 0.0941176 0.501961 0.392157 
0.0941176 0.501961 0.392157 0.0941176 0.501961 0.392157 
0.0941176 0.501961 0.392157 0.0941176 0.501961 0.392157 
0.0941176 0.501961 0.392157 0.0941176 0.501961 0.392157 
0.0941176 0.501961 0.392157 0.0941176 0.501961 0.392157 
0.0941176 0.501961 0.392157 0.0941176 0.501961 0.392157 
0.0941176 0.501961 0.392157 0.0941176 0.501961 0.392157 
0.0941176 0.501961 0.392157 0.0941176 0.501961 0.392157 
0.0941176 0.501961 0.392157 0.0941176 0.501961 0.392157 
0.0941176 0.501961 0.392157 0.0941176 0.501961 0.392157 
0.0941176 0.501961 0.392157 0.0941176 0.501961 0.392157 
0.0941176 0.501961 0.392157 0.0941176 0.501961 0.392157 
0.0941176 0.501961 0.392157 0.0941176 0.501961 0.392157 
0.0941176 0.501961 0.392157 0.0941176 0.501961 0.392157 
0.0941176 0.501961 0.392157 0.0941176 0.501961 0.392157 
0.0941176 0.501961 0.392157 0.0941176 0.501961 0.392157 
0.0941176 0.501961 0.392157 0.0941176 0.501961 0.392157 
0.0941176 0.501961 0.392157 0.0941176 0.501961 0.392157 
0.0941176 0.501961 0.392157 0.0941176 0.501961 0.392157 
0.0941176 0.501961 0.392157 0.0941176 0.501961 0.392157 
0.0941176 0.501961 0.392157 0.0941176 0.501961 0.392157 
0.0941176 0.501961 0.392157 0.0941176 0.501961 0.392157 
0.0941176 0.501961 0.392157 0.0941176 0.501961 0.392157 
0.0941176 0.501961 0.392157 0.0941176 0.501961 0.392157 
0.0941176 0.501961 0.392157 0.0941176 0.501961 0.392157 
0.0941176 0.501961 0.392157 0.0941176 0.501961 0.392157 
0.0941176 0.501961 0.392157 0.0941176 0.501961 0.392157 
0.0941176 0.501961 0.392157 0.0941176 0.501961 0.392157 
0.0941176 0.501961 0.392157 0.0941176 0.501961 0.392157 
0.0941176 0.501961 0.392157 0.0941176 0.501961 0.392157 
0.0941176 0.501961 0.392157 0.0941176 0.501961 0.392157 
0.0941176 0.501961 0.392157 0.0941176 0.501961 0.392157 
0.0941176 0.501961 0.392157 0.0941176 0.501961 0.392157 
0.0941176 0.501961 0.392157 0.0941176 0.501961 0.392157 
0.0941176 0.501961 0.392157 0.0941176 0.501961 0.392157 
0.0941176 0.501961 0.392157 0.0941176 0.501961 0.392157 
0.0941176 0.501961 0.392157 0.0941176 0.501961 0.392157 
0.0941176 0.501961 0.392157 0.0941176 0.501961 0.392157 
0.0941176 0.501961 0.392157 0.0941176 0.501961 0.392157 
0.0941176 0.501961 0.392157 0.0941176 0.501961 0.392157 
0.0941176 0.501961 0.392157 0.0941176 0.501961 0.392157 
0.0941176 0.501961 0.392157 0.0941176 0.501961 0.392157 
0.0941176 0.501961 0.392157 0.0941176 0.501961 0.392157 
0.0941176 0.501961 0.392157 0.0941176 0.501961 0.392157 
0.0941176 0.501961 0.392157 0.0941176 0.501961 0.392157 
0.0941176 0.501961 0.392157 0.0941176 0.501961 0.392157 
0.0941176 0.501961 0.392157 0.0941176 0.501961 0.392157 
0.0941176 0.501961 0.392157 0.0941176 0.501961 0.392157 
0.0941176 0.501961 0.392157 0.0941176 0.501961 0.392157 
0.0941176 0.501961 0.392157 0.0941176 0.501961 0.392157 
0.0941176 0.501961 0.392157 0.0941176 0.501961 0.392157 
0.0941176 0.501961 0.392157 0.0941176 0.501961 0.392157 
0.0941176 0.501961 0.392157 0.0941176 0.501961 0.392157 
0.0941176 0.501961 0.392157 0.0941176 0.501961 0.392157 
0.0941176 0.501961 0.392157 0.0941176 0.501961 0.392157 
0.0941176 0.501961 0.392157 0.0941176 0.501961 0.392157 
0.0941176 0.501961 0.392157 0.0941176 0.501961 0.392157 
0.0941176 0.501961 0.392157 0.0941176 0.501961 0.392157 
0.0941176 0.501961 0.392157 0.0941176 0.501961 0.392157 
0.0941176 0.501961 0.392157 0.0941176 0.501961 0.392157 
0.0941176 0.501961 0.392157 0.0941176 0.501961 0.392157 
0.0941176 0.501961 0.392157 0.0941176 0.501961 0.392157 
0.0941176 0.501961 0.392157 0.0941176 0.501961 0.392157 
0.0941176 0.501961 0.392157 0.0941176 0.501961 0.392157 
0.0941176 0.501961 0.392157 0.0941176 0.501961 0.392157 
0.0941176 0.501961 0.392157 0.0941176 0.501961 0.392157 
0.0941176 0.501961 0.392157 0.0941176 0.501961 0.392157 
0.0941176 0.501961 0.392157 0.0941176 0.501961 0.392157 
0.0941176 0.501961 0.392157 0.0941176 0.501961 0.392157 
0.0941176 0.501961 0.392157 0.0941176 0.501961 0.392157 
0.0941176 0.501961 0.392157 0.0941176 0.501961 0.392157 
0.0941176 0.501961 0.392157 0.0941176 0.501961 0.392157 
0.0941176 0.501961 0.392157 0.0941176 0.501961 0.392157 
0.0941176 0.501961 0.392157 0.0941176 0.501961 0.392157 
0.0941176 0.501961 0.392157 0.0941176 0.501961 0.392157 
0.0941176 0.501961 0.392157 0.0941176 0.501961 0.392157 
0.0941176 0.501961 0.392157 0.0941176 0.501961 0.392157 
0.0941176 0.501961 0.392157 0.0941176 0.501961 0.392157 
0.0941176 0.501961 0.392157 0.0941176 0.501961 0.392157 
0.0941176 0.501961 0.392157 0.0941176 0.501961 0.392157 
0.0941176 0.501961 0.392157 0.0941176 0.501961 0.392157 
0.0941176 0.501961 0.392157 0.0941176 0.501961 0.392157 
0.0941176 0.501961 0.392157 0.0941176 0.501961 0.392157 
0.0941176 0.501961 0.392157 0.0941176 0.501961 0.392157 
0.0941176 0.501961 0.392157 0.0941176 0.501961 0.392157 
0.0941176 0.501961 0.392157 0.0941176 0.501961 0.392157 
0.0941176 0.501961 0.392157 0.0941176 0.501961 0.392157 
0.0941176 0.501961 0.392157 0.0941176 0.501961 0.392157 
0.0941176 0.501961 0.392157 0.0941176 0.501961 0.392157 
0.0941176 0.501961 0.392157 0.0941176 0.501961 0.392157 
0.0941176 0.501961 0.392157 0.0941176 0.501961 0.392157 
0.0941176 0.501961 0.392157 0.0941176 0.501961 0.392157 
0.0941176 0.501961 0.392157 0.0941176 0.501961 0.392157 
0.0941176 0.501961 0.392157 0.0941176 0.501961 0.392157 
0.0941176 0.501961 0.392157 0.0941176 0.501961 0.392157 
0.0941176 0.501961 0.392157 0.0941176 0.501961 0.392157 
0.0941176 0.501961 0.392157 0.0941176 0.501961 0.392157 
0.0941176 0.501961 0.392157 0.0941176 0.501961 0.392157 
0.0941176 0.501961 0.392157 0.0941176 0.501961 0.392157 
0.0941176 0.501961 0.392157 0.0941176 0.501961 0.392157 
0.0941176 0.501961 0.392157 0.0941176 0.501961 0.392157 
0.0941176 0.501961 0.392157 0.0941176 0.501961 0.392157 
0.0941176 0.501961 0.392157 0.0941176 0.501961 0.392157 
0.0941176 0.501961 0.392157 0.0941176 0.501961 0.392157 
0.0941176 0.501961 0.392157 0.0941176 0.501961 0.392157 
0.0941176 0.501961 0.392157 0.0941176 0.501961 0.392157 
0.0941176 0.501961 0.392157 0.0941176 0.501961 0.392157 
0.0941176 0.501961 0.392157 0.0941176 0.501961 0.392157 
0.0941176 0.501961 0.392157 0.0941176 0.501961 0.392157 
0.0941176 0.501961 0.392157 0.0941176 0.501961 0.392157 
0.0941176 0.501961 0.392157 0.0941176 0.501961 0.392157 
0.0941176 0.501961 0.392157 0.0941176 0.501961 0.392157 
0.0941176 0.501961 0.392157 0.0941176 0.501961 0.392157 
0.0941176 0.501961 0.392157 0.0941176 0.501961 0.392157 
0.0941176 0.501961 0.392157 0.0941176 0.501961 0.392157 
0.0941176 0.501961 0.392157 0.0941176 0.501961 0.392157 