# vtk DataFile Version 4.2
vtk output
ASCII
DATASET POLYDATA
POINTS 1362 float
236.06 87.4323 111.988 235.806 87.2637 112.079 236.136 87.2426 112.128 
236.105 87.6311 111.958 235.943 87.841 111.959 235.463 87.4439 112.046 
235.953 86.9581 112.33 236.436 87.1185 112.401 233.551 87.7333 112.301 
233.356 87.9106 112.356 235.459 87.8793 111.99 233.59 88.3683 112.288 
235.202 88.4359 112.069 236.526 88.1688 112.238 237.329 88.7261 112.639 
214.797 95.3568 112.75 214.714 95.923 112.436 214.567 95.9365 112.565 
214.598 96.0093 112.465 214.915 95.9019 112.373 214.66 96.0924 112.47 
214.683 96.3159 112.693 214.877 96.1166 112.42 215.421 96.2276 112.412 
214.97 96.3893 112.521 235.731 86.5437 112.659 236.143 86.1038 113.164 
232.523 87.4869 112.878 221.059 92.2208 113.307 221.055 92.135 113.356 
220.904 92.2804 113.355 217.497 93.7932 113.015 221.098 92.3474 113.321 
218.096 94.0297 112.976 216.842 94.727 112.684 217.377 94.8552 112.72 
214.566 96.0649 112.581 214.458 95.9429 112.939 216.085 95.8752 112.41 
215.77 96.4248 112.55 216.207 96.1295 112.526 214.729 96.7499 113.051 
215.258 96.9053 112.847 235.096 85.9272 113.285 231.543 87.2826 113.402 
237.338 87.3316 113.003 230.075 88.1214 113.585 224.451 90.2868 114.05 
229.384 90.195 113.475 221.076 91.9178 113.56 222.038 91.6905 113.698 
223.107 91.4313 113.801 238.069 90.4752 113.839 218.603 92.3326 113.777 
221.497 92.3416 113.434 237.886 90.9407 113.898 216.807 93.4236 113.317 
222.502 93.2158 113.564 215.496 93.9931 113.355 219.561 93.9858 113.157 
217.803 95.305 112.838 237.02 85.7822 113.912 219.337 91.626 114.14 
214.027 94.1895 114.478 213.774 94.0809 114.845 213.749 94.3991 114.675 
222.742 94.83 113.959 213.584 94.7951 114.767 214.187 97.0264 114.392 
216.261 98.8931 114.286 216.803 98.929 114.269 215.693 99.0265 114.792 
236.066 84.4607 115.111 233.881 85.0446 114.793 227.087 87.9263 114.894 
222.503 96.3894 114.476 217.235 99.7357 114.908 238.843 83.6656 116.762 
231.336 85.7052 115.185 240.135 90.3706 116.064 213.296 93.2155 116.346 
212.925 94.4785 115.818 213.075 95.3735 115.527 212.977 96.194 116.037 
215.058 99.2355 115.885 217.536 101.769 116.567 218.028 102.134 116.711 
240.307 81.7066 118.413 238.891 83.0134 117.241 238.574 82.4099 117.646 
240.382 81.9343 118.345 239.5 83.7053 117.073 240.06 83.2428 117.595 
239.89 85.5658 116.508 240.09 86.4614 116.426 240.472 87.6049 116.646 
215.454 91.4142 117.139 212.655 93.6975 116.598 212.101 95.1031 116.814 
240.619 94.4953 117.534 240.106 95.3876 117.523 212.807 96.5712 116.587 
239.477 96.0816 117.551 239.759 96.2796 117.867 219.497 101.927 116.56 
218.196 103.229 117.639 218.669 103.633 117.821 218.599 103.991 118.175 
240.226 81.157 118.93 238.207 82.0808 117.956 240.872 84.2401 117.776 
228.396 85.4756 117.66 210.604 94.6826 118.165 211.587 95.3596 117.409 
212.661 97.4794 117.72 238.021 97.5429 118.509 240.536 96.6902 119.164 
217.312 103.323 118.613 220.195 104.115 118.354 218.465 104.473 118.87 
219.067 104.559 118.627 218.831 104.651 118.835 242.416 79.5567 120.437 
242.488 79.7843 120.365 223.305 87.187 119.26 212.664 92.5192 118.757 
209.496 94.3836 119.241 211.521 93.2463 118.705 208.362 94.9881 119.441 
208.336 94.8709 119.622 207.948 95.0441 119.611 210.128 94.6149 118.571 
207.009 95.45 119.714 207.588 95.2052 119.715 209.482 95.1663 118.915 
206.87 95.5458 119.728 207.425 95.446 119.627 210.548 96.4485 118.808 
233.512 97.9526 118.337 240.813 96.5215 119.502 236.369 98.2459 119.179 
238.334 97.9491 119.571 223.81 102.685 118.981 217.949 104.362 119.444 
220.098 105.322 119.616 219.891 105.412 119.706 241.291 79.6466 120.349 
242.413 78.9821 120.951 243.089 79.8809 120.586 225.342 86.1772 119.371 
218.604 89.5466 119.521 213.597 92.0672 119.374 212.183 92.8556 119.36 
209.421 94.3745 119.539 210.796 93.6587 119.35 207.971 95.0239 119.718 
208.286 94.9405 119.8 206.951 95.4956 119.759 207.929 95.7351 119.653 
206.815 95.6097 119.734 206.793 95.6118 119.754 207.174 95.6983 119.782 
207.832 95.9469 119.911 208.545 96.5159 120.075 209.789 96.9055 119.607 
206.79 95.6357 119.75 240.748 96.7314 119.836 240.533 96.9654 119.98 
212.475 98.8748 119.456 234.474 98.7296 119.416 230.816 99.8386 119.785 
233.84 99.33 120.296 230.997 100.057 120.267 224.614 102.627 119.519 
224.408 103.227 120.603 218.778 105.048 120.258 220.104 105.419 119.906 
220.346 105.363 120.252 219.511 105.383 119.961 219.804 105.457 119.943 
244.055 78.4936 121.569 236.926 80.2493 121.092 244.636 81.807 121.004 
226.319 85.6125 120.656 222.191 87.8179 120.713 212.527 92.898 119.971 
210.43 94.0434 119.969 212.067 93.5654 120.629 208.612 95.056 120.071 
210.276 94.9955 120.985 207.231 95.6888 119.865 207.8 95.7934 120.093 
208.354 96.5117 120.521 209.438 95.7528 120.984 208.388 97.1935 120.966 
208.364 97.3811 120.91 208.647 97.1239 120.534 208.173 97.9513 121.286 
208.23 97.7885 121.17 239.64 97.4041 121.238 208.197 98.0257 121.303 
208.204 98.1126 121.376 208.359 98.0361 121.285 208.653 98.2424 121.463 
208.966 98.005 121.172 209.588 98.3552 121.052 208.28 98.204 121.411 
208.53 98.4685 121.57 231.644 100.146 121.092 233.568 99.4996 120.829 
230.536 100.558 121.31 217.774 104.46 120.639 224.149 103.445 121.271 
234.383 81.2451 121.447 226.948 85.5928 121.898 223.043 87.6364 121.422 
220.236 89.0931 121.015 219.128 90.2865 121.644 215.281 92.2769 121.271 
214.27 93.5166 121.862 243.01 93.5528 122.167 208.46 97.6238 121.248 
209.399 97.3675 121.658 208.479 98.1827 121.495 208.739 97.9352 121.392 
209.171 98.1272 121.584 208.366 98.3378 121.533 208.682 98.5473 121.767 
208.973 98.7043 121.678 208.946 98.5079 121.807 209.44 98.7588 121.492 
208.627 98.7918 121.816 208.949 99.2803 122.064 209.38 99.7827 122.204 
224.845 103.149 121.499 219.41 105.197 121.201 247.823 74.8929 124.041 
246.15 75.7934 123.507 247.72 75.4165 123.77 245.119 76.0101 123.411 
233.097 81.7968 122.688 224.778 87.5872 122.82 225.37 87.6252 123.243 
213.78 95.0966 122.659 241.444 95.353 123.154 208.705 98.8042 121.922 
209.063 98.9586 122.201 208.868 99.134 122.109 209.225 99.7801 122.529 
209.784 99.2958 122.899 209.342 100.314 122.905 209.353 100.523 122.982 
209.345 100.419 122.846 210.463 100.797 122.44 209.424 100.672 123.028 
209.635 100.958 123.203 209.794 100.868 122.859 213.479 102.181 122.348 
209.746 101.075 123.114 216.035 103.896 122.811 248.988 73.5521 124.951 
250.647 73.3846 125.211 247.262 74.5212 124.37 249.811 74.3048 124.621 
250.376 74.1993 124.783 244.272 75.8913 123.81 243.67 75.9623 124.055 
249.585 75.8135 124.143 242.81 76.4307 123.94 231.681 82.8866 123.352 
227.253 85.9743 122.91 227.06 86.7392 123.549 245.136 91.7085 124.135 
244.839 92.246 124.499 209.816 101.176 123.385 209.898 101.331 123.349 
210.137 101.601 123.437 210.116 101.597 123.54 210.445 101.794 123.472 
212.02 102.419 123.654 212.835 102.738 123.78 210.331 101.805 123.611 
210.764 102.175 123.845 211.364 102.727 124.091 211.733 102.659 124.018 
217.445 104.425 123.237 250.114 72.627 125.663 251.529 73.5062 125.391 
247.13 74.2689 124.668 240.352 77.4019 124.564 250.752 78.4034 124.839 
236.214 79.7493 123.866 233.142 82.097 123.839 230.925 85.2155 124.945 
246.866 88.9916 124.398 246.016 91.3226 125.646 243.278 93.6395 125.257 
210.038 101.385 123.537 211.453 101.919 124.206 210.823 101.98 123.994 
211.286 102.937 124.395 212.038 102.54 124.179 211.862 103.211 124.491 
212.605 102.47 124.359 212.957 103.411 124.374 212.943 102.912 124.647 
211.186 104.045 124.925 211.102 104.227 125.005 211.311 103.842 124.808 
211.301 103.688 124.765 211.655 103.557 124.624 212.366 103.722 124.664 
212.496 103.432 124.695 213.679 103.756 124.25 211.107 104.31 125.048 
213.366 104.151 124.723 215.236 104.091 124.343 217.986 104.119 124.423 
219.115 104.442 123.658 211.177 104.35 125.067 211.384 104.433 125.127 
211.621 104.636 125.243 213.694 104.348 124.985 214.602 104.186 124.852 
254.868 70.3665 127.163 254.892 70.2613 127.23 253.416 72.6691 126.125 
246.592 73.599 126.178 245.432 74.2907 125.842 244.823 74.5034 126.038 
243.028 75.6005 125.782 237.358 79.2576 125.032 236.784 80.2547 125.761 
250.24 83.1797 125.62 229.652 90.1378 126.447 246.873 90.3975 125.75 
244.596 92.5744 125.8 217.794 98.9993 125.595 225.498 101.103 125.597 
212.952 102.152 124.692 211.568 103.515 124.716 213.507 102.406 125.01 
215.506 102.069 125.629 212.813 103.491 124.994 213.478 103.064 125.129 
211.365 104.284 125.078 211.671 104.492 125.22 217.021 103.824 125.099 
211.744 104.793 125.356 211.683 104.721 125.314 212.314 104.723 125.232 
214.12 104.257 125.171 211.763 104.783 125.331 212.034 104.821 125.346 
212.224 104.881 125.376 212.438 104.837 125.351 212.306 104.884 125.376 
257.957 68.4407 128.269 254.946 70.0623 127.463 255.513 69.4429 127.912 
256.609 69.8251 127.752 254.125 70.5886 127.179 255.389 70.5851 127.274 
254.805 71.4096 126.936 256.967 70.8329 127.602 249.599 71.8945 126.735 
246.437 73.5057 126.676 246.572 73.3474 127.273 254.941 73.4152 126.686 
242.712 75.9252 126.675 254.972 75.207 126.831 238.982 78.3773 125.669 
239.739 78.0631 126.066 238.308 78.9271 125.76 237.766 80.9629 127.052 
250.813 85.3473 127.087 250.31 86.2704 127.193 248.697 87.8451 126.264 
249.925 87.12 127.542 246.899 90.5799 126.88 248.031 89.3372 127.637 
246.469 91.0209 126.772 229.408 93.4321 127.333 225.293 97.3998 126.908 
228.295 99.4182 126.264 219.919 101.387 126.295 214.294 103.113 125.409 
215.447 102.744 125.607 220.939 102.526 125.898 221.22 102.237 126.044 
221.753 102.062 126.033 218.112 103.069 125.725 212.627 104.312 125.321 
213.717 104.027 125.379 215.288 103.748 125.346 217.62 103.604 125.347 
211.888 104.788 125.366 212.123 104.775 125.381 213.557 104.33 125.336 
211.004 107.013 127.009 211.004 107.013 127.009 211.004 107.013 127.009 
211.004 107.013 127.009 212.37 104.807 125.383 211.004 107.013 127.009 
258.202 67.5193 128.844 257.353 68.7479 128.2 259.346 68.0734 128.659 
253.972 69.577 128.034 255.636 68.7694 128.468 247.503 72.7307 127.966 
[...]
POINT_DATA 1362
COLOR_SCALARS scalars 3
0.0941176 0.501961 0.392157 0.0941176 0.501961 0.392157 0.0941176 0.501961 0.392157 
0.0941176 0.501961 0.392157 0.0941176 0.501961 0.392157 
0.0941176 0.501961 0.392157 0.0941176 0.501961 0.392157 
0.0941176 0.501961 0.392157 0.0941176 0.501961 0.392157 
0.0941176 0.501961 0.392157 0.0941176 0.501961 0.392157 
0.0941176 0.501961 0.392157 0.0941176 0.501961 0.392157 
0.0941176 0.501961 0.392157 0.0941176 0.501961 0.392157 
0.0941176 0.501961 0.392157 0.0941176 0.501961 0.392157 
0.0941176 0.501961 0.392157 0.0941176 0.501961 0.392157 
0.0941176 0.501961 0.392157 0.0941176 0.501961 0.392157 
0.0941176 0.501961 0.392157 0.0941176 0.501961 0.392157 
0.0941176 0.501961 0.392157 0.0941176 0.501961 0.392157 
0.0941176 0.501961 0.392157 0.0941176 0.501961 0.392157 
0.0941176 0.501961 0.392157 0.0941176 0.501961 0.392157 
0.0941176 0.501961 0.392157 0.0941176 0.501961 0.392157 
0.0941176 0.501961 0.392157 0.0941176 0.501961 0.392157 
0.0941176 0.501961 0.392157 0.0941176 0.501961 0.392157 
0.0941176 0.501961 0.392157 0.0941176 0.501961 0.392157 
0.0941176 0.501961 0.392157 0.0941176 0.501961 0.392157 
0.0941176 0.501961 0.392157 0.0941176 0.501961 0.392157 
0.0941176 0.501961 0.392157 0.0941176 0.501961 0.392157 
0.0941176 0.501961 0.392157 0.0941176 0.501961 0.392157 
0.0941176 0.501961 0.392157 0.0941176 0.501961 0.392157 
0.0941176 0.501961 0.392157 0.0941176 0.501961 0.392157 
0.0941176 0.501961 0.392157 0.0941176 0.501961 0.392157 
0.0941176 0.501961 0.392157 0.0941176 0.501961 0.392157 
0.0941176 0.501961 0.392157 0.0941176 0.501961 0.392157 
0.0941176 0.501961 0.392157 0.0941176 0.501961 0.392157 
0.0941176 0.501961 0.392157 0.0941176 0.501961 0.392157 
0.0941176 0.501961 0.392157 0.0941176 0.501961 0.392157 
0.0941176 0.501961 0.392157 0.0941176 0.501961 0.392157 
0.0941176 0.501961 0.392157 0.0941176 0.501961 0.392157 
0.0941176 0.501961 0.392157 0.0941176 0.501961 0.392157 
0.0941176 0.501961 0.392157 0.0941176 0.501961 0.392157 
0.0941176 0.501961 0.392157 0.0941176 0.501961 0.392157 
0.0941176 0.501961 0.392157 0.0941176 0.501961 0.392157 
0.0941176 0.501961 0.392157 0.0941176 0.501961 0.392157 
0.0941176 0.501961 0.392157 0.0941176 0.501961 0.392157 
0.0941176 0.501961 0.392157 0.0941176 0.501961 0.392157 
0.0941176 0.501961 0.392157 0.0941176 0.501961 0.392157 
0.0941176 0.501961 0.392157 0.0941176 0.501961 0.392157 
0.0941176 0.501961 0.392157 0.0941176 0.501961 0.392157 
0.0941176 0.501961 0.392157 0.0941176 0.501961 0.392157 
0.0941176 0.501961 0.392157 0.0941176 0.501961 0.392157 
0.0941176 0.501961 0.392157 0.0941176 0.501961 0.392157 
0.0941176 0.501961 0.392157 0.0941176 0.501961 0.392157 
0.0941176 0.501961 0.392157 0.0941176 0.501961 0.392157 
0.0941176 0.501961 0.392157 0.0941176 0.501961 0.392157 
0.0941176 0.501961 0.392157 0.0941176 0.501961 0.392157 
0.0941176 0.501961 0.392157 0.0941176 0.501961 0.392157 
0.0941176 0.501961 0.392157 0.0941176 0.501961 0.392157 
0.0941176 0.501961 0.392157 0.0941176 0.501961 0.392157 
0.0941176 0.501961 0.392157 0.0941176 0.501961 0.392157 
0.0941176 0.501961 0.392157 0.0941176 0.501961 0.392157 
0.0941176 0.501961 0.392157 0.0941176 0.501961 0.392157 
0.0941176 0.501961 0.392157 0.0941176 0.501961 0.392157 
0.0941176 0.501961 0.392157 0.0941176 0.501961 0.392157 
0.0941176 0.501961 0.392157 0.0941176 0.501961 0.392157 
0.0941176 0.501961 0.392157 0.0941176 0.501961 0.392157 
0.0941176 0.501961 0.392157 0.0941176 0.501961 0.392157 
0.0941176 0.501961 0.392157 0.0941176 0.501961 0.392157 
0.0941176 0.501961 0.392157 0.0941176 0.501961 0.392157 
0.0941176 0.501961 0.392157 0.0941176 0.501961 0.392157 
0.0941176 0.501961 0.392157 0.0941176 0.501961 0.392157 
0.0941176 0.501961 0.392157 0.0941176 0.501961 0.392157 
0.0941176 0.501961 0.392157 0.0941176 0.501961 0.392157 
0.0941176 0.501961 0.392157 0.0941176 0.501961 0.392157 
0.0941176 0.501961 0.392157 0.0941176 0.501961 0.392157 
0.0941176 0.501961 0.392157 0.0941176 0.501961 0.392157 
0.0941176 0.501961 0.392157 0.0941176 0.501961 0.392157 
0.0941176 0.501961 0.392157 0.0941176 0.501961 0.392157 
0.0941176 0.501961 0.392157 0.0941176 0.501961 0.392157 
0.0941176 0.501961 0.392157 0.0941176 0.501961 0.392157 
0.0941176 0.501961 0.392157 0.0941176 0.501961 0.392157 
0.0941176 0.501961 0.392157 0.0941176 0.501961 0.392157 
0.0941176 0.501961 0.392157 0.0941176 0.501961 0.392157 
0.0941176 0.501961 0.392157 0.0941176 0.501961 0.392157 
0.0941176 0.501961 0.392157 0.0941176 0.501961 0.392157 
0.0941176 0.501961 0.392157 0.0941176 0.501961 0.392157 
0.0941176 0.501961 0.392157 0.0941176 0.501961 0.392157 
0.0941176 0.501961 0.392157 0.0941176 0.501961 0.392157 
0.0941176 0.501961 0.392157 0.0941176 0.501961 0.392157 
0.0941176 0.501961 0.392157 0.0941176 0.501961 0.392157 
0.0941176 0.501961 0.392157 0.0941176 0.501961 0.392157 
0.0941176 0.501961 0.392157 0.0941176 0.501961 0.392157 
0.0941176 0.501961 0.392157 0.0941176 0.501961 0.392157 
0.0941176 0.501961 0.392157 0.0941176 0.501961 0.392157 
0.0941176 0.501961 0.392157 0.0941176 0.501961 0.392157 
0.0941176 0.501961 0.392157 0.0941176 0.501961 0.392157 
0.0941176 0.501961 0.392157 0.0941176 0.501961 0.392157 
0.0941176 0.501961 0.392157 0.0941176 0.501961 0.392157 
0.0941176 0.501961 0.392157 0.0941176 0.501961 0.392157 
0.0941176 0.501961 0.392157 0.0941176 0.501961 0.392157 
0.0941176 0.501961 0.392157 0.0941176 0.501961 0.392157 
0.0941176 0.501961 0.392157 0.0941176 0.501961 0.392157 
0.0941176 0.501961 0.392157 0.0941176 0.501961 0.392157 
0.0941176 0.501961 0.392157 0.0941176 0.501961 0.392157 
0.0941176 0.501961 0.392157 0.0941176 0.501961 0.392157 
0.0941176 0.501961 0.392157 0.0941176 0.501961 0.392157 
0.0941176 0.501961 0.392157 0.0941176 0.501961 0.392157 
0.0941176 0.501961 0.392157 0.0941176 0.501961 0.392157 
0.0941176 0.501961 0.392157 0.0941176 0.501961 0.392157 
0.0941176 0.501961 0.392157 0.0941176 0.501961 0.392157 
0.0941176 0.501961 0.392157 0.0941176 0.501961 0.392157 
0.0941176 0.501961 0.392157 0.0941176 0.501961 0.392157 
0.0941176 0.501961 0.392157 0.0941176 0.501961 0.392157 
0.0941176 0.501961 0.392157 0.0941176 0.501961 0.392157 
0.0941176 0.501961 0.392157 0.0941176 0.501961 0.392157 
0.0941176 0.501961 0.392157 0.0941176 0.501961 0.392157 
0.0941176 0.501961 0.392157 0.0941176 0.501961 0.392157 
0.0941176 0.501961 0.392157 0.0941176 0.501961 0.392157 
0.0941176 0.501961 0.392157 0.0941176 0.501961 0.392157 
0.0941176 0.501961 0.392157 0.0941176 0.501961 0.392157 
0.0941176 0.501961 0.392157 0.0941176 0.501961 0.392157 
0.0941176 0.501961 0.392157 0.0941176 0.501961 0.392157 
0.0941176 0.501961 0.392157 0.0941176 0.501961 0.392157 
0.0941176 0.501961 0.392157 0.0941176 0.501961 0.392157 
0.0941176 0.501961 0.392157 0.0941176 0.501961 0.392157 
0.0941176 0.501961 0.392157 0.0941176 0.501961 0.392157 
0.0941176 0.501961 0.392157 0.0941176 0.501961 0.392157 
0.0941176 0.501961 0.392157 0.0941176 0.501961 0.392157 
0.0941176 0.501961 0.392157 0.0941176 0.501961 0.392157 
0.0941176 0.501961 0.392157 0.0941176 0.501961 0.392157 
0.0941176 0.501961 0.392157 0.0941176 0.501961 0.392157 
0.0941176 0.501961 0.392157 0.0941176 0.501961 0.392157 
0.0941176 0.501961 0.392157 0.0941176 0.501961 0.392157 
0.0941176 0.501961 0.392157 0.0941176 0.501961 0.392157 
0.0941176 0.501961 0.392157 0.0941176 0.501961 0.392157 
0.0941176 0.501961 0.392157 0.0941176 0.501961 0.392157 
0.0941176 0.501961 0.392157 0.0941176 0.501961 0.392157 
0.0941176 0.501961 0.392157 0.0941176 0.501961 0.392157 
0.0941176 0.501961 0.392157 0.0941176 0.501961 0.392157 
0.0941176 0.501961 0.392157 0.0941176 0.501961 0.392157 
0.0941176 0.501961 0.392157 0.0941176 0.501961 0.392157 
0.0941176 0.501961 0.392157 0.0941176 0.501961 0.392157 
0.0941176 0.501961 0.392157 0.0941176 0.501961 0.392157 
0.0941176 0.501961 0.392157 0.0941176 0.501961 0.392157 
0.0941176 0.501961 0.392157 0.0941176 0.501961 0.392157 
0.0941176 0.501961 0.392157 0.0941176 0.501961 0.392157 
0.0941176 0.501961 0.392157 0.0941176 0.501961 0.392157 
0.0941176 0.501961 0.392157 0.0941176 0.501961 0.392157 
0.0941176 0.501961 0.392157 0.0941176 0.501961 0.392157 
0.0941176 0.501961 0.392157 0.0941176 0.501961 0.392157 
0.0941176 0.501961 0.392157 0.0941176 0.501961 0.392157 
0.0941176 0.501961 0.392157 0.0941176 0.501961 0.392157 
0.0941176 0.501961 0.392157 0.0941176 0.501961 0.392157 
0.0941176 0.501961 0.392157 0.0941176 0.501961 0.392157 
0.0941176 0.501961 0.392157 0.0941176 0.501961 0.392157 
0.0941176 0.501961 0.392157 0.0941176 0.501961 0.392157 
0.0941176 0.501961 0.392157 0.0941176 0.501961 0.392157 
0.0941176 0.501961 0.392157 0.0941176 0.501961 0.392157 
0.0941176 0.501961 0.392157 0.0941176 0.501961 0.392157 
0.0941176 0.501961 0.392157 0.0941176 0.501961 0.392157 
0.0941176 0.501961 0.392157 0.0941176 0.501961 0.392157 
0.0941176 0.501961 0.392157 0.0941176 0.501961 0.392157 
0.0941176 0.501961 0.392157 0.0941176 0.501961 0.392157 
0.0941176 0.501961 0.392157 0.0941176 0.501961 0.392157 
0.0941176 0.501961 0.392157 0.0941176 0.501961 0.392157 
0.0941176 0.501961 0.392157 0.0941176 0.501961 0.392157 
0.0941176 0.501961 0.392157 0.0941176 0.501961 0.392157 
0.0941176 0.501961 0.392157 0.0941176 0.501961 0.392157 
0.0941176 0.501961 0.392157 0.0941176 0.501961 0.392157 
0.0941176 0.501961 0.392157 0.0941176 0.501961 0.392157 
0.0941176 0.501961 0.392157 0.0941176 0.501961 0.392157 
0.0941176 0.501961 0.392157 0.0941176 0.501961 0.392157 
0.0941176 0.501961 0.392157 0.0941176 0.501961 0.392157 
0.0941176 0.501961 0.392157 0.0941176 0.501961 0.392157 
0.0941176 0.501961 0.392157 0.0941176 0.501961 0.392157 
0.0941176 0.501961 0.392157 0.0941176 0.501961 0.392157 
0.0941176 0.501961 0.392157 0.0941176 0.501961 0.392157 
0.0941176 0.501961 0.392157 0.0941176 0.501961 0.392157 
0.0941176 0.501961 0.392157 0.0941176 0.501961 0.392157 
0.0941176 0.501961 0.392157 0.0941176 0.501961 0.392157 
0.0941176 0.501961 0.392157 0.0941176 0.501961 0.392157 
0.0941176 0.501961 0.392157 0.0941176 0.501961 0.392157 
0.0941176 0.501961 0.392157 0.0941176 0.501961 0.392157 
0.0941176 0.501961 0.392157 0.0941176 0.501961 0.392157 
0.0941176 0.501961 0.392157 0.0941176 0.501961 0.392157 
0.0941176 0.501961 0.392157 0.0941176 0.501961 0.392157 
0.0941176 0.501961 0.392157 0.0941176 0.501961 0.392157 
0.0941176 0.501961 0.392157 0.0941176 0.501961 0.392157 
0.0941176 0.501961 0.392157 0.0941176 0.501961 0.392157 
0.0941176 0.501961 0.392157 0.0941176 0.501961 0.392157 
0.0941176 0.501961 0.392157 0.0941176 0.501961 0.392157 
0.0941176 0.501961 0.392157 0.0941176 0.501961 0.392157 
0.0941176 0.501961 0.392157 0.0941176 0.501961 0.392157 
0.0941176 0.501961 0.392157 0.0941176 0.501961 0.392157 
0.0941176 0.501961 0.392157 0.0941176 0.501961 0.392157 
0.0941176 0.501961 0.392157 0.0941176 0.501961 0.392157 
0.0941176 0.501961 0.392157 0.0941176 0.501961 0.392157 
0.0941176 0.501961 0.392157 0.0941176 0.501961 0.392157 
0.0941176 0.501961 0.392157 0.0941176 0.501961 0.392157 
0.0941176 0.501961 0.392157 0.0941176 0.501961 0.392157 
0.0941176 0.501961 0.392157 0.0941176 0.501961 0.392157 
0.0941176 0.501961 0.392157 0.0941176 0.501961 0.392157 
0.0941176 0.501961 0.392157 0.0941176 0.501961 0.392157 
0.0941176 0.501961 0.392157 0.0941176 0.501961 0.392157 
0.0941176 0.501961 0.392157 0.0941176 0.501961 0.392157 
0.0941176 0.501961 0.392157 0.0941176 0.501961 0.392157 
0.0941176 0.501961 0.392157 0.0941176 0.501961 0.392157 
0.0941176 0.501961 0.392157 0.0941176 0.501961 0.392157 
0.0941176 0.501961 0.392157 0.0941176 0.501961 0.392157 
0.0941176 0.501961 0.392157 0.0941176 0.501961 0.392157 
0.0941176 0.501961 0.392157 0.0941176 0.501961 0.392157 
0.0941176 0.501961 0.392157 0.0941176 0.501961 0.392157 
0.0941176 0.501961 0.392157 0.0941176 0.501961 0.392157 
0.0941176 0.501961 0.392157 0.0941176 0.501961 0.392157 
0.0941176 0.501961 0.392157 0.0941176 0.501961 0.392157 
0.0941176 0.501961 0.392157 0.0941176 0.501961 0.392157 
0.0941176 0.501961 0.392157 0.0941176 0.501961 0.392157 
0.0941176 0.501961 0.392157 0.0941176 0.501961 0.392157 
0.0941176 0.501961 0.392157 0.0941176 0.501961 0.392157 
0.0941176 0.501961 0.392157 0.0941176 0.501961 0.392157 
0.0941176 0.501961 0.392157 0.0941176 0.501961 0.392157 
0.0941176 0.501961 0.392157 0.0941176 0.501961 0.392157 
0.0941176 0.501961 0.392157 0.0941176 0.501961 0.392157 
0.0941176 0.501961 0.392157 0.0941176 0.501961 0.392157 
0.0941176 0.501961 0.392157 0.0941176 0.501961 0.392157 
0.0941176 0.501961 0.392157 0.0941176 0.501961 0.392157 
0.0941176 0.501961 0.392157 0.0941176 0.501961 0.392157 
0.0941176 0.501961 0.392157 0.0941176 0.501961 0.392157 
0.0941176 0.501961 0.392157 0.0941176 0.501961 0.392157 
0.0941176 0.501961 0.392157 0.0941176 0.501961 0.392157 
0.0941176 0.501961 0.392157 0.0941176 0.501961 0.392157 
0.0941176 0.501961 0.392157 0.0941176 0.501961 0.392157 
0.0941176 0.501961 0.392157 0.0941176 0.501961 0.392157 
0.0941176 0.501961 0.392157 0.0941176 0.501961 0.392157 
0.0941176 0.501961 0.392157 0.0941176 0.501961 0.392157 
0.0941176 0.501961 0.392157 0.0941176 0.501961 0.392157 
0.0941176 0.501961 0.392157 0.0941176 0.501961 0.392157 
0.0941176 0.501961 0.392157 0.0941176 0.501961 0.392157 
0.0941176 0.501961 0.392157 0.0941176 0.501961 0.392157 
0.0941176 0.501961 0.392157 0.0941176 0.501961 0.392157 
0.0941176 0.501961 0.392157 0.0941176 0.501961 0.392157 
0.0941176 0.501961 0.392157 0.0941176 0.501961 0.392157 
0.0941176 0.501961 0.392157 0.0941176 0.501961 0.392157 
0.0941176 0.501961 0.392157 0.0941176 0.501961 0.392157 
0.0941176 0.501961 0.392157 0.0941176 0.501961 0.392157 
0.0941176 0.501961 0.392157 0.0941176 0.501961 0.392157 
0.0941176 0.501961 0.392157 0.0941176 0.501961 0.392157 
0.0941176 0.501961 0.392157 0.0941176 0.501961 0.392157 
0.0941176 0.501961 0.392157 0.0941176 0.501961 0.392157 
0.0941176 0.501961 0.392157 0.0941176 0.501961 0.392157 
0.0941176 0.501961 0.392157 0.0941176 0.501961 0.392157 
0.0941176 0.501961 0.392157 0.0941176 0.501961 0.392157 
0.0941176 0.501961 0.392157 0.0941176 0.501961 0.392157 
0.0941176 0.501961 0.392157 0.0941176 0.501961 0.392157 
0.0941176 0.501961 0.392157 0.0941176 0.501961 0.392157 
0.0941176 0.501961 0.392157 0.0941176 0.501961 0.392157 
0.0941176 0.501961 0.392157 0.0941176 0.501961 0.392157 
0.0941176 0.501961 0.392157 0.0941176 0.501961 0.392157 
0.0941176 0.501961 0.392157 0.0941176 0.501961 0.392157 
0.0941176 0.501961 0.392157 0.0941176 0.501961 0.392157 
0.0941176 0.501961 0.392157 0.0941176 0.501961 0.392157 
0.0941176 0.501961 0.392157 0.0941176 0.501961 0.392157 
0.0941176 0.501961 0.392157 0.0941176 0.501961 0.392157 
0.0941176 0.501961 0.392157 0.0941176 0.501961 0.392157 
0.0941176 0.501961 0.392157 0.0941176 0.501961 0.392157 
0.0941176 0.501961 0.392157 0.0941176 0.501961 0.392157 
0.0941176 0.501961 0.392157 0.0941176 0.501961 0.392157 
0.0941176 0.501961 0.392157 0.0941176 0.501961 0.392157 
0.0941176 0.501961 0.392157 0.0941176 0.501961 0.392157 
0.0941176 0.501961 0.392157 0.0941176 0.501961 0.392157 
0.0941176 0.501961 0.392157 0.0941176 0.501961 0.392157 
0.0941176 0.501961 0.392157 0.0941176 0.501961 0.392157 
0.0941176 0.501961 0.392157 0.0941176 0.501961 0.392157 
0.0941176 0.501961 0.392157 0.0941176 0.501961 0.392157 
0.0941176 0.501961 0.392157 0.0941176 0.501961 0.392157 
0.0941176 0.501961 0.392157 0.0941176 0.501961 0.392157 
0.0941176 0.501961 0.392157 0.0941176 0.501961 0.392157 
0.0941176 0.501961 0.392157 0.0941176 0.501961 0.392157 
0.0941176 0.501961 0.392157 0.0941176 0.501961 0.392157 
0.0941176 0.501961 0.392157 0.0941176 0.501961 0.392157 
0.0941176 0.501961 0.392157 0.0941176 0.501961 0.392157 
0.0941176 0.501961 0.392157 0.0941176 0.501961 0.392157 
0.0941176 0.501961 0.392157 0.0941176 0.501961 0.392157 
0.0941176 0.501961 0.392157 0.0941176 0.501961 0.392157 
0.0941176 0.501961 0.392157 0.0941176 0.501961 0.392157 
0.0941176 0.501961 0.392157 0.0941176 0.501961 0.392157 
0.0941176 0.501961 0.392157 0.0941176 0.501961 0.392157 
0.0941176 0.501961 0.392157 0.0941176 0.501961 0.392157 
0.0941176 0.501961 0.392157 0.0941176 0.501961 0.392157 
0.0941176 0.501961 0.392157 0.0941176 0.501961 0.392157 
0.0941176 0.501961 0.392157 0.0941176 0.501961 0.392157 
0.0941176 0.501961 0.392157 0.0941176 0.501961 0.392157 
0.0941176 0.501961 0.392157 0.0941176 0.501961 0.392157 
0.0941176 0.501961 0.392157 0.0941176 0.501961 0.392157 
0.0941176 0.501961 0.392157 0.0941176 0.501961 0.392157 
0.0941176 0.501961 0.392157 0.0941176 0.501961 0.392157 
0.0941176 0.501961 0.392157 0.0941176 0.501961 0.392157 
0.0941176 0.501961 0.392157 0.0941176 0.501961 0.392157 
0.0941176 0.501961 0.392157 0.0941176 0.501961 0.392157 
0.0941176 0.501961 0.392157 0.0941176 0.501961 0.392157 
0.0941176 0.501961 0.392157 0.0941176 0.501961 0.392157 
0.0941176 0.501961 0.392157 0.0941176 0.501961 0.392157 
0.0941176 0.501961 0.392157 0.0941176 0.501961 0.392157 
0.0941176 0.501961 0.392157 0.0941176 0.501961 0.392157 
0.0941176 0.501961 0.392157 0.0941176 0.501961 0.392157 
0.0941176 0.501961 0.392157 0.0941176 0.501961 0.392157 
0.0941176 0.501961 0.392157 0.0941176 0.501961 0.392157 
0.0941176 0.501961 0.392157 0.0941176 0.501961 0.392157 
0.0941176 0.501961 0.392157 0.0941176 0.501961 0.392157 
0.0941176 0.501961 0.392157 0.0941176 0.501961 0.392157 
0.0941176 0.501961 0.392157 0.0941176 0.501961 0.392157 
0.0941176 0.501961 0.392157 0.0941176 0.501961 0.392157 
0.0941176 0.501961 0.392157 0.0941176 0.501961 0.392157 
0.0941176 0.501961 0.392157 0.0941176 0.501961 0.392157 
0.0941176 0.501961 0.392157 0.0941176 0.501961 0.392157 
0.0941176 0.501961 0.392157 0.0941176 0.501961 0.392157 
0.0941176 0.501961 0.392157 0.0941176 0.501961 0.392157 
0.0941176 0.501961 0.392157 0.0941176 0.501961 0.392157 
0.0941176 0.501961 0.392157 0.0941176 0.501961 0.392157 
0.0941176 0.501961 0.392157 0.0941176 0.501961 0.392157 
0.0941176 0.501961 0.392157 0.0941176 0.501961 0.392157 
0.0941176 0.501961 0.392157 0.0941176 0.501961 0.392157 
0.0941176 0.501961 0.392157 0.0941176 0.501961 0.392157 
0.0941176 0.501961 0.392157 0.0941176 0.501961 0.392157 
0.0941176 0.501961 0.392157 0.0941176 0.501961 0.392157 
0.0941176 0.501961 0.392157 0.0941176 0.501961 0.392157 
0.0941176 0.501961 0.392157 0.0941176 0.501961 0.392157 
0.0941176 0.501961 0.392157 0.0941176 0.501961 0.392157 
0.0941176 0.501961 0.392157 0.0941176 0.501961 0.392157 
0.0941176 0.501961 0.392157 0.0941176 0.501961 0.392157 
0.0941176 0.501961 0.392157 0.0941176 0.501961 0.392157 
0.0941176 0.501961 0.392157 0.0941176 0.501961 0.392157 
0.0941176 0.501961 0.392157 0.0941176 0.501961 0.392157 
0.0941176 0.501961 0.392157 0.0941176 0.501961 0.392157 
0.0941176 0.501961 0.392157 0.0941176 0.501961 0.392157 
0.0941176 0.501961 0.392157 0.0941176 0.501961 0.392157 
0.0941176 0.501961 0.392157 0.0941176 0.501961 0.392157 
0.0941176 0.501961 0.392157 0.0941176 0.501961 0.392157 
0.0941176 0.501961 0.392157 0.0941176 0.501961 0.392157 
0.0941176 0.501961 0.392157 0.0941176 0.501961 0.392157 
0.0941176 0.501961 0.392157 0.0941176 0.501961 0.392157 
0.0941176 0.501961 0.392157 0.0941176 0.501961 0.392157 
0.0941176 0.501961 0.392157 0.0941176 0.501961 0.392157 
0.0941176 0.501961 0.392157 0.0941176 0.501961 0.392157 
0.0941176 0.501961 0.392157 0.0941176 0.501961 0.392157 
0.0941176 0.501961 0.392157 0.0941176 0.501961 0.392157 
0.0941176 0.501961 0.392157 0.0941176 0.501961 0.392157 
0.0941176 0.501961 0.392157 0.0941176 0.501961 0.392157 
0.0941176 0.501961 0.392157 0.0941176 0.501961 0.392157 
0.0941176 0.501961 0.392157 0.0941176 0.501961 0.392157 
0.0941176 0.501961 0.392157 0.0941176 0.501961 0.392157 
0.0941176 0.501961 0.392157 0.0941176 0.501961 0.392157 
0.0941176 0.501961 0.392157 0.0941176 0.501961 0.392157 
0.0941176 0.501961 0.392157 0.0941176 0.501961 0.392157 
0.0941176 0.501961 0.392157 0.0941176 0.501961 0.392157 
0.0941176 0.501961 0.392157 0.0941176 0.501961 0.392157 