# vtk DataFile Version 4.2
vtk output
ASCII
DATASET POLYDATA
POINTS 7862 float
275.442 108.129 91.5395 271.114 110.885 91.394 270.845 111.009 91.4067 
271.403 110.659 91.4491 269.193 112.005 91.365 268.916 112.12 91.3891 
269.488 111.798 91.3988 271.02 110.931 91.4388 269.178 112.006 91.4109 
265.453 114.1 91.2454 265.285 114.182 91.2597 265.614 113.95 91.2834 
264.29 114.845 91.2814 264.084 114.909 91.3195 265.51 114.051 91.298 
264.471 114.711 91.2951 261.018 116.646 91.2378 260.945 116.58 91.299 
261.057 116.676 91.2138 261.108 116.677 91.1981 260 119.009 90.0174 
260 119.009 90.0175 260 119.009 90.0175 260.971 116.576 91.3135 
260 119.009 90.0175 260 119.009 90.0175 313.944 81.6845 91.9788 
314.012 81.6315 92.0113 313.554 81.8373 92.0106 313.864 81.7444 91.9858 
314.026 81.6797 91.9888 311.862 82.2355 92.2175 312.625 82.0458 92.1169 
312.324 81.9766 92.2116 313.144 81.9592 92.0626 313.432 81.8951 92.064 
313.965 81.7162 92.0134 311.247 82.4249 92.3053 310.713 82.544 92.4336 
311.545 82.3835 92.2722 312.101 82.2191 92.2489 312.729 82.0622 92.1629 
311.037 82.5057 92.3776 295.574 91.3661 92.3137 295.695 91.2202 92.3686 
294.723 92.1707 92.2376 294.814 92.0531 92.2546 294.625 92.21 92.2533 
295.565 91.3788 92.3692 294.819 92.0625 92.2876 293.008 93.7045 92.074 
294.563 92.3025 92.2869 293.292 93.5859 92.1658 291.788 94.6325 91.9353 
292.294 94.7039 91.9417 292.584 94.502 92.0525 290.903 95.7507 91.8346 
291.426 95.4855 91.8493 289.834 96.356 91.8286 291.923 95.2842 91.9802 
291.174 96.0194 92.0617 289.071 97.8844 91.9754 287.657 99.0694 91.8564 
285.812 100.071 91.7721 286.085 100.561 91.8685 286.549 100.306 91.9614 
284.864 101.613 91.8983 285.39 101.222 92.006 280.054 104.437 91.7502 
280.8 104.172 91.7901 281.952 103.537 91.997 276.618 106.158 91.9484 
280.154 104.878 91.8691 274.474 107.865 91.912 275.768 107.618 91.6226 
279.109 105.593 91.9181 272.597 108.92 92.0606 276.454 107.307 91.7029 
274.249 108.785 91.6129 275.018 108.39 91.6864 271.489 110.396 91.5146 
272.358 109.861 91.5602 273.131 109.467 91.5855 273.664 109.221 91.6355 
269.487 111.565 91.4742 270.623 110.958 91.4682 272.151 110.109 91.5901 
273.077 109.553 91.668 268.411 112.227 91.4382 270.264 111.308 91.475 
264.042 113.971 91.7799 267.184 112.921 91.4248 268.592 112.244 91.4902 
262.292 115.164 91.662 264.78 114.363 91.3459 266.137 113.599 91.3553 
266.634 113.344 91.4254 267.206 112.997 91.4811 263.676 114.945 91.3966 
265.242 114.198 91.3907 264.672 114.564 91.3602 265.97 113.758 91.4118 
260.125 116.238 91.7772 259.991 116.255 91.8307 261.841 115.876 91.4284 
262.652 115.479 91.4327 263.222 115.251 91.4397 263.848 114.964 91.4262 
260.135 116.299 91.771 260.363 116.347 91.6433 260.789 116.395 91.4603 
261.363 116.34 91.3375 261.17 116.607 91.2246 262.077 115.833 91.4626 
262.703 115.494 91.4939 260.551 116.395 91.5831 260.826 116.404 91.5066 
260 119.009 90.0175 312.769 81.1662 92.7447 313.726 81.352 92.4035 
314.034 81.6044 92.0631 310.547 82.155 92.9292 311.539 81.5792 92.8499 
314.035 81.6579 92.041 309.468 82.4548 92.9967 310.008 82.4205 92.8572 
307.83 83.1024 93.0751 307.423 83.2548 93.1304 309.191 82.8146 92.8134 
310.042 82.6279 92.63 305.414 84.134 93.2974 305.109 84.216 93.3682 
305.616 84.0713 93.2902 307.777 83.1861 93.0924 308.601 82.9752 92.9475 
309.328 82.7976 92.8399 310.345 82.6117 92.5786 303.465 85.1453 93.5387 
303.165 85.3392 93.594 305.185 84.2518 93.3844 303.723 85.0148 93.5658 
300.343 87.1777 93.4546 300.665 86.9118 93.5066 298.097 88.8063 93.1634 
298.417 88.6616 93.2254 300.224 87.263 93.5092 297.082 89.8753 92.8541 
297.089 89.5391 92.9896 297.54 89.577 92.981 297.996 89.1713 93.1039 
296.541 90.5005 92.7236 297.047 90.0229 92.9481 295.021 91.7184 92.3703 
295.916 91.0375 92.4628 296.163 90.8636 92.5675 292.381 93.2781 92.4371 
293.92 92.7452 92.2749 295.381 91.5493 92.4601 294.884 92.0027 92.4425 
294.306 92.5465 92.402 293.643 93.2436 92.3999 290.128 95.3032 92.1556 
292.521 94.5955 92.2278 291.993 95.2301 92.1183 291.814 95.3813 92.2863 
291.572 95.6671 92.1508 290.748 96.376 92.2234 285.154 99.8407 92.0494 
286.951 99.9609 92.2798 287.291 99.583 92.3541 286.656 100.247 92.1396 
286.191 100.596 92.2498 282.009 102.422 91.9595 283.297 102.655 92.4398 
283.391 102.663 92.2435 273.401 108.082 92.5642 271.982 108.797 92.4343 
272.837 108.555 92.371 269.338 110.37 92.4987 267.9 110.993 92.4225 
268.736 110.831 92.3201 272.419 109.435 92.2179 265.482 112.413 92.502 
264.897 112.915 92.3204 267.239 112.498 92.0298 263.172 113.996 92.1496 
262.521 114.156 92.422 266.993 112.862 91.8276 261.359 114.753 92.299 
262.028 114.615 92.2324 259.828 115.525 92.4173 259.918 115.994 92.0359 
259.929 116.162 91.9245 261.986 115.379 91.9491 313.915 79.628 94.1215 
314.082 79.6784 94.0721 313.81 80.1812 93.613 314.044 79.9542 93.7983 
314.116 79.821 93.9396 313.576 80.9473 92.9781 313.798 81.4171 92.4039 
313.732 80.3361 93.6796 314.01 80.0043 93.8284 313.937 81.5038 92.207 
310.196 81.9647 93.1647 313.973 81.5792 92.1585 305.469 83.5494 93.6821 
306.638 82.787 93.9442 309.777 82.3638 93.0506 310.426 82.3783 92.81 
310.03 82.121 93.294 311.076 82.1033 92.9155 306.672 83.4887 93.2884 
303.031 84.6806 93.7768 304.158 84.6177 93.5375 307.215 83.3667 93.2773 
306.314 83.7267 93.3968 302.794 85.4331 93.589 304.778 84.4266 93.5588 
304.085 84.7854 93.6859 299.945 86.986 93.6238 300.88 86.5335 93.5681 
302.65 85.5908 93.7733 297.447 88.3171 93.8247 301.294 86.4509 93.5869 
296.928 89.1727 93.3317 299.268 87.9147 93.4877 298.387 88.7933 93.2602 
295.204 90.4846 93.0749 298.172 89.0051 93.261 298.036 89.1609 93.174 
293.966 92.573 93.0978 289.294 94.7946 92.9418 292.535 94.3929 92.6161 
291.055 95.246 93.3573 290.097 96.1847 93.2944 284.117 99.8655 92.5813 
286.935 99.1897 93.0762 283.199 102.5 92.7384 272.342 107.944 92.9387 
273.158 107.745 92.801 272.504 108.484 92.6946 272.984 108.572 92.5085 
272.787 108.093 92.9986 273.753 108.261 92.5897 273.522 107.792 93.0663 
268.248 110.166 92.9343 269.074 109.995 92.8015 268.311 110.766 92.6455 
268.799 110.932 92.3976 268.674 110.314 92.9252 269.511 110.702 92.3837 
269.67 110.002 92.8819 264.225 112.334 92.9114 265.155 112.101 92.778 
264.471 112.808 92.6529 265.02 112.922 92.4274 264.747 112.368 92.9296 
266.002 112.519 92.44 265.567 112.025 92.9363 261.336 114.172 92.7108 
262.173 113.786 92.7192 258.865 114.489 93.495 261.63 114.521 92.5291 
262.193 114.615 92.311 261.85 114.047 92.8552 263.132 114.192 92.3365 
258.89 114.685 93.4036 259.111 114.875 93.1866 259.419 115.107 92.92 
259.973 115.991 92.0648 260.164 115.682 92.3033 259.719 115.202 92.8307 
313.593 79.2975 94.5901 313.969 79.4844 94.3564 314.107 79.6711 94.1441 
310.46 80.6008 94.5565 311.297 80.0674 94.4777 314.1 79.8265 94.0096 
309.207 81.1711 94.3267 309.897 81.0429 94.2706 312.981 80.5834 93.9476 
306.836 81.9813 94.5967 306.485 82.4874 94.5431 305.287 83.0322 94.3084 
305.952 82.9034 94.2869 301.006 85.2745 94.2971 299.386 86.4125 94.6684 
298.186 87.0707 94.6394 298.725 86.9745 94.4795 301.529 86.2894 93.7726 
296.471 88.4309 94.5503 295.271 89.2101 94.3344 295.909 88.9757 94.2903 
298.306 88.743 93.4331 293.983 90.5284 93.8862 293.758 90.0108 94.558 
293.38 90.643 94.5397 296.677 89.9528 93.4403 293.062 91.2233 94.1497 
292.7 91.5337 94.0554 292.054 91.749 94.3908 290.123 92.6579 94.1422 
286.983 96.0068 93.8675 286.74 95.6378 94.4489 286.358 96.4309 94.5675 
285.463 97.2189 94.2069 285.404 96.912 94.5635 284.977 97.2725 94.4953 
285.8 96.9494 94.4074 288.548 96.6197 94.0487 285.118 97.9565 93.6964 
284.57 98.2104 94.2081 283.054 99.3715 93.8117 282.944 98.9871 94.3468 
283.722 98.8559 94.1895 279.046 102.316 93.7076 278.476 102.299 94.5675 
277.175 103.028 94.568 277.725 102.969 94.3935 275.438 104.442 94.4742 
277.208 103.841 93.5401 273.96 105.017 94.6399 274.678 104.967 94.3829 
272.447 106.342 94.394 271.716 106.886 94.2368 269.017 108.548 93.8967 
268.363 108.451 94.4515 270.032 108.048 93.8262 265.572 109.746 94.5314 
266.98 109.401 94.2219 267.713 109.178 94.0677 271.447 108.546 93.3892 
265.225 110.487 94.0303 264.721 110.946 93.8578 269.962 109.003 93.6425 
262.34 111.284 94.5958 263.115 111.429 94.1661 263.934 111.339 93.8537 
260.64 112.397 94.4205 258.625 113.282 94.4945 260.026 112.779 94.327 
258.74 113.848 94.0189 258.793 114.17 93.7583 258.811 114.43 93.6239 
258.869 114.637 93.4946 258.972 114.789 93.3487 313.824 78.4534 95.691 
313.796 79.1619 94.9072 313.999 79.5396 94.3893 308.918 80.6834 94.8926 
309.84 80.3745 94.9693 314.044 79.7281 94.1838 305.872 81.6546 95.1476 
306.446 80.871 95.5706 309.487 80.9905 94.6666 310.092 81.0929 94.3609 
309.91 80.5264 95.1514 310.94 80.8442 94.4227 310.681 80.4468 94.9364 
305.075 82.4397 94.8288 306.077 82.1976 94.829 305.507 82.9059 94.6832 
306.047 82.9798 94.4114 305.884 82.5134 95.1218 306.983 82.6162 94.4283 
298.063 86.5653 95.1306 299.038 86.1529 94.9875 296.515 86.9005 95.7742 
298.483 86.8787 94.8126 299.12 86.9506 94.4906 298.863 86.374 95.1582 
300.12 86.2463 94.7313 295.121 88.5435 94.9856 296.114 88.1486 94.9257 
298.937 87.5756 94.1231 295.534 88.9074 94.7453 295.996 89.0543 94.4232 
295.954 88.3689 95.1069 296.988 88.5925 94.3486 293.006 90.153 94.9881 
291.258 91.3404 94.7593 292.192 90.9339 94.9612 293.087 91.342 94.2787 
292.639 90.6846 95.3975 292.052 91.4835 95.0939 294.08 90.4844 94.5543 
291.87 92.2081 94.8134 292.564 92.2818 94.24 293.74 91.489 94.0656 
285.309 96.1911 94.9844 286.092 95.9575 94.8234 282.557 97.0521 95.6703 
284.306 96.9203 95.0753 285.474 96.9263 94.765 286.076 97.198 94.4617 
285.827 96.4627 95.2059 287.018 96.5595 94.711 286.661 96.0885 95.3191 
282.926 98.3991 94.8064 283.797 97.8109 94.9975 284.679 97.4971 94.7929 
284.226 97.6733 95.1483 285.221 97.9949 94.3776 281.262 99.0431 94.8498 
283.49 98.6772 94.8571 284.271 98.945 94.3265 283.861 98.012 95.1285 
283.3 99.7149 94.6434 281.696 100.727 95.1556 277.011 102.491 95.0365 
278.011 101.914 94.9855 277.467 102.875 94.8198 278.104 103.069 94.5291 
[...]
POINT_DATA 7862
COLOR_SCALARS scalars 3
0.0941176 0.501961 0.392157 0.0941176 0.501961 0.392157 0.0941176 0.501961 0.392157 
0.0941176 0.501961 0.392157 0.0941176 0.501961 0.392157 
0.0941176 0.501961 0.392157 0.0941176 0.501961 0.392157 
0.0941176 0.501961 0.392157 0.0941176 0.501961 0.392157 
0.0941176 0.501961 0.392157 0.0941176 0.501961 0.392157 
0.0941176 0.501961 0.392157 0.0941176 0.501961 0.392157 
0.0941176 0.501961 0.392157 0.0941176 0.501961 0.392157 
0.0941176 0.501961 0.392157 0.0941176 0.501961 0.392157 
0.0941176 0.501961 0.392157 0.0941176 0.501961 0.392157 
0.0941176 0.501961 0.392157 0.0941176 0.501961 0.392157 
0.0941176 0.501961 0.392157 0.0941176 0.501961 0.392157 
0.0941176 0.501961 0.392157 0.0941176 0.501961 0.392157 
0.0941176 0.501961 0.392157 0.0941176 0.501961 0.392157 
0.0941176 0.501961 0.392157 0.0941176 0.501961 0.392157 
0.0941176 0.501961 0.392157 0.0941176 0.501961 0.392157 
0.0941176 0.501961 0.392157 0.0941176 0.501961 0.392157 
0.0941176 0.501961 0.392157 0.0941176 0.501961 0.392157 
0.0941176 0.501961 0.392157 0.0941176 0.501961 0.392157 
0.0941176 0.501961 0.392157 0.0941176 0.501961 0.392157 
0.0941176 0.501961 0.392157 0.0941176 0.501961 0.392157 
0.0941176 0.501961 0.392157 0.0941176 0.501961 0.392157 
0.0941176 0.501961 0.392157 0.0941176 0.501961 0.392157 
0.0941176 0.501961 0.392157 0.0941176 0.501961 0.392157 
0.0941176 0.501961 0.392157 0.0941176 0.501961 0.392157 
0.0941176 0.501961 0.392157 0.0941176 0.501961 0.392157 
0.0941176 0.501961 0.392157 0.0941176 0.501961 0.392157 
0.0941176 0.501961 0.392157 0.0941176 0.501961 0.392157 
0.0941176 0.501961 0.392157 0.0941176 0.501961 0.392157 
0.0941176 0.501961 0.392157 0.0941176 0.501961 0.392157 
0.0941176 0.501961 0.392157 0.0941176 0.501961 0.392157 
0.0941176 0.501961 0.392157 0.0941176 0.501961 0.392157 
0.0941176 0.501961 0.392157 0.0941176 0.501961 0.392157 
0.0941176 0.501961 0.392157 0.0941176 0.501961 0.392157 
0.0941176 0.501961 0.392157 0.0941176 0.501961 0.392157 
0.0941176 0.501961 0.392157 0.0941176 0.501961 0.392157 
0.0941176 0.501961 0.392157 0.0941176 0.501961 0.392157 
0.0941176 0.501961 0.392157 0.0941176 0.501961 0.392157 
0.0941176 0.501961 0.392157 0.0941176 0.501961 0.392157 
0.0941176 0.501961 0.392157 0.0941176 0.501961 0.392157 
0.0941176 0.501961 0.392157 0.0941176 0.501961 0.392157 
0.0941176 0.501961 0.392157 0.0941176 0.501961 0.392157 
0.0941176 0.501961 0.392157 0.0941176 0.501961 0.392157 
0.0941176 0.501961 0.392157 0.0941176 0.501961 0.392157 
0.0941176 0.501961 0.392157 0.0941176 0.501961 0.392157 
0.0941176 0.501961 0.392157 0.0941176 0.501961 0.392157 
0.0941176 0.501961 0.392157 0.0941176 0.501961 0.392157 
0.0941176 0.501961 0.392157 0.0941176 0.501961 0.392157 
0.0941176 0.501961 0.392157 0.0941176 0.501961 0.392157 
0.0941176 0.501961 0.392157 0.0941176 0.501961 0.392157 
0.0941176 0.501961 0.392157 0.0941176 0.501961 0.392157 
0.0941176 0.501961 0.392157 0.0941176 0.501961 0.392157 
0.0941176 0.501961 0.392157 0.0941176 0.501961 0.392157 
0.0941176 0.501961 0.392157 0.0941176 0.501961 0.392157 
0.0941176 0.501961 0.392157 0.0941176 0.501961 0.392157 
0.0941176 0.501961 0.392157 0.0941176 0.501961 0.392157 
0.0941176 0.501961 0.392157 0.0941176 0.501961 0.392157 
0.0941176 0.501961 0.392157 0.0941176 0.501961 0.392157 
0.0941176 0.501961 0.392157 0.0941176 0.501961 0.392157 
0.0941176 0.501961 0.392157 0.0941176 0.501961 0.392157 
0.0941176 0.501961 0.392157 0.0941176 0.501961 0.392157 
0.0941176 0.501961 0.392157 0.0941176 0.501961 0.392157 
0.0941176 0.501961 0.392157 0.0941176 0.501961 0.392157 
0.0941176 0.501961 0.392157 0.0941176 0.501961 0.392157 
0.0941176 0.501961 0.392157 0.0941176 0.501961 0.392157 
0.0941176 0.501961 0.392157 0.0941176 0.501961 0.392157 
0.0941176 0.501961 0.392157 0.0941176 0.501961 0.392157 
0.0941176 0.501961 0.392157 0.0941176 0.501961 0.392157 
0.0941176 0.501961 0.392157 0.0941176 0.501961 0.392157 
0.0941176 0.501961 0.392157 0.0941176 0.501961 0.392157 
0.0941176 0.501961 0.392157 0.0941176 0.501961 0.392157 
0.0941176 0.501961 0.392157 0.0941176 0.501961 0.392157 
0.0941176 0.501961 0.392157 0.0941176 0.501961 0.392157 
0.0941176 0.501961 0.392157 0.0941176 0.501961 0.392157 
0.0941176 0.501961 0.392157 0.0941176 0.501961 0.392157 
0.0941176 0.501961 0.392157 0.0941176 0.501961 0.392157 
0.0941176 0.501961 0.392157 0.0941176 0.501961 0.392157 
0.0941176 0.501961 0.392157 0.0941176 0.501961 0.392157 
0.0941176 0.501961 0.392157 0.0941176 0.501961 0.392157 
0.0941176 0.501961 0.392157 0.0941176 0.501961 0.392157 
0.0941176 0.501961 0.392157 0.0941176 0.501961 0.392157 
0.0941176 0.501961 0.392157 0.0941176 0.501961 0.392157 
0.0941176 0.501961 0.392157 0.0941176 0.501961 0.392157 
0.0941176 0.501961 0.392157 0.0941176 0.501961 0.392157 
0.0941176 0.501961 0.392157 0.0941176 0.501961 0.392157 
0.0941176 0.501961 0.392157 0.0941176 0.501961 0.392157 
0.0941176 0.501961 0.392157 0.0941176 0.501961 0.392157 
0.0941176 0.501961 0.392157 0.0941176 0.501961 0.392157 
0.0941176 0.501961 0.392157 0.0941176 0.501961 0.392157 
0.0941176 0.501961 0.392157 0.0941176 0.501961 0.392157 
0.0941176 0.501961 0.392157 0.0941176 0.501961 0.392157 
0.0941176 0.501961 0.392157 0.0941176 0.501961 0.392157 
0.0941176 0.501961 0.392157 0.0941176 0.501961 0.392157 
0.0941176 0.501961 0.392157 0.0941176 0.501961 0.392157 
0.0941176 0.501961 0.392157 0.0941176 0.501961 0.392157 
0.0941176 0.501961 0.392157 0.0941176 0.501961 0.392157 
0.0941176 0.501961 0.392157 0.0941176 0.501961 0.392157 
0.0941176 0.501961 0.392157 0.0941176 0.501961 0.392157 
0.0941176 0.501961 0.392157 0.0941176 0.501961 0.392157 
0.0941176 0.501961 0.392157 0.0941176 0.501961 0.392157 
0.0941176 0.501961 0.392157 0.0941176 0.501961 0.392157 
0.0941176 0.501961 0.392157 0.0941176 0.501961 0.392157 
0.0941176 0.501961 0.392157 0.0941176 0.501961 0.392157 
0.0941176 0.501961 0.392157 0.0941176 0.501961 0.392157 
0.0941176 0.501961 0.392157 0.0941176 0.501961 0.392157 
0.0941176 0.501961 0.392157 0.0941176 0.501961 0.392157 
0.0941176 0.501961 0.392157 0.0941176 0.501961 0.392157 
0.0941176 0.501961 0.392157 0.0941176 0.501961 0.392157 
0.0941176 0.501961 0.392157 0.0941176 0.501961 0.392157 
0.0941176 0.501961 0.392157 0.0941176 0.501961 0.392157 
0.0941176 0.501961 0.392157 0.0941176 0.501961 0.392157 
0.0941176 0.501961 0.392157 0.0941176 0.501961 0.392157 
0.0941176 0.501961 0.392157 0.0941176 0.501961 0.392157 
0.0941176 0.501961 0.392157 0.0941176 0.501961 0.392157 
0.0941176 0.501961 0.392157 0.0941176 0.501961 0.392157 
0.0941176 0.501961 0.392157 0.0941176 0.501961 0.392157 
0.0941176 0.501961 0.392157 0.0941176 0.501961 0.392157 
0.0941176 0.501961 0.392157 0.0941176 0.501961 0.392157 
0.0941176 0.501961 0.392157 0.0941176 0.501961 0.392157 
0.0941176 0.501961 0.392157 0.0941176 0.501961 0.392157 
0.0941176 0.501961 0.392157 0.0941176 0.501961 0.392157 
0.0941176 0.501961 0.392157 0.0941176 0.501961 0.392157 
0.0941176 0.501961 0.392157 0.0941176 0.501961 0.392157 
0.0941176 0.501961 0.392157 0.0941176 0.501961 0.392157 
0.0941176 0.501961 0.392157 0.0941176 0.501961 0.392157 
0.0941176 0.501961 0.392157 0.0941176 0.501961 0.392157 
0.0941176 0.501961 0.392157 0.0941176 0.501961 0.392157 
0.0941176 0.501961 0.392157 0.0941176 0.501961 0.392157 
0.0941176 0.501961 0.392157 0.0941176 0.501961 0.392157 
0.0941176 0.501961 0.392157 0.0941176 0.501961 0.392157 
0.0941176 0.501961 0.392157 0.0941176 0.501961 0.392157 
0.0941176 0.501961 0.392157 0.0941176 0.501961 0.392157 
0.0941176 0.501961 0.392157 0.0941176 0.501961 0.392157 
0.0941176 0.501961 0.392157 0.0941176 0.501961 0.392157 
0.0941176 0.501961 0.392157 0.0941176 0.501961 0.392157 
0.0941176 0.501961 0.392157 0.0941176 0.501961 0.392157 
0.0941176 0.501961 0.392157 0.0941176 0.501961 0.392157 
0.0941176 0.501961 0.392157 0.0941176 0.501961 0.392157 
0.0941176 0.501961 0.392157 0.0941176 0.501961 0.392157 
0.0941176 0.501961 0.392157 0.0941176 0.501961 0.392157 
0.0941176 0.501961 0.392157 0.0941176 0.501961 0.392157 
0.0941176 0.501961 0.392157 0.0941176 0.501961 0.392157 
0.0941176 0.501961 0.392157 0.0941176 0.501961 0.392157 
0.0941176 0.501961 0.392157 0.0941176 0.501961 0.392157 
0.0941176 0.501961 0.392157 0.0941176 0.501961 0.392157 
0.0941176 0.501961 0.392157 0.0941176 0.501961 0.392157 
0.0941176 0.501961 0.392157 0.0941176 0.501961 0.392157 
0.0941176 0.501961 0.392157 0.0941176 0.501961 0.392157 
0.0941176 0.501961 0.392157 0.0941176 0.501961 0.392157 
0.0941176 0.501961 0.392157 0.0941176 0.501961 0.392157 
0.0941176 0.501961 0.392157 0.0941176 0.501961 0.392157 
0.0941176 0.501961 0.392157 0.0941176 0.501961 0.392157 
0.0941176 0.501961 0.392157 0.0941176 0.501961 0.392157 
0.0941176 0.501961 0.392157 0.0941176 0.501961 0.392157 
0.0941176 0.501961 0.392157 0.0941176 0.501961 0.392157 
0.0941176 0.501961 0.392157 0.0941176 0.501961 0.392157 
0.0941176 0.501961 0.392157 0.0941176 0.501961 0.392157 
0.0941176 0.501961 0.392157 0.0941176 0.501961 0.392157 
0.0941176 0.501961 0.392157 0.0941176 0.501961 0.392157 
0.0941176 0.501961 0.392157 0.0941176 0.501961 0.392157 
0.0941176 0.501961 0.392157 0.0941176 0.501961 0.392157 
0.0941176 0.501961 0.392157 0.0941176 0.501961 0.392157 
0.0941176 0.501961 0.392157 0.0941176 0.501961 0.392157 
0.0941176 0.501961 0.392157 0.0941176 0.501961 0.392157 
0.0941176 0.501961 0.392157 0.0941176 0.501961 0.392157 
0.0941176 0.501961 0.392157 0.0941176 0.501961 0.392157 
0.0941176 0.501961 0.392157 0.0941176 0.501961 0.392157 
0.0941176 0.501961 0.392157 0.0941176 0.501961 0.392157 
0.0941176 0.501961 0.392157 0.0941176 0.501961 0.392157 
0.0941176 0.501961 0.392157 0.0941176 0.501961 0.392157 
0.0941176 0.501961 0.392157 0.0941176 0.501961 0.392157 
0.0941176 0.501961 0.392157 0.0941176 0.501961 0.392157 
0.0941176 0.501961 0.392157 0.0941176 0.501961 0.392157 
0.0941176 0.501961 0.392157 0.0941176 0.501961 0.392157 
0.0941176 0.501961 0.392157 0.0941176 0.501961 0.392157 
0.0941176 0.501961 0.392157 0.0941176 0.501961 0.392157 
0.0941176 0.501961 0.392157 0.0941176 0.501961 0.392157 
0.0941176 0.501961 0.392157 0.0941176 0.501961 0.392157 
0.0941176 0.501961 0.392157 0.0941176 0.501961 0.392157 
0.0941176 0.501961 0.392157 0.0941176 0.501961 0.392157 
0.0941176 0.501961 0.392157 0.0941176 0.501961 0.392157 
0.0941176 0.501961 0.392157 0.0941176 0.501961 0.392157 
0.0941176 0.501961 0.392157 0.0941176 0.501961 0.392157 
0.0941176 0.501961 0.392157 0.0941176 0.501961 0.392157 
0.0941176 0.501961 0.392157 0.0941176 0.501961 0.392157 
0.0941176 0.501961 0.392157 0.0941176 0.501961 0.392157 
0.0941176 0.501961 0.392157 0.0941176 0.501961 0.392157 
0.0941176 0.501961 0.392157 0.0941176 0.501961 0.392157 
0.0941176 0.501961 0.392157 0.0941176 0.501961 0.392157 
0.0941176 0.501961 0.392157 0.0941176 0.501961 0.392157 
0.0941176 0.501961 0.392157 0.0941176 0.501961 0.392157 
0.0941176 0.501961 0.392157 0.0941176 0.501961 0.392157 
0.0941176 0.501961 0.392157 0.0941176 0.501961 0.392157 
0.0941176 0.501961 0.392157 0.0941176 0.501961 0.392157 
0.0941176 0.501961 0.392157 0.0941176 0.501961 0.392157 
0.0941176 0.501961 0.392157 0.0941176 0.501961 0.392157 
0.0941176 0.501961 0.392157 0.0941176 0.501961 0.392157 
0.0941176 0.501961 0.392157 0.0941176 0.501961 0.392157 
0.0941176 0.501961 0.392157 0.0941176 0.501961 0.392157 
0.0941176 0.501961 0.392157 0.0941176 0.501961 0.392157 
0.0941176 0.501961 0.392157 0.0941176 0.501961 0.392157 
0.0941176 0.501961 0.392157 0.0941176 0.501961 0.392157 
0.0941176 0.501961 0.392157 0.0941176 0.501961 0.392157 
0.0941176 0.501961 0.392157 0.0941176 0.501961 0.392157 
0.0941176 0.501961 0.392157 0.0941176 0.501961 0.392157 
0.0941176 0.501961 0.392157 0.0941176 0.501961 0.392157 
0.0941176 0.501961 0.392157 0.0941176 0.501961 0.392157 
0.0941176 0.501961 0.392157 0.0941176 0.501961 0.392157 
0.0941176 0.501961 0.392157 0.0941176 0.501961 0.392157 
0.0941176 0.501961 0.392157 0.0941176 0.501961 0.392157 
0.0941176 0.501961 0.392157 0.0941176 0.501961 0.392157 
0.0941176 0.501961 0.392157 0.0941176 0.501961 0.392157 
0.0941176 0.501961 0.392157 0.0941176 0.501961 0.392157 
0.0941176 0.501961 0.392157 0.0941176 0.501961 0.392157 
0.0941176 0.501961 0.392157 0.0941176 0.501961 0.392157 
0.0941176 0.501961 0.392157 0.0941176 0.501961 0.392157 
0.0941176 0.501961 0.392157 0.0941176 0.501961 0.392157 
0.0941176 0.501961 0.392157 0.0941176 0.501961 0.392157 
0.0941176 0.501961 0.392157 0.0941176 0.501961 0.392157 
0.0941176 0.501961 0.392157 0.0941176 0.501961 0.392157 
0.0941176 0.501961 0.392157 0.0941176 0.501961 0.392157 
0.0941176 0.501961 0.392157 0.0941176 0.501961 0.392157 
0.0941176 0.501961 0.392157 0.0941176 0.501961 0.392157 
0.0941176 0.501961 0.392157 0.0941176 0.501961 0.392157 
0.0941176 0.501961 0.392157 0.0941176 0.501961 0.392157 
0.0941176 0.501961 0.392157 0.0941176 0.501961 0.392157 
0.0941176 0.501961 0.392157 0.0941176 0.501961 0.392157 
0.0941176 0.501961 0.392157 0.0941176 0.501961 0.392157 
0.0941176 0.501961 0.392157 0.0941176 0.501961 0.392157 
0.0941176 0.501961 0.392157 0.0941176 0.501961 0.392157 
0.0941176 0.501961 0.392157 0.0941176 0.501961 0.392157 
0.0941176 0.501961 0.392157 0.0941176 0.501961 0.392157 
0.0941176 0.501961 0.392157 0.0941176 0.501961 0.392157 
0.0941176 0.501961 0.392157 0.0941176 0.501961 0.392157 
0.0941176 0.501961 0.392157 0.0941176 0.501961 0.392157 
0.0941176 0.501961 0.392157 0.0941176 0.501961 0.392157 
0.0941176 0.501961 0.392157 0.0941176 0.501961 0.392157 
0.0941176 0.501961 0.392157 0.0941176 0.501961 0.392157 
0.0941176 0.501961 0.392157 0.0941176 0.501961 0.392157 
0.0941176 0.501961 0.392157 0.0941176 0.501961 0.392157 
0.0941176 0.501961 0.392157 0.0941176 0.501961 0.392157 
0.0941176 0.501961 0.392157 0.0941176 0.501961 0.392157 
0.0941176 0.501961 0.392157 0.0941176 0.501961 0.392157 
0.0941176 0.501961 0.392157 0.0941176 0.501961 0.392157 
0.0941176 0.501961 0.392157 0.0941176 0.501961 0.392157 
0.0941176 0.501961 0.392157 0.0941176 0.501961 0.392157 
0.0941176 0.501961 0.392157 0.0941176 0.501961 0.392157 
0.0941176 0.501961 0.392157 0.0941176 0.501961 0.392157 
0.0941176 0.501961 0.392157 0.0941176 0.501961 0.392157 
0.0941176 0.501961 0.392157 0.0941176 0.501961 0.392157 
0.0941176 0.501961 0.392157 0.0941176 0.501961 0.392157 
0.0941176 0.501961 0.392157 0.0941176 0.501961 0.392157 
0.0941176 0.501961 0.392157 0.0941176 0.501961 0.392157 
0.0941176 0.501961 0.392157 0.0941176 0.501961 0.392157 
0.0941176 0.501961 0.392157 0.0941176 0.501961 0.392157 
0.0941176 0.501961 0.392157 0.0941176 0.501961 0.392157 
0.0941176 0.501961 0.392157 0.0941176 0.501961 0.392157 
0.0941176 0.501961 0.392157 0.0941176 0.501961 0.392157 
0.0941176 0.501961 0.392157 0.0941176 0.501961 0.392157 
0.0941176 0.501961 0.392157 0.0941176 0.501961 0.392157 
0.0941176 0.501961 0.392157 0.0941176 0.501961 0.392157 
0.0941176 0.501961 0.392157 0.0941176 0.501961 0.392157 
0.0941176 0.501961 0.392157 0.0941176 0.501961 0.392157 
0.0941176 0.501961 0.392157 0.0941176 0.501961 0.392157 
0.0941176 0.501961 0.392157 0.0941176 0.501961 0.392157 
0.0941176 0.501961 0.392157 0.0941176 0.501961 0.392157 
0.0941176 0.501961 0.392157 0.0941176 0.501961 0.392157 
0.0941176 0.501961 0.392157 0.0941176 0.501961 0.392157 
0.0941176 0.501961 0.392157 0.0941176 0.501961 0.392157 
0.0941176 0.501961 0.392157 0.0941176 0.501961 0.392157 
0.0941176 0.501961 0.392157 0.0941176 0.501961 0.392157 
0.0941176 0.501961 0.392157 0.0941176 0.501961 0.392157 
0.0941176 0.501961 0.392157 0.0941176 0.501961 0.392157 
0.0941176 0.501961 0.392157 0.0941176 0.501961 0.392157 
0.0941176 0.501961 0.392157 0.0941176 0.501961 0.392157 
0.0941176 0.501961 0.392157 0.0941176 0.501961 0.392157 
0.0941176 0.501961 0.392157 0.0941176 0.501961 0.392157 
0.0941176 0.501961 0.392157 0.0941176 0.501961 0.392157 
0.0941176 0.501961 0.392157 0.0941176 0.501961 0.392157 
0.0941176 0.501961 0.392157 0.0941176 0.501961 0.392157 
0.0941176 0.501961 0.392157 0.0941176 0.501961 0.392157 
0.0941176 0.501961 0.392157 0.0941176 0.501961 0.392157 
0.0941176 0.501961 0.392157 0.0941176 0.501961 0.392157 
0.0941176 0.501961 0.392157 0.0941176 0.501961 0.392157 
0.0941176 0.501961 0.392157 0.0941176 0.501961 0.392157 
0.0941176 0.501961 0.392157 0.0941176 0.501961 0.392157 
0.0941176 0.501961 0.392157 0.0941176 0.501961 0.392157 
0.0941176 0.501961 0.392157 0.0941176 0.501961 0.392157 
0.0941176 0.501961 0.392157 0.0941176 0.501961 0.392157 
0.0941176 0.501961 0.392157 0.0941176 0.501961 0.392157 
0.0941176 0.501961 0.392157 0.0941176 0.501961 0.392157 
0.0941176 0.501961 0.392157 0.0941176 0.501961 0.392157 
0.0941176 0.501961 0.392157 0.0941176 0.501961 0.392157 
0.0941176 0.501961 0.392157 0.0941176 0.501961 0.392157 
0.0941176 0.501961 0.392157 0.0941176 0.501961 0.392157 
0.0941176 0.501961 0.392157 0.0941176 0.501961 0.392157 
0.0941176 0.501961 0.392157 0.0941176 0.501961 0.392157 
0.0941176 0.501961 0.392157 0.0941176 0.501961 0.392157 
0.0941176 0.501961 0.392157 0.0941176 0.501961 0.392157 
0.0941176 0.501961 0.392157 0.0941176 0.501961 0.392157 
0.0941176 0.501961 0.392157 0.0941176 0.501961 0.392157 
0.0941176 0.501961 0.392157 0.0941176 0.501961 0.392157 
0.0941176 0.501961 0.392157 0.0941176 0.501961 0.392157 
0.0941176 0.501961 0.392157 0.0941176 0.501961 0.392157 
0.0941176 0.501961 0.392157 0.0941176 0.501961 0.392157 
0.0941176 0.501961 0.392157 0.0941176 0.501961 0.392157 
0.0941176 0.501961 0.392157 0.0941176 0.501961 0.392157 
0.0941176 0.501961 0.392157 0.0941176 0.501961 0.392157 
0.0941176 0.501961 0.392157 0.0941176 0.501961 0.392157 
0.0941176 0.501961 0.392157 0.0941176 0.501961 0.392157 
0.0941176 0.501961 0.392157 0.0941176 0.501961 0.392157 
0.0941176 0.501961 0.392157 0.0941176 0.501961 0.392157 
0.0941176 0.501961 0.392157 0.0941176 0.501961 0.392157 
0.0941176 0.501961 0.392157 0.0941176 0.501961 0.392157 
0.0941176 0.501961 0.392157 0.0941176 0.501961 0.392157 
0.0941176 0.501961 0.392157 0.0941176 0.501961 0.392157 
0.0941176 0.501961 0.392157 0.0941176 0.501961 0.392157 
0.0941176 0.501961 0.392157 0.0941176 0.501961 0.392157 
0.0941176 0.501961 0.392157 0.0941176 0.501961 0.392157 
0.0941176 0.501961 0.392157 0.0941176 0.501961 0.392157 
0.0941176 0.501961 0.392157 0.0941176 0.501961 0.392157 
0.0941176 0.501961 0.392157 0.0941176 0.501961 0.392157 
0.0941176 0.501961 0.392157 0.0941176 0.501961 0.392157 
0.0941176 0.501961 0.392157 0.0941176 0.501961 0.392157 
0.0941176 0.501961 0.392157 0.0941176 0.501961 0.392157 
0.0941176 0.501961 0.392157 0.0941176 0.501961 0.392157 
0.0941176 0.501961 0.392157 0.0941176 0.501961 0.392157 
0.0941176 0.501961 0.392157 0.0941176 0.501961 0.392157 
0.0941176 0.501961 0.392157 0.0941176 0.501961 0.392157 
0.0941176 0.501961 0.392157 0.0941176 0.501961 0.392157 
0.0941176 0.501961 0.392157 0.0941176 0.501961 0.392157 
0.0941176 0.501961 0.392157 0.0941176 0.501961 0.392157 
0.0941176 0.501961 0.392157 0.0941176 0.501961 0.392157 
0.0941176 0.501961 0.392157 0.0941176 0.501961 0.392157 
0.0941176 0.501961 0.392157 0.0941176 0.501961 0.392157 
0.0941176 0.501961 0.392157 0.0941176 0.501961 0.392157 
0.0941176 0.501961 0.392157 0.0941176 0.501961 0.392157 
0.0941176 0.501961 0.392157 0.0941176 0.501961 0.392157 
0.0941176 0.501961 0.392157 0.0941176 0.501961 0.392157 
0.0941176 0.501961 0.392157 0.0941176 0.501961 0.392157 
0.0941176 0.501961 0.392157 0.0941176 0.501961 0.392157 
0.0941176 0.501961 0.392157 0.0941176 0.501961 0.392157 
0.0941176 0.501961 0.392157 0.0941176 0.501961 0.392157 
0.0941176 0.501961 0.392157 0.0941176 0.501961 0.392157 
0.0941176 0.501961 0.392157 0.0941176 0.501961 0.392157 
0.0941176 0.501961 0.392157 0.0941176 0.501961 0.392157 
0.0941176 0.501961 0.392157 0.0941176 0.501961 0.392157 
0.0941176 0.501961 0.392157 0.0941176 0.501961 0.392157 
0.0941176 0.501961 0.392157 0.0941176 0.501961 0.392157 
0.0941176 0.501961 0.392157 0.0941176 0.501961 0.392157 