# vtk DataFile Version 4.2
vtk output
ASCII
DATASET POLYDATA
POINTS 1318 float
278.411 28.8404 118.567 278.248 29.0631 118.353 278.695 28.9673 118.657 
272.323 29.734 118.033 273.868 29.068 118.214 275.196 29.5617 117.882 
276.712 29.3736 117.998 278.701 29.4955 118.45 278.856 29.2584 118.673 
269.173 30.3036 118.447 268.866 30.5564 118.536 269.286 29.8685 118.59 
270.067 29.7768 118.387 278.616 30.2714 118.359 270.058 30.6314 118.15 
273.254 30.8104 117.7 278.877 30.1892 118.587 277.265 28.1708 118.943 
269.102 29.4848 118.904 270.489 29.3206 118.546 270.162 28.9483 118.962 
279.088 29.346 119.033 268.257 30.167 119.022 268.19 31.0426 118.948 
268.774 31.0282 118.594 279.184 30.3443 119.057 270.717 31.7399 118.06 
271.314 32.2748 118.041 271.175 32.3965 118.125 271.322 32.3803 118.066 
277.012 31.9491 118.061 278.685 32.1015 118.782 276.127 32.3742 118.061 
277.767 32.1932 118.322 279.045 32.0216 119.1 277.282 27.8133 119.417 
278.244 28.1899 119.388 278.054 27.9225 119.701 275.791 28.2023 118.77 
267.298 29.6765 119.939 266.954 29.8839 120.08 266.898 30.5526 120.014 
271.369 31.9989 118.007 271.907 32.5561 118.109 278.244 32.3749 118.603 
270.76 34.3654 119.045 278.233 33.8055 119.096 279.336 33.2796 119.622 
280.143 34.1111 120.339 275.426 27.3294 120.054 276.952 27.3125 120.389 
278.409 27.9175 120.469 272.846 27.8635 119.535 266.299 29.3954 121.186 
266.239 29.7915 120.97 266.86 29.137 120.825 279.121 28.8341 120.081 
279.823 31.0056 120.5 279.89 33.5402 120.154 280.253 33.4843 120.721 
279.954 34.7572 120.433 280.338 34.5701 120.854 268.296 35.5326 120.585 
279.53 35.8477 120.41 277.406 27.2193 121.071 278.017 27.5752 120.795 
270.901 27.7395 120.286 267.811 28.3266 121.054 279.258 28.9455 120.69 
265.892 30.9161 121.238 266.583 33.4552 121.07 268.125 37.0822 121.702 
280.631 37.0799 121.748 278.52 27.7796 122.015 265.419 31.5876 122.075 
266.19 34.1686 122.108 281.163 37.8176 122.645 269.408 39.7502 122.464 
272.641 41.0532 121.992 267.87 27.1323 123.078 265.575 33.6327 122.811 
281.372 37.966 123.212 271.118 40.5164 122.094 280.968 40.7938 123.243 
281.579 41.3958 124.029 275.348 43.6118 123.005 276.196 25.6521 124.186 
270.624 26.1675 123.617 279.886 30.0826 123.365 281.61 38.78 123.976 
281.849 41.5082 124.258 281.929 41.5459 124.375 280.261 44.043 123.91 
279.371 44.9508 123.934 281.473 44.4335 124.706 272.092 25.6426 124.309 
266.201 26.5613 125.434 265.755 35.8481 124.346 282.248 42.5674 125.302 
270.846 45.8752 125.627 270.962 45.9969 125.61 271.382 45.9821 125.379 
282.457 45.5727 125.843 282.998 47.1357 126.29 282.993 47.357 126.379 
282.929 45.9254 126.427 270.949 47.0162 126.533 271.251 47.8476 126.854 
280.725 48.2708 125.624 282.12 48.8353 126.296 275.323 24.7014 126.82 
263.297 27.5581 127.081 278.446 27.1445 127.396 262.691 28.1816 127.715 
263.054 29.2665 126.79 283.136 44.8816 127.341 284.301 51.035 128.43 
276.867 25.226 127.627 278.757 27.875 128.453 262.406 30.3189 128.495 
269.202 45.3667 127.323 283.542 46.3789 127.869 284.053 50.4783 128.239 
273.736 51.8573 128.103 276.661 53.1646 127.93 283.883 52.415 128.579 
277.175 53.1852 127.868 282.18 53.0487 128.052 265.94 24.9823 128.964 
263.689 26.0381 128.691 263.146 26.231 128.994 278.131 26.5702 128.981 
262.066 28.4594 128.924 283.144 44.0275 128.39 268.757 45.2816 128.127 
283.649 45.9444 129.184 272.477 52.1956 129.458 285.183 52.3214 129.953 
284.927 53.0726 129.654 274.945 53.5768 128.721 277.32 25.3299 129.564 
285.17 51.845 130.029 285.238 55.0195 130.419 285.696 54.36 130.941 
276.05 55.9325 129.993 285.018 55.8643 130.412 284.032 56.7263 130.2 
277.367 25.2992 131.113 285.511 52.2769 130.975 286.165 54.5301 131.896 
285.762 57.8532 131.417 286.332 57.8727 131.853 285.516 58.4849 131.484 
276.08 23.8471 131.774 276.434 24.1168 132.079 261.027 26.2778 132.521 
286.446 54.6932 132.754 273.787 56.4887 132.524 284.599 59.17 131.464 
275.853 59.1112 132.756 286.737 59.2262 132.602 283.443 60.5593 132.125 
276.821 24.5425 133.006 284.253 48.0434 133.181 287.423 58.9476 133.775 
286.898 59.6986 132.947 287.31 59.4765 133.382 287.291 59.9026 133.352 
287.465 59.8816 133.648 286.233 60.552 133.052 286.716 60.3222 133.136 
278.609 61.637 133.329 279.08 61.7409 133.267 286.986 60.536 133.507 
287.299 60.3889 133.649 283.028 61.9581 133.42 283.819 61.8833 133.533 
286.8 60.7846 133.761 260.533 25.1048 134.791 260.127 27.0472 134.017 
287.526 59.8702 134.012 277.287 61.8404 134.545 287.37 60.4539 133.899 
287.431 60.3672 134.048 284.444 62.1279 134.284 278.649 62.6694 134.506 
260.086 25.5564 135.004 259.793 25.6997 135.475 259.564 26.2324 135.703 
261.683 33.7607 134.129 286.144 53.2873 134.736 287.314 59.9955 135.146 
281.901 63.2053 135.215 279.76 63.7098 135.434 279.634 63.941 135.705 
279.515 63.9899 135.77 275.049 22.2693 135.808 273.537 21.7064 136.01 
259.886 24.8603 136.238 286.919 55.6719 136.394 280.924 63.6395 136.063 
274.455 21.8715 136.185 259.77 24.1235 137.496 259.017 26.4042 137.188 
287.319 59.1621 136.53 284.581 61.9369 137.181 278.629 63.5714 136.96 
279.182 63.7866 136.855 279.82 63.8685 136.759 274.498 21.7434 137.572 
259.222 24.4737 137.945 271.247 55.8775 137.975 286.01 60.4477 138.342 
277.688 63.1977 137.992 279.518 63.8223 136.99 263.261 40.9214 138.715 
286.896 56.9372 138.829 286.653 59.6158 138.428 285.386 60.5095 139.193 
273.344 21.0029 139.713 274.854 21.8906 140.099 275.799 23.094 139.492 
257.896 24.5022 140.708 279.601 36.1204 139.851 286.701 59.0063 139.103 
286.307 59.6821 139.152 286.549 59.1337 139.384 257.954 23.8558 141.15 
258.622 22.9106 141.277 257.65 27.1501 141.306 286.513 57.2477 140.305 
285.831 58.9505 140.803 284.564 59.606 141.824 276.954 62.8611 140.687 
259.654 22.0355 141.727 257.767 23.2938 142.3 276.049 24.2139 141.735 
285.985 55.014 141.584 286.142 58.0228 141.085 282.008 61.4515 141.462 
275.892 62.4458 141.685 277.661 62.8245 141.541 278.852 62.4002 142.272 
276.226 62.584 142.175 258.082 22.5549 142.941 275.45 23.3023 143.29 
257.029 24.5153 142.959 274.626 61.6948 143.089 276.254 62.6245 142.94 
257.096 22.7467 144.332 275.03 61.9477 143.781 276.898 62.553 143.004 
276.499 62.467 143.515 273.364 20.2089 144.96 261.045 20.3291 145.214 
274.281 21.3348 145.224 284.837 57.1483 145.205 277.69 61.8504 144.883 
275.264 61.9725 144.478 275.958 62.2651 144.133 272.387 19.4914 146.353 
255.674 25.1775 146.704 271.205 59.0516 146.583 267.397 18.467 148.511 
255.072 23.2972 148.654 256.17 28.5522 147.752 282.188 46.6356 147.253 
271.933 60.147 147.99 273.298 20.2167 149.395 257.03 20.5111 148.99 
254.682 24.0207 149.529 284.238 54.5448 149.178 278.185 59.8298 149.626 
273.05 60.8959 148.143 255.005 21.7706 150.038 274.409 22.496 149.918 
284.136 54.6581 149.746 273.195 60.9271 149.338 272.968 19.7486 151.288 
254.319 21.9145 151.325 283.747 53.8432 151.095 283.976 54.6959 150.02 
283.217 55.5577 150.859 273.898 60.8075 150.978 253.827 21.7426 152.618 
253.964 21.9837 152.03 283.555 54.0762 151.672 281.543 56.6658 152.126 
275.331 60.4861 151.326 270.878 17.9177 152.665 270.304 17.6951 152.866 
271.613 18.2498 153.232 255.055 20.1423 152.787 282.674 49.9846 153.231 
283.373 53.2402 152.754 270.707 17.6461 154.137 271.647 18.2376 154.02 
272.092 18.7201 155.057 257.348 18.3901 155.442 282.856 53.8152 154.44 
270.283 17.3655 155.569 254.851 19.1243 155.766 252.653 20.8297 156.355 
252.439 23.4616 156.198 282.609 51.4866 156.204 282.699 52.6207 155.908 
282.178 54.0517 156.123 252.202 20.7319 157.477 252.359 21.5037 156.419 
252.189 21.9037 156.703 257.769 39.3701 156.698 272.94 59.7509 156.69 
272.215 59.8674 156.675 270.668 17.4189 158.561 271.53 18.2287 157.389 
252.47 19.4693 158.937 253.045 19.0394 158.889 252.164 20.2746 158.093 
281.983 53.5053 157.812 281.147 54.5441 158.112 274.303 59.0169 157.412 
264.206 16.3352 159.293 253.374 18.6838 159.374 251.456 20.3975 159.634 
281.98 50.348 158.603 281.513 53.8185 158.86 271.853 59.5191 158.704 
269.257 16.3856 160.066 252.445 18.8732 160.483 250.976 21.4668 160.115 
251.156 22.7274 159.612 257.563 40.4407 159.197 281.05 53.9947 159.718 
279.999 54.7671 160.105 273.105 58.7687 160.222 268.97 59.1108 160.452 
269.551 59.2821 160.025 267.858 16.0395 160.235 270.477 16.9825 161.445 
270.138 16.6805 161.817 271.353 18.4652 162.051 254.101 34.6134 162.156 
281.089 49.3327 161.908 281.603 50.9039 160.938 281.384 52.4809 161.263 
268.215 15.6492 162.718 269.307 16.0141 162.993 257.232 42.3299 162.974 
280.162 53.5949 162.486 278.191 55.2053 162.494 267.316 15.3907 163.564 
268.6 15.6833 163.966 249.716 19.2153 164.933 249.204 21.1965 164.129 
280.045 53.0031 164.141 279.324 53.8804 163.967 268.302 59.0578 164.047 
267.351 15.2841 165.261 270.103 17.0585 164.784 249.218 19.6536 165.161 
280.097 52.3513 165.375 265.307 57.0981 164.968 266.235 58.007 165.086 
267.431 58.7527 164.972 269.142 16.1512 165.301 270.336 17.8154 165.67 
248.3 22.3817 166.161 280.391 51.2289 165.761 267.926 59.0493 166.029 
267.628 59.0357 166.458 268.351 59.0675 166.089 269.087 58.9954 165.858 
250.645 17.9041 166.76 248.036 19.9073 167.415 248.767 18.8962 167.509 
279.196 53.0778 166.706 267.34 15.3494 167.287 251.791 17.1042 168.308 
247.938 19.3247 168.583 248.494 18.8554 168.262 247.31 21.0069 168.353 
279.962 50.6987 167.868 279.942 51.5934 167.28 278.762 53.2685 167.312 
247.649 24.0951 168.335 255.723 44.537 169.092 247.369 24.7824 169.369 
276.585 41.8763 170.488 279.591 50.6205 169.298 265.984 58.8323 170.334 
266.97 58.9394 169.542 264.079 14.773 171.048 246.316 19.7752 171.513 
246.162 19.5331 172.229 246.088 20.1786 171.495 246.077 20.4191 171.329 
279.438 50.1273 170.072 278.699 51.9399 170.881 263.84 58.1527 171.454 
268.123 58.73 170.343 268.541 18.1475 172.224 245.731 19.9328 172.675 
245.874 20.5062 171.735 279.019 48.729 171.084 276.952 52.8755 173.414 
265.218 15.2153 173.024 266.701 15.8614 173.26 257.053 15.2955 173.959 
246.97 18.1071 174.034 244.625 20.0849 174.94 274.757 54.2807 173.846 
[...]
POINT_DATA 1318
COLOR_SCALARS scalars 3
0.0941176 0.501961 0.392157 0.0941176 0.501961 0.392157 0.0941176 0.501961 0.392157 
0.0941176 0.501961 0.392157 0.0941176 0.501961 0.392157 
0.0941176 0.501961 0.392157 0.0941176 0.501961 0.392157 
0.0941176 0.501961 0.392157 0.0941176 0.501961 0.392157 
0.0941176 0.501961 0.392157 0.0941176 0.501961 0.392157 
0.0941176 0.501961 0.392157 0.0941176 0.501961 0.392157 
0.0941176 0.501961 0.392157 0.0941176 0.501961 0.392157 
0.0941176 0.501961 0.392157 0.0941176 0.501961 0.392157 
0.0941176 0.501961 0.392157 0.0941176 0.501961 0.392157 
0.0941176 0.501961 0.392157 0.0941176 0.501961 0.392157 
0.0941176 0.501961 0.392157 0.0941176 0.501961 0.392157 
0.0941176 0.501961 0.392157 0.0941176 0.501961 0.392157 
0.0941176 0.501961 0.392157 0.0941176 0.501961 0.392157 
0.0941176 0.501961 0.392157 0.0941176 0.501961 0.392157 
0.0941176 0.501961 0.392157 0.0941176 0.501961 0.392157 
0.0941176 0.501961 0.392157 0.0941176 0.501961 0.392157 
0.0941176 0.501961 0.392157 0.0941176 0.501961 0.392157 
0.0941176 0.501961 0.392157 0.0941176 0.501961 0.392157 
0.0941176 0.501961 0.392157 0.0941176 0.501961 0.392157 
0.0941176 0.501961 0.392157 0.0941176 0.501961 0.392157 
0.0941176 0.501961 0.392157 0.0941176 0.501961 0.392157 
0.0941176 0.501961 0.392157 0.0941176 0.501961 0.392157 
0.0941176 0.501961 0.392157 0.0941176 0.501961 0.392157 
0.0941176 0.501961 0.392157 0.0941176 0.501961 0.392157 
0.0941176 0.501961 0.392157 0.0941176 0.501961 0.392157 
0.0941176 0.501961 0.392157 0.0941176 0.501961 0.392157 
0.0941176 0.501961 0.392157 0.0941176 0.501961 0.392157 
0.0941176 0.501961 0.392157 0.0941176 0.501961 0.392157 
0.0941176 0.501961 0.392157 0.0941176 0.501961 0.392157 
0.0941176 0.501961 0.392157 0.0941176 0.501961 0.392157 
0.0941176 0.501961 0.392157 0.0941176 0.501961 0.392157 
0.0941176 0.501961 0.392157 0.0941176 0.501961 0.392157 
0.0941176 0.501961 0.392157 0.0941176 0.501961 0.392157 
0.0941176 0.501961 0.392157 0.0941176 0.501961 0.392157 
0.0941176 0.501961 0.392157 0.0941176 0.501961 0.392157 
0.0941176 0.501961 0.392157 0.0941176 0.501961 0.392157 
0.0941176 0.501961 0.392157 0.0941176 0.501961 0.392157 
0.0941176 0.501961 0.392157 0.0941176 0.501961 0.392157 
0.0941176 0.501961 0.392157 0.0941176 0.501961 0.392157 
0.0941176 0.501961 0.392157 0.0941176 0.501961 0.392157 
0.0941176 0.501961 0.392157 0.0941176 0.501961 0.392157 
0.0941176 0.501961 0.392157 0.0941176 0.501961 0.392157 
0.0941176 0.501961 0.392157 0.0941176 0.501961 0.392157 
0.0941176 0.501961 0.392157 0.0941176 0.501961 0.392157 
0.0941176 0.501961 0.392157 0.0941176 0.501961 0.392157 
0.0941176 0.501961 0.392157 0.0941176 0.501961 0.392157 
0.0941176 0.501961 0.392157 0.0941176 0.501961 0.392157 
0.0941176 0.501961 0.392157 0.0941176 0.501961 0.392157 
0.0941176 0.501961 0.392157 0.0941176 0.501961 0.392157 
0.0941176 0.501961 0.392157 0.0941176 0.501961 0.392157 
0.0941176 0.501961 0.392157 0.0941176 0.501961 0.392157 
0.0941176 0.501961 0.392157 0.0941176 0.501961 0.392157 
0.0941176 0.501961 0.392157 0.0941176 0.501961 0.392157 
0.0941176 0.501961 0.392157 0.0941176 0.501961 0.392157 
0.0941176 0.501961 0.392157 0.0941176 0.501961 0.392157 
0.0941176 0.501961 0.392157 0.0941176 0.501961 0.392157 
0.0941176 0.501961 0.392157 0.0941176 0.501961 0.392157 
0.0941176 0.501961 0.392157 0.0941176 0.501961 0.392157 
0.0941176 0.501961 0.392157 0.0941176 0.501961 0.392157 
0.0941176 0.501961 0.392157 0.0941176 0.501961 0.392157 
0.0941176 0.501961 0.392157 0.0941176 0.501961 0.392157 
0.0941176 0.501961 0.392157 0.0941176 0.501961 0.392157 
0.0941176 0.501961 0.392157 0.0941176 0.501961 0.392157 
0.0941176 0.501961 0.392157 0.0941176 0.501961 0.392157 
0.0941176 0.501961 0.392157 0.0941176 0.501961 0.392157 
0.0941176 0.501961 0.392157 0.0941176 0.501961 0.392157 
0.0941176 0.501961 0.392157 0.0941176 0.501961 0.392157 
0.0941176 0.501961 0.392157 0.0941176 0.501961 0.392157 
0.0941176 0.501961 0.392157 0.0941176 0.501961 0.392157 
0.0941176 0.501961 0.392157 0.0941176 0.501961 0.392157 
0.0941176 0.501961 0.392157 0.0941176 0.501961 0.392157 
0.0941176 0.501961 0.392157 0.0941176 0.501961 0.392157 
0.0941176 0.501961 0.392157 0.0941176 0.501961 0.392157 
0.0941176 0.501961 0.392157 0.0941176 0.501961 0.392157 
0.0941176 0.501961 0.392157 0.0941176 0.501961 0.392157 
0.0941176 0.501961 0.392157 0.0941176 0.501961 0.392157 
0.0941176 0.501961 0.392157 0.0941176 0.501961 0.392157 
0.0941176 0.501961 0.392157 0.0941176 0.501961 0.392157 
0.0941176 0.501961 0.392157 0.0941176 0.501961 0.392157 
0.0941176 0.501961 0.392157 0.0941176 0.501961 0.392157 
0.0941176 0.501961 0.392157 0.0941176 0.501961 0.392157 
0.0941176 0.501961 0.392157 0.0941176 0.501961 0.392157 
0.0941176 0.501961 0.392157 0.0941176 0.501961 0.392157 
0.0941176 0.501961 0.392157 0.0941176 0.501961 0.392157 
0.0941176 0.501961 0.392157 0.0941176 0.501961 0.392157 
0.0941176 0.501961 0.392157 0.0941176 0.501961 0.392157 
0.0941176 0.501961 0.392157 0.0941176 0.501961 0.392157 
0.0941176 0.501961 0.392157 0.0941176 0.501961 0.392157 
0.0941176 0.501961 0.392157 0.0941176 0.501961 0.392157 
0.0941176 0.501961 0.392157 0.0941176 0.501961 0.392157 
0.0941176 0.501961 0.392157 0.0941176 0.501961 0.392157 
0.0941176 0.501961 0.392157 0.0941176 0.501961 0.392157 
0.0941176 0.501961 0.392157 0.0941176 0.501961 0.392157 
0.0941176 0.501961 0.392157 0.0941176 0.501961 0.392157 
0.0941176 0.501961 0.392157 0.0941176 0.501961 0.392157 
0.0941176 0.501961 0.392157 0.0941176 0.501961 0.392157 
0.0941176 0.501961 0.392157 0.0941176 0.501961 0.392157 
0.0941176 0.501961 0.392157 0.0941176 0.501961 0.392157 
0.0941176 0.501961 0.392157 0.0941176 0.501961 0.392157 
0.0941176 0.501961 0.392157 0.0941176 0.501961 0.392157 
0.0941176 0.501961 0.392157 0.0941176 0.501961 0.392157 
0.0941176 0.501961 0.392157 0.0941176 0.501961 0.392157 
0.0941176 0.501961 0.392157 0.0941176 0.501961 0.392157 
0.0941176 0.501961 0.392157 0.0941176 0.501961 0.392157 
0.0941176 0.501961 0.392157 0.0941176 0.501961 0.392157 
0.0941176 0.501961 0.392157 0.0941176 0.501961 0.392157 
0.0941176 0.501961 0.392157 0.0941176 0.501961 0.392157 
0.0941176 0.501961 0.392157 0.0941176 0.501961 0.392157 
0.0941176 0.501961 0.392157 0.0941176 0.501961 0.392157 
0.0941176 0.501961 0.392157 0.0941176 0.501961 0.392157 
0.0941176 0.501961 0.392157 0.0941176 0.501961 0.392157 
0.0941176 0.501961 0.392157 0.0941176 0.501961 0.392157 
0.0941176 0.501961 0.392157 0.0941176 0.501961 0.392157 
0.0941176 0.501961 0.392157 0.0941176 0.501961 0.392157 
0.0941176 0.501961 0.392157 0.0941176 0.501961 0.392157 
0.0941176 0.501961 0.392157 0.0941176 0.501961 0.392157 
0.0941176 0.501961 0.392157 0.0941176 0.501961 0.392157 
0.0941176 0.501961 0.392157 0.0941176 0.501961 0.392157 
0.0941176 0.501961 0.392157 0.0941176 0.501961 0.392157 
0.0941176 0.501961 0.392157 0.0941176 0.501961 0.392157 
0.0941176 0.501961 0.392157 0.0941176 0.501961 0.392157 
0.0941176 0.501961 0.392157 0.0941176 0.501961 0.392157 
0.0941176 0.501961 0.392157 0.0941176 0.501961 0.392157 
0.0941176 0.501961 0.392157 0.0941176 0.501961 0.392157 
0.0941176 0.501961 0.392157 0.0941176 0.501961 0.392157 
0.0941176 0.501961 0.392157 0.0941176 0.501961 0.392157 
0.0941176 0.501961 0.392157 0.0941176 0.501961 0.392157 
0.0941176 0.501961 0.392157 0.0941176 0.501961 0.392157 
0.0941176 0.501961 0.392157 0.0941176 0.501961 0.392157 
0.0941176 0.501961 0.392157 0.0941176 0.501961 0.392157 
0.0941176 0.501961 0.392157 0.0941176 0.501961 0.392157 
0.0941176 0.501961 0.392157 0.0941176 0.501961 0.392157 
0.0941176 0.501961 0.392157 0.0941176 0.501961 0.392157 
0.0941176 0.501961 0.392157 0.0941176 0.501961 0.392157 
0.0941176 0.501961 0.392157 0.0941176 0.501961 0.392157 
0.0941176 0.501961 0.392157 0.0941176 0.501961 0.392157 
0.0941176 0.501961 0.392157 0.0941176 0.501961 0.392157 
0.0941176 0.501961 0.392157 0.0941176 0.501961 0.392157 
0.0941176 0.501961 0.392157 0.0941176 0.501961 0.392157 
0.0941176 0.501961 0.392157 0.0941176 0.501961 0.392157 
0.0941176 0.501961 0.392157 0.0941176 0.501961 0.392157 
0.0941176 0.501961 0.392157 0.0941176 0.501961 0.392157 
0.0941176 0.501961 0.392157 0.0941176 0.501961 0.392157 
0.0941176 0.501961 0.392157 0.0941176 0.501961 0.392157 
0.0941176 0.501961 0.392157 0.0941176 0.501961 0.392157 
0.0941176 0.501961 0.392157 0.0941176 0.501961 0.392157 
0.0941176 0.501961 0.392157 0.0941176 0.501961 0.392157 
0.0941176 0.501961 0.392157 0.0941176 0.501961 0.392157 
0.0941176 0.501961 0.392157 0.0941176 0.501961 0.392157 
0.0941176 0.501961 0.392157 0.0941176 0.501961 0.392157 
0.0941176 0.501961 0.392157 0.0941176 0.501961 0.392157 
0.0941176 0.501961 0.392157 0.0941176 0.501961 0.392157 
0.0941176 0.501961 0.392157 0.0941176 0.501961 0.392157 
0.0941176 0.501961 0.392157 0.0941176 0.501961 0.392157 
0.0941176 0.501961 0.392157 0.0941176 0.501961 0.392157 
0.0941176 0.501961 0.392157 0.0941176 0.501961 0.392157 
0.0941176 0.501961 0.392157 0.0941176 0.501961 0.392157 
0.0941176 0.501961 0.392157 0.0941176 0.501961 0.392157 
0.0941176 0.501961 0.392157 0.0941176 0.501961 0.392157 
0.0941176 0.501961 0.392157 0.0941176 0.501961 0.392157 
0.0941176 0.501961 0.392157 0.0941176 0.501961 0.392157 
0.0941176 0.501961 0.392157 0.0941176 0.501961 0.392157 
0.0941176 0.501961 0.392157 0.0941176 0.501961 0.392157 
0.0941176 0.501961 0.392157 0.0941176 0.501961 0.392157 
0.0941176 0.501961 0.392157 0.0941176 0.501961 0.392157 
0.0941176 0.501961 0.392157 0.0941176 0.501961 0.392157 
0.0941176 0.501961 0.392157 0.0941176 0.501961 0.392157 
0.0941176 0.501961 0.392157 0.0941176 0.501961 0.392157 
0.0941176 0.501961 0.392157 0.0941176 0.501961 0.392157 
0.0941176 0.501961 0.392157 0.0941176 0.501961 0.392157 
0.0941176 0.501961 0.392157 0.0941176 0.501961 0.392157 
0.0941176 0.501961 0.392157 0.0941176 0.501961 0.392157 
0.0941176 0.501961 0.392157 0.0941176 0.501961 0.392157 
0.0941176 0.501961 0.392157 0.0941176 0.501961 0.392157 
0.0941176 0.501961 0.392157 0.0941176 0.501961 0.392157 
0.0941176 0.501961 0.392157 0.0941176 0.501961 0.392157 
0.0941176 0.501961 0.392157 0.0941176 0.501961 0.392157 
0.0941176 0.501961 0.392157 0.0941176 0.501961 0.392157 
0.0941176 0.501961 0.392157 0.0941176 0.501961 0.392157 
0.0941176 0.501961 0.392157 0.0941176 0.501961 0.392157 
0.0941176 0.501961 0.392157 0.0941176 0.501961 0.392157 
0.0941176 0.501961 0.392157 0.0941176 0.501961 0.392157 
0.0941176 0.501961 0.392157 0.0941176 0.501961 0.392157 
0.0941176 0.501961 0.392157 0.0941176 0.501961 0.392157 
0.0941176 0.501961 0.392157 0.0941176 0.501961 0.392157 
0.0941176 0.501961 0.392157 0.0941176 0.501961 0.392157 
0.0941176 0.501961 0.392157 0.0941176 0.501961 0.392157 
0.0941176 0.501961 0.392157 0.0941176 0.501961 0.392157 
0.0941176 0.501961 0.392157 0.0941176 0.501961 0.392157 
0.0941176 0.501961 0.392157 0.0941176 0.501961 0.392157 
0.0941176 0.501961 0.392157 0.0941176 0.501961 0.392157 
0.0941176 0.501961 0.392157 0.0941176 0.501961 0.392157 
0.0941176 0.501961 0.392157 0.0941176 0.501961 0.392157 
0.0941176 0.501961 0.392157 0.0941176 0.501961 0.392157 
0.0941176 0.501961 0.392157 0.0941176 0.501961 0.392157 
0.0941176 0.501961 0.392157 0.0941176 0.501961 0.392157 
0.0941176 0.501961 0.392157 0.0941176 0.501961 0.392157 
0.0941176 0.501961 0.392157 0.0941176 0.501961 0.392157 
0.0941176 0.501961 0.392157 0.0941176 0.501961 0.392157 
0.0941176 0.501961 0.392157 0.0941176 0.501961 0.392157 
0.0941176 0.501961 0.392157 0.0941176 0.501961 0.392157 
0.0941176 0.501961 0.392157 0.0941176 0.501961 0.392157 
0.0941176 0.501961 0.392157 0.0941176 0.501961 0.392157 
0.0941176 0.501961 0.392157 0.0941176 0.501961 0.392157 
0.0941176 0.501961 0.392157 0.0941176 0.501961 0.392157 
0.0941176 0.501961 0.392157 0.0941176 0.501961 0.392157 
0.0941176 0.501961 0.392157 0.0941176 0.501961 0.392157 
0.0941176 0.501961 0.392157 0.0941176 0.501961 0.392157 
0.0941176 0.501961 0.392157 0.0941176 0.501961 0.392157 
0.0941176 0.501961 0.392157 0.0941176 0.501961 0.392157 
0.0941176 0.501961 0.392157 0.0941176 0.501961 0.392157 
0.0941176 0.501961 0.392157 0.0941176 0.501961 0.392157 
0.0941176 0.501961 0.392157 0.0941176 0.501961 0.392157 
0.0941176 0.501961 0.392157 0.0941176 0.501961 0.392157 
0.0941176 0.501961 0.392157 0.0941176 0.501961 0.392157 
0.0941176 0.501961 0.392157 0.0941176 0.501961 0.392157 
0.0941176 0.501961 0.392157 0.0941176 0.501961 0.392157 
0.0941176 0.501961 0.392157 0.0941176 0.501961 0.392157 
0.0941176 0.501961 0.392157 0.0941176 0.501961 0.392157 
0.0941176 0.501961 0.392157 0.0941176 0.501961 0.392157 
0.0941176 0.501961 0.392157 0.0941176 0.501961 0.392157 
0.0941176 0.501961 0.392157 0.0941176 0.501961 0.392157 
0.0941176 0.501961 0.392157 0.0941176 0.501961 0.392157 
0.0941176 0.501961 0.392157 0.0941176 0.501961 0.392157 
0.0941176 0.501961 0.392157 0.0941176 0.501961 0.392157 
0.0941176 0.501961 0.392157 0.0941176 0.501961 0.392157 
0.0941176 0.501961 0.392157 0.0941176 0.501961 0.392157 
0.0941176 0.501961 0.392157 0.0941176 0.501961 0.392157 
0.0941176 0.501961 0.392157 0.0941176 0.501961 0.392157 
0.0941176 0.501961 0.392157 0.0941176 0.501961 0.392157 
0.0941176 0.501961 0.392157 0.0941176 0.501961 0.392157 
0.0941176 0.501961 0.392157 0.0941176 0.501961 0.392157 
0.0941176 0.501961 0.392157 0.0941176 0.501961 0.392157 
0.0941176 0.501961 0.392157 0.0941176 0.501961 0.392157 
0.0941176 0.501961 0.392157 0.0941176 0.501961 0.392157 
0.0941176 0.501961 0.392157 0.0941176 0.501961 0.392157 
0.0941176 0.501961 0.392157 0.0941176 0.501961 0.392157 
0.0941176 0.501961 0.392157 0.0941176 0.501961 0.392157 
0.0941176 0.501961 0.392157 0.0941176 0.501961 0.392157 
0.0941176 0.501961 0.392157 0.0941176 0.501961 0.392157 
0.0941176 0.501961 0.392157 0.0941176 0.501961 0.392157 
0.0941176 0.501961 0.392157 0.0941176 0.501961 0.392157 
0.0941176 0.501961 0.392157 0.0941176 0.501961 0.392157 
0.0941176 0.501961 0.392157 0.0941176 0.501961 0.392157 
0.0941176 0.501961 0.392157 0.0941176 0.501961 0.392157 
0.0941176 0.501961 0.392157 0.0941176 0.501961 0.392157 
0.0941176 0.501961 0.392157 0.0941176 0.501961 0.392157 
0.0941176 0.501961 0.392157 0.0941176 0.501961 0.392157 
0.0941176 0.501961 0.392157 0.0941176 0.501961 0.392157 
0.0941176 0.501961 0.392157 0.0941176 0.501961 0.392157 
0.0941176 0.501961 0.392157 0.0941176 0.501961 0.392157 
0.0941176 0.501961 0.392157 0.0941176 0.501961 0.392157 
0.0941176 0.501961 0.392157 0.0941176 0.501961 0.392157 
0.0941176 0.501961 0.392157 0.0941176 0.501961 0.392157 
0.0941176 0.501961 0.392157 0.0941176 0.501961 0.392157 
0.0941176 0.501961 0.392157 0.0941176 0.501961 0.392157 
0.0941176 0.501961 0.392157 0.0941176 0.501961 0.392157 
0.0941176 0.501961 0.392157 0.0941176 0.501961 0.392157 
0.0941176 0.501961 0.392157 0.0941176 0.501961 0.392157 
0.0941176 0.501961 0.392157 0.0941176 0.501961 0.392157 
0.0941176 0.501961 0.392157 0.0941176 0.501961 0.392157 
0.0941176 0.501961 0.392157 0.0941176 0.501961 0.392157 
0.0941176 0.501961 0.392157 0.0941176 0.501961 0.392157 
0.0941176 0.501961 0.392157 0.0941176 0.501961 0.392157 
0.0941176 0.501961 0.392157 0.0941176 0.501961 0.392157 
0.0941176 0.501961 0.392157 0.0941176 0.501961 0.392157 
0.0941176 0.501961 0.392157 0.0941176 0.501961 0.392157 
0.0941176 0.501961 0.392157 0.0941176 0.501961 0.392157 
0.0941176 0.501961 0.392157 0.0941176 0.501961 0.392157 
0.0941176 0.501961 0.392157 0.0941176 0.501961 0.392157 
0.0941176 0.501961 0.392157 0.0941176 0.501961 0.392157 
0.0941176 0.501961 0.392157 0.0941176 0.501961 0.392157 
0.0941176 0.501961 0.392157 0.0941176 0.501961 0.392157 
0.0941176 0.501961 0.392157 0.0941176 0.501961 0.392157 
0.0941176 0.501961 0.392157 0.0941176 0.501961 0.392157 
0.0941176 0.501961 0.392157 0.0941176 0.501961 0.392157 
0.0941176 0.501961 0.392157 0.0941176 0.501961 0.392157 
0.0941176 0.501961 0.392157 0.0941176 0.501961 0.392157 
0.0941176 0.501961 0.392157 0.0941176 0.501961 0.392157 
0.0941176 0.501961 0.392157 0.0941176 0.501961 0.392157 
0.0941176 0.501961 0.392157 0.0941176 0.501961 0.392157 
0.0941176 0.501961 0.392157 0.0941176 0.501961 0.392157 
0.0941176 0.501961 0.392157 0.0941176 0.501961 0.392157 
0.0941176 0.501961 0.392157 0.0941176 0.501961 0.392157 
0.0941176 0.501961 0.392157 0.0941176 0.501961 0.392157 
0.0941176 0.501961 0.392157 0.0941176 0.501961 0.392157 
0.0941176 0.501961 0.392157 0.0941176 0.501961 0.392157 
0.0941176 0.501961 0.392157 0.0941176 0.501961 0.392157 
0.0941176 0.501961 0.392157 0.0941176 0.501961 0.392157 
0.0941176 0.501961 0.392157 0.0941176 0.501961 0.392157 
0.0941176 0.501961 0.392157 0.0941176 0.501961 0.392157 
0.0941176 0.501961 0.392157 0.0941176 0.501961 0.392157 
0.0941176 0.501961 0.392157 0.0941176 0.501961 0.392157 
0.0941176 0.501961 0.392157 0.0941176 0.501961 0.392157 
0.0941176 0.501961 0.392157 0.0941176 0.501961 0.392157 
0.0941176 0.501961 0.392157 0.0941176 0.501961 0.392157 
0.0941176 0.501961 0.392157 0.0941176 0.501961 0.392157 
0.0941176 0.501961 0.392157 0.0941176 0.501961 0.392157 
0.0941176 0.501961 0.392157 0.0941176 0.501961 0.392157 
0.0941176 0.501961 0.392157 0.0941176 0.501961 0.392157 
0.0941176 0.501961 0.392157 0.0941176 0.501961 0.392157 
0.0941176 0.501961 0.392157 0.0941176 0.501961 0.392157 
0.0941176 0.501961 0.392157 0.0941176 0.501961 0.392157 
0.0941176 0.501961 0.392157 0.0941176 0.501961 0.392157 
0.0941176 0.501961 0.392157 0.0941176 0.501961 0.392157 
0.0941176 0.501961 0.392157 0.0941176 0.501961 0.392157 
0.0941176 0.501961 0.392157 0.0941176 0.501961 0.392157 
0.0941176 0.501961 0.392157 0.0941176 0.501961 0.392157 
0.0941176 0.501961 0.392157 0.0941176 0.501961 0.392157 
0.0941176 0.501961 0.392157 0.0941176 0.501961 0.392157 
0.0941176 0.501961 0.392157 0.0941176 0.501961 0.392157 
0.0941176 0.501961 0.392157 0.0941176 0.501961 0.392157 
0.0941176 0.501961 0.392157 0.0941176 0.501961 0.392157 
0.0941176 0.501961 0.392157 0.0941176 0.501961 0.392157 
0.0941176 0.501961 0.392157 0.0941176 0.501961 0.392157 
0.0941176 0.501961 0.392157 0.0941176 0.501961 0.392157 
0.0941176 0.501961 0.392157 0.0941176 0.501961 0.392157 
0.0941176 0.501961 0.392157 0.0941176 0.501961 0.392157 
0.0941176 0.501961 0.392157 0.0941176 0.501961 0.392157 
0.0941176 0.501961 0.392157 0.0941176 0.501961 0.392157 
0.0941176 0.501961 0.392157 0.0941176 0.501961 0.392157 
0.0941176 0.501961 0.392157 0.0941176 0.501961 0.392157 
0.0941176 0.501961 0.392157 0.0941176 0.501961 0.392157 
0.0941176 0.501961 0.392157 0.0941176 0.501961 0.392157 
0.0941176 0.501961 0.392157 0.0941176 0.501961 0.392157 
0.0941176 0.501961 0.392157 0.0941176 0.501961 0.392157 
0.0941176 0.501961 0.392157 0.0941176 0.501961 0.392157 
0.0941176 0.501961 0.392157 0.0941176 0.501961 0.392157 
0.0941176 0.501961 0.392157 0.0941176 0.501961 0.392157 
0.0941176 0.501961 0.392157 0.0941176 0.501961 0.392157 
0.0941176 0.501961 0.392157 0.0941176 0.501961 0.392157 
0.0941176 0.501961 0.392157 0.0941176 0.501961 0.392157 
0.0941176 0.501961 0.392157 0.0941176 0.501961 0.392157 
0.0941176 0.501961 0.392157 0.0941176 0.501961 0.392157 
0.0941176 0.501961 0.392157 0.0941176 0.501961 0.392157 
0.0941176 0.501961 0.392157 0.0941176 0.501961 0.392157 
0.0941176 0.501961 0.392157 0.0941176 0.501961 0.392157 
0.0941176 0.501961 0.392157 0.0941176 0.501961 0.392157 
0.0941176 0.501961 0.392157 0.0941176 0.501961 0.392157 
0.0941176 0.501961 0.392157 0.0941176 0.501961 0.392157 
0.0941176 0.501961 0.392157 0.0941176 0.501961 0.392157 
0.0941176 0.501961 0.392157 0.0941176 0.501961 0.392157 
0.0941176 0.501961 0.392157 0.0941176 0.501961 0.392157 
0.0941176 0.501961 0.392157 0.0941176 0.501961 0.392157 
0.0941176 0.501961 0.392157 0.0941176 0.501961 0.392157 
0.0941176 0.501961 0.392157 0.0941176 0.501961 0.392157 
0.0941176 0.501961 0.392157 0.0941176 0.501961 0.392157 
0.0941176 0.501961 0.392157 0.0941176 0.501961 0.392157 
0.0941176 0.501961 0.392157 0.0941176 0.501961 0.392157 