# vtk DataFile Version 4.2
vtk output
ASCII
DATASET POLYDATA
POINTS 1947 float
251.948 93.984 55.3344 252.303 93.8808 55.4538 248.992 95.2541 55.1505 
249.874 95.324 55.2109 249.791 94.8808 55.178 248.953 95.5941 55.1769 
248.65 95.6913 55.2605 249.247 95.7712 55.2277 247.846 96.7392 55.6684 
247.594 96.7483 55.8618 248.842 95.9977 55.3372 248.049 96.4289 55.5655 
249.971 95.9833 55.4971 247.751 96.9835 55.8104 248.357 97.0246 55.7405 
247.858 97.2326 55.9546 248.138 97.2596 55.8828 258.889 89.0932 56.4928 
258.884 88.9972 56.488 257.182 90.2607 56.1715 255.443 91.5419 55.9589 
251.911 91.9082 55.502 253.845 92.1831 55.6248 248.375 93.6436 55.5784 
251.389 93.8763 55.3077 246.965 95.1494 56.2405 250.711 95.3806 55.4919 
248.184 95.693 55.4931 247.001 96.029 56.3023 248.498 96.5107 55.5544 
262.05 87.1318 57.5753 258.884 88.7897 56.5815 260.063 88.3631 57.1137 
258.201 89.4297 56.4895 259.238 89.0297 56.7265 256.386 90.4276 56.1077 
258.88 89.7906 56.8349 250.747 90.7806 56.007 257.311 91.0059 56.4882 
248.913 91.6542 56.0671 255.059 93.1362 56.344 247.132 93.6146 56.2313 
253.698 93.771 55.9518 251.286 95.8363 56.0134 246.781 96.14 56.6628 
248.799 97.5379 56.2642 247.613 97.6252 56.7297 247.774 97.9402 57.0914 
265.78 83.3667 58.2017 261.506 85.5526 57.4457 262.455 85.2955 57.5714 
263.404 84.9925 57.7168 264.92 85.0562 58.0856 259.338 86.5549 57.0976 
256.331 87.4443 56.784 262.731 87.3989 58.027 261.077 88.014 57.506 
251.171 88.756 56.9249 257.426 91.8108 56.9904 254.341 95.2442 57.4898 
248.94 97.8007 56.6247 247.602 98.2307 57.9394 248.573 98.5237 57.8573 
267.331 82.0939 58.8691 262.446 83.1797 58.0245 267.599 83.0917 58.9563 
260.331 84.0823 57.8626 263.255 83.8427 57.796 266.794 84.3159 58.6647 
265.2 85.3373 58.2584 265.264 85.7092 58.4538 245.078 90.3387 58.827 
249.141 98.923 58.4942 273.17 78.0827 60.4899 268.766 81.6973 59.3991 
268.139 83.7849 59.4346 245.299 88.3589 59.4024 259.323 91.8863 58.542 
244.867 92.8961 59.1636 244.994 93.7298 59.4093 245.474 94.8157 58.7146 
246.733 97.4864 59.5761 252.979 97.6724 59.285 248.081 99.0195 59.2244 
248.351 99.3657 59.5946 248.83 99.5587 59.7589 248.506 99.5382 59.7374 
248.398 99.505 59.7716 273.207 77.6637 60.6164 274.791 76.9488 61.2043 
272.331 78.3767 60.3857 274.035 77.8842 60.9251 268.1 79.1338 59.7149 
271.011 81.3793 60.3145 260.556 92.0201 59.9405 257.642 94.0263 59.1799 
246.047 96.3719 59.7029 248.535 99.5232 60.2084 248.961 99.7678 60.4366 
249.208 99.891 60.3615 275.032 75.0848 61.631 273.011 76.3364 60.9685 
275.591 76.1202 61.5631 277.529 75.975 62.342 267.514 76.7496 61.1836 
273.96 78.3487 60.9435 246.809 84.2045 61.0867 243.173 86.2709 61.981 
243.142 87.1557 61.8485 243.826 91.0168 61.0353 247.434 98.3163 60.9608 
252.535 98.494 60.5211 248.309 99.0843 61.2728 251.01 99.4217 60.2766 
251.636 99.1408 60.5913 249.152 99.7959 61.06 251.382 99.3178 60.7776 
249.598 100.085 60.8895 249.975 100.009 60.7167 249.842 100.08 60.9408 
274.193 74.2298 61.9924 277.251 77.1708 62.5563 270.818 83.1486 61.1996 
243.608 84.7175 62.3117 242.972 88.808 62.5399 243.568 91.069 62.5443 
244.736 93.692 62.3342 258.808 94.3525 61.3525 257.235 95.402 60.9169 
246.142 96.25 61.7582 255.585 96.5895 61.3705 254.237 97.4329 61.2741 
252.303 98.6821 61.367 251.219 99.3706 61.1512 250.494 99.784 61.2279 
249.946 100.024 61.1908 280.166 71.6259 63.5944 282.703 71.1642 64.3155 
280.126 72.364 63.4293 280.886 72.7697 63.6367 279.974 74.2574 63.3193 
276.397 79.2423 63.1796 244.436 82.6958 63.0755 271.361 84.6517 63.1908 
242.089 85.109 63.773 267.568 87.8396 62.5062 265.934 89.1489 62.397 
263.136 91.5021 62.4508 263.05 91.663 62.7698 258.328 94.7739 61.7703 
256.392 96.0423 62.1557 254.648 97.0443 62.1559 251.752 98.5931 62.3316 
252.466 98.3867 61.9717 250.697 98.844 62.5658 248.906 99.1558 62.0316 
249.838 99.9459 61.3766 284.914 69.0843 65.1705 284.934 68.9882 65.1998 
281.495 70.2677 64.2418 282.276 72.8432 64.2677 282.643 73.0553 64.5463 
280.922 73.918 63.7811 264.106 74.6995 63.7154 246.234 80.9701 63.593 
275.486 81.0312 63.8126 241.693 83.1149 64.8186 268.423 87.7536 63.8261 
242.965 89.905 64.1691 265.259 89.9622 63.1616 267.205 88.7569 63.8773 
264.48 90.5468 63.2607 262.734 91.9062 62.9449 263.136 91.6142 63.1586 
262.723 91.8879 63.3402 256.534 95.4864 63.3221 249.746 97.8301 63.5443 
254.572 96.7729 62.8804 284.96 68.785 65.3448 284.784 68.1963 65.5239 
284.213 69.2456 65.0904 285.442 69.2946 65.5136 284.716 69.9003 65.213 
241.168 82.3966 65.7445 241.211 82.8798 65.3675 273.193 83.8854 64.6892 
272.664 84.3651 64.6972 265.392 89.9912 64.3683 262.17 91.6555 64.7193 
263.467 91.2085 64.0221 264.462 90.3821 64.7126 261.912 92.0258 64.2809 
259.681 93.3211 63.9974 246.112 94.7508 64.5012 254.389 95.0919 64.8254 
257.775 94.283 64.0947 249.783 96.0864 64.8965 289.217 66.4025 67.2058 
288.989 66.2113 67.1886 289.535 66.5161 67.3297 288.002 67.3477 66.8223 
277.562 80.1806 65.273 241.128 82.9468 65.5587 275.239 82.4966 65.8125 
273.061 84.2959 65.4883 271.258 85.6984 65.1209 270.799 86.0687 65.7899 
267.932 88.2336 64.8158 267.717 88.2415 65.3291 269.102 87.268 65.4834 
260.441 91.2228 66.0246 262.038 90.8907 65.7235 263.923 90.3423 65.2908 
249.097 94.6215 65.9646 284.123 65.8605 66.9316 290.774 66.0644 67.9049 
288.936 67.9212 67.2676 286.049 71.8911 66.7952 282.825 75.4343 66.2679 
240.105 79.5824 68.1299 278.953 79.5223 66.4352 239.999 80.4188 67.9828 
276.556 81.4543 65.9003 274.487 83.2106 65.9314 276.263 81.9945 67.1003 
240.799 84.7984 67.424 273.145 84.2515 65.9284 272.206 84.8007 66.4974 
268.358 86.8961 66.9421 270.4 86.1925 66.1785 265.463 88.0556 67.0804 
268.669 87.3404 65.9703 266.735 88.3363 66.1327 246.41 93.7456 65.9701 
247.757 94.5299 65.828 293.871 63.358 69.1348 290.535 63.758 68.4184 
293.676 64.2131 69.0028 284.113 64.7886 67.8506 291.918 66.3378 68.4802 
288.913 68.993 67.5998 282.838 76.7947 67.7451 240.256 79.0567 68.2229 
239.553 79.7889 68.938 277.055 81.4182 67.7084 275.388 82.3783 67.6538 
270.206 85.1019 67.9006 271.34 84.4335 67.996 272.45 84.3741 67.1222 
273.41 83.828 66.9366 266.085 87.0596 67.7078 243.362 89.9888 67.3347 
244.172 90.5799 67.7346 245.574 92.033 67.1341 298.718 60.8441 70.2215 
298.295 61.416 70.0324 304.835 61.1883 70.0605 297.225 62.3311 69.8522 
296.649 61.7279 69.9157 301.797 61.8887 70.0157 291.681 63.287 68.7563 
294.996 64.388 69.4645 297.465 63.7267 69.9929 290.882 68.3361 68.6584 
289.304 69.8542 68.4183 240.086 77.3379 69.4383 283.218 76.8459 68.8301 
239.404 80.6144 69.272 273.2 82.824 68.7685 273.802 83.022 68.0987 
242.015 87.6045 68.4119 246.584 90.6452 68.8859 245.224 90.8311 68.2654 
305.065 60.1873 70.2904 311.836 60.3616 71.6133 294.427 61.2206 70.0816 
296.683 60.518 70.4617 306.956 61.8959 70.4086 309.023 61.6485 70.8128 
299.566 63.3642 70.2565 301.803 62.8238 70.2518 305.233 62.6133 70.4205 
295.952 64.9486 69.924 292.986 67.0829 69.5029 289.424 71.127 69.6739 
286.735 73.8183 69.6006 239.315 76.9681 70.4111 238.814 77.7047 70.8729 
239.082 79.0709 70.1837 282.829 77.0892 69.4939 242.344 87.8025 69.2989 
243.057 88.4915 69.5102 247.61 89.288 70.0347 244.798 90.2181 68.7579 
309.072 59.1925 71.0969 309.529 58.6644 71.4563 311.438 59.3913 71.6878 
300.205 59.6657 70.7598 292.281 61.0382 70.3392 309.537 62.1614 71.0717 
311.823 61.7533 71.8324 311.638 62.3291 71.9033 300.89 63.7698 70.653 
303.448 63.7336 70.9321 295.628 65.9231 70.3535 297.56 65.8092 71.1776 
292.737 68.6973 70.558 289.074 71.9096 70.3435 290.192 71.4538 71.4069 
287.725 73.1011 70.3578 239.948 74.7798 71.408 286.397 74.2813 70.0107 
238.467 77.7473 71.5944 282.623 77.0841 70.0035 238.725 79.1755 71.1806 
276.808 78.6274 71.4558 278.187 78.7622 70.7889 239.073 80.6303 70.7695 
241.48 85.8306 70.7768 242.88 87.5331 70.6912 244.695 88.7659 70.366 
244.08 88.6226 70.3313 243.726 88.6253 70.1127 306.619 57.9874 71.7237 
311.859 58.4178 72.5545 312.738 59.3365 72.7205 292.686 59.8805 71.4091 
312.919 59.9692 72.9687 312.82 59.4988 72.7901 313.028 61.7518 73.1157 
309.151 63.3661 71.5296 309.002 63.7999 71.8502 304.371 64.6511 71.83 
292.816 69.4999 71.6804 241.882 73.8782 71.1877 286.129 74.2863 71.5 
285.341 74.6896 71.7154 238.215 76.2012 72.37 275.654 78.2158 72.1489 
238.579 79.7905 72.4759 239.992 83.0889 71.6194 309.504 56.7997 73.0152 
311.02 56.9164 73.3527 312.164 57.4275 73.8097 312.75 59.2068 72.956 
313.359 61.9223 73.4447 313.166 62.4122 73.6901 313.329 62.0584 73.5051 
312.699 63.048 73.2561 312.718 63.3151 73.3719 311.12 64.0742 72.951 
312.437 63.6263 73.4511 312.664 63.4311 73.412 304.58 65.4863 72.8429 
300.412 66.275 72.8894 295.158 67.9755 72.1653 292.544 69.8305 71.8921 
292.719 69.9168 72.6693 289.403 72.0898 72.3378 289.41 71.9307 72.877 
238.688 73.777 73.17 273.381 77.574 73.2276 238.191 78.495 72.6965 
238.882 80.7259 72.9509 240.668 83.6549 72.9472 311.599 56.3755 74.3721 
313.425 59.3762 74.321 313.365 61.8424 73.5692 313.504 62.1564 74.7779 
312.781 63.303 73.629 312.117 64.122 73.7688 309.961 64.957 73.6613 
311.214 64.6958 73.868 312.3 64.34 74.3633 299.188 66.683 72.9784 
305.951 65.884 74.0547 306.468 65.8741 74.0282 311.997 64.651 74.4929 
297.742 67.4386 73.4937 294.735 68.6957 73.251 296.56 68.0905 73.8256 
292.754 69.9256 73.1754 292.269 70.1628 73.5193 237.173 73.4719 74.9492 
283.113 73.6773 74.2443 237.102 74.2585 74.756 238.462 79.8196 74.3929 
241.563 84.5442 73.2615 243.455 85.6031 73.4076 311.124 55.4752 75.3535 
312.899 57.3858 75.2311 313.514 58.6101 75.4203 313.58 59.1943 74.9956 
312.629 63.9746 74.9216 310.351 65.0188 74.065 312.439 64.4272 74.6766 
312.3 64.5675 74.5926 312.374 64.5673 74.7033 311.272 64.8872 74.8871 
300.425 66.93 74.5236 305.228 66.125 74.8813 296.521 67.9929 74.6474 
297.618 67.5811 75.0392 292.972 69.5928 74.393 236.887 74.3707 75.1363 
236.841 75.037 75.3809 236.897 75.7719 75.572 240.705 82.8043 74.6178 
313.722 60.7262 76.0581 313.453 62.1872 76.094 312.86 63.6687 75.444 
309.353 65.2049 75.5536 310.501 64.8442 75.8932 312.156 64.5068 75.023 
[...]
POINT_DATA 1947
COLOR_SCALARS scalars 3
0.0941176 0.501961 0.392157 0.0941176 0.501961 0.392157 0.0941176 0.501961 0.392157 
0.0941176 0.501961 0.392157 0.0941176 0.501961 0.392157 
0.0941176 0.501961 0.392157 0.0941176 0.501961 0.392157 
0.0941176 0.501961 0.392157 0.0941176 0.501961 0.392157 
0.0941176 0.501961 0.392157 0.0941176 0.501961 0.392157 
0.0941176 0.501961 0.392157 0.0941176 0.501961 0.392157 
0.0941176 0.501961 0.392157 0.0941176 0.501961 0.392157 
0.0941176 0.501961 0.392157 0.0941176 0.501961 0.392157 
0.0941176 0.501961 0.392157 0.0941176 0.501961 0.392157 
0.0941176 0.501961 0.392157 0.0941176 0.501961 0.392157 
0.0941176 0.501961 0.392157 0.0941176 0.501961 0.392157 
0.0941176 0.501961 0.392157 0.0941176 0.501961 0.392157 
0.0941176 0.501961 0.392157 0.0941176 0.501961 0.392157 
0.0941176 0.501961 0.392157 0.0941176 0.501961 0.392157 
0.0941176 0.501961 0.392157 0.0941176 0.501961 0.392157 
0.0941176 0.501961 0.392157 0.0941176 0.501961 0.392157 
0.0941176 0.501961 0.392157 0.0941176 0.501961 0.392157 
0.0941176 0.501961 0.392157 0.0941176 0.501961 0.392157 
0.0941176 0.501961 0.392157 0.0941176 0.501961 0.392157 
0.0941176 0.501961 0.392157 0.0941176 0.501961 0.392157 
0.0941176 0.501961 0.392157 0.0941176 0.501961 0.392157 
0.0941176 0.501961 0.392157 0.0941176 0.501961 0.392157 
0.0941176 0.501961 0.392157 0.0941176 0.501961 0.392157 
0.0941176 0.501961 0.392157 0.0941176 0.501961 0.392157 
0.0941176 0.501961 0.392157 0.0941176 0.501961 0.392157 
0.0941176 0.501961 0.392157 0.0941176 0.501961 0.392157 
0.0941176 0.501961 0.392157 0.0941176 0.501961 0.392157 
0.0941176 0.501961 0.392157 0.0941176 0.501961 0.392157 
0.0941176 0.501961 0.392157 0.0941176 0.501961 0.392157 
0.0941176 0.501961 0.392157 0.0941176 0.501961 0.392157 
0.0941176 0.501961 0.392157 0.0941176 0.501961 0.392157 
0.0941176 0.501961 0.392157 0.0941176 0.501961 0.392157 
0.0941176 0.501961 0.392157 0.0941176 0.501961 0.392157 
0.0941176 0.501961 0.392157 0.0941176 0.501961 0.392157 
0.0941176 0.501961 0.392157 0.0941176 0.501961 0.392157 
0.0941176 0.501961 0.392157 0.0941176 0.501961 0.392157 
0.0941176 0.501961 0.392157 0.0941176 0.501961 0.392157 
0.0941176 0.501961 0.392157 0.0941176 0.501961 0.392157 
0.0941176 0.501961 0.392157 0.0941176 0.501961 0.392157 
0.0941176 0.501961 0.392157 0.0941176 0.501961 0.392157 
0.0941176 0.501961 0.392157 0.0941176 0.501961 0.392157 
0.0941176 0.501961 0.392157 0.0941176 0.501961 0.392157 
0.0941176 0.501961 0.392157 0.0941176 0.501961 0.392157 
0.0941176 0.501961 0.392157 0.0941176 0.501961 0.392157 
0.0941176 0.501961 0.392157 0.0941176 0.501961 0.392157 
0.0941176 0.501961 0.392157 0.0941176 0.501961 0.392157 
0.0941176 0.501961 0.392157 0.0941176 0.501961 0.392157 
0.0941176 0.501961 0.392157 0.0941176 0.501961 0.392157 
0.0941176 0.501961 0.392157 0.0941176 0.501961 0.392157 
0.0941176 0.501961 0.392157 0.0941176 0.501961 0.392157 
0.0941176 0.501961 0.392157 0.0941176 0.501961 0.392157 
0.0941176 0.501961 0.392157 0.0941176 0.501961 0.392157 
0.0941176 0.501961 0.392157 0.0941176 0.501961 0.392157 
0.0941176 0.501961 0.392157 0.0941176 0.501961 0.392157 
0.0941176 0.501961 0.392157 0.0941176 0.501961 0.392157 
0.0941176 0.501961 0.392157 0.0941176 0.501961 0.392157 
0.0941176 0.501961 0.392157 0.0941176 0.501961 0.392157 
0.0941176 0.501961 0.392157 0.0941176 0.501961 0.392157 
0.0941176 0.501961 0.392157 0.0941176 0.501961 0.392157 
0.0941176 0.501961 0.392157 0.0941176 0.501961 0.392157 
0.0941176 0.501961 0.392157 0.0941176 0.501961 0.392157 
0.0941176 0.501961 0.392157 0.0941176 0.501961 0.392157 
0.0941176 0.501961 0.392157 0.0941176 0.501961 0.392157 
0.0941176 0.501961 0.392157 0.0941176 0.501961 0.392157 
0.0941176 0.501961 0.392157 0.0941176 0.501961 0.392157 
0.0941176 0.501961 0.392157 0.0941176 0.501961 0.392157 
0.0941176 0.501961 0.392157 0.0941176 0.501961 0.392157 
0.0941176 0.501961 0.392157 0.0941176 0.501961 0.392157 
0.0941176 0.501961 0.392157 0.0941176 0.501961 0.392157 
0.0941176 0.501961 0.392157 0.0941176 0.501961 0.392157 
0.0941176 0.501961 0.392157 0.0941176 0.501961 0.392157 
0.0941176 0.501961 0.392157 0.0941176 0.501961 0.392157 
0.0941176 0.501961 0.392157 0.0941176 0.501961 0.392157 
0.0941176 0.501961 0.392157 0.0941176 0.501961 0.392157 
0.0941176 0.501961 0.392157 0.0941176 0.501961 0.392157 
0.0941176 0.501961 0.392157 0.0941176 0.501961 0.392157 
0.0941176 0.501961 0.392157 0.0941176 0.501961 0.392157 
0.0941176 0.501961 0.392157 0.0941176 0.501961 0.392157 
0.0941176 0.501961 0.392157 0.0941176 0.501961 0.392157 
0.0941176 0.501961 0.392157 0.0941176 0.501961 0.392157 
0.0941176 0.501961 0.392157 0.0941176 0.501961 0.392157 
0.0941176 0.501961 0.392157 0.0941176 0.501961 0.392157 
0.0941176 0.501961 0.392157 0.0941176 0.501961 0.392157 
0.0941176 0.501961 0.392157 0.0941176 0.501961 0.392157 
0.0941176 0.501961 0.392157 0.0941176 0.501961 0.392157 
0.0941176 0.501961 0.392157 0.0941176 0.501961 0.392157 
0.0941176 0.501961 0.392157 0.0941176 0.501961 0.392157 
0.0941176 0.501961 0.392157 0.0941176 0.501961 0.392157 
0.0941176 0.501961 0.392157 0.0941176 0.501961 0.392157 
0.0941176 0.501961 0.392157 0.0941176 0.501961 0.392157 
0.0941176 0.501961 0.392157 0.0941176 0.501961 0.392157 
0.0941176 0.501961 0.392157 0.0941176 0.501961 0.392157 
0.0941176 0.501961 0.392157 0.0941176 0.501961 0.392157 
0.0941176 0.501961 0.392157 0.0941176 0.501961 0.392157 
0.0941176 0.501961 0.392157 0.0941176 0.501961 0.392157 
0.0941176 0.501961 0.392157 0.0941176 0.501961 0.392157 
0.0941176 0.501961 0.392157 0.0941176 0.501961 0.392157 
0.0941176 0.501961 0.392157 0.0941176 0.501961 0.392157 
0.0941176 0.501961 0.392157 0.0941176 0.501961 0.392157 
0.0941176 0.501961 0.392157 0.0941176 0.501961 0.392157 
0.0941176 0.501961 0.392157 0.0941176 0.501961 0.392157 
0.0941176 0.501961 0.392157 0.0941176 0.501961 0.392157 
0.0941176 0.501961 0.392157 0.0941176 0.501961 0.392157 
0.0941176 0.501961 0.392157 0.0941176 0.501961 0.392157 
0.0941176 0.501961 0.392157 0.0941176 0.501961 0.392157 
0.0941176 0.501961 0.392157 0.0941176 0.501961 0.392157 
0.0941176 0.501961 0.392157 0.0941176 0.501961 0.392157 
0.0941176 0.501961 0.392157 0.0941176 0.501961 0.392157 
0.0941176 0.501961 0.392157 0.0941176 0.501961 0.392157 
0.0941176 0.501961 0.392157 0.0941176 0.501961 0.392157 
0.0941176 0.501961 0.392157 0.0941176 0.501961 0.392157 
0.0941176 0.501961 0.392157 0.0941176 0.501961 0.392157 
0.0941176 0.501961 0.392157 0.0941176 0.501961 0.392157 
0.0941176 0.501961 0.392157 0.0941176 0.501961 0.392157 
0.0941176 0.501961 0.392157 0.0941176 0.501961 0.392157 
0.0941176 0.501961 0.392157 0.0941176 0.501961 0.392157 
0.0941176 0.501961 0.392157 0.0941176 0.501961 0.392157 
0.0941176 0.501961 0.392157 0.0941176 0.501961 0.392157 
0.0941176 0.501961 0.392157 0.0941176 0.501961 0.392157 
0.0941176 0.501961 0.392157 0.0941176 0.501961 0.392157 
0.0941176 0.501961 0.392157 0.0941176 0.501961 0.392157 
0.0941176 0.501961 0.392157 0.0941176 0.501961 0.392157 
0.0941176 0.501961 0.392157 0.0941176 0.501961 0.392157 
0.0941176 0.501961 0.392157 0.0941176 0.501961 0.392157 
0.0941176 0.501961 0.392157 0.0941176 0.501961 0.392157 
0.0941176 0.501961 0.392157 0.0941176 0.501961 0.392157 
0.0941176 0.501961 0.392157 0.0941176 0.501961 0.392157 
0.0941176 0.501961 0.392157 0.0941176 0.501961 0.392157 
0.0941176 0.501961 0.392157 0.0941176 0.501961 0.392157 
0.0941176 0.501961 0.392157 0.0941176 0.501961 0.392157 
0.0941176 0.501961 0.392157 0.0941176 0.501961 0.392157 
0.0941176 0.501961 0.392157 0.0941176 0.501961 0.392157 
0.0941176 0.501961 0.392157 0.0941176 0.501961 0.392157 
0.0941176 0.501961 0.392157 0.0941176 0.501961 0.392157 
0.0941176 0.501961 0.392157 0.0941176 0.501961 0.392157 
0.0941176 0.501961 0.392157 0.0941176 0.501961 0.392157 
0.0941176 0.501961 0.392157 0.0941176 0.501961 0.392157 
0.0941176 0.501961 0.392157 0.0941176 0.501961 0.392157 
0.0941176 0.501961 0.392157 0.0941176 0.501961 0.392157 
0.0941176 0.501961 0.392157 0.0941176 0.501961 0.392157 
0.0941176 0.501961 0.392157 0.0941176 0.501961 0.392157 
0.0941176 0.501961 0.392157 0.0941176 0.501961 0.392157 
0.0941176 0.501961 0.392157 0.0941176 0.501961 0.392157 
0.0941176 0.501961 0.392157 0.0941176 0.501961 0.392157 
0.0941176 0.501961 0.392157 0.0941176 0.501961 0.392157 
0.0941176 0.501961 0.392157 0.0941176 0.501961 0.392157 
0.0941176 0.501961 0.392157 0.0941176 0.501961 0.392157 
0.0941176 0.501961 0.392157 0.0941176 0.501961 0.392157 
0.0941176 0.501961 0.392157 0.0941176 0.501961 0.392157 
0.0941176 0.501961 0.392157 0.0941176 0.501961 0.392157 
0.0941176 0.501961 0.392157 0.0941176 0.501961 0.392157 
0.0941176 0.501961 0.392157 0.0941176 0.501961 0.392157 
0.0941176 0.501961 0.392157 0.0941176 0.501961 0.392157 
0.0941176 0.501961 0.392157 0.0941176 0.501961 0.392157 
0.0941176 0.501961 0.392157 0.0941176 0.501961 0.392157 
0.0941176 0.501961 0.392157 0.0941176 0.501961 0.392157 
0.0941176 0.501961 0.392157 0.0941176 0.501961 0.392157 
0.0941176 0.501961 0.392157 0.0941176 0.501961 0.392157 
0.0941176 0.501961 0.392157 0.0941176 0.501961 0.392157 
0.0941176 0.501961 0.392157 0.0941176 0.501961 0.392157 
0.0941176 0.501961 0.392157 0.0941176 0.501961 0.392157 
0.0941176 0.501961 0.392157 0.0941176 0.501961 0.392157 
0.0941176 0.501961 0.392157 0.0941176 0.501961 0.392157 
0.0941176 0.501961 0.392157 0.0941176 0.501961 0.392157 
0.0941176 0.501961 0.392157 0.0941176 0.501961 0.392157 
0.0941176 0.501961 0.392157 0.0941176 0.501961 0.392157 
0.0941176 0.501961 0.392157 0.0941176 0.501961 0.392157 
0.0941176 0.501961 0.392157 0.0941176 0.501961 0.392157 
0.0941176 0.501961 0.392157 0.0941176 0.501961 0.392157 
0.0941176 0.501961 0.392157 0.0941176 0.501961 0.392157 
0.0941176 0.501961 0.392157 0.0941176 0.501961 0.392157 
0.0941176 0.501961 0.392157 0.0941176 0.501961 0.392157 
0.0941176 0.501961 0.392157 0.0941176 0.501961 0.392157 
0.0941176 0.501961 0.392157 0.0941176 0.501961 0.392157 
0.0941176 0.501961 0.392157 0.0941176 0.501961 0.392157 
0.0941176 0.501961 0.392157 0.0941176 0.501961 0.392157 
0.0941176 0.501961 0.392157 0.0941176 0.501961 0.392157 
0.0941176 0.501961 0.392157 0.0941176 0.501961 0.392157 
0.0941176 0.501961 0.392157 0.0941176 0.501961 0.392157 
0.0941176 0.501961 0.392157 0.0941176 0.501961 0.392157 
0.0941176 0.501961 0.392157 0.0941176 0.501961 0.392157 
0.0941176 0.501961 0.392157 0.0941176 0.501961 0.392157 
0.0941176 0.501961 0.392157 0.0941176 0.501961 0.392157 
0.0941176 0.501961 0.392157 0.0941176 0.501961 0.392157 
0.0941176 0.501961 0.392157 0.0941176 0.501961 0.392157 
0.0941176 0.501961 0.392157 0.0941176 0.501961 0.392157 
0.0941176 0.501961 0.392157 0.0941176 0.501961 0.392157 
0.0941176 0.501961 0.392157 0.0941176 0.501961 0.392157 
0.0941176 0.501961 0.392157 0.0941176 0.501961 0.392157 
0.0941176 0.501961 0.392157 0.0941176 0.501961 0.392157 
0.0941176 0.501961 0.392157 0.0941176 0.501961 0.392157 
0.0941176 0.501961 0.392157 0.0941176 0.501961 0.392157 
0.0941176 0.501961 0.392157 0.0941176 0.501961 0.392157 
0.0941176 0.501961 0.392157 0.0941176 0.501961 0.392157 
0.0941176 0.501961 0.392157 0.0941176 0.501961 0.392157 
0.0941176 0.501961 0.392157 0.0941176 0.501961 0.392157 
0.0941176 0.501961 0.392157 0.0941176 0.501961 0.392157 
0.0941176 0.501961 0.392157 0.0941176 0.501961 0.392157 
0.0941176 0.501961 0.392157 0.0941176 0.501961 0.392157 
0.0941176 0.501961 0.392157 0.0941176 0.501961 0.392157 
0.0941176 0.501961 0.392157 0.0941176 0.501961 0.392157 
0.0941176 0.501961 0.392157 0.0941176 0.501961 0.392157 
0.0941176 0.501961 0.392157 0.0941176 0.501961 0.392157 
0.0941176 0.501961 0.392157 0.0941176 0.501961 0.392157 
0.0941176 0.501961 0.392157 0.0941176 0.501961 0.392157 
0.0941176 0.501961 0.392157 0.0941176 0.501961 0.392157 
0.0941176 0.501961 0.392157 0.0941176 0.501961 0.392157 
0.0941176 0.501961 0.392157 0.0941176 0.501961 0.392157 
0.0941176 0.501961 0.392157 0.0941176 0.501961 0.392157 
0.0941176 0.501961 0.392157 0.0941176 0.501961 0.392157 
0.0941176 0.501961 0.392157 0.0941176 0.501961 0.392157 
0.0941176 0.501961 0.392157 0.0941176 0.501961 0.392157 
0.0941176 0.501961 0.392157 0.0941176 0.501961 0.392157 
0.0941176 0.501961 0.392157 0.0941176 0.501961 0.392157 
0.0941176 0.501961 0.392157 0.0941176 0.501961 0.392157 
0.0941176 0.501961 0.392157 0.0941176 0.501961 0.392157 
0.0941176 0.501961 0.392157 0.0941176 0.501961 0.392157 
0.0941176 0.501961 0.392157 0.0941176 0.501961 0.392157 
0.0941176 0.501961 0.392157 0.0941176 0.501961 0.392157 
0.0941176 0.501961 0.392157 0.0941176 0.501961 0.392157 
0.0941176 0.501961 0.392157 0.0941176 0.501961 0.392157 
0.0941176 0.501961 0.392157 0.0941176 0.501961 0.392157 
0.0941176 0.501961 0.392157 0.0941176 0.501961 0.392157 
0.0941176 0.501961 0.392157 0.0941176 0.501961 0.392157 
0.0941176 0.501961 0.392157 0.0941176 0.501961 0.392157 
0.0941176 0.501961 0.392157 0.0941176 0.501961 0.392157 
0.0941176 0.501961 0.392157 0.0941176 0.501961 0.392157 
0.0941176 0.501961 0.392157 0.0941176 0.501961 0.392157 
0.0941176 0.501961 0.392157 0.0941176 0.501961 0.392157 
0.0941176 0.501961 0.392157 0.0941176 0.501961 0.392157 
0.0941176 0.501961 0.392157 0.0941176 0.501961 0.392157 
0.0941176 0.501961 0.392157 0.0941176 0.501961 0.392157 
0.0941176 0.501961 0.392157 0.0941176 0.501961 0.392157 
0.0941176 0.501961 0.392157 0.0941176 0.501961 0.392157 
0.0941176 0.501961 0.392157 0.0941176 0.501961 0.392157 
0.0941176 0.501961 0.392157 0.0941176 0.501961 0.392157 
0.0941176 0.501961 0.392157 0.0941176 0.501961 0.392157 
0.0941176 0.501961 0.392157 0.0941176 0.501961 0.392157 
0.0941176 0.501961 0.392157 0.0941176 0.501961 0.392157 
0.0941176 0.501961 0.392157 0.0941176 0.501961 0.392157 
0.0941176 0.501961 0.392157 0.0941176 0.501961 0.392157 
0.0941176 0.501961 0.392157 0.0941176 0.501961 0.392157 
0.0941176 0.501961 0.392157 0.0941176 0.501961 0.392157 
0.0941176 0.501961 0.392157 0.0941176 0.501961 0.392157 
0.0941176 0.501961 0.392157 0.0941176 0.501961 0.392157 
0.0941176 0.501961 0.392157 0.0941176 0.501961 0.392157 
0.0941176 0.501961 0.392157 0.0941176 0.501961 0.392157 
0.0941176 0.501961 0.392157 0.0941176 0.501961 0.392157 
0.0941176 0.501961 0.392157 0.0941176 0.501961 0.392157 
0.0941176 0.501961 0.392157 0.0941176 0.501961 0.392157 
0.0941176 0.501961 0.392157 0.0941176 0.501961 0.392157 
0.0941176 0.501961 0.392157 0.0941176 0.501961 0.392157 
0.0941176 0.501961 0.392157 0.0941176 0.501961 0.392157 
0.0941176 0.501961 0.392157 0.0941176 0.501961 0.392157 
0.0941176 0.501961 0.392157 0.0941176 0.501961 0.392157 
0.0941176 0.501961 0.392157 0.0941176 0.501961 0.392157 
0.0941176 0.501961 0.392157 0.0941176 0.501961 0.392157 
0.0941176 0.501961 0.392157 0.0941176 0.501961 0.392157 
0.0941176 0.501961 0.392157 0.0941176 0.501961 0.392157 
0.0941176 0.501961 0.392157 0.0941176 0.501961 0.392157 
0.0941176 0.501961 0.392157 0.0941176 0.501961 0.392157 
0.0941176 0.501961 0.392157 0.0941176 0.501961 0.392157 
0.0941176 0.501961 0.392157 0.0941176 0.501961 0.392157 
0.0941176 0.501961 0.392157 0.0941176 0.501961 0.392157 
0.0941176 0.501961 0.392157 0.0941176 0.501961 0.392157 
0.0941176 0.501961 0.392157 0.0941176 0.501961 0.392157 
0.0941176 0.501961 0.392157 0.0941176 0.501961 0.392157 
0.0941176 0.501961 0.392157 0.0941176 0.501961 0.392157 
0.0941176 0.501961 0.392157 0.0941176 0.501961 0.392157 
0.0941176 0.501961 0.392157 0.0941176 0.501961 0.392157 
0.0941176 0.501961 0.392157 0.0941176 0.501961 0.392157 
0.0941176 0.501961 0.392157 0.0941176 0.501961 0.392157 
0.0941176 0.501961 0.392157 0.0941176 0.501961 0.392157 
0.0941176 0.501961 0.392157 0.0941176 0.501961 0.392157 
0.0941176 0.501961 0.392157 0.0941176 0.501961 0.392157 
0.0941176 0.501961 0.392157 0.0941176 0.501961 0.392157 
0.0941176 0.501961 0.392157 0.0941176 0.501961 0.392157 
0.0941176 0.501961 0.392157 0.0941176 0.501961 0.392157 
0.0941176 0.501961 0.392157 0.0941176 0.501961 0.392157 
0.0941176 0.501961 0.392157 0.0941176 0.501961 0.392157 
0.0941176 0.501961 0.392157 0.0941176 0.501961 0.392157 
0.0941176 0.501961 0.392157 0.0941176 0.501961 0.392157 
0.0941176 0.501961 0.392157 0.0941176 0.501961 0.392157 
0.0941176 0.501961 0.392157 0.0941176 0.501961 0.392157 
0.0941176 0.501961 0.392157 0.0941176 0.501961 0.392157 
0.0941176 0.501961 0.392157 0.0941176 0.501961 0.392157 
0.0941176 0.501961 0.392157 0.0941176 0.501961 0.392157 
0.0941176 0.501961 0.392157 0.0941176 0.501961 0.392157 
0.0941176 0.501961 0.392157 0.0941176 0.501961 0.392157 
0.0941176 0.501961 0.392157 0.0941176 0.501961 0.392157 
0.0941176 0.501961 0.392157 0.0941176 0.501961 0.392157 
0.0941176 0.501961 0.392157 0.0941176 0.501961 0.392157 
0.0941176 0.501961 0.392157 0.0941176 0.501961 0.392157 
0.0941176 0.501961 0.392157 0.0941176 0.501961 0.392157 
0.0941176 0.501961 0.392157 0.0941176 0.501961 0.392157 
0.0941176 0.501961 0.392157 0.0941176 0.501961 0.392157 
0.0941176 0.501961 0.392157 0.0941176 0.501961 0.392157 
0.0941176 0.501961 0.392157 0.0941176 0.501961 0.392157 
0.0941176 0.501961 0.392157 0.0941176 0.501961 0.392157 
0.0941176 0.501961 0.392157 0.0941176 0.501961 0.392157 
0.0941176 0.501961 0.392157 0.0941176 0.501961 0.392157 
0.0941176 0.501961 0.392157 0.0941176 0.501961 0.392157 
0.0941176 0.501961 0.392157 0.0941176 0.501961 0.392157 
0.0941176 0.501961 0.392157 0.0941176 0.501961 0.392157 
0.0941176 0.501961 0.392157 0.0941176 0.501961 0.392157 
0.0941176 0.501961 0.392157 0.0941176 0.501961 0.392157 
0.0941176 0.501961 0.392157 0.0941176 0.501961 0.392157 
0.0941176 0.501961 0.392157 0.0941176 0.501961 0.392157 
0.0941176 0.501961 0.392157 0.0941176 0.501961 0.392157 
0.0941176 0.501961 0.392157 0.0941176 0.501961 0.392157 
0.0941176 0.501961 0.392157 0.0941176 0.501961 0.392157 
0.0941176 0.501961 0.392157 0.0941176 0.501961 0.392157 
0.0941176 0.501961 0.392157 0.0941176 0.501961 0.392157 
0.0941176 0.501961 0.392157 0.0941176 0.501961 0.392157 
0.0941176 0.501961 0.392157 0.0941176 0.501961 0.392157 
0.0941176 0.501961 0.392157 0.0941176 0.501961 0.392157 
0.0941176 0.501961 0.392157 0.0941176 0.501961 0.392157 
0.0941176 0.501961 0.392157 0.0941176 0.501961 0.392157 
0.0941176 0.501961 0.392157 0.0941176 0.501961 0.392157 
0.0941176 0.501961 0.392157 0.0941176 0.501961 0.392157 
0.0941176 0.501961 0.392157 0.0941176 0.501961 0.392157 
0.0941176 0.501961 0.392157 0.0941176 0.501961 0.392157 
0.0941176 0.501961 0.392157 0.0941176 0.501961 0.392157 
0.0941176 0.501961 0.392157 0.0941176 0.501961 0.392157 
0.0941176 0.501961 0.392157 0.0941176 0.501961 0.392157 
0.0941176 0.501961 0.392157 0.0941176 0.501961 0.392157 
0.0941176 0.501961 0.392157 0.0941176 0.501961 0.392157 
0.0941176 0.501961 0.392157 0.0941176 0.501961 0.392157 
0.0941176 0.501961 0.392157 0.0941176 0.501961 0.392157 
0.0941176 0.501961 0.392157 0.0941176 0.501961 0.392157 
0.0941176 0.501961 0.392157 0.0941176 0.501961 0.392157 
0.0941176 0.501961 0.392157 0.0941176 0.501961 0.392157 
0.0941176 0.501961 0.392157 0.0941176 0.501961 0.392157 
0.0941176 0.501961 0.392157 0.0941176 0.501961 0.392157 
0.0941176 0.501961 0.392157 0.0941176 0.501961 0.392157 
0.0941176 0.501961 0.392157 0.0941176 0.501961 0.392157 
0.0941176 0.501961 0.392157 0.0941176 0.501961 0.392157 
0.0941176 0.501961 0.392157 0.0941176 0.501961 0.392157 
0.0941176 0.501961 0.392157 0.0941176 0.501961 0.392157 
0.0941176 0.501961 0.392157 0.0941176 0.501961 0.392157 
0.0941176 0.501961 0.392157 0.0941176 0.501961 0.392157 
0.0941176 0.501961 0.392157 0.0941176 0.501961 0.392157 
0.0941176 0.501961 0.392157 0.0941176 0.501961 0.392157 
0.0941176 0.501961 0.392157 0.0941176 0.501961 0.392157 
0.0941176 0.501961 0.392157 0.0941176 0.501961 0.392157 
0.0941176 0.501961 0.392157 0.0941176 0.501961 0.392157 
0.0941176 0.501961 0.392157 0.0941176 0.501961 0.392157 
0.0941176 0.501961 0.392157 0.0941176 0.501961 0.392157 
0.0941176 0.501961 0.392157 0.0941176 0.501961 0.392157 