# vtk DataFile Version 4.2
vtk output
ASCII
DATASET POLYDATA
POINTS 1041 float
281.261 42.7967 124.981 281.125 42.9371 124.954 281.38 42.7135 125.085 
277.332 43.4563 124.52 277.653 43.4881 124.482 281.336 42.9224 125.03 
276.362 44.1543 124.371 276.4 44.0434 124.4 276.249 44.1062 124.451 
276.511 44.1367 124.388 276.316 44.3662 124.43 280.62 43.0408 124.928 
281.436 42.5964 125.121 281.274 42.54 125.212 281.443 42.5683 125.187 
276.508 43.8155 124.572 281.179 43.3168 125.014 281.541 42.9343 125.339 
281.483 42.6561 125.185 274.894 44.3353 124.967 276.998 44.3447 124.39 
278.659 44.1498 124.466 281.583 43.4377 125.286 277.08 44.8294 124.381 
276.537 45.3554 124.525 277.646 45.3893 124.514 278.911 42.5148 125.274 
280.98 42.3023 125.675 281.417 42.5709 125.409 281.547 42.5499 126.095 
274.765 43.3774 125.553 276.6 42.7026 125.429 281.785 43.0565 125.783 
281.957 43.8926 125.904 271.692 45.2088 126.141 271.324 45.5157 126.339 
271.481 45.935 126.123 281.711 45.1858 126 271.636 46.042 126.09 
275.558 46.8888 125.383 279.9 46.1352 125.334 281.364 45.5044 125.788 
284.004 47.0131 125.009 284.004 47.0131 125.009 284.004 47.0131 125.009 
284.004 47.0131 125.009 284.004 47.0131 125.009 277.565 47.1371 125.755 
281.286 41.9811 126.787 270.733 44.848 126.902 270.667 45.0452 126.903 
282.006 44.7461 126.562 271.401 46.0701 126.326 281.978 45.2112 126.32 
281.94 45.3602 126.252 282.012 45.3457 126.348 281.749 45.5251 126.347 
281.965 45.4085 126.354 284.004 47.0131 125.009 278.915 46.8316 125.737 
280.062 46.5844 126.135 281.027 46.0991 126.388 271.807 47.6559 126.98 
271.551 47.7226 127.347 276.327 47.5035 125.98 277.104 47.447 126.065 
278.797 47.0241 126.107 279.451 46.9164 126.404 279.778 41.4497 126.806 
273.36 43.0948 126.613 270.759 44.5604 127.09 270.258 45.4216 127.44 
281.939 45.3045 126.55 279.155 47.1344 127.489 272.614 48.1979 127.027 
276.826 47.8254 126.906 272.241 48.3941 127.756 273.237 48.5255 127.397 
272.596 48.4863 127.547 279.277 40.7474 128.43 281.825 42.4085 128.213 
269.743 44.7236 128.548 282.125 43.47 128.188 269.795 45.2457 128.192 
269.971 45.458 127.864 282.033 44.4863 127.844 279.854 46.7648 128.165 
274.346 48.4902 127.985 272.265 48.4644 128.173 273.255 48.6098 127.661 
280.549 40.8428 129.579 281.789 42.4514 129.009 281.775 44.7207 128.644 
269.574 45.7816 128.834 281.127 45.5216 129.024 269.891 46.5708 128.829 
279.014 46.9472 128.945 274.742 48.274 128.902 280.652 40.8147 130.535 
274.603 40.8033 129.768 271.52 41.9607 129.728 281.751 42.9516 130.033 
268.409 44.5285 130.993 281.95 43.8001 129.126 272.925 48.2155 130.007 
277.172 39.9599 130.55 281.562 43.0573 130.792 281.137 44.4034 130.852 
269.942 47.3369 130.82 270.456 47.7258 130.736 267.647 43.4755 132.504 
268.378 45.5647 131.687 271.056 47.6103 131.907 281 41.6672 133.073 
267.222 43.1854 133.533 267.403 44.3225 132.97 279.055 39.0778 134.172 
280.313 40.1356 133.604 279.992 43.5302 134.356 280.633 43.4059 133.337 
267.35 44.8554 133.552 267.76 45.4824 133.449 280.462 40.388 134.484 
268.063 41.0411 134.96 280.602 41.2452 134.786 267.063 42.3117 134.596 
266.33 42.8433 135.613 280.738 42.5212 133.877 266.767 44.4111 134.904 
270.149 46.5408 135.317 268.625 46.3853 134.805 269.752 46.8644 134.024 
277.716 38.2619 135.539 278.857 38.4296 136.218 274.693 38.3201 136.046 
268.105 40.4191 136.124 266.528 44.015 135.282 266.373 44.4692 136.312 
266.653 44.7906 135.977 267.03 45.255 136.171 267.864 45.8447 135.75 
270.745 46.2685 136.008 278.429 37.8934 137.441 279.244 38.4622 137.407 
279.822 39.3058 137.222 266.76 40.8512 137.073 265.876 43.0136 136.743 
278.84 43.2005 136.423 267.475 45.6744 136.644 278.923 38.1143 137.925 
267.646 39.9467 137.648 279.813 39.7789 138.012 265.509 41.6869 138.166 
279.008 38.2018 139.251 279.354 38.6344 138.768 264.929 41.4441 139.385 
278.857 41.1911 139.462 264.881 42.2113 139.293 265.512 43.8911 138.806 
268.584 45.544 138.43 278.559 37.7911 139.965 279.315 39.9271 139.788 
276.409 36.7598 141.032 278.475 37.7321 140.893 271.836 37.5744 140.09 
279.142 38.7281 140.381 279.153 39.3009 140.693 264.77 40.0221 141.418 
264.457 40.4994 141.212 264.381 40.8965 140.974 264.195 40.7034 141.491 
264.059 41.0797 141.583 277.885 37.203 141.697 263.72 41.7887 142.595 
273.668 42.693 142.272 264.444 43.2336 142.677 266.566 44.5253 141.122 
264.519 38.9881 143.595 263.679 40.5584 143.053 278.251 39.7786 143.056 
278 37.1811 144.406 263.988 39.4512 143.669 276.203 41.104 143.588 
277.102 40.2439 144.27 263.269 42.0395 144.424 264.224 43.1547 144.101 
270.067 36.2371 145.319 277.936 37.2413 145.202 262.427 39.4237 146.243 
262.303 39.8038 146.149 277.992 38.9237 144.717 262.424 40.0751 145.811 
262.727 40.8261 145.184 263.641 42.7178 144.636 277.78 37.7165 146.081 
262.187 39.226 146.917 262.604 39.0019 146.432 263.149 38.5775 146.249 
262.949 41.931 145.824 263.263 42.3396 145.792 266.955 43.1682 145.675 
263.694 42.7629 145.045 277.483 37.8858 146.811 277.009 38.3428 147.503 
261.954 40.1512 146.896 263.773 42.669 146.317 264.795 43.0585 145.95 
274.865 34.8094 148.311 277.18 36.2338 147.356 261.569 39.3571 148.342 
276.285 35.1193 148.922 275.395 34.7982 148.975 276.667 35.6643 148.874 
277.101 36.5928 148.331 261.664 38.1348 149.449 261.364 38.5595 149.315 
261.281 38.9329 149.15 261.112 38.7287 149.633 264.197 42.2722 148.798 
274.793 34.4207 149.891 275.938 34.9515 149.615 276.567 36.1636 150.096 
262.697 37.0869 149.866 276.885 36.6784 149.18 276.862 37.2098 149.19 
267.754 41.3888 150.214 265.939 41.8671 150.017 262.578 41.7201 149.616 
276.627 37.356 149.669 264.583 41.9534 150.279 274.864 33.8597 152.617 
275.04 37.8464 151.876 273.628 38.6934 151.986 260.485 39.8621 151.289 
259.841 38.8531 152.837 259.588 38.8503 153.549 259.465 37.5993 154.468 
259.897 36.8064 154.81 260.909 36.2951 154.27 259.292 37.967 154.498 
260.27 40.3312 152.795 261.748 41.2446 153.322 262.094 35.7114 154.212 
275.218 35.7939 155.085 259.087 38.1257 154.92 271.149 32.9264 155.624 
273.188 32.8647 155.922 274.601 33.565 155.922 275.263 34.7482 155.647 
259.263 36.4909 156.507 274.619 36.0314 156.401 258.889 38.6025 155.763 
259.969 40.1466 154.93 262.096 40.7792 155.424 273.601 32.7532 157.008 
274.116 32.9282 157.729 274.917 33.9961 156.719 258.209 37.3101 157.719 
273.573 36.4324 157.487 258.387 37.997 157.287 258.797 38.7763 156.418 
258.949 39.1084 156.642 260.514 40.3102 156.188 273.767 32.5898 158.375 
274.649 33.7804 158.148 274.818 34.336 157.644 274.754 34.9551 157.558 
274.291 35.6748 157.818 258.172 36.6957 158.404 272.269 37.117 157.472 
258.344 38.6156 158.333 258.726 39.0476 158.309 259.27 39.4406 158.128 
274.129 32.782 159.182 274.395 33.2395 158.957 257.901 36.7021 159.174 
273.157 31.8581 160.506 273.077 31.9149 160.028 273.53 32.0925 160.496 
274.296 33.3284 159.917 274.238 34.6509 159.324 257.365 37.2751 160.428 
257.748 37.9273 159.516 258.497 39.0307 160.322 272.732 31.6443 161.111 
273.735 32.3359 161.362 274.139 32.8795 160.426 273.994 32.737 161.126 
257.162 35.6714 161.576 273.545 34.7721 160.618 256.919 35.8475 161.713 
256.756 36.0437 161.854 257.005 37.3301 161.28 257.858 38.5254 160.454 
257.97 38.8378 161.176 258.23 39.0341 160.921 258.157 39.0181 161.096 
258.243 39.0653 161.05 256.375 35.7084 162.794 257.942 34.6954 162.142 
273.205 34.1952 162.269 255.95 36.3806 163.176 270.861 35.7632 162.232 
257.773 38.7905 161.709 258.138 38.8749 161.873 258.272 39.02 161.225 
273.414 32.3172 162.971 273.834 32.9286 162.035 273.747 33.2817 162.166 
272.027 35.0059 162.599 255.608 36.6131 163.876 259.434 38.8921 162.549 
272.719 31.5697 163.366 273.28 32.4221 163.648 255.854 34.8845 164.818 
255.232 35.9664 164.618 255.418 36.9856 164.531 257.295 38.4319 163.688 
271.858 30.901 165.516 271.75 30.892 164.937 272.583 31.5064 164.455 
272.951 32.0502 164.526 254.93 35.1655 166.023 254.856 35.5717 165.655 
254.881 36.355 165.277 255.298 37.3093 165.419 271.392 30.6795 166.114 
271.07 30.6156 165.631 272.184 31.1951 166.398 269.582 30.4921 165.696 
272.768 31.9531 165.328 254.381 36.2241 166.369 254.664 36.4913 165.84 
271.534 30.7455 166.859 271.914 30.9516 166.769 272.032 31.1145 166.998 
272.648 32.0818 165.817 272.344 31.9852 166.665 254.098 35.4396 167.285 
253.996 35.7713 167.234 254.198 36.4443 166.855 254.348 36.8235 166.971 
255.539 37.6487 166.811 268.404 30.3 167.645 253.805 36.0075 167.605 
254.253 37.1038 167.942 254.747 37.3435 167.697 267.557 30.253 168.647 
271.768 31.2715 168.167 271.756 31.4996 168.4 256.95 32.8811 168.909 
253.029 36.0889 169.279 255.249 37.4988 168.6 256.304 37.523 168.742 
269.735 30.2211 169.999 270.671 30.5533 169.53 271.563 31.6007 168.865 
270.574 32.8265 169.299 252.251 35.3641 170.735 252.914 36.4412 170.211 
268.586 30.0114 171.245 270.694 30.7957 170.524 252.189 35.6229 170.795 
252.571 36.2922 170.617 252.004 38.0131 171.009 252.004 38.0131 171.009 
252.004 38.0131 171.009 252.004 38.0131 171.009 252.004 38.0131 171.009 
269.117 30.0842 171.761 270.619 31.5513 170.985 268.561 32.5307 172.228 
269.915 31.9645 171.523 251.841 34.7118 172.548 252.046 35.784 171.307 
251.907 36.0028 172.064 252.004 38.0131 171.009 253.198 36.6628 172.147 
254.105 36.8406 171.524 269.877 30.5063 172.085 269.612 30.5068 173.007 
270.035 30.8402 172.211 268.92 31.9464 172.81 268.987 31.5625 173.258 
251.818 36.1829 172.705 251.649 36.191 173.35 253.37 36.5042 173.431 
252.083 36.3652 172.781 269.528 30.3864 173.416 269.358 30.2757 173.513 
269.458 30.361 173.593 269.427 30.7325 173.461 256.081 36.1329 173.474 
251.134 35.957 174.315 268.639 29.8293 174.714 269.267 30.3781 173.893 
268.625 30.5095 174.987 264.943 32.6878 174.924 250.082 35.4734 175.8 
250.518 35.8367 175.382 250.775 36.0003 174.989 250.679 35.9957 175.194 
250.766 36.0361 175.111 268.419 29.7768 175.276 268.553 29.9872 175.38 
267.466 30.7112 175.986 266.623 31.3598 175.815 250.105 34.5973 175.961 
249.775 34.9946 176.314 250.793 35.9992 175.311 250.044 35.7301 176.146 
[...]
POINT_DATA 1041
COLOR_SCALARS scalars 3
0.0941176 0.501961 0.392157 0.0941176 0.501961 0.392157 0.0941176 0.501961 0.392157 
0.0941176 0.501961 0.392157 0.0941176 0.501961 0.392157 
0.0941176 0.501961 0.392157 0.0941176 0.501961 0.392157 
0.0941176 0.501961 0.392157 0.0941176 0.501961 0.392157 
0.0941176 0.501961 0.392157 0.0941176 0.501961 0.392157 
0.0941176 0.501961 0.392157 0.0941176 0.501961 0.392157 
0.0941176 0.501961 0.392157 0.0941176 0.501961 0.392157 
0.0941176 0.501961 0.392157 0.0941176 0.501961 0.392157 
0.0941176 0.501961 0.392157 0.0941176 0.501961 0.392157 
0.0941176 0.501961 0.392157 0.0941176 0.501961 0.392157 
0.0941176 0.501961 0.392157 0.0941176 0.501961 0.392157 
0.0941176 0.501961 0.392157 0.0941176 0.501961 0.392157 
0.0941176 0.501961 0.392157 0.0941176 0.501961 0.392157 
0.0941176 0.501961 0.392157 0.0941176 0.501961 0.392157 
0.0941176 0.501961 0.392157 0.0941176 0.501961 0.392157 
0.0941176 0.501961 0.392157 0.0941176 0.501961 0.392157 
0.0941176 0.501961 0.392157 0.0941176 0.501961 0.392157 
0.0941176 0.501961 0.392157 0.0941176 0.501961 0.392157 
0.0941176 0.501961 0.392157 0.0941176 0.501961 0.392157 
0.0941176 0.501961 0.392157 0.0941176 0.501961 0.392157 
0.0941176 0.501961 0.392157 0.0941176 0.501961 0.392157 
0.0941176 0.501961 0.392157 0.0941176 0.501961 0.392157 
0.0941176 0.501961 0.392157 0.0941176 0.501961 0.392157 
0.0941176 0.501961 0.392157 0.0941176 0.501961 0.392157 
0.0941176 0.501961 0.392157 0.0941176 0.501961 0.392157 
0.0941176 0.501961 0.392157 0.0941176 0.501961 0.392157 
0.0941176 0.501961 0.392157 0.0941176 0.501961 0.392157 
0.0941176 0.501961 0.392157 0.0941176 0.501961 0.392157 
0.0941176 0.501961 0.392157 0.0941176 0.501961 0.392157 
0.0941176 0.501961 0.392157 0.0941176 0.501961 0.392157 
0.0941176 0.501961 0.392157 0.0941176 0.501961 0.392157 
0.0941176 0.501961 0.392157 0.0941176 0.501961 0.392157 
0.0941176 0.501961 0.392157 0.0941176 0.501961 0.392157 
0.0941176 0.501961 0.392157 0.0941176 0.501961 0.392157 
0.0941176 0.501961 0.392157 0.0941176 0.501961 0.392157 
0.0941176 0.501961 0.392157 0.0941176 0.501961 0.392157 
0.0941176 0.501961 0.392157 0.0941176 0.501961 0.392157 
0.0941176 0.501961 0.392157 0.0941176 0.501961 0.392157 
0.0941176 0.501961 0.392157 0.0941176 0.501961 0.392157 
0.0941176 0.501961 0.392157 0.0941176 0.501961 0.392157 
0.0941176 0.501961 0.392157 0.0941176 0.501961 0.392157 
0.0941176 0.501961 0.392157 0.0941176 0.501961 0.392157 
0.0941176 0.501961 0.392157 0.0941176 0.501961 0.392157 
0.0941176 0.501961 0.392157 0.0941176 0.501961 0.392157 
0.0941176 0.501961 0.392157 0.0941176 0.501961 0.392157 
0.0941176 0.501961 0.392157 0.0941176 0.501961 0.392157 
0.0941176 0.501961 0.392157 0.0941176 0.501961 0.392157 
0.0941176 0.501961 0.392157 0.0941176 0.501961 0.392157 
0.0941176 0.501961 0.392157 0.0941176 0.501961 0.392157 
0.0941176 0.501961 0.392157 0.0941176 0.501961 0.392157 
0.0941176 0.501961 0.392157 0.0941176 0.501961 0.392157 
0.0941176 0.501961 0.392157 0.0941176 0.501961 0.392157 
0.0941176 0.501961 0.392157 0.0941176 0.501961 0.392157 
0.0941176 0.501961 0.392157 0.0941176 0.501961 0.392157 
0.0941176 0.501961 0.392157 0.0941176 0.501961 0.392157 
0.0941176 0.501961 0.392157 0.0941176 0.501961 0.392157 
0.0941176 0.501961 0.392157 0.0941176 0.501961 0.392157 
0.0941176 0.501961 0.392157 0.0941176 0.501961 0.392157 
0.0941176 0.501961 0.392157 0.0941176 0.501961 0.392157 
0.0941176 0.501961 0.392157 0.0941176 0.501961 0.392157 
0.0941176 0.501961 0.392157 0.0941176 0.501961 0.392157 
0.0941176 0.501961 0.392157 0.0941176 0.501961 0.392157 
0.0941176 0.501961 0.392157 0.0941176 0.501961 0.392157 
0.0941176 0.501961 0.392157 0.0941176 0.501961 0.392157 
0.0941176 0.501961 0.392157 0.0941176 0.501961 0.392157 
0.0941176 0.501961 0.392157 0.0941176 0.501961 0.392157 
0.0941176 0.501961 0.392157 0.0941176 0.501961 0.392157 
0.0941176 0.501961 0.392157 0.0941176 0.501961 0.392157 
0.0941176 0.501961 0.392157 0.0941176 0.501961 0.392157 
0.0941176 0.501961 0.392157 0.0941176 0.501961 0.392157 
0.0941176 0.501961 0.392157 0.0941176 0.501961 0.392157 
0.0941176 0.501961 0.392157 0.0941176 0.501961 0.392157 
0.0941176 0.501961 0.392157 0.0941176 0.501961 0.392157 
0.0941176 0.501961 0.392157 0.0941176 0.501961 0.392157 
0.0941176 0.501961 0.392157 0.0941176 0.501961 0.392157 
0.0941176 0.501961 0.392157 0.0941176 0.501961 0.392157 
0.0941176 0.501961 0.392157 0.0941176 0.501961 0.392157 
0.0941176 0.501961 0.392157 0.0941176 0.501961 0.392157 
0.0941176 0.501961 0.392157 0.0941176 0.501961 0.392157 
0.0941176 0.501961 0.392157 0.0941176 0.501961 0.392157 
0.0941176 0.501961 0.392157 0.0941176 0.501961 0.392157 
0.0941176 0.501961 0.392157 0.0941176 0.501961 0.392157 
0.0941176 0.501961 0.392157 0.0941176 0.501961 0.392157 
0.0941176 0.501961 0.392157 0.0941176 0.501961 0.392157 
0.0941176 0.501961 0.392157 0.0941176 0.501961 0.392157 
0.0941176 0.501961 0.392157 0.0941176 0.501961 0.392157 
0.0941176 0.501961 0.392157 0.0941176 0.501961 0.392157 
0.0941176 0.501961 0.392157 0.0941176 0.501961 0.392157 
0.0941176 0.501961 0.392157 0.0941176 0.501961 0.392157 
0.0941176 0.501961 0.392157 0.0941176 0.501961 0.392157 
0.0941176 0.501961 0.392157 0.0941176 0.501961 0.392157 
0.0941176 0.501961 0.392157 0.0941176 0.501961 0.392157 
0.0941176 0.501961 0.392157 0.0941176 0.501961 0.392157 
0.0941176 0.501961 0.392157 0.0941176 0.501961 0.392157 
0.0941176 0.501961 0.392157 0.0941176 0.501961 0.392157 
0.0941176 0.501961 0.392157 0.0941176 0.501961 0.392157 
0.0941176 0.501961 0.392157 0.0941176 0.501961 0.392157 
0.0941176 0.501961 0.392157 0.0941176 0.501961 0.392157 
0.0941176 0.501961 0.392157 0.0941176 0.501961 0.392157 
0.0941176 0.501961 0.392157 0.0941176 0.501961 0.392157 
0.0941176 0.501961 0.392157 0.0941176 0.501961 0.392157 
0.0941176 0.501961 0.392157 0.0941176 0.501961 0.392157 
0.0941176 0.501961 0.392157 0.0941176 0.501961 0.392157 
0.0941176 0.501961 0.392157 0.0941176 0.501961 0.392157 
0.0941176 0.501961 0.392157 0.0941176 0.501961 0.392157 
0.0941176 0.501961 0.392157 0.0941176 0.501961 0.392157 
0.0941176 0.501961 0.392157 0.0941176 0.501961 0.392157 
0.0941176 0.501961 0.392157 0.0941176 0.501961 0.392157 
0.0941176 0.501961 0.392157 0.0941176 0.501961 0.392157 
0.0941176 0.501961 0.392157 0.0941176 0.501961 0.392157 
0.0941176 0.501961 0.392157 0.0941176 0.501961 0.392157 
0.0941176 0.501961 0.392157 0.0941176 0.501961 0.392157 
0.0941176 0.501961 0.392157 0.0941176 0.501961 0.392157 
0.0941176 0.501961 0.392157 0.0941176 0.501961 0.392157 
0.0941176 0.501961 0.392157 0.0941176 0.501961 0.392157 
0.0941176 0.501961 0.392157 0.0941176 0.501961 0.392157 
0.0941176 0.501961 0.392157 0.0941176 0.501961 0.392157 
0.0941176 0.501961 0.392157 0.0941176 0.501961 0.392157 
0.0941176 0.501961 0.392157 0.0941176 0.501961 0.392157 
0.0941176 0.501961 0.392157 0.0941176 0.501961 0.392157 
0.0941176 0.501961 0.392157 0.0941176 0.501961 0.392157 
0.0941176 0.501961 0.392157 0.0941176 0.501961 0.392157 
0.0941176 0.501961 0.392157 0.0941176 0.501961 0.392157 
0.0941176 0.501961 0.392157 0.0941176 0.501961 0.392157 
0.0941176 0.501961 0.392157 0.0941176 0.501961 0.392157 
0.0941176 0.501961 0.392157 0.0941176 0.501961 0.392157 
0.0941176 0.501961 0.392157 0.0941176 0.501961 0.392157 
0.0941176 0.501961 0.392157 0.0941176 0.501961 0.392157 
0.0941176 0.501961 0.392157 0.0941176 0.501961 0.392157 
0.0941176 0.501961 0.392157 0.0941176 0.501961 0.392157 
0.0941176 0.501961 0.392157 0.0941176 0.501961 0.392157 
0.0941176 0.501961 0.392157 0.0941176 0.501961 0.392157 
0.0941176 0.501961 0.392157 0.0941176 0.501961 0.392157 
0.0941176 0.501961 0.392157 0.0941176 0.501961 0.392157 
0.0941176 0.501961 0.392157 0.0941176 0.501961 0.392157 
0.0941176 0.501961 0.392157 0.0941176 0.501961 0.392157 
0.0941176 0.501961 0.392157 0.0941176 0.501961 0.392157 
0.0941176 0.501961 0.392157 0.0941176 0.501961 0.392157 
0.0941176 0.501961 0.392157 0.0941176 0.501961 0.392157 
0.0941176 0.501961 0.392157 0.0941176 0.501961 0.392157 
0.0941176 0.501961 0.392157 0.0941176 0.501961 0.392157 
0.0941176 0.501961 0.392157 0.0941176 0.501961 0.392157 
0.0941176 0.501961 0.392157 0.0941176 0.501961 0.392157 
0.0941176 0.501961 0.392157 0.0941176 0.501961 0.392157 
0.0941176 0.501961 0.392157 0.0941176 0.501961 0.392157 
0.0941176 0.501961 0.392157 0.0941176 0.501961 0.392157 
0.0941176 0.501961 0.392157 0.0941176 0.501961 0.392157 
0.0941176 0.501961 0.392157 0.0941176 0.501961 0.392157 
0.0941176 0.501961 0.392157 0.0941176 0.501961 0.392157 
0.0941176 0.501961 0.392157 0.0941176 0.501961 0.392157 
0.0941176 0.501961 0.392157 0.0941176 0.501961 0.392157 
0.0941176 0.501961 0.392157 0.0941176 0.501961 0.392157 
0.0941176 0.501961 0.392157 0.0941176 0.501961 0.392157 
0.0941176 0.501961 0.392157 0.0941176 0.501961 0.392157 
0.0941176 0.501961 0.392157 0.0941176 0.501961 0.392157 
0.0941176 0.501961 0.392157 0.0941176 0.501961 0.392157 
0.0941176 0.501961 0.392157 0.0941176 0.501961 0.392157 
0.0941176 0.501961 0.392157 0.0941176 0.501961 0.392157 
0.0941176 0.501961 0.392157 0.0941176 0.501961 0.392157 
0.0941176 0.501961 0.392157 0.0941176 0.501961 0.392157 
0.0941176 0.501961 0.392157 0.0941176 0.501961 0.392157 
0.0941176 0.501961 0.392157 0.0941176 0.501961 0.392157 
0.0941176 0.501961 0.392157 0.0941176 0.501961 0.392157 
0.0941176 0.501961 0.392157 0.0941176 0.501961 0.392157 
0.0941176 0.501961 0.392157 0.0941176 0.501961 0.392157 
0.0941176 0.501961 0.392157 0.0941176 0.501961 0.392157 
0.0941176 0.501961 0.392157 0.0941176 0.501961 0.392157 
0.0941176 0.501961 0.392157 0.0941176 0.501961 0.392157 
0.0941176 0.501961 0.392157 0.0941176 0.501961 0.392157 
0.0941176 0.501961 0.392157 0.0941176 0.501961 0.392157 
0.0941176 0.501961 0.392157 0.0941176 0.501961 0.392157 
0.0941176 0.501961 0.392157 0.0941176 0.501961 0.392157 
0.0941176 0.501961 0.392157 0.0941176 0.501961 0.392157 
0.0941176 0.501961 0.392157 0.0941176 0.501961 0.392157 
0.0941176 0.501961 0.392157 0.0941176 0.501961 0.392157 
0.0941176 0.501961 0.392157 0.0941176 0.501961 0.392157 
0.0941176 0.501961 0.392157 0.0941176 0.501961 0.392157 
0.0941176 0.501961 0.392157 0.0941176 0.501961 0.392157 
0.0941176 0.501961 0.392157 0.0941176 0.501961 0.392157 
0.0941176 0.501961 0.392157 0.0941176 0.501961 0.392157 
0.0941176 0.501961 0.392157 0.0941176 0.501961 0.392157 
0.0941176 0.501961 0.392157 0.0941176 0.501961 0.392157 
0.0941176 0.501961 0.392157 0.0941176 0.501961 0.392157 
0.0941176 0.501961 0.392157 0.0941176 0.501961 0.392157 
0.0941176 0.501961 0.392157 0.0941176 0.501961 0.392157 
0.0941176 0.501961 0.392157 0.0941176 0.501961 0.392157 
0.0941176 0.501961 0.392157 0.0941176 0.501961 0.392157 
0.0941176 0.501961 0.392157 0.0941176 0.501961 0.392157 
0.0941176 0.501961 0.392157 0.0941176 0.501961 0.392157 
0.0941176 0.501961 0.392157 0.0941176 0.501961 0.392157 
0.0941176 0.501961 0.392157 0.0941176 0.501961 0.392157 
0.0941176 0.501961 0.392157 0.0941176 0.501961 0.392157 
0.0941176 0.501961 0.392157 0.0941176 0.501961 0.392157 
0.0941176 0.501961 0.392157 0.0941176 0.501961 0.392157 
0.0941176 0.501961 0.392157 0.0941176 0.501961 0.392157 
0.0941176 0.501961 0.392157 0.0941176 0.501961 0.392157 
0.0941176 0.501961 0.392157 0.0941176 0.501961 0.392157 
0.0941176 0.501961 0.392157 0.0941176 0.501961 0.392157 
0.0941176 0.501961 0.392157 0.0941176 0.501961 0.392157 
0.0941176 0.501961 0.392157 0.0941176 0.501961 0.392157 
0.0941176 0.501961 0.392157 0.0941176 0.501961 0.392157 
0.0941176 0.501961 0.392157 0.0941176 0.501961 0.392157 
0.0941176 0.501961 0.392157 0.0941176 0.501961 0.392157 
0.0941176 0.501961 0.392157 0.0941176 0.501961 0.392157 
0.0941176 0.501961 0.392157 0.0941176 0.501961 0.392157 
0.0941176 0.501961 0.392157 0.0941176 0.501961 0.392157 
0.0941176 0.501961 0.392157 0.0941176 0.501961 0.392157 
0.0941176 0.501961 0.392157 0.0941176 0.501961 0.392157 
0.0941176 0.501961 0.392157 0.0941176 0.501961 0.392157 
0.0941176 0.501961 0.392157 0.0941176 0.501961 0.392157 
0.0941176 0.501961 0.392157 0.0941176 0.501961 0.392157 
0.0941176 0.501961 0.392157 0.0941176 0.501961 0.392157 
0.0941176 0.501961 0.392157 0.0941176 0.501961 0.392157 
0.0941176 0.501961 0.392157 0.0941176 0.501961 0.392157 
0.0941176 0.501961 0.392157 0.0941176 0.501961 0.392157 
0.0941176 0.501961 0.392157 0.0941176 0.501961 0.392157 
0.0941176 0.501961 0.392157 0.0941176 0.501961 0.392157 
0.0941176 0.501961 0.392157 0.0941176 0.501961 0.392157 
0.0941176 0.501961 0.392157 0.0941176 0.501961 0.392157 
0.0941176 0.501961 0.392157 0.0941176 0.501961 0.392157 
0.0941176 0.501961 0.392157 0.0941176 0.501961 0.392157 
0.0941176 0.501961 0.392157 0.0941176 0.501961 0.392157 
0.0941176 0.501961 0.392157 0.0941176 0.501961 0.392157 
0.0941176 0.501961 0.392157 0.0941176 0.501961 0.392157 
0.0941176 0.501961 0.392157 0.0941176 0.501961 0.392157 
0.0941176 0.501961 0.392157 0.0941176 0.501961 0.392157 
0.0941176 0.501961 0.392157 0.0941176 0.501961 0.392157 
0.0941176 0.501961 0.392157 0.0941176 0.501961 0.392157 
0.0941176 0.501961 0.392157 0.0941176 0.501961 0.392157 
0.0941176 0.501961 0.392157 0.0941176 0.501961 0.392157 
0.0941176 0.501961 0.392157 0.0941176 0.501961 0.392157 
0.0941176 0.501961 0.392157 0.0941176 0.501961 0.392157 
0.0941176 0.501961 0.392157 0.0941176 0.501961 0.392157 
0.0941176 0.501961 0.392157 0.0941176 0.501961 0.392157 
0.0941176 0.501961 0.392157 0.0941176 0.501961 0.392157 
0.0941176 0.501961 0.392157 0.0941176 0.501961 0.392157 
0.0941176 0.501961 0.392157 0.0941176 0.501961 0.392157 
0.0941176 0.501961 0.392157 0.0941176 0.501961 0.392157 
0.0941176 0.501961 0.392157 0.0941176 0.501961 0.392157 
0.0941176 0.501961 0.392157 0.0941176 0.501961 0.392157 
0.0941176 0.501961 0.392157 0.0941176 0.501961 0.392157 
0.0941176 0.501961 0.392157 0.0941176 0.501961 0.392157 
0.0941176 0.501961 0.392157 0.0941176 0.501961 0.392157 
0.0941176 0.501961 0.392157 0.0941176 0.501961 0.392157 
0.0941176 0.501961 0.392157 0.0941176 0.501961 0.392157 
0.0941176 0.501961 0.392157 0.0941176 0.501961 0.392157 
0.0941176 0.501961 0.392157 0.0941176 0.501961 0.392157 
0.0941176 0.501961 0.392157 0.0941176 0.501961 0.392157 
0.0941176 0.501961 0.392157 0.0941176 0.501961 0.392157 
0.0941176 0.501961 0.392157 0.0941176 0.501961 0.392157 
0.0941176 0.501961 0.392157 0.0941176 0.501961 0.392157 
0.0941176 0.501961 0.392157 0.0941176 0.501961 0.392157 
0.0941176 0.501961 0.392157 0.0941176 0.501961 0.392157 
0.0941176 0.501961 0.392157 0.0941176 0.501961 0.392157 
0.0941176 0.501961 0.392157 0.0941176 0.501961 0.392157 
0.0941176 0.501961 0.392157 0.0941176 0.501961 0.392157 
0.0941176 0.501961 0.392157 0.0941176 0.501961 0.392157 
0.0941176 0.501961 0.392157 0.0941176 0.501961 0.392157 
0.0941176 0.501961 0.392157 0.0941176 0.501961 0.392157 
0.0941176 0.501961 0.392157 0.0941176 0.501961 0.392157 
0.0941176 0.501961 0.392157 0.0941176 0.501961 0.392157 
0.0941176 0.501961 0.392157 0.0941176 0.501961 0.392157 
0.0941176 0.501961 0.392157 0.0941176 0.501961 0.392157 
0.0941176 0.501961 0.392157 0.0941176 0.501961 0.392157 
0.0941176 0.501961 0.392157 0.0941176 0.501961 0.392157 
0.0941176 0.501961 0.392157 0.0941176 0.501961 0.392157 
0.0941176 0.501961 0.392157 0.0941176 0.501961 0.392157 
0.0941176 0.501961 0.392157 0.0941176 0.501961 0.392157 
0.0941176 0.501961 0.392157 0.0941176 0.501961 0.392157 
0.0941176 0.501961 0.392157 0.0941176 0.501961 0.392157 
0.0941176 0.501961 0.392157 0.0941176 0.501961 0.392157 
0.0941176 0.501961 0.392157 0.0941176 0.501961 0.392157 
0.0941176 0.501961 0.392157 0.0941176 0.501961 0.392157 
0.0941176 0.501961 0.392157 0.0941176 0.501961 0.392157 
0.0941176 0.501961 0.392157 0.0941176 0.501961 0.392157 
0.0941176 0.501961 0.392157 0.0941176 0.501961 0.392157 
0.0941176 0.501961 0.392157 0.0941176 0.501961 0.392157 
0.0941176 0.501961 0.392157 0.0941176 0.501961 0.392157 
0.0941176 0.501961 0.392157 0.0941176 0.501961 0.392157 
0.0941176 0.501961 0.392157 0.0941176 0.501961 0.392157 
0.0941176 0.501961 0.392157 0.0941176 0.501961 0.392157 
0.0941176 0.501961 0.392157 0.0941176 0.501961 0.392157 
0.0941176 0.501961 0.392157 0.0941176 0.501961 0.392157 
0.0941176 0.501961 0.392157 0.0941176 0.501961 0.392157 
0.0941176 0.501961 0.392157 0.0941176 0.501961 0.392157 
0.0941176 0.501961 0.392157 0.0941176 0.501961 0.392157 
0.0941176 0.501961 0.392157 0.0941176 0.501961 0.392157 
0.0941176 0.501961 0.392157 0.0941176 0.501961 0.392157 
0.0941176 0.501961 0.392157 0.0941176 0.501961 0.392157 
0.0941176 0.501961 0.392157 0.0941176 0.501961 0.392157 
0.0941176 0.501961 0.392157 0.0941176 0.501961 0.392157 
0.0941176 0.501961 0.392157 0.0941176 0.501961 0.392157 
0.0941176 0.501961 0.392157 0.0941176 0.501961 0.392157 
0.0941176 0.501961 0.392157 0.0941176 0.501961 0.392157 
0.0941176 0.501961 0.392157 0.0941176 0.501961 0.392157 
0.0941176 0.501961 0.392157 0.0941176 0.501961 0.392157 
0.0941176 0.501961 0.392157 0.0941176 0.501961 0.392157 
0.0941176 0.501961 0.392157 0.0941176 0.501961 0.392157 
0.0941176 0.501961 0.392157 0.0941176 0.501961 0.392157 
0.0941176 0.501961 0.392157 0.0941176 0.501961 0.392157 
0.0941176 0.501961 0.392157 0.0941176 0.501961 0.392157 
0.0941176 0.501961 0.392157 0.0941176 0.501961 0.392157 
0.0941176 0.501961 0.392157 0.0941176 0.501961 0.392157 
0.0941176 0.501961 0.392157 0.0941176 0.501961 0.392157 
0.0941176 0.501961 0.392157 0.0941176 0.501961 0.392157 
0.0941176 0.501961 0.392157 0.0941176 0.501961 0.392157 
0.0941176 0.501961 0.392157 0.0941176 0.501961 0.392157 
0.0941176 0.501961 0.392157 0.0941176 0.501961 0.392157 
0.0941176 0.501961 0.392157 0.0941176 0.501961 0.392157 
0.0941176 0.501961 0.392157 0.0941176 0.501961 0.392157 
0.0941176 0.501961 0.392157 0.0941176 0.501961 0.392157 
0.0941176 0.501961 0.392157 0.0941176 0.501961 0.392157 
0.0941176 0.501961 0.392157 0.0941176 0.501961 0.392157 
0.0941176 0.501961 0.392157 0.0941176 0.501961 0.392157 
0.0941176 0.501961 0.392157 0.0941176 0.501961 0.392157 
0.0941176 0.501961 0.392157 0.0941176 0.501961 0.392157 
0.0941176 0.501961 0.392157 0.0941176 0.501961 0.392157 
0.0941176 0.501961 0.392157 0.0941176 0.501961 0.392157 
0.0941176 0.501961 0.392157 0.0941176 0.501961 0.392157 
0.0941176 0.501961 0.392157 0.0941176 0.501961 0.392157 
0.0941176 0.501961 0.392157 0.0941176 0.501961 0.392157 
0.0941176 0.501961 0.392157 0.0941176 0.501961 0.392157 
0.0941176 0.501961 0.392157 0.0941176 0.501961 0.392157 
0.0941176 0.501961 0.392157 0.0941176 0.501961 0.392157 
0.0941176 0.501961 0.392157 0.0941176 0.501961 0.392157 
0.0941176 0.501961 0.392157 0.0941176 0.501961 0.392157 
0.0941176 0.501961 0.392157 0.0941176 0.501961 0.392157 
0.0941176 0.501961 0.392157 0.0941176 0.501961 0.392157 
0.0941176 0.501961 0.392157 0.0941176 0.501961 0.392157 
0.0941176 0.501961 0.392157 0.0941176 0.501961 0.392157 
0.0941176 0.501961 0.392157 0.0941176 0.501961 0.392157 
0.0941176 0.501961 0.392157 0.0941176 0.501961 0.392157 
0.0941176 0.501961 0.392157 0.0941176 0.501961 0.392157 
0.0941176 0.501961 0.392157 0.0941176 0.501961 0.392157 
0.0941176 0.501961 0.392157 0.0941176 0.501961 0.392157 
0.0941176 0.501961 0.392157 0.0941176 0.501961 0.392157 
0.0941176 0.501961 0.392157 0.0941176 0.501961 0.392157 
0.0941176 0.501961 0.392157 0.0941176 0.501961 0.392157 
0.0941176 0.501961 0.392157 0.0941176 0.501961 0.392157 
0.0941176 0.501961 0.392157 0.0941176 0.501961 0.392157 
0.0941176 0.501961 0.392157 0.0941176 0.501961 0.392157 
0.0941176 0.501961 0.392157 0.0941176 0.501961 0.392157 
0.0941176 0.501961 0.392157 0.0941176 0.501961 0.392157 
0.0941176 0.501961 0.392157 0.0941176 0.501961 0.392157 
0.0941176 0.501961 0.392157 0.0941176 0.501961 0.392157 
0.0941176 0.501961 0.392157 0.0941176 0.501961 0.392157 
0.0941176 0.501961 0.392157 0.0941176 0.501961 0.392157 
0.0941176 0.501961 0.392157 0.0941176 0.501961 0.392157 
0.0941176 0.501961 0.392157 0.0941176 0.501961 0.392157 