# vtk DataFile Version 4.2
vtk output
ASCII
DATASET POLYDATA
POINTS 936 float
284.225 55.8832 131.412 283.719 56.2277 131.198 283.57 56.0598 131.271 
285.147 56.4079 131.451 285.618 56.0348 131.886 285.912 56.3273 132.035 
281.831 57.1171 131.142 281.713 56.9695 131.231 282.082 57.1501 131.093 
284.349 56.8183 131.201 284.969 56.8586 131.336 282.868 55.3912 132.057 
281.531 56.6937 131.483 281.15 56.1557 131.942 282.628 56.5021 131.329 
285.799 55.8834 132.254 286.118 56.2204 132.431 278.843 56.9733 132.399 
278.562 57.5478 132.189 277.482 58.4618 132.386 279.349 58.2719 131.794 
281.321 57.8314 131.335 282.834 57.8841 131.163 286.305 57.4675 132.302 
277.943 58.5504 132.167 277.629 58.824 132.346 278.35 58.7262 132.052 
280.7 59.0681 131.621 285.863 58.371 132.108 286.254 58.3192 132.45 
282.937 58.9561 131.474 285.051 54.6997 132.999 277.014 57.9422 132.818 
276.636 58.1451 133.113 276.649 58.7026 133.08 276.171 58.8289 133.629 
286.512 58.5993 133.073 276.494 59.1563 133.343 278.261 59.7809 132.472 
285.383 59.4497 132.486 280.289 60.3421 132.316 283.165 60.2923 132.32 
284.668 54.081 133.98 286.655 56.4521 133.674 276.218 57.5638 133.812 
286.842 57.0723 133.658 275.911 57.8247 134.047 286.517 59.4002 133.807 
286.693 59.2568 133.872 277.202 60.9165 133.892 284.027 60.4117 132.771 
286.231 59.7246 134.13 283.068 61.0706 133.268 284.283 60.8234 133.634 
277.852 61.4617 133.824 277.627 56.0129 133.975 286.699 56.2362 134.36 
286.997 58.1456 134.312 285.553 60.3566 134.552 283.779 61.2603 134.327 
278.131 62.1543 134.596 280.516 62.3865 134.434 283.7 53.6047 134.737 
284.562 53.6958 135.246 285.085 53.9795 135.052 286.907 56.8359 135.277 
274.607 58.2262 135.92 283.059 61.604 135.068 279.64 62.8281 135.604 
284.937 53.659 136.584 285.891 54.633 136.114 279.621 54.0149 135.73 
274.088 57.5009 136.844 287.04 57.9471 135.309 286.962 58.1195 135.786 
286.244 59.4831 135.882 277.725 62.1956 135.309 280.59 62.5099 136.148 
278.318 62.6739 136.146 279.951 62.8336 135.985 278.762 62.7836 135.846 
283.052 52.6048 137.571 284.218 53.089 137.325 285.931 54.7029 137.087 
274.679 56.0502 137.095 286.734 58.4913 136.474 286.74 58.3176 136.663 
276.265 61.4397 136.45 276.486 61.7025 136.835 278.305 62.6728 136.652 
279.081 62.8417 136.539 279.306 62.8404 136.634 282.139 52.3605 138.138 
273.856 56.411 137.942 273.398 57.4566 138.389 286.414 57.7156 137.751 
274.004 59.3924 138.174 279.171 62.7244 136.96 278.683 62.6179 137.328 
277.492 62.3163 137.282 283.397 52.0474 139.498 284.51 52.819 139.123 
273.163 56.4905 139.062 286.25 56.9436 138.672 278.013 62.3909 137.951 
282.731 51.7157 140.05 285.125 53.4625 140.326 274.643 54.2457 139.893 
285.72 54.5954 139.592 284.634 58.9596 139.648 282.692 51.3852 141.635 
285.703 55.2952 140.733 272.24 55.9429 141.132 278.413 61.4772 141.024 
284.317 52.4096 142.336 284.737 52.9428 142.364 285.167 53.8166 142.118 
285.545 54.6859 141.123 271.539 56.6382 142.47 285.268 56.4493 141.802 
284.89 57.4596 141.476 273.977 60.5092 141.409 275.33 61.2326 141.838 
275.971 61.3949 141.546 280.726 50.6903 143.366 284.981 53.58 142.871 
272.714 54.1013 142.717 273.962 53.1204 143.064 272.12 54.5116 142.982 
285.278 54.7293 142.471 285.255 55.2671 142.521 271.494 57.1273 142.672 
285.022 56.5415 142.37 274.461 60.949 142.733 274.99 61.1199 142.7 
281.702 50.5823 143.913 279.249 50.8526 143.521 283.259 51.2211 144.518 
270.987 55.1194 144.407 270.965 56.6483 144.095 284.914 55.9776 143.182 
271.381 57.6173 143.528 271.782 58.4886 143.738 273.403 60.3639 143.876 
275.182 61.1248 143.577 283.451 51.3639 145.053 284.286 52.9128 145.195 
277.122 50.5365 146.038 283.65 51.6662 145.858 284.166 53.2054 146.157 
270.721 54.5593 145.527 284.26 54.44 145.925 270.077 54.7017 146.615 
270.131 55.4026 146.315 275.702 60.7902 145.406 274.928 60.9076 144.996 
275.413 60.903 145.143 281.629 49.5646 148.118 282.355 50.2178 147.139 
283.943 52.9634 147.178 284.201 53.8876 146.326 270.367 56.8643 146.332 
274.483 60.7126 145.681 271.713 52.16 147.908 283.88 54.3465 147.148 
280.117 57.7961 147.94 276.763 59.4596 148.198 281.469 49.1624 149.756 
268.895 53.7944 149.758 283.268 54.3693 148.877 282.003 55.8689 149.16 
271.449 59.1476 148.748 275.134 59.8406 148.661 281.117 48.8627 150.449 
268.669 55.5451 150.372 282.714 54.7485 149.812 281.358 56.1919 149.613 
280.583 56.5852 149.992 269.708 57.6521 150.217 270.173 58.127 149.936 
272.206 59.6974 149.756 281.248 48.8631 151.017 269.15 52.4256 151.122 
271.521 59.2733 150.409 271.681 59.3271 151.228 273.236 59.5925 150.658 
279.186 48.2897 151.47 270.21 51.1763 152.114 282.874 53.4664 151.459 
270.421 58.7261 152.243 274.188 59.2999 151.543 280.642 48.2723 152.853 
280.585 48.1793 153.107 281.499 49.0372 152.813 281.096 55.0727 152.573 
268.845 57.4363 153.147 271.375 59.1868 152.879 280.321 48.0761 153.79 
281.871 49.7388 154.093 267.377 52.488 154.207 271.756 59.2113 153.607 
279.43 47.4676 155.578 279.801 47.6001 155.88 280.696 48.3135 154.511 
282.105 50.8697 155.206 282.35 51.7538 154.368 266.96 52.6173 154.989 
266.753 53.7379 154.825 281.811 52.7254 155.275 269.56 58.4487 155.02 
270.232 58.7764 154.934 270.903 59.023 154.693 278.138 47.2536 155.714 
281.011 48.6454 156.085 282.007 51.0131 155.84 267.477 51.3862 156.193 
266.455 53.1668 155.879 266.405 53.7351 155.94 271.633 58.924 155.955 
266.362 52.5584 156.695 266.059 52.7684 157.284 270.189 58.8882 156.883 
278.752 46.8552 157.631 279.212 46.9505 158.385 277.793 46.7516 157.938 
265.793 52.2114 158.602 265.511 53.4363 158.562 280.896 52.6912 158.187 
281.041 52.2218 158.657 279.836 54.0403 157.521 279.641 47.1521 159.28 
269.327 49.3727 158.7 281.489 50.3635 158.512 265.272 52.759 159.404 
280.642 52.4514 159.511 265.297 54.006 159.35 265.869 55.0805 158.672 
269.143 58.6905 159.105 277.903 46.3747 160.256 275.361 46.6315 160.221 
281.278 51.0223 159.431 264.876 51.9494 160.752 264.729 52.7284 160.525 
278.785 46.4104 161.148 277.185 46.3035 160.42 280.475 48.4281 161.328 
266.082 50.3592 161.249 281.191 50.5594 160.016 264.395 52.0305 161.743 
279.852 52.9044 160.62 278.622 46.3609 161.34 276.65 45.971 162.418 
274.762 46.3201 162.147 265.13 50.5817 162.543 264.126 52.8535 161.874 
275.419 46.0011 162.841 278.355 46.2555 163.078 280.122 48.1608 162.796 
280.415 49.3848 163.148 264.62 51.0134 162.69 263.963 51.6854 163.232 
263.734 52.9632 163.153 277.794 45.799 164.911 276.253 45.5913 164.289 
279.746 47.664 163.492 278.282 53.1327 163.785 277.415 45.5869 165.432 
280.029 49.8364 165.069 280.026 50.705 164.477 279.479 51.4502 165.06 
277.521 45.4309 167.18 275.291 45.0117 167.401 278.106 46.0272 167.246 
278.854 46.9801 166.927 261.636 51.6271 168.049 276.297 44.944 168.228 
276.855 45.1627 168.795 274.768 44.8364 168.502 277.254 45.3719 167.882 
278.625 47.0361 168.484 278.941 47.4688 167.987 279.54 49.1825 167.201 
276.284 44.909 169.458 260.787 51.3263 169.642 279.084 49.9528 168.555 
277.914 51.868 168.435 278.474 50.9299 168.988 266.219 57.9121 168.975 
278.826 48.9701 169.611 278.554 50.4165 169.599 269.026 56.871 170.25 
275.024 44.5521 170.442 276.37 45.0009 171.058 276.597 45.2022 171.373 
277.726 46.2601 170.475 267.159 57.6367 170.34 264.977 57.7969 170.708 
274.576 44.3644 172.522 260.099 50.3001 171.922 277.791 47.7097 172.578 
277.625 50.3319 172.28 274.944 52.6713 173.177 274.294 44.0219 174.908 
270.939 44.381 174.043 276.074 45.4181 174.459 276.686 45.998 173.742 
275.968 51.8994 173.237 267.548 57.0529 173.2 274.68 44.2627 175.615 
275.241 44.5971 174.809 275.075 44.5389 175.378 276.131 45.9922 175.47 
258.73 49.6105 174.992 267.916 56.4556 175.017 274.596 44.3056 176.059 
276.749 47.374 175.4 275.732 51.0298 175.839 257.902 52.9829 175.246 
273.066 43.8469 176.231 276.537 48.1909 176.258 256.075 50.2889 177.741 
256.256 51.5017 177.288 257.482 54.7895 177.259 264.107 58.0903 177.271 
273.028 43.984 177.43 273.828 44.4245 177.584 274.928 45.2029 177.124 
255.373 49.9533 178.766 276.078 49.7362 176.791 256.309 53.0928 177.712 
260.546 58.3739 178.503 272.146 44.1385 178.108 271.631 44.165 178.117 
273.243 44.2885 178.025 269.466 44.4179 178.017 273.529 44.4189 177.958 
254.826 50.3808 179.229 274.768 50.202 178.261 273.72 51.608 178.008 
260.041 58.3327 178.905 261.154 58.6177 179.334 269.69 45.0191 179.59 
266.587 45.2227 179.588 267.35 45.0682 179.415 272.225 45.2478 179.317 
273.096 45.7701 179.254 274.561 46.8381 178.816 258.061 47.9262 179.052 
275.154 47.6387 178.515 254.647 50.0048 179.798 254.425 50.2498 180.047 
274.502 49.2512 179.013 254.438 51.9049 179.949 269.895 53.1706 179.908 
258.214 57.4659 179.637 262.27 58.4405 179.617 259.72 58.7015 180.192 
260.288 58.7508 179.939 260.701 58.7066 179.975 260.022 58.7836 180.164 
268.376 45.2744 180.086 269.072 45.2715 180.05 269.211 45.6462 180.455 
270.437 45.2521 179.767 266.041 45.6815 180.443 269.726 46.2354 180.782 
261.204 46.7727 180.484 271.022 47.0378 180.675 271.776 47.8019 180.577 
274.235 47.5085 179.234 254.453 49.6796 181.066 254.222 49.9856 180.816 
254.975 49.4169 180.07 254.929 49.3106 180.594 274.666 48.1068 178.998 
272.183 49.5675 180.478 272.599 49.8959 180.149 254.079 51.8686 180.931 
272.249 51.2019 179.764 255.417 54.5879 180.609 266.505 55.2848 180.889 
257.391 57.5152 181.341 263.942 57.5866 180.362 259.528 58.724 180.627 
259.861 58.7893 180.449 268.203 45.6104 180.493 264.443 46.0385 180.692 
265.266 46.209 181.107 269.179 47.1537 181.294 255.782 48.6412 181.83 
254.135 50.0124 181.135 254.207 50.0143 181.503 254.009 50.2946 181.276 
253.947 50.6454 181.34 254.077 52.2141 181.483 254.168 52.4509 181.354 
254.307 52.7477 181.534 254.481 53.0961 181.439 256.849 56.8818 181.765 
258.778 58.7409 181.802 259.716 58.6931 181.622 258.811 58.7469 182.126 
266.348 46.2895 181.199 259.714 47.4551 182.154 259.555 47.534 182.316 
261.406 47.59 182.178 267.219 47.4669 181.807 255.373 48.9337 182.523 
254.974 49.2151 182.576 256.128 48.6588 182.54 267.804 48.9586 182.077 
[...]
POINT_DATA 936
COLOR_SCALARS scalars 3
0.0941176 0.501961 0.392157 0.0941176 0.501961 0.392157 0.0941176 0.501961 0.392157 
0.0941176 0.501961 0.392157 0.0941176 0.501961 0.392157 
0.0941176 0.501961 0.392157 0.0941176 0.501961 0.392157 
0.0941176 0.501961 0.392157 0.0941176 0.501961 0.392157 
0.0941176 0.501961 0.392157 0.0941176 0.501961 0.392157 
0.0941176 0.501961 0.392157 0.0941176 0.501961 0.392157 
0.0941176 0.501961 0.392157 0.0941176 0.501961 0.392157 
0.0941176 0.501961 0.392157 0.0941176 0.501961 0.392157 
0.0941176 0.501961 0.392157 0.0941176 0.501961 0.392157 
0.0941176 0.501961 0.392157 0.0941176 0.501961 0.392157 
0.0941176 0.501961 0.392157 0.0941176 0.501961 0.392157 
0.0941176 0.501961 0.392157 0.0941176 0.501961 0.392157 
0.0941176 0.501961 0.392157 0.0941176 0.501961 0.392157 
0.0941176 0.501961 0.392157 0.0941176 0.501961 0.392157 
0.0941176 0.501961 0.392157 0.0941176 0.501961 0.392157 
0.0941176 0.501961 0.392157 0.0941176 0.501961 0.392157 
0.0941176 0.501961 0.392157 0.0941176 0.501961 0.392157 
0.0941176 0.501961 0.392157 0.0941176 0.501961 0.392157 
0.0941176 0.501961 0.392157 0.0941176 0.501961 0.392157 
0.0941176 0.501961 0.392157 0.0941176 0.501961 0.392157 
0.0941176 0.501961 0.392157 0.0941176 0.501961 0.392157 
0.0941176 0.501961 0.392157 0.0941176 0.501961 0.392157 
0.0941176 0.501961 0.392157 0.0941176 0.501961 0.392157 
0.0941176 0.501961 0.392157 0.0941176 0.501961 0.392157 
0.0941176 0.501961 0.392157 0.0941176 0.501961 0.392157 
0.0941176 0.501961 0.392157 0.0941176 0.501961 0.392157 
0.0941176 0.501961 0.392157 0.0941176 0.501961 0.392157 
0.0941176 0.501961 0.392157 0.0941176 0.501961 0.392157 
0.0941176 0.501961 0.392157 0.0941176 0.501961 0.392157 
0.0941176 0.501961 0.392157 0.0941176 0.501961 0.392157 
0.0941176 0.501961 0.392157 0.0941176 0.501961 0.392157 
0.0941176 0.501961 0.392157 0.0941176 0.501961 0.392157 
0.0941176 0.501961 0.392157 0.0941176 0.501961 0.392157 
0.0941176 0.501961 0.392157 0.0941176 0.501961 0.392157 
0.0941176 0.501961 0.392157 0.0941176 0.501961 0.392157 
0.0941176 0.501961 0.392157 0.0941176 0.501961 0.392157 
0.0941176 0.501961 0.392157 0.0941176 0.501961 0.392157 
0.0941176 0.501961 0.392157 0.0941176 0.501961 0.392157 
0.0941176 0.501961 0.392157 0.0941176 0.501961 0.392157 
0.0941176 0.501961 0.392157 0.0941176 0.501961 0.392157 
0.0941176 0.501961 0.392157 0.0941176 0.501961 0.392157 
0.0941176 0.501961 0.392157 0.0941176 0.501961 0.392157 
0.0941176 0.501961 0.392157 0.0941176 0.501961 0.392157 
0.0941176 0.501961 0.392157 0.0941176 0.501961 0.392157 
0.0941176 0.501961 0.392157 0.0941176 0.501961 0.392157 
0.0941176 0.501961 0.392157 0.0941176 0.501961 0.392157 
0.0941176 0.501961 0.392157 0.0941176 0.501961 0.392157 
0.0941176 0.501961 0.392157 0.0941176 0.501961 0.392157 
0.0941176 0.501961 0.392157 0.0941176 0.501961 0.392157 
0.0941176 0.501961 0.392157 0.0941176 0.501961 0.392157 
0.0941176 0.501961 0.392157 0.0941176 0.501961 0.392157 
0.0941176 0.501961 0.392157 0.0941176 0.501961 0.392157 
0.0941176 0.501961 0.392157 0.0941176 0.501961 0.392157 
0.0941176 0.501961 0.392157 0.0941176 0.501961 0.392157 
0.0941176 0.501961 0.392157 0.0941176 0.501961 0.392157 
0.0941176 0.501961 0.392157 0.0941176 0.501961 0.392157 
0.0941176 0.501961 0.392157 0.0941176 0.501961 0.392157 
0.0941176 0.501961 0.392157 0.0941176 0.501961 0.392157 
0.0941176 0.501961 0.392157 0.0941176 0.501961 0.392157 
0.0941176 0.501961 0.392157 0.0941176 0.501961 0.392157 
0.0941176 0.501961 0.392157 0.0941176 0.501961 0.392157 
0.0941176 0.501961 0.392157 0.0941176 0.501961 0.392157 
0.0941176 0.501961 0.392157 0.0941176 0.501961 0.392157 
0.0941176 0.501961 0.392157 0.0941176 0.501961 0.392157 
0.0941176 0.501961 0.392157 0.0941176 0.501961 0.392157 
0.0941176 0.501961 0.392157 0.0941176 0.501961 0.392157 
0.0941176 0.501961 0.392157 0.0941176 0.501961 0.392157 
0.0941176 0.501961 0.392157 0.0941176 0.501961 0.392157 
0.0941176 0.501961 0.392157 0.0941176 0.501961 0.392157 
0.0941176 0.501961 0.392157 0.0941176 0.501961 0.392157 
0.0941176 0.501961 0.392157 0.0941176 0.501961 0.392157 
0.0941176 0.501961 0.392157 0.0941176 0.501961 0.392157 
0.0941176 0.501961 0.392157 0.0941176 0.501961 0.392157 
0.0941176 0.501961 0.392157 0.0941176 0.501961 0.392157 
0.0941176 0.501961 0.392157 0.0941176 0.501961 0.392157 
0.0941176 0.501961 0.392157 0.0941176 0.501961 0.392157 
0.0941176 0.501961 0.392157 0.0941176 0.501961 0.392157 
0.0941176 0.501961 0.392157 0.0941176 0.501961 0.392157 
0.0941176 0.501961 0.392157 0.0941176 0.501961 0.392157 
0.0941176 0.501961 0.392157 0.0941176 0.501961 0.392157 
0.0941176 0.501961 0.392157 0.0941176 0.501961 0.392157 
0.0941176 0.501961 0.392157 0.0941176 0.501961 0.392157 
0.0941176 0.501961 0.392157 0.0941176 0.501961 0.392157 
0.0941176 0.501961 0.392157 0.0941176 0.501961 0.392157 
0.0941176 0.501961 0.392157 0.0941176 0.501961 0.392157 
0.0941176 0.501961 0.392157 0.0941176 0.501961 0.392157 
0.0941176 0.501961 0.392157 0.0941176 0.501961 0.392157 
0.0941176 0.501961 0.392157 0.0941176 0.501961 0.392157 
0.0941176 0.501961 0.392157 0.0941176 0.501961 0.392157 
0.0941176 0.501961 0.392157 0.0941176 0.501961 0.392157 
0.0941176 0.501961 0.392157 0.0941176 0.501961 0.392157 
0.0941176 0.501961 0.392157 0.0941176 0.501961 0.392157 
0.0941176 0.501961 0.392157 0.0941176 0.501961 0.392157 
0.0941176 0.501961 0.392157 0.0941176 0.501961 0.392157 
0.0941176 0.501961 0.392157 0.0941176 0.501961 0.392157 
0.0941176 0.501961 0.392157 0.0941176 0.501961 0.392157 
0.0941176 0.501961 0.392157 0.0941176 0.501961 0.392157 
0.0941176 0.501961 0.392157 0.0941176 0.501961 0.392157 
0.0941176 0.501961 0.392157 0.0941176 0.501961 0.392157 
0.0941176 0.501961 0.392157 0.0941176 0.501961 0.392157 
0.0941176 0.501961 0.392157 0.0941176 0.501961 0.392157 
0.0941176 0.501961 0.392157 0.0941176 0.501961 0.392157 
0.0941176 0.501961 0.392157 0.0941176 0.501961 0.392157 
0.0941176 0.501961 0.392157 0.0941176 0.501961 0.392157 
0.0941176 0.501961 0.392157 0.0941176 0.501961 0.392157 
0.0941176 0.501961 0.392157 0.0941176 0.501961 0.392157 
0.0941176 0.501961 0.392157 0.0941176 0.501961 0.392157 
0.0941176 0.501961 0.392157 0.0941176 0.501961 0.392157 
0.0941176 0.501961 0.392157 0.0941176 0.501961 0.392157 
0.0941176 0.501961 0.392157 0.0941176 0.501961 0.392157 
0.0941176 0.501961 0.392157 0.0941176 0.501961 0.392157 
0.0941176 0.501961 0.392157 0.0941176 0.501961 0.392157 
0.0941176 0.501961 0.392157 0.0941176 0.501961 0.392157 
0.0941176 0.501961 0.392157 0.0941176 0.501961 0.392157 
0.0941176 0.501961 0.392157 0.0941176 0.501961 0.392157 
0.0941176 0.501961 0.392157 0.0941176 0.501961 0.392157 
0.0941176 0.501961 0.392157 0.0941176 0.501961 0.392157 
0.0941176 0.501961 0.392157 0.0941176 0.501961 0.392157 
0.0941176 0.501961 0.392157 0.0941176 0.501961 0.392157 
0.0941176 0.501961 0.392157 0.0941176 0.501961 0.392157 
0.0941176 0.501961 0.392157 0.0941176 0.501961 0.392157 
0.0941176 0.501961 0.392157 0.0941176 0.501961 0.392157 
0.0941176 0.501961 0.392157 0.0941176 0.501961 0.392157 
0.0941176 0.501961 0.392157 0.0941176 0.501961 0.392157 
0.0941176 0.501961 0.392157 0.0941176 0.501961 0.392157 
0.0941176 0.501961 0.392157 0.0941176 0.501961 0.392157 
0.0941176 0.501961 0.392157 0.0941176 0.501961 0.392157 
0.0941176 0.501961 0.392157 0.0941176 0.501961 0.392157 
0.0941176 0.501961 0.392157 0.0941176 0.501961 0.392157 
0.0941176 0.501961 0.392157 0.0941176 0.501961 0.392157 
0.0941176 0.501961 0.392157 0.0941176 0.501961 0.392157 
0.0941176 0.501961 0.392157 0.0941176 0.501961 0.392157 
0.0941176 0.501961 0.392157 0.0941176 0.501961 0.392157 
0.0941176 0.501961 0.392157 0.0941176 0.501961 0.392157 
0.0941176 0.501961 0.392157 0.0941176 0.501961 0.392157 
0.0941176 0.501961 0.392157 0.0941176 0.501961 0.392157 
0.0941176 0.501961 0.392157 0.0941176 0.501961 0.392157 
0.0941176 0.501961 0.392157 0.0941176 0.501961 0.392157 
0.0941176 0.501961 0.392157 0.0941176 0.501961 0.392157 
0.0941176 0.501961 0.392157 0.0941176 0.501961 0.392157 
0.0941176 0.501961 0.392157 0.0941176 0.501961 0.392157 
0.0941176 0.501961 0.392157 0.0941176 0.501961 0.392157 
0.0941176 0.501961 0.392157 0.0941176 0.501961 0.392157 
0.0941176 0.501961 0.392157 0.0941176 0.501961 0.392157 
0.0941176 0.501961 0.392157 0.0941176 0.501961 0.392157 
0.0941176 0.501961 0.392157 0.0941176 0.501961 0.392157 
0.0941176 0.501961 0.392157 0.0941176 0.501961 0.392157 
0.0941176 0.501961 0.392157 0.0941176 0.501961 0.392157 
0.0941176 0.501961 0.392157 0.0941176 0.501961 0.392157 
0.0941176 0.501961 0.392157 0.0941176 0.501961 0.392157 
0.0941176 0.501961 0.392157 0.0941176 0.501961 0.392157 
0.0941176 0.501961 0.392157 0.0941176 0.501961 0.392157 
0.0941176 0.501961 0.392157 0.0941176 0.501961 0.392157 
0.0941176 0.501961 0.392157 0.0941176 0.501961 0.392157 
0.0941176 0.501961 0.392157 0.0941176 0.501961 0.392157 
0.0941176 0.501961 0.392157 0.0941176 0.501961 0.392157 
0.0941176 0.501961 0.392157 0.0941176 0.501961 0.392157 
0.0941176 0.501961 0.392157 0.0941176 0.501961 0.392157 
0.0941176 0.501961 0.392157 0.0941176 0.501961 0.392157 
0.0941176 0.501961 0.392157 0.0941176 0.501961 0.392157 
0.0941176 0.501961 0.392157 0.0941176 0.501961 0.392157 
0.0941176 0.501961 0.392157 0.0941176 0.501961 0.392157 
0.0941176 0.501961 0.392157 0.0941176 0.501961 0.392157 
0.0941176 0.501961 0.392157 0.0941176 0.501961 0.392157 
0.0941176 0.501961 0.392157 0.0941176 0.501961 0.392157 
0.0941176 0.501961 0.392157 0.0941176 0.501961 0.392157 
0.0941176 0.501961 0.392157 0.0941176 0.501961 0.392157 
0.0941176 0.501961 0.392157 0.0941176 0.501961 0.392157 
0.0941176 0.501961 0.392157 0.0941176 0.501961 0.392157 
0.0941176 0.501961 0.392157 0.0941176 0.501961 0.392157 
0.0941176 0.501961 0.392157 0.0941176 0.501961 0.392157 
0.0941176 0.501961 0.392157 0.0941176 0.501961 0.392157 
0.0941176 0.501961 0.392157 0.0941176 0.501961 0.392157 
0.0941176 0.501961 0.392157 0.0941176 0.501961 0.392157 
0.0941176 0.501961 0.392157 0.0941176 0.501961 0.392157 
0.0941176 0.501961 0.392157 0.0941176 0.501961 0.392157 
0.0941176 0.501961 0.392157 0.0941176 0.501961 0.392157 
0.0941176 0.501961 0.392157 0.0941176 0.501961 0.392157 
0.0941176 0.501961 0.392157 0.0941176 0.501961 0.392157 
0.0941176 0.501961 0.392157 0.0941176 0.501961 0.392157 
0.0941176 0.501961 0.392157 0.0941176 0.501961 0.392157 
0.0941176 0.501961 0.392157 0.0941176 0.501961 0.392157 
0.0941176 0.501961 0.392157 0.0941176 0.501961 0.392157 
0.0941176 0.501961 0.392157 0.0941176 0.501961 0.392157 
0.0941176 0.501961 0.392157 0.0941176 0.501961 0.392157 
0.0941176 0.501961 0.392157 0.0941176 0.501961 0.392157 
0.0941176 0.501961 0.392157 0.0941176 0.501961 0.392157 
0.0941176 0.501961 0.392157 0.0941176 0.501961 0.392157 
0.0941176 0.501961 0.392157 0.0941176 0.501961 0.392157 
0.0941176 0.501961 0.392157 0.0941176 0.501961 0.392157 
0.0941176 0.501961 0.392157 0.0941176 0.501961 0.392157 
0.0941176 0.501961 0.392157 0.0941176 0.501961 0.392157 
0.0941176 0.501961 0.392157 0.0941176 0.501961 0.392157 
0.0941176 0.501961 0.392157 0.0941176 0.501961 0.392157 
0.0941176 0.501961 0.392157 0.0941176 0.501961 0.392157 
0.0941176 0.501961 0.392157 0.0941176 0.501961 0.392157 
0.0941176 0.501961 0.392157 0.0941176 0.501961 0.392157 
0.0941176 0.501961 0.392157 0.0941176 0.501961 0.392157 
0.0941176 0.501961 0.392157 0.0941176 0.501961 0.392157 
0.0941176 0.501961 0.392157 0.0941176 0.501961 0.392157 
0.0941176 0.501961 0.392157 0.0941176 0.501961 0.392157 
0.0941176 0.501961 0.392157 0.0941176 0.501961 0.392157 
0.0941176 0.501961 0.392157 0.0941176 0.501961 0.392157 
0.0941176 0.501961 0.392157 0.0941176 0.501961 0.392157 
0.0941176 0.501961 0.392157 0.0941176 0.501961 0.392157 
0.0941176 0.501961 0.392157 0.0941176 0.501961 0.392157 
0.0941176 0.501961 0.392157 0.0941176 0.501961 0.392157 
0.0941176 0.501961 0.392157 0.0941176 0.501961 0.392157 
0.0941176 0.501961 0.392157 0.0941176 0.501961 0.392157 
0.0941176 0.501961 0.392157 0.0941176 0.501961 0.392157 
0.0941176 0.501961 0.392157 0.0941176 0.501961 0.392157 
0.0941176 0.501961 0.392157 0.0941176 0.501961 0.392157 
0.0941176 0.501961 0.392157 0.0941176 0.501961 0.392157 
0.0941176 0.501961 0.392157 0.0941176 0.501961 0.392157 
0.0941176 0.501961 0.392157 0.0941176 0.501961 0.392157 
0.0941176 0.501961 0.392157 0.0941176 0.501961 0.392157 
0.0941176 0.501961 0.392157 0.0941176 0.501961 0.392157 
0.0941176 0.501961 0.392157 0.0941176 0.501961 0.392157 
0.0941176 0.501961 0.392157 0.0941176 0.501961 0.392157 
0.0941176 0.501961 0.392157 0.0941176 0.501961 0.392157 
0.0941176 0.501961 0.392157 0.0941176 0.501961 0.392157 
0.0941176 0.501961 0.392157 0.0941176 0.501961 0.392157 
0.0941176 0.501961 0.392157 0.0941176 0.501961 0.392157 
0.0941176 0.501961 0.392157 0.0941176 0.501961 0.392157 
0.0941176 0.501961 0.392157 0.0941176 0.501961 0.392157 
0.0941176 0.501961 0.392157 0.0941176 0.501961 0.392157 
0.0941176 0.501961 0.392157 0.0941176 0.501961 0.392157 
0.0941176 0.501961 0.392157 0.0941176 0.501961 0.392157 
0.0941176 0.501961 0.392157 0.0941176 0.501961 0.392157 
0.0941176 0.501961 0.392157 0.0941176 0.501961 0.392157 
0.0941176 0.501961 0.392157 0.0941176 0.501961 0.392157 
0.0941176 0.501961 0.392157 0.0941176 0.501961 0.392157 
0.0941176 0.501961 0.392157 0.0941176 0.501961 0.392157 
0.0941176 0.501961 0.392157 0.0941176 0.501961 0.392157 
0.0941176 0.501961 0.392157 0.0941176 0.501961 0.392157 
0.0941176 0.501961 0.392157 0.0941176 0.501961 0.392157 
0.0941176 0.501961 0.392157 0.0941176 0.501961 0.392157 
0.0941176 0.501961 0.392157 0.0941176 0.501961 0.392157 
0.0941176 0.501961 0.392157 0.0941176 0.501961 0.392157 
0.0941176 0.501961 0.392157 0.0941176 0.501961 0.392157 
0.0941176 0.501961 0.392157 0.0941176 0.501961 0.392157 
0.0941176 0.501961 0.392157 0.0941176 0.501961 0.392157 
0.0941176 0.501961 0.392157 0.0941176 0.501961 0.392157 
0.0941176 0.501961 0.392157 0.0941176 0.501961 0.392157 
0.0941176 0.501961 0.392157 0.0941176 0.501961 0.392157 
0.0941176 0.501961 0.392157 0.0941176 0.501961 0.392157 
0.0941176 0.501961 0.392157 0.0941176 0.501961 0.392157 
0.0941176 0.501961 0.392157 0.0941176 0.501961 0.392157 
0.0941176 0.501961 0.392157 0.0941176 0.501961 0.392157 
0.0941176 0.501961 0.392157 0.0941176 0.501961 0.392157 
0.0941176 0.501961 0.392157 0.0941176 0.501961 0.392157 
0.0941176 0.501961 0.392157 0.0941176 0.501961 0.392157 
0.0941176 0.501961 0.392157 0.0941176 0.501961 0.392157 
0.0941176 0.501961 0.392157 0.0941176 0.501961 0.392157 
0.0941176 0.501961 0.392157 0.0941176 0.501961 0.392157 
0.0941176 0.501961 0.392157 0.0941176 0.501961 0.392157 
0.0941176 0.501961 0.392157 0.0941176 0.501961 0.392157 
0.0941176 0.501961 0.392157 0.0941176 0.501961 0.392157 
0.0941176 0.501961 0.392157 0.0941176 0.501961 0.392157 
0.0941176 0.501961 0.392157 0.0941176 0.501961 0.392157 
0.0941176 0.501961 0.392157 0.0941176 0.501961 0.392157 
0.0941176 0.501961 0.392157 0.0941176 0.501961 0.392157 
0.0941176 0.501961 0.392157 0.0941176 0.501961 0.392157 
0.0941176 0.501961 0.392157 0.0941176 0.501961 0.392157 
0.0941176 0.501961 0.392157 0.0941176 0.501961 0.392157 
0.0941176 0.501961 0.392157 0.0941176 0.501961 0.392157 
0.0941176 0.501961 0.392157 0.0941176 0.501961 0.392157 
0.0941176 0.501961 0.392157 0.0941176 0.501961 0.392157 
0.0941176 0.501961 0.392157 0.0941176 0.501961 0.392157 
0.0941176 0.501961 0.392157 0.0941176 0.501961 0.392157 
0.0941176 0.501961 0.392157 0.0941176 0.501961 0.392157 
0.0941176 0.501961 0.392157 0.0941176 0.501961 0.392157 
0.0941176 0.501961 0.392157 0.0941176 0.501961 0.392157 
0.0941176 0.501961 0.392157 0.0941176 0.501961 0.392157 
0.0941176 0.501961 0.392157 0.0941176 0.501961 0.392157 
0.0941176 0.501961 0.392157 0.0941176 0.501961 0.392157 
0.0941176 0.501961 0.392157 0.0941176 0.501961 0.392157 
0.0941176 0.501961 0.392157 0.0941176 0.501961 0.392157 
0.0941176 0.501961 0.392157 0.0941176 0.501961 0.392157 
0.0941176 0.501961 0.392157 0.0941176 0.501961 0.392157 
0.0941176 0.501961 0.392157 0.0941176 0.501961 0.392157 
0.0941176 0.501961 0.392157 0.0941176 0.501961 0.392157 
0.0941176 0.501961 0.392157 0.0941176 0.501961 0.392157 
0.0941176 0.501961 0.392157 0.0941176 0.501961 0.392157 
0.0941176 0.501961 0.392157 0.0941176 0.501961 0.392157 
0.0941176 0.501961 0.392157 0.0941176 0.501961 0.392157 
0.0941176 0.501961 0.392157 0.0941176 0.501961 0.392157 
0.0941176 0.501961 0.392157 0.0941176 0.501961 0.392157 
0.0941176 0.501961 0.392157 0.0941176 0.501961 0.392157 
0.0941176 0.501961 0.392157 0.0941176 0.501961 0.392157 
0.0941176 0.501961 0.392157 0.0941176 0.501961 0.392157 
0.0941176 0.501961 0.392157 0.0941176 0.501961 0.392157 
0.0941176 0.501961 0.392157 0.0941176 0.501961 0.392157 
0.0941176 0.501961 0.392157 0.0941176 0.501961 0.392157 
0.0941176 0.501961 0.392157 0.0941176 0.501961 0.392157 
0.0941176 0.501961 0.392157 0.0941176 0.501961 0.392157 
0.0941176 0.501961 0.392157 0.0941176 0.501961 0.392157 
0.0941176 0.501961 0.392157 0.0941176 0.501961 0.392157 
0.0941176 0.501961 0.392157 0.0941176 0.501961 0.392157 
0.0941176 0.501961 0.392157 0.0941176 0.501961 0.392157 
0.0941176 0.501961 0.392157 0.0941176 0.501961 0.392157 
0.0941176 0.501961 0.392157 0.0941176 0.501961 0.392157 
0.0941176 0.501961 0.392157 0.0941176 0.501961 0.392157 
0.0941176 0.501961 0.392157 0.0941176 0.501961 0.392157 
0.0941176 0.501961 0.392157 0.0941176 0.501961 0.392157 
0.0941176 0.501961 0.392157 0.0941176 0.501961 0.392157 
0.0941176 0.501961 0.392157 0.0941176 0.501961 0.392157 
0.0941176 0.501961 0.392157 0.0941176 0.501961 0.392157 
0.0941176 0.501961 0.392157 0.0941176 0.501961 0.392157 
0.0941176 0.501961 0.392157 0.0941176 0.501961 0.392157 
0.0941176 0.501961 0.392157 0.0941176 0.501961 0.392157 
0.0941176 0.501961 0.392157 0.0941176 0.501961 0.392157 
0.0941176 0.501961 0.392157 0.0941176 0.501961 0.392157 
0.0941176 0.501961 0.392157 0.0941176 0.501961 0.392157 
0.0941176 0.501961 0.392157 0.0941176 0.501961 0.392157 
0.0941176 0.501961 0.392157 0.0941176 0.501961 0.392157 
0.0941176 0.501961 0.392157 0.0941176 0.501961 0.392157 
0.0941176 0.501961 0.392157 0.0941176 0.501961 0.392157 
0.0941176 0.501961 0.392157 0.0941176 0.501961 0.392157 
0.0941176 0.501961 0.392157 0.0941176 0.501961 0.392157 
0.0941176 0.501961 0.392157 0.0941176 0.501961 0.392157 
0.0941176 0.501961 0.392157 0.0941176 0.501961 0.392157 
0.0941176 0.501961 0.392157 0.0941176 0.501961 0.392157 
0.0941176 0.501961 0.392157 0.0941176 0.501961 0.392157 
0.0941176 0.501961 0.392157 0.0941176 0.501961 0.392157 
0.0941176 0.501961 0.392157 0.0941176 0.501961 0.392157 
0.0941176 0.501961 0.392157 0.0941176 0.501961 0.392157 
0.0941176 0.501961 0.392157 0.0941176 0.501961 0.392157 
0.0941176 0.501961 0.392157 0.0941176 0.501961 0.392157 
0.0941176 0.501961 0.392157 0.0941176 0.501961 0.392157 
0.0941176 0.501961 0.392157 0.0941176 0.501961 0.392157 
0.0941176 0.501961 0.392157 0.0941176 0.501961 0.392157 
0.0941176 0.501961 0.392157 0.0941176 0.501961 0.392157 
0.0941176 0.501961 0.392157 0.0941176 0.501961 0.392157 
0.0941176 0.501961 0.392157 0.0941176 0.501961 0.392157 
0.0941176 0.501961 0.392157 0.0941176 0.501961 0.392157 
0.0941176 0.501961 0.392157 0.0941176 0.501961 0.392157 
0.0941176 0.501961 0.392157 0.0941176 0.501961 0.392157 
0.0941176 0.501961 0.392157 0.0941176 0.501961 0.392157 
0.0941176 0.501961 0.392157 0.0941176 0.501961 0.392157 
0.0941176 0.501961 0.392157 0.0941176 0.501961 0.392157 
0.0941176 0.501961 0.392157 0.0941176 0.501961 0.392157 
0.0941176 0.501961 0.392157 0.0941176 0.501961 0.392157 
0.0941176 0.501961 0.392157 0.0941176 0.501961 0.392157 
0.0941176 0.501961 0.392157 0.0941176 0.501961 0.392157 
0.0941176 0.501961 0.392157 0.0941176 0.501961 0.392157 
0.0941176 0.501961 0.392157 0.0941176 0.501961 0.392157 
0.0941176 0.501961 0.392157 0.0941176 0.501961 0.392157 
0.0941176 0.501961 0.392157 0.0941176 0.501961 0.392157 