# vtk DataFile Version 4.2
vtk output
ASCII
DATASET POLYDATA
POINTS 2387 float
240.942 98.6151 120.67 240.991 98.5827 120.684 240.589 98.7123 120.761 
240.842 98.6462 120.694 240.643 98.3369 121.244 240.989 98.006 121.47 
240.42 98.5457 121.08 240.936 98.3841 120.995 237.768 99.2241 121.746 
239.07 98.9576 121.327 239.588 98.9 121.126 240.125 98.805 120.93 
238.325 99.1331 121.595 239.107 98.9814 121.335 220.965 106.596 121.51 
220.85 106.703 121.431 220.153 107.403 120.899 220.064 107.506 120.813 
220.142 107.424 120.877 221.014 106.579 121.523 220.298 107.256 121.011 
220.05 107.524 120.798 220.032 107.543 120.784 220.093 107.476 120.837 
220.214 107.346 120.94 220.027 107.549 120.778 240.454 98.165 121.552 
241.219 97.4495 122.133 240.974 98.0053 121.514 240.174 98.4852 121.336 
240.457 98.5233 121.116 240.322 98.2555 121.617 236.675 99.4915 122.021 
234.701 100.252 122.13 235.522 99.9665 122.069 236.106 99.7599 122.057 
237.018 99.4136 122.042 230.166 101.582 122.807 230.806 101.425 122.67 
233.328 100.747 122.231 233.86 100.623 122.106 234.312 100.471 122.056 
234.633 100.319 122.109 235.358 100.03 122.136 226.432 103.621 122.291 
226.663 103.574 122.212 226.782 103.528 122.196 225.805 103.897 122.342 
226.34 103.69 122.29 226.765 103.546 122.187 224.164 104.691 122.305 
224.989 104.323 122.307 222.294 105.661 122.08 223.209 105.212 122.192 
223.784 104.943 122.238 224.362 104.647 122.295 220.528 106.889 121.369 
220.589 106.938 121.27 221.532 106.176 121.796 222.441 105.578 122.195 
220.116 107.445 120.865 220.492 106.958 121.3 220.361 107.155 121.112 
220.752 106.79 121.403 220.406 107.14 121.109 221.315 106.325 121.751 
220.041 107.533 120.792 241.307 96.7802 123.082 241.777 96.4243 123.286 
240.248 97.0719 123.154 240.783 97.1722 122.75 241.626 96.7584 122.927 
238.221 98.3101 122.798 237.767 98.6489 122.563 234.491 99.9255 122.851 
232.279 100.995 122.476 232.695 100.705 122.754 233.695 100.439 122.508 
229.822 101.66 122.933 229.313 101.78 123.106 226.81 103.28 122.556 
229.238 101.815 123.204 226.785 103.505 122.239 226.807 103.406 122.38 
224.391 104.133 123.05 223.121 104.918 122.727 220.879 106.045 122.477 
220.571 106.819 121.447 220.773 106.525 121.766 220.456 107.068 121.182 
242.647 95.5519 124.218 241.122 96.6145 123.42 242.073 96.1835 123.553 
242.439 95.8101 123.935 240.696 96.9799 123.227 241.027 97.1805 122.691 
241.134 96.5338 123.759 236.466 98.6463 123.464 237.718 98.2522 123.162 
237.309 98.6397 122.959 237.931 98.6067 122.641 237.452 98.3344 123.444 
233.409 99.7569 123.912 232.875 99.9398 124.009 234.136 99.6088 123.589 
231.618 100.781 123.372 233.047 99.9414 123.998 232.009 100.745 123.226 
234.004 99.7496 123.636 233.828 100.401 122.523 226.986 102.755 123.224 
226.582 102.771 123.529 228.269 102.14 123.307 227.041 102.884 123.052 
226.8 103.275 122.611 224.457 103.319 124.247 224.395 103.48 124.092 
222.062 105.243 123.021 224.387 103.604 123.992 219.773 105.621 123.967 
219.297 105.585 124.35 220.366 105.692 123.425 219.551 105.599 124.17 
220.3 105.707 123.484 220.791 106.519 121.789 242.871 95.3969 124.374 
242.956 95.3083 124.479 242.698 95.5446 124.266 242.917 95.3702 124.408 
240.053 96.9201 124.077 236.65 98.2863 123.958 234.708 98.6467 124.71 
235.404 98.8476 124.044 236.429 98.7141 123.537 236.666 98.2554 124.24 
232.219 100.249 123.965 231.472 100.383 124.3 229.501 101.328 123.927 
226.809 102.398 124.008 225.721 102.978 123.952 226.515 102.822 123.601 
226.939 102.272 124.29 224.072 103.272 124.624 219.682 105.378 124.477 
221.088 105.282 123.682 223.705 103.468 124.812 222.141 105.291 122.953 
221.591 105.33 123.285 218.991 105.552 124.607 218.629 105.528 124.884 
218.911 105.552 124.67 245.029 93.1469 126.882 243.09 94.4299 125.954 
244.056 93.9206 126.161 244.431 93.6698 126.389 244.757 93.4184 126.614 
242.076 95.198 125.282 243.247 94.7315 125.324 242.955 95.248 124.607 
238.99 96.5757 124.976 238.195 97.0296 124.857 235.171 98.2847 124.99 
236.035 98.1585 124.692 235.183 98.6607 124.689 235.343 98.9758 124.056 
235.781 98.2832 125.052 230.991 99.8602 125.576 230.605 99.8559 125.881 
231.43 99.9566 125.049 228.351 101.486 124.509 230.627 99.9146 125.881 
229.716 101.34 123.862 228.919 101.471 124.191 231.301 99.9885 125.281 
230.628 100.953 123.884 224.554 102.657 125.173 226.203 102.317 124.658 
225.478 102.809 124.525 225.988 102.384 124.982 223.157 103.414 125.227 
222.53 103.606 125.46 219.3 105.316 124.831 220.521 105.063 124.476 
222.688 103.625 125.41 221.113 105.335 123.629 220.708 105.194 124.144 
219.031 105.433 124.812 219.531 105.466 124.432 219.187 105.284 124.993 
217.629 105.516 125.543 218.266 105.519 125.143 245.382 92.8599 127.172 
245.873 92.4366 127.568 244.979 93.2033 126.876 240.987 95.51 125.558 
243.209 93.8115 127 242.36 95.1506 125.303 241.583 95.427 125.389 
239.092 96.1871 125.711 236.787 97.2494 125.812 237.687 97.1291 125.276 
238.726 96.7347 125.211 239.075 96.1411 126.077 237.997 97.1303 125.19 
230.199 99.9083 126.1 229.711 100.024 126.262 230.523 99.5703 126.269 
227.705 101.372 125.231 229.837 100.026 126.269 228.34 101.55 124.511 
227.925 101.497 124.917 220.402 104.442 125.687 221.799 103.904 125.553 
219.075 105.02 125.503 220.667 104.63 125.149 220.545 105.003 124.588 
221.595 103.99 125.664 217.024 105.532 125.881 216.864 105.555 125.952 
217.091 105.545 125.835 246.339 91.9826 127.966 245.83 92.1638 128.033 
246.824 91.6923 128.137 247.221 91.4263 128.309 247.779 91.0155 128.578 
246.558 91.8626 128.095 242.966 93.5901 127.51 240.055 95.5856 126.218 
242.649 93.5942 127.831 241.011 95.59 125.586 237.927 96.0134 127.168 
237.454 96.1604 127.314 238.63 95.9558 126.627 236.072 97.0628 126.686 
237.581 96.1216 127.33 236.942 97.385 125.694 236.463 97.1108 126.512 
238.391 95.9707 126.949 237.416 97.2453 125.442 229.036 100.276 126.306 
227.776 100.989 125.977 227.593 101.426 125.343 228.803 100.342 126.435 
223.41 102.826 126.135 222.729 103.153 126.216 220.796 104.159 125.953 
221.031 104.016 126.055 220.871 104.098 126.029 221.412 103.823 126.103 
217.455 105.366 125.928 217.198 105.433 125.961 217.717 105.302 125.874 
218.13 105.221 125.758 220.797 104.167 125.952 219.537 104.87 125.499 
218.624 105.131 125.626 216.733 105.568 126.021 212 107.508 127.014 
212 107.508 127.014 212 107.508 127.014 212.001 107.507 127.014 
212.001 107.507 127.014 216.805 105.566 125.98 212.001 107.507 127.014 
211.999 107.508 127.014 211.999 107.508 127.014 211.999 107.508 127.014 
212 107.508 127.014 212 107.508 127.014 212.001 107.507 127.014 
211.999 107.508 127.014 212 107.508 127.014 248.578 90.1699 129.181 
248.661 89.9199 129.498 249.206 89.5465 129.546 247.899 90.584 129.06 
248.302 90.5442 128.899 248.795 90.0498 129.25 244.504 92.4031 128.564 
245.546 92.0159 128.41 247.668 91.0052 128.741 243.592 93.0231 128.127 
245.066 92.5097 127.994 245.455 92.5074 127.748 245.447 92.1373 128.431 
242.268 93.543 128.162 241.867 93.5334 128.502 238.787 95.4165 127.59 
239.339 95.5529 126.86 241.842 93.5866 128.49 240.027 95.6492 126.276 
239.578 95.5984 126.695 236.873 96.4636 127.265 236.415 96.4727 127.603 
239.287 95.6229 126.941 234.948 97.3118 127.11 232.467 98.3357 127.197 
229.975 99.5909 126.764 231.39 98.9442 126.855 228.817 100.169 126.665 
228.28 100.456 126.545 225.404 101.75 126.349 225.848 101.561 126.372 
226.436 101.329 126.337 227.498 100.903 126.345 226.531 101.332 126.349 
230.271 99.7364 126.595 224.55 102.193 126.278 223.975 102.537 126.251 
222.102 103.413 126.395 222.458 103.275 126.345 223.246 103.003 126.2 
224.128 102.545 126.256 220.982 104.052 126.042 221.28 103.896 126.118 
221.683 103.656 126.267 217.275 105.439 125.931 217.513 105.363 125.925 
217.727 105.305 125.886 218.063 105.248 125.783 217.819 105.306 125.844 
212 107.508 127.014 212.001 107.507 127.014 211.999 107.508 127.014 
212 107.508 127.014 251.611 86.98 130.54 249.979 88.0553 130.324 
250.938 87.7932 130.206 251.306 87.4538 130.35 249.407 88.9843 129.906 
250.594 88.1847 130.11 247.22 90.2436 129.8 248.449 89.6801 129.827 
248.148 89.3957 130.186 249.989 88.7956 129.972 249.298 89.5164 129.67 
247.843 90.3913 129.489 248.127 90.5166 129.102 248.45 89.8888 129.984 
249.053 89.6241 129.834 244.515 92.0376 129.14 244.391 91.9486 129.393 
242.677 93.1813 128.577 244.444 92.0056 129.356 243.949 92.9628 128.071 
243.157 93.1625 128.298 240.018 94.1107 129.028 238.769 95.4471 127.638 
238.65 95.1731 128.219 240.915 93.7626 128.932 239.112 95.5322 127.189 
236.874 95.8275 128.418 233.188 97.8518 127.517 233.565 97.7368 127.454 
236.802 95.9946 128.191 235.33 97.228 127.248 234.359 97.5564 127.318 
236.29 96.6709 127.462 236.809 96.1741 127.902 232.713 98.0479 127.541 
232.787 97.9794 127.645 232.708 98.026 127.628 230.412 99.3449 126.96 
230.719 99.2041 126.949 232.659 98.1084 127.528 231.654 98.9877 126.897 
230.876 99.1919 126.951 232.71 98.4637 127.122 228.713 100.231 126.663 
229.284 99.966 126.736 230.471 99.3564 126.956 224.992 101.969 126.381 
225.54 101.735 126.407 226.058 101.496 126.399 224.547 102.251 126.339 
225.06 102.021 126.377 221.928 103.506 126.384 222.156 103.413 126.392 
217.645 105.335 125.9 252.829 85.8416 131.033 252.91 85.6022 131.258 
252.943 85.7256 131.105 252.556 86.1475 130.898 252.823 85.9178 131.024 
252.926 85.7894 131.059 252.123 86.6209 130.72 251.646 87.2131 130.577 
252.132 86.7128 130.765 249.249 87.9393 130.883 251.212 87.7329 130.402 
251.371 87.5705 130.557 247.047 89.812 130.544 244.168 91.9108 129.631 
243.821 91.9038 129.897 242.122 93.0979 129.153 243.8 91.9749 129.894 
242.641 93.252 128.545 239.258 94.5476 128.846 232.977 97.929 127.619 
233.354 97.8501 127.53 233.798 97.7001 127.44 230.592 99.2673 126.989 
257.498 81.5511 132.876 257.515 81.5058 132.896 257.362 81.6202 132.886 
257.597 81.4521 132.938 256.112 82.6277 132.58 255.347 83.2863 132.306 
255.583 83.1158 132.354 255.881 82.8581 132.471 254.901 83.6211 132.258 
252.966 85.7028 131.177 253.234 85.2543 131.591 255.317 83.3188 132.314 
[...]
POINT_DATA 2387
COLOR_SCALARS scalars 3
0.0941176 0.501961 0.392157 0.0941176 0.501961 0.392157 0.0941176 0.501961 0.392157 
0.0941176 0.501961 0.392157 0.0941176 0.501961 0.392157 
0.0941176 0.501961 0.392157 0.0941176 0.501961 0.392157 
0.0941176 0.501961 0.392157 0.0941176 0.501961 0.392157 
0.0941176 0.501961 0.392157 0.0941176 0.501961 0.392157 
0.0941176 0.501961 0.392157 0.0941176 0.501961 0.392157 
0.0941176 0.501961 0.392157 0.0941176 0.501961 0.392157 
0.0941176 0.501961 0.392157 0.0941176 0.501961 0.392157 
0.0941176 0.501961 0.392157 0.0941176 0.501961 0.392157 
0.0941176 0.501961 0.392157 0.0941176 0.501961 0.392157 
0.0941176 0.501961 0.392157 0.0941176 0.501961 0.392157 
0.0941176 0.501961 0.392157 0.0941176 0.501961 0.392157 
0.0941176 0.501961 0.392157 0.0941176 0.501961 0.392157 
0.0941176 0.501961 0.392157 0.0941176 0.501961 0.392157 
0.0941176 0.501961 0.392157 0.0941176 0.501961 0.392157 
0.0941176 0.501961 0.392157 0.0941176 0.501961 0.392157 
0.0941176 0.501961 0.392157 0.0941176 0.501961 0.392157 
0.0941176 0.501961 0.392157 0.0941176 0.501961 0.392157 
0.0941176 0.501961 0.392157 0.0941176 0.501961 0.392157 
0.0941176 0.501961 0.392157 0.0941176 0.501961 0.392157 
0.0941176 0.501961 0.392157 0.0941176 0.501961 0.392157 
0.0941176 0.501961 0.392157 0.0941176 0.501961 0.392157 
0.0941176 0.501961 0.392157 0.0941176 0.501961 0.392157 
0.0941176 0.501961 0.392157 0.0941176 0.501961 0.392157 
0.0941176 0.501961 0.392157 0.0941176 0.501961 0.392157 
0.0941176 0.501961 0.392157 0.0941176 0.501961 0.392157 
0.0941176 0.501961 0.392157 0.0941176 0.501961 0.392157 
0.0941176 0.501961 0.392157 0.0941176 0.501961 0.392157 
0.0941176 0.501961 0.392157 0.0941176 0.501961 0.392157 
0.0941176 0.501961 0.392157 0.0941176 0.501961 0.392157 
0.0941176 0.501961 0.392157 0.0941176 0.501961 0.392157 
0.0941176 0.501961 0.392157 0.0941176 0.501961 0.392157 
0.0941176 0.501961 0.392157 0.0941176 0.501961 0.392157 
0.0941176 0.501961 0.392157 0.0941176 0.501961 0.392157 
0.0941176 0.501961 0.392157 0.0941176 0.501961 0.392157 
0.0941176 0.501961 0.392157 0.0941176 0.501961 0.392157 
0.0941176 0.501961 0.392157 0.0941176 0.501961 0.392157 
0.0941176 0.501961 0.392157 0.0941176 0.501961 0.392157 
0.0941176 0.501961 0.392157 0.0941176 0.501961 0.392157 
0.0941176 0.501961 0.392157 0.0941176 0.501961 0.392157 
0.0941176 0.501961 0.392157 0.0941176 0.501961 0.392157 
0.0941176 0.501961 0.392157 0.0941176 0.501961 0.392157 
0.0941176 0.501961 0.392157 0.0941176 0.501961 0.392157 
0.0941176 0.501961 0.392157 0.0941176 0.501961 0.392157 
0.0941176 0.501961 0.392157 0.0941176 0.501961 0.392157 
0.0941176 0.501961 0.392157 0.0941176 0.501961 0.392157 
0.0941176 0.501961 0.392157 0.0941176 0.501961 0.392157 
0.0941176 0.501961 0.392157 0.0941176 0.501961 0.392157 
0.0941176 0.501961 0.392157 0.0941176 0.501961 0.392157 
0.0941176 0.501961 0.392157 0.0941176 0.501961 0.392157 
0.0941176 0.501961 0.392157 0.0941176 0.501961 0.392157 
0.0941176 0.501961 0.392157 0.0941176 0.501961 0.392157 
0.0941176 0.501961 0.392157 0.0941176 0.501961 0.392157 
0.0941176 0.501961 0.392157 0.0941176 0.501961 0.392157 
0.0941176 0.501961 0.392157 0.0941176 0.501961 0.392157 
0.0941176 0.501961 0.392157 0.0941176 0.501961 0.392157 
0.0941176 0.501961 0.392157 0.0941176 0.501961 0.392157 
0.0941176 0.501961 0.392157 0.0941176 0.501961 0.392157 
0.0941176 0.501961 0.392157 0.0941176 0.501961 0.392157 
0.0941176 0.501961 0.392157 0.0941176 0.501961 0.392157 
0.0941176 0.501961 0.392157 0.0941176 0.501961 0.392157 
0.0941176 0.501961 0.392157 0.0941176 0.501961 0.392157 
0.0941176 0.501961 0.392157 0.0941176 0.501961 0.392157 
0.0941176 0.501961 0.392157 0.0941176 0.501961 0.392157 
0.0941176 0.501961 0.392157 0.0941176 0.501961 0.392157 
0.0941176 0.501961 0.392157 0.0941176 0.501961 0.392157 
0.0941176 0.501961 0.392157 0.0941176 0.501961 0.392157 
0.0941176 0.501961 0.392157 0.0941176 0.501961 0.392157 
0.0941176 0.501961 0.392157 0.0941176 0.501961 0.392157 
0.0941176 0.501961 0.392157 0.0941176 0.501961 0.392157 
0.0941176 0.501961 0.392157 0.0941176 0.501961 0.392157 
0.0941176 0.501961 0.392157 0.0941176 0.501961 0.392157 
0.0941176 0.501961 0.392157 0.0941176 0.501961 0.392157 
0.0941176 0.501961 0.392157 0.0941176 0.501961 0.392157 
0.0941176 0.501961 0.392157 0.0941176 0.501961 0.392157 
0.0941176 0.501961 0.392157 0.0941176 0.501961 0.392157 
0.0941176 0.501961 0.392157 0.0941176 0.501961 0.392157 
0.0941176 0.501961 0.392157 0.0941176 0.501961 0.392157 
0.0941176 0.501961 0.392157 0.0941176 0.501961 0.392157 
0.0941176 0.501961 0.392157 0.0941176 0.501961 0.392157 
0.0941176 0.501961 0.392157 0.0941176 0.501961 0.392157 
0.0941176 0.501961 0.392157 0.0941176 0.501961 0.392157 
0.0941176 0.501961 0.392157 0.0941176 0.501961 0.392157 
0.0941176 0.501961 0.392157 0.0941176 0.501961 0.392157 
0.0941176 0.501961 0.392157 0.0941176 0.501961 0.392157 
0.0941176 0.501961 0.392157 0.0941176 0.501961 0.392157 
0.0941176 0.501961 0.392157 0.0941176 0.501961 0.392157 
0.0941176 0.501961 0.392157 0.0941176 0.501961 0.392157 
0.0941176 0.501961 0.392157 0.0941176 0.501961 0.392157 
0.0941176 0.501961 0.392157 0.0941176 0.501961 0.392157 
0.0941176 0.501961 0.392157 0.0941176 0.501961 0.392157 
0.0941176 0.501961 0.392157 0.0941176 0.501961 0.392157 
0.0941176 0.501961 0.392157 0.0941176 0.501961 0.392157 
0.0941176 0.501961 0.392157 0.0941176 0.501961 0.392157 
0.0941176 0.501961 0.392157 0.0941176 0.501961 0.392157 
0.0941176 0.501961 0.392157 0.0941176 0.501961 0.392157 
0.0941176 0.501961 0.392157 0.0941176 0.501961 0.392157 
0.0941176 0.501961 0.392157 0.0941176 0.501961 0.392157 
0.0941176 0.501961 0.392157 0.0941176 0.501961 0.392157 
0.0941176 0.501961 0.392157 0.0941176 0.501961 0.392157 
0.0941176 0.501961 0.392157 0.0941176 0.501961 0.392157 
0.0941176 0.501961 0.392157 0.0941176 0.501961 0.392157 
0.0941176 0.501961 0.392157 0.0941176 0.501961 0.392157 
0.0941176 0.501961 0.392157 0.0941176 0.501961 0.392157 
0.0941176 0.501961 0.392157 0.0941176 0.501961 0.392157 
0.0941176 0.501961 0.392157 0.0941176 0.501961 0.392157 
0.0941176 0.501961 0.392157 0.0941176 0.501961 0.392157 
0.0941176 0.501961 0.392157 0.0941176 0.501961 0.392157 
0.0941176 0.501961 0.392157 0.0941176 0.501961 0.392157 
0.0941176 0.501961 0.392157 0.0941176 0.501961 0.392157 
0.0941176 0.501961 0.392157 0.0941176 0.501961 0.392157 
0.0941176 0.501961 0.392157 0.0941176 0.501961 0.392157 
0.0941176 0.501961 0.392157 0.0941176 0.501961 0.392157 
0.0941176 0.501961 0.392157 0.0941176 0.501961 0.392157 
0.0941176 0.501961 0.392157 0.0941176 0.501961 0.392157 
0.0941176 0.501961 0.392157 0.0941176 0.501961 0.392157 
0.0941176 0.501961 0.392157 0.0941176 0.501961 0.392157 
0.0941176 0.501961 0.392157 0.0941176 0.501961 0.392157 
0.0941176 0.501961 0.392157 0.0941176 0.501961 0.392157 
0.0941176 0.501961 0.392157 0.0941176 0.501961 0.392157 
0.0941176 0.501961 0.392157 0.0941176 0.501961 0.392157 
0.0941176 0.501961 0.392157 0.0941176 0.501961 0.392157 
0.0941176 0.501961 0.392157 0.0941176 0.501961 0.392157 
0.0941176 0.501961 0.392157 0.0941176 0.501961 0.392157 
0.0941176 0.501961 0.392157 0.0941176 0.501961 0.392157 
0.0941176 0.501961 0.392157 0.0941176 0.501961 0.392157 
0.0941176 0.501961 0.392157 0.0941176 0.501961 0.392157 
0.0941176 0.501961 0.392157 0.0941176 0.501961 0.392157 
0.0941176 0.501961 0.392157 0.0941176 0.501961 0.392157 
0.0941176 0.501961 0.392157 0.0941176 0.501961 0.392157 
0.0941176 0.501961 0.392157 0.0941176 0.501961 0.392157 
0.0941176 0.501961 0.392157 0.0941176 0.501961 0.392157 
0.0941176 0.501961 0.392157 0.0941176 0.501961 0.392157 
0.0941176 0.501961 0.392157 0.0941176 0.501961 0.392157 
0.0941176 0.501961 0.392157 0.0941176 0.501961 0.392157 
0.0941176 0.501961 0.392157 0.0941176 0.501961 0.392157 
0.0941176 0.501961 0.392157 0.0941176 0.501961 0.392157 
0.0941176 0.501961 0.392157 0.0941176 0.501961 0.392157 
0.0941176 0.501961 0.392157 0.0941176 0.501961 0.392157 
0.0941176 0.501961 0.392157 0.0941176 0.501961 0.392157 
0.0941176 0.501961 0.392157 0.0941176 0.501961 0.392157 
0.0941176 0.501961 0.392157 0.0941176 0.501961 0.392157 
0.0941176 0.501961 0.392157 0.0941176 0.501961 0.392157 
0.0941176 0.501961 0.392157 0.0941176 0.501961 0.392157 
0.0941176 0.501961 0.392157 0.0941176 0.501961 0.392157 
0.0941176 0.501961 0.392157 0.0941176 0.501961 0.392157 
0.0941176 0.501961 0.392157 0.0941176 0.501961 0.392157 
0.0941176 0.501961 0.392157 0.0941176 0.501961 0.392157 
0.0941176 0.501961 0.392157 0.0941176 0.501961 0.392157 
0.0941176 0.501961 0.392157 0.0941176 0.501961 0.392157 
0.0941176 0.501961 0.392157 0.0941176 0.501961 0.392157 
0.0941176 0.501961 0.392157 0.0941176 0.501961 0.392157 
0.0941176 0.501961 0.392157 0.0941176 0.501961 0.392157 
0.0941176 0.501961 0.392157 0.0941176 0.501961 0.392157 
0.0941176 0.501961 0.392157 0.0941176 0.501961 0.392157 
0.0941176 0.501961 0.392157 0.0941176 0.501961 0.392157 
0.0941176 0.501961 0.392157 0.0941176 0.501961 0.392157 
0.0941176 0.501961 0.392157 0.0941176 0.501961 0.392157 
0.0941176 0.501961 0.392157 0.0941176 0.501961 0.392157 
0.0941176 0.501961 0.392157 0.0941176 0.501961 0.392157 
0.0941176 0.501961 0.392157 0.0941176 0.501961 0.392157 
0.0941176 0.501961 0.392157 0.0941176 0.501961 0.392157 
0.0941176 0.501961 0.392157 0.0941176 0.501961 0.392157 
0.0941176 0.501961 0.392157 0.0941176 0.501961 0.392157 
0.0941176 0.501961 0.392157 0.0941176 0.501961 0.392157 
0.0941176 0.501961 0.392157 0.0941176 0.501961 0.392157 
0.0941176 0.501961 0.392157 0.0941176 0.501961 0.392157 
0.0941176 0.501961 0.392157 0.0941176 0.501961 0.392157 
0.0941176 0.501961 0.392157 0.0941176 0.501961 0.392157 
0.0941176 0.501961 0.392157 0.0941176 0.501961 0.392157 
0.0941176 0.501961 0.392157 0.0941176 0.501961 0.392157 
0.0941176 0.501961 0.392157 0.0941176 0.501961 0.392157 
0.0941176 0.501961 0.392157 0.0941176 0.501961 0.392157 
0.0941176 0.501961 0.392157 0.0941176 0.501961 0.392157 
0.0941176 0.501961 0.392157 0.0941176 0.501961 0.392157 
0.0941176 0.501961 0.392157 0.0941176 0.501961 0.392157 
0.0941176 0.501961 0.392157 0.0941176 0.501961 0.392157 
0.0941176 0.501961 0.392157 0.0941176 0.501961 0.392157 
0.0941176 0.501961 0.392157 0.0941176 0.501961 0.392157 
0.0941176 0.501961 0.392157 0.0941176 0.501961 0.392157 
0.0941176 0.501961 0.392157 0.0941176 0.501961 0.392157 
0.0941176 0.501961 0.392157 0.0941176 0.501961 0.392157 
0.0941176 0.501961 0.392157 0.0941176 0.501961 0.392157 
0.0941176 0.501961 0.392157 0.0941176 0.501961 0.392157 
0.0941176 0.501961 0.392157 0.0941176 0.501961 0.392157 
0.0941176 0.501961 0.392157 0.0941176 0.501961 0.392157 
0.0941176 0.501961 0.392157 0.0941176 0.501961 0.392157 
0.0941176 0.501961 0.392157 0.0941176 0.501961 0.392157 
0.0941176 0.501961 0.392157 0.0941176 0.501961 0.392157 
0.0941176 0.501961 0.392157 0.0941176 0.501961 0.392157 
0.0941176 0.501961 0.392157 0.0941176 0.501961 0.392157 
0.0941176 0.501961 0.392157 0.0941176 0.501961 0.392157 
0.0941176 0.501961 0.392157 0.0941176 0.501961 0.392157 
0.0941176 0.501961 0.392157 0.0941176 0.501961 0.392157 
0.0941176 0.501961 0.392157 0.0941176 0.501961 0.392157 
0.0941176 0.501961 0.392157 0.0941176 0.501961 0.392157 
0.0941176 0.501961 0.392157 0.0941176 0.501961 0.392157 
0.0941176 0.501961 0.392157 0.0941176 0.501961 0.392157 
0.0941176 0.501961 0.392157 0.0941176 0.501961 0.392157 
0.0941176 0.501961 0.392157 0.0941176 0.501961 0.392157 
0.0941176 0.501961 0.392157 0.0941176 0.501961 0.392157 
0.0941176 0.501961 0.392157 0.0941176 0.501961 0.392157 
0.0941176 0.501961 0.392157 0.0941176 0.501961 0.392157 
0.0941176 0.501961 0.392157 0.0941176 0.501961 0.392157 
0.0941176 0.501961 0.392157 0.0941176 0.501961 0.392157 
0.0941176 0.501961 0.392157 0.0941176 0.501961 0.392157 
0.0941176 0.501961 0.392157 0.0941176 0.501961 0.392157 
0.0941176 0.501961 0.392157 0.0941176 0.501961 0.392157 
0.0941176 0.501961 0.392157 0.0941176 0.501961 0.392157 
0.0941176 0.501961 0.392157 0.0941176 0.501961 0.392157 
0.0941176 0.501961 0.392157 0.0941176 0.501961 0.392157 
0.0941176 0.501961 0.392157 0.0941176 0.501961 0.392157 
0.0941176 0.501961 0.392157 0.0941176 0.501961 0.392157 
0.0941176 0.501961 0.392157 0.0941176 0.501961 0.392157 
0.0941176 0.501961 0.392157 0.0941176 0.501961 0.392157 
0.0941176 0.501961 0.392157 0.0941176 0.501961 0.392157 
0.0941176 0.501961 0.392157 0.0941176 0.501961 0.392157 
0.0941176 0.501961 0.392157 0.0941176 0.501961 0.392157 
0.0941176 0.501961 0.392157 0.0941176 0.501961 0.392157 
0.0941176 0.501961 0.392157 0.0941176 0.501961 0.392157 
0.0941176 0.501961 0.392157 0.0941176 0.501961 0.392157 
0.0941176 0.501961 0.392157 0.0941176 0.501961 0.392157 
0.0941176 0.501961 0.392157 0.0941176 0.501961 0.392157 
0.0941176 0.501961 0.392157 0.0941176 0.501961 0.392157 
0.0941176 0.501961 0.392157 0.0941176 0.501961 0.392157 
0.0941176 0.501961 0.392157 0.0941176 0.501961 0.392157 
0.0941176 0.501961 0.392157 0.0941176 0.501961 0.392157 
0.0941176 0.501961 0.392157 0.0941176 0.501961 0.392157 
0.0941176 0.501961 0.392157 0.0941176 0.501961 0.392157 
0.0941176 0.501961 0.392157 0.0941176 0.501961 0.392157 
0.0941176 0.501961 0.392157 0.0941176 0.501961 0.392157 
0.0941176 0.501961 0.392157 0.0941176 0.501961 0.392157 
0.0941176 0.501961 0.392157 0.0941176 0.501961 0.392157 
0.0941176 0.501961 0.392157 0.0941176 0.501961 0.392157 
0.0941176 0.501961 0.392157 0.0941176 0.501961 0.392157 
0.0941176 0.501961 0.392157 0.0941176 0.501961 0.392157 
0.0941176 0.501961 0.392157 0.0941176 0.501961 0.392157 
0.0941176 0.501961 0.392157 0.0941176 0.501961 0.392157 
0.0941176 0.501961 0.392157 0.0941176 0.501961 0.392157 
0.0941176 0.501961 0.392157 0.0941176 0.501961 0.392157 
0.0941176 0.501961 0.392157 0.0941176 0.501961 0.392157 
0.0941176 0.501961 0.392157 0.0941176 0.501961 0.392157 
0.0941176 0.501961 0.392157 0.0941176 0.501961 0.392157 
0.0941176 0.501961 0.392157 0.0941176 0.501961 0.392157 
0.0941176 0.501961 0.392157 0.0941176 0.501961 0.392157 
0.0941176 0.501961 0.392157 0.0941176 0.501961 0.392157 
0.0941176 0.501961 0.392157 0.0941176 0.501961 0.392157 
0.0941176 0.501961 0.392157 0.0941176 0.501961 0.392157 
0.0941176 0.501961 0.392157 0.0941176 0.501961 0.392157 
0.0941176 0.501961 0.392157 0.0941176 0.501961 0.392157 
0.0941176 0.501961 0.392157 0.0941176 0.501961 0.392157 
0.0941176 0.501961 0.392157 0.0941176 0.501961 0.392157 
0.0941176 0.501961 0.392157 0.0941176 0.501961 0.392157 
0.0941176 0.501961 0.392157 0.0941176 0.501961 0.392157 
0.0941176 0.501961 0.392157 0.0941176 0.501961 0.392157 
0.0941176 0.501961 0.392157 0.0941176 0.501961 0.392157 
0.0941176 0.501961 0.392157 0.0941176 0.501961 0.392157 
0.0941176 0.501961 0.392157 0.0941176 0.501961 0.392157 
0.0941176 0.501961 0.392157 0.0941176 0.501961 0.392157 
0.0941176 0.501961 0.392157 0.0941176 0.501961 0.392157 
0.0941176 0.501961 0.392157 0.0941176 0.501961 0.392157 
0.0941176 0.501961 0.392157 0.0941176 0.501961 0.392157 
0.0941176 0.501961 0.392157 0.0941176 0.501961 0.392157 
0.0941176 0.501961 0.392157 0.0941176 0.501961 0.392157 
0.0941176 0.501961 0.392157 0.0941176 0.501961 0.392157 
0.0941176 0.501961 0.392157 0.0941176 0.501961 0.392157 
0.0941176 0.501961 0.392157 0.0941176 0.501961 0.392157 
0.0941176 0.501961 0.392157 0.0941176 0.501961 0.392157 
0.0941176 0.501961 0.392157 0.0941176 0.501961 0.392157 
0.0941176 0.501961 0.392157 0.0941176 0.501961 0.392157 
0.0941176 0.501961 0.392157 0.0941176 0.501961 0.392157 
0.0941176 0.501961 0.392157 0.0941176 0.501961 0.392157 
0.0941176 0.501961 0.392157 0.0941176 0.501961 0.392157 
0.0941176 0.501961 0.392157 0.0941176 0.501961 0.392157 
0.0941176 0.501961 0.392157 0.0941176 0.501961 0.392157 
0.0941176 0.501961 0.392157 0.0941176 0.501961 0.392157 
0.0941176 0.501961 0.392157 0.0941176 0.501961 0.392157 
0.0941176 0.501961 0.392157 0.0941176 0.501961 0.392157 
0.0941176 0.501961 0.392157 0.0941176 0.501961 0.392157 
0.0941176 0.501961 0.392157 0.0941176 0.501961 0.392157 
0.0941176 0.501961 0.392157 0.0941176 0.501961 0.392157 
0.0941176 0.501961 0.392157 0.0941176 0.501961 0.392157 
0.0941176 0.501961 0.392157 0.0941176 0.501961 0.392157 
0.0941176 0.501961 0.392157 0.0941176 0.501961 0.392157 
0.0941176 0.501961 0.392157 0.0941176 0.501961 0.392157 
0.0941176 0.501961 0.392157 0.0941176 0.501961 0.392157 
0.0941176 0.501961 0.392157 0.0941176 0.501961 0.392157 
0.0941176 0.501961 0.392157 0.0941176 0.501961 0.392157 
0.0941176 0.501961 0.392157 0.0941176 0.501961 0.392157 
0.0941176 0.501961 0.392157 0.0941176 0.501961 0.392157 
0.0941176 0.501961 0.392157 0.0941176 0.501961 0.392157 
0.0941176 0.501961 0.392157 0.0941176 0.501961 0.392157 
0.0941176 0.501961 0.392157 0.0941176 0.501961 0.392157 
0.0941176 0.501961 0.392157 0.0941176 0.501961 0.392157 
0.0941176 0.501961 0.392157 0.0941176 0.501961 0.392157 
0.0941176 0.501961 0.392157 0.0941176 0.501961 0.392157 
0.0941176 0.501961 0.392157 0.0941176 0.501961 0.392157 
0.0941176 0.501961 0.392157 0.0941176 0.501961 0.392157 
0.0941176 0.501961 0.392157 0.0941176 0.501961 0.392157 
0.0941176 0.501961 0.392157 0.0941176 0.501961 0.392157 
0.0941176 0.501961 0.392157 0.0941176 0.501961 0.392157 
0.0941176 0.501961 0.392157 0.0941176 0.501961 0.392157 
0.0941176 0.501961 0.392157 0.0941176 0.501961 0.392157 
0.0941176 0.501961 0.392157 0.0941176 0.501961 0.392157 
0.0941176 0.501961 0.392157 0.0941176 0.501961 0.392157 
0.0941176 0.501961 0.392157 0.0941176 0.501961 0.392157 
0.0941176 0.501961 0.392157 0.0941176 0.501961 0.392157 
0.0941176 0.501961 0.392157 0.0941176 0.501961 0.392157 
0.0941176 0.501961 0.392157 0.0941176 0.501961 0.392157 
0.0941176 0.501961 0.392157 0.0941176 0.501961 0.392157 
0.0941176 0.501961 0.392157 0.0941176 0.501961 0.392157 
0.0941176 0.501961 0.392157 0.0941176 0.501961 0.392157 
0.0941176 0.501961 0.392157 0.0941176 0.501961 0.392157 
0.0941176 0.501961 0.392157 0.0941176 0.501961 0.392157 
0.0941176 0.501961 0.392157 0.0941176 0.501961 0.392157 
0.0941176 0.501961 0.392157 0.0941176 0.501961 0.392157 
0.0941176 0.501961 0.392157 0.0941176 0.501961 0.392157 
0.0941176 0.501961 0.392157 0.0941176 0.501961 0.392157 
0.0941176 0.501961 0.392157 0.0941176 0.501961 0.392157 
0.0941176 0.501961 0.392157 0.0941176 0.501961 0.392157 
0.0941176 0.501961 0.392157 0.0941176 0.501961 0.392157 
0.0941176 0.501961 0.392157 0.0941176 0.501961 0.392157 
0.0941176 0.501961 0.392157 0.0941176 0.501961 0.392157 
0.0941176 0.501961 0.392157 0.0941176 0.501961 0.392157 
0.0941176 0.501961 0.392157 0.0941176 0.501961 0.392157 
0.0941176 0.501961 0.392157 0.0941176 0.501961 0.392157 
0.0941176 0.501961 0.392157 0.0941176 0.501961 0.392157 
0.0941176 0.501961 0.392157 0.0941176 0.501961 0.392157 
0.0941176 0.501961 0.392157 0.0941176 0.501961 0.392157 
0.0941176 0.501961 0.392157 0.0941176 0.501961 0.392157 
0.0941176 0.501961 0.392157 0.0941176 0.501961 0.392157 
0.0941176 0.501961 0.392157 0.0941176 0.501961 0.392157 
0.0941176 0.501961 0.392157 0.0941176 0.501961 0.392157 
0.0941176 0.501961 0.392157 0.0941176 0.501961 0.392157 
0.0941176 0.501961 0.392157 0.0941176 0.501961 0.392157 
0.0941176 0.501961 0.392157 0.0941176 0.501961 0.392157 
0.0941176 0.501961 0.392157 0.0941176 0.501961 0.392157 
0.0941176 0.501961 0.392157 0.0941176 0.501961 0.392157 
0.0941176 0.501961 0.392157 0.0941176 0.501961 0.392157 
0.0941176 0.501961 0.392157 0.0941176 0.501961 0.392157 
0.0941176 0.501961 0.392157 0.0941176 0.501961 0.392157 
0.0941176 0.501961 0.392157 0.0941176 0.501961 0.392157 
0.0941176 0.501961 0.392157 0.0941176 0.501961 0.392157 
0.0941176 0.501961 0.392157 0.0941176 0.501961 0.392157 
0.0941176 0.501961 0.392157 0.0941176 0.501961 0.392157 
0.0941176 0.501961 0.392157 0.0941176 0.501961 0.392157 
0.0941176 0.501961 0.392157 0.0941176 0.501961 0.392157 
0.0941176 0.501961 0.392157 0.0941176 0.501961 0.392157 
0.0941176 0.501961 0.392157 0.0941176 0.501961 0.392157 