# vtk DataFile Version 4.2
vtk output
ASCII
DATASET POLYDATA
POINTS 2238 float
223.396 59.1809 91.0019 223.388 59.0809 91.0275 223.222 59.1414 91.0044 
223.608 59.147 91.1681 223.284 59.3815 91.0255 223.247 58.8847 91.1465 
223.223 58.5346 91.327 221.953 59.0718 91.1851 220.926 59.8101 91.2473 
222.472 59.8336 91.0444 223.265 60.248 91.1174 224.168 59.8872 91.4075 
221.251 60.1755 91.2339 223.763 60.6036 91.3053 224.517 60.2669 91.7124 
200.673 69.2942 91.5615 200.589 69.0947 91.7044 200.485 69.3964 91.6736 
200.569 69.4823 91.5267 200.505 69.5197 91.5592 200.54 69.5647 91.5414 
200.662 69.6193 91.5856 220.35 59.3591 91.5079 224.398 58.8247 91.8176 
224.364 59.1754 91.6345 219.619 60.0041 91.64 220.494 60.6308 91.4717 
225.202 60.8059 92.3605 224.367 61.4606 91.8865 224.81 61.5416 92.1834 
201.145 68.1846 92.0289 200.427 69.194 91.7622 200.451 68.9731 91.9621 
200.375 69.1789 91.8514 201.237 69.0476 91.6599 200.545 69.6143 91.6828 
200.385 69.3244 91.8415 200.43 69.6206 92.1215 200.817 69.931 91.8812 
201.316 69.912 91.8321 201.059 71.4444 92.3877 201.002 71.3787 92.4709 
201.04 71.4883 92.4315 201.093 71.2558 92.4042 201.312 71.3324 92.4059 
201.107 71.5254 92.4387 201.304 71.6097 92.5794 222.361 57.2705 92.3451 
224.475 58.1024 92.4009 225.084 58.8775 92.643 215.304 61.1573 92.9121 
220.53 61.752 91.8623 207.803 63.5721 93.0998 209.584 63.1848 93.1461 
205.387 64.6723 93.0205 207.054 65.0114 92.732 207.371 65.5719 92.6972 
200.558 68.3988 92.3438 200.4 68.0662 92.7406 200.356 69.2236 92.0106 
200.278 69.0197 92.4739 203.074 68.8767 91.9764 201.301 70.7214 92.2468 
201.072 71.5147 92.5863 200.572 70.5585 92.6609 200.846 71.0812 92.7428 
201.243 71.8756 93.074 201.995 72.541 93.2723 224.126 57.0983 93.1026 
219.564 57.3618 93.1849 215.555 60.4685 93.0381 213.35 61.2997 93.4292 
216.007 61.2925 92.8399 225.65 60.3191 92.9189 207.105 63.282 93.3929 
210.297 63.3304 93.1647 213.397 63.0014 93.3045 214.549 62.835 93.2706 
199.854 68.3797 93.5842 199.963 69.0425 93.3503 205.883 69.2257 92.9716 
205.051 69.9736 92.9022 200.271 70.3756 93.1921 201.644 72.6111 93.496 
202.376 72.993 93.6384 201.953 73.2289 93.7264 201.996 73.3369 93.8058 
209.802 61.5543 93.9868 226.071 60.4705 93.6216 214.27 64.1377 93.6318 
226.478 64.5745 94.8158 222.905 65.4624 94.1538 226.295 65.807 95.1123 
206.872 69.598 93.5041 201.703 73.0388 94.0054 201.747 73.258 94.389 
202.203 73.5514 94.3051 202.636 74.0345 94.6245 202.004 76.0131 94.0087 
202.004 76.0132 94.0087 202.004 76.0132 94.0087 202.004 76.0131 94.0088 
202.004 76.0132 94.0088 214.395 58.2529 95.0164 207.5 61.404 94.9923 
227.016 62.1819 95.2458 226.712 63.523 94.7985 199.581 66.0193 95.2793 
225.336 66.1848 94.8979 227.24 65.6646 95.8414 198.964 68.2886 95.623 
226.334 67.2116 95.8065 227.268 66.8599 96.2943 201.136 73 95.6178 
202.082 74.0563 95.4178 202.004 76.0131 94.0088 202.698 74.6578 95.462 
203.992 75.4612 95.6401 203.552 76.1999 96.3541 203.857 76.3733 96.3274 
204.132 76.375 96.2969 198.738 65.6346 96.402 198.474 65.8188 96.5496 
198.209 66.0613 96.7571 215.94 66.6587 95.1765 198.363 66.6519 96.479 
198.58 67.5114 96.1884 201.169 73.2334 96.2213 203.74 76.8128 96.99 
226.392 53.9015 97.3972 197.896 65.5136 97.3139 197.65 65.6772 97.4656 
197.399 65.9453 97.6514 198.404 68.763 96.9828 227.96 69.8575 98.0925 
210.471 71.9944 96.2751 205.548 77.3304 97.2024 204 80.0087 97.0174 
204 80.0087 97.0175 204 80.0088 97.0175 204 80.0088 97.0175 
204 80.0088 97.0175 197.106 65.2629 98.3562 196.542 65.6588 98.6246 
196.856 66.4892 98.1182 197.227 67.2221 97.8232 197.309 67.751 97.9129 
227.074 70.74 98.1408 226.832 71.0682 98.2842 200.9 73.4202 98.0566 
204 80.0087 97.0175 204.875 78.9016 98.9997 205.463 79.7235 99.3323 
227.592 50.6938 100.148 228.249 50.6661 100.44 228.439 52.1345 99.6268 
206.568 59.5285 98.5173 196.838 64.6977 99.2923 194.178 66.213 100.172 
194.1 66.4162 100.136 194.184 66.7329 100.01 196.424 67.2991 98.5901 
197.337 68.7488 98.4976 206.655 80.4799 99.6229 227.339 50.1246 100.765 
228.897 53.4574 99.5516 205.325 59.646 99.7472 194.549 65.7523 100.261 
193.833 66.5424 100.42 192.317 67.6704 100.755 192.197 67.7246 100.855 
192.13 67.7518 100.799 195.592 67.3891 99.2141 189 68.0087 100.017 
189 68.0087 100.017 189 68.0088 100.017 192.149 67.8397 100.803 
189 68.0088 100.017 192.179 68.0813 100.856 189 68.0088 100.017 
229.759 69.4138 99.7426 229.931 54.4791 100.479 209.516 57.3435 100.288 
195.908 64.866 100.705 195.747 65.0144 101.061 195.456 65.1192 100.836 
194.535 65.7571 100.746 193.633 66.7057 101.028 192.082 67.8117 100.839 
192.072 67.9645 100.953 189 68.0087 100.018 191.839 68.372 101.102 
191.961 68.2683 101.008 191.812 68.5165 101.163 191.805 68.6291 101.197 
192.226 68.8946 101.364 191.816 68.6594 101.18 199.994 73.34 100.514 
230.361 74.83 102.003 207.83 82.4826 101.264 207.571 83.3659 102.014 
207.872 83.6253 102.294 207.412 83.3355 102.04 226.449 49.196 102.116 
216.831 53.173 101.718 208.429 57.6637 101.706 195.853 65.1732 101.5 
194.033 66.4293 101.291 191.947 68.6345 101.306 192.225 68.7981 101.566 
191.893 68.7083 101.24 192.424 69.1382 101.71 192.768 69.5428 101.856 
193.285 70.162 102.097 194.704 70.5002 101.566 200.773 74.9166 101.548 
231.457 74.7395 102.919 229.037 76.3602 102.273 207.004 86.0131 102.009 
207.004 86.0131 102.009 207.004 86.0132 102.009 207.004 86.0131 102.009 
207.004 86.0132 102.009 232.474 47.8466 103.896 232.187 47.1811 104.18 
232.555 49.3175 103.447 206.617 58.8528 102.151 200.452 62.7288 102.175 
195.056 66.4381 102.236 193.244 68.2443 102.16 193.952 68.6327 102.916 
192.681 69.3339 102.024 193.063 69.9863 102.5 193.358 69.4784 102.792 
193.136 70.5606 102.945 193.118 70.8624 103.041 193.14 70.7222 102.849 
193.337 70.6949 102.594 193.16 71.0199 103.04 193.187 71.0708 103.168 
193.289 71.2415 103.171 193.628 71.6249 103.296 222.748 76.1 102.161 
231.147 77.2219 103.595 207.467 84.2328 103.63 207.004 86.0131 102.009 
208.555 84.7936 103.33 209.575 84.9467 103.412 208.626 85.3589 103.811 
233.379 46.622 104.753 233.483 47.6701 104.377 217.711 52.2879 103.248 
215.208 53.7376 103.837 215.849 53.332 103.456 210.283 56.8448 103.416 
205.323 60.1942 103.236 203.977 62.2799 104.209 197.866 66.0408 103.561 
193.397 71.2903 103.383 193.602 71.405 103.673 193.898 72.184 103.815 
194.24 72.6567 104.168 194.626 73.4989 104.534 194.613 72.9914 103.95 
195.583 73.8252 104.053 200.106 75.5455 103.317 231.298 78.6155 104.406 
230.349 78.9839 104.328 207.103 84.1134 104.162 211.59 85.4742 104.098 
209.75 86.2963 104.543 210.369 86.4644 104.567 209.78 87.1592 105.256 
210.222 87.4494 105.348 233.74 45.947 105.354 235.141 46.0167 105.732 
235.658 46.1977 105.867 225.834 47.9846 104.534 235.209 48.043 105.322 
234.162 49.5059 104.561 217.15 52.5504 104.055 213.749 55.1415 104.872 
198.423 68.6058 105.132 194.632 73.1651 104.919 194.583 73.9543 105.164 
194.541 74.3071 105.2 194.595 73.967 104.972 194.582 74.3853 105.096 
194.538 74.5493 105.231 194.879 74.3896 104.911 199.181 75.4084 103.827 
194.598 74.616 105.163 194.587 74.7363 105.3 194.997 75.0186 105.355 
194.594 74.7605 105.242 231.218 80.3021 105.344 208.828 86.7275 105.738 
209.95 88.1602 106.185 231.891 45.2839 105.846 224.341 48.3822 105.551 
217.088 52.7152 104.884 210.776 58.7626 105.547 194.777 74.9079 105.458 
194.685 74.8552 105.31 199.63 76.4164 104.556 195.265 75.5311 105.882 
195.334 75.5845 105.816 195.892 75.9609 106.086 195.323 75.6545 105.907 
229.745 81.3812 105.889 223.945 48.4696 107.002 222.121 49.6712 106.589 
221.755 49.9119 106.408 219.244 52.6215 107.22 196.334 73.2561 106.201 
195.398 75.3759 106.013 195.944 75.7371 106.524 195.423 75.6732 105.97 
196.328 76.537 106.885 196.404 76.6857 106.618 196.525 76.9678 106.923 
196.761 77.1341 106.823 196.745 77.2929 107.115 225.616 82.4835 106.873 
233.968 83.1434 107.873 209.315 87.9471 106.754 211.365 89.8415 107.348 
238.59 42.8809 108.431 238.889 44.2731 107.984 230.113 44.6693 108.322 
231.84 44.2513 107.556 239.498 44.7028 108.21 223.648 48.7697 107.321 
238.655 47.7505 107.762 221.793 49.9737 106.777 221.755 50.1762 107.099 
234.446 67.4653 107.221 196.881 76.6833 107.661 197.203 76.5544 107.883 
196.832 77.0202 107.644 196.901 77.5147 107.448 197.24 77.9617 107.622 
197.18 77.9033 107.817 197.631 78.2666 107.601 198.235 78.5926 107.517 
197.542 78.3734 108.019 198.08 78.947 108.133 224.812 83.1826 107.301 
232.434 83.8614 107.793 233.219 83.8151 107.923 235.091 83.0141 108.658 
211.553 91.4737 108.967 232.542 43.4411 108.719 230.164 44.5065 108.857 
228.469 45.5827 108.496 239.895 47.2222 108.598 197.025 77.5085 107.801 
197.667 77.8866 108.454 197.958 78.9881 108.743 198.14 78.4462 108.938 
198.019 79.7929 109.073 198.218 79.5347 108.686 198.318 80.1704 109.313 
199.129 80.3211 108.908 203.032 82.2481 108.67 204.85 83.6898 108.651 
234.045 85.7543 109.331 243.013 39.9417 111.023 244.021 39.734 111.316 
242.859 41.9014 110.26 243.344 42.0466 110.444 232.307 43.3775 109.174 
232.363 43.247 109.712 229.685 44.8437 109.477 227.11 46.8233 109.24 
241.334 46.6825 109.519 225.989 48.1507 109.718 198.222 79.7941 109.263 
198.835 79.2187 109.594 198.444 80.2498 109.535 200.166 81.0781 109.491 
198.585 80.5411 109.631 199.562 81.1375 109.862 199.994 81.3197 110.307 
200.389 81.2864 110.169 200.75 81.867 110.307 200.875 81.6216 109.725 
199.242 81.1838 110.064 199.809 81.6913 110.424 201.366 82.2887 109.956 
214.058 93.5627 110.05 213.582 94.4037 110.921 214.068 94.8377 111.078 
213.687 94.7908 111.217 245.835 38.3309 112.204 242.127 39.5106 111.331 
241.481 39.4552 111.442 244.277 39.0843 111.753 239.115 40.2777 110.919 
244.9 40.9602 111.252 230.858 44.1394 110.548 229.561 45.1663 110.12 
227.583 48.0665 111.072 236.291 75.4416 110.268 199.593 80.1151 110.157 
199.546 80.8945 110.303 200.094 80.6399 110.386 200.585 81.1397 110.764 
198.862 80.8324 109.879 199.152 81.0062 110.143 199.795 81.9652 110.823 
200.015 81.5557 110.747 200.355 81.9554 110.601 200.271 81.5352 110.731 
[...]
POINT_DATA 2238
COLOR_SCALARS scalars 3
0.0941176 0.501961 0.392157 0.0941176 0.501961 0.392157 0.0941176 0.501961 0.392157 
0.0941176 0.501961 0.392157 0.0941176 0.501961 0.392157 
0.0941176 0.501961 0.392157 0.0941176 0.501961 0.392157 
0.0941176 0.501961 0.392157 0.0941176 0.501961 0.392157 
0.0941176 0.501961 0.392157 0.0941176 0.501961 0.392157 
0.0941176 0.501961 0.392157 0.0941176 0.501961 0.392157 
0.0941176 0.501961 0.392157 0.0941176 0.501961 0.392157 
0.0941176 0.501961 0.392157 0.0941176 0.501961 0.392157 
0.0941176 0.501961 0.392157 0.0941176 0.501961 0.392157 
0.0941176 0.501961 0.392157 0.0941176 0.501961 0.392157 
0.0941176 0.501961 0.392157 0.0941176 0.501961 0.392157 
0.0941176 0.501961 0.392157 0.0941176 0.501961 0.392157 
0.0941176 0.501961 0.392157 0.0941176 0.501961 0.392157 
0.0941176 0.501961 0.392157 0.0941176 0.501961 0.392157 
0.0941176 0.501961 0.392157 0.0941176 0.501961 0.392157 
0.0941176 0.501961 0.392157 0.0941176 0.501961 0.392157 
0.0941176 0.501961 0.392157 0.0941176 0.501961 0.392157 
0.0941176 0.501961 0.392157 0.0941176 0.501961 0.392157 
0.0941176 0.501961 0.392157 0.0941176 0.501961 0.392157 
0.0941176 0.501961 0.392157 0.0941176 0.501961 0.392157 
0.0941176 0.501961 0.392157 0.0941176 0.501961 0.392157 
0.0941176 0.501961 0.392157 0.0941176 0.501961 0.392157 
0.0941176 0.501961 0.392157 0.0941176 0.501961 0.392157 
0.0941176 0.501961 0.392157 0.0941176 0.501961 0.392157 
0.0941176 0.501961 0.392157 0.0941176 0.501961 0.392157 
0.0941176 0.501961 0.392157 0.0941176 0.501961 0.392157 
0.0941176 0.501961 0.392157 0.0941176 0.501961 0.392157 
0.0941176 0.501961 0.392157 0.0941176 0.501961 0.392157 
0.0941176 0.501961 0.392157 0.0941176 0.501961 0.392157 
0.0941176 0.501961 0.392157 0.0941176 0.501961 0.392157 
0.0941176 0.501961 0.392157 0.0941176 0.501961 0.392157 
0.0941176 0.501961 0.392157 0.0941176 0.501961 0.392157 
0.0941176 0.501961 0.392157 0.0941176 0.501961 0.392157 
0.0941176 0.501961 0.392157 0.0941176 0.501961 0.392157 
0.0941176 0.501961 0.392157 0.0941176 0.501961 0.392157 
0.0941176 0.501961 0.392157 0.0941176 0.501961 0.392157 
0.0941176 0.501961 0.392157 0.0941176 0.501961 0.392157 
0.0941176 0.501961 0.392157 0.0941176 0.501961 0.392157 
0.0941176 0.501961 0.392157 0.0941176 0.501961 0.392157 
0.0941176 0.501961 0.392157 0.0941176 0.501961 0.392157 
0.0941176 0.501961 0.392157 0.0941176 0.501961 0.392157 
0.0941176 0.501961 0.392157 0.0941176 0.501961 0.392157 
0.0941176 0.501961 0.392157 0.0941176 0.501961 0.392157 
0.0941176 0.501961 0.392157 0.0941176 0.501961 0.392157 
0.0941176 0.501961 0.392157 0.0941176 0.501961 0.392157 
0.0941176 0.501961 0.392157 0.0941176 0.501961 0.392157 
0.0941176 0.501961 0.392157 0.0941176 0.501961 0.392157 
0.0941176 0.501961 0.392157 0.0941176 0.501961 0.392157 
0.0941176 0.501961 0.392157 0.0941176 0.501961 0.392157 
0.0941176 0.501961 0.392157 0.0941176 0.501961 0.392157 
0.0941176 0.501961 0.392157 0.0941176 0.501961 0.392157 
0.0941176 0.501961 0.392157 0.0941176 0.501961 0.392157 
0.0941176 0.501961 0.392157 0.0941176 0.501961 0.392157 
0.0941176 0.501961 0.392157 0.0941176 0.501961 0.392157 
0.0941176 0.501961 0.392157 0.0941176 0.501961 0.392157 
0.0941176 0.501961 0.392157 0.0941176 0.501961 0.392157 
0.0941176 0.501961 0.392157 0.0941176 0.501961 0.392157 
0.0941176 0.501961 0.392157 0.0941176 0.501961 0.392157 
0.0941176 0.501961 0.392157 0.0941176 0.501961 0.392157 
0.0941176 0.501961 0.392157 0.0941176 0.501961 0.392157 
0.0941176 0.501961 0.392157 0.0941176 0.501961 0.392157 
0.0941176 0.501961 0.392157 0.0941176 0.501961 0.392157 
0.0941176 0.501961 0.392157 0.0941176 0.501961 0.392157 
0.0941176 0.501961 0.392157 0.0941176 0.501961 0.392157 
0.0941176 0.501961 0.392157 0.0941176 0.501961 0.392157 
0.0941176 0.501961 0.392157 0.0941176 0.501961 0.392157 
0.0941176 0.501961 0.392157 0.0941176 0.501961 0.392157 
0.0941176 0.501961 0.392157 0.0941176 0.501961 0.392157 
0.0941176 0.501961 0.392157 0.0941176 0.501961 0.392157 
0.0941176 0.501961 0.392157 0.0941176 0.501961 0.392157 
0.0941176 0.501961 0.392157 0.0941176 0.501961 0.392157 
0.0941176 0.501961 0.392157 0.0941176 0.501961 0.392157 
0.0941176 0.501961 0.392157 0.0941176 0.501961 0.392157 
0.0941176 0.501961 0.392157 0.0941176 0.501961 0.392157 
0.0941176 0.501961 0.392157 0.0941176 0.501961 0.392157 
0.0941176 0.501961 0.392157 0.0941176 0.501961 0.392157 
0.0941176 0.501961 0.392157 0.0941176 0.501961 0.392157 
0.0941176 0.501961 0.392157 0.0941176 0.501961 0.392157 
0.0941176 0.501961 0.392157 0.0941176 0.501961 0.392157 
0.0941176 0.501961 0.392157 0.0941176 0.501961 0.392157 
0.0941176 0.501961 0.392157 0.0941176 0.501961 0.392157 
0.0941176 0.501961 0.392157 0.0941176 0.501961 0.392157 
0.0941176 0.501961 0.392157 0.0941176 0.501961 0.392157 
0.0941176 0.501961 0.392157 0.0941176 0.501961 0.392157 
0.0941176 0.501961 0.392157 0.0941176 0.501961 0.392157 
0.0941176 0.501961 0.392157 0.0941176 0.501961 0.392157 
0.0941176 0.501961 0.392157 0.0941176 0.501961 0.392157 
0.0941176 0.501961 0.392157 0.0941176 0.501961 0.392157 
0.0941176 0.501961 0.392157 0.0941176 0.501961 0.392157 
0.0941176 0.501961 0.392157 0.0941176 0.501961 0.392157 
0.0941176 0.501961 0.392157 0.0941176 0.501961 0.392157 
0.0941176 0.501961 0.392157 0.0941176 0.501961 0.392157 
0.0941176 0.501961 0.392157 0.0941176 0.501961 0.392157 
0.0941176 0.501961 0.392157 0.0941176 0.501961 0.392157 
0.0941176 0.501961 0.392157 0.0941176 0.501961 0.392157 
0.0941176 0.501961 0.392157 0.0941176 0.501961 0.392157 
0.0941176 0.501961 0.392157 0.0941176 0.501961 0.392157 
0.0941176 0.501961 0.392157 0.0941176 0.501961 0.392157 
0.0941176 0.501961 0.392157 0.0941176 0.501961 0.392157 
0.0941176 0.501961 0.392157 0.0941176 0.501961 0.392157 
0.0941176 0.501961 0.392157 0.0941176 0.501961 0.392157 
0.0941176 0.501961 0.392157 0.0941176 0.501961 0.392157 
0.0941176 0.501961 0.392157 0.0941176 0.501961 0.392157 
0.0941176 0.501961 0.392157 0.0941176 0.501961 0.392157 
0.0941176 0.501961 0.392157 0.0941176 0.501961 0.392157 
0.0941176 0.501961 0.392157 0.0941176 0.501961 0.392157 
0.0941176 0.501961 0.392157 0.0941176 0.501961 0.392157 
0.0941176 0.501961 0.392157 0.0941176 0.501961 0.392157 
0.0941176 0.501961 0.392157 0.0941176 0.501961 0.392157 
0.0941176 0.501961 0.392157 0.0941176 0.501961 0.392157 
0.0941176 0.501961 0.392157 0.0941176 0.501961 0.392157 
0.0941176 0.501961 0.392157 0.0941176 0.501961 0.392157 
0.0941176 0.501961 0.392157 0.0941176 0.501961 0.392157 
0.0941176 0.501961 0.392157 0.0941176 0.501961 0.392157 
0.0941176 0.501961 0.392157 0.0941176 0.501961 0.392157 
0.0941176 0.501961 0.392157 0.0941176 0.501961 0.392157 
0.0941176 0.501961 0.392157 0.0941176 0.501961 0.392157 
0.0941176 0.501961 0.392157 0.0941176 0.501961 0.392157 
0.0941176 0.501961 0.392157 0.0941176 0.501961 0.392157 
0.0941176 0.501961 0.392157 0.0941176 0.501961 0.392157 
0.0941176 0.501961 0.392157 0.0941176 0.501961 0.392157 
0.0941176 0.501961 0.392157 0.0941176 0.501961 0.392157 
0.0941176 0.501961 0.392157 0.0941176 0.501961 0.392157 
0.0941176 0.501961 0.392157 0.0941176 0.501961 0.392157 
0.0941176 0.501961 0.392157 0.0941176 0.501961 0.392157 
0.0941176 0.501961 0.392157 0.0941176 0.501961 0.392157 
0.0941176 0.501961 0.392157 0.0941176 0.501961 0.392157 
0.0941176 0.501961 0.392157 0.0941176 0.501961 0.392157 
0.0941176 0.501961 0.392157 0.0941176 0.501961 0.392157 
0.0941176 0.501961 0.392157 0.0941176 0.501961 0.392157 
0.0941176 0.501961 0.392157 0.0941176 0.501961 0.392157 
0.0941176 0.501961 0.392157 0.0941176 0.501961 0.392157 
0.0941176 0.501961 0.392157 0.0941176 0.501961 0.392157 
0.0941176 0.501961 0.392157 0.0941176 0.501961 0.392157 
0.0941176 0.501961 0.392157 0.0941176 0.501961 0.392157 
0.0941176 0.501961 0.392157 0.0941176 0.501961 0.392157 
0.0941176 0.501961 0.392157 0.0941176 0.501961 0.392157 
0.0941176 0.501961 0.392157 0.0941176 0.501961 0.392157 
0.0941176 0.501961 0.392157 0.0941176 0.501961 0.392157 
0.0941176 0.501961 0.392157 0.0941176 0.501961 0.392157 
0.0941176 0.501961 0.392157 0.0941176 0.501961 0.392157 
0.0941176 0.501961 0.392157 0.0941176 0.501961 0.392157 
0.0941176 0.501961 0.392157 0.0941176 0.501961 0.392157 
0.0941176 0.501961 0.392157 0.0941176 0.501961 0.392157 
0.0941176 0.501961 0.392157 0.0941176 0.501961 0.392157 
0.0941176 0.501961 0.392157 0.0941176 0.501961 0.392157 
0.0941176 0.501961 0.392157 0.0941176 0.501961 0.392157 
0.0941176 0.501961 0.392157 0.0941176 0.501961 0.392157 
0.0941176 0.501961 0.392157 0.0941176 0.501961 0.392157 
0.0941176 0.501961 0.392157 0.0941176 0.501961 0.392157 
0.0941176 0.501961 0.392157 0.0941176 0.501961 0.392157 
0.0941176 0.501961 0.392157 0.0941176 0.501961 0.392157 
0.0941176 0.501961 0.392157 0.0941176 0.501961 0.392157 
0.0941176 0.501961 0.392157 0.0941176 0.501961 0.392157 
0.0941176 0.501961 0.392157 0.0941176 0.501961 0.392157 
0.0941176 0.501961 0.392157 0.0941176 0.501961 0.392157 
0.0941176 0.501961 0.392157 0.0941176 0.501961 0.392157 
0.0941176 0.501961 0.392157 0.0941176 0.501961 0.392157 
0.0941176 0.501961 0.392157 0.0941176 0.501961 0.392157 
0.0941176 0.501961 0.392157 0.0941176 0.501961 0.392157 
0.0941176 0.501961 0.392157 0.0941176 0.501961 0.392157 
0.0941176 0.501961 0.392157 0.0941176 0.501961 0.392157 
0.0941176 0.501961 0.392157 0.0941176 0.501961 0.392157 
0.0941176 0.501961 0.392157 0.0941176 0.501961 0.392157 
0.0941176 0.501961 0.392157 0.0941176 0.501961 0.392157 
0.0941176 0.501961 0.392157 0.0941176 0.501961 0.392157 
0.0941176 0.501961 0.392157 0.0941176 0.501961 0.392157 
0.0941176 0.501961 0.392157 0.0941176 0.501961 0.392157 
0.0941176 0.501961 0.392157 0.0941176 0.501961 0.392157 
0.0941176 0.501961 0.392157 0.0941176 0.501961 0.392157 
0.0941176 0.501961 0.392157 0.0941176 0.501961 0.392157 
0.0941176 0.501961 0.392157 0.0941176 0.501961 0.392157 
0.0941176 0.501961 0.392157 0.0941176 0.501961 0.392157 
0.0941176 0.501961 0.392157 0.0941176 0.501961 0.392157 
0.0941176 0.501961 0.392157 0.0941176 0.501961 0.392157 
0.0941176 0.501961 0.392157 0.0941176 0.501961 0.392157 
0.0941176 0.501961 0.392157 0.0941176 0.501961 0.392157 
0.0941176 0.501961 0.392157 0.0941176 0.501961 0.392157 
0.0941176 0.501961 0.392157 0.0941176 0.501961 0.392157 
0.0941176 0.501961 0.392157 0.0941176 0.501961 0.392157 
0.0941176 0.501961 0.392157 0.0941176 0.501961 0.392157 
0.0941176 0.501961 0.392157 0.0941176 0.501961 0.392157 
0.0941176 0.501961 0.392157 0.0941176 0.501961 0.392157 
0.0941176 0.501961 0.392157 0.0941176 0.501961 0.392157 
0.0941176 0.501961 0.392157 0.0941176 0.501961 0.392157 
0.0941176 0.501961 0.392157 0.0941176 0.501961 0.392157 
0.0941176 0.501961 0.392157 0.0941176 0.501961 0.392157 
0.0941176 0.501961 0.392157 0.0941176 0.501961 0.392157 
0.0941176 0.501961 0.392157 0.0941176 0.501961 0.392157 
0.0941176 0.501961 0.392157 0.0941176 0.501961 0.392157 
0.0941176 0.501961 0.392157 0.0941176 0.501961 0.392157 
0.0941176 0.501961 0.392157 0.0941176 0.501961 0.392157 
0.0941176 0.501961 0.392157 0.0941176 0.501961 0.392157 
0.0941176 0.501961 0.392157 0.0941176 0.501961 0.392157 
0.0941176 0.501961 0.392157 0.0941176 0.501961 0.392157 
0.0941176 0.501961 0.392157 0.0941176 0.501961 0.392157 
0.0941176 0.501961 0.392157 0.0941176 0.501961 0.392157 
0.0941176 0.501961 0.392157 0.0941176 0.501961 0.392157 
0.0941176 0.501961 0.392157 0.0941176 0.501961 0.392157 
0.0941176 0.501961 0.392157 0.0941176 0.501961 0.392157 
0.0941176 0.501961 0.392157 0.0941176 0.501961 0.392157 
0.0941176 0.501961 0.392157 0.0941176 0.501961 0.392157 
0.0941176 0.501961 0.392157 0.0941176 0.501961 0.392157 
0.0941176 0.501961 0.392157 0.0941176 0.501961 0.392157 
0.0941176 0.501961 0.392157 0.0941176 0.501961 0.392157 
0.0941176 0.501961 0.392157 0.0941176 0.501961 0.392157 
0.0941176 0.501961 0.392157 0.0941176 0.501961 0.392157 
0.0941176 0.501961 0.392157 0.0941176 0.501961 0.392157 
0.0941176 0.501961 0.392157 0.0941176 0.501961 0.392157 
0.0941176 0.501961 0.392157 0.0941176 0.501961 0.392157 
0.0941176 0.501961 0.392157 0.0941176 0.501961 0.392157 
0.0941176 0.501961 0.392157 0.0941176 0.501961 0.392157 
0.0941176 0.501961 0.392157 0.0941176 0.501961 0.392157 
0.0941176 0.501961 0.392157 0.0941176 0.501961 0.392157 
0.0941176 0.501961 0.392157 0.0941176 0.501961 0.392157 
0.0941176 0.501961 0.392157 0.0941176 0.501961 0.392157 
0.0941176 0.501961 0.392157 0.0941176 0.501961 0.392157 
0.0941176 0.501961 0.392157 0.0941176 0.501961 0.392157 
0.0941176 0.501961 0.392157 0.0941176 0.501961 0.392157 
0.0941176 0.501961 0.392157 0.0941176 0.501961 0.392157 
0.0941176 0.501961 0.392157 0.0941176 0.501961 0.392157 
0.0941176 0.501961 0.392157 0.0941176 0.501961 0.392157 
0.0941176 0.501961 0.392157 0.0941176 0.501961 0.392157 
0.0941176 0.501961 0.392157 0.0941176 0.501961 0.392157 
0.0941176 0.501961 0.392157 0.0941176 0.501961 0.392157 
0.0941176 0.501961 0.392157 0.0941176 0.501961 0.392157 
0.0941176 0.501961 0.392157 0.0941176 0.501961 0.392157 
0.0941176 0.501961 0.392157 0.0941176 0.501961 0.392157 
0.0941176 0.501961 0.392157 0.0941176 0.501961 0.392157 
0.0941176 0.501961 0.392157 0.0941176 0.501961 0.392157 
0.0941176 0.501961 0.392157 0.0941176 0.501961 0.392157 
0.0941176 0.501961 0.392157 0.0941176 0.501961 0.392157 
0.0941176 0.501961 0.392157 0.0941176 0.501961 0.392157 
0.0941176 0.501961 0.392157 0.0941176 0.501961 0.392157 
0.0941176 0.501961 0.392157 0.0941176 0.501961 0.392157 
0.0941176 0.501961 0.392157 0.0941176 0.501961 0.392157 
0.0941176 0.501961 0.392157 0.0941176 0.501961 0.392157 
0.0941176 0.501961 0.392157 0.0941176 0.501961 0.392157 
0.0941176 0.501961 0.392157 0.0941176 0.501961 0.392157 
0.0941176 0.501961 0.392157 0.0941176 0.501961 0.392157 
0.0941176 0.501961 0.392157 0.0941176 0.501961 0.392157 
0.0941176 0.501961 0.392157 0.0941176 0.501961 0.392157 
0.0941176 0.501961 0.392157 0.0941176 0.501961 0.392157 
0.0941176 0.501961 0.392157 0.0941176 0.501961 0.392157 
0.0941176 0.501961 0.392157 0.0941176 0.501961 0.392157 
0.0941176 0.501961 0.392157 0.0941176 0.501961 0.392157 
0.0941176 0.501961 0.392157 0.0941176 0.501961 0.392157 
0.0941176 0.501961 0.392157 0.0941176 0.501961 0.392157 
0.0941176 0.501961 0.392157 0.0941176 0.501961 0.392157 
0.0941176 0.501961 0.392157 0.0941176 0.501961 0.392157 
0.0941176 0.501961 0.392157 0.0941176 0.501961 0.392157 
0.0941176 0.501961 0.392157 0.0941176 0.501961 0.392157 
0.0941176 0.501961 0.392157 0.0941176 0.501961 0.392157 
0.0941176 0.501961 0.392157 0.0941176 0.501961 0.392157 
0.0941176 0.501961 0.392157 0.0941176 0.501961 0.392157 
0.0941176 0.501961 0.392157 0.0941176 0.501961 0.392157 
0.0941176 0.501961 0.392157 0.0941176 0.501961 0.392157 
0.0941176 0.501961 0.392157 0.0941176 0.501961 0.392157 
0.0941176 0.501961 0.392157 0.0941176 0.501961 0.392157 
0.0941176 0.501961 0.392157 0.0941176 0.501961 0.392157 
0.0941176 0.501961 0.392157 0.0941176 0.501961 0.392157 
0.0941176 0.501961 0.392157 0.0941176 0.501961 0.392157 
0.0941176 0.501961 0.392157 0.0941176 0.501961 0.392157 
0.0941176 0.501961 0.392157 0.0941176 0.501961 0.392157 
0.0941176 0.501961 0.392157 0.0941176 0.501961 0.392157 
0.0941176 0.501961 0.392157 0.0941176 0.501961 0.392157 
0.0941176 0.501961 0.392157 0.0941176 0.501961 0.392157 
0.0941176 0.501961 0.392157 0.0941176 0.501961 0.392157 
0.0941176 0.501961 0.392157 0.0941176 0.501961 0.392157 
0.0941176 0.501961 0.392157 0.0941176 0.501961 0.392157 
0.0941176 0.501961 0.392157 0.0941176 0.501961 0.392157 
0.0941176 0.501961 0.392157 0.0941176 0.501961 0.392157 
0.0941176 0.501961 0.392157 0.0941176 0.501961 0.392157 
0.0941176 0.501961 0.392157 0.0941176 0.501961 0.392157 
0.0941176 0.501961 0.392157 0.0941176 0.501961 0.392157 
0.0941176 0.501961 0.392157 0.0941176 0.501961 0.392157 
0.0941176 0.501961 0.392157 0.0941176 0.501961 0.392157 
0.0941176 0.501961 0.392157 0.0941176 0.501961 0.392157 
0.0941176 0.501961 0.392157 0.0941176 0.501961 0.392157 
0.0941176 0.501961 0.392157 0.0941176 0.501961 0.392157 
0.0941176 0.501961 0.392157 0.0941176 0.501961 0.392157 
0.0941176 0.501961 0.392157 0.0941176 0.501961 0.392157 
0.0941176 0.501961 0.392157 0.0941176 0.501961 0.392157 
0.0941176 0.501961 0.392157 0.0941176 0.501961 0.392157 
0.0941176 0.501961 0.392157 0.0941176 0.501961 0.392157 
0.0941176 0.501961 0.392157 0.0941176 0.501961 0.392157 
0.0941176 0.501961 0.392157 0.0941176 0.501961 0.392157 
0.0941176 0.501961 0.392157 0.0941176 0.501961 0.392157 
0.0941176 0.501961 0.392157 0.0941176 0.501961 0.392157 
0.0941176 0.501961 0.392157 0.0941176 0.501961 0.392157 
0.0941176 0.501961 0.392157 0.0941176 0.501961 0.392157 
0.0941176 0.501961 0.392157 0.0941176 0.501961 0.392157 
0.0941176 0.501961 0.392157 0.0941176 0.501961 0.392157 
0.0941176 0.501961 0.392157 0.0941176 0.501961 0.392157 
0.0941176 0.501961 0.392157 0.0941176 0.501961 0.392157 
0.0941176 0.501961 0.392157 0.0941176 0.501961 0.392157 
0.0941176 0.501961 0.392157 0.0941176 0.501961 0.392157 
0.0941176 0.501961 0.392157 0.0941176 0.501961 0.392157 
0.0941176 0.501961 0.392157 0.0941176 0.501961 0.392157 
0.0941176 0.501961 0.392157 0.0941176 0.501961 0.392157 
0.0941176 0.501961 0.392157 0.0941176 0.501961 0.392157 
0.0941176 0.501961 0.392157 0.0941176 0.501961 0.392157 
0.0941176 0.501961 0.392157 0.0941176 0.501961 0.392157 
0.0941176 0.501961 0.392157 0.0941176 0.501961 0.392157 
0.0941176 0.501961 0.392157 0.0941176 0.501961 0.392157 
0.0941176 0.501961 0.392157 0.0941176 0.501961 0.392157 
0.0941176 0.501961 0.392157 0.0941176 0.501961 0.392157 
0.0941176 0.501961 0.392157 0.0941176 0.501961 0.392157 
0.0941176 0.501961 0.392157 0.0941176 0.501961 0.392157 
0.0941176 0.501961 0.392157 0.0941176 0.501961 0.392157 
0.0941176 0.501961 0.392157 0.0941176 0.501961 0.392157 
0.0941176 0.501961 0.392157 0.0941176 0.501961 0.392157 
0.0941176 0.501961 0.392157 0.0941176 0.501961 0.392157 
0.0941176 0.501961 0.392157 0.0941176 0.501961 0.392157 
0.0941176 0.501961 0.392157 0.0941176 0.501961 0.392157 
0.0941176 0.501961 0.392157 0.0941176 0.501961 0.392157 
0.0941176 0.501961 0.392157 0.0941176 0.501961 0.392157 
0.0941176 0.501961 0.392157 0.0941176 0.501961 0.392157 
0.0941176 0.501961 0.392157 0.0941176 0.501961 0.392157 
0.0941176 0.501961 0.392157 0.0941176 0.501961 0.392157 
0.0941176 0.501961 0.392157 0.0941176 0.501961 0.392157 
0.0941176 0.501961 0.392157 0.0941176 0.501961 0.392157 
0.0941176 0.501961 0.392157 0.0941176 0.501961 0.392157 
0.0941176 0.501961 0.392157 0.0941176 0.501961 0.392157 
0.0941176 0.501961 0.392157 0.0941176 0.501961 0.392157 
0.0941176 0.501961 0.392157 0.0941176 0.501961 0.392157 
0.0941176 0.501961 0.392157 0.0941176 0.501961 0.392157 
0.0941176 0.501961 0.392157 0.0941176 0.501961 0.392157 
0.0941176 0.501961 0.392157 0.0941176 0.501961 0.392157 
0.0941176 0.501961 0.392157 0.0941176 0.501961 0.392157 
0.0941176 0.501961 0.392157 0.0941176 0.501961 0.392157 
0.0941176 0.501961 0.392157 0.0941176 0.501961 0.392157 
0.0941176 0.501961 0.392157 0.0941176 0.501961 0.392157 
0.0941176 0.501961 0.392157 0.0941176 0.501961 0.392157 
0.0941176 0.501961 0.392157 0.0941176 0.501961 0.392157 
0.0941176 0.501961 0.392157 0.0941176 0.501961 0.392157 
0.0941176 0.501961 0.392157 0.0941176 0.501961 0.392157 
0.0941176 0.501961 0.392157 0.0941176 0.501961 0.392157 
0.0941176 0.501961 0.392157 0.0941176 0.501961 0.392157 
0.0941176 0.501961 0.392157 0.0941176 0.501961 0.392157 
0.0941176 0.501961 0.392157 0.0941176 0.501961 0.392157 
0.0941176 0.501961 0.392157 0.0941176 0.501961 0.392157 
0.0941176 0.501961 0.392157 0.0941176 0.501961 0.392157 
0.0941176 0.501961 0.392157 0.0941176 0.501961 0.392157 
0.0941176 0.501961 0.392157 0.0941176 0.501961 0.392157 
0.0941176 0.501961 0.392157 0.0941176 0.501961 0.392157 
0.0941176 0.501961 0.392157 0.0941176 0.501961 0.392157 
0.0941176 0.501961 0.392157 0.0941176 0.501961 0.392157 
0.0941176 0.501961 0.392157 0.0941176 0.501961 0.392157 