# vtk DataFile Version 4.2
vtk output
ASCII
DATASET POLYDATA
POINTS 1303 float
243.162 95.0694 50.619 243.063 95.0111 50.6238 243.028 95.1165 50.5535 
243.304 94.9992 50.8526 241.493 96.1165 50.0755 242.168 96.606 50.323 
243.106 95.185 50.6229 241.836 97.4457 50.4187 236.11 99.5439 49.8239 
237.415 98.9817 49.946 237.816 99.7524 50.2627 231.707 101.935 49.7543 
229.447 103.678 49.7894 232.332 103.597 50.3178 230.821 104.684 50.3763 
229.34 105.789 50.3439 223.854 108.067 49.8685 226.849 107.4 50.1983 
224.51 108.363 50.0524 222.101 109.99 50.2712 221.874 110.032 50.2465 
222.498 109.88 50.3872 220.972 110.825 50.3412 219.849 111.881 50.5877 
242.879 93.8024 51.1497 242.996 94.6838 50.7888 241.666 95.5483 50.2192 
242.649 95.2327 50.5179 243.218 95.5406 50.7746 243.57 95.7422 51.0727 
243.835 95.6348 51.4149 242.65 96.906 50.6665 236.221 98.0316 49.9289 
239.755 98.6367 50.3799 240.998 98.3145 50.5974 237.674 100.097 50.379 
237.621 100.439 50.6334 226.822 104.827 49.7351 231.401 104.72 50.6441 
231.958 104.351 50.6487 224.344 106.099 49.868 230.306 105.554 50.7161 
229.089 106.4 50.5973 227.079 107.541 50.3757 222.725 109.017 50.1228 
225.174 108.639 50.3996 225.508 108.81 50.7367 221.361 110.096 50.2588 
224.323 109.285 50.5927 220.295 111.128 50.4486 221.538 110.599 50.4777 
216.619 112.454 50.5887 220.83 111.442 50.7993 216.46 113.281 50.723 
217.282 113.04 50.7339 215.384 114.166 50.8106 214.677 114.255 50.7688 
216.825 114.608 51.408 212.352 117.391 51.5296 212.211 117.385 51.6026 
241.742 92.906 51.3955 240.188 93.2886 51.0615 242.83 93.4722 51.4306 
243.696 94.3976 51.9022 238.277 94.7641 50.6255 243.868 94.9412 51.6639 
234.384 96.274 50.8123 243.976 95.6994 51.7347 243.565 96.4244 51.3488 
240.198 99.1515 51.0147 237.056 101.376 51.2975 231.37 105.234 51.2365 
227.769 107.453 50.7167 225.933 108.854 51.077 226.363 108.738 51.3499 
224.913 109.302 50.9251 223.308 110.475 51.4254 225.542 109.322 51.5946 
216.178 111.991 50.6336 213.406 113.786 51.0094 218.524 113.417 51.2668 
211.704 115.176 51.6211 211.096 115.842 52.1701 212.087 116.425 51.5392 
213.871 116.96 51.6297 211.326 117.359 52.4138 212.117 117.62 51.8462 
212.282 117.937 52.0313 241.806 92.0613 52.0756 242.952 93.098 51.9332 
243.206 93.0517 52.4758 243.72 94.07 52.56 244.024 95.1995 52.192 
243.963 96.4246 52.2488 243.65 96.908 52.003 241.323 98.7821 51.5865 
239.671 99.8348 51.9183 231.838 105.123 51.6526 232.376 104.752 51.6869 
217.04 107.734 51.4493 226.628 108.795 52.0573 214.87 110.653 51.1848 
221.183 112.029 51.8756 211.081 113.121 52.2199 217.5 114.939 52.2804 
210.207 114.588 52.9688 217.026 115.287 52.2346 210.383 115.534 52.9945 
214.982 116.61 51.8907 212.977 117.988 52.2019 211.819 118.162 52.6711 
212.083 118.257 52.5458 240.852 89.5887 53.7914 240.62 90.3394 53.1456 
242.673 91.8507 53.1037 243.978 96.018 52.7876 244.065 96.4253 52.5451 
244.088 96.5112 52.4547 244.083 96.5387 52.542 243.282 97.4558 52.1194 
243.778 96.8533 52.4365 244.022 96.5935 52.4746 242.041 98.349 52.3038 
240.258 99.5029 52.3154 234.798 103.218 52.3123 232.072 105.038 52.0087 
233.236 104.201 52.3126 211.607 110.004 52.8451 225.256 109.556 52.523 
222.889 111.191 52.5405 223.193 110.991 52.6644 220.973 112.333 52.4296 
216.877 115.506 52.4719 210.936 117.354 53.2001 213.156 118.156 52.5914 
212.375 118.361 52.6726 212.767 118.383 52.8098 213.362 118.207 52.9109 
212.902 118.419 53.169 240.558 88.6848 54.5436 243.587 94.4929 53.873 
243.96 95.4075 53.0722 243.942 96.5606 52.6781 240.793 98.7354 53.5863 
239.803 99.4404 53.5013 239.456 99.8611 53.0813 234.428 102.935 53.6994 
232.553 104.41 53.2942 231.952 104.661 53.5841 230.874 105.454 53.4584 
232.617 104.574 52.6911 227.428 108.109 53.0223 210.043 109.054 54.0925 
226.033 108.936 53.2999 221.38 112.018 53.2634 222.727 111.194 53.1708 
209.269 112.74 54.1405 219.749 113.236 52.8193 220.282 112.817 53.103 
209.445 113.961 54.4049 217.305 115.272 52.8922 215.147 116.936 52.8167 
211.496 118.176 53.9578 214.129 117.669 53.3575 211.617 118.278 53.9882 
211.624 118.294 53.8055 213.225 118.329 53.1253 211.919 118.399 53.685 
212.25 118.444 53.5359 242.523 90.7509 54.5514 243.261 94.2459 54.6204 
242.689 95.9958 54.6216 241.46 96.667 55.0725 234.708 102.381 54.1784 
232.663 103.659 54.2575 228.977 105.933 54.5481 209.836 107.008 54.9381 
225.797 108.785 53.836 208.469 111.167 55.5412 220.964 111.772 54.4106 
222.456 111.149 53.6988 208.872 112.74 55.0103 208.745 112.575 55.509 
217.847 114.403 54.2236 218.569 114.092 53.5687 209.711 114.798 55.1148 
213.47 117.835 54.2507 211.828 118.302 53.9932 213.254 118.11 53.888 
241.003 87.914 55.8886 241.617 88.6811 55.9848 242.571 92.2852 56.078 
226.09 92.889 55.3164 242.495 94.5745 55.5049 229.328 103.241 56.1181 
207.827 106.68 56.7618 208.096 110.663 56.407 219.135 111.726 55.8185 
209.549 114.097 55.8811 210.35 114.896 56.0833 211.996 117.278 55.115 
212.413 117.213 55.226 238.631 84.9428 57.4073 239.156 84.7213 58.0077 
237.195 85.2876 56.9505 242.334 90.5077 56.2996 242.429 92.0315 56.6416 
242.06 92.6892 56.6318 238.137 96.1909 56.813 207.169 106.501 57.663 
207.886 110.019 57.0068 208.323 111.281 57.0663 237.85 83.877 58.2121 
239.474 84.7228 58.5327 239.927 85.354 58.5307 207.28 104.168 57.9342 
206.871 106.181 58.3256 208.221 110.728 57.624 210.311 113.237 57.4665 
211.36 113.824 57.42 237.497 82.9626 59.1111 237.889 82.7686 59.5371 
238.396 83.0146 59.69 235.295 83.1669 58.8507 233.054 83.7433 58.9032 
241.379 88.7111 58.0605 206.553 101.559 59.4861 206.302 102.742 59.6472 
206.754 106.034 58.8751 207.313 107.541 59.2107 207.524 108.338 58.9666 
207.737 108.638 59.1029 207.776 109.345 58.3703 212.753 110.24 59.0228 
208.309 110.24 58.2772 208.781 110.667 58.4115 211.375 111.365 58.7495 
210.472 112.204 58.2578 210.682 111.964 58.439 210.127 112.399 57.9736 
211.024 113.771 57.397 235.314 81.6519 60.1074 206.132 102.88 60.0932 
207.537 107.2 60.0714 208.021 108.494 59.5505 211.059 109.208 59.8711 
209.698 110.576 59.0217 233.267 81.2575 60.7669 238.201 81.9944 61.1518 
239.015 83.154 61.1369 239.033 87.5362 60.8991 231.31 91.9267 61.4795 
205.729 102.132 61.54 205.968 102.904 60.8601 206.503 105.088 60.3496 
207.909 106.918 60.7083 235.976 79.3639 62.288 236.578 79.5391 62.3976 
237.679 80.4874 62.5533 238.381 81.8523 61.9867 238.756 82.6822 62.147 
228.104 82.8286 61.2496 236.697 87.8217 62.1087 204.841 99.026 62.6056 
208.819 106.279 61.546 208.501 107.294 60.7714 209.628 107.324 60.9489 
235.99 78.4481 63.3496 236.684 78.7098 63.523 237.184 79.2454 63.4355 
237.528 79.8795 63.1858 238.629 83.2879 62.983 238.501 85.4392 62.3422 
206.917 93.467 62.9597 204.413 95.7764 63.8467 204.704 99.0987 63.0914 
205.913 101.91 62.9886 207.852 104.838 62.1729 237.242 78.9292 63.9994 
237.553 79.5366 64.0411 237.9 80.5557 64.2346 238.446 82.933 63.6023 
238.544 83.1171 63.4324 238.501 83.075 63.5683 238.212 83.6653 63.4775 
207.179 91.522 63.9863 204.122 95.4512 64.4886 206.775 103.317 62.7825 
234.569 76.3435 65.2424 237.651 81.1196 65.1132 238.114 83.1119 63.8961 
236.325 83.5636 65.0058 205.369 91.3908 65.1495 204.165 97.4484 65.1599 
208.289 102.545 63.7706 207.732 103.206 63.283 235.621 75.5816 66.5956 
235.823 75.7167 66.4621 235.97 76.1651 66.2208 235.892 75.834 66.3877 
237.409 80.7223 65.8029 237.521 80.9398 65.6033 237.462 80.896 65.752 
203.442 92.5732 66.3738 203.651 95.535 65.9959 204.577 97.8824 65.7753 
205.916 99.9888 65.1673 207.056 100.347 65.267 235.883 75.6263 67.1534 
235.869 75.7601 66.5549 237.246 79.5499 66.2337 237.015 80.946 66.1177 
203.937 89.8024 67.2622 203.658 90.0453 67.3833 203.018 90.6067 67.9369 
203.185 92.518 67.2509 203.583 95.277 66.6049 203.573 95.0338 67.2965 
205.992 98.5658 66.403 234.495 73.7457 68.2662 234.656 73.4942 68.7079 
234.862 73.6112 68.5935 235.025 74.0396 68.378 235.278 74.4982 67.945 
234.935 73.7211 68.5282 235.422 74.5674 68.1536 235.722 75.0638 68.2285 
236.744 79.912 66.9385 203.072 89.355 68.4248 203.122 93.2348 68.493 
203.403 94.4354 67.5773 203.373 94.0141 68.2608 206.43 97.1231 67.6751 
206.106 97.9873 66.9241 234.906 73.6371 68.7117 235.17 78.6591 69.0814 
235.816 78.4312 68.6283 233.187 80.0512 69.2637 202.657 91.8767 69.1644 
203.309 93.3011 69.2461 203.635 94.535 68.3341 203.937 94.541 68.8032 
235.201 73.7679 70.1674 236.034 76.1812 69.0114 235.661 76.0238 69.9089 
202.171 89.8137 70.2116 203.51 92.9454 70.1765 204.83 94.7742 69.2957 
233.15 71.3008 71.0375 233.383 71.1681 71.5649 229.132 71.2921 70.8576 
234.289 72.185 71.4115 235.251 74.0682 70.7195 235.538 75.6775 70.5356 
235.572 75.8141 70.5295 235.058 76.3647 70.6573 235.796 76.8644 69.4313 
212.433 78.9254 70.9257 203.775 92.649 70.8588 205.389 93.3237 70.7624 
230.57 69.791 72.1759 233.546 71.012 72.3288 234.07 71.6898 72.4451 
234.445 72.3304 71.9997 234.645 72.8641 72.1068 234.775 74.0932 72.064 
235.309 75.7599 70.8245 201.739 85.0711 72.5653 201.536 87.7453 72.4869 
202.779 90.9113 71.5918 232.312 69.2215 73.6989 232.912 69.7178 73.7464 
233.189 70.3563 72.9762 234.157 71.9936 73.1986 234.6 73.3131 72.6513 
234.719 73.7504 72.5268 234.688 73.8046 72.6289 234.172 74.5134 72.7288 
233.994 75.8009 72.0379 201.169 83.9648 73.8878 201.376 87.3891 73.5287 
201.634 88.4229 72.5272 204.571 91.1462 72.5852 204.025 91.6072 72.0589 
233.224 69.9415 74.2864 233.931 72.155 74.1358 201.208 83.4013 74.1706 
200.961 84.9556 74.01 201.741 88.3664 73.3609 202.46 88.7475 73.9889 
202.667 89.386 73.3487 232.547 68.8078 74.9841 233.574 71.5239 74.9099 
233.889 72.1346 74.4702 233.829 72.1362 74.6032 233.681 72.7096 74.408 
203.12 80.4724 74.8822 200.596 82.9032 75.3223 200.438 82.9277 75.4883 
200.539 83.4861 75.3566 203.784 88.6864 74.7808 203.298 88.7293 74.6218 
200.338 82.4708 76.2799 209.283 84.8616 76.3472 204.937 87.5402 75.8741 
232.441 68.4717 76.2373 232.501 68.856 77.2248 232.329 71.8132 76.6789 
200.595 79.9015 77.5567 202.591 86.7013 76.7462 230.098 65.7946 78.0472 
231.439 66.9913 77.7336 232.418 68.8923 77.6985 232.553 69.9077 77.6494 
[...]
POINT_DATA 1303
COLOR_SCALARS scalars 3
0.0941176 0.501961 0.392157 0.0941176 0.501961 0.392157 0.0941176 0.501961 0.392157 
0.0941176 0.501961 0.392157 0.0941176 0.501961 0.392157 
0.0941176 0.501961 0.392157 0.0941176 0.501961 0.392157 
0.0941176 0.501961 0.392157 0.0941176 0.501961 0.392157 
0.0941176 0.501961 0.392157 0.0941176 0.501961 0.392157 
0.0941176 0.501961 0.392157 0.0941176 0.501961 0.392157 
0.0941176 0.501961 0.392157 0.0941176 0.501961 0.392157 
0.0941176 0.501961 0.392157 0.0941176 0.501961 0.392157 
0.0941176 0.501961 0.392157 0.0941176 0.501961 0.392157 
0.0941176 0.501961 0.392157 0.0941176 0.501961 0.392157 
0.0941176 0.501961 0.392157 0.0941176 0.501961 0.392157 
0.0941176 0.501961 0.392157 0.0941176 0.501961 0.392157 
0.0941176 0.501961 0.392157 0.0941176 0.501961 0.392157 
0.0941176 0.501961 0.392157 0.0941176 0.501961 0.392157 
0.0941176 0.501961 0.392157 0.0941176 0.501961 0.392157 
0.0941176 0.501961 0.392157 0.0941176 0.501961 0.392157 
0.0941176 0.501961 0.392157 0.0941176 0.501961 0.392157 
0.0941176 0.501961 0.392157 0.0941176 0.501961 0.392157 
0.0941176 0.501961 0.392157 0.0941176 0.501961 0.392157 
0.0941176 0.501961 0.392157 0.0941176 0.501961 0.392157 
0.0941176 0.501961 0.392157 0.0941176 0.501961 0.392157 
0.0941176 0.501961 0.392157 0.0941176 0.501961 0.392157 
0.0941176 0.501961 0.392157 0.0941176 0.501961 0.392157 
0.0941176 0.501961 0.392157 0.0941176 0.501961 0.392157 
0.0941176 0.501961 0.392157 0.0941176 0.501961 0.392157 
0.0941176 0.501961 0.392157 0.0941176 0.501961 0.392157 
0.0941176 0.501961 0.392157 0.0941176 0.501961 0.392157 
0.0941176 0.501961 0.392157 0.0941176 0.501961 0.392157 
0.0941176 0.501961 0.392157 0.0941176 0.501961 0.392157 
0.0941176 0.501961 0.392157 0.0941176 0.501961 0.392157 
0.0941176 0.501961 0.392157 0.0941176 0.501961 0.392157 
0.0941176 0.501961 0.392157 0.0941176 0.501961 0.392157 
0.0941176 0.501961 0.392157 0.0941176 0.501961 0.392157 
0.0941176 0.501961 0.392157 0.0941176 0.501961 0.392157 
0.0941176 0.501961 0.392157 0.0941176 0.501961 0.392157 
0.0941176 0.501961 0.392157 0.0941176 0.501961 0.392157 
0.0941176 0.501961 0.392157 0.0941176 0.501961 0.392157 
0.0941176 0.501961 0.392157 0.0941176 0.501961 0.392157 
0.0941176 0.501961 0.392157 0.0941176 0.501961 0.392157 
0.0941176 0.501961 0.392157 0.0941176 0.501961 0.392157 
0.0941176 0.501961 0.392157 0.0941176 0.501961 0.392157 
0.0941176 0.501961 0.392157 0.0941176 0.501961 0.392157 
0.0941176 0.501961 0.392157 0.0941176 0.501961 0.392157 
0.0941176 0.501961 0.392157 0.0941176 0.501961 0.392157 
0.0941176 0.501961 0.392157 0.0941176 0.501961 0.392157 
0.0941176 0.501961 0.392157 0.0941176 0.501961 0.392157 
0.0941176 0.501961 0.392157 0.0941176 0.501961 0.392157 
0.0941176 0.501961 0.392157 0.0941176 0.501961 0.392157 
0.0941176 0.501961 0.392157 0.0941176 0.501961 0.392157 
0.0941176 0.501961 0.392157 0.0941176 0.501961 0.392157 
0.0941176 0.501961 0.392157 0.0941176 0.501961 0.392157 
0.0941176 0.501961 0.392157 0.0941176 0.501961 0.392157 
0.0941176 0.501961 0.392157 0.0941176 0.501961 0.392157 
0.0941176 0.501961 0.392157 0.0941176 0.501961 0.392157 
0.0941176 0.501961 0.392157 0.0941176 0.501961 0.392157 
0.0941176 0.501961 0.392157 0.0941176 0.501961 0.392157 
0.0941176 0.501961 0.392157 0.0941176 0.501961 0.392157 
0.0941176 0.501961 0.392157 0.0941176 0.501961 0.392157 
0.0941176 0.501961 0.392157 0.0941176 0.501961 0.392157 
0.0941176 0.501961 0.392157 0.0941176 0.501961 0.392157 
0.0941176 0.501961 0.392157 0.0941176 0.501961 0.392157 
0.0941176 0.501961 0.392157 0.0941176 0.501961 0.392157 
0.0941176 0.501961 0.392157 0.0941176 0.501961 0.392157 
0.0941176 0.501961 0.392157 0.0941176 0.501961 0.392157 
0.0941176 0.501961 0.392157 0.0941176 0.501961 0.392157 
0.0941176 0.501961 0.392157 0.0941176 0.501961 0.392157 
0.0941176 0.501961 0.392157 0.0941176 0.501961 0.392157 
0.0941176 0.501961 0.392157 0.0941176 0.501961 0.392157 
0.0941176 0.501961 0.392157 0.0941176 0.501961 0.392157 
0.0941176 0.501961 0.392157 0.0941176 0.501961 0.392157 
0.0941176 0.501961 0.392157 0.0941176 0.501961 0.392157 
0.0941176 0.501961 0.392157 0.0941176 0.501961 0.392157 
0.0941176 0.501961 0.392157 0.0941176 0.501961 0.392157 
0.0941176 0.501961 0.392157 0.0941176 0.501961 0.392157 
0.0941176 0.501961 0.392157 0.0941176 0.501961 0.392157 
0.0941176 0.501961 0.392157 0.0941176 0.501961 0.392157 
0.0941176 0.501961 0.392157 0.0941176 0.501961 0.392157 
0.0941176 0.501961 0.392157 0.0941176 0.501961 0.392157 
0.0941176 0.501961 0.392157 0.0941176 0.501961 0.392157 
0.0941176 0.501961 0.392157 0.0941176 0.501961 0.392157 
0.0941176 0.501961 0.392157 0.0941176 0.501961 0.392157 
0.0941176 0.501961 0.392157 0.0941176 0.501961 0.392157 
0.0941176 0.501961 0.392157 0.0941176 0.501961 0.392157 
0.0941176 0.501961 0.392157 0.0941176 0.501961 0.392157 
0.0941176 0.501961 0.392157 0.0941176 0.501961 0.392157 
0.0941176 0.501961 0.392157 0.0941176 0.501961 0.392157 
0.0941176 0.501961 0.392157 0.0941176 0.501961 0.392157 
0.0941176 0.501961 0.392157 0.0941176 0.501961 0.392157 
0.0941176 0.501961 0.392157 0.0941176 0.501961 0.392157 
0.0941176 0.501961 0.392157 0.0941176 0.501961 0.392157 
0.0941176 0.501961 0.392157 0.0941176 0.501961 0.392157 
0.0941176 0.501961 0.392157 0.0941176 0.501961 0.392157 
0.0941176 0.501961 0.392157 0.0941176 0.501961 0.392157 
0.0941176 0.501961 0.392157 0.0941176 0.501961 0.392157 
0.0941176 0.501961 0.392157 0.0941176 0.501961 0.392157 
0.0941176 0.501961 0.392157 0.0941176 0.501961 0.392157 
0.0941176 0.501961 0.392157 0.0941176 0.501961 0.392157 
0.0941176 0.501961 0.392157 0.0941176 0.501961 0.392157 
0.0941176 0.501961 0.392157 0.0941176 0.501961 0.392157 
0.0941176 0.501961 0.392157 0.0941176 0.501961 0.392157 
0.0941176 0.501961 0.392157 0.0941176 0.501961 0.392157 
0.0941176 0.501961 0.392157 0.0941176 0.501961 0.392157 
0.0941176 0.501961 0.392157 0.0941176 0.501961 0.392157 
0.0941176 0.501961 0.392157 0.0941176 0.501961 0.392157 
0.0941176 0.501961 0.392157 0.0941176 0.501961 0.392157 
0.0941176 0.501961 0.392157 0.0941176 0.501961 0.392157 
0.0941176 0.501961 0.392157 0.0941176 0.501961 0.392157 
0.0941176 0.501961 0.392157 0.0941176 0.501961 0.392157 
0.0941176 0.501961 0.392157 0.0941176 0.501961 0.392157 
0.0941176 0.501961 0.392157 0.0941176 0.501961 0.392157 
0.0941176 0.501961 0.392157 0.0941176 0.501961 0.392157 
0.0941176 0.501961 0.392157 0.0941176 0.501961 0.392157 
0.0941176 0.501961 0.392157 0.0941176 0.501961 0.392157 
0.0941176 0.501961 0.392157 0.0941176 0.501961 0.392157 
0.0941176 0.501961 0.392157 0.0941176 0.501961 0.392157 
0.0941176 0.501961 0.392157 0.0941176 0.501961 0.392157 
0.0941176 0.501961 0.392157 0.0941176 0.501961 0.392157 
0.0941176 0.501961 0.392157 0.0941176 0.501961 0.392157 
0.0941176 0.501961 0.392157 0.0941176 0.501961 0.392157 
0.0941176 0.501961 0.392157 0.0941176 0.501961 0.392157 
0.0941176 0.501961 0.392157 0.0941176 0.501961 0.392157 
0.0941176 0.501961 0.392157 0.0941176 0.501961 0.392157 
0.0941176 0.501961 0.392157 0.0941176 0.501961 0.392157 
0.0941176 0.501961 0.392157 0.0941176 0.501961 0.392157 
0.0941176 0.501961 0.392157 0.0941176 0.501961 0.392157 
0.0941176 0.501961 0.392157 0.0941176 0.501961 0.392157 
0.0941176 0.501961 0.392157 0.0941176 0.501961 0.392157 
0.0941176 0.501961 0.392157 0.0941176 0.501961 0.392157 
0.0941176 0.501961 0.392157 0.0941176 0.501961 0.392157 
0.0941176 0.501961 0.392157 0.0941176 0.501961 0.392157 
0.0941176 0.501961 0.392157 0.0941176 0.501961 0.392157 
0.0941176 0.501961 0.392157 0.0941176 0.501961 0.392157 
0.0941176 0.501961 0.392157 0.0941176 0.501961 0.392157 
0.0941176 0.501961 0.392157 0.0941176 0.501961 0.392157 
0.0941176 0.501961 0.392157 0.0941176 0.501961 0.392157 
0.0941176 0.501961 0.392157 0.0941176 0.501961 0.392157 
0.0941176 0.501961 0.392157 0.0941176 0.501961 0.392157 
0.0941176 0.501961 0.392157 0.0941176 0.501961 0.392157 
0.0941176 0.501961 0.392157 0.0941176 0.501961 0.392157 
0.0941176 0.501961 0.392157 0.0941176 0.501961 0.392157 
0.0941176 0.501961 0.392157 0.0941176 0.501961 0.392157 
0.0941176 0.501961 0.392157 0.0941176 0.501961 0.392157 
0.0941176 0.501961 0.392157 0.0941176 0.501961 0.392157 
0.0941176 0.501961 0.392157 0.0941176 0.501961 0.392157 
0.0941176 0.501961 0.392157 0.0941176 0.501961 0.392157 
0.0941176 0.501961 0.392157 0.0941176 0.501961 0.392157 
0.0941176 0.501961 0.392157 0.0941176 0.501961 0.392157 
0.0941176 0.501961 0.392157 0.0941176 0.501961 0.392157 
0.0941176 0.501961 0.392157 0.0941176 0.501961 0.392157 
0.0941176 0.501961 0.392157 0.0941176 0.501961 0.392157 
0.0941176 0.501961 0.392157 0.0941176 0.501961 0.392157 
0.0941176 0.501961 0.392157 0.0941176 0.501961 0.392157 
0.0941176 0.501961 0.392157 0.0941176 0.501961 0.392157 
0.0941176 0.501961 0.392157 0.0941176 0.501961 0.392157 
0.0941176 0.501961 0.392157 0.0941176 0.501961 0.392157 
0.0941176 0.501961 0.392157 0.0941176 0.501961 0.392157 
0.0941176 0.501961 0.392157 0.0941176 0.501961 0.392157 
0.0941176 0.501961 0.392157 0.0941176 0.501961 0.392157 
0.0941176 0.501961 0.392157 0.0941176 0.501961 0.392157 
0.0941176 0.501961 0.392157 0.0941176 0.501961 0.392157 
0.0941176 0.501961 0.392157 0.0941176 0.501961 0.392157 
0.0941176 0.501961 0.392157 0.0941176 0.501961 0.392157 
0.0941176 0.501961 0.392157 0.0941176 0.501961 0.392157 
0.0941176 0.501961 0.392157 0.0941176 0.501961 0.392157 
0.0941176 0.501961 0.392157 0.0941176 0.501961 0.392157 
0.0941176 0.501961 0.392157 0.0941176 0.501961 0.392157 
0.0941176 0.501961 0.392157 0.0941176 0.501961 0.392157 
0.0941176 0.501961 0.392157 0.0941176 0.501961 0.392157 
0.0941176 0.501961 0.392157 0.0941176 0.501961 0.392157 
0.0941176 0.501961 0.392157 0.0941176 0.501961 0.392157 
0.0941176 0.501961 0.392157 0.0941176 0.501961 0.392157 
0.0941176 0.501961 0.392157 0.0941176 0.501961 0.392157 
0.0941176 0.501961 0.392157 0.0941176 0.501961 0.392157 
0.0941176 0.501961 0.392157 0.0941176 0.501961 0.392157 
0.0941176 0.501961 0.392157 0.0941176 0.501961 0.392157 
0.0941176 0.501961 0.392157 0.0941176 0.501961 0.392157 
0.0941176 0.501961 0.392157 0.0941176 0.501961 0.392157 
0.0941176 0.501961 0.392157 0.0941176 0.501961 0.392157 
0.0941176 0.501961 0.392157 0.0941176 0.501961 0.392157 
0.0941176 0.501961 0.392157 0.0941176 0.501961 0.392157 
0.0941176 0.501961 0.392157 0.0941176 0.501961 0.392157 
0.0941176 0.501961 0.392157 0.0941176 0.501961 0.392157 
0.0941176 0.501961 0.392157 0.0941176 0.501961 0.392157 
0.0941176 0.501961 0.392157 0.0941176 0.501961 0.392157 
0.0941176 0.501961 0.392157 0.0941176 0.501961 0.392157 
0.0941176 0.501961 0.392157 0.0941176 0.501961 0.392157 
0.0941176 0.501961 0.392157 0.0941176 0.501961 0.392157 
0.0941176 0.501961 0.392157 0.0941176 0.501961 0.392157 
0.0941176 0.501961 0.392157 0.0941176 0.501961 0.392157 
0.0941176 0.501961 0.392157 0.0941176 0.501961 0.392157 
0.0941176 0.501961 0.392157 0.0941176 0.501961 0.392157 
0.0941176 0.501961 0.392157 0.0941176 0.501961 0.392157 
0.0941176 0.501961 0.392157 0.0941176 0.501961 0.392157 
0.0941176 0.501961 0.392157 0.0941176 0.501961 0.392157 
0.0941176 0.501961 0.392157 0.0941176 0.501961 0.392157 
0.0941176 0.501961 0.392157 0.0941176 0.501961 0.392157 
0.0941176 0.501961 0.392157 0.0941176 0.501961 0.392157 
0.0941176 0.501961 0.392157 0.0941176 0.501961 0.392157 
0.0941176 0.501961 0.392157 0.0941176 0.501961 0.392157 
0.0941176 0.501961 0.392157 0.0941176 0.501961 0.392157 
0.0941176 0.501961 0.392157 0.0941176 0.501961 0.392157 
0.0941176 0.501961 0.392157 0.0941176 0.501961 0.392157 
0.0941176 0.501961 0.392157 0.0941176 0.501961 0.392157 
0.0941176 0.501961 0.392157 0.0941176 0.501961 0.392157 
0.0941176 0.501961 0.392157 0.0941176 0.501961 0.392157 
0.0941176 0.501961 0.392157 0.0941176 0.501961 0.392157 
0.0941176 0.501961 0.392157 0.0941176 0.501961 0.392157 
0.0941176 0.501961 0.392157 0.0941176 0.501961 0.392157 
0.0941176 0.501961 0.392157 0.0941176 0.501961 0.392157 
0.0941176 0.501961 0.392157 0.0941176 0.501961 0.392157 
0.0941176 0.501961 0.392157 0.0941176 0.501961 0.392157 
0.0941176 0.501961 0.392157 0.0941176 0.501961 0.392157 
0.0941176 0.501961 0.392157 0.0941176 0.501961 0.392157 
0.0941176 0.501961 0.392157 0.0941176 0.501961 0.392157 
0.0941176 0.501961 0.392157 0.0941176 0.501961 0.392157 
0.0941176 0.501961 0.392157 0.0941176 0.501961 0.392157 
0.0941176 0.501961 0.392157 0.0941176 0.501961 0.392157 
0.0941176 0.501961 0.392157 0.0941176 0.501961 0.392157 
0.0941176 0.501961 0.392157 0.0941176 0.501961 0.392157 
0.0941176 0.501961 0.392157 0.0941176 0.501961 0.392157 
0.0941176 0.501961 0.392157 0.0941176 0.501961 0.392157 
0.0941176 0.501961 0.392157 0.0941176 0.501961 0.392157 
0.0941176 0.501961 0.392157 0.0941176 0.501961 0.392157 
0.0941176 0.501961 0.392157 0.0941176 0.501961 0.392157 
0.0941176 0.501961 0.392157 0.0941176 0.501961 0.392157 
0.0941176 0.501961 0.392157 0.0941176 0.501961 0.392157 
0.0941176 0.501961 0.392157 0.0941176 0.501961 0.392157 
0.0941176 0.501961 0.392157 0.0941176 0.501961 0.392157 
0.0941176 0.501961 0.392157 0.0941176 0.501961 0.392157 
0.0941176 0.501961 0.392157 0.0941176 0.501961 0.392157 
0.0941176 0.501961 0.392157 0.0941176 0.501961 0.392157 
0.0941176 0.501961 0.392157 0.0941176 0.501961 0.392157 
0.0941176 0.501961 0.392157 0.0941176 0.501961 0.392157 
0.0941176 0.501961 0.392157 0.0941176 0.501961 0.392157 
0.0941176 0.501961 0.392157 0.0941176 0.501961 0.392157 
0.0941176 0.501961 0.392157 0.0941176 0.501961 0.392157 
0.0941176 0.501961 0.392157 0.0941176 0.501961 0.392157 
0.0941176 0.501961 0.392157 0.0941176 0.501961 0.392157 
0.0941176 0.501961 0.392157 0.0941176 0.501961 0.392157 
0.0941176 0.501961 0.392157 0.0941176 0.501961 0.392157 
0.0941176 0.501961 0.392157 0.0941176 0.501961 0.392157 
0.0941176 0.501961 0.392157 0.0941176 0.501961 0.392157 
0.0941176 0.501961 0.392157 0.0941176 0.501961 0.392157 
0.0941176 0.501961 0.392157 0.0941176 0.501961 0.392157 
0.0941176 0.501961 0.392157 0.0941176 0.501961 0.392157 
0.0941176 0.501961 0.392157 0.0941176 0.501961 0.392157 
0.0941176 0.501961 0.392157 0.0941176 0.501961 0.392157 
0.0941176 0.501961 0.392157 0.0941176 0.501961 0.392157 
0.0941176 0.501961 0.392157 0.0941176 0.501961 0.392157 
0.0941176 0.501961 0.392157 0.0941176 0.501961 0.392157 
0.0941176 0.501961 0.392157 0.0941176 0.501961 0.392157 
0.0941176 0.501961 0.392157 0.0941176 0.501961 0.392157 
0.0941176 0.501961 0.392157 0.0941176 0.501961 0.392157 
0.0941176 0.501961 0.392157 0.0941176 0.501961 0.392157 
0.0941176 0.501961 0.392157 0.0941176 0.501961 0.392157 
0.0941176 0.501961 0.392157 0.0941176 0.501961 0.392157 
0.0941176 0.501961 0.392157 0.0941176 0.501961 0.392157 
0.0941176 0.501961 0.392157 0.0941176 0.501961 0.392157 
0.0941176 0.501961 0.392157 0.0941176 0.501961 0.392157 
0.0941176 0.501961 0.392157 0.0941176 0.501961 0.392157 
0.0941176 0.501961 0.392157 0.0941176 0.501961 0.392157 
0.0941176 0.501961 0.392157 0.0941176 0.501961 0.392157 
0.0941176 0.501961 0.392157 0.0941176 0.501961 0.392157 
0.0941176 0.501961 0.392157 0.0941176 0.501961 0.392157 
0.0941176 0.501961 0.392157 0.0941176 0.501961 0.392157 
0.0941176 0.501961 0.392157 0.0941176 0.501961 0.392157 
0.0941176 0.501961 0.392157 0.0941176 0.501961 0.392157 
0.0941176 0.501961 0.392157 0.0941176 0.501961 0.392157 
0.0941176 0.501961 0.392157 0.0941176 0.501961 0.392157 
0.0941176 0.501961 0.392157 0.0941176 0.501961 0.392157 
0.0941176 0.501961 0.392157 0.0941176 0.501961 0.392157 
0.0941176 0.501961 0.392157 0.0941176 0.501961 0.392157 
0.0941176 0.501961 0.392157 0.0941176 0.501961 0.392157 
0.0941176 0.501961 0.392157 0.0941176 0.501961 0.392157 
0.0941176 0.501961 0.392157 0.0941176 0.501961 0.392157 
0.0941176 0.501961 0.392157 0.0941176 0.501961 0.392157 
0.0941176 0.501961 0.392157 0.0941176 0.501961 0.392157 
0.0941176 0.501961 0.392157 0.0941176 0.501961 0.392157 
0.0941176 0.501961 0.392157 0.0941176 0.501961 0.392157 
0.0941176 0.501961 0.392157 0.0941176 0.501961 0.392157 
0.0941176 0.501961 0.392157 0.0941176 0.501961 0.392157 
0.0941176 0.501961 0.392157 0.0941176 0.501961 0.392157 
0.0941176 0.501961 0.392157 0.0941176 0.501961 0.392157 
0.0941176 0.501961 0.392157 0.0941176 0.501961 0.392157 
0.0941176 0.501961 0.392157 0.0941176 0.501961 0.392157 
0.0941176 0.501961 0.392157 0.0941176 0.501961 0.392157 
0.0941176 0.501961 0.392157 0.0941176 0.501961 0.392157 
0.0941176 0.501961 0.392157 0.0941176 0.501961 0.392157 
0.0941176 0.501961 0.392157 0.0941176 0.501961 0.392157 
0.0941176 0.501961 0.392157 0.0941176 0.501961 0.392157 
0.0941176 0.501961 0.392157 0.0941176 0.501961 0.392157 
0.0941176 0.501961 0.392157 0.0941176 0.501961 0.392157 
0.0941176 0.501961 0.392157 0.0941176 0.501961 0.392157 
0.0941176 0.501961 0.392157 0.0941176 0.501961 0.392157 
0.0941176 0.501961 0.392157 0.0941176 0.501961 0.392157 
0.0941176 0.501961 0.392157 0.0941176 0.501961 0.392157 
0.0941176 0.501961 0.392157 0.0941176 0.501961 0.392157 
0.0941176 0.501961 0.392157 0.0941176 0.501961 0.392157 
0.0941176 0.501961 0.392157 0.0941176 0.501961 0.392157 
0.0941176 0.501961 0.392157 0.0941176 0.501961 0.392157 
0.0941176 0.501961 0.392157 0.0941176 0.501961 0.392157 
0.0941176 0.501961 0.392157 0.0941176 0.501961 0.392157 
0.0941176 0.501961 0.392157 0.0941176 0.501961 0.392157 
0.0941176 0.501961 0.392157 0.0941176 0.501961 0.392157 
0.0941176 0.501961 0.392157 0.0941176 0.501961 0.392157 
0.0941176 0.501961 0.392157 0.0941176 0.501961 0.392157 
0.0941176 0.501961 0.392157 0.0941176 0.501961 0.392157 
0.0941176 0.501961 0.392157 0.0941176 0.501961 0.392157 
0.0941176 0.501961 0.392157 0.0941176 0.501961 0.392157 
0.0941176 0.501961 0.392157 0.0941176 0.501961 0.392157 
0.0941176 0.501961 0.392157 0.0941176 0.501961 0.392157 
0.0941176 0.501961 0.392157 0.0941176 0.501961 0.392157 
0.0941176 0.501961 0.392157 0.0941176 0.501961 0.392157 
0.0941176 0.501961 0.392157 0.0941176 0.501961 0.392157 
0.0941176 0.501961 0.392157 0.0941176 0.501961 0.392157 
0.0941176 0.501961 0.392157 0.0941176 0.501961 0.392157 
0.0941176 0.501961 0.392157 0.0941176 0.501961 0.392157 
0.0941176 0.501961 0.392157 0.0941176 0.501961 0.392157 
0.0941176 0.501961 0.392157 0.0941176 0.501961 0.392157 
0.0941176 0.501961 0.392157 0.0941176 0.501961 0.392157 
0.0941176 0.501961 0.392157 0.0941176 0.501961 0.392157 
0.0941176 0.501961 0.392157 0.0941176 0.501961 0.392157 
0.0941176 0.501961 0.392157 0.0941176 0.501961 0.392157 
0.0941176 0.501961 0.392157 0.0941176 0.501961 0.392157 
0.0941176 0.501961 0.392157 0.0941176 0.501961 0.392157 
0.0941176 0.501961 0.392157 0.0941176 0.501961 0.392157 
0.0941176 0.501961 0.392157 0.0941176 0.501961 0.392157 
0.0941176 0.501961 0.392157 0.0941176 0.501961 0.392157 
0.0941176 0.501961 0.392157 0.0941176 0.501961 0.392157 
0.0941176 0.501961 0.392157 0.0941176 0.501961 0.392157 
0.0941176 0.501961 0.392157 0.0941176 0.501961 0.392157 
0.0941176 0.501961 0.392157 0.0941176 0.501961 0.392157 
0.0941176 0.501961 0.392157 0.0941176 0.501961 0.392157 
0.0941176 0.501961 0.392157 0.0941176 0.501961 0.392157 
0.0941176 0.501961 0.392157 0.0941176 0.501961 0.392157 
0.0941176 0.501961 0.392157 0.0941176 0.501961 0.392157 
0.0941176 0.501961 0.392157 0.0941176 0.501961 0.392157 
0.0941176 0.501961 0.392157 0.0941176 0.501961 0.392157 
0.0941176 0.501961 0.392157 0.0941176 0.501961 0.392157 
0.0941176 0.501961 0.392157 0.0941176 0.501961 0.392157 
0.0941176 0.501961 0.392157 0.0941176 0.501961 0.392157 
0.0941176 0.501961 0.392157 0.0941176 0.501961 0.392157 
0.0941176 0.501961 0.392157 0.0941176 0.501961 0.392157 
0.0941176 0.501961 0.392157 0.0941176 0.501961 0.392157 
0.0941176 0.501961 0.392157 0.0941176 0.501961 0.392157 
0.0941176 0.501961 0.392157 0.0941176 0.501961 0.392157 
0.0941176 0.501961 0.392157 0.0941176 0.501961 0.392157 
0.0941176 0.501961 0.392157 0.0941176 0.501961 0.392157 
0.0941176 0.501961 0.392157 0.0941176 0.501961 0.392157 