# vtk DataFile Version 4.2
vtk output
ASCII
DATASET POLYDATA
POINTS 1057 float
245.757 53.3652 141.557 240.724 55.2917 141.29 240.121 56.2935 140.94 
240.644 56.0962 140.884 240.234 57.0844 140.864 238.721 55.7901 141.809 
247.799 54.7726 141.43 237.712 56.8207 141.753 236.494 57.3572 142.069 
247.324 56.7442 141.287 237.358 57.8533 141.707 242.135 59.9003 141.212 
241.137 54.2501 142.061 235.996 56.7957 142.557 254.146 49.4694 144.214 
254.432 49.4875 144.228 254.316 49.242 144.367 252.688 50.8862 143.514 
240.254 54.123 142.704 237.523 55.3256 142.852 235.02 56.5294 143.514 
234.132 57.4161 143.671 233.663 58.5211 143.719 248.488 59.8389 142.548 
249.157 60.4273 143.174 247.129 61.5073 142.856 240.991 63.6323 143.243 
247.181 62.6609 143.868 242.82 63.7837 143.408 243.62 63.7511 143.538 
254.882 48.5867 144.872 252.526 49.7381 144.205 254.374 48.8037 144.734 
251.068 50.0069 144.131 256.072 49.9258 144.521 253.782 51.4351 143.605 
235.388 55.7538 143.983 232.375 57.9667 144.7 233.071 56.5522 145.071 
233.713 59.1073 143.742 234.418 60.0376 143.611 249.087 61.4769 143.941 
249.589 61.8641 144.873 246.895 63.0244 144.14 242.857 64.6406 144.337 
243.947 64.6489 144.923 258.377 49.122 145.428 255.345 52.5978 144.059 
254.716 56.0112 144.369 253.981 57.0533 144.359 229.545 58.5028 146.226 
230.588 59.1552 145.582 230.877 59.6132 145.436 254.159 58.2906 145.204 
231.585 60.3458 145.228 249.237 62.3473 145.576 237.085 65.0008 145.449 
242.982 65.1382 145.343 242.36 65.2741 145.431 260.173 45.7126 147.613 
259.831 46.0368 147.207 259.733 46.5728 146.829 260.393 46.9348 146.769 
261.266 46.5473 147.311 260.52 47.5287 146.59 261.305 46.9146 147.143 
241.031 52.2743 145.994 259.337 52.5712 145.887 257.681 55.0854 145.728 
257.74 56.1224 146.308 228.792 58.241 146.868 255.793 58.2135 146.858 
254.134 59.1874 146.276 232.664 62.296 145.578 249.858 62.1179 146.487 
246.946 63.5434 145.71 244.424 64.7416 146.238 237.084 65.5669 146.11 
238.332 65.8842 146.248 237.879 66.0165 146.575 239.485 65.9448 146.408 
262.068 46.6153 148.024 262.525 47.9443 147.863 259.571 54.6963 146.833 
258.134 56.5149 146.975 225.267 59.278 148.359 225.284 59.7922 148.113 
225.792 59.9303 147.85 254.236 59.5536 147.538 241.588 65.6734 146.89 
261.307 45.1921 149.269 258.332 45.2653 148.114 261.914 45.9653 148.56 
252.953 46.9492 147.67 263.213 48.6663 148.481 263.278 49.3249 148.363 
262.663 52.8653 148.16 260.268 55.4239 148.151 261.009 55.2777 148.908 
258.305 57.0567 148.073 224.934 60.2686 148.203 253.989 59.7112 148.09 
209.517 66.6858 149.119 209.365 66.963 149.139 209.669 66.3474 149.248 
210.095 66.2323 149.14 206 67.0087 148.017 206 67.0087 148.017 
206 67.0088 148.017 206 67.0088 148.017 206 67.0088 148.017 
261.019 44.8943 149.669 263.368 47.806 149.569 264.303 50.5196 149.544 
264.157 52.0556 149.444 264.343 52.3412 149.869 263.9 53.0401 149.817 
263.171 53.9601 149.955 259.612 56.2968 148.921 225.673 58.1833 149.038 
223.295 59.1635 149.615 222.477 60.5444 149.255 220.274 61.4298 149.627 
221.069 61.9914 149.312 218.833 63.2659 149.406 221.404 62.6479 149.204 
224.074 63.1519 148.859 212.448 64.9976 149.283 213.068 63.9488 149.692 
245.388 64.0518 148.295 210.01 65.6735 149.776 209.698 66.0847 149.508 
208.999 67.3371 149.468 209.441 66.4069 149.452 206 67.0087 148.017 
213.634 67.1586 149.115 238.179 66.5614 148.614 208.752 68.3864 149.629 
208.917 68.2162 149.4 209.076 68.5954 149.335 208.683 69.4244 149.759 
209.108 69.1816 149.437 208.746 69.6174 149.677 208.733 69.7446 149.788 
208.842 69.8696 149.733 264.64 51.0032 150.183 264.678 50.9108 150.384 
264.064 53.1515 150.296 263.685 53.7345 150.854 259.659 56.3602 150.31 
222.342 59.3449 149.978 250.236 61.3326 149.831 211.875 64.2955 149.91 
209.492 66.2048 150.118 210.168 65.3632 150.113 210.61 65.0985 149.978 
208.72 68.6041 149.909 233.325 67.5461 150.291 215.328 69.1802 149.797 
208.893 70.0364 149.905 213.307 70.3397 149.804 209.177 70.5576 150.071 
209.355 70.627 149.917 209.32 70.9334 150.136 209.498 71.0689 150.109 
209.837 71.2298 150.218 210.612 71.7705 150.449 209.379 71.0321 150.118 
264.698 51.934 151.076 262.378 54.7496 151.323 220.309 59.2265 151.252 
216.505 61.1622 150.946 211.821 63.989 150.422 211.291 64.1691 150.835 
212.525 63.3376 150.812 210.29 65.1337 150.926 210.842 64.5323 150.826 
209.556 66.2425 150.461 239.068 66.1087 150.839 209.576 66.8816 151.107 
209.016 68.6035 150.566 209.812 70.6585 151.222 209.393 70.9196 150.277 
209.833 71.263 150.58 212.167 71.8013 150.26 216.394 71.3829 150.814 
210.6 72.2815 151.108 211.03 72.5887 150.85 210.966 73.232 151.405 
211.13 73.6026 151.343 211.229 74.0334 151.499 211.737 74.272 151.679 
211.263 74.0894 151.466 261.837 45.2213 152.144 263.967 53.3907 151.707 
264.291 52.6654 152.153 262.174 54.8208 151.806 214.95 61.4058 151.728 
211.128 64.2657 151.685 209.792 70.0852 151.415 225.441 69.5522 152.16 
221.345 70.7574 152.009 218.573 72.196 152.093 211.325 74.0134 151.65 
211.521 74.0429 152.037 213.012 74.3623 151.746 214.606 74.0743 151.96 
215.977 73.9258 152.611 211.874 74.7562 152.169 212.056 74.8526 152.027 
215.466 74.3065 152.806 212.022 75.2303 152.325 213.349 74.9901 152.576 
212.111 75.3706 152.308 212.069 75.4444 152.362 212.221 75.4068 152.398 
212.1 75.4873 152.359 258.925 43.5829 152.57 264.471 51.2748 152.571 
264.52 52.3004 151.942 213.869 61.8643 152.325 212.797 62.6959 152.986 
212.429 63.2166 152.937 221.157 71.7443 153.142 220.836 72.1261 153.617 
218.871 72.9163 153.36 220.297 72.4304 153.875 212.061 74.0561 152.884 
216.806 73.8701 153.507 212.048 74.974 152.481 212.223 74.6721 152.789 
214.972 74.6143 152.963 212.144 75.3364 152.457 212.865 75.1275 152.765 
213.853 74.939 152.91 214.421 74.8068 153.042 212.108 75.4789 152.389 
212.411 75.2928 152.589 264.194 51.9639 153.102 262.944 53.8483 153.344 
262.867 53.6072 154.01 217.743 59.0075 153.753 215.198 60.5804 153.684 
213.998 61.5467 153.76 212.904 63.2234 154.033 223.458 71.2116 154.075 
218.766 73.0701 153.771 216.158 74.206 153.692 217.547 73.5794 153.938 
213.027 74.4856 153.464 215.087 74.5813 153.68 258.592 43.1354 155.44 
260.899 44.6716 154.919 262.234 53.9539 154.525 260.871 54.64 155.202 
216.713 59.2553 155.154 214.23 61.3999 154.167 213.424 62.4428 154.317 
213.153 64.0145 154.69 213.093 72.8522 154.197 221.683 71.9532 155.09 
216.113 74.2027 154.101 215.79 74.2601 154.237 216.229 73.9997 154.494 
213.481 74.5358 153.685 214.547 74.5365 153.896 258.801 43.0492 156.067 
214.469 61.8562 155.38 213.997 62.5967 155.168 219.565 72.5618 155.742 
214.15 74.4562 153.996 256.848 42.3097 157.762 258.825 43.0896 156.217 
221.768 55.9807 156.658 216.685 59.3053 156.073 215.115 61.8289 156.259 
215.525 61.3852 156.55 215.434 71.9696 155.873 220.065 72.045 156.668 
254.027 42.3131 158.304 261.846 47.7057 158.43 262.946 51.5971 157.096 
218.889 57.4049 158.145 217.36 58.7334 157.296 216.889 67.9197 158.033 
217.158 71.364 157.084 217.363 71.7767 156.95 217.435 72.058 156.73 
217.682 71.8922 156.974 219.345 71.8428 157.113 257.357 42.2363 159.248 
255.857 42.0885 158.271 258.627 43.0968 158.94 262.543 50.8579 158.54 
218.523 57.6969 158.314 218.488 57.7684 158.498 217.796 58.5884 157.891 
218.376 57.8964 158.376 217.113 61.3431 158.356 217.928 69.0091 158.441 
218.718 70.1496 158.352 218.874 70.859 157.968 257.153 42.1018 160.387 
242.538 46.0401 159.82 218.849 57.7795 159.029 223.721 69.7633 159.256 
220.023 69.9873 158.933 219.38 71.009 157.981 255.831 41.6701 161.111 
253.592 41.4983 161.395 257.593 42.4301 161.214 258.617 43.4758 161.212 
223.065 54.434 160.641 220.931 56.0468 160.463 219.628 59.8557 160.868 
259.201 44.5321 161.887 261.338 49.4387 161.867 261.202 51.2992 161.61 
223.146 54.4371 161.795 221.411 55.9995 161.31 221.042 57.2932 161.735 
261.269 50.086 162.14 227.573 51.886 162.397 224.36 53.5725 162.393 
224.876 53.2565 162.057 226.112 52.5497 162.495 259.73 52.5049 163.076 
223.356 54.4203 162.517 222.048 57.7466 163.003 222.437 61.7792 163.243 
223.761 68.2272 161.225 255.554 41.3299 164.329 227.282 51.9103 162.938 
223.41 54.9475 163.546 229.397 65.9615 163.406 223.923 67.388 162.04 
254.695 40.9787 165.996 225.646 52.993 164.439 226.698 52.1495 164.366 
224.437 53.9975 164.131 224.163 54.5562 164.305 229.124 65.7766 163.839 
228.643 65.7309 164.05 254.139 40.6812 166.497 227.399 51.7328 165.895 
260.243 50.179 164.787 226.285 52.6997 165.319 225.141 54.3242 165.312 
254.688 54.3443 165.744 224.908 55.5846 165.593 225.106 55.9861 165.825 
224.839 58.258 165.579 226.073 62.9658 165.396 226.759 65.0627 164.576 
228.416 65.495 164.399 228.444 65.0998 164.814 252.455 40.0928 167.348 
253.921 40.5985 167.316 254.57 41.0624 167.45 249.94 40.3256 167.004 
254.988 41.4117 167.371 233.722 47.5004 166.984 227.746 51.3245 166.664 
227.258 52.2465 166.657 258.9 51.6585 165.92 226.35 53.4816 166.248 
228.211 62.9085 166.539 230.188 63.7016 166.395 252.415 39.9416 168.643 
255.253 41.9598 167.974 256.468 43.6878 167.849 231.824 48.4039 167.631 
228.578 50.8137 167.523 227.286 53.4173 167.431 228.068 61.0604 167.33 
228.258 61.8943 167.113 232.564 62.7868 167.454 229.328 62.8464 167.105 
229.831 49.8892 168.506 230.685 49.1091 168.58 258.62 48.9106 167.747 
229.107 51.0765 168.694 257.169 51.0081 169.251 230.221 59.7376 169.07 
230.805 61.8529 168.213 231.877 62.1384 168.207 233.158 62.0776 168.268 
229.712 62.9779 167.126 250.687 39.6327 169.603 231.435 48.5671 169.732 
257.408 47.765 169.774 257.244 50.4236 169.718 229.372 51.8922 169.502 
254.121 42.0372 170.697 234.279 45.9106 170.893 231.941 48.1304 170.794 
231.65 48.3883 170.742 231.535 48.4325 170.588 231.332 49.0139 170.565 
230.078 52.7983 170.33 230.751 54.5284 170.757 236.555 59.7292 170.62 
249.793 39.403 172.254 231.516 48.5801 170.703 256.355 47.8696 171.782 
233.245 56.9383 171.882 232.303 48.3367 171.715 232.35 50.4647 172.352 
234.118 57.7867 171.939 235.202 58.1527 172.14 249.666 39.2617 173.882 
249.641 39.2245 174.025 249.759 39.2876 173.992 248.534 39.0166 174.306 
[...]
POINT_DATA 1057
COLOR_SCALARS scalars 3
0.0941176 0.501961 0.392157 0.0941176 0.501961 0.392157 0.0941176 0.501961 0.392157 
0.0941176 0.501961 0.392157 0.0941176 0.501961 0.392157 
0.0941176 0.501961 0.392157 0.0941176 0.501961 0.392157 
0.0941176 0.501961 0.392157 0.0941176 0.501961 0.392157 
0.0941176 0.501961 0.392157 0.0941176 0.501961 0.392157 
0.0941176 0.501961 0.392157 0.0941176 0.501961 0.392157 
0.0941176 0.501961 0.392157 0.0941176 0.501961 0.392157 
0.0941176 0.501961 0.392157 0.0941176 0.501961 0.392157 
0.0941176 0.501961 0.392157 0.0941176 0.501961 0.392157 
0.0941176 0.501961 0.392157 0.0941176 0.501961 0.392157 
0.0941176 0.501961 0.392157 0.0941176 0.501961 0.392157 
0.0941176 0.501961 0.392157 0.0941176 0.501961 0.392157 
0.0941176 0.501961 0.392157 0.0941176 0.501961 0.392157 
0.0941176 0.501961 0.392157 0.0941176 0.501961 0.392157 
0.0941176 0.501961 0.392157 0.0941176 0.501961 0.392157 
0.0941176 0.501961 0.392157 0.0941176 0.501961 0.392157 
0.0941176 0.501961 0.392157 0.0941176 0.501961 0.392157 
0.0941176 0.501961 0.392157 0.0941176 0.501961 0.392157 
0.0941176 0.501961 0.392157 0.0941176 0.501961 0.392157 
0.0941176 0.501961 0.392157 0.0941176 0.501961 0.392157 
0.0941176 0.501961 0.392157 0.0941176 0.501961 0.392157 
0.0941176 0.501961 0.392157 0.0941176 0.501961 0.392157 
0.0941176 0.501961 0.392157 0.0941176 0.501961 0.392157 
0.0941176 0.501961 0.392157 0.0941176 0.501961 0.392157 
0.0941176 0.501961 0.392157 0.0941176 0.501961 0.392157 
0.0941176 0.501961 0.392157 0.0941176 0.501961 0.392157 
0.0941176 0.501961 0.392157 0.0941176 0.501961 0.392157 
0.0941176 0.501961 0.392157 0.0941176 0.501961 0.392157 
0.0941176 0.501961 0.392157 0.0941176 0.501961 0.392157 
0.0941176 0.501961 0.392157 0.0941176 0.501961 0.392157 
0.0941176 0.501961 0.392157 0.0941176 0.501961 0.392157 
0.0941176 0.501961 0.392157 0.0941176 0.501961 0.392157 
0.0941176 0.501961 0.392157 0.0941176 0.501961 0.392157 
0.0941176 0.501961 0.392157 0.0941176 0.501961 0.392157 
0.0941176 0.501961 0.392157 0.0941176 0.501961 0.392157 
0.0941176 0.501961 0.392157 0.0941176 0.501961 0.392157 
0.0941176 0.501961 0.392157 0.0941176 0.501961 0.392157 
0.0941176 0.501961 0.392157 0.0941176 0.501961 0.392157 
0.0941176 0.501961 0.392157 0.0941176 0.501961 0.392157 
0.0941176 0.501961 0.392157 0.0941176 0.501961 0.392157 
0.0941176 0.501961 0.392157 0.0941176 0.501961 0.392157 
0.0941176 0.501961 0.392157 0.0941176 0.501961 0.392157 
0.0941176 0.501961 0.392157 0.0941176 0.501961 0.392157 
0.0941176 0.501961 0.392157 0.0941176 0.501961 0.392157 
0.0941176 0.501961 0.392157 0.0941176 0.501961 0.392157 
0.0941176 0.501961 0.392157 0.0941176 0.501961 0.392157 
0.0941176 0.501961 0.392157 0.0941176 0.501961 0.392157 
0.0941176 0.501961 0.392157 0.0941176 0.501961 0.392157 
0.0941176 0.501961 0.392157 0.0941176 0.501961 0.392157 
0.0941176 0.501961 0.392157 0.0941176 0.501961 0.392157 
0.0941176 0.501961 0.392157 0.0941176 0.501961 0.392157 
0.0941176 0.501961 0.392157 0.0941176 0.501961 0.392157 
0.0941176 0.501961 0.392157 0.0941176 0.501961 0.392157 
0.0941176 0.501961 0.392157 0.0941176 0.501961 0.392157 
0.0941176 0.501961 0.392157 0.0941176 0.501961 0.392157 
0.0941176 0.501961 0.392157 0.0941176 0.501961 0.392157 
0.0941176 0.501961 0.392157 0.0941176 0.501961 0.392157 
0.0941176 0.501961 0.392157 0.0941176 0.501961 0.392157 
0.0941176 0.501961 0.392157 0.0941176 0.501961 0.392157 
0.0941176 0.501961 0.392157 0.0941176 0.501961 0.392157 
0.0941176 0.501961 0.392157 0.0941176 0.501961 0.392157 
0.0941176 0.501961 0.392157 0.0941176 0.501961 0.392157 
0.0941176 0.501961 0.392157 0.0941176 0.501961 0.392157 
0.0941176 0.501961 0.392157 0.0941176 0.501961 0.392157 
0.0941176 0.501961 0.392157 0.0941176 0.501961 0.392157 
0.0941176 0.501961 0.392157 0.0941176 0.501961 0.392157 
0.0941176 0.501961 0.392157 0.0941176 0.501961 0.392157 
0.0941176 0.501961 0.392157 0.0941176 0.501961 0.392157 
0.0941176 0.501961 0.392157 0.0941176 0.501961 0.392157 
0.0941176 0.501961 0.392157 0.0941176 0.501961 0.392157 
0.0941176 0.501961 0.392157 0.0941176 0.501961 0.392157 
0.0941176 0.501961 0.392157 0.0941176 0.501961 0.392157 
0.0941176 0.501961 0.392157 0.0941176 0.501961 0.392157 
0.0941176 0.501961 0.392157 0.0941176 0.501961 0.392157 
0.0941176 0.501961 0.392157 0.0941176 0.501961 0.392157 
0.0941176 0.501961 0.392157 0.0941176 0.501961 0.392157 
0.0941176 0.501961 0.392157 0.0941176 0.501961 0.392157 
0.0941176 0.501961 0.392157 0.0941176 0.501961 0.392157 
0.0941176 0.501961 0.392157 0.0941176 0.501961 0.392157 
0.0941176 0.501961 0.392157 0.0941176 0.501961 0.392157 
0.0941176 0.501961 0.392157 0.0941176 0.501961 0.392157 
0.0941176 0.501961 0.392157 0.0941176 0.501961 0.392157 
0.0941176 0.501961 0.392157 0.0941176 0.501961 0.392157 
0.0941176 0.501961 0.392157 0.0941176 0.501961 0.392157 
0.0941176 0.501961 0.392157 0.0941176 0.501961 0.392157 
0.0941176 0.501961 0.392157 0.0941176 0.501961 0.392157 
0.0941176 0.501961 0.392157 0.0941176 0.501961 0.392157 
0.0941176 0.501961 0.392157 0.0941176 0.501961 0.392157 
0.0941176 0.501961 0.392157 0.0941176 0.501961 0.392157 
0.0941176 0.501961 0.392157 0.0941176 0.501961 0.392157 
0.0941176 0.501961 0.392157 0.0941176 0.501961 0.392157 
0.0941176 0.501961 0.392157 0.0941176 0.501961 0.392157 
0.0941176 0.501961 0.392157 0.0941176 0.501961 0.392157 
0.0941176 0.501961 0.392157 0.0941176 0.501961 0.392157 
0.0941176 0.501961 0.392157 0.0941176 0.501961 0.392157 
0.0941176 0.501961 0.392157 0.0941176 0.501961 0.392157 
0.0941176 0.501961 0.392157 0.0941176 0.501961 0.392157 
0.0941176 0.501961 0.392157 0.0941176 0.501961 0.392157 
0.0941176 0.501961 0.392157 0.0941176 0.501961 0.392157 
0.0941176 0.501961 0.392157 0.0941176 0.501961 0.392157 
0.0941176 0.501961 0.392157 0.0941176 0.501961 0.392157 
0.0941176 0.501961 0.392157 0.0941176 0.501961 0.392157 
0.0941176 0.501961 0.392157 0.0941176 0.501961 0.392157 
0.0941176 0.501961 0.392157 0.0941176 0.501961 0.392157 
0.0941176 0.501961 0.392157 0.0941176 0.501961 0.392157 
0.0941176 0.501961 0.392157 0.0941176 0.501961 0.392157 
0.0941176 0.501961 0.392157 0.0941176 0.501961 0.392157 
0.0941176 0.501961 0.392157 0.0941176 0.501961 0.392157 
0.0941176 0.501961 0.392157 0.0941176 0.501961 0.392157 
0.0941176 0.501961 0.392157 0.0941176 0.501961 0.392157 
0.0941176 0.501961 0.392157 0.0941176 0.501961 0.392157 
0.0941176 0.501961 0.392157 0.0941176 0.501961 0.392157 
0.0941176 0.501961 0.392157 0.0941176 0.501961 0.392157 
0.0941176 0.501961 0.392157 0.0941176 0.501961 0.392157 
0.0941176 0.501961 0.392157 0.0941176 0.501961 0.392157 
0.0941176 0.501961 0.392157 0.0941176 0.501961 0.392157 
0.0941176 0.501961 0.392157 0.0941176 0.501961 0.392157 
0.0941176 0.501961 0.392157 0.0941176 0.501961 0.392157 
0.0941176 0.501961 0.392157 0.0941176 0.501961 0.392157 
0.0941176 0.501961 0.392157 0.0941176 0.501961 0.392157 
0.0941176 0.501961 0.392157 0.0941176 0.501961 0.392157 
0.0941176 0.501961 0.392157 0.0941176 0.501961 0.392157 
0.0941176 0.501961 0.392157 0.0941176 0.501961 0.392157 
0.0941176 0.501961 0.392157 0.0941176 0.501961 0.392157 
0.0941176 0.501961 0.392157 0.0941176 0.501961 0.392157 
0.0941176 0.501961 0.392157 0.0941176 0.501961 0.392157 
0.0941176 0.501961 0.392157 0.0941176 0.501961 0.392157 
0.0941176 0.501961 0.392157 0.0941176 0.501961 0.392157 
0.0941176 0.501961 0.392157 0.0941176 0.501961 0.392157 
0.0941176 0.501961 0.392157 0.0941176 0.501961 0.392157 
0.0941176 0.501961 0.392157 0.0941176 0.501961 0.392157 
0.0941176 0.501961 0.392157 0.0941176 0.501961 0.392157 
0.0941176 0.501961 0.392157 0.0941176 0.501961 0.392157 
0.0941176 0.501961 0.392157 0.0941176 0.501961 0.392157 
0.0941176 0.501961 0.392157 0.0941176 0.501961 0.392157 
0.0941176 0.501961 0.392157 0.0941176 0.501961 0.392157 
0.0941176 0.501961 0.392157 0.0941176 0.501961 0.392157 
0.0941176 0.501961 0.392157 0.0941176 0.501961 0.392157 
0.0941176 0.501961 0.392157 0.0941176 0.501961 0.392157 
0.0941176 0.501961 0.392157 0.0941176 0.501961 0.392157 
0.0941176 0.501961 0.392157 0.0941176 0.501961 0.392157 
0.0941176 0.501961 0.392157 0.0941176 0.501961 0.392157 
0.0941176 0.501961 0.392157 0.0941176 0.501961 0.392157 
0.0941176 0.501961 0.392157 0.0941176 0.501961 0.392157 
0.0941176 0.501961 0.392157 0.0941176 0.501961 0.392157 
0.0941176 0.501961 0.392157 0.0941176 0.501961 0.392157 
0.0941176 0.501961 0.392157 0.0941176 0.501961 0.392157 
0.0941176 0.501961 0.392157 0.0941176 0.501961 0.392157 
0.0941176 0.501961 0.392157 0.0941176 0.501961 0.392157 
0.0941176 0.501961 0.392157 0.0941176 0.501961 0.392157 
0.0941176 0.501961 0.392157 0.0941176 0.501961 0.392157 
0.0941176 0.501961 0.392157 0.0941176 0.501961 0.392157 
0.0941176 0.501961 0.392157 0.0941176 0.501961 0.392157 
0.0941176 0.501961 0.392157 0.0941176 0.501961 0.392157 
0.0941176 0.501961 0.392157 0.0941176 0.501961 0.392157 
0.0941176 0.501961 0.392157 0.0941176 0.501961 0.392157 
0.0941176 0.501961 0.392157 0.0941176 0.501961 0.392157 
0.0941176 0.501961 0.392157 0.0941176 0.501961 0.392157 
0.0941176 0.501961 0.392157 0.0941176 0.501961 0.392157 
0.0941176 0.501961 0.392157 0.0941176 0.501961 0.392157 
0.0941176 0.501961 0.392157 0.0941176 0.501961 0.392157 
0.0941176 0.501961 0.392157 0.0941176 0.501961 0.392157 
0.0941176 0.501961 0.392157 0.0941176 0.501961 0.392157 
0.0941176 0.501961 0.392157 0.0941176 0.501961 0.392157 
0.0941176 0.501961 0.392157 0.0941176 0.501961 0.392157 
0.0941176 0.501961 0.392157 0.0941176 0.501961 0.392157 
0.0941176 0.501961 0.392157 0.0941176 0.501961 0.392157 
0.0941176 0.501961 0.392157 0.0941176 0.501961 0.392157 
0.0941176 0.501961 0.392157 0.0941176 0.501961 0.392157 
0.0941176 0.501961 0.392157 0.0941176 0.501961 0.392157 
0.0941176 0.501961 0.392157 0.0941176 0.501961 0.392157 
0.0941176 0.501961 0.392157 0.0941176 0.501961 0.392157 
0.0941176 0.501961 0.392157 0.0941176 0.501961 0.392157 
0.0941176 0.501961 0.392157 0.0941176 0.501961 0.392157 
0.0941176 0.501961 0.392157 0.0941176 0.501961 0.392157 
0.0941176 0.501961 0.392157 0.0941176 0.501961 0.392157 
0.0941176 0.501961 0.392157 0.0941176 0.501961 0.392157 
0.0941176 0.501961 0.392157 0.0941176 0.501961 0.392157 
0.0941176 0.501961 0.392157 0.0941176 0.501961 0.392157 
0.0941176 0.501961 0.392157 0.0941176 0.501961 0.392157 
0.0941176 0.501961 0.392157 0.0941176 0.501961 0.392157 
0.0941176 0.501961 0.392157 0.0941176 0.501961 0.392157 
0.0941176 0.501961 0.392157 0.0941176 0.501961 0.392157 
0.0941176 0.501961 0.392157 0.0941176 0.501961 0.392157 
0.0941176 0.501961 0.392157 0.0941176 0.501961 0.392157 
0.0941176 0.501961 0.392157 0.0941176 0.501961 0.392157 
0.0941176 0.501961 0.392157 0.0941176 0.501961 0.392157 
0.0941176 0.501961 0.392157 0.0941176 0.501961 0.392157 
0.0941176 0.501961 0.392157 0.0941176 0.501961 0.392157 
0.0941176 0.501961 0.392157 0.0941176 0.501961 0.392157 
0.0941176 0.501961 0.392157 0.0941176 0.501961 0.392157 
0.0941176 0.501961 0.392157 0.0941176 0.501961 0.392157 
0.0941176 0.501961 0.392157 0.0941176 0.501961 0.392157 
0.0941176 0.501961 0.392157 0.0941176 0.501961 0.392157 
0.0941176 0.501961 0.392157 0.0941176 0.501961 0.392157 
0.0941176 0.501961 0.392157 0.0941176 0.501961 0.392157 
0.0941176 0.501961 0.392157 0.0941176 0.501961 0.392157 
0.0941176 0.501961 0.392157 0.0941176 0.501961 0.392157 
0.0941176 0.501961 0.392157 0.0941176 0.501961 0.392157 
0.0941176 0.501961 0.392157 0.0941176 0.501961 0.392157 
0.0941176 0.501961 0.392157 0.0941176 0.501961 0.392157 
0.0941176 0.501961 0.392157 0.0941176 0.501961 0.392157 
0.0941176 0.501961 0.392157 0.0941176 0.501961 0.392157 
0.0941176 0.501961 0.392157 0.0941176 0.501961 0.392157 
0.0941176 0.501961 0.392157 0.0941176 0.501961 0.392157 
0.0941176 0.501961 0.392157 0.0941176 0.501961 0.392157 
0.0941176 0.501961 0.392157 0.0941176 0.501961 0.392157 
0.0941176 0.501961 0.392157 0.0941176 0.501961 0.392157 
0.0941176 0.501961 0.392157 0.0941176 0.501961 0.392157 
0.0941176 0.501961 0.392157 0.0941176 0.501961 0.392157 
0.0941176 0.501961 0.392157 0.0941176 0.501961 0.392157 
0.0941176 0.501961 0.392157 0.0941176 0.501961 0.392157 
0.0941176 0.501961 0.392157 0.0941176 0.501961 0.392157 
0.0941176 0.501961 0.392157 0.0941176 0.501961 0.392157 
0.0941176 0.501961 0.392157 0.0941176 0.501961 0.392157 
0.0941176 0.501961 0.392157 0.0941176 0.501961 0.392157 
0.0941176 0.501961 0.392157 0.0941176 0.501961 0.392157 
0.0941176 0.501961 0.392157 0.0941176 0.501961 0.392157 
0.0941176 0.501961 0.392157 0.0941176 0.501961 0.392157 
0.0941176 0.501961 0.392157 0.0941176 0.501961 0.392157 
0.0941176 0.501961 0.392157 0.0941176 0.501961 0.392157 
0.0941176 0.501961 0.392157 0.0941176 0.501961 0.392157 
0.0941176 0.501961 0.392157 0.0941176 0.501961 0.392157 
0.0941176 0.501961 0.392157 0.0941176 0.501961 0.392157 
0.0941176 0.501961 0.392157 0.0941176 0.501961 0.392157 
0.0941176 0.501961 0.392157 0.0941176 0.501961 0.392157 
0.0941176 0.501961 0.392157 0.0941176 0.501961 0.392157 
0.0941176 0.501961 0.392157 0.0941176 0.501961 0.392157 
0.0941176 0.501961 0.392157 0.0941176 0.501961 0.392157 
0.0941176 0.501961 0.392157 0.0941176 0.501961 0.392157 
0.0941176 0.501961 0.392157 0.0941176 0.501961 0.392157 
0.0941176 0.501961 0.392157 0.0941176 0.501961 0.392157 
0.0941176 0.501961 0.392157 0.0941176 0.501961 0.392157 
0.0941176 0.501961 0.392157 0.0941176 0.501961 0.392157 
0.0941176 0.501961 0.392157 0.0941176 0.501961 0.392157 
0.0941176 0.501961 0.392157 0.0941176 0.501961 0.392157 
0.0941176 0.501961 0.392157 0.0941176 0.501961 0.392157 
0.0941176 0.501961 0.392157 0.0941176 0.501961 0.392157 
0.0941176 0.501961 0.392157 0.0941176 0.501961 0.392157 
0.0941176 0.501961 0.392157 0.0941176 0.501961 0.392157 
0.0941176 0.501961 0.392157 0.0941176 0.501961 0.392157 
0.0941176 0.501961 0.392157 0.0941176 0.501961 0.392157 
0.0941176 0.501961 0.392157 0.0941176 0.501961 0.392157 
0.0941176 0.501961 0.392157 0.0941176 0.501961 0.392157 
0.0941176 0.501961 0.392157 0.0941176 0.501961 0.392157 
0.0941176 0.501961 0.392157 0.0941176 0.501961 0.392157 
0.0941176 0.501961 0.392157 0.0941176 0.501961 0.392157 
0.0941176 0.501961 0.392157 0.0941176 0.501961 0.392157 
0.0941176 0.501961 0.392157 0.0941176 0.501961 0.392157 
0.0941176 0.501961 0.392157 0.0941176 0.501961 0.392157 
0.0941176 0.501961 0.392157 0.0941176 0.501961 0.392157 
0.0941176 0.501961 0.392157 0.0941176 0.501961 0.392157 
0.0941176 0.501961 0.392157 0.0941176 0.501961 0.392157 
0.0941176 0.501961 0.392157 0.0941176 0.501961 0.392157 
0.0941176 0.501961 0.392157 0.0941176 0.501961 0.392157 
0.0941176 0.501961 0.392157 0.0941176 0.501961 0.392157 
0.0941176 0.501961 0.392157 0.0941176 0.501961 0.392157 
0.0941176 0.501961 0.392157 0.0941176 0.501961 0.392157 
0.0941176 0.501961 0.392157 0.0941176 0.501961 0.392157 
0.0941176 0.501961 0.392157 0.0941176 0.501961 0.392157 
0.0941176 0.501961 0.392157 0.0941176 0.501961 0.392157 
0.0941176 0.501961 0.392157 0.0941176 0.501961 0.392157 
0.0941176 0.501961 0.392157 0.0941176 0.501961 0.392157 
0.0941176 0.501961 0.392157 0.0941176 0.501961 0.392157 
0.0941176 0.501961 0.392157 0.0941176 0.501961 0.392157 
0.0941176 0.501961 0.392157 0.0941176 0.501961 0.392157 
0.0941176 0.501961 0.392157 0.0941176 0.501961 0.392157 
0.0941176 0.501961 0.392157 0.0941176 0.501961 0.392157 
0.0941176 0.501961 0.392157 0.0941176 0.501961 0.392157 
0.0941176 0.501961 0.392157 0.0941176 0.501961 0.392157 
0.0941176 0.501961 0.392157 0.0941176 0.501961 0.392157 
0.0941176 0.501961 0.392157 0.0941176 0.501961 0.392157 
0.0941176 0.501961 0.392157 0.0941176 0.501961 0.392157 
0.0941176 0.501961 0.392157 0.0941176 0.501961 0.392157 
0.0941176 0.501961 0.392157 0.0941176 0.501961 0.392157 
0.0941176 0.501961 0.392157 0.0941176 0.501961 0.392157 
0.0941176 0.501961 0.392157 0.0941176 0.501961 0.392157 
0.0941176 0.501961 0.392157 0.0941176 0.501961 0.392157 
0.0941176 0.501961 0.392157 0.0941176 0.501961 0.392157 
0.0941176 0.501961 0.392157 0.0941176 0.501961 0.392157 
0.0941176 0.501961 0.392157 0.0941176 0.501961 0.392157 
0.0941176 0.501961 0.392157 0.0941176 0.501961 0.392157 
0.0941176 0.501961 0.392157 0.0941176 0.501961 0.392157 
0.0941176 0.501961 0.392157 0.0941176 0.501961 0.392157 
0.0941176 0.501961 0.392157 0.0941176 0.501961 0.392157 
0.0941176 0.501961 0.392157 0.0941176 0.501961 0.392157 
0.0941176 0.501961 0.392157 0.0941176 0.501961 0.392157 
0.0941176 0.501961 0.392157 0.0941176 0.501961 0.392157 
0.0941176 0.501961 0.392157 0.0941176 0.501961 0.392157 
0.0941176 0.501961 0.392157 0.0941176 0.501961 0.392157 
0.0941176 0.501961 0.392157 0.0941176 0.501961 0.392157 
0.0941176 0.501961 0.392157 0.0941176 0.501961 0.392157 
0.0941176 0.501961 0.392157 0.0941176 0.501961 0.392157 
0.0941176 0.501961 0.392157 0.0941176 0.501961 0.392157 
0.0941176 0.501961 0.392157 0.0941176 0.501961 0.392157 
0.0941176 0.501961 0.392157 0.0941176 0.501961 0.392157 
0.0941176 0.501961 0.392157 0.0941176 0.501961 0.392157 
0.0941176 0.501961 0.392157 0.0941176 0.501961 0.392157 
0.0941176 0.501961 0.392157 0.0941176 0.501961 0.392157 
0.0941176 0.501961 0.392157 0.0941176 0.501961 0.392157 
0.0941176 0.501961 0.392157 0.0941176 0.501961 0.392157 
0.0941176 0.501961 0.392157 0.0941176 0.501961 0.392157 
0.0941176 0.501961 0.392157 0.0941176 0.501961 0.392157 
0.0941176 0.501961 0.392157 0.0941176 0.501961 0.392157 
0.0941176 0.501961 0.392157 0.0941176 0.501961 0.392157 
0.0941176 0.501961 0.392157 0.0941176 0.501961 0.392157 
0.0941176 0.501961 0.392157 0.0941176 0.501961 0.392157 
0.0941176 0.501961 0.392157 0.0941176 0.501961 0.392157 
0.0941176 0.501961 0.392157 0.0941176 0.501961 0.392157 
0.0941176 0.501961 0.392157 0.0941176 0.501961 0.392157 
0.0941176 0.501961 0.392157 0.0941176 0.501961 0.392157 
0.0941176 0.501961 0.392157 0.0941176 0.501961 0.392157 
0.0941176 0.501961 0.392157 0.0941176 0.501961 0.392157 
0.0941176 0.501961 0.392157 0.0941176 0.501961 0.392157 
0.0941176 0.501961 0.392157 0.0941176 0.501961 0.392157 
0.0941176 0.501961 0.392157 0.0941176 0.501961 0.392157 
0.0941176 0.501961 0.392157 0.0941176 0.501961 0.392157 
0.0941176 0.501961 0.392157 0.0941176 0.501961 0.392157 
0.0941176 0.501961 0.392157 0.0941176 0.501961 0.392157 
0.0941176 0.501961 0.392157 0.0941176 0.501961 0.392157 
0.0941176 0.501961 0.392157 0.0941176 0.501961 0.392157 
0.0941176 0.501961 0.392157 0.0941176 0.501961 0.392157 
0.0941176 0.501961 0.392157 0.0941176 0.501961 0.392157 
0.0941176 0.501961 0.392157 0.0941176 0.501961 0.392157 
0.0941176 0.501961 0.392157 0.0941176 0.501961 0.392157 
0.0941176 0.501961 0.392157 0.0941176 0.501961 0.392157 
0.0941176 0.501961 0.392157 0.0941176 0.501961 0.392157 
0.0941176 0.501961 0.392157 0.0941176 0.501961 0.392157 
0.0941176 0.501961 0.392157 0.0941176 0.501961 0.392157 
0.0941176 0.501961 0.392157 0.0941176 0.501961 0.392157 
0.0941176 0.501961 0.392157 0.0941176 0.501961 0.392157 
0.0941176 0.501961 0.392157 0.0941176 0.501961 0.392157 
0.0941176 0.501961 0.392157 0.0941176 0.501961 0.392157 
0.0941176 0.501961 0.392157 0.0941176 0.501961 0.392157 
0.0941176 0.501961 0.392157 0.0941176 0.501961 0.392157 
0.0941176 0.501961 0.392157 0.0941176 0.501961 0.392157 
0.0941176 0.501961 0.392157 0.0941176 0.501961 0.392157 
0.0941176 0.501961 0.392157 0.0941176 0.501961 0.392157 
0.0941176 0.501961 0.392157 0.0941176 0.501961 0.392157 
0.0941176 0.501961 0.392157 0.0941176 0.501961 0.392157 
0.0941176 0.501961 0.392157 0.0941176 0.501961 0.392157 
0.0941176 0.501961 0.392157 0.0941176 0.501961 0.392157 
0.0941176 0.501961 0.392157 0.0941176 0.501961 0.392157 
0.0941176 0.501961 0.392157 0.0941176 0.501961 0.392157 
0.0941176 0.501961 0.392157 0.0941176 0.501961 0.392157 
0.0941176 0.501961 0.392157 0.0941176 0.501961 0.392157 
0.0941176 0.501961 0.392157 0.0941176 0.501961 0.392157 
0.0941176 0.501961 0.392157 0.0941176 0.501961 0.392157 
0.0941176 0.501961 0.392157 0.0941176 0.501961 0.392157 