# vtk DataFile Version 4.2
vtk output
ASCII
DATASET POLYDATA
POINTS 2030 float
243.225 95.0655 50.6655 243.122 95.0066 50.6671 243.084 95.1174 50.595 
243.396 94.9862 50.9226 243.175 95.1885 50.6766 240.73 96.6172 49.945 
240.406 97.0014 49.9252 242.691 96.801 50.6279 239.678 97.6834 49.9233 
239.312 97.5876 49.8894 241.586 97.6972 50.362 241.962 97.6063 50.5059 
237.454 99.0419 49.9387 234.92 100.493 49.8004 234.681 100.034 49.7413 
237.474 100.108 50.1719 234.12 101.173 49.852 233.712 100.733 49.7548 
233.289 101.291 49.8062 234.001 102.74 50.4454 234.835 102.264 50.4243 
230.155 104.316 50.0461 231.329 103.994 50.1889 227.114 106.956 50.075 
223.886 108.098 49.8776 224.578 108.432 50.0746 222.606 109.974 50.4223 
220.979 110.783 50.3365 219.944 111.958 50.6282 242.937 93.7678 51.1783 
241.175 94.5736 50.4269 243.06 94.6679 50.8316 242.704 95.2443 50.5601 
243.815 94.8176 51.4637 238.483 96.1934 50.0978 243.33 95.5681 50.8718 
238.425 96.9163 49.9871 235.116 98.4913 49.9124 236.23 98.0452 49.9259 
234.855 99.3996 49.7869 233.14 99.7838 49.8564 229.074 102.358 49.877 
236.263 101.8 50.6682 229.925 102.743 49.7878 233.683 103.288 50.6426 
232.188 104.16 50.5283 225.061 106.497 49.7671 228.252 107.029 50.4458 
220.505 109.616 50.2354 219.677 109.686 50.3004 221.579 108.914 50.1469 
222.782 109.066 50.1396 221.419 110.144 50.2771 220.373 111.192 50.4786 
221.646 110.69 50.5141 217.522 112.366 50.5992 217.354 113.111 50.7765 
214.209 114.605 50.8267 213.323 116.019 51.0934 214.995 116.103 51.4056 
213.28 116.438 51.2047 214.029 116.284 51.2025 212.386 117.477 51.5724 
212.239 117.47 51.6469 213.532 116.782 51.3809 212.371 117.628 51.6803 
242.672 92.89 51.7698 240.193 93.2854 51.0627 238.436 94.1361 50.8778 
234.384 96.2746 50.812 234.963 97.2492 50.2883 244.219 96.8516 52.2784 
241.153 98.9387 50.9485 239.194 100.001 50.8629 238.134 101.361 51.3702 
225.914 103.268 50.2361 235.324 103.322 51.5181 224.075 104.907 50.1955 
232.374 105.35 51.6261 221.158 106.96 50.4127 217.153 110.004 50.7182 
225.499 109.882 51.5047 216.134 110.951 50.7718 223.043 110.885 51.252 
216.194 112.007 50.6418 219.438 113.021 51.2375 214.329 113.857 50.8136 
218.28 113.825 51.3595 212.078 114.901 51.4254 211.697 115.197 51.6298 
211.592 116.376 51.8446 212.729 116.621 51.3864 212.014 117.103 51.7435 
211.296 117.479 52.5025 241.337 91.8469 52.1027 242.784 92.3686 52.3977 
243.782 93.5589 52.4629 244.271 94.7834 52.2371 243.911 97.9584 52.4421 
217.04 107.734 51.4494 228.831 107.757 51.4417 211.071 113.129 52.2214 
210.145 114.634 52.9858 212.716 118.23 52.2164 213.134 118.334 52.405 
213.649 118.167 52.4473 211.84 118.437 52.8815 212.146 118.554 52.7584 
240.895 89.5707 53.8062 237.854 90.6997 52.9902 242.301 91.0228 53.458 
245.071 96.4649 53.8209 244.78 97.7314 53.6386 243.112 99.1249 52.542 
236.026 103.607 52.3409 236.188 104.026 52.9845 211.606 110.006 52.8454 
219.929 113.889 52.3952 210.805 117.544 53.3704 215.968 117.432 53.0965 
212.974 118.949 53.2069 213.379 119.046 53.3916 211.998 118.964 53.7803 
241.229 88.909 54.7595 243.146 91.1986 54.4324 244.823 94.6008 54.2143 
244.54 99.0315 54.089 243.923 99.8093 54.1104 235.144 105.45 53.9933 
230.719 108.211 53.6258 210.038 109.058 54.0945 209.268 111.014 54.2529 
208.802 110.684 54.8575 209.319 111.935 54.0664 208.932 112.937 54.5947 
211.094 118.454 54.7105 211.438 118.9 54.637 245.524 98.2015 55.6124 
241.485 101.899 54.433 211.856 106.549 54.0825 208.974 109.162 54.8972 
208.149 110.533 55.791 208.522 112.256 55.3906 210.254 117.043 54.7713 
212.663 119.823 55.9569 213.3 119.888 55.3182 238.557 86.1262 56.3874 
240.286 87.1464 56.1219 235.387 87.2876 55.7682 241.059 87.3897 56.5827 
241.157 87.8564 55.978 243.082 90.3216 55.9515 226.09 92.889 55.3164 
208.454 105.899 56.3018 207.793 108.391 56.5826 209.055 114.513 56.1038 
212.13 119.474 55.8054 215.182 119.734 55.5208 212.79 120.007 56.7542 
238.895 84.6626 57.7568 238.677 84.909 57.4366 237.205 85.2792 56.9568 
239.765 85.2668 57.9015 241.255 87.0248 57.5008 229.558 88.4118 56.8027 
246.098 99.8839 57.8069 207.029 105.45 57.9329 208.199 112.145 56.7752 
209.004 114.357 56.8254 221.674 115.797 56.4662 213.317 120.357 57.2578 
213.935 120.632 57.3272 246.042 101.023 58.5581 245.467 101.68 58.2288 
245.313 102.083 58.4918 206.748 106.257 58.3826 207.945 111.601 57.8104 
212.108 119.467 57.7187 214.995 120.683 57.1779 213.257 120.47 58.2349 
215.384 121.151 58.3471 214.908 121.224 58.5523 237.02 82.6918 59.2402 
237.979 82.7036 59.5699 238.547 82.9099 59.7522 233.055 83.7426 58.9033 
211.008 98.7844 58.0661 206.723 101.123 59.4305 206.215 101.744 59.8477 
206.618 106.775 59.3711 207.214 109.235 58.9148 216.227 121.476 59.345 
214.822 121.497 59.4548 237.639 81.3591 61.0066 235.325 81.6428 60.1093 
239.197 83.323 59.9146 241.883 87.1476 59.3507 217.956 91.0815 59.5379 
243.781 90.8412 60.125 206.562 99.1624 60.316 246.94 99.5949 60.4365 
246.847 101.366 60.4783 209.66 114.819 60.0112 212.13 119.071 60.2517 
217.316 121.105 59.4379 214.743 121.827 60.9208 215.398 121.844 60.0986 
215.992 121.904 60.1663 215.293 122.044 60.8029 236.206 80.3796 61.2743 
238.153 81.0727 61.9085 242.131 87.3993 60.5254 246.892 98.4929 61.0384 
205.227 98.6255 61.8651 205.23 99.6057 61.709 246.896 102.503 61.3511 
205.744 103.091 60.9257 205.811 103.96 61.2498 205.993 104.844 60.9299 
214.856 122 61.7038 217.034 122.169 61.0543 235.474 79.2887 62.2193 
233.045 79.8314 61.9936 234.451 79.6151 61.9439 228.104 82.8286 61.2496 
239.808 82.956 61.9436 241.239 85.4321 61.9767 242.523 88.0912 61.8997 
214.376 90.0047 61.6654 246.019 95.8818 61.4102 205.757 96.1402 62.2766 
205.869 97.3265 61.6743 205.409 102.579 62.2743 205.747 104.002 62.2434 
206.939 107.533 62.2696 215.823 122.729 62.9654 216.336 122.637 62.014 
216.842 122.625 61.9338 206.916 93.4676 62.9599 204.76 95.6548 63.4406 
204.301 96.7651 63.7041 204.624 99.7604 63.4531 247.7 101.102 63.2152 
246.283 105.023 63.1335 216.33 123.073 63.6614 225.845 80.5094 63.8588 
240.06 82.8167 63.8264 204.211 94.7034 64.5463 204.115 96.8966 64.0932 
204.262 98.5654 64.0596 205.2 102.015 63.9101 248.131 101.7 64.6481 
247.966 103.783 64.3377 246.25 105.833 63.9887 215.281 122.498 63.7822 
218.137 123.102 63.6034 210.39 87.9604 64.76 247.749 99.8092 65.2046 
248.454 102.798 65.5032 247.986 104.799 65.2128 247.152 105.475 64.6191 
213.642 120.408 64.368 218.669 123.61 64.9299 216.73 123.705 65.8718 
233.734 75.2036 66.2964 235.931 75.678 66.503 236.125 76.12 66.2823 
236.009 75.7945 66.4324 203.596 92.516 66.215 203.404 92.5993 66.3807 
203.477 93.3687 66.2711 203.613 96.312 65.6848 248.257 104.906 65.8477 
244.919 107.946 65.4213 219.759 124.006 66.2153 216.8 123.918 66.9394 
217.714 124.121 65.8612 218.399 124.282 66.1847 217.182 124.12 66.5245 
237.888 78.0898 66.7739 203.927 89.8079 67.2624 203.644 90.0532 67.3837 
202.977 90.6307 67.9407 203.337 92.6195 66.5687 247.45 98.7453 66.4885 
248.954 105.676 67.6882 247.407 107.332 67.0382 217.767 124.821 68.0769 
218.316 124.716 67.1492 233.87 73.7375 67.9776 234.95 73.5551 68.614 
235.157 73.9683 68.416 235.031 73.6621 68.552 203.684 88.2452 68.3724 
203.047 89.3683 68.425 202.757 91.9098 68.0612 203.338 95.7482 68.1168 
221 123.976 67.1638 217.316 124.506 68.0726 220.638 124.898 68.2451 
229.744 73.3179 68.7131 217.075 78.6683 68.9459 206.906 84.7257 68.8942 
204.314 86.4778 69.0625 202.492 88.3705 69.589 202.676 87.7223 69.6711 
202.532 91.8868 68.6719 202.423 92.0366 69.2277 249.65 104.939 69.3731 
249.109 106.967 68.7579 211.062 113.804 68.8159 219.921 125.48 68.7882 
235.228 73.0471 70.1819 202.018 89.9088 70.228 249.303 107.655 69.6143 
233.016 70.8762 71.4447 234.046 71.4275 71.7683 235.881 73.7576 70.9772 
201.95 90.7917 70.9057 250.947 107.737 72.2297 249.161 108.827 70.4185 
247.245 110.653 70.7442 228.705 121.18 70.5311 220.222 126.485 71.0731 
230.578 69.7844 72.1768 202.341 84.3063 72.2887 201.463 88.6988 72.0719 
250.968 108.481 72.6479 232.411 69.1742 73.7226 233.096 69.6342 73.7953 
236.316 74.2958 73.0166 201.147 83.9845 73.8871 243.769 90.6473 73.3053 
251.382 108.574 73.7034 250.698 109.768 73.1056 251.089 109.628 73.5601 
226.327 124.561 73.0117 220.219 127.215 73.3522 230.654 68.1925 74.2211 
232.103 68.5923 74.4617 226.996 69.1928 73.7603 203.168 81.5097 73.9048 
201.622 82.51 74.3201 201.192 83.4156 74.17 200.895 85.0171 74.0117 
200.846 85.7578 74.2628 201.612 89.5559 74.1984 201.842 90.3356 73.5337 
251.397 107.311 73.8668 219.29 126.664 74.3541 222.069 127.58 73.6311 
220.398 127.485 74.171 221.383 127.787 74.0579 221.953 127.812 74.0875 
221.316 128.03 74.7578 232.498 68.642 74.8154 233.952 70.2644 74.5693 
235.058 71.9054 74.9911 208.433 76.9067 74.952 200.572 82.9272 75.3219 
200.413 82.9529 75.4877 200.489 83.5394 75.3582 251 111.018 74.5448 
249.68 112.546 74.8952 224.205 127.249 74.5444 220.004 127.41 75.3793 
220.801 128 75.645 222.37 128.18 74.9703 223.16 128.099 75.0852 
229.116 66.9618 75.8091 232.646 68.3844 75.8486 220.814 69.7583 75.804 
200.295 82.5167 76.2808 201.569 89.0011 75.8656 252.469 110.324 76.5334 
251.924 111.868 76.545 225.303 127.242 75.5176 219.952 127.376 76.488 
221.389 128.398 76.2162 229.98 65.9292 77.5659 228.865 66.0994 76.9985 
231.564 66.9894 77.2197 201.436 79.3939 77.1397 200.039 80.7661 77.7836 
200.587 79.9087 77.555 199.996 82.7772 77.2987 252.72 109.654 77.4032 
219.701 126.946 77.3916 223.48 128.824 76.5512 221.346 128.56 77.2852 
223.324 129.128 77.1097 222.355 129.173 77.5746 233.24 68.8514 78.0431 
214.225 70.9369 77.9062 199.837 82.8622 78.4619 200.873 86.6148 77.6255 
253.131 110.965 78.4145 252.021 112.919 77.5688 252.81 112.255 78.3392 
251.762 113.208 77.5561 220.907 128.268 78.7086 224.947 128.754 77.3658 
221.925 129.183 78.4246 230.13 65.502 78.8172 231.223 66.2117 79.1095 
199.573 81.4801 79.1409 252.828 109.126 78.5246 253.174 109.988 79.2004 
222.194 129.414 78.7529 224.784 129.82 79.0714 222.69 129.694 79.1312 
223.27 130.119 79.7826 229.091 64.4311 79.9926 227.382 63.948 80.1514 
[...]
POINT_DATA 2030
COLOR_SCALARS scalars 3
0.0941176 0.501961 0.392157 0.0941176 0.501961 0.392157 0.0941176 0.501961 0.392157 
0.0941176 0.501961 0.392157 0.0941176 0.501961 0.392157 
0.0941176 0.501961 0.392157 0.0941176 0.501961 0.392157 
0.0941176 0.501961 0.392157 0.0941176 0.501961 0.392157 
0.0941176 0.501961 0.392157 0.0941176 0.501961 0.392157 
0.0941176 0.501961 0.392157 0.0941176 0.501961 0.392157 
0.0941176 0.501961 0.392157 0.0941176 0.501961 0.392157 
0.0941176 0.501961 0.392157 0.0941176 0.501961 0.392157 
0.0941176 0.501961 0.392157 0.0941176 0.501961 0.392157 
0.0941176 0.501961 0.392157 0.0941176 0.501961 0.392157 
0.0941176 0.501961 0.392157 0.0941176 0.501961 0.392157 
0.0941176 0.501961 0.392157 0.0941176 0.501961 0.392157 
0.0941176 0.501961 0.392157 0.0941176 0.501961 0.392157 
0.0941176 0.501961 0.392157 0.0941176 0.501961 0.392157 
0.0941176 0.501961 0.392157 0.0941176 0.501961 0.392157 
0.0941176 0.501961 0.392157 0.0941176 0.501961 0.392157 
0.0941176 0.501961 0.392157 0.0941176 0.501961 0.392157 
0.0941176 0.501961 0.392157 0.0941176 0.501961 0.392157 
0.0941176 0.501961 0.392157 0.0941176 0.501961 0.392157 
0.0941176 0.501961 0.392157 0.0941176 0.501961 0.392157 
0.0941176 0.501961 0.392157 0.0941176 0.501961 0.392157 
0.0941176 0.501961 0.392157 0.0941176 0.501961 0.392157 
0.0941176 0.501961 0.392157 0.0941176 0.501961 0.392157 
0.0941176 0.501961 0.392157 0.0941176 0.501961 0.392157 
0.0941176 0.501961 0.392157 0.0941176 0.501961 0.392157 
0.0941176 0.501961 0.392157 0.0941176 0.501961 0.392157 
0.0941176 0.501961 0.392157 0.0941176 0.501961 0.392157 
0.0941176 0.501961 0.392157 0.0941176 0.501961 0.392157 
0.0941176 0.501961 0.392157 0.0941176 0.501961 0.392157 
0.0941176 0.501961 0.392157 0.0941176 0.501961 0.392157 
0.0941176 0.501961 0.392157 0.0941176 0.501961 0.392157 
0.0941176 0.501961 0.392157 0.0941176 0.501961 0.392157 
0.0941176 0.501961 0.392157 0.0941176 0.501961 0.392157 
0.0941176 0.501961 0.392157 0.0941176 0.501961 0.392157 
0.0941176 0.501961 0.392157 0.0941176 0.501961 0.392157 
0.0941176 0.501961 0.392157 0.0941176 0.501961 0.392157 
0.0941176 0.501961 0.392157 0.0941176 0.501961 0.392157 
0.0941176 0.501961 0.392157 0.0941176 0.501961 0.392157 
0.0941176 0.501961 0.392157 0.0941176 0.501961 0.392157 
0.0941176 0.501961 0.392157 0.0941176 0.501961 0.392157 
0.0941176 0.501961 0.392157 0.0941176 0.501961 0.392157 
0.0941176 0.501961 0.392157 0.0941176 0.501961 0.392157 
0.0941176 0.501961 0.392157 0.0941176 0.501961 0.392157 
0.0941176 0.501961 0.392157 0.0941176 0.501961 0.392157 
0.0941176 0.501961 0.392157 0.0941176 0.501961 0.392157 
0.0941176 0.501961 0.392157 0.0941176 0.501961 0.392157 
0.0941176 0.501961 0.392157 0.0941176 0.501961 0.392157 
0.0941176 0.501961 0.392157 0.0941176 0.501961 0.392157 
0.0941176 0.501961 0.392157 0.0941176 0.501961 0.392157 
0.0941176 0.501961 0.392157 0.0941176 0.501961 0.392157 
0.0941176 0.501961 0.392157 0.0941176 0.501961 0.392157 
0.0941176 0.501961 0.392157 0.0941176 0.501961 0.392157 
0.0941176 0.501961 0.392157 0.0941176 0.501961 0.392157 
0.0941176 0.501961 0.392157 0.0941176 0.501961 0.392157 
0.0941176 0.501961 0.392157 0.0941176 0.501961 0.392157 
0.0941176 0.501961 0.392157 0.0941176 0.501961 0.392157 
0.0941176 0.501961 0.392157 0.0941176 0.501961 0.392157 
0.0941176 0.501961 0.392157 0.0941176 0.501961 0.392157 
0.0941176 0.501961 0.392157 0.0941176 0.501961 0.392157 
0.0941176 0.501961 0.392157 0.0941176 0.501961 0.392157 
0.0941176 0.501961 0.392157 0.0941176 0.501961 0.392157 
0.0941176 0.501961 0.392157 0.0941176 0.501961 0.392157 
0.0941176 0.501961 0.392157 0.0941176 0.501961 0.392157 
0.0941176 0.501961 0.392157 0.0941176 0.501961 0.392157 
0.0941176 0.501961 0.392157 0.0941176 0.501961 0.392157 
0.0941176 0.501961 0.392157 0.0941176 0.501961 0.392157 
0.0941176 0.501961 0.392157 0.0941176 0.501961 0.392157 
0.0941176 0.501961 0.392157 0.0941176 0.501961 0.392157 
0.0941176 0.501961 0.392157 0.0941176 0.501961 0.392157 
0.0941176 0.501961 0.392157 0.0941176 0.501961 0.392157 
0.0941176 0.501961 0.392157 0.0941176 0.501961 0.392157 
0.0941176 0.501961 0.392157 0.0941176 0.501961 0.392157 
0.0941176 0.501961 0.392157 0.0941176 0.501961 0.392157 
0.0941176 0.501961 0.392157 0.0941176 0.501961 0.392157 
0.0941176 0.501961 0.392157 0.0941176 0.501961 0.392157 
0.0941176 0.501961 0.392157 0.0941176 0.501961 0.392157 
0.0941176 0.501961 0.392157 0.0941176 0.501961 0.392157 
0.0941176 0.501961 0.392157 0.0941176 0.501961 0.392157 
0.0941176 0.501961 0.392157 0.0941176 0.501961 0.392157 
0.0941176 0.501961 0.392157 0.0941176 0.501961 0.392157 
0.0941176 0.501961 0.392157 0.0941176 0.501961 0.392157 
0.0941176 0.501961 0.392157 0.0941176 0.501961 0.392157 
0.0941176 0.501961 0.392157 0.0941176 0.501961 0.392157 
0.0941176 0.501961 0.392157 0.0941176 0.501961 0.392157 
0.0941176 0.501961 0.392157 0.0941176 0.501961 0.392157 
0.0941176 0.501961 0.392157 0.0941176 0.501961 0.392157 
0.0941176 0.501961 0.392157 0.0941176 0.501961 0.392157 
0.0941176 0.501961 0.392157 0.0941176 0.501961 0.392157 
0.0941176 0.501961 0.392157 0.0941176 0.501961 0.392157 
0.0941176 0.501961 0.392157 0.0941176 0.501961 0.392157 
0.0941176 0.501961 0.392157 0.0941176 0.501961 0.392157 
0.0941176 0.501961 0.392157 0.0941176 0.501961 0.392157 
0.0941176 0.501961 0.392157 0.0941176 0.501961 0.392157 
0.0941176 0.501961 0.392157 0.0941176 0.501961 0.392157 
0.0941176 0.501961 0.392157 0.0941176 0.501961 0.392157 
0.0941176 0.501961 0.392157 0.0941176 0.501961 0.392157 
0.0941176 0.501961 0.392157 0.0941176 0.501961 0.392157 
0.0941176 0.501961 0.392157 0.0941176 0.501961 0.392157 
0.0941176 0.501961 0.392157 0.0941176 0.501961 0.392157 
0.0941176 0.501961 0.392157 0.0941176 0.501961 0.392157 
0.0941176 0.501961 0.392157 0.0941176 0.501961 0.392157 
0.0941176 0.501961 0.392157 0.0941176 0.501961 0.392157 
0.0941176 0.501961 0.392157 0.0941176 0.501961 0.392157 
0.0941176 0.501961 0.392157 0.0941176 0.501961 0.392157 
0.0941176 0.501961 0.392157 0.0941176 0.501961 0.392157 
0.0941176 0.501961 0.392157 0.0941176 0.501961 0.392157 
0.0941176 0.501961 0.392157 0.0941176 0.501961 0.392157 
0.0941176 0.501961 0.392157 0.0941176 0.501961 0.392157 
0.0941176 0.501961 0.392157 0.0941176 0.501961 0.392157 
0.0941176 0.501961 0.392157 0.0941176 0.501961 0.392157 
0.0941176 0.501961 0.392157 0.0941176 0.501961 0.392157 
0.0941176 0.501961 0.392157 0.0941176 0.501961 0.392157 
0.0941176 0.501961 0.392157 0.0941176 0.501961 0.392157 
0.0941176 0.501961 0.392157 0.0941176 0.501961 0.392157 
0.0941176 0.501961 0.392157 0.0941176 0.501961 0.392157 
0.0941176 0.501961 0.392157 0.0941176 0.501961 0.392157 
0.0941176 0.501961 0.392157 0.0941176 0.501961 0.392157 
0.0941176 0.501961 0.392157 0.0941176 0.501961 0.392157 
0.0941176 0.501961 0.392157 0.0941176 0.501961 0.392157 
0.0941176 0.501961 0.392157 0.0941176 0.501961 0.392157 
0.0941176 0.501961 0.392157 0.0941176 0.501961 0.392157 
0.0941176 0.501961 0.392157 0.0941176 0.501961 0.392157 
0.0941176 0.501961 0.392157 0.0941176 0.501961 0.392157 
0.0941176 0.501961 0.392157 0.0941176 0.501961 0.392157 
0.0941176 0.501961 0.392157 0.0941176 0.501961 0.392157 
0.0941176 0.501961 0.392157 0.0941176 0.501961 0.392157 
0.0941176 0.501961 0.392157 0.0941176 0.501961 0.392157 
0.0941176 0.501961 0.392157 0.0941176 0.501961 0.392157 
0.0941176 0.501961 0.392157 0.0941176 0.501961 0.392157 
0.0941176 0.501961 0.392157 0.0941176 0.501961 0.392157 
0.0941176 0.501961 0.392157 0.0941176 0.501961 0.392157 
0.0941176 0.501961 0.392157 0.0941176 0.501961 0.392157 
0.0941176 0.501961 0.392157 0.0941176 0.501961 0.392157 
0.0941176 0.501961 0.392157 0.0941176 0.501961 0.392157 
0.0941176 0.501961 0.392157 0.0941176 0.501961 0.392157 
0.0941176 0.501961 0.392157 0.0941176 0.501961 0.392157 
0.0941176 0.501961 0.392157 0.0941176 0.501961 0.392157 
0.0941176 0.501961 0.392157 0.0941176 0.501961 0.392157 
0.0941176 0.501961 0.392157 0.0941176 0.501961 0.392157 
0.0941176 0.501961 0.392157 0.0941176 0.501961 0.392157 
0.0941176 0.501961 0.392157 0.0941176 0.501961 0.392157 
0.0941176 0.501961 0.392157 0.0941176 0.501961 0.392157 
0.0941176 0.501961 0.392157 0.0941176 0.501961 0.392157 
0.0941176 0.501961 0.392157 0.0941176 0.501961 0.392157 
0.0941176 0.501961 0.392157 0.0941176 0.501961 0.392157 
0.0941176 0.501961 0.392157 0.0941176 0.501961 0.392157 
0.0941176 0.501961 0.392157 0.0941176 0.501961 0.392157 
0.0941176 0.501961 0.392157 0.0941176 0.501961 0.392157 
0.0941176 0.501961 0.392157 0.0941176 0.501961 0.392157 
0.0941176 0.501961 0.392157 0.0941176 0.501961 0.392157 
0.0941176 0.501961 0.392157 0.0941176 0.501961 0.392157 
0.0941176 0.501961 0.392157 0.0941176 0.501961 0.392157 
0.0941176 0.501961 0.392157 0.0941176 0.501961 0.392157 
0.0941176 0.501961 0.392157 0.0941176 0.501961 0.392157 
0.0941176 0.501961 0.392157 0.0941176 0.501961 0.392157 
0.0941176 0.501961 0.392157 0.0941176 0.501961 0.392157 
0.0941176 0.501961 0.392157 0.0941176 0.501961 0.392157 
0.0941176 0.501961 0.392157 0.0941176 0.501961 0.392157 
0.0941176 0.501961 0.392157 0.0941176 0.501961 0.392157 
0.0941176 0.501961 0.392157 0.0941176 0.501961 0.392157 
0.0941176 0.501961 0.392157 0.0941176 0.501961 0.392157 
0.0941176 0.501961 0.392157 0.0941176 0.501961 0.392157 
0.0941176 0.501961 0.392157 0.0941176 0.501961 0.392157 
0.0941176 0.501961 0.392157 0.0941176 0.501961 0.392157 
0.0941176 0.501961 0.392157 0.0941176 0.501961 0.392157 
0.0941176 0.501961 0.392157 0.0941176 0.501961 0.392157 
0.0941176 0.501961 0.392157 0.0941176 0.501961 0.392157 
0.0941176 0.501961 0.392157 0.0941176 0.501961 0.392157 
0.0941176 0.501961 0.392157 0.0941176 0.501961 0.392157 
0.0941176 0.501961 0.392157 0.0941176 0.501961 0.392157 
0.0941176 0.501961 0.392157 0.0941176 0.501961 0.392157 
0.0941176 0.501961 0.392157 0.0941176 0.501961 0.392157 
0.0941176 0.501961 0.392157 0.0941176 0.501961 0.392157 
0.0941176 0.501961 0.392157 0.0941176 0.501961 0.392157 
0.0941176 0.501961 0.392157 0.0941176 0.501961 0.392157 
0.0941176 0.501961 0.392157 0.0941176 0.501961 0.392157 
0.0941176 0.501961 0.392157 0.0941176 0.501961 0.392157 
0.0941176 0.501961 0.392157 0.0941176 0.501961 0.392157 
0.0941176 0.501961 0.392157 0.0941176 0.501961 0.392157 
0.0941176 0.501961 0.392157 0.0941176 0.501961 0.392157 
0.0941176 0.501961 0.392157 0.0941176 0.501961 0.392157 
0.0941176 0.501961 0.392157 0.0941176 0.501961 0.392157 
0.0941176 0.501961 0.392157 0.0941176 0.501961 0.392157 
0.0941176 0.501961 0.392157 0.0941176 0.501961 0.392157 
0.0941176 0.501961 0.392157 0.0941176 0.501961 0.392157 
0.0941176 0.501961 0.392157 0.0941176 0.501961 0.392157 
0.0941176 0.501961 0.392157 0.0941176 0.501961 0.392157 
0.0941176 0.501961 0.392157 0.0941176 0.501961 0.392157 
0.0941176 0.501961 0.392157 0.0941176 0.501961 0.392157 
0.0941176 0.501961 0.392157 0.0941176 0.501961 0.392157 
0.0941176 0.501961 0.392157 0.0941176 0.501961 0.392157 
0.0941176 0.501961 0.392157 0.0941176 0.501961 0.392157 
0.0941176 0.501961 0.392157 0.0941176 0.501961 0.392157 
0.0941176 0.501961 0.392157 0.0941176 0.501961 0.392157 
0.0941176 0.501961 0.392157 0.0941176 0.501961 0.392157 
0.0941176 0.501961 0.392157 0.0941176 0.501961 0.392157 
0.0941176 0.501961 0.392157 0.0941176 0.501961 0.392157 
0.0941176 0.501961 0.392157 0.0941176 0.501961 0.392157 
0.0941176 0.501961 0.392157 0.0941176 0.501961 0.392157 
0.0941176 0.501961 0.392157 0.0941176 0.501961 0.392157 
0.0941176 0.501961 0.392157 0.0941176 0.501961 0.392157 
0.0941176 0.501961 0.392157 0.0941176 0.501961 0.392157 
0.0941176 0.501961 0.392157 0.0941176 0.501961 0.392157 
0.0941176 0.501961 0.392157 0.0941176 0.501961 0.392157 
0.0941176 0.501961 0.392157 0.0941176 0.501961 0.392157 
0.0941176 0.501961 0.392157 0.0941176 0.501961 0.392157 
0.0941176 0.501961 0.392157 0.0941176 0.501961 0.392157 
0.0941176 0.501961 0.392157 0.0941176 0.501961 0.392157 
0.0941176 0.501961 0.392157 0.0941176 0.501961 0.392157 
0.0941176 0.501961 0.392157 0.0941176 0.501961 0.392157 
0.0941176 0.501961 0.392157 0.0941176 0.501961 0.392157 
0.0941176 0.501961 0.392157 0.0941176 0.501961 0.392157 
0.0941176 0.501961 0.392157 0.0941176 0.501961 0.392157 
0.0941176 0.501961 0.392157 0.0941176 0.501961 0.392157 
0.0941176 0.501961 0.392157 0.0941176 0.501961 0.392157 
0.0941176 0.501961 0.392157 0.0941176 0.501961 0.392157 
0.0941176 0.501961 0.392157 0.0941176 0.501961 0.392157 
0.0941176 0.501961 0.392157 0.0941176 0.501961 0.392157 
0.0941176 0.501961 0.392157 0.0941176 0.501961 0.392157 
0.0941176 0.501961 0.392157 0.0941176 0.501961 0.392157 
0.0941176 0.501961 0.392157 0.0941176 0.501961 0.392157 
0.0941176 0.501961 0.392157 0.0941176 0.501961 0.392157 
0.0941176 0.501961 0.392157 0.0941176 0.501961 0.392157 
0.0941176 0.501961 0.392157 0.0941176 0.501961 0.392157 
0.0941176 0.501961 0.392157 0.0941176 0.501961 0.392157 
0.0941176 0.501961 0.392157 0.0941176 0.501961 0.392157 
0.0941176 0.501961 0.392157 0.0941176 0.501961 0.392157 
0.0941176 0.501961 0.392157 0.0941176 0.501961 0.392157 
0.0941176 0.501961 0.392157 0.0941176 0.501961 0.392157 
0.0941176 0.501961 0.392157 0.0941176 0.501961 0.392157 
0.0941176 0.501961 0.392157 0.0941176 0.501961 0.392157 
0.0941176 0.501961 0.392157 0.0941176 0.501961 0.392157 
0.0941176 0.501961 0.392157 0.0941176 0.501961 0.392157 
0.0941176 0.501961 0.392157 0.0941176 0.501961 0.392157 
0.0941176 0.501961 0.392157 0.0941176 0.501961 0.392157 
0.0941176 0.501961 0.392157 0.0941176 0.501961 0.392157 
0.0941176 0.501961 0.392157 0.0941176 0.501961 0.392157 
0.0941176 0.501961 0.392157 0.0941176 0.501961 0.392157 
0.0941176 0.501961 0.392157 0.0941176 0.501961 0.392157 
0.0941176 0.501961 0.392157 0.0941176 0.501961 0.392157 
0.0941176 0.501961 0.392157 0.0941176 0.501961 0.392157 
0.0941176 0.501961 0.392157 0.0941176 0.501961 0.392157 
0.0941176 0.501961 0.392157 0.0941176 0.501961 0.392157 
0.0941176 0.501961 0.392157 0.0941176 0.501961 0.392157 
0.0941176 0.501961 0.392157 0.0941176 0.501961 0.392157 
0.0941176 0.501961 0.392157 0.0941176 0.501961 0.392157 
0.0941176 0.501961 0.392157 0.0941176 0.501961 0.392157 
0.0941176 0.501961 0.392157 0.0941176 0.501961 0.392157 
0.0941176 0.501961 0.392157 0.0941176 0.501961 0.392157 
0.0941176 0.501961 0.392157 0.0941176 0.501961 0.392157 
0.0941176 0.501961 0.392157 0.0941176 0.501961 0.392157 
0.0941176 0.501961 0.392157 0.0941176 0.501961 0.392157 
0.0941176 0.501961 0.392157 0.0941176 0.501961 0.392157 
0.0941176 0.501961 0.392157 0.0941176 0.501961 0.392157 
0.0941176 0.501961 0.392157 0.0941176 0.501961 0.392157 
0.0941176 0.501961 0.392157 0.0941176 0.501961 0.392157 
0.0941176 0.501961 0.392157 0.0941176 0.501961 0.392157 
0.0941176 0.501961 0.392157 0.0941176 0.501961 0.392157 
0.0941176 0.501961 0.392157 0.0941176 0.501961 0.392157 
0.0941176 0.501961 0.392157 0.0941176 0.501961 0.392157 
0.0941176 0.501961 0.392157 0.0941176 0.501961 0.392157 
0.0941176 0.501961 0.392157 0.0941176 0.501961 0.392157 
0.0941176 0.501961 0.392157 0.0941176 0.501961 0.392157 
0.0941176 0.501961 0.392157 0.0941176 0.501961 0.392157 
0.0941176 0.501961 0.392157 0.0941176 0.501961 0.392157 
0.0941176 0.501961 0.392157 0.0941176 0.501961 0.392157 
0.0941176 0.501961 0.392157 0.0941176 0.501961 0.392157 
0.0941176 0.501961 0.392157 0.0941176 0.501961 0.392157 
0.0941176 0.501961 0.392157 0.0941176 0.501961 0.392157 
0.0941176 0.501961 0.392157 0.0941176 0.501961 0.392157 
0.0941176 0.501961 0.392157 0.0941176 0.501961 0.392157 
0.0941176 0.501961 0.392157 0.0941176 0.501961 0.392157 
0.0941176 0.501961 0.392157 0.0941176 0.501961 0.392157 
0.0941176 0.501961 0.392157 0.0941176 0.501961 0.392157 
0.0941176 0.501961 0.392157 0.0941176 0.501961 0.392157 
0.0941176 0.501961 0.392157 0.0941176 0.501961 0.392157 
0.0941176 0.501961 0.392157 0.0941176 0.501961 0.392157 
0.0941176 0.501961 0.392157 0.0941176 0.501961 0.392157 
0.0941176 0.501961 0.392157 0.0941176 0.501961 0.392157 
0.0941176 0.501961 0.392157 0.0941176 0.501961 0.392157 
0.0941176 0.501961 0.392157 0.0941176 0.501961 0.392157 
0.0941176 0.501961 0.392157 0.0941176 0.501961 0.392157 
0.0941176 0.501961 0.392157 0.0941176 0.501961 0.392157 
0.0941176 0.501961 0.392157 0.0941176 0.501961 0.392157 
0.0941176 0.501961 0.392157 0.0941176 0.501961 0.392157 
0.0941176 0.501961 0.392157 0.0941176 0.501961 0.392157 
0.0941176 0.501961 0.392157 0.0941176 0.501961 0.392157 
0.0941176 0.501961 0.392157 0.0941176 0.501961 0.392157 
0.0941176 0.501961 0.392157 0.0941176 0.501961 0.392157 
0.0941176 0.501961 0.392157 0.0941176 0.501961 0.392157 
0.0941176 0.501961 0.392157 0.0941176 0.501961 0.392157 
0.0941176 0.501961 0.392157 0.0941176 0.501961 0.392157 
0.0941176 0.501961 0.392157 0.0941176 0.501961 0.392157 
0.0941176 0.501961 0.392157 0.0941176 0.501961 0.392157 
0.0941176 0.501961 0.392157 0.0941176 0.501961 0.392157 
0.0941176 0.501961 0.392157 0.0941176 0.501961 0.392157 
0.0941176 0.501961 0.392157 0.0941176 0.501961 0.392157 
0.0941176 0.501961 0.392157 0.0941176 0.501961 0.392157 
0.0941176 0.501961 0.392157 0.0941176 0.501961 0.392157 
0.0941176 0.501961 0.392157 0.0941176 0.501961 0.392157 
0.0941176 0.501961 0.392157 0.0941176 0.501961 0.392157 
0.0941176 0.501961 0.392157 0.0941176 0.501961 0.392157 
0.0941176 0.501961 0.392157 0.0941176 0.501961 0.392157 
0.0941176 0.501961 0.392157 0.0941176 0.501961 0.392157 
0.0941176 0.501961 0.392157 0.0941176 0.501961 0.392157 
0.0941176 0.501961 0.392157 0.0941176 0.501961 0.392157 
0.0941176 0.501961 0.392157 0.0941176 0.501961 0.392157 
0.0941176 0.501961 0.392157 0.0941176 0.501961 0.392157 
0.0941176 0.501961 0.392157 0.0941176 0.501961 0.392157 
0.0941176 0.501961 0.392157 0.0941176 0.501961 0.392157 
0.0941176 0.501961 0.392157 0.0941176 0.501961 0.392157 
0.0941176 0.501961 0.392157 0.0941176 0.501961 0.392157 
0.0941176 0.501961 0.392157 0.0941176 0.501961 0.392157 
0.0941176 0.501961 0.392157 0.0941176 0.501961 0.392157 
0.0941176 0.501961 0.392157 0.0941176 0.501961 0.392157 
0.0941176 0.501961 0.392157 0.0941176 0.501961 0.392157 
0.0941176 0.501961 0.392157 0.0941176 0.501961 0.392157 
0.0941176 0.501961 0.392157 0.0941176 0.501961 0.392157 
0.0941176 0.501961 0.392157 0.0941176 0.501961 0.392157 
0.0941176 0.501961 0.392157 0.0941176 0.501961 0.392157 
0.0941176 0.501961 0.392157 0.0941176 0.501961 0.392157 
0.0941176 0.501961 0.392157 0.0941176 0.501961 0.392157 
0.0941176 0.501961 0.392157 0.0941176 0.501961 0.392157 
0.0941176 0.501961 0.392157 0.0941176 0.501961 0.392157 
0.0941176 0.501961 0.392157 0.0941176 0.501961 0.392157 
0.0941176 0.501961 0.392157 0.0941176 0.501961 0.392157 
0.0941176 0.501961 0.392157 0.0941176 0.501961 0.392157 
0.0941176 0.501961 0.392157 0.0941176 0.501961 0.392157 
0.0941176 0.501961 0.392157 0.0941176 0.501961 0.392157 
0.0941176 0.501961 0.392157 0.0941176 0.501961 0.392157 
0.0941176 0.501961 0.392157 0.0941176 0.501961 0.392157 
0.0941176 0.501961 0.392157 0.0941176 0.501961 0.392157 
0.0941176 0.501961 0.392157 0.0941176 0.501961 0.392157 
0.0941176 0.501961 0.392157 0.0941176 0.501961 0.392157 
0.0941176 0.501961 0.392157 0.0941176 0.501961 0.392157 
0.0941176 0.501961 0.392157 0.0941176 0.501961 0.392157 
0.0941176 0.501961 0.392157 0.0941176 0.501961 0.392157 
0.0941176 0.501961 0.392157 0.0941176 0.501961 0.392157 
0.0941176 0.501961 0.392157 0.0941176 0.501961 0.392157 
0.0941176 0.501961 0.392157 0.0941176 0.501961 0.392157 
0.0941176 0.501961 0.392157 0.0941176 0.501961 0.392157 
0.0941176 0.501961 0.392157 0.0941176 0.501961 0.392157 
0.0941176 0.501961 0.392157 0.0941176 0.501961 0.392157 
0.0941176 0.501961 0.392157 0.0941176 0.501961 0.392157 
0.0941176 0.501961 0.392157 0.0941176 0.501961 0.392157 
0.0941176 0.501961 0.392157 0.0941176 0.501961 0.392157 
0.0941176 0.501961 0.392157 0.0941176 0.501961 0.392157 
0.0941176 0.501961 0.392157 0.0941176 0.501961 0.392157 
0.0941176 0.501961 0.392157 0.0941176 0.501961 0.392157 