# vtk DataFile Version 4.2
vtk output
ASCII
DATASET POLYDATA
POINTS 979 float
231.07 118.135 69.7043 248.325 106.413 70.2357 246.952 106.971 69.9118 
248.984 107.161 70.4254 249.124 106.928 70.5395 248.961 107.505 70.4534 
243.356 108.827 69.7424 246.987 108.563 70.0464 243.347 110.007 69.837 
237.541 112.324 69.7071 243.662 111.218 70.3254 238.788 113.726 70.1686 
232.946 114.987 69.5936 235.039 115.708 69.9958 236.263 115.59 70.2952 
230.201 117.34 69.5843 228.117 119.11 69.7791 230.882 118.735 70.0312 
227.954 119.959 70.0186 229.341 119.6 70.1873 223.559 121.277 69.7254 
227.652 120.658 70.2883 226.168 121.458 70.2068 221.439 123.331 69.9776 
219.898 124.029 70.1888 221.239 124.304 70.1733 219.483 125.214 70.3445 
219.342 125.319 70.387 219.732 125.223 70.2989 220.039 125.324 70.3554 
219.404 125.42 70.444 219.905 125.668 70.5131 248.033 105.487 70.6227 
247.699 105.737 70.397 244.045 107.381 69.9518 249.617 107.851 70.9559 
250.224 107.615 71.4553 238.188 110.268 69.9557 246.192 109.957 70.3382 
247.911 109.331 70.653 233.058 117.91 70.3149 224.018 119.181 69.8758 
228.927 120.121 70.3716 222.426 120.565 69.9006 225.993 121.891 70.3733 
222.239 125.431 71.0664 220.03 125.873 70.7279 220.466 125.948 70.9275 
219.578 125.913 71.055 247.726 104.188 71.5162 246.815 104.28 71.2723 
245.003 104.867 71.0217 250.7 107.887 72.0917 250.866 107.761 72.384 
234.456 110.179 70.8174 234.943 111.067 70.2717 235.777 117.052 71.049 
224.977 117.515 70.1763 221.303 118.512 70.9471 222.214 119.402 70.264 
217.916 121.775 71.8687 229.247 121.188 71.4612 219.033 125.668 71.9262 
220.028 126.402 71.6696 219.929 126.561 72.2103 220.43 126.387 71.5266 
236.244 107.945 71.5565 247.337 111.041 71.6716 217.542 120.903 72.3429 
217.359 120.933 72.4946 217.387 121.062 72.4648 217.484 121.399 72.4747 
225.442 123.474 71.2785 218.624 125.178 72.0755 246.658 101.994 73.3555 
246.023 101.84 73.3478 247.282 101.901 73.6953 245.044 102.066 73.1389 
248.197 103.044 73.1737 249.512 104.155 73.2153 251.016 109.593 73.5944 
248.794 111.504 73.2141 221.314 115.217 72.585 238.024 117.472 73.0531 
217.65 119.464 72.7941 216.831 119.912 73.6846 217.126 120.551 73.2256 
229.764 122.047 72.9328 217.561 122.906 72.9504 219.4 126.41 73.0723 
220.988 127.091 72.7944 222.157 127.162 73.2087 220.319 127.112 73.3798 
220.872 127.324 73.4578 247.282 101.097 74.435 218.859 114.769 73.9483 
218.513 115.25 73.8837 217.744 116.842 73.6489 240.78 116.275 73.6775 
219.444 126.556 74.3369 246.332 99.7762 75.8187 244.5 100.108 74.9811 
249.868 103.805 74.9874 251.111 110.679 74.7749 217.19 114.327 75.1611 
216.082 115.667 75.6549 215.845 117.172 75.7536 238.78 117.668 74.0818 
216.115 117.865 75.1752 216.084 119.237 75.4702 221.779 127.942 75.0572 
247.189 100.186 76.0952 250.907 105.388 76.3003 249.662 112.341 75.7949 
247.774 113.376 75.4277 216.167 114.234 76.0451 241.631 116.488 74.954 
215.635 118.066 76.2439 215.695 118.543 76.4692 216.208 120.05 75.886 
236.323 119.548 75.453 216.74 121.462 76.4696 227.005 125.173 75.5679 
219.369 125.974 76.2533 220.58 127.454 75.5367 222.94 127.863 75.2862 
221.526 127.906 75.6482 221.982 128.058 75.6257 222.309 128.102 75.9081 
243.897 97.8201 77.2229 245.228 97.5587 78.0358 235.136 100.745 76.9412 
251.638 107.209 76.7842 252.165 110.234 76.8822 252.153 110.865 77.1275 
244.981 115.107 76.7906 241.057 117.054 75.8595 216.421 120.614 77.2807 
236.852 119.269 76.1513 231.958 122.104 76.5643 231.31 122.552 76.345 
231.553 122.417 76.5001 231.372 122.521 76.5557 220.399 126.524 77.0499 
224.679 126.759 75.8875 222.729 128 75.4833 221.678 127.818 76.3282 
222.898 127.953 76.0981 222.307 128.064 76.2536 245.563 97.3176 78.7166 
247.595 99.8631 77.733 225.015 104.944 77.5204 252.093 109.221 77.3039 
252.12 110.424 77.4782 252.201 110.616 77.1637 252.156 110.768 77.3759 
252.078 110.966 77.3074 214.637 112.506 78.2683 214.447 112.584 78.4299 
250.444 111.98 77.1373 250.891 111.654 77.4032 214.561 113.181 78.397 
248.556 112.919 77.568 249.153 112.798 76.8524 249.928 112.207 77.4117 
241.648 116.527 77.373 241.016 116.698 77.6436 242.255 116.032 77.7884 
241.741 116.66 76.7178 236.174 119.035 77.8126 230.695 122.621 76.9794 
219.891 125.257 78.1639 225.862 125.462 77.4485 224.13 126.513 77.602 
225.428 125.999 76.9364 223.699 126.721 77.6249 221.75 127.404 77.1376 
222.423 127.446 77.2829 223.643 127.365 76.4795 222.504 127.949 76.4959 
244.334 96.5021 78.7703 245.068 96.1825 79.6485 239.014 96.7291 78.9025 
249.471 102.417 79.0491 251.186 106.309 78.4466 252.011 109.276 77.7803 
251.915 110.095 77.9389 251.553 110.291 78.309 251.852 110.633 77.8252 
252.079 110.701 77.567 248.414 112.042 78.9368 248.781 112.555 78.0087 
245.998 113.729 78.4005 241.47 115.21 79.1326 241.781 115.896 78.3009 
237.874 116.72 79.2476 234.977 117.982 79.3825 237.059 117.889 78.606 
234.828 119.403 78.2878 223.753 125.153 78.9092 222.884 125.715 78.6507 
224.735 125.615 78.1579 222.107 127.425 77.2705 244.469 95.0622 80.455 
214.226 108.991 80.2688 249.884 110.135 79.6773 213.846 112.017 80.1994 
214.193 113.619 79.8421 250.295 105.756 80.687 250.609 106.92 80.2534 
250.233 107.956 80.5812 221.049 124.691 79.3777 243.042 92.8441 82.4544 
249.566 103.459 81.4376 214.001 106.101 82.1952 249.555 107.285 81.3501 
250.523 107.472 80.3904 212.975 106.872 82.9108 245.688 108.726 82.2622 
213.131 110.118 82.4249 242.193 92.4235 82.6376 249.678 106.419 81.4994 
212.741 107.99 83.119 213.079 110.31 83.0723 233.025 111.979 83.4956 
214.606 113.891 83.2745 215.186 114.914 83.3423 216.286 117.027 82.6437 
220.206 121.302 81.5833 241.366 91.5904 83.5503 248.258 100.837 83.9153 
218.645 118.136 83.4878 243.438 91.8353 84.8223 247.253 98.0673 84.433 
248.206 102.29 84.4015 212.072 103.383 85.7407 212.182 107.586 85.0406 
212.231 108.035 84.9485 233.849 108.781 85.3914 212.816 109.414 85.245 
213.043 110.104 84.6636 218.913 116.804 84.3591 243.823 91.6918 86.2621 
211.611 103.933 86.4976 211.889 106.61 86.079 219.002 114.556 85.8018 
240.355 88.8859 87.3141 214.203 99.4235 87.0032 211.561 102.365 87.227 
211.336 103.867 87.3213 214.032 111.133 86.3648 221.424 111.91 86.9937 
220.32 112.926 86.6372 216.555 113.66 86.1289 239.766 88.1485 88.2167 
241.728 88.9279 88.5105 237.361 88.5165 87.7678 238.845 88.402 87.7496 
245.278 94.0365 87.8757 246.108 96.354 87.7349 246.602 98.3299 87.4034 
236.606 104.183 88.1501 213.125 109.127 87.396 213.892 109.566 88.2438 
223.275 110.039 87.659 215.419 111.343 87.7151 243.122 90.2204 88.6215 
245.504 95.1087 88.8881 245.936 97.1568 88.7188 245.795 98.0816 88.9511 
246.319 98.5637 87.9594 210.713 100.063 89.4874 210.475 99.9685 89.7971 
245.096 100.112 88.6111 210.434 100.149 89.8784 211.186 104.42 88.7746 
217.172 110.33 89.0386 216.726 111.668 87.942 241.902 88.4873 90.2332 
245.58 97.7531 89.5481 245.613 97.8975 89.5411 245.986 98.9283 88.3829 
210.393 99.8592 90.0022 210.11 98.8976 90.9946 210.298 99.5166 90.5111 
210.368 101.099 90.0029 216.582 110.031 89.2949 215.982 109.779 89.4621 
238.891 85.7338 91.7248 236.953 85.9881 91.0014 211.382 96.4854 91.1707 
210.115 100.875 91.229 215.179 109.017 90.045 239.245 85.4599 92.5689 
240.621 86.7747 91.8042 244.858 95.1948 91.1946 210.461 96.0904 92.3577 
209.649 98.5224 92.3795 238.267 84.7965 93.0909 243.501 91.0495 93.0549 
209.958 95.4886 93.543 232.08 100.172 93.3326 215.277 107.022 92.3638 
237.153 83.8523 94.2854 235.903 84.2344 93.5898 234.504 84.2074 93.9903 
209.304 96.8769 94.3509 238.891 84.3619 95.0454 243.092 91.0384 94.7337 
210.849 92.8204 95.3539 210.169 93.6036 95.0881 209.171 97.4882 95.3844 
209.513 98.9333 95.3648 212.054 103.884 94.724 240.465 85.9895 96.1362 
243.029 92.6005 95.1551 209.393 93.497 96.2269 242.989 93.2791 95.0337 
209.185 93.6613 96.4212 238 81.0087 97.0174 238 81.0087 97.0175 
238 81.0088 97.0175 238 81.0088 97.0175 238 81.0088 97.0175 
237.357 82.9764 96.868 214.645 89.5936 96.8698 209.286 93.0094 97.0889 
209.071 93.5413 96.8943 235.171 81.7862 98.2791 235.948 81.8509 98.6707 
238 81.0087 97.0175 233.996 82.1208 97.4941 241.815 89.2584 97.8041 
241.905 89.9877 97.8824 209.955 91.9539 97.3197 241.393 92.8228 97.5274 
208.809 93.9102 97.677 208.779 94.3356 97.9065 237.405 82.6816 99.3328 
210.673 90.3755 98.862 209.613 91.2133 99.113 209.249 91.85 98.7694 
235.551 81.2522 100.386 235.296 81.1988 100.331 235.688 81.3497 100.582 
236.446 81.8994 99.7925 210.235 90.262 99.7938 209.349 91.3831 99.6086 
209.143 91.8957 99.1731 241.301 90.9224 99.1938 240.673 91.3219 99.836 
208.858 92.8571 99.2731 239.551 92.2385 99.9581 234.034 80.7268 101.026 
234.262 80.6805 101.439 228.931 81.478 100.962 214.151 87.5446 100.317 
209.578 90.402 101.248 209.458 90.5265 101.07 209.891 90.322 100.509 
240.953 90.0108 100.151 240.481 89.9348 101.249 209.401 91.0389 100.636 
240.02 90.467 101.649 233.246 80.499 101.54 234.677 80.8217 101.925 
239.091 84.9118 101.001 239.416 85.8336 101.927 212.458 87.7287 101.873 
240.13 87.8644 102.034 209.443 90.6369 101.139 240.275 89.7065 102.027 
240.268 90.0165 101.822 240.257 89.9106 102.039 209.235 94.175 101.853 
233.353 80.3669 102.753 233.622 80.506 102.935 227.203 81.1703 103.46 
223.108 82.8465 102.184 212.684 87.4012 103.107 209.916 90.0851 102.599 
209.471 90.9843 102.365 240.017 89.7698 102.467 239.685 89.8707 102.839 
232.071 80.4042 103.735 229.9 80.63 103.889 220.889 83.2385 103.441 
216.136 85.4113 103.443 210.43 89.5752 103.495 239.772 89.1224 103.197 
209.735 90.489 102.901 239.59 89.2276 103.449 209.793 90.6528 103.241 
209.952 94.7775 103.541 211.818 98.5233 103.768 227.797 80.926 104.525 
227.971 80.9249 104.779 228.323 80.9621 104.88 231.063 80.6857 104.25 
233.242 81.126 104.345 222.401 82.4535 105.076 222.07 82.5712 104.7 
220.537 83.2717 104.449 236.494 83.6876 104.861 238.835 86.8375 104.524 
211.843 88.344 104.4 210.397 93.5483 104.744 211.102 96.5768 104.831 
219.013 96.9711 105.406 211.554 97.8678 104.377 212.934 99.2187 103.669 
225.371 81.5817 105.776 223.718 81.9648 105.226 221.424 82.9169 105.295 
[...]
POINT_DATA 979
COLOR_SCALARS scalars 3
0.0941176 0.501961 0.392157 0.0941176 0.501961 0.392157 0.0941176 0.501961 0.392157 
0.0941176 0.501961 0.392157 0.0941176 0.501961 0.392157 
0.0941176 0.501961 0.392157 0.0941176 0.501961 0.392157 
0.0941176 0.501961 0.392157 0.0941176 0.501961 0.392157 
0.0941176 0.501961 0.392157 0.0941176 0.501961 0.392157 
0.0941176 0.501961 0.392157 0.0941176 0.501961 0.392157 
0.0941176 0.501961 0.392157 0.0941176 0.501961 0.392157 
0.0941176 0.501961 0.392157 0.0941176 0.501961 0.392157 
0.0941176 0.501961 0.392157 0.0941176 0.501961 0.392157 
0.0941176 0.501961 0.392157 0.0941176 0.501961 0.392157 
0.0941176 0.501961 0.392157 0.0941176 0.501961 0.392157 
0.0941176 0.501961 0.392157 0.0941176 0.501961 0.392157 
0.0941176 0.501961 0.392157 0.0941176 0.501961 0.392157 
0.0941176 0.501961 0.392157 0.0941176 0.501961 0.392157 
0.0941176 0.501961 0.392157 0.0941176 0.501961 0.392157 
0.0941176 0.501961 0.392157 0.0941176 0.501961 0.392157 
0.0941176 0.501961 0.392157 0.0941176 0.501961 0.392157 
0.0941176 0.501961 0.392157 0.0941176 0.501961 0.392157 
0.0941176 0.501961 0.392157 0.0941176 0.501961 0.392157 
0.0941176 0.501961 0.392157 0.0941176 0.501961 0.392157 
0.0941176 0.501961 0.392157 0.0941176 0.501961 0.392157 
0.0941176 0.501961 0.392157 0.0941176 0.501961 0.392157 
0.0941176 0.501961 0.392157 0.0941176 0.501961 0.392157 
0.0941176 0.501961 0.392157 0.0941176 0.501961 0.392157 
0.0941176 0.501961 0.392157 0.0941176 0.501961 0.392157 
0.0941176 0.501961 0.392157 0.0941176 0.501961 0.392157 
0.0941176 0.501961 0.392157 0.0941176 0.501961 0.392157 
0.0941176 0.501961 0.392157 0.0941176 0.501961 0.392157 
0.0941176 0.501961 0.392157 0.0941176 0.501961 0.392157 
0.0941176 0.501961 0.392157 0.0941176 0.501961 0.392157 
0.0941176 0.501961 0.392157 0.0941176 0.501961 0.392157 
0.0941176 0.501961 0.392157 0.0941176 0.501961 0.392157 
0.0941176 0.501961 0.392157 0.0941176 0.501961 0.392157 
0.0941176 0.501961 0.392157 0.0941176 0.501961 0.392157 
0.0941176 0.501961 0.392157 0.0941176 0.501961 0.392157 
0.0941176 0.501961 0.392157 0.0941176 0.501961 0.392157 
0.0941176 0.501961 0.392157 0.0941176 0.501961 0.392157 
0.0941176 0.501961 0.392157 0.0941176 0.501961 0.392157 
0.0941176 0.501961 0.392157 0.0941176 0.501961 0.392157 
0.0941176 0.501961 0.392157 0.0941176 0.501961 0.392157 
0.0941176 0.501961 0.392157 0.0941176 0.501961 0.392157 
0.0941176 0.501961 0.392157 0.0941176 0.501961 0.392157 
0.0941176 0.501961 0.392157 0.0941176 0.501961 0.392157 
0.0941176 0.501961 0.392157 0.0941176 0.501961 0.392157 
0.0941176 0.501961 0.392157 0.0941176 0.501961 0.392157 
0.0941176 0.501961 0.392157 0.0941176 0.501961 0.392157 
0.0941176 0.501961 0.392157 0.0941176 0.501961 0.392157 
0.0941176 0.501961 0.392157 0.0941176 0.501961 0.392157 
0.0941176 0.501961 0.392157 0.0941176 0.501961 0.392157 
0.0941176 0.501961 0.392157 0.0941176 0.501961 0.392157 
0.0941176 0.501961 0.392157 0.0941176 0.501961 0.392157 
0.0941176 0.501961 0.392157 0.0941176 0.501961 0.392157 
0.0941176 0.501961 0.392157 0.0941176 0.501961 0.392157 
0.0941176 0.501961 0.392157 0.0941176 0.501961 0.392157 
0.0941176 0.501961 0.392157 0.0941176 0.501961 0.392157 
0.0941176 0.501961 0.392157 0.0941176 0.501961 0.392157 
0.0941176 0.501961 0.392157 0.0941176 0.501961 0.392157 
0.0941176 0.501961 0.392157 0.0941176 0.501961 0.392157 
0.0941176 0.501961 0.392157 0.0941176 0.501961 0.392157 
0.0941176 0.501961 0.392157 0.0941176 0.501961 0.392157 
0.0941176 0.501961 0.392157 0.0941176 0.501961 0.392157 
0.0941176 0.501961 0.392157 0.0941176 0.501961 0.392157 
0.0941176 0.501961 0.392157 0.0941176 0.501961 0.392157 
0.0941176 0.501961 0.392157 0.0941176 0.501961 0.392157 
0.0941176 0.501961 0.392157 0.0941176 0.501961 0.392157 
0.0941176 0.501961 0.392157 0.0941176 0.501961 0.392157 
0.0941176 0.501961 0.392157 0.0941176 0.501961 0.392157 
0.0941176 0.501961 0.392157 0.0941176 0.501961 0.392157 
0.0941176 0.501961 0.392157 0.0941176 0.501961 0.392157 
0.0941176 0.501961 0.392157 0.0941176 0.501961 0.392157 
0.0941176 0.501961 0.392157 0.0941176 0.501961 0.392157 
0.0941176 0.501961 0.392157 0.0941176 0.501961 0.392157 
0.0941176 0.501961 0.392157 0.0941176 0.501961 0.392157 
0.0941176 0.501961 0.392157 0.0941176 0.501961 0.392157 
0.0941176 0.501961 0.392157 0.0941176 0.501961 0.392157 
0.0941176 0.501961 0.392157 0.0941176 0.501961 0.392157 
0.0941176 0.501961 0.392157 0.0941176 0.501961 0.392157 
0.0941176 0.501961 0.392157 0.0941176 0.501961 0.392157 
0.0941176 0.501961 0.392157 0.0941176 0.501961 0.392157 
0.0941176 0.501961 0.392157 0.0941176 0.501961 0.392157 
0.0941176 0.501961 0.392157 0.0941176 0.501961 0.392157 
0.0941176 0.501961 0.392157 0.0941176 0.501961 0.392157 
0.0941176 0.501961 0.392157 0.0941176 0.501961 0.392157 
0.0941176 0.501961 0.392157 0.0941176 0.501961 0.392157 
0.0941176 0.501961 0.392157 0.0941176 0.501961 0.392157 
0.0941176 0.501961 0.392157 0.0941176 0.501961 0.392157 
0.0941176 0.501961 0.392157 0.0941176 0.501961 0.392157 
0.0941176 0.501961 0.392157 0.0941176 0.501961 0.392157 
0.0941176 0.501961 0.392157 0.0941176 0.501961 0.392157 
0.0941176 0.501961 0.392157 0.0941176 0.501961 0.392157 
0.0941176 0.501961 0.392157 0.0941176 0.501961 0.392157 
0.0941176 0.501961 0.392157 0.0941176 0.501961 0.392157 
0.0941176 0.501961 0.392157 0.0941176 0.501961 0.392157 
0.0941176 0.501961 0.392157 0.0941176 0.501961 0.392157 
0.0941176 0.501961 0.392157 0.0941176 0.501961 0.392157 
0.0941176 0.501961 0.392157 0.0941176 0.501961 0.392157 
0.0941176 0.501961 0.392157 0.0941176 0.501961 0.392157 
0.0941176 0.501961 0.392157 0.0941176 0.501961 0.392157 
0.0941176 0.501961 0.392157 0.0941176 0.501961 0.392157 
0.0941176 0.501961 0.392157 0.0941176 0.501961 0.392157 
0.0941176 0.501961 0.392157 0.0941176 0.501961 0.392157 
0.0941176 0.501961 0.392157 0.0941176 0.501961 0.392157 
0.0941176 0.501961 0.392157 0.0941176 0.501961 0.392157 
0.0941176 0.501961 0.392157 0.0941176 0.501961 0.392157 
0.0941176 0.501961 0.392157 0.0941176 0.501961 0.392157 
0.0941176 0.501961 0.392157 0.0941176 0.501961 0.392157 
0.0941176 0.501961 0.392157 0.0941176 0.501961 0.392157 
0.0941176 0.501961 0.392157 0.0941176 0.501961 0.392157 
0.0941176 0.501961 0.392157 0.0941176 0.501961 0.392157 
0.0941176 0.501961 0.392157 0.0941176 0.501961 0.392157 
0.0941176 0.501961 0.392157 0.0941176 0.501961 0.392157 
0.0941176 0.501961 0.392157 0.0941176 0.501961 0.392157 
0.0941176 0.501961 0.392157 0.0941176 0.501961 0.392157 
0.0941176 0.501961 0.392157 0.0941176 0.501961 0.392157 
0.0941176 0.501961 0.392157 0.0941176 0.501961 0.392157 
0.0941176 0.501961 0.392157 0.0941176 0.501961 0.392157 
0.0941176 0.501961 0.392157 0.0941176 0.501961 0.392157 
0.0941176 0.501961 0.392157 0.0941176 0.501961 0.392157 
0.0941176 0.501961 0.392157 0.0941176 0.501961 0.392157 
0.0941176 0.501961 0.392157 0.0941176 0.501961 0.392157 
0.0941176 0.501961 0.392157 0.0941176 0.501961 0.392157 
0.0941176 0.501961 0.392157 0.0941176 0.501961 0.392157 
0.0941176 0.501961 0.392157 0.0941176 0.501961 0.392157 
0.0941176 0.501961 0.392157 0.0941176 0.501961 0.392157 
0.0941176 0.501961 0.392157 0.0941176 0.501961 0.392157 
0.0941176 0.501961 0.392157 0.0941176 0.501961 0.392157 
0.0941176 0.501961 0.392157 0.0941176 0.501961 0.392157 
0.0941176 0.501961 0.392157 0.0941176 0.501961 0.392157 
0.0941176 0.501961 0.392157 0.0941176 0.501961 0.392157 
0.0941176 0.501961 0.392157 0.0941176 0.501961 0.392157 
0.0941176 0.501961 0.392157 0.0941176 0.501961 0.392157 
0.0941176 0.501961 0.392157 0.0941176 0.501961 0.392157 
0.0941176 0.501961 0.392157 0.0941176 0.501961 0.392157 
0.0941176 0.501961 0.392157 0.0941176 0.501961 0.392157 
0.0941176 0.501961 0.392157 0.0941176 0.501961 0.392157 
0.0941176 0.501961 0.392157 0.0941176 0.501961 0.392157 
0.0941176 0.501961 0.392157 0.0941176 0.501961 0.392157 
0.0941176 0.501961 0.392157 0.0941176 0.501961 0.392157 
0.0941176 0.501961 0.392157 0.0941176 0.501961 0.392157 
0.0941176 0.501961 0.392157 0.0941176 0.501961 0.392157 
0.0941176 0.501961 0.392157 0.0941176 0.501961 0.392157 
0.0941176 0.501961 0.392157 0.0941176 0.501961 0.392157 
0.0941176 0.501961 0.392157 0.0941176 0.501961 0.392157 
0.0941176 0.501961 0.392157 0.0941176 0.501961 0.392157 
0.0941176 0.501961 0.392157 0.0941176 0.501961 0.392157 
0.0941176 0.501961 0.392157 0.0941176 0.501961 0.392157 
0.0941176 0.501961 0.392157 0.0941176 0.501961 0.392157 
0.0941176 0.501961 0.392157 0.0941176 0.501961 0.392157 
0.0941176 0.501961 0.392157 0.0941176 0.501961 0.392157 
0.0941176 0.501961 0.392157 0.0941176 0.501961 0.392157 
0.0941176 0.501961 0.392157 0.0941176 0.501961 0.392157 
0.0941176 0.501961 0.392157 0.0941176 0.501961 0.392157 
0.0941176 0.501961 0.392157 0.0941176 0.501961 0.392157 
0.0941176 0.501961 0.392157 0.0941176 0.501961 0.392157 
0.0941176 0.501961 0.392157 0.0941176 0.501961 0.392157 
0.0941176 0.501961 0.392157 0.0941176 0.501961 0.392157 
0.0941176 0.501961 0.392157 0.0941176 0.501961 0.392157 
0.0941176 0.501961 0.392157 0.0941176 0.501961 0.392157 
0.0941176 0.501961 0.392157 0.0941176 0.501961 0.392157 
0.0941176 0.501961 0.392157 0.0941176 0.501961 0.392157 
0.0941176 0.501961 0.392157 0.0941176 0.501961 0.392157 
0.0941176 0.501961 0.392157 0.0941176 0.501961 0.392157 
0.0941176 0.501961 0.392157 0.0941176 0.501961 0.392157 
0.0941176 0.501961 0.392157 0.0941176 0.501961 0.392157 
0.0941176 0.501961 0.392157 0.0941176 0.501961 0.392157 
0.0941176 0.501961 0.392157 0.0941176 0.501961 0.392157 
0.0941176 0.501961 0.392157 0.0941176 0.501961 0.392157 
0.0941176 0.501961 0.392157 0.0941176 0.501961 0.392157 
0.0941176 0.501961 0.392157 0.0941176 0.501961 0.392157 
0.0941176 0.501961 0.392157 0.0941176 0.501961 0.392157 
0.0941176 0.501961 0.392157 0.0941176 0.501961 0.392157 
0.0941176 0.501961 0.392157 0.0941176 0.501961 0.392157 
0.0941176 0.501961 0.392157 0.0941176 0.501961 0.392157 
0.0941176 0.501961 0.392157 0.0941176 0.501961 0.392157 
0.0941176 0.501961 0.392157 0.0941176 0.501961 0.392157 
0.0941176 0.501961 0.392157 0.0941176 0.501961 0.392157 
0.0941176 0.501961 0.392157 0.0941176 0.501961 0.392157 
0.0941176 0.501961 0.392157 0.0941176 0.501961 0.392157 
0.0941176 0.501961 0.392157 0.0941176 0.501961 0.392157 
0.0941176 0.501961 0.392157 0.0941176 0.501961 0.392157 
0.0941176 0.501961 0.392157 0.0941176 0.501961 0.392157 
0.0941176 0.501961 0.392157 0.0941176 0.501961 0.392157 
0.0941176 0.501961 0.392157 0.0941176 0.501961 0.392157 
0.0941176 0.501961 0.392157 0.0941176 0.501961 0.392157 
0.0941176 0.501961 0.392157 0.0941176 0.501961 0.392157 
0.0941176 0.501961 0.392157 0.0941176 0.501961 0.392157 
0.0941176 0.501961 0.392157 0.0941176 0.501961 0.392157 
0.0941176 0.501961 0.392157 0.0941176 0.501961 0.392157 
0.0941176 0.501961 0.392157 0.0941176 0.501961 0.392157 
0.0941176 0.501961 0.392157 0.0941176 0.501961 0.392157 
0.0941176 0.501961 0.392157 0.0941176 0.501961 0.392157 
0.0941176 0.501961 0.392157 0.0941176 0.501961 0.392157 
0.0941176 0.501961 0.392157 0.0941176 0.501961 0.392157 
0.0941176 0.501961 0.392157 0.0941176 0.501961 0.392157 
0.0941176 0.501961 0.392157 0.0941176 0.501961 0.392157 
0.0941176 0.501961 0.392157 0.0941176 0.501961 0.392157 
0.0941176 0.501961 0.392157 0.0941176 0.501961 0.392157 
0.0941176 0.501961 0.392157 0.0941176 0.501961 0.392157 
0.0941176 0.501961 0.392157 0.0941176 0.501961 0.392157 
0.0941176 0.501961 0.392157 0.0941176 0.501961 0.392157 
0.0941176 0.501961 0.392157 0.0941176 0.501961 0.392157 
0.0941176 0.501961 0.392157 0.0941176 0.501961 0.392157 
0.0941176 0.501961 0.392157 0.0941176 0.501961 0.392157 
0.0941176 0.501961 0.392157 0.0941176 0.501961 0.392157 
0.0941176 0.501961 0.392157 0.0941176 0.501961 0.392157 
0.0941176 0.501961 0.392157 0.0941176 0.501961 0.392157 
0.0941176 0.501961 0.392157 0.0941176 0.501961 0.392157 
0.0941176 0.501961 0.392157 0.0941176 0.501961 0.392157 
0.0941176 0.501961 0.392157 0.0941176 0.501961 0.392157 
0.0941176 0.501961 0.392157 0.0941176 0.501961 0.392157 
0.0941176 0.501961 0.392157 0.0941176 0.501961 0.392157 
0.0941176 0.501961 0.392157 0.0941176 0.501961 0.392157 
0.0941176 0.501961 0.392157 0.0941176 0.501961 0.392157 
0.0941176 0.501961 0.392157 0.0941176 0.501961 0.392157 
0.0941176 0.501961 0.392157 0.0941176 0.501961 0.392157 
0.0941176 0.501961 0.392157 0.0941176 0.501961 0.392157 
0.0941176 0.501961 0.392157 0.0941176 0.501961 0.392157 
0.0941176 0.501961 0.392157 0.0941176 0.501961 0.392157 
0.0941176 0.501961 0.392157 0.0941176 0.501961 0.392157 
0.0941176 0.501961 0.392157 0.0941176 0.501961 0.392157 
0.0941176 0.501961 0.392157 0.0941176 0.501961 0.392157 
0.0941176 0.501961 0.392157 0.0941176 0.501961 0.392157 
0.0941176 0.501961 0.392157 0.0941176 0.501961 0.392157 
0.0941176 0.501961 0.392157 0.0941176 0.501961 0.392157 
0.0941176 0.501961 0.392157 0.0941176 0.501961 0.392157 
0.0941176 0.501961 0.392157 0.0941176 0.501961 0.392157 
0.0941176 0.501961 0.392157 0.0941176 0.501961 0.392157 
0.0941176 0.501961 0.392157 0.0941176 0.501961 0.392157 
0.0941176 0.501961 0.392157 0.0941176 0.501961 0.392157 
0.0941176 0.501961 0.392157 0.0941176 0.501961 0.392157 
0.0941176 0.501961 0.392157 0.0941176 0.501961 0.392157 
0.0941176 0.501961 0.392157 0.0941176 0.501961 0.392157 
0.0941176 0.501961 0.392157 0.0941176 0.501961 0.392157 
0.0941176 0.501961 0.392157 0.0941176 0.501961 0.392157 
0.0941176 0.501961 0.392157 0.0941176 0.501961 0.392157 
0.0941176 0.501961 0.392157 0.0941176 0.501961 0.392157 
0.0941176 0.501961 0.392157 0.0941176 0.501961 0.392157 
0.0941176 0.501961 0.392157 0.0941176 0.501961 0.392157 
0.0941176 0.501961 0.392157 0.0941176 0.501961 0.392157 
0.0941176 0.501961 0.392157 0.0941176 0.501961 0.392157 
0.0941176 0.501961 0.392157 0.0941176 0.501961 0.392157 
0.0941176 0.501961 0.392157 0.0941176 0.501961 0.392157 
0.0941176 0.501961 0.392157 0.0941176 0.501961 0.392157 
0.0941176 0.501961 0.392157 0.0941176 0.501961 0.392157 
0.0941176 0.501961 0.392157 0.0941176 0.501961 0.392157 
0.0941176 0.501961 0.392157 0.0941176 0.501961 0.392157 
0.0941176 0.501961 0.392157 0.0941176 0.501961 0.392157 
0.0941176 0.501961 0.392157 0.0941176 0.501961 0.392157 
0.0941176 0.501961 0.392157 0.0941176 0.501961 0.392157 
0.0941176 0.501961 0.392157 0.0941176 0.501961 0.392157 
0.0941176 0.501961 0.392157 0.0941176 0.501961 0.392157 
0.0941176 0.501961 0.392157 0.0941176 0.501961 0.392157 
0.0941176 0.501961 0.392157 0.0941176 0.501961 0.392157 
0.0941176 0.501961 0.392157 0.0941176 0.501961 0.392157 
0.0941176 0.501961 0.392157 0.0941176 0.501961 0.392157 
0.0941176 0.501961 0.392157 0.0941176 0.501961 0.392157 
0.0941176 0.501961 0.392157 0.0941176 0.501961 0.392157 
0.0941176 0.501961 0.392157 0.0941176 0.501961 0.392157 
0.0941176 0.501961 0.392157 0.0941176 0.501961 0.392157 
0.0941176 0.501961 0.392157 0.0941176 0.501961 0.392157 
0.0941176 0.501961 0.392157 0.0941176 0.501961 0.392157 
0.0941176 0.501961 0.392157 0.0941176 0.501961 0.392157 
0.0941176 0.501961 0.392157 0.0941176 0.501961 0.392157 
0.0941176 0.501961 0.392157 0.0941176 0.501961 0.392157 
0.0941176 0.501961 0.392157 0.0941176 0.501961 0.392157 
0.0941176 0.501961 0.392157 0.0941176 0.501961 0.392157 
0.0941176 0.501961 0.392157 0.0941176 0.501961 0.392157 
0.0941176 0.501961 0.392157 0.0941176 0.501961 0.392157 
0.0941176 0.501961 0.392157 0.0941176 0.501961 0.392157 
0.0941176 0.501961 0.392157 0.0941176 0.501961 0.392157 
0.0941176 0.501961 0.392157 0.0941176 0.501961 0.392157 
0.0941176 0.501961 0.392157 0.0941176 0.501961 0.392157 
0.0941176 0.501961 0.392157 0.0941176 0.501961 0.392157 
0.0941176 0.501961 0.392157 0.0941176 0.501961 0.392157 
0.0941176 0.501961 0.392157 0.0941176 0.501961 0.392157 
0.0941176 0.501961 0.392157 0.0941176 0.501961 0.392157 
0.0941176 0.501961 0.392157 0.0941176 0.501961 0.392157 
0.0941176 0.501961 0.392157 0.0941176 0.501961 0.392157 
0.0941176 0.501961 0.392157 0.0941176 0.501961 0.392157 
0.0941176 0.501961 0.392157 0.0941176 0.501961 0.392157 
0.0941176 0.501961 0.392157 0.0941176 0.501961 0.392157 
0.0941176 0.501961 0.392157 0.0941176 0.501961 0.392157 
0.0941176 0.501961 0.392157 0.0941176 0.501961 0.392157 
0.0941176 0.501961 0.392157 0.0941176 0.501961 0.392157 
0.0941176 0.501961 0.392157 0.0941176 0.501961 0.392157 
0.0941176 0.501961 0.392157 0.0941176 0.501961 0.392157 
0.0941176 0.501961 0.392157 0.0941176 0.501961 0.392157 
0.0941176 0.501961 0.392157 0.0941176 0.501961 0.392157 
0.0941176 0.501961 0.392157 0.0941176 0.501961 0.392157 
0.0941176 0.501961 0.392157 0.0941176 0.501961 0.392157 
0.0941176 0.501961 0.392157 0.0941176 0.501961 0.392157 
0.0941176 0.501961 0.392157 0.0941176 0.501961 0.392157 
0.0941176 0.501961 0.392157 0.0941176 0.501961 0.392157 
0.0941176 0.501961 0.392157 0.0941176 0.501961 0.392157 
0.0941176 0.501961 0.392157 0.0941176 0.501961 0.392157 
0.0941176 0.501961 0.392157 0.0941176 0.501961 0.392157 
0.0941176 0.501961 0.392157 0.0941176 0.501961 0.392157 
0.0941176 0.501961 0.392157 0.0941176 0.501961 0.392157 
0.0941176 0.501961 0.392157 0.0941176 0.501961 0.392157 
0.0941176 0.501961 0.392157 0.0941176 0.501961 0.392157 
0.0941176 0.501961 0.392157 0.0941176 0.501961 0.392157 
0.0941176 0.501961 0.392157 0.0941176 0.501961 0.392157 
0.0941176 0.501961 0.392157 0.0941176 0.501961 0.392157 
0.0941176 0.501961 0.392157 0.0941176 0.501961 0.392157 
0.0941176 0.501961 0.392157 0.0941176 0.501961 0.392157 
0.0941176 0.501961 0.392157 0.0941176 0.501961 0.392157 
0.0941176 0.501961 0.392157 0.0941176 0.501961 0.392157 
0.0941176 0.501961 0.392157 0.0941176 0.501961 0.392157 
0.0941176 0.501961 0.392157 0.0941176 0.501961 0.392157 
0.0941176 0.501961 0.392157 0.0941176 0.501961 0.392157 
0.0941176 0.501961 0.392157 0.0941176 0.501961 0.392157 
0.0941176 0.501961 0.392157 0.0941176 0.501961 0.392157 
0.0941176 0.501961 0.392157 0.0941176 0.501961 0.392157 
0.0941176 0.501961 0.392157 0.0941176 0.501961 0.392157 
0.0941176 0.501961 0.392157 0.0941176 0.501961 0.392157 
0.0941176 0.501961 0.392157 0.0941176 0.501961 0.392157 
0.0941176 0.501961 0.392157 0.0941176 0.501961 0.392157 
0.0941176 0.501961 0.392157 0.0941176 0.501961 0.392157 
0.0941176 0.501961 0.392157 0.0941176 0.501961 0.392157 
0.0941176 0.501961 0.392157 0.0941176 0.501961 0.392157 
0.0941176 0.501961 0.392157 0.0941176 0.501961 0.392157 
0.0941176 0.501961 0.392157 0.0941176 0.501961 0.392157 
0.0941176 0.501961 0.392157 0.0941176 0.501961 0.392157 
0.0941176 0.501961 0.392157 0.0941176 0.501961 0.392157 
0.0941176 0.501961 0.392157 0.0941176 0.501961 0.392157 
0.0941176 0.501961 0.392157 0.0941176 0.501961 0.392157 
0.0941176 0.501961 0.392157 0.0941176 0.501961 0.392157 
0.0941176 0.501961 0.392157 0.0941176 0.501961 0.392157 
0.0941176 0.501961 0.392157 0.0941176 0.501961 0.392157 
0.0941176 0.501961 0.392157 0.0941176 0.501961 0.392157 
0.0941176 0.501961 0.392157 0.0941176 0.501961 0.392157 
0.0941176 0.501961 0.392157 0.0941176 0.501961 0.392157 
0.0941176 0.501961 0.392157 0.0941176 0.501961 0.392157 
0.0941176 0.501961 0.392157 0.0941176 0.501961 0.392157 
0.0941176 0.501961 0.392157 0.0941176 0.501961 0.392157 
0.0941176 0.501961 0.392157 0.0941176 0.501961 0.392157 
0.0941176 0.501961 0.392157 0.0941176 0.501961 0.392157 
0.0941176 0.501961 0.392157 0.0941176 0.501961 0.392157 
0.0941176 0.501961 0.392157 0.0941176 0.501961 0.392157 
0.0941176 0.501961 0.392157 0.0941176 0.501961 0.392157 
0.0941176 0.501961 0.392157 0.0941176 0.501961 0.392157 
0.0941176 0.501961 0.392157 0.0941176 0.501961 0.392157 
0.0941176 0.501961 0.392157 0.0941176 0.501961 0.392157 
0.0941176 0.501961 0.392157 0.0941176 0.501961 0.392157 
0.0941176 0.501961 0.392157 0.0941176 0.501961 0.392157 
0.0941176 0.501961 0.392157 0.0941176 0.501961 0.392157 
0.0941176 0.501961 0.392157 0.0941176 0.501961 0.392157 
0.0941176 0.501961 0.392157 0.0941176 0.501961 0.392157 
0.0941176 0.501961 0.392157 0.0941176 0.501961 0.392157 