# vtk DataFile Version 4.2
vtk output
ASCII
DATASET POLYDATA
POINTS 1209 float
242.42 48.6576 138.694 242.233 48.8237 138.644 240 49.5825 138.338 
240.073 49.8936 138.215 239.746 50.2067 138.219 240.48 49.9479 138.19 
241.1 48.5746 138.911 239.623 48.9037 138.934 242.409 49.274 138.574 
243.569 49.6249 138.8 235.503 51.2458 139.065 236.191 50.8513 138.85 
241.54 50.6323 138.362 235.996 51.5242 138.833 238.607 52.0261 138.495 
246.485 46.8239 140.1 242.633 47.5804 139.619 244.256 47.6814 139.525 
246.212 47.9742 139.704 244.453 48.8451 139.17 234.979 50.4445 139.654 
245.463 49.4703 139.477 234.019 51.2513 139.784 233.231 52.2418 139.977 
243.166 51.489 139.216 243.861 51.4709 139.542 233.941 52.823 139.838 
242.3 52.0698 139.214 243.496 51.8508 139.638 235.615 53.2963 139.514 
236.565 53.8122 139.549 242.351 52.5039 139.625 237.262 54.1229 139.763 
242.029 52.8341 139.864 249.121 45.9005 140.882 248.969 45.44 141.109 
249.277 46.309 140.777 249.128 46.7335 140.674 247.498 48.1639 140.114 
235.342 49.7103 140.045 247.097 49.3893 140.232 231.367 51.8814 140.964 
232.128 50.8105 140.981 246.032 50.5609 140.303 231.806 52.2615 140.68 
243.4 52.2293 140.043 244.46 52.0197 140.807 233.862 53.426 140.147 
235.31 54.6896 140.722 240.082 53.8829 140.61 241.917 53.1001 140.332 
237.331 54.6596 140.575 252.687 43.7679 142.399 250.239 44.8954 141.61 
249.871 44.5549 141.786 252.684 43.9494 142.349 251.178 45.4703 141.541 
250.48 46.4844 141.196 250.006 47.1063 141.048 249.938 48.2076 141.458 
230.008 51.8033 141.778 230.798 52.8837 141.302 231.254 53.1193 141.088 
232.133 53.8756 141.007 241.213 53.617 141.294 241.701 53.4538 141.781 
233.091 54.733 141.336 233.004 55.1884 142.028 233.855 55.0928 141.556 
233.577 55.252 141.949 249.156 44.2915 142.066 252.194 44.5184 142.145 
253.685 44.8562 142.592 253.063 45.8398 142.373 252.859 46.3367 142.393 
233.489 48.9734 142.087 251.675 47.862 142.471 250.75 48.7654 142.736 
229.183 51.6342 142.491 230.921 50.3506 142.187 249.657 49.4402 142.759 
228.843 51.9598 142.624 228.921 52.365 142.528 229.544 52.6223 142.112 
230.311 53.5599 141.87 237.925 54.7842 141.882 255.787 41.8861 144.198 
256.763 41.8359 144.422 253.975 42.4162 143.704 255.612 42.3926 143.888 
251.77 43.3841 142.795 256.812 42.8214 144.022 248.159 44.0016 142.629 
256.096 43.7712 143.661 254.455 45.7787 143.185 253.417 46.8345 143.068 
252.247 48.035 143.254 250.631 49.0281 143.08 250.421 49.1976 143.328 
227.618 51.3754 143.853 229.967 50.2603 143.041 229.871 54.7486 142.946 
229.928 55.2656 143.377 230.213 55.57 143.656 235.204 55.3896 142.534 
231.593 55.5458 143.198 232.441 55.6498 143.471 231.642 55.716 143.428 
255.184 41.4669 144.561 256.45 41.1132 145.028 258.582 42.0966 145.068 
258.139 43.0021 144.668 243.014 44.8895 143.556 254.553 46.7724 144.217 
251.04 48.9275 143.959 225.743 52.2574 144.655 226.49 53.0497 144.064 
228.785 56.1422 144.889 230.66 56.0307 144.463 257.821 40.8711 145.607 
259.166 41.1384 145.992 259.589 41.3385 146.083 254.926 41.2265 144.885 
255.552 40.7431 145.509 259.898 41.4651 146.262 259.922 41.9694 146.077 
260.077 42.4137 146.092 259.22 43.0236 145.467 258.205 44.0427 144.991 
258.817 43.7575 145.42 257.777 44.6495 145.011 257.256 45.16 145.036 
258.114 44.8887 145.783 257.69 45.2381 145.876 254.444 47.0623 144.749 
255.188 46.7075 145.498 224.65 51.8164 145.734 226.304 51.6265 144.651 
223.523 52.5673 145.899 224.267 53.5789 145.213 224.384 54.1719 145.136 
258.875 39.9829 147.357 259.496 40.6695 146.836 259.977 41.6595 146.22 
260.127 41.6417 146.653 260.259 42.2179 146.418 260.447 42.5012 146.694 
260.291 43.0172 146.507 260.432 42.8174 146.654 260.377 43.0841 146.812 
260.201 43.3672 146.991 253.936 47.4128 145.406 254.161 47.2557 145.804 
223.117 52.344 146.281 223.605 51.4889 146.81 211.147 58.5409 147.475 
208.532 59.8203 147.434 207.899 60.5818 147.185 207.911 60.5044 147.235 
207.793 60.6981 147.259 204 61.0087 146.017 204 61.0087 146.017 
204 61.0087 146.017 204 61.0087 146.017 207.973 60.6941 147.188 
203 62.0087 146.017 203 62.0087 146.017 203 62.0087 146.017 
204 61.0088 146.017 203 62.0087 146.017 206.481 62.0959 147.35 
206.446 62.2497 147.431 206.451 62.1878 147.33 206.544 62.1221 147.322 
203 62.0088 146.017 206.519 62.2806 147.331 259.691 40.4709 147.968 
260.492 42.3784 147.051 257.526 45.4007 146.638 222.298 52.2673 146.919 
219.677 53.7568 147.605 217.669 54.8563 147.89 215.979 55.2381 148.347 
218.38 55.6338 147.382 220.437 55.157 146.839 213.947 56.4019 148.22 
212.809 57.0423 148.147 216.76 57.0726 147.469 221.727 56.823 146.964 
225.519 56.6857 146.344 210.354 58.5282 147.881 222.168 57.8307 147.684 
208.036 60.31 147.43 208.6 59.4507 147.988 209.083 59.3237 147.776 
210.359 59.6111 147.301 211.87 59.1111 147.341 213.53 59.0158 147.445 
207.322 61.0229 147.494 206.723 61.3907 147.759 208.478 60.5724 147.232 
213.131 59.4958 147.441 223.586 57.6637 147.506 204 61.0087 146.017 
206.68 61.829 147.434 206.462 61.9992 147.554 210.43 60.554 147.248 
203 62.0087 146.017 206.398 62.2546 147.628 206.82 62.2163 147.311 
207.445 61.9519 147.252 209.461 61.5047 147.301 211.088 61.2236 147.496 
206.41 62.7213 147.63 210.687 61.6878 147.602 206.491 63.0005 147.51 
206.434 63.1817 147.635 207.096 63.1021 147.433 208.118 62.7334 147.457 
206.593 63.5871 147.617 258.813 39.6903 148.507 259.373 40.0761 148.743 
260.035 40.9767 148.06 260.467 42.9239 147.441 260.368 43.1737 147.492 
260.399 43.0498 147.654 252.531 47.3116 148.191 223.355 51.0028 147.759 
219.371 53.4619 148.016 220.021 52.7065 148.364 217.962 53.8601 148.559 
215.307 55.0779 148.868 231.343 56.0837 147.705 211.045 57.5798 148.526 
207.571 60.2881 148.277 214.959 59.2148 147.655 217.349 58.7853 147.909 
206.761 61.0883 147.961 206.707 61.1139 148.05 207.154 60.7062 148.294 
216.769 59.8837 148.581 206.662 61.2555 147.981 206.625 61.5516 148.022 
215.577 60.1491 148.29 206.437 62.7815 147.89 208.714 62.7449 147.62 
212.443 61.8757 148.427 206.554 62.9724 148.063 209.253 62.9786 148.037 
210.855 62.7268 148.489 206.834 63.6662 147.639 211.384 62.5712 148.388 
206.571 63.7761 147.829 206.744 63.8747 147.758 207.262 63.8275 147.971 
206.643 63.901 147.806 206.79 63.935 147.864 206.997 63.9103 147.948 
257.543 39.0931 149.316 258.81 39.529 149.967 223.923 50.2134 148.871 
214.918 54.7666 149.688 213.16 56.1934 148.809 209.266 58.6949 148.898 
210.31 57.7389 149.261 207.803 60.0624 148.741 208.704 59.202 148.898 
222.262 58.5631 149.167 207.012 61.0133 148.435 218.743 59.3335 148.909 
216.62 60.2467 149.062 216.842 60.3715 149.682 214.441 61.3615 149.416 
207.301 63.0019 148.697 210.677 62.8973 148.854 207.016 63.6352 148.221 
208.986 63.2695 148.952 210.141 63.0322 149.015 206.677 63.8921 147.894 
206.864 63.8692 148.003 207.2 63.8129 148.114 257.999 38.9567 150.782 
256.495 38.8014 150.08 217.687 53.1675 149.809 214.186 54.8599 150.409 
213.351 55.575 149.719 210.388 57.5543 149.746 208.268 59.8545 149.446 
207.885 60.1628 149.131 207.696 60.6541 149.225 207.885 61.2384 149.579 
218.476 59.7643 150.631 214.999 61.2219 149.959 212.706 62.0627 149.407 
212.232 62.2592 149.582 207.781 63.4862 148.641 208.26 63.3954 148.816 
258.608 39.3846 151.561 259.341 40.1438 150.746 221.942 50.371 151.305 
216.643 53.2338 151.123 213.265 55.4128 150.378 212.486 55.8709 150.598 
209.943 58.0795 150.206 209.661 58.5668 150.365 208.571 61.8112 149.948 
209.204 61.9314 150.257 211.942 62.0085 150.379 212.86 61.6703 150.692 
208.802 62.8356 149.505 209.391 62.6912 149.752 210.173 62.641 149.836 
256.758 38.4526 152.466 257.669 38.7858 152.221 259.328 40.2801 151.286 
259.241 41.7144 151.65 258.774 42.1497 152.284 220.801 50.7868 151.831 
230.706 55.3267 151.61 210.493 57.8475 151.201 209.827 58.7987 150.886 
209.638 60.2868 151.003 218.601 59.2877 152.605 210.559 60.5285 151.614 
210.401 61.2153 151.198 213.532 61.2209 151.39 209.697 62.0519 150.393 
210.605 61.5851 150.976 210.254 61.9912 150.555 258.425 39.385 152.754 
258.202 42.3386 153.113 212.073 56.3106 152.574 211.114 58.695 152.467 
211.225 59.1693 152.524 211.685 59.2974 152.818 216.579 59.8531 152.623 
212.693 60.5774 152.307 212.262 60.9493 151.794 217.023 52.4202 154.118 
212.69 55.8669 153.195 211.822 57.1542 152.954 212.029 57.387 153.304 
212.043 57.95 153.353 212.541 60.2371 152.634 257.343 38.6978 154.837 
258.34 40.3359 154.368 215.842 53.2788 154.584 214.558 54.3129 153.99 
213.081 56.9686 154.31 213.103 57.6416 154.283 212.602 58.9189 153.566 
214.024 58.3903 154.52 212.88 59.344 153.521 213.228 59.3464 153.717 
213.255 59.6297 153.47 257.423 39.0137 155.724 257.785 40.0503 155.7 
257.824 40.537 155.51 215.102 54.2389 155.314 213.645 55.8693 154.57 
214.128 56.0387 155.158 216.479 58.1326 155.392 213.369 59.4693 153.694 
255.716 37.6461 157.173 256.034 37.813 157.644 257.356 39.1721 156.377 
257.413 40.8217 156.275 257.228 41.3406 156.163 218.64 51.1465 156.684 
214.872 54.8358 155.551 215.191 55.8152 156.183 215.257 56.5177 156.091 
217.433 57.6912 155.888 217.337 57.2482 156.377 256.933 39.6589 158.005 
257.183 40.0604 157.3 256.137 41.4412 158.013 215.788 54.6398 156.698 
216.672 56.0376 157.219 256.291 38.226 158.67 216.673 54.4327 157.605 
217.524 55.316 158.001 255.392 37.4693 159.837 255.31 37.3875 160.128 
255.716 37.9055 160.186 256.366 38.6908 159.494 256.402 39.6845 159.822 
256.174 40.6162 159.151 231.243 43.7206 159.679 220.81 49.3695 159.594 
219.798 50.2908 159.186 218.479 55.2813 158.424 254.34 36.9366 160.902 
254.427 36.969 161.216 255.781 38.3934 160.787 256.293 38.9598 159.931 
256.338 39.5789 160.026 256.166 39.6055 160.307 247.062 44.3432 160.997 
225.85 45.9969 160.644 221.2 49.1699 160.815 220.704 49.7125 160.656 
219.867 50.5977 160.068 219.423 51.9575 160.133 219.499 53.1923 160.113 
219.897 53.369 160.288 222.75 53.8062 160.478 220.346 53.7774 160.168 
252.892 36.4729 162.466 253.747 36.7344 162.116 254.343 36.989 161.68 
220.082 50.7755 160.607 220.632 50.2343 161.144 219.941 52.2257 160.72 
[...]
POINT_DATA 1209
COLOR_SCALARS scalars 3
0.0941176 0.501961 0.392157 0.0941176 0.501961 0.392157 0.0941176 0.501961 0.392157 
0.0941176 0.501961 0.392157 0.0941176 0.501961 0.392157 
0.0941176 0.501961 0.392157 0.0941176 0.501961 0.392157 
0.0941176 0.501961 0.392157 0.0941176 0.501961 0.392157 
0.0941176 0.501961 0.392157 0.0941176 0.501961 0.392157 
0.0941176 0.501961 0.392157 0.0941176 0.501961 0.392157 
0.0941176 0.501961 0.392157 0.0941176 0.501961 0.392157 
0.0941176 0.501961 0.392157 0.0941176 0.501961 0.392157 
0.0941176 0.501961 0.392157 0.0941176 0.501961 0.392157 
0.0941176 0.501961 0.392157 0.0941176 0.501961 0.392157 
0.0941176 0.501961 0.392157 0.0941176 0.501961 0.392157 
0.0941176 0.501961 0.392157 0.0941176 0.501961 0.392157 
0.0941176 0.501961 0.392157 0.0941176 0.501961 0.392157 
0.0941176 0.501961 0.392157 0.0941176 0.501961 0.392157 
0.0941176 0.501961 0.392157 0.0941176 0.501961 0.392157 
0.0941176 0.501961 0.392157 0.0941176 0.501961 0.392157 
0.0941176 0.501961 0.392157 0.0941176 0.501961 0.392157 
0.0941176 0.501961 0.392157 0.0941176 0.501961 0.392157 
0.0941176 0.501961 0.392157 0.0941176 0.501961 0.392157 
0.0941176 0.501961 0.392157 0.0941176 0.501961 0.392157 
0.0941176 0.501961 0.392157 0.0941176 0.501961 0.392157 
0.0941176 0.501961 0.392157 0.0941176 0.501961 0.392157 
0.0941176 0.501961 0.392157 0.0941176 0.501961 0.392157 
0.0941176 0.501961 0.392157 0.0941176 0.501961 0.392157 
0.0941176 0.501961 0.392157 0.0941176 0.501961 0.392157 
0.0941176 0.501961 0.392157 0.0941176 0.501961 0.392157 
0.0941176 0.501961 0.392157 0.0941176 0.501961 0.392157 
0.0941176 0.501961 0.392157 0.0941176 0.501961 0.392157 
0.0941176 0.501961 0.392157 0.0941176 0.501961 0.392157 
0.0941176 0.501961 0.392157 0.0941176 0.501961 0.392157 
0.0941176 0.501961 0.392157 0.0941176 0.501961 0.392157 
0.0941176 0.501961 0.392157 0.0941176 0.501961 0.392157 
0.0941176 0.501961 0.392157 0.0941176 0.501961 0.392157 
0.0941176 0.501961 0.392157 0.0941176 0.501961 0.392157 
0.0941176 0.501961 0.392157 0.0941176 0.501961 0.392157 
0.0941176 0.501961 0.392157 0.0941176 0.501961 0.392157 
0.0941176 0.501961 0.392157 0.0941176 0.501961 0.392157 
0.0941176 0.501961 0.392157 0.0941176 0.501961 0.392157 
0.0941176 0.501961 0.392157 0.0941176 0.501961 0.392157 
0.0941176 0.501961 0.392157 0.0941176 0.501961 0.392157 
0.0941176 0.501961 0.392157 0.0941176 0.501961 0.392157 
0.0941176 0.501961 0.392157 0.0941176 0.501961 0.392157 
0.0941176 0.501961 0.392157 0.0941176 0.501961 0.392157 
0.0941176 0.501961 0.392157 0.0941176 0.501961 0.392157 
0.0941176 0.501961 0.392157 0.0941176 0.501961 0.392157 
0.0941176 0.501961 0.392157 0.0941176 0.501961 0.392157 
0.0941176 0.501961 0.392157 0.0941176 0.501961 0.392157 
0.0941176 0.501961 0.392157 0.0941176 0.501961 0.392157 
0.0941176 0.501961 0.392157 0.0941176 0.501961 0.392157 
0.0941176 0.501961 0.392157 0.0941176 0.501961 0.392157 
0.0941176 0.501961 0.392157 0.0941176 0.501961 0.392157 
0.0941176 0.501961 0.392157 0.0941176 0.501961 0.392157 
0.0941176 0.501961 0.392157 0.0941176 0.501961 0.392157 
0.0941176 0.501961 0.392157 0.0941176 0.501961 0.392157 
0.0941176 0.501961 0.392157 0.0941176 0.501961 0.392157 
0.0941176 0.501961 0.392157 0.0941176 0.501961 0.392157 
0.0941176 0.501961 0.392157 0.0941176 0.501961 0.392157 
0.0941176 0.501961 0.392157 0.0941176 0.501961 0.392157 
0.0941176 0.501961 0.392157 0.0941176 0.501961 0.392157 
0.0941176 0.501961 0.392157 0.0941176 0.501961 0.392157 
0.0941176 0.501961 0.392157 0.0941176 0.501961 0.392157 
0.0941176 0.501961 0.392157 0.0941176 0.501961 0.392157 
0.0941176 0.501961 0.392157 0.0941176 0.501961 0.392157 
0.0941176 0.501961 0.392157 0.0941176 0.501961 0.392157 
0.0941176 0.501961 0.392157 0.0941176 0.501961 0.392157 
0.0941176 0.501961 0.392157 0.0941176 0.501961 0.392157 
0.0941176 0.501961 0.392157 0.0941176 0.501961 0.392157 
0.0941176 0.501961 0.392157 0.0941176 0.501961 0.392157 
0.0941176 0.501961 0.392157 0.0941176 0.501961 0.392157 
0.0941176 0.501961 0.392157 0.0941176 0.501961 0.392157 
0.0941176 0.501961 0.392157 0.0941176 0.501961 0.392157 
0.0941176 0.501961 0.392157 0.0941176 0.501961 0.392157 
0.0941176 0.501961 0.392157 0.0941176 0.501961 0.392157 
0.0941176 0.501961 0.392157 0.0941176 0.501961 0.392157 
0.0941176 0.501961 0.392157 0.0941176 0.501961 0.392157 
0.0941176 0.501961 0.392157 0.0941176 0.501961 0.392157 
0.0941176 0.501961 0.392157 0.0941176 0.501961 0.392157 
0.0941176 0.501961 0.392157 0.0941176 0.501961 0.392157 
0.0941176 0.501961 0.392157 0.0941176 0.501961 0.392157 
0.0941176 0.501961 0.392157 0.0941176 0.501961 0.392157 
0.0941176 0.501961 0.392157 0.0941176 0.501961 0.392157 
0.0941176 0.501961 0.392157 0.0941176 0.501961 0.392157 
0.0941176 0.501961 0.392157 0.0941176 0.501961 0.392157 
0.0941176 0.501961 0.392157 0.0941176 0.501961 0.392157 
0.0941176 0.501961 0.392157 0.0941176 0.501961 0.392157 
0.0941176 0.501961 0.392157 0.0941176 0.501961 0.392157 
0.0941176 0.501961 0.392157 0.0941176 0.501961 0.392157 
0.0941176 0.501961 0.392157 0.0941176 0.501961 0.392157 
0.0941176 0.501961 0.392157 0.0941176 0.501961 0.392157 
0.0941176 0.501961 0.392157 0.0941176 0.501961 0.392157 
0.0941176 0.501961 0.392157 0.0941176 0.501961 0.392157 
0.0941176 0.501961 0.392157 0.0941176 0.501961 0.392157 
0.0941176 0.501961 0.392157 0.0941176 0.501961 0.392157 
0.0941176 0.501961 0.392157 0.0941176 0.501961 0.392157 
0.0941176 0.501961 0.392157 0.0941176 0.501961 0.392157 
0.0941176 0.501961 0.392157 0.0941176 0.501961 0.392157 
0.0941176 0.501961 0.392157 0.0941176 0.501961 0.392157 
0.0941176 0.501961 0.392157 0.0941176 0.501961 0.392157 
0.0941176 0.501961 0.392157 0.0941176 0.501961 0.392157 
0.0941176 0.501961 0.392157 0.0941176 0.501961 0.392157 
0.0941176 0.501961 0.392157 0.0941176 0.501961 0.392157 
0.0941176 0.501961 0.392157 0.0941176 0.501961 0.392157 
0.0941176 0.501961 0.392157 0.0941176 0.501961 0.392157 
0.0941176 0.501961 0.392157 0.0941176 0.501961 0.392157 
0.0941176 0.501961 0.392157 0.0941176 0.501961 0.392157 
0.0941176 0.501961 0.392157 0.0941176 0.501961 0.392157 
0.0941176 0.501961 0.392157 0.0941176 0.501961 0.392157 
0.0941176 0.501961 0.392157 0.0941176 0.501961 0.392157 
0.0941176 0.501961 0.392157 0.0941176 0.501961 0.392157 
0.0941176 0.501961 0.392157 0.0941176 0.501961 0.392157 
0.0941176 0.501961 0.392157 0.0941176 0.501961 0.392157 
0.0941176 0.501961 0.392157 0.0941176 0.501961 0.392157 
0.0941176 0.501961 0.392157 0.0941176 0.501961 0.392157 
0.0941176 0.501961 0.392157 0.0941176 0.501961 0.392157 
0.0941176 0.501961 0.392157 0.0941176 0.501961 0.392157 
0.0941176 0.501961 0.392157 0.0941176 0.501961 0.392157 
0.0941176 0.501961 0.392157 0.0941176 0.501961 0.392157 
0.0941176 0.501961 0.392157 0.0941176 0.501961 0.392157 
0.0941176 0.501961 0.392157 0.0941176 0.501961 0.392157 
0.0941176 0.501961 0.392157 0.0941176 0.501961 0.392157 
0.0941176 0.501961 0.392157 0.0941176 0.501961 0.392157 
0.0941176 0.501961 0.392157 0.0941176 0.501961 0.392157 
0.0941176 0.501961 0.392157 0.0941176 0.501961 0.392157 
0.0941176 0.501961 0.392157 0.0941176 0.501961 0.392157 
0.0941176 0.501961 0.392157 0.0941176 0.501961 0.392157 
0.0941176 0.501961 0.392157 0.0941176 0.501961 0.392157 
0.0941176 0.501961 0.392157 0.0941176 0.501961 0.392157 
0.0941176 0.501961 0.392157 0.0941176 0.501961 0.392157 
0.0941176 0.501961 0.392157 0.0941176 0.501961 0.392157 
0.0941176 0.501961 0.392157 0.0941176 0.501961 0.392157 
0.0941176 0.501961 0.392157 0.0941176 0.501961 0.392157 
0.0941176 0.501961 0.392157 0.0941176 0.501961 0.392157 
0.0941176 0.501961 0.392157 0.0941176 0.501961 0.392157 
0.0941176 0.501961 0.392157 0.0941176 0.501961 0.392157 
0.0941176 0.501961 0.392157 0.0941176 0.501961 0.392157 
0.0941176 0.501961 0.392157 0.0941176 0.501961 0.392157 
0.0941176 0.501961 0.392157 0.0941176 0.501961 0.392157 
0.0941176 0.501961 0.392157 0.0941176 0.501961 0.392157 
0.0941176 0.501961 0.392157 0.0941176 0.501961 0.392157 
0.0941176 0.501961 0.392157 0.0941176 0.501961 0.392157 
0.0941176 0.501961 0.392157 0.0941176 0.501961 0.392157 
0.0941176 0.501961 0.392157 0.0941176 0.501961 0.392157 
0.0941176 0.501961 0.392157 0.0941176 0.501961 0.392157 
0.0941176 0.501961 0.392157 0.0941176 0.501961 0.392157 
0.0941176 0.501961 0.392157 0.0941176 0.501961 0.392157 
0.0941176 0.501961 0.392157 0.0941176 0.501961 0.392157 
0.0941176 0.501961 0.392157 0.0941176 0.501961 0.392157 
0.0941176 0.501961 0.392157 0.0941176 0.501961 0.392157 
0.0941176 0.501961 0.392157 0.0941176 0.501961 0.392157 
0.0941176 0.501961 0.392157 0.0941176 0.501961 0.392157 
0.0941176 0.501961 0.392157 0.0941176 0.501961 0.392157 
0.0941176 0.501961 0.392157 0.0941176 0.501961 0.392157 
0.0941176 0.501961 0.392157 0.0941176 0.501961 0.392157 
0.0941176 0.501961 0.392157 0.0941176 0.501961 0.392157 
0.0941176 0.501961 0.392157 0.0941176 0.501961 0.392157 
0.0941176 0.501961 0.392157 0.0941176 0.501961 0.392157 
0.0941176 0.501961 0.392157 0.0941176 0.501961 0.392157 
0.0941176 0.501961 0.392157 0.0941176 0.501961 0.392157 
0.0941176 0.501961 0.392157 0.0941176 0.501961 0.392157 
0.0941176 0.501961 0.392157 0.0941176 0.501961 0.392157 
0.0941176 0.501961 0.392157 0.0941176 0.501961 0.392157 
0.0941176 0.501961 0.392157 0.0941176 0.501961 0.392157 
0.0941176 0.501961 0.392157 0.0941176 0.501961 0.392157 
0.0941176 0.501961 0.392157 0.0941176 0.501961 0.392157 
0.0941176 0.501961 0.392157 0.0941176 0.501961 0.392157 
0.0941176 0.501961 0.392157 0.0941176 0.501961 0.392157 
0.0941176 0.501961 0.392157 0.0941176 0.501961 0.392157 
0.0941176 0.501961 0.392157 0.0941176 0.501961 0.392157 
0.0941176 0.501961 0.392157 0.0941176 0.501961 0.392157 
0.0941176 0.501961 0.392157 0.0941176 0.501961 0.392157 
0.0941176 0.501961 0.392157 0.0941176 0.501961 0.392157 
0.0941176 0.501961 0.392157 0.0941176 0.501961 0.392157 
0.0941176 0.501961 0.392157 0.0941176 0.501961 0.392157 
0.0941176 0.501961 0.392157 0.0941176 0.501961 0.392157 
0.0941176 0.501961 0.392157 0.0941176 0.501961 0.392157 
0.0941176 0.501961 0.392157 0.0941176 0.501961 0.392157 
0.0941176 0.501961 0.392157 0.0941176 0.501961 0.392157 
0.0941176 0.501961 0.392157 0.0941176 0.501961 0.392157 
0.0941176 0.501961 0.392157 0.0941176 0.501961 0.392157 
0.0941176 0.501961 0.392157 0.0941176 0.501961 0.392157 
0.0941176 0.501961 0.392157 0.0941176 0.501961 0.392157 
0.0941176 0.501961 0.392157 0.0941176 0.501961 0.392157 
0.0941176 0.501961 0.392157 0.0941176 0.501961 0.392157 
0.0941176 0.501961 0.392157 0.0941176 0.501961 0.392157 
0.0941176 0.501961 0.392157 0.0941176 0.501961 0.392157 
0.0941176 0.501961 0.392157 0.0941176 0.501961 0.392157 
0.0941176 0.501961 0.392157 0.0941176 0.501961 0.392157 
0.0941176 0.501961 0.392157 0.0941176 0.501961 0.392157 
0.0941176 0.501961 0.392157 0.0941176 0.501961 0.392157 
0.0941176 0.501961 0.392157 0.0941176 0.501961 0.392157 
0.0941176 0.501961 0.392157 0.0941176 0.501961 0.392157 
0.0941176 0.501961 0.392157 0.0941176 0.501961 0.392157 
0.0941176 0.501961 0.392157 0.0941176 0.501961 0.392157 
0.0941176 0.501961 0.392157 0.0941176 0.501961 0.392157 
0.0941176 0.501961 0.392157 0.0941176 0.501961 0.392157 
0.0941176 0.501961 0.392157 0.0941176 0.501961 0.392157 
0.0941176 0.501961 0.392157 0.0941176 0.501961 0.392157 
0.0941176 0.501961 0.392157 0.0941176 0.501961 0.392157 
0.0941176 0.501961 0.392157 0.0941176 0.501961 0.392157 
0.0941176 0.501961 0.392157 0.0941176 0.501961 0.392157 
0.0941176 0.501961 0.392157 0.0941176 0.501961 0.392157 
0.0941176 0.501961 0.392157 0.0941176 0.501961 0.392157 
0.0941176 0.501961 0.392157 0.0941176 0.501961 0.392157 
0.0941176 0.501961 0.392157 0.0941176 0.501961 0.392157 
0.0941176 0.501961 0.392157 0.0941176 0.501961 0.392157 
0.0941176 0.501961 0.392157 0.0941176 0.501961 0.392157 
0.0941176 0.501961 0.392157 0.0941176 0.501961 0.392157 
0.0941176 0.501961 0.392157 0.0941176 0.501961 0.392157 
0.0941176 0.501961 0.392157 0.0941176 0.501961 0.392157 
0.0941176 0.501961 0.392157 0.0941176 0.501961 0.392157 
0.0941176 0.501961 0.392157 0.0941176 0.501961 0.392157 
0.0941176 0.501961 0.392157 0.0941176 0.501961 0.392157 
0.0941176 0.501961 0.392157 0.0941176 0.501961 0.392157 
0.0941176 0.501961 0.392157 0.0941176 0.501961 0.392157 
0.0941176 0.501961 0.392157 0.0941176 0.501961 0.392157 
0.0941176 0.501961 0.392157 0.0941176 0.501961 0.392157 
0.0941176 0.501961 0.392157 0.0941176 0.501961 0.392157 
0.0941176 0.501961 0.392157 0.0941176 0.501961 0.392157 
0.0941176 0.501961 0.392157 0.0941176 0.501961 0.392157 
0.0941176 0.501961 0.392157 0.0941176 0.501961 0.392157 
0.0941176 0.501961 0.392157 0.0941176 0.501961 0.392157 
0.0941176 0.501961 0.392157 0.0941176 0.501961 0.392157 
0.0941176 0.501961 0.392157 0.0941176 0.501961 0.392157 
0.0941176 0.501961 0.392157 0.0941176 0.501961 0.392157 
0.0941176 0.501961 0.392157 0.0941176 0.501961 0.392157 
0.0941176 0.501961 0.392157 0.0941176 0.501961 0.392157 
0.0941176 0.501961 0.392157 0.0941176 0.501961 0.392157 
0.0941176 0.501961 0.392157 0.0941176 0.501961 0.392157 
0.0941176 0.501961 0.392157 0.0941176 0.501961 0.392157 
0.0941176 0.501961 0.392157 0.0941176 0.501961 0.392157 
0.0941176 0.501961 0.392157 0.0941176 0.501961 0.392157 
0.0941176 0.501961 0.392157 0.0941176 0.501961 0.392157 
0.0941176 0.501961 0.392157 0.0941176 0.501961 0.392157 
0.0941176 0.501961 0.392157 0.0941176 0.501961 0.392157 
0.0941176 0.501961 0.392157 0.0941176 0.501961 0.392157 
0.0941176 0.501961 0.392157 0.0941176 0.501961 0.392157 
0.0941176 0.501961 0.392157 0.0941176 0.501961 0.392157 
0.0941176 0.501961 0.392157 0.0941176 0.501961 0.392157 
0.0941176 0.501961 0.392157 0.0941176 0.501961 0.392157 
0.0941176 0.501961 0.392157 0.0941176 0.501961 0.392157 
0.0941176 0.501961 0.392157 0.0941176 0.501961 0.392157 
0.0941176 0.501961 0.392157 0.0941176 0.501961 0.392157 
0.0941176 0.501961 0.392157 0.0941176 0.501961 0.392157 
0.0941176 0.501961 0.392157 0.0941176 0.501961 0.392157 
0.0941176 0.501961 0.392157 0.0941176 0.501961 0.392157 
0.0941176 0.501961 0.392157 0.0941176 0.501961 0.392157 
0.0941176 0.501961 0.392157 0.0941176 0.501961 0.392157 
0.0941176 0.501961 0.392157 0.0941176 0.501961 0.392157 
0.0941176 0.501961 0.392157 0.0941176 0.501961 0.392157 
0.0941176 0.501961 0.392157 0.0941176 0.501961 0.392157 
0.0941176 0.501961 0.392157 0.0941176 0.501961 0.392157 
0.0941176 0.501961 0.392157 0.0941176 0.501961 0.392157 
0.0941176 0.501961 0.392157 0.0941176 0.501961 0.392157 
0.0941176 0.501961 0.392157 0.0941176 0.501961 0.392157 
0.0941176 0.501961 0.392157 0.0941176 0.501961 0.392157 
0.0941176 0.501961 0.392157 0.0941176 0.501961 0.392157 
0.0941176 0.501961 0.392157 0.0941176 0.501961 0.392157 
0.0941176 0.501961 0.392157 0.0941176 0.501961 0.392157 
0.0941176 0.501961 0.392157 0.0941176 0.501961 0.392157 
0.0941176 0.501961 0.392157 0.0941176 0.501961 0.392157 
0.0941176 0.501961 0.392157 0.0941176 0.501961 0.392157 
0.0941176 0.501961 0.392157 0.0941176 0.501961 0.392157 
0.0941176 0.501961 0.392157 0.0941176 0.501961 0.392157 
0.0941176 0.501961 0.392157 0.0941176 0.501961 0.392157 
0.0941176 0.501961 0.392157 0.0941176 0.501961 0.392157 
0.0941176 0.501961 0.392157 0.0941176 0.501961 0.392157 
0.0941176 0.501961 0.392157 0.0941176 0.501961 0.392157 
0.0941176 0.501961 0.392157 0.0941176 0.501961 0.392157 
0.0941176 0.501961 0.392157 0.0941176 0.501961 0.392157 
0.0941176 0.501961 0.392157 0.0941176 0.501961 0.392157 
0.0941176 0.501961 0.392157 0.0941176 0.501961 0.392157 
0.0941176 0.501961 0.392157 0.0941176 0.501961 0.392157 
0.0941176 0.501961 0.392157 0.0941176 0.501961 0.392157 
0.0941176 0.501961 0.392157 0.0941176 0.501961 0.392157 
0.0941176 0.501961 0.392157 0.0941176 0.501961 0.392157 
0.0941176 0.501961 0.392157 0.0941176 0.501961 0.392157 
0.0941176 0.501961 0.392157 0.0941176 0.501961 0.392157 
0.0941176 0.501961 0.392157 0.0941176 0.501961 0.392157 
0.0941176 0.501961 0.392157 0.0941176 0.501961 0.392157 
0.0941176 0.501961 0.392157 0.0941176 0.501961 0.392157 
0.0941176 0.501961 0.392157 0.0941176 0.501961 0.392157 
0.0941176 0.501961 0.392157 0.0941176 0.501961 0.392157 
0.0941176 0.501961 0.392157 0.0941176 0.501961 0.392157 
0.0941176 0.501961 0.392157 0.0941176 0.501961 0.392157 
0.0941176 0.501961 0.392157 0.0941176 0.501961 0.392157 
0.0941176 0.501961 0.392157 0.0941176 0.501961 0.392157 
0.0941176 0.501961 0.392157 0.0941176 0.501961 0.392157 
0.0941176 0.501961 0.392157 0.0941176 0.501961 0.392157 
0.0941176 0.501961 0.392157 0.0941176 0.501961 0.392157 
0.0941176 0.501961 0.392157 0.0941176 0.501961 0.392157 
0.0941176 0.501961 0.392157 0.0941176 0.501961 0.392157 
0.0941176 0.501961 0.392157 0.0941176 0.501961 0.392157 
0.0941176 0.501961 0.392157 0.0941176 0.501961 0.392157 
0.0941176 0.501961 0.392157 0.0941176 0.501961 0.392157 
0.0941176 0.501961 0.392157 0.0941176 0.501961 0.392157 
0.0941176 0.501961 0.392157 0.0941176 0.501961 0.392157 
0.0941176 0.501961 0.392157 0.0941176 0.501961 0.392157 
0.0941176 0.501961 0.392157 0.0941176 0.501961 0.392157 
0.0941176 0.501961 0.392157 0.0941176 0.501961 0.392157 
0.0941176 0.501961 0.392157 0.0941176 0.501961 0.392157 
0.0941176 0.501961 0.392157 0.0941176 0.501961 0.392157 
0.0941176 0.501961 0.392157 0.0941176 0.501961 0.392157 
0.0941176 0.501961 0.392157 0.0941176 0.501961 0.392157 
0.0941176 0.501961 0.392157 0.0941176 0.501961 0.392157 
0.0941176 0.501961 0.392157 0.0941176 0.501961 0.392157 
0.0941176 0.501961 0.392157 0.0941176 0.501961 0.392157 
0.0941176 0.501961 0.392157 0.0941176 0.501961 0.392157 
0.0941176 0.501961 0.392157 0.0941176 0.501961 0.392157 
0.0941176 0.501961 0.392157 0.0941176 0.501961 0.392157 
0.0941176 0.501961 0.392157 0.0941176 0.501961 0.392157 
0.0941176 0.501961 0.392157 0.0941176 0.501961 0.392157 
0.0941176 0.501961 0.392157 0.0941176 0.501961 0.392157 
0.0941176 0.501961 0.392157 0.0941176 0.501961 0.392157 
0.0941176 0.501961 0.392157 0.0941176 0.501961 0.392157 
0.0941176 0.501961 0.392157 0.0941176 0.501961 0.392157 
0.0941176 0.501961 0.392157 0.0941176 0.501961 0.392157 
0.0941176 0.501961 0.392157 0.0941176 0.501961 0.392157 
0.0941176 0.501961 0.392157 0.0941176 0.501961 0.392157 
0.0941176 0.501961 0.392157 0.0941176 0.501961 0.392157 
0.0941176 0.501961 0.392157 0.0941176 0.501961 0.392157 
0.0941176 0.501961 0.392157 0.0941176 0.501961 0.392157 
0.0941176 0.501961 0.392157 0.0941176 0.501961 0.392157 
0.0941176 0.501961 0.392157 0.0941176 0.501961 0.392157 
0.0941176 0.501961 0.392157 0.0941176 0.501961 0.392157 
0.0941176 0.501961 0.392157 0.0941176 0.501961 0.392157 
0.0941176 0.501961 0.392157 0.0941176 0.501961 0.392157 
0.0941176 0.501961 0.392157 0.0941176 0.501961 0.392157 
0.0941176 0.501961 0.392157 0.0941176 0.501961 0.392157 
0.0941176 0.501961 0.392157 0.0941176 0.501961 0.392157 
0.0941176 0.501961 0.392157 0.0941176 0.501961 0.392157 
0.0941176 0.501961 0.392157 0.0941176 0.501961 0.392157 
0.0941176 0.501961 0.392157 0.0941176 0.501961 0.392157 
0.0941176 0.501961 0.392157 0.0941176 0.501961 0.392157 
0.0941176 0.501961 0.392157 0.0941176 0.501961 0.392157 
0.0941176 0.501961 0.392157 0.0941176 0.501961 0.392157 
0.0941176 0.501961 0.392157 0.0941176 0.501961 0.392157 
0.0941176 0.501961 0.392157 0.0941176 0.501961 0.392157 
0.0941176 0.501961 0.392157 0.0941176 0.501961 0.392157 
0.0941176 0.501961 0.392157 0.0941176 0.501961 0.392157 
0.0941176 0.501961 0.392157 0.0941176 0.501961 0.392157 
0.0941176 0.501961 0.392157 0.0941176 0.501961 0.392157 
0.0941176 0.501961 0.392157 0.0941176 0.501961 0.392157 
0.0941176 0.501961 0.392157 0.0941176 0.501961 0.392157 
0.0941176 0.501961 0.392157 0.0941176 0.501961 0.392157 
0.0941176 0.501961 0.392157 0.0941176 0.501961 0.392157 
0.0941176 0.501961 0.392157 0.0941176 0.501961 0.392157 
0.0941176 0.501961 0.392157 0.0941176 0.501961 0.392157 
0.0941176 0.501961 0.392157 0.0941176 0.501961 0.392157 
0.0941176 0.501961 0.392157 0.0941176 0.501961 0.392157 