# vtk DataFile Version 4.2
vtk output
ASCII
DATASET POLYDATA
POINTS 1585 float
220.137 131.172 79.4674 220.496 130.895 79.6829 219.27 131.132 79.2049 
218.911 132.207 79.1038 220.645 131.766 79.7472 217.839 132.504 78.9401 
220.114 132.831 79.6899 215.784 135.153 79.3185 216.031 135.305 79.3644 
219.309 129.303 79.9864 219.866 130.065 79.7338 220.42 129.883 80.1567 
220.851 130.971 79.926 215.654 132.363 79.2341 220.887 131.97 79.9913 
221.162 131.857 80.2641 212.516 135.886 79.6889 211.637 137.407 80.0468 
218.94 128.069 80.6147 219.168 127.633 80.9797 219.519 127.623 81.1902 
220.677 129.336 80.7731 220.9 130.225 80.2791 220.925 133.402 80.6512 
209.542 137.13 80.3355 215.614 136.848 80.3891 208.248 138.972 80.9608 
212.98 138.103 80.5638 208.258 139.713 81.2932 218.198 125.792 81.96 
218.497 125.807 82.0898 217.711 126.646 81.32 221.343 130.161 80.8949 
207.723 136.835 80.8645 206.434 137.989 81.211 210.831 139.617 81.3332 
205.622 140.514 81.7639 206.18 141.172 82.0836 216.862 124.802 82.4338 
222.667 133.277 83.0147 212.437 139.761 81.9693 202.437 141.092 82.5106 
206.868 141.568 82.4315 201.55 142.731 83.2198 216.532 123.59 83.1262 
217.02 123.578 83.2799 217.83 123.348 83.8721 214.471 124.123 82.9476 
215.819 124.18 82.7562 219.365 125.429 83.1918 222.819 131.448 83.4489 
223.29 132.9 83.9537 221.022 135.811 82.8286 215.89 120.613 84.8392 
215.578 121.514 84.23 217.001 122.055 84.3012 219.465 124.934 83.9285 
223.686 133.353 84.9676 222.602 135.148 84.016 197.217 142.426 84.3551 
205.367 143.181 84.0035 197.134 144.43 84.9869 215.463 119.862 85.2879 
213.284 120.551 84.9924 214.719 120.457 84.8392 217.293 121.075 85.2411 
213.917 121.679 84.2681 219.004 123.324 85.1227 220.11 125.115 85.002 
224.027 134.331 85.9247 205.809 143.906 85.2208 194.221 144.372 85.6826 
198.879 144.721 84.9431 211.103 120.172 85.7918 223.741 131.75 85.9728 
224.708 134.663 87.1612 222.774 136.828 85.9196 197.201 146.332 86.5705 
192.609 146.82 87.2493 196.442 146.361 86.3942 213.995 115.927 87.619 
215.349 115.918 88.0765 224.582 133.873 86.9659 224.856 134.598 87.3817 
224.897 134.599 87.5006 222.36 137.987 86.8974 215.223 141.773 86.704 
191.287 144.675 86.7653 189.796 145.898 87.5377 189.986 146.484 87.6722 
191.43 146.46 87.2937 194.214 146.862 87.0743 190.555 147.007 87.8029 
192.796 147.393 87.6992 190.938 147.62 88.1994 213.946 114.629 88.5967 
213.383 115.584 87.8396 215.069 115.162 88.6405 211.126 116.281 87.7664 
215.434 115.611 88.4263 215.858 116.076 88.472 224.743 133.78 87.6714 
224.979 135.32 88.2824 211.676 143.628 87.7473 188.759 146.324 88.0793 
193.186 147.638 87.9647 212.281 113.483 89.3711 213.866 113.606 89.4651 
210.988 114.06 89.1602 197.626 127.868 87.9983 224.873 133.489 89.0988 
225.082 135.704 89.2982 224.411 136.929 88.5802 224.729 136.801 89.3095 
220.106 140.048 87.953 185.834 146.391 89.2715 186.49 147.738 89.3096 
185.257 148.943 89.8875 189.185 148.698 89.4109 189.542 148.739 89.3306 
183.122 161.303 90.2471 182.925 160.902 90.2767 183.164 162.503 90.4382 
183.593 161.839 90.3453 183.566 162.895 90.5612 183.967 162.667 90.6421 
183.249 163.476 90.8025 183.554 163.378 90.736 183.537 163.728 90.9764 
183.845 163.631 90.9448 212.979 111.723 90.8365 215.694 114.709 89.8436 
218.837 141.33 89.5508 185.872 143.872 89.3707 197.758 148.091 89.5965 
191.218 149.06 90.0094 186.154 149.928 90.2614 186.995 149.811 90.3471 
182.984 150.733 90.4758 184.17 151.976 90.4966 182.682 153.613 90.5486 
183.218 154.233 90.5399 183.852 153.91 90.6105 184.376 154.545 90.8014 
182.45 156.481 90.5289 183.031 157.093 90.5087 184.074 156.391 90.7377 
182.414 158.482 90.474 184.264 160.358 90.744 184.302 163.707 91.23 
183.557 164.024 91.3635 212.479 110.988 91.4004 212.912 110.81 91.6832 
213.382 111.021 91.7529 208.414 112.52 91.1725 217.949 117.749 90.8229 
223.918 130.678 90.7764 225.003 134.876 90.6128 224.63 137.081 90.2198 
221.589 139.824 89.5689 222.36 139.325 90.3325 215.989 143.008 90.7667 
211.31 144.874 90.4472 208.796 145.86 91.1963 186.051 151.602 90.9849 
185.251 152.474 90.879 180.827 153.545 91.0847 185.333 154.736 91.3381 
181.168 163.075 91.5639 181.708 163.224 91.3894 184.782 163.365 91.3756 
181.191 163.552 92.0104 181.578 163.603 91.712 182.039 163.877 91.8983 
181.386 163.606 91.8079 184.2 164.208 91.7076 184.635 164.3 91.8044 
184.897 164.13 91.8492 184.731 164.259 91.7518 214.249 110.962 92.7326 
224.499 132.796 91.5106 224.401 136.713 91.3329 221.078 140.021 91.2581 
219.746 140.941 90.9063 216.775 142.584 91.3691 212.259 144.707 91.188 
207.627 146.055 90.7177 210.525 145.387 91.5098 202.989 147.743 91.725 
188.035 150.699 91.4622 178.738 158.478 92.0984 179.397 160.949 91.9984 
179.291 162.675 93.0735 185.624 163.143 92.0844 182.511 164.221 92.1615 
185.618 163.669 92.2996 185.947 163.893 92.8592 183.694 164.638 92.7189 
184.848 164.381 92.25 184.782 164.31 91.8812 201.2 115.429 92.94 
223.034 128.484 93.4623 224.253 132.85 92.3951 224.157 134.333 92.7017 
182.993 136.645 92.8844 221.385 138.361 93.0503 217.819 141.353 92.7705 
216.957 142.321 91.9454 205.633 146.969 91.9544 208.004 146.241 92.423 
210.591 145.352 92.4881 191.66 150.619 93.2087 178.947 163.138 94.2289 
185.764 164.675 93.5575 185.716 164.935 94.0509 212.188 108.577 93.8796 
215.125 111.352 93.8748 222.713 135.588 93.8501 214.047 143.299 93.4235 
208.289 146.146 92.873 208.728 145.937 93.124 206.556 146.691 93.5672 
205.174 147.322 93.8044 195.919 150.003 93.4513 188.616 152.052 93.3269 
187.041 158.961 93.5204 177.212 160.476 93.7485 177.382 161.274 94.0272 
177.256 162.11 95.0447 186.91 163.585 93.8169 184.219 165.043 94.2307 
185.795 165.128 94.6127 186.635 164.499 94.1665 211.047 107.341 95.5075 
222.977 128.757 94.8013 223.214 130.151 94.7671 211.182 143.466 95.1289 
210.628 144.402 94.498 207.184 146.303 94.1375 207.612 145.891 94.6149 
205.531 147.102 94.1604 199.792 149.455 94.5133 191.399 151.47 94.8111 
189.57 152.686 94.9846 175.216 159.809 95.5722 176.636 161.758 95.4619 
187.874 162.291 94.8118 178.975 163.5 95.2453 185.674 165.239 95.0901 
186.288 165.269 95.7217 212.269 106.73 96.7821 208.966 107.471 95.8997 
211.176 106.795 96.2501 215.233 110.592 95.9852 222.334 127.472 96.1973 
222.839 128.693 95.2879 222.813 131.868 95.2836 219.364 134.8 96.1985 
211.713 141.38 96.2356 208.117 144.889 95.5177 207.984 145.441 94.9977 
174.757 147.57 95.9058 204.035 147.473 95.5239 204.534 147.086 95.6553 
203.057 148.21 94.8058 203.589 147.858 95.1409 200.433 149.3 95.6113 
174.327 154.203 95.732 188.386 155.514 95.1017 186.39 165.35 96.4824 
210.732 105.96 97.2469 222 128.195 97.2103 222.456 129.55 96.2303 
222.828 130.674 95.5364 204.258 146.073 97.0677 202.299 147.899 96.6785 
201.381 148.647 96.4792 198.003 150.051 96.5368 200.352 149.215 96.1764 
190.853 152.854 96.5864 195.951 150.699 97.0132 177.048 162.811 97.8392 
188.141 164.635 96.6808 188.716 164.196 97.1705 186.965 165.318 97.0254 
187.511 165.128 97.0541 188.536 164.588 97.5489 210.74 105.376 98.1544 
210.178 105.379 98.1883 211.834 105.353 98.8186 205.299 107.958 97.463 
221.249 123.227 97.3016 221.694 128.221 97.8964 222.047 129.308 96.8589 
221.187 129.597 97.7184 175.835 137.066 97.4239 205.208 144.233 97.7513 
197.753 150.041 97.219 192.973 151.926 97.4977 190.304 154.883 97.8028 
189.371 159.946 97.4884 189.388 160.81 97.6355 189.453 161.576 98.229 
187.054 165.292 97.8746 187.938 164.998 97.7431 188.398 164.724 97.8691 
221.189 123.386 98.7999 198.174 148.791 98.935 196.81 150.102 98.267 
194.233 151.427 98.2345 191.607 153.282 98.4286 193.889 151.595 98.8361 
190.176 155.577 98.0547 170.81 157.264 99.2826 171.735 156.465 98.1768 
189.689 159.683 98.8514 174.135 161.273 99.2157 188.834 164.088 98.559 
188.596 164.521 98.3183 221.14 124.262 99.7222 218.949 128.328 100.105 
219.394 127.804 100.178 197.51 148.006 100.101 192.141 152.96 99.5925 
191.375 153.942 99.2241 190.812 155.024 99.2485 190.083 157.955 99.6775 
170.71 158.52 100.212 171.354 159.84 101.239 172.4 160.55 100.974 
189.449 161.236 99.4494 174.255 161.49 100.376 189.094 162.941 99.2621 
180.9 163.992 100.134 185.1 164.738 99.695 188.712 164.103 99.024 
188.615 163.882 99.4039 188.314 164.591 98.8832 194.001 111.614 100.962 
220.74 122.739 100.444 180.274 123.872 100.639 220.987 124.531 100.168 
220.237 126.336 100.483 220.25 125.88 100.746 173.413 133.035 100.769 
193.407 151.523 100.311 168.408 155.053 100.833 190.543 155.772 100.51 
189.475 159.589 100.597 188.565 161.985 100.944 188.8 161.32 101 
188.703 162.568 100.378 185.499 164.627 99.9681 187.606 163.86 100.413 
187.063 164.343 99.986 212.324 103.82 102.488 187.898 115.214 101.719 
220.698 125.337 100.456 193.916 149.731 101.562 192.971 151.476 100.976 
167.036 156.082 102.47 189.349 157.236 101.859 172.997 160.889 102.29 
175.696 161.952 102.253 182.048 163.77 101.72 187.258 163.916 100.628 
187.089 163.695 100.992 212 101.009 103.017 212 101.009 103.017 
212 101.009 103.017 212 101.009 103.017 210.526 102.553 102.957 
212 101.009 103.017 211.864 103.071 103.245 213.477 104.842 103.119 
219.786 122.241 103.175 220.174 122.853 102.17 219.484 124.228 102.523 
219.75 123.694 102.56 166.028 148.527 102.881 165.697 153.143 103.087 
190.381 152.645 102.859 166.596 157.2 104.116 168.114 158.26 103.483 
187.55 159.142 102.999 168.725 158.648 103.569 185.662 163.036 102.209 
212 101.009 103.018 219.619 119.477 103.47 178.637 121.052 103.727 
219.561 121.904 103.863 219.621 122.078 103.802 219.464 123.259 103.151 
200.108 138.299 103.81 165.045 154.929 104.425 165.826 156.192 104.122 
168.601 158.725 104.216 168.717 158.835 104.87 185.645 160.029 103.939 
180.324 162.657 103.446 184.974 162.298 103.117 182.21 163.311 102.694 
206.77 101.593 105.253 202.704 103.604 104.887 217.819 113.703 105.205 
218.913 117.008 104.894 219.354 120.452 104.468 219.236 121.363 104.498 
219.224 122.235 104.136 218.93 121.833 104.719 164.584 155.599 106.053 
165.407 156.707 106.14 166.252 157.369 105.388 182.792 160.26 105.172 
[...]
POINT_DATA 1585
COLOR_SCALARS scalars 3
0.0941176 0.501961 0.392157 0.0941176 0.501961 0.392157 0.0941176 0.501961 0.392157 
0.0941176 0.501961 0.392157 0.0941176 0.501961 0.392157 
0.0941176 0.501961 0.392157 0.0941176 0.501961 0.392157 
0.0941176 0.501961 0.392157 0.0941176 0.501961 0.392157 
0.0941176 0.501961 0.392157 0.0941176 0.501961 0.392157 
0.0941176 0.501961 0.392157 0.0941176 0.501961 0.392157 
0.0941176 0.501961 0.392157 0.0941176 0.501961 0.392157 
0.0941176 0.501961 0.392157 0.0941176 0.501961 0.392157 
0.0941176 0.501961 0.392157 0.0941176 0.501961 0.392157 
0.0941176 0.501961 0.392157 0.0941176 0.501961 0.392157 
0.0941176 0.501961 0.392157 0.0941176 0.501961 0.392157 
0.0941176 0.501961 0.392157 0.0941176 0.501961 0.392157 
0.0941176 0.501961 0.392157 0.0941176 0.501961 0.392157 
0.0941176 0.501961 0.392157 0.0941176 0.501961 0.392157 
0.0941176 0.501961 0.392157 0.0941176 0.501961 0.392157 
0.0941176 0.501961 0.392157 0.0941176 0.501961 0.392157 
0.0941176 0.501961 0.392157 0.0941176 0.501961 0.392157 
0.0941176 0.501961 0.392157 0.0941176 0.501961 0.392157 
0.0941176 0.501961 0.392157 0.0941176 0.501961 0.392157 
0.0941176 0.501961 0.392157 0.0941176 0.501961 0.392157 
0.0941176 0.501961 0.392157 0.0941176 0.501961 0.392157 
0.0941176 0.501961 0.392157 0.0941176 0.501961 0.392157 
0.0941176 0.501961 0.392157 0.0941176 0.501961 0.392157 
0.0941176 0.501961 0.392157 0.0941176 0.501961 0.392157 
0.0941176 0.501961 0.392157 0.0941176 0.501961 0.392157 
0.0941176 0.501961 0.392157 0.0941176 0.501961 0.392157 
0.0941176 0.501961 0.392157 0.0941176 0.501961 0.392157 
0.0941176 0.501961 0.392157 0.0941176 0.501961 0.392157 
0.0941176 0.501961 0.392157 0.0941176 0.501961 0.392157 
0.0941176 0.501961 0.392157 0.0941176 0.501961 0.392157 
0.0941176 0.501961 0.392157 0.0941176 0.501961 0.392157 
0.0941176 0.501961 0.392157 0.0941176 0.501961 0.392157 
0.0941176 0.501961 0.392157 0.0941176 0.501961 0.392157 
0.0941176 0.501961 0.392157 0.0941176 0.501961 0.392157 
0.0941176 0.501961 0.392157 0.0941176 0.501961 0.392157 
0.0941176 0.501961 0.392157 0.0941176 0.501961 0.392157 
0.0941176 0.501961 0.392157 0.0941176 0.501961 0.392157 
0.0941176 0.501961 0.392157 0.0941176 0.501961 0.392157 
0.0941176 0.501961 0.392157 0.0941176 0.501961 0.392157 
0.0941176 0.501961 0.392157 0.0941176 0.501961 0.392157 
0.0941176 0.501961 0.392157 0.0941176 0.501961 0.392157 
0.0941176 0.501961 0.392157 0.0941176 0.501961 0.392157 
0.0941176 0.501961 0.392157 0.0941176 0.501961 0.392157 
0.0941176 0.501961 0.392157 0.0941176 0.501961 0.392157 
0.0941176 0.501961 0.392157 0.0941176 0.501961 0.392157 
0.0941176 0.501961 0.392157 0.0941176 0.501961 0.392157 
0.0941176 0.501961 0.392157 0.0941176 0.501961 0.392157 
0.0941176 0.501961 0.392157 0.0941176 0.501961 0.392157 
0.0941176 0.501961 0.392157 0.0941176 0.501961 0.392157 
0.0941176 0.501961 0.392157 0.0941176 0.501961 0.392157 
0.0941176 0.501961 0.392157 0.0941176 0.501961 0.392157 
0.0941176 0.501961 0.392157 0.0941176 0.501961 0.392157 
0.0941176 0.501961 0.392157 0.0941176 0.501961 0.392157 
0.0941176 0.501961 0.392157 0.0941176 0.501961 0.392157 
0.0941176 0.501961 0.392157 0.0941176 0.501961 0.392157 
0.0941176 0.501961 0.392157 0.0941176 0.501961 0.392157 
0.0941176 0.501961 0.392157 0.0941176 0.501961 0.392157 
0.0941176 0.501961 0.392157 0.0941176 0.501961 0.392157 
0.0941176 0.501961 0.392157 0.0941176 0.501961 0.392157 
0.0941176 0.501961 0.392157 0.0941176 0.501961 0.392157 
0.0941176 0.501961 0.392157 0.0941176 0.501961 0.392157 
0.0941176 0.501961 0.392157 0.0941176 0.501961 0.392157 
0.0941176 0.501961 0.392157 0.0941176 0.501961 0.392157 
0.0941176 0.501961 0.392157 0.0941176 0.501961 0.392157 
0.0941176 0.501961 0.392157 0.0941176 0.501961 0.392157 
0.0941176 0.501961 0.392157 0.0941176 0.501961 0.392157 
0.0941176 0.501961 0.392157 0.0941176 0.501961 0.392157 
0.0941176 0.501961 0.392157 0.0941176 0.501961 0.392157 
0.0941176 0.501961 0.392157 0.0941176 0.501961 0.392157 
0.0941176 0.501961 0.392157 0.0941176 0.501961 0.392157 
0.0941176 0.501961 0.392157 0.0941176 0.501961 0.392157 
0.0941176 0.501961 0.392157 0.0941176 0.501961 0.392157 
0.0941176 0.501961 0.392157 0.0941176 0.501961 0.392157 
0.0941176 0.501961 0.392157 0.0941176 0.501961 0.392157 
0.0941176 0.501961 0.392157 0.0941176 0.501961 0.392157 
0.0941176 0.501961 0.392157 0.0941176 0.501961 0.392157 
0.0941176 0.501961 0.392157 0.0941176 0.501961 0.392157 
0.0941176 0.501961 0.392157 0.0941176 0.501961 0.392157 
0.0941176 0.501961 0.392157 0.0941176 0.501961 0.392157 
0.0941176 0.501961 0.392157 0.0941176 0.501961 0.392157 
0.0941176 0.501961 0.392157 0.0941176 0.501961 0.392157 
0.0941176 0.501961 0.392157 0.0941176 0.501961 0.392157 
0.0941176 0.501961 0.392157 0.0941176 0.501961 0.392157 
0.0941176 0.501961 0.392157 0.0941176 0.501961 0.392157 
0.0941176 0.501961 0.392157 0.0941176 0.501961 0.392157 
0.0941176 0.501961 0.392157 0.0941176 0.501961 0.392157 
0.0941176 0.501961 0.392157 0.0941176 0.501961 0.392157 
0.0941176 0.501961 0.392157 0.0941176 0.501961 0.392157 
0.0941176 0.501961 0.392157 0.0941176 0.501961 0.392157 
0.0941176 0.501961 0.392157 0.0941176 0.501961 0.392157 
0.0941176 0.501961 0.392157 0.0941176 0.501961 0.392157 
0.0941176 0.501961 0.392157 0.0941176 0.501961 0.392157 
0.0941176 0.501961 0.392157 0.0941176 0.501961 0.392157 
0.0941176 0.501961 0.392157 0.0941176 0.501961 0.392157 
0.0941176 0.501961 0.392157 0.0941176 0.501961 0.392157 
0.0941176 0.501961 0.392157 0.0941176 0.501961 0.392157 
0.0941176 0.501961 0.392157 0.0941176 0.501961 0.392157 
0.0941176 0.501961 0.392157 0.0941176 0.501961 0.392157 
0.0941176 0.501961 0.392157 0.0941176 0.501961 0.392157 
0.0941176 0.501961 0.392157 0.0941176 0.501961 0.392157 
0.0941176 0.501961 0.392157 0.0941176 0.501961 0.392157 
0.0941176 0.501961 0.392157 0.0941176 0.501961 0.392157 
0.0941176 0.501961 0.392157 0.0941176 0.501961 0.392157 
0.0941176 0.501961 0.392157 0.0941176 0.501961 0.392157 
0.0941176 0.501961 0.392157 0.0941176 0.501961 0.392157 
0.0941176 0.501961 0.392157 0.0941176 0.501961 0.392157 
0.0941176 0.501961 0.392157 0.0941176 0.501961 0.392157 
0.0941176 0.501961 0.392157 0.0941176 0.501961 0.392157 
0.0941176 0.501961 0.392157 0.0941176 0.501961 0.392157 
0.0941176 0.501961 0.392157 0.0941176 0.501961 0.392157 
0.0941176 0.501961 0.392157 0.0941176 0.501961 0.392157 
0.0941176 0.501961 0.392157 0.0941176 0.501961 0.392157 
0.0941176 0.501961 0.392157 0.0941176 0.501961 0.392157 
0.0941176 0.501961 0.392157 0.0941176 0.501961 0.392157 
0.0941176 0.501961 0.392157 0.0941176 0.501961 0.392157 
0.0941176 0.501961 0.392157 0.0941176 0.501961 0.392157 
0.0941176 0.501961 0.392157 0.0941176 0.501961 0.392157 
0.0941176 0.501961 0.392157 0.0941176 0.501961 0.392157 
0.0941176 0.501961 0.392157 0.0941176 0.501961 0.392157 
0.0941176 0.501961 0.392157 0.0941176 0.501961 0.392157 
0.0941176 0.501961 0.392157 0.0941176 0.501961 0.392157 
0.0941176 0.501961 0.392157 0.0941176 0.501961 0.392157 
0.0941176 0.501961 0.392157 0.0941176 0.501961 0.392157 
0.0941176 0.501961 0.392157 0.0941176 0.501961 0.392157 
0.0941176 0.501961 0.392157 0.0941176 0.501961 0.392157 
0.0941176 0.501961 0.392157 0.0941176 0.501961 0.392157 
0.0941176 0.501961 0.392157 0.0941176 0.501961 0.392157 
0.0941176 0.501961 0.392157 0.0941176 0.501961 0.392157 
0.0941176 0.501961 0.392157 0.0941176 0.501961 0.392157 
0.0941176 0.501961 0.392157 0.0941176 0.501961 0.392157 
0.0941176 0.501961 0.392157 0.0941176 0.501961 0.392157 
0.0941176 0.501961 0.392157 0.0941176 0.501961 0.392157 
0.0941176 0.501961 0.392157 0.0941176 0.501961 0.392157 
0.0941176 0.501961 0.392157 0.0941176 0.501961 0.392157 
0.0941176 0.501961 0.392157 0.0941176 0.501961 0.392157 
0.0941176 0.501961 0.392157 0.0941176 0.501961 0.392157 
0.0941176 0.501961 0.392157 0.0941176 0.501961 0.392157 
0.0941176 0.501961 0.392157 0.0941176 0.501961 0.392157 
0.0941176 0.501961 0.392157 0.0941176 0.501961 0.392157 
0.0941176 0.501961 0.392157 0.0941176 0.501961 0.392157 
0.0941176 0.501961 0.392157 0.0941176 0.501961 0.392157 
0.0941176 0.501961 0.392157 0.0941176 0.501961 0.392157 
0.0941176 0.501961 0.392157 0.0941176 0.501961 0.392157 
0.0941176 0.501961 0.392157 0.0941176 0.501961 0.392157 
0.0941176 0.501961 0.392157 0.0941176 0.501961 0.392157 
0.0941176 0.501961 0.392157 0.0941176 0.501961 0.392157 
0.0941176 0.501961 0.392157 0.0941176 0.501961 0.392157 
0.0941176 0.501961 0.392157 0.0941176 0.501961 0.392157 
0.0941176 0.501961 0.392157 0.0941176 0.501961 0.392157 
0.0941176 0.501961 0.392157 0.0941176 0.501961 0.392157 
0.0941176 0.501961 0.392157 0.0941176 0.501961 0.392157 
0.0941176 0.501961 0.392157 0.0941176 0.501961 0.392157 
0.0941176 0.501961 0.392157 0.0941176 0.501961 0.392157 
0.0941176 0.501961 0.392157 0.0941176 0.501961 0.392157 
0.0941176 0.501961 0.392157 0.0941176 0.501961 0.392157 
0.0941176 0.501961 0.392157 0.0941176 0.501961 0.392157 
0.0941176 0.501961 0.392157 0.0941176 0.501961 0.392157 
0.0941176 0.501961 0.392157 0.0941176 0.501961 0.392157 
0.0941176 0.501961 0.392157 0.0941176 0.501961 0.392157 
0.0941176 0.501961 0.392157 0.0941176 0.501961 0.392157 
0.0941176 0.501961 0.392157 0.0941176 0.501961 0.392157 
0.0941176 0.501961 0.392157 0.0941176 0.501961 0.392157 
0.0941176 0.501961 0.392157 0.0941176 0.501961 0.392157 
0.0941176 0.501961 0.392157 0.0941176 0.501961 0.392157 
0.0941176 0.501961 0.392157 0.0941176 0.501961 0.392157 
0.0941176 0.501961 0.392157 0.0941176 0.501961 0.392157 
0.0941176 0.501961 0.392157 0.0941176 0.501961 0.392157 
0.0941176 0.501961 0.392157 0.0941176 0.501961 0.392157 
0.0941176 0.501961 0.392157 0.0941176 0.501961 0.392157 
0.0941176 0.501961 0.392157 0.0941176 0.501961 0.392157 
0.0941176 0.501961 0.392157 0.0941176 0.501961 0.392157 
0.0941176 0.501961 0.392157 0.0941176 0.501961 0.392157 
0.0941176 0.501961 0.392157 0.0941176 0.501961 0.392157 
0.0941176 0.501961 0.392157 0.0941176 0.501961 0.392157 
0.0941176 0.501961 0.392157 0.0941176 0.501961 0.392157 
0.0941176 0.501961 0.392157 0.0941176 0.501961 0.392157 
0.0941176 0.501961 0.392157 0.0941176 0.501961 0.392157 
0.0941176 0.501961 0.392157 0.0941176 0.501961 0.392157 
0.0941176 0.501961 0.392157 0.0941176 0.501961 0.392157 
0.0941176 0.501961 0.392157 0.0941176 0.501961 0.392157 
0.0941176 0.501961 0.392157 0.0941176 0.501961 0.392157 
0.0941176 0.501961 0.392157 0.0941176 0.501961 0.392157 
0.0941176 0.501961 0.392157 0.0941176 0.501961 0.392157 
0.0941176 0.501961 0.392157 0.0941176 0.501961 0.392157 
0.0941176 0.501961 0.392157 0.0941176 0.501961 0.392157 
0.0941176 0.501961 0.392157 0.0941176 0.501961 0.392157 
0.0941176 0.501961 0.392157 0.0941176 0.501961 0.392157 
0.0941176 0.501961 0.392157 0.0941176 0.501961 0.392157 
0.0941176 0.501961 0.392157 0.0941176 0.501961 0.392157 
0.0941176 0.501961 0.392157 0.0941176 0.501961 0.392157 
0.0941176 0.501961 0.392157 0.0941176 0.501961 0.392157 
0.0941176 0.501961 0.392157 0.0941176 0.501961 0.392157 
0.0941176 0.501961 0.392157 0.0941176 0.501961 0.392157 
0.0941176 0.501961 0.392157 0.0941176 0.501961 0.392157 
0.0941176 0.501961 0.392157 0.0941176 0.501961 0.392157 
0.0941176 0.501961 0.392157 0.0941176 0.501961 0.392157 
0.0941176 0.501961 0.392157 0.0941176 0.501961 0.392157 
0.0941176 0.501961 0.392157 0.0941176 0.501961 0.392157 
0.0941176 0.501961 0.392157 0.0941176 0.501961 0.392157 
0.0941176 0.501961 0.392157 0.0941176 0.501961 0.392157 
0.0941176 0.501961 0.392157 0.0941176 0.501961 0.392157 
0.0941176 0.501961 0.392157 0.0941176 0.501961 0.392157 
0.0941176 0.501961 0.392157 0.0941176 0.501961 0.392157 
0.0941176 0.501961 0.392157 0.0941176 0.501961 0.392157 
0.0941176 0.501961 0.392157 0.0941176 0.501961 0.392157 
0.0941176 0.501961 0.392157 0.0941176 0.501961 0.392157 
0.0941176 0.501961 0.392157 0.0941176 0.501961 0.392157 
0.0941176 0.501961 0.392157 0.0941176 0.501961 0.392157 
0.0941176 0.501961 0.392157 0.0941176 0.501961 0.392157 
0.0941176 0.501961 0.392157 0.0941176 0.501961 0.392157 
0.0941176 0.501961 0.392157 0.0941176 0.501961 0.392157 
0.0941176 0.501961 0.392157 0.0941176 0.501961 0.392157 
0.0941176 0.501961 0.392157 0.0941176 0.501961 0.392157 
0.0941176 0.501961 0.392157 0.0941176 0.501961 0.392157 
0.0941176 0.501961 0.392157 0.0941176 0.501961 0.392157 
0.0941176 0.501961 0.392157 0.0941176 0.501961 0.392157 
0.0941176 0.501961 0.392157 0.0941176 0.501961 0.392157 
0.0941176 0.501961 0.392157 0.0941176 0.501961 0.392157 
0.0941176 0.501961 0.392157 0.0941176 0.501961 0.392157 
0.0941176 0.501961 0.392157 0.0941176 0.501961 0.392157 
0.0941176 0.501961 0.392157 0.0941176 0.501961 0.392157 
0.0941176 0.501961 0.392157 0.0941176 0.501961 0.392157 
0.0941176 0.501961 0.392157 0.0941176 0.501961 0.392157 
0.0941176 0.501961 0.392157 0.0941176 0.501961 0.392157 
0.0941176 0.501961 0.392157 0.0941176 0.501961 0.392157 
0.0941176 0.501961 0.392157 0.0941176 0.501961 0.392157 
0.0941176 0.501961 0.392157 0.0941176 0.501961 0.392157 
0.0941176 0.501961 0.392157 0.0941176 0.501961 0.392157 
0.0941176 0.501961 0.392157 0.0941176 0.501961 0.392157 
0.0941176 0.501961 0.392157 0.0941176 0.501961 0.392157 
0.0941176 0.501961 0.392157 0.0941176 0.501961 0.392157 
0.0941176 0.501961 0.392157 0.0941176 0.501961 0.392157 
0.0941176 0.501961 0.392157 0.0941176 0.501961 0.392157 
0.0941176 0.501961 0.392157 0.0941176 0.501961 0.392157 
0.0941176 0.501961 0.392157 0.0941176 0.501961 0.392157 
0.0941176 0.501961 0.392157 0.0941176 0.501961 0.392157 
0.0941176 0.501961 0.392157 0.0941176 0.501961 0.392157 
0.0941176 0.501961 0.392157 0.0941176 0.501961 0.392157 
0.0941176 0.501961 0.392157 0.0941176 0.501961 0.392157 
0.0941176 0.501961 0.392157 0.0941176 0.501961 0.392157 
0.0941176 0.501961 0.392157 0.0941176 0.501961 0.392157 
0.0941176 0.501961 0.392157 0.0941176 0.501961 0.392157 
0.0941176 0.501961 0.392157 0.0941176 0.501961 0.392157 
0.0941176 0.501961 0.392157 0.0941176 0.501961 0.392157 
0.0941176 0.501961 0.392157 0.0941176 0.501961 0.392157 
0.0941176 0.501961 0.392157 0.0941176 0.501961 0.392157 
0.0941176 0.501961 0.392157 0.0941176 0.501961 0.392157 
0.0941176 0.501961 0.392157 0.0941176 0.501961 0.392157 
0.0941176 0.501961 0.392157 0.0941176 0.501961 0.392157 
0.0941176 0.501961 0.392157 0.0941176 0.501961 0.392157 
0.0941176 0.501961 0.392157 0.0941176 0.501961 0.392157 
0.0941176 0.501961 0.392157 0.0941176 0.501961 0.392157 
0.0941176 0.501961 0.392157 0.0941176 0.501961 0.392157 
0.0941176 0.501961 0.392157 0.0941176 0.501961 0.392157 
0.0941176 0.501961 0.392157 0.0941176 0.501961 0.392157 
0.0941176 0.501961 0.392157 0.0941176 0.501961 0.392157 
0.0941176 0.501961 0.392157 0.0941176 0.501961 0.392157 
0.0941176 0.501961 0.392157 0.0941176 0.501961 0.392157 
0.0941176 0.501961 0.392157 0.0941176 0.501961 0.392157 
0.0941176 0.501961 0.392157 0.0941176 0.501961 0.392157 
0.0941176 0.501961 0.392157 0.0941176 0.501961 0.392157 
0.0941176 0.501961 0.392157 0.0941176 0.501961 0.392157 
0.0941176 0.501961 0.392157 0.0941176 0.501961 0.392157 
0.0941176 0.501961 0.392157 0.0941176 0.501961 0.392157 
0.0941176 0.501961 0.392157 0.0941176 0.501961 0.392157 
0.0941176 0.501961 0.392157 0.0941176 0.501961 0.392157 
0.0941176 0.501961 0.392157 0.0941176 0.501961 0.392157 
0.0941176 0.501961 0.392157 0.0941176 0.501961 0.392157 
0.0941176 0.501961 0.392157 0.0941176 0.501961 0.392157 
0.0941176 0.501961 0.392157 0.0941176 0.501961 0.392157 
0.0941176 0.501961 0.392157 0.0941176 0.501961 0.392157 
0.0941176 0.501961 0.392157 0.0941176 0.501961 0.392157 
0.0941176 0.501961 0.392157 0.0941176 0.501961 0.392157 
0.0941176 0.501961 0.392157 0.0941176 0.501961 0.392157 
0.0941176 0.501961 0.392157 0.0941176 0.501961 0.392157 
0.0941176 0.501961 0.392157 0.0941176 0.501961 0.392157 
0.0941176 0.501961 0.392157 0.0941176 0.501961 0.392157 
0.0941176 0.501961 0.392157 0.0941176 0.501961 0.392157 
0.0941176 0.501961 0.392157 0.0941176 0.501961 0.392157 
0.0941176 0.501961 0.392157 0.0941176 0.501961 0.392157 
0.0941176 0.501961 0.392157 0.0941176 0.501961 0.392157 
0.0941176 0.501961 0.392157 0.0941176 0.501961 0.392157 
0.0941176 0.501961 0.392157 0.0941176 0.501961 0.392157 
0.0941176 0.501961 0.392157 0.0941176 0.501961 0.392157 
0.0941176 0.501961 0.392157 0.0941176 0.501961 0.392157 
0.0941176 0.501961 0.392157 0.0941176 0.501961 0.392157 
0.0941176 0.501961 0.392157 0.0941176 0.501961 0.392157 
0.0941176 0.501961 0.392157 0.0941176 0.501961 0.392157 
0.0941176 0.501961 0.392157 0.0941176 0.501961 0.392157 
0.0941176 0.501961 0.392157 0.0941176 0.501961 0.392157 
0.0941176 0.501961 0.392157 0.0941176 0.501961 0.392157 
0.0941176 0.501961 0.392157 0.0941176 0.501961 0.392157 
0.0941176 0.501961 0.392157 0.0941176 0.501961 0.392157 
0.0941176 0.501961 0.392157 0.0941176 0.501961 0.392157 
0.0941176 0.501961 0.392157 0.0941176 0.501961 0.392157 
0.0941176 0.501961 0.392157 0.0941176 0.501961 0.392157 
0.0941176 0.501961 0.392157 0.0941176 0.501961 0.392157 
0.0941176 0.501961 0.392157 0.0941176 0.501961 0.392157 
0.0941176 0.501961 0.392157 0.0941176 0.501961 0.392157 
0.0941176 0.501961 0.392157 0.0941176 0.501961 0.392157 
0.0941176 0.501961 0.392157 0.0941176 0.501961 0.392157 
0.0941176 0.501961 0.392157 0.0941176 0.501961 0.392157 
0.0941176 0.501961 0.392157 0.0941176 0.501961 0.392157 
0.0941176 0.501961 0.392157 0.0941176 0.501961 0.392157 
0.0941176 0.501961 0.392157 0.0941176 0.501961 0.392157 
0.0941176 0.501961 0.392157 0.0941176 0.501961 0.392157 
0.0941176 0.501961 0.392157 0.0941176 0.501961 0.392157 
0.0941176 0.501961 0.392157 0.0941176 0.501961 0.392157 
0.0941176 0.501961 0.392157 0.0941176 0.501961 0.392157 
0.0941176 0.501961 0.392157 0.0941176 0.501961 0.392157 
0.0941176 0.501961 0.392157 0.0941176 0.501961 0.392157 
0.0941176 0.501961 0.392157 0.0941176 0.501961 0.392157 
0.0941176 0.501961 0.392157 0.0941176 0.501961 0.392157 
0.0941176 0.501961 0.392157 0.0941176 0.501961 0.392157 
0.0941176 0.501961 0.392157 0.0941176 0.501961 0.392157 
0.0941176 0.501961 0.392157 0.0941176 0.501961 0.392157 
0.0941176 0.501961 0.392157 0.0941176 0.501961 0.392157 
0.0941176 0.501961 0.392157 0.0941176 0.501961 0.392157 
0.0941176 0.501961 0.392157 0.0941176 0.501961 0.392157 
0.0941176 0.501961 0.392157 0.0941176 0.501961 0.392157 
0.0941176 0.501961 0.392157 0.0941176 0.501961 0.392157 
0.0941176 0.501961 0.392157 0.0941176 0.501961 0.392157 
0.0941176 0.501961 0.392157 0.0941176 0.501961 0.392157 
0.0941176 0.501961 0.392157 0.0941176 0.501961 0.392157 
0.0941176 0.501961 0.392157 0.0941176 0.501961 0.392157 
0.0941176 0.501961 0.392157 0.0941176 0.501961 0.392157 
0.0941176 0.501961 0.392157 0.0941176 0.501961 0.392157 
0.0941176 0.501961 0.392157 0.0941176 0.501961 0.392157 
0.0941176 0.501961 0.392157 0.0941176 0.501961 0.392157 
0.0941176 0.501961 0.392157 0.0941176 0.501961 0.392157 
0.0941176 0.501961 0.392157 0.0941176 0.501961 0.392157 
0.0941176 0.501961 0.392157 0.0941176 0.501961 0.392157 
0.0941176 0.501961 0.392157 0.0941176 0.501961 0.392157 
0.0941176 0.501961 0.392157 0.0941176 0.501961 0.392157 
0.0941176 0.501961 0.392157 0.0941176 0.501961 0.392157 
0.0941176 0.501961 0.392157 0.0941176 0.501961 0.392157 
0.0941176 0.501961 0.392157 0.0941176 0.501961 0.392157 
0.0941176 0.501961 0.392157 0.0941176 0.501961 0.392157 
0.0941176 0.501961 0.392157 0.0941176 0.501961 0.392157 
0.0941176 0.501961 0.392157 0.0941176 0.501961 0.392157 
0.0941176 0.501961 0.392157 0.0941176 0.501961 0.392157 
0.0941176 0.501961 0.392157 0.0941176 0.501961 0.392157 
0.0941176 0.501961 0.392157 0.0941176 0.501961 0.392157 
0.0941176 0.501961 0.392157 0.0941176 0.501961 0.392157 
0.0941176 0.501961 0.392157 0.0941176 0.501961 0.392157 
0.0941176 0.501961 0.392157 0.0941176 0.501961 0.392157 
0.0941176 0.501961 0.392157 0.0941176 0.501961 0.392157 
0.0941176 0.501961 0.392157 0.0941176 0.501961 0.392157 
0.0941176 0.501961 0.392157 0.0941176 0.501961 0.392157 