# vtk DataFile Version 4.2
vtk output
ASCII
DATASET POLYDATA
POINTS 989 float
247.892 64.7566 145.393 247.003 65.5108 145.222 248.425 65.4384 145.043 
248.213 66.3054 144.894 251.879 62.8501 146.108 252.597 64.0348 145.629 
252.527 64.4709 145.533 241.604 67.6537 146.294 248.2 66.9707 144.904 
242.639 68.4635 145.889 256.011 60.4679 147.411 253.472 61.3408 147.208 
246.646 64.2129 146.36 252.79 66.9457 145.589 240.798 67.8942 146.747 
252.01 68.7938 145.724 256.892 59.2174 148.33 258.165 58.9948 148.244 
259.437 59.4619 147.987 256.89 60.7633 147.354 252.832 61.01 147.752 
258.407 61.7493 147.328 239.757 67.559 147.693 238.511 68.4435 148.124 
240.34 68.9485 147.021 242.754 72.5184 147.369 252.462 72.0056 147.006 
251.787 72.9472 147.38 252.614 60.6492 148.361 259.367 65.453 147.913 
238.239 69.6783 148.291 254.501 71.7908 147.925 246.505 74.5009 147.65 
252.102 73.9673 148.439 247.983 75.6421 148.5 249.236 75.6373 148.82 
264.661 55.8316 150.722 263.224 56.3715 150.301 264.068 57.9418 149.651 
250.024 61.5557 148.505 259.152 67.1613 148.317 237.142 68.5719 149.186 
258.79 68.0695 148.476 235.291 69.2635 150.157 235.42 69.7448 149.951 
258.218 69.6342 148.976 258.547 69.9928 149.684 258.279 70.3503 149.831 
252.774 74.2855 149.414 246.488 76.6118 149.513 249.072 76.2455 149.62 
267 54.0087 150.017 267 54.0087 150.017 267 54.0087 150.017 
267 54.0087 150.017 267 54.0088 150.017 265.94 58.3029 150.332 
265.008 59.2795 149.813 264.882 60.9877 149.859 236.464 68.2358 149.869 
261.733 66.9865 150.508 233.542 69.6548 151.071 235.314 70.2761 150.011 
243.78 75.9252 149.304 249.212 76.3715 150.072 265.353 55.2367 152.013 
267 54.0087 150.017 263.077 55.4986 151.201 266.391 57.1512 150.997 
266.864 56.4946 151.943 266.665 57.8287 150.925 267.564 57.4382 151.742 
252.014 59.8493 150.319 267.611 59.6306 151.61 266.986 61.4749 151.552 
266.225 62.9863 151.747 264.678 64.3948 151.291 235.137 67.7395 151.42 
232.724 70.3619 151.399 231.996 69.8704 151.982 233.755 71.1965 150.874 
258.965 70.0673 151.262 255.794 72.5344 150.789 243.803 76.7987 150.194 
244.596 77.609 151.179 245.422 77.6427 151.48 244.68 77.7842 151.408 
268.606 59.8098 153.07 266.16 63.4942 152.237 235.858 66.8678 152.058 
230.82 70.9652 152.261 229.803 71.2088 152.652 230.881 71.5481 152.155 
231.287 72.0534 152.044 234.195 72.3519 151.046 231.755 72.7493 152.04 
234.615 73.2329 151.269 212 78.0087 152.017 212 78.0087 152.017 
212 78.0088 152.017 212 78.0088 152.017 247.919 77.1308 151.841 
212 78.0088 152.017 243.215 78.1532 152.238 244.707 77.8388 151.629 
268.782 59.1763 153.546 268.509 60.6608 153.314 225.504 71.9843 154.127 
227.452 71.9469 153.47 223.134 73.5143 153.925 223.434 72.9189 154.205 
225.906 73.3715 153.435 227.215 73.5348 153.194 234.244 73.78 151.651 
228.048 74.0141 153.107 231.929 74.1934 152.465 221.246 75.3132 153.595 
223.498 74.6719 153.521 234.848 75.4069 152.283 219.073 76.2805 153.581 
220.841 75.9049 153.516 214.766 78.3938 153.778 214.457 78.5952 153.857 
216.019 77.6334 153.705 215.542 77.5232 154.032 216.639 77.5985 153.557 
247.475 77.2558 153.049 212 78.0087 152.017 214.399 78.9477 153.667 
214.058 79.253 153.732 213.883 79.4779 153.62 214.292 79.3426 153.559 
216.162 78.6999 153.454 213.857 79.5685 153.556 213.806 79.6419 153.595 
215.759 79.3821 153.495 213.778 79.7512 153.566 214.251 79.983 153.722 
216.113 79.8442 153.576 213.781 79.7759 153.543 264.657 54.0251 154.636 
264.837 54.0075 155.085 266.724 55.4363 154.346 266.814 63.1591 153.893 
225.752 70.9766 154.929 219.218 74.6822 154.368 218.764 74.7758 154.538 
217.362 75.4722 154.746 215.588 77.2345 154.478 214.655 78.2639 154.238 
214.295 78.866 154.115 214.16 79.2921 154.015 218.958 79.0653 153.547 
245.284 78.005 154.182 213.916 79.771 153.681 214.168 79.8375 153.987 
214.412 80.392 154.082 214.523 80.4608 153.929 214.58 80.7445 154.193 
214.561 80.6619 154.064 214.801 80.7606 154.033 215.389 80.9234 154.036 
215.743 81.7375 154.51 264.518 53.8338 155.493 268.683 58.8546 154.909 
268.355 61.209 155.399 257.814 70.1131 155.241 225.069 70.8446 155.583 
223.935 71.4884 155.468 217.041 75.5789 155.149 216.622 75.9656 154.986 
217.402 75.2794 155.088 215.792 76.9415 154.849 214.999 78.3086 154.956 
214.953 78.8774 155.131 235.654 79.026 154.381 236.254 79.6966 154.957 
215.054 80.531 155.254 215.131 81.3213 154.672 215.817 82.5028 155.251 
216.295 82.6823 154.839 256.592 55.8036 155.718 224.632 70.6571 156.388 
218.263 74.65 155.384 217.895 74.8714 155.557 215.727 77.2939 155.459 
215.563 77.6784 155.496 231.005 80.1772 155.307 236.752 80.4381 155.966 
235.146 81.1727 156.781 216.128 83.2322 156.192 216.539 85.0656 156.06 
216.652 85.5739 156.144 218.739 86.2135 156.078 216.734 85.7811 156.117 
216.837 85.9586 156.169 217.626 86.4868 156.505 216.937 86.0332 156.17 
268.56 60.4069 155.791 217.679 75.1 155.975 216.115 81.1785 156.636 
237.83 80.5107 156.885 232.201 82.4057 157.71 216.794 85.8487 156.251 
217.046 85.9721 156.503 217.439 86.2282 156.998 217.982 87.2892 157.148 
218.304 87.4313 156.867 218.337 87.9893 157.198 218.687 88.053 157.088 
218.378 88.3736 157.379 218.373 88.4767 157.501 219.663 88.3045 157.2 
218.49 88.6359 157.48 218.732 88.8898 157.572 219.197 88.8456 157.602 
264.95 54.1372 157.789 267.135 61.8592 157.653 221.033 72.4388 157.482 
217.782 75.2768 156.682 239.511 79.9653 157.835 218.355 87.3196 157.908 
221.358 87.7683 157.679 222.871 87.075 158.292 218.513 88.7315 157.624 
220.999 88.0507 157.749 218.67 89.1011 157.76 218.869 89.1934 157.741 
219.167 88.9995 157.858 220.087 88.5413 157.851 218.708 89.3583 157.812 
218.775 89.3849 157.805 218.726 89.4248 157.813 265.996 55.4284 159.13 
234.947 81.668 158.565 219.628 87.8178 158.54 221.425 87.6454 158.51 
219.152 88.7065 158.052 219.622 88.3097 158.308 220.565 88.3049 158.071 
219.692 88.635 158.053 231.529 65.8301 160.541 226.916 68.0525 161.016 
225.247 69.2492 160.651 235.529 81.1635 160.962 226.343 85.299 160.752 
263.62 53.8458 162.019 266.14 60.7767 162.149 229.125 83.71 161.869 
266.07 57.4019 163.005 224.007 82.6796 162.553 228.417 83.7908 162.202 
224.975 83.6782 162.469 225.66 84.3797 162.051 226.971 84.0308 162.356 
225.155 84.2375 162.114 263.971 54.3515 163.449 264.513 55.0729 163.803 
266.069 58.6896 163.717 266.296 59.3256 163.061 265.523 60.4564 164.092 
229.585 66.0785 163.497 227.275 67.7928 163.897 225.947 69.036 163.249 
226.757 68.2058 163.392 225.258 82.3459 163.321 227.564 83.4797 162.924 
234.557 63.0758 164.749 229.442 66.111 164.012 229.095 66.3406 164.334 
227.388 67.7264 164.399 227.266 68.1301 164.589 226.975 68.9454 164.808 
231.358 81.8307 163.988 259.904 52.4448 165.468 257.978 52.4633 166.179 
265.125 56.8551 165.373 265.42 58.4663 165.665 264.569 60.7926 166.364 
263.591 62.0846 166.194 233.868 63.1816 165.705 231.472 64.6888 165.931 
232.131 64.2527 165.829 260.848 64.3395 166.217 229.056 66.4254 164.837 
228.789 66.7693 165.175 227.461 70.2161 165.936 228.533 81.3604 164.954 
265.045 57.9156 166.726 265.004 59.6942 166.695 263.801 61.577 166.91 
233.494 63.1862 167.272 232.675 63.7911 166.485 230.938 65.1535 166.68 
229.588 66.4598 166.425 228.604 67.7806 166.211 259.859 52.1569 168.089 
259.908 52.2228 168.29 259.251 52.1077 167.877 260.711 52.6362 167.742 
230.233 65.8959 167.001 258.287 51.9282 169.068 257.237 52.0429 168.875 
264.606 58.475 168.07 232.816 63.8899 168.682 233.656 63.168 168.721 
232.061 64.5229 168.168 230.701 65.9647 167.724 255.274 52.1268 170.157 
260.662 53.4097 170.404 232.378 64.9886 169.137 232.319 65.6762 169.431 
241.236 75.9647 169.436 258.766 51.985 169.674 234.816 62.6447 170.386 
234.144 66.0409 171.208 238.982 76.2282 170.477 262.971 57.7616 171.47 
238.284 59.4696 171.72 237.012 60.4913 171.209 235.653 62.0382 171.21 
262.619 60.0518 171.884 235.129 63.822 171.711 236.183 71.7827 172.323 
261.357 55.8196 172.803 261.8 61.0872 172.463 235.921 67.0683 172.589 
243.306 73.8091 172.411 257.285 52.0473 173.617 243.491 55.9925 173.603 
260.624 55.7825 174.077 239.875 58.2679 173.195 239.551 58.6732 173.822 
262.104 59.1454 173.516 237.963 72.0029 173.335 242.559 73.6404 173.16 
241.791 73.7073 173.264 254.278 51.5489 175.164 243.285 56.0264 174.121 
239.859 58.53 174.775 239.726 58.6258 174.663 238.892 59.5933 173.87 
239.429 59.2369 174.485 238.773 64.06 174.822 239.98 66.8933 175.368 
239.976 73.4154 173.5 242.463 73.0396 173.986 243.091 56.1812 175.638 
242.457 56.7352 175.513 240.127 58.5214 175.077 240.542 58.3151 175.342 
241.005 69.9705 175.352 248.975 69.396 175.568 245.059 71.12 175.419 
243.418 72.4376 174.517 242.99 72.3712 174.646 252.828 51.498 177.326 
250.882 51.8931 176.237 251.542 51.5788 177.246 257.235 53.1584 176.214 
244.344 69.7635 176.531 244.107 70.8485 175.818 245.647 70.5124 175.993 
242.43 71.5032 175.236 243.214 71.3618 175.45 254.122 51.7453 177.507 
254.551 51.9749 177.769 254.96 52.1813 177.709 243.994 55.7147 177.083 
243.064 56.709 176.8 242.885 57.2418 177.068 243.086 57.5429 177.49 
259.588 57.8248 177.573 243.336 59.1632 178.074 259.9 59.2011 177.58 
259.301 61.1533 177.516 244.288 66.0653 177.918 244.678 67.6012 177.635 
245.377 70.3006 176.235 243.859 71.4128 175.572 252.113 51.571 178.9 
248.856 52.4003 178.22 254.555 52.2267 178.265 245.802 54.4402 178.69 
246.832 53.5705 178.5 245.179 55.0648 178.561 244.591 56.1052 178.524 
244.738 57.0439 178.95 257.417 56.2657 179.207 244.693 57.882 179.004 
259.487 59.7845 178.165 246.217 67.5913 178.032 245.493 68.6691 177.358 
247.044 67.6075 178.175 251.344 51.663 179.813 253.383 51.9682 178.997 
253.136 52.13 179.509 249.237 52.3251 179.258 257.679 61.6663 179.377 
257.586 61.3239 179.839 247.726 65.426 179.546 248.916 67.1399 178.566 
251.5 51.6472 180.138 251.47 51.6331 180.242 251.314 51.7184 180.237 
251.577 51.6495 180.2 250.149 51.8956 179.539 251.848 51.7938 180.036 
252.566 52.0411 179.842 248.951 52.9027 180.039 252.963 52.4551 180.027 
248.364 53.748 180.348 247.605 54.9392 180.464 257.795 58.9413 180.262 
[...]
POINT_DATA 989
COLOR_SCALARS scalars 3
0.0941176 0.501961 0.392157 0.0941176 0.501961 0.392157 0.0941176 0.501961 0.392157 
0.0941176 0.501961 0.392157 0.0941176 0.501961 0.392157 
0.0941176 0.501961 0.392157 0.0941176 0.501961 0.392157 
0.0941176 0.501961 0.392157 0.0941176 0.501961 0.392157 
0.0941176 0.501961 0.392157 0.0941176 0.501961 0.392157 
0.0941176 0.501961 0.392157 0.0941176 0.501961 0.392157 
0.0941176 0.501961 0.392157 0.0941176 0.501961 0.392157 
0.0941176 0.501961 0.392157 0.0941176 0.501961 0.392157 
0.0941176 0.501961 0.392157 0.0941176 0.501961 0.392157 
0.0941176 0.501961 0.392157 0.0941176 0.501961 0.392157 
0.0941176 0.501961 0.392157 0.0941176 0.501961 0.392157 
0.0941176 0.501961 0.392157 0.0941176 0.501961 0.392157 
0.0941176 0.501961 0.392157 0.0941176 0.501961 0.392157 
0.0941176 0.501961 0.392157 0.0941176 0.501961 0.392157 
0.0941176 0.501961 0.392157 0.0941176 0.501961 0.392157 
0.0941176 0.501961 0.392157 0.0941176 0.501961 0.392157 
0.0941176 0.501961 0.392157 0.0941176 0.501961 0.392157 
0.0941176 0.501961 0.392157 0.0941176 0.501961 0.392157 
0.0941176 0.501961 0.392157 0.0941176 0.501961 0.392157 
0.0941176 0.501961 0.392157 0.0941176 0.501961 0.392157 
0.0941176 0.501961 0.392157 0.0941176 0.501961 0.392157 
0.0941176 0.501961 0.392157 0.0941176 0.501961 0.392157 
0.0941176 0.501961 0.392157 0.0941176 0.501961 0.392157 
0.0941176 0.501961 0.392157 0.0941176 0.501961 0.392157 
0.0941176 0.501961 0.392157 0.0941176 0.501961 0.392157 
0.0941176 0.501961 0.392157 0.0941176 0.501961 0.392157 
0.0941176 0.501961 0.392157 0.0941176 0.501961 0.392157 
0.0941176 0.501961 0.392157 0.0941176 0.501961 0.392157 
0.0941176 0.501961 0.392157 0.0941176 0.501961 0.392157 
0.0941176 0.501961 0.392157 0.0941176 0.501961 0.392157 
0.0941176 0.501961 0.392157 0.0941176 0.501961 0.392157 
0.0941176 0.501961 0.392157 0.0941176 0.501961 0.392157 
0.0941176 0.501961 0.392157 0.0941176 0.501961 0.392157 
0.0941176 0.501961 0.392157 0.0941176 0.501961 0.392157 
0.0941176 0.501961 0.392157 0.0941176 0.501961 0.392157 
0.0941176 0.501961 0.392157 0.0941176 0.501961 0.392157 
0.0941176 0.501961 0.392157 0.0941176 0.501961 0.392157 
0.0941176 0.501961 0.392157 0.0941176 0.501961 0.392157 
0.0941176 0.501961 0.392157 0.0941176 0.501961 0.392157 
0.0941176 0.501961 0.392157 0.0941176 0.501961 0.392157 
0.0941176 0.501961 0.392157 0.0941176 0.501961 0.392157 
0.0941176 0.501961 0.392157 0.0941176 0.501961 0.392157 
0.0941176 0.501961 0.392157 0.0941176 0.501961 0.392157 
0.0941176 0.501961 0.392157 0.0941176 0.501961 0.392157 
0.0941176 0.501961 0.392157 0.0941176 0.501961 0.392157 
0.0941176 0.501961 0.392157 0.0941176 0.501961 0.392157 
0.0941176 0.501961 0.392157 0.0941176 0.501961 0.392157 
0.0941176 0.501961 0.392157 0.0941176 0.501961 0.392157 
0.0941176 0.501961 0.392157 0.0941176 0.501961 0.392157 
0.0941176 0.501961 0.392157 0.0941176 0.501961 0.392157 
0.0941176 0.501961 0.392157 0.0941176 0.501961 0.392157 
0.0941176 0.501961 0.392157 0.0941176 0.501961 0.392157 
0.0941176 0.501961 0.392157 0.0941176 0.501961 0.392157 
0.0941176 0.501961 0.392157 0.0941176 0.501961 0.392157 
0.0941176 0.501961 0.392157 0.0941176 0.501961 0.392157 
0.0941176 0.501961 0.392157 0.0941176 0.501961 0.392157 
0.0941176 0.501961 0.392157 0.0941176 0.501961 0.392157 
0.0941176 0.501961 0.392157 0.0941176 0.501961 0.392157 
0.0941176 0.501961 0.392157 0.0941176 0.501961 0.392157 
0.0941176 0.501961 0.392157 0.0941176 0.501961 0.392157 
0.0941176 0.501961 0.392157 0.0941176 0.501961 0.392157 
0.0941176 0.501961 0.392157 0.0941176 0.501961 0.392157 
0.0941176 0.501961 0.392157 0.0941176 0.501961 0.392157 
0.0941176 0.501961 0.392157 0.0941176 0.501961 0.392157 
0.0941176 0.501961 0.392157 0.0941176 0.501961 0.392157 
0.0941176 0.501961 0.392157 0.0941176 0.501961 0.392157 
0.0941176 0.501961 0.392157 0.0941176 0.501961 0.392157 
0.0941176 0.501961 0.392157 0.0941176 0.501961 0.392157 
0.0941176 0.501961 0.392157 0.0941176 0.501961 0.392157 
0.0941176 0.501961 0.392157 0.0941176 0.501961 0.392157 
0.0941176 0.501961 0.392157 0.0941176 0.501961 0.392157 
0.0941176 0.501961 0.392157 0.0941176 0.501961 0.392157 
0.0941176 0.501961 0.392157 0.0941176 0.501961 0.392157 
0.0941176 0.501961 0.392157 0.0941176 0.501961 0.392157 
0.0941176 0.501961 0.392157 0.0941176 0.501961 0.392157 
0.0941176 0.501961 0.392157 0.0941176 0.501961 0.392157 
0.0941176 0.501961 0.392157 0.0941176 0.501961 0.392157 
0.0941176 0.501961 0.392157 0.0941176 0.501961 0.392157 
0.0941176 0.501961 0.392157 0.0941176 0.501961 0.392157 
0.0941176 0.501961 0.392157 0.0941176 0.501961 0.392157 
0.0941176 0.501961 0.392157 0.0941176 0.501961 0.392157 
0.0941176 0.501961 0.392157 0.0941176 0.501961 0.392157 
0.0941176 0.501961 0.392157 0.0941176 0.501961 0.392157 
0.0941176 0.501961 0.392157 0.0941176 0.501961 0.392157 
0.0941176 0.501961 0.392157 0.0941176 0.501961 0.392157 
0.0941176 0.501961 0.392157 0.0941176 0.501961 0.392157 
0.0941176 0.501961 0.392157 0.0941176 0.501961 0.392157 
0.0941176 0.501961 0.392157 0.0941176 0.501961 0.392157 
0.0941176 0.501961 0.392157 0.0941176 0.501961 0.392157 
0.0941176 0.501961 0.392157 0.0941176 0.501961 0.392157 
0.0941176 0.501961 0.392157 0.0941176 0.501961 0.392157 
0.0941176 0.501961 0.392157 0.0941176 0.501961 0.392157 
0.0941176 0.501961 0.392157 0.0941176 0.501961 0.392157 
0.0941176 0.501961 0.392157 0.0941176 0.501961 0.392157 
0.0941176 0.501961 0.392157 0.0941176 0.501961 0.392157 
0.0941176 0.501961 0.392157 0.0941176 0.501961 0.392157 
0.0941176 0.501961 0.392157 0.0941176 0.501961 0.392157 
0.0941176 0.501961 0.392157 0.0941176 0.501961 0.392157 
0.0941176 0.501961 0.392157 0.0941176 0.501961 0.392157 
0.0941176 0.501961 0.392157 0.0941176 0.501961 0.392157 
0.0941176 0.501961 0.392157 0.0941176 0.501961 0.392157 
0.0941176 0.501961 0.392157 0.0941176 0.501961 0.392157 
0.0941176 0.501961 0.392157 0.0941176 0.501961 0.392157 
0.0941176 0.501961 0.392157 0.0941176 0.501961 0.392157 
0.0941176 0.501961 0.392157 0.0941176 0.501961 0.392157 
0.0941176 0.501961 0.392157 0.0941176 0.501961 0.392157 
0.0941176 0.501961 0.392157 0.0941176 0.501961 0.392157 
0.0941176 0.501961 0.392157 0.0941176 0.501961 0.392157 
0.0941176 0.501961 0.392157 0.0941176 0.501961 0.392157 
0.0941176 0.501961 0.392157 0.0941176 0.501961 0.392157 
0.0941176 0.501961 0.392157 0.0941176 0.501961 0.392157 
0.0941176 0.501961 0.392157 0.0941176 0.501961 0.392157 
0.0941176 0.501961 0.392157 0.0941176 0.501961 0.392157 
0.0941176 0.501961 0.392157 0.0941176 0.501961 0.392157 
0.0941176 0.501961 0.392157 0.0941176 0.501961 0.392157 
0.0941176 0.501961 0.392157 0.0941176 0.501961 0.392157 
0.0941176 0.501961 0.392157 0.0941176 0.501961 0.392157 
0.0941176 0.501961 0.392157 0.0941176 0.501961 0.392157 
0.0941176 0.501961 0.392157 0.0941176 0.501961 0.392157 
0.0941176 0.501961 0.392157 0.0941176 0.501961 0.392157 
0.0941176 0.501961 0.392157 0.0941176 0.501961 0.392157 
0.0941176 0.501961 0.392157 0.0941176 0.501961 0.392157 
0.0941176 0.501961 0.392157 0.0941176 0.501961 0.392157 
0.0941176 0.501961 0.392157 0.0941176 0.501961 0.392157 
0.0941176 0.501961 0.392157 0.0941176 0.501961 0.392157 
0.0941176 0.501961 0.392157 0.0941176 0.501961 0.392157 
0.0941176 0.501961 0.392157 0.0941176 0.501961 0.392157 
0.0941176 0.501961 0.392157 0.0941176 0.501961 0.392157 
0.0941176 0.501961 0.392157 0.0941176 0.501961 0.392157 
0.0941176 0.501961 0.392157 0.0941176 0.501961 0.392157 
0.0941176 0.501961 0.392157 0.0941176 0.501961 0.392157 
0.0941176 0.501961 0.392157 0.0941176 0.501961 0.392157 
0.0941176 0.501961 0.392157 0.0941176 0.501961 0.392157 
0.0941176 0.501961 0.392157 0.0941176 0.501961 0.392157 
0.0941176 0.501961 0.392157 0.0941176 0.501961 0.392157 
0.0941176 0.501961 0.392157 0.0941176 0.501961 0.392157 
0.0941176 0.501961 0.392157 0.0941176 0.501961 0.392157 
0.0941176 0.501961 0.392157 0.0941176 0.501961 0.392157 
0.0941176 0.501961 0.392157 0.0941176 0.501961 0.392157 
0.0941176 0.501961 0.392157 0.0941176 0.501961 0.392157 
0.0941176 0.501961 0.392157 0.0941176 0.501961 0.392157 
0.0941176 0.501961 0.392157 0.0941176 0.501961 0.392157 
0.0941176 0.501961 0.392157 0.0941176 0.501961 0.392157 
0.0941176 0.501961 0.392157 0.0941176 0.501961 0.392157 
0.0941176 0.501961 0.392157 0.0941176 0.501961 0.392157 
0.0941176 0.501961 0.392157 0.0941176 0.501961 0.392157 
0.0941176 0.501961 0.392157 0.0941176 0.501961 0.392157 
0.0941176 0.501961 0.392157 0.0941176 0.501961 0.392157 
0.0941176 0.501961 0.392157 0.0941176 0.501961 0.392157 
0.0941176 0.501961 0.392157 0.0941176 0.501961 0.392157 
0.0941176 0.501961 0.392157 0.0941176 0.501961 0.392157 
0.0941176 0.501961 0.392157 0.0941176 0.501961 0.392157 
0.0941176 0.501961 0.392157 0.0941176 0.501961 0.392157 
0.0941176 0.501961 0.392157 0.0941176 0.501961 0.392157 
0.0941176 0.501961 0.392157 0.0941176 0.501961 0.392157 
0.0941176 0.501961 0.392157 0.0941176 0.501961 0.392157 
0.0941176 0.501961 0.392157 0.0941176 0.501961 0.392157 
0.0941176 0.501961 0.392157 0.0941176 0.501961 0.392157 
0.0941176 0.501961 0.392157 0.0941176 0.501961 0.392157 
0.0941176 0.501961 0.392157 0.0941176 0.501961 0.392157 
0.0941176 0.501961 0.392157 0.0941176 0.501961 0.392157 
0.0941176 0.501961 0.392157 0.0941176 0.501961 0.392157 
0.0941176 0.501961 0.392157 0.0941176 0.501961 0.392157 
0.0941176 0.501961 0.392157 0.0941176 0.501961 0.392157 
0.0941176 0.501961 0.392157 0.0941176 0.501961 0.392157 
0.0941176 0.501961 0.392157 0.0941176 0.501961 0.392157 
0.0941176 0.501961 0.392157 0.0941176 0.501961 0.392157 
0.0941176 0.501961 0.392157 0.0941176 0.501961 0.392157 
0.0941176 0.501961 0.392157 0.0941176 0.501961 0.392157 
0.0941176 0.501961 0.392157 0.0941176 0.501961 0.392157 
0.0941176 0.501961 0.392157 0.0941176 0.501961 0.392157 
0.0941176 0.501961 0.392157 0.0941176 0.501961 0.392157 
0.0941176 0.501961 0.392157 0.0941176 0.501961 0.392157 
0.0941176 0.501961 0.392157 0.0941176 0.501961 0.392157 
0.0941176 0.501961 0.392157 0.0941176 0.501961 0.392157 
0.0941176 0.501961 0.392157 0.0941176 0.501961 0.392157 
0.0941176 0.501961 0.392157 0.0941176 0.501961 0.392157 
0.0941176 0.501961 0.392157 0.0941176 0.501961 0.392157 
0.0941176 0.501961 0.392157 0.0941176 0.501961 0.392157 
0.0941176 0.501961 0.392157 0.0941176 0.501961 0.392157 
0.0941176 0.501961 0.392157 0.0941176 0.501961 0.392157 
0.0941176 0.501961 0.392157 0.0941176 0.501961 0.392157 
0.0941176 0.501961 0.392157 0.0941176 0.501961 0.392157 
0.0941176 0.501961 0.392157 0.0941176 0.501961 0.392157 
0.0941176 0.501961 0.392157 0.0941176 0.501961 0.392157 
0.0941176 0.501961 0.392157 0.0941176 0.501961 0.392157 
0.0941176 0.501961 0.392157 0.0941176 0.501961 0.392157 
0.0941176 0.501961 0.392157 0.0941176 0.501961 0.392157 
0.0941176 0.501961 0.392157 0.0941176 0.501961 0.392157 
0.0941176 0.501961 0.392157 0.0941176 0.501961 0.392157 
0.0941176 0.501961 0.392157 0.0941176 0.501961 0.392157 
0.0941176 0.501961 0.392157 0.0941176 0.501961 0.392157 
0.0941176 0.501961 0.392157 0.0941176 0.501961 0.392157 
0.0941176 0.501961 0.392157 0.0941176 0.501961 0.392157 
0.0941176 0.501961 0.392157 0.0941176 0.501961 0.392157 
0.0941176 0.501961 0.392157 0.0941176 0.501961 0.392157 
0.0941176 0.501961 0.392157 0.0941176 0.501961 0.392157 
0.0941176 0.501961 0.392157 0.0941176 0.501961 0.392157 
0.0941176 0.501961 0.392157 0.0941176 0.501961 0.392157 
0.0941176 0.501961 0.392157 0.0941176 0.501961 0.392157 
0.0941176 0.501961 0.392157 0.0941176 0.501961 0.392157 
0.0941176 0.501961 0.392157 0.0941176 0.501961 0.392157 
0.0941176 0.501961 0.392157 0.0941176 0.501961 0.392157 
0.0941176 0.501961 0.392157 0.0941176 0.501961 0.392157 
0.0941176 0.501961 0.392157 0.0941176 0.501961 0.392157 
0.0941176 0.501961 0.392157 0.0941176 0.501961 0.392157 
0.0941176 0.501961 0.392157 0.0941176 0.501961 0.392157 
0.0941176 0.501961 0.392157 0.0941176 0.501961 0.392157 
0.0941176 0.501961 0.392157 0.0941176 0.501961 0.392157 
0.0941176 0.501961 0.392157 0.0941176 0.501961 0.392157 
0.0941176 0.501961 0.392157 0.0941176 0.501961 0.392157 
0.0941176 0.501961 0.392157 0.0941176 0.501961 0.392157 
0.0941176 0.501961 0.392157 0.0941176 0.501961 0.392157 
0.0941176 0.501961 0.392157 0.0941176 0.501961 0.392157 
0.0941176 0.501961 0.392157 0.0941176 0.501961 0.392157 
0.0941176 0.501961 0.392157 0.0941176 0.501961 0.392157 
0.0941176 0.501961 0.392157 0.0941176 0.501961 0.392157 
0.0941176 0.501961 0.392157 0.0941176 0.501961 0.392157 
0.0941176 0.501961 0.392157 0.0941176 0.501961 0.392157 
0.0941176 0.501961 0.392157 0.0941176 0.501961 0.392157 
0.0941176 0.501961 0.392157 0.0941176 0.501961 0.392157 
0.0941176 0.501961 0.392157 0.0941176 0.501961 0.392157 
0.0941176 0.501961 0.392157 0.0941176 0.501961 0.392157 
0.0941176 0.501961 0.392157 0.0941176 0.501961 0.392157 
0.0941176 0.501961 0.392157 0.0941176 0.501961 0.392157 
0.0941176 0.501961 0.392157 0.0941176 0.501961 0.392157 
0.0941176 0.501961 0.392157 0.0941176 0.501961 0.392157 
0.0941176 0.501961 0.392157 0.0941176 0.501961 0.392157 
0.0941176 0.501961 0.392157 0.0941176 0.501961 0.392157 
0.0941176 0.501961 0.392157 0.0941176 0.501961 0.392157 
0.0941176 0.501961 0.392157 0.0941176 0.501961 0.392157 
0.0941176 0.501961 0.392157 0.0941176 0.501961 0.392157 
0.0941176 0.501961 0.392157 0.0941176 0.501961 0.392157 
0.0941176 0.501961 0.392157 0.0941176 0.501961 0.392157 
0.0941176 0.501961 0.392157 0.0941176 0.501961 0.392157 
0.0941176 0.501961 0.392157 0.0941176 0.501961 0.392157 
0.0941176 0.501961 0.392157 0.0941176 0.501961 0.392157 
0.0941176 0.501961 0.392157 0.0941176 0.501961 0.392157 
0.0941176 0.501961 0.392157 0.0941176 0.501961 0.392157 
0.0941176 0.501961 0.392157 0.0941176 0.501961 0.392157 
0.0941176 0.501961 0.392157 0.0941176 0.501961 0.392157 
0.0941176 0.501961 0.392157 0.0941176 0.501961 0.392157 
0.0941176 0.501961 0.392157 0.0941176 0.501961 0.392157 
0.0941176 0.501961 0.392157 0.0941176 0.501961 0.392157 
0.0941176 0.501961 0.392157 0.0941176 0.501961 0.392157 
0.0941176 0.501961 0.392157 0.0941176 0.501961 0.392157 
0.0941176 0.501961 0.392157 0.0941176 0.501961 0.392157 
0.0941176 0.501961 0.392157 0.0941176 0.501961 0.392157 
0.0941176 0.501961 0.392157 0.0941176 0.501961 0.392157 
0.0941176 0.501961 0.392157 0.0941176 0.501961 0.392157 
0.0941176 0.501961 0.392157 0.0941176 0.501961 0.392157 
0.0941176 0.501961 0.392157 0.0941176 0.501961 0.392157 
0.0941176 0.501961 0.392157 0.0941176 0.501961 0.392157 
0.0941176 0.501961 0.392157 0.0941176 0.501961 0.392157 
0.0941176 0.501961 0.392157 0.0941176 0.501961 0.392157 
0.0941176 0.501961 0.392157 0.0941176 0.501961 0.392157 
0.0941176 0.501961 0.392157 0.0941176 0.501961 0.392157 
0.0941176 0.501961 0.392157 0.0941176 0.501961 0.392157 
0.0941176 0.501961 0.392157 0.0941176 0.501961 0.392157 
0.0941176 0.501961 0.392157 0.0941176 0.501961 0.392157 
0.0941176 0.501961 0.392157 0.0941176 0.501961 0.392157 
0.0941176 0.501961 0.392157 0.0941176 0.501961 0.392157 
0.0941176 0.501961 0.392157 0.0941176 0.501961 0.392157 
0.0941176 0.501961 0.392157 0.0941176 0.501961 0.392157 
0.0941176 0.501961 0.392157 0.0941176 0.501961 0.392157 
0.0941176 0.501961 0.392157 0.0941176 0.501961 0.392157 
0.0941176 0.501961 0.392157 0.0941176 0.501961 0.392157 
0.0941176 0.501961 0.392157 0.0941176 0.501961 0.392157 
0.0941176 0.501961 0.392157 0.0941176 0.501961 0.392157 
0.0941176 0.501961 0.392157 0.0941176 0.501961 0.392157 
0.0941176 0.501961 0.392157 0.0941176 0.501961 0.392157 
0.0941176 0.501961 0.392157 0.0941176 0.501961 0.392157 
0.0941176 0.501961 0.392157 0.0941176 0.501961 0.392157 
0.0941176 0.501961 0.392157 0.0941176 0.501961 0.392157 
0.0941176 0.501961 0.392157 0.0941176 0.501961 0.392157 
0.0941176 0.501961 0.392157 0.0941176 0.501961 0.392157 
0.0941176 0.501961 0.392157 0.0941176 0.501961 0.392157 
0.0941176 0.501961 0.392157 0.0941176 0.501961 0.392157 
0.0941176 0.501961 0.392157 0.0941176 0.501961 0.392157 
0.0941176 0.501961 0.392157 0.0941176 0.501961 0.392157 
0.0941176 0.501961 0.392157 0.0941176 0.501961 0.392157 
0.0941176 0.501961 0.392157 0.0941176 0.501961 0.392157 
0.0941176 0.501961 0.392157 0.0941176 0.501961 0.392157 
0.0941176 0.501961 0.392157 0.0941176 0.501961 0.392157 
0.0941176 0.501961 0.392157 0.0941176 0.501961 0.392157 
0.0941176 0.501961 0.392157 0.0941176 0.501961 0.392157 
0.0941176 0.501961 0.392157 0.0941176 0.501961 0.392157 
0.0941176 0.501961 0.392157 0.0941176 0.501961 0.392157 
0.0941176 0.501961 0.392157 0.0941176 0.501961 0.392157 
0.0941176 0.501961 0.392157 0.0941176 0.501961 0.392157 
0.0941176 0.501961 0.392157 0.0941176 0.501961 0.392157 
0.0941176 0.501961 0.392157 0.0941176 0.501961 0.392157 
0.0941176 0.501961 0.392157 0.0941176 0.501961 0.392157 
0.0941176 0.501961 0.392157 0.0941176 0.501961 0.392157 
0.0941176 0.501961 0.392157 0.0941176 0.501961 0.392157 
0.0941176 0.501961 0.392157 0.0941176 0.501961 0.392157 
0.0941176 0.501961 0.392157 0.0941176 0.501961 0.392157 
0.0941176 0.501961 0.392157 0.0941176 0.501961 0.392157 
0.0941176 0.501961 0.392157 0.0941176 0.501961 0.392157 
0.0941176 0.501961 0.392157 0.0941176 0.501961 0.392157 
0.0941176 0.501961 0.392157 0.0941176 0.501961 0.392157 
0.0941176 0.501961 0.392157 0.0941176 0.501961 0.392157 
0.0941176 0.501961 0.392157 0.0941176 0.501961 0.392157 
0.0941176 0.501961 0.392157 0.0941176 0.501961 0.392157 
0.0941176 0.501961 0.392157 0.0941176 0.501961 0.392157 
0.0941176 0.501961 0.392157 0.0941176 0.501961 0.392157 
0.0941176 0.501961 0.392157 0.0941176 0.501961 0.392157 
0.0941176 0.501961 0.392157 0.0941176 0.501961 0.392157 
0.0941176 0.501961 0.392157 0.0941176 0.501961 0.392157 
0.0941176 0.501961 0.392157 0.0941176 0.501961 0.392157 
0.0941176 0.501961 0.392157 0.0941176 0.501961 0.392157 
0.0941176 0.501961 0.392157 0.0941176 0.501961 0.392157 
0.0941176 0.501961 0.392157 0.0941176 0.501961 0.392157 
0.0941176 0.501961 0.392157 0.0941176 0.501961 0.392157 
0.0941176 0.501961 0.392157 0.0941176 0.501961 0.392157 
0.0941176 0.501961 0.392157 0.0941176 0.501961 0.392157 
0.0941176 0.501961 0.392157 0.0941176 0.501961 0.392157 
0.0941176 0.501961 0.392157 0.0941176 0.501961 0.392157 
0.0941176 0.501961 0.392157 0.0941176 0.501961 0.392157 
0.0941176 0.501961 0.392157 0.0941176 0.501961 0.392157 
0.0941176 0.501961 0.392157 0.0941176 0.501961 0.392157 
0.0941176 0.501961 0.392157 0.0941176 0.501961 0.392157 
0.0941176 0.501961 0.392157 0.0941176 0.501961 0.392157 
0.0941176 0.501961 0.392157 0.0941176 0.501961 0.392157 
0.0941176 0.501961 0.392157 0.0941176 0.501961 0.392157 
0.0941176 0.501961 0.392157 0.0941176 0.501961 0.392157 
0.0941176 0.501961 0.392157 0.0941176 0.501961 0.392157 
0.0941176 0.501961 0.392157 0.0941176 0.501961 0.392157 
0.0941176 0.501961 0.392157 0.0941176 0.501961 0.392157 
0.0941176 0.501961 0.392157 0.0941176 0.501961 0.392157 
0.0941176 0.501961 0.392157 0.0941176 0.501961 0.392157 
0.0941176 0.501961 0.392157 0.0941176 0.501961 0.392157 
0.0941176 0.501961 0.392157 0.0941176 0.501961 0.392157 
0.0941176 0.501961 0.392157 0.0941176 0.501961 0.392157 
0.0941176 0.501961 0.392157 0.0941176 0.501961 0.392157 
0.0941176 0.501961 0.392157 0.0941176 0.501961 0.392157 
0.0941176 0.501961 0.392157 0.0941176 0.501961 0.392157 
0.0941176 0.501961 0.392157 0.0941176 0.501961 0.392157 
0.0941176 0.501961 0.392157 0.0941176 0.501961 0.392157 
0.0941176 0.501961 0.392157 0.0941176 0.501961 0.392157 
0.0941176 0.501961 0.392157 0.0941176 0.501961 0.392157 
0.0941176 0.501961 0.392157 0.0941176 0.501961 0.392157 
0.0941176 0.501961 0.392157 0.0941176 0.501961 0.392157 
0.0941176 0.501961 0.392157 0.0941176 0.501961 0.392157 
0.0941176 0.501961 0.392157 0.0941176 0.501961 0.392157 
0.0941176 0.501961 0.392157 0.0941176 0.501961 0.392157 
0.0941176 0.501961 0.392157 0.0941176 0.501961 0.392157 
0.0941176 0.501961 0.392157 0.0941176 0.501961 0.392157 
0.0941176 0.501961 0.392157 0.0941176 0.501961 0.392157 