# vtk DataFile Version 4.2
vtk output
ASCII
DATASET POLYDATA
POINTS 4628 float
276.263 144.524 26.2991 275.85 144.591 26.1452 276.22 145.706 26.404 
276.564 145.348 26.6129 275.621 146.745 26.4719 275.976 146.771 26.6699 
276.219 139.178 27.2188 276.221 140.224 27.0351 275.056 141.228 26.4354 
275.868 142.309 26.4893 277.011 141.457 27.3964 277.182 142.845 27.2845 
275.524 143.84 26.1642 276.836 144.306 26.7724 274.679 144.856 25.9716 
276.908 144.87 26.908 272.497 146.113 26.1392 274.608 146.328 26.1625 
271.604 148.715 26.672 272.839 148.236 26.5788 272.106 148.884 26.7664 
270.592 150.5 27.2801 270.504 150.278 27.1826 270.337 150.709 27.407 
272.161 149.391 27.1065 270.775 150.296 27.2386 270.722 150.633 27.431 
275.575 133.792 28.4368 274.482 134.777 27.6933 274.034 136.39 27.2806 
275.568 136.04 27.8109 276.233 135.644 28.3337 274.776 138.214 26.9903 
274.579 139.006 26.7696 272.398 141.277 26.4338 277.342 142.172 27.5737 
277.549 142.732 27.7979 272.471 143.506 26.1594 268.461 145.283 26.7477 
276.273 147.298 27.5177 266.477 149.431 27.0434 273.562 149.044 27.2492 
267.234 151.059 27.2015 269.85 150.237 27.1534 271.781 150.099 27.5124 
272.761 149.902 27.7784 268.471 151.288 27.403 270.181 151.65 28.1005 
264.942 153.466 27.816 266.419 153.839 28.2784 267.779 153.255 28.309 
265.45 154.372 28.4541 274.99 130.578 28.9665 275.228 129.795 29.392 
273.436 131.596 28.2304 275.173 132.052 28.6994 275.03 133.089 28.3344 
276.647 135.39 28.7511 271.718 136.732 27.2802 277.731 136.851 29.324 
277.718 136.855 29.3357 277.739 136.858 29.3203 277.732 136.848 29.3415 
276.628 138.232 27.8536 277.73 136.855 29.35 270.685 138.68 27.1074 
268.742 141.659 27.0619 277.846 141.401 28.5588 265.643 142.488 27.6367 
277.629 145.96 28.9022 274.812 149.113 28.2865 272.84 150.421 28.3934 
263.84 151.694 27.5261 263.643 152.607 27.6648 263.014 153.77 27.9656 
260.639 156.33 28.6641 260.032 156.443 28.636 258.62 158.393 29.2856 
260.995 157.247 29.2908 273.858 126.653 29.5828 273.066 127.466 29.2319 
274.935 127.253 29.8594 275.251 126.873 30.2114 274.916 128.077 29.6488 
271.295 129.281 28.8283 273.407 129.795 28.6488 271.806 131.604 28.2514 
268.962 134.872 28.0783 277.043 135.101 29.3964 277.687 136.824 29.3719 
277.659 136.844 29.3456 277.717 136.825 29.4281 277.688 136.865 29.4091 
260.012 143.683 28.7757 278.154 144.395 29.6001 276.672 147.645 28.7183 
273.072 150.648 28.9231 260.543 151.615 28.0341 271.123 151.921 28.98 
268.984 153.515 29.3541 258.868 154.626 28.3684 253.75 157.624 29.0666 
258.986 157.424 29.0152 256.845 158.484 29.1818 257.877 158.142 29.1503 
258.197 159.443 29.9879 254.573 160.369 29.5655 251.643 161.176 29.5989 
252.849 161.531 29.7913 253.496 162.147 30.3349 255.184 161.445 30.4091 
252.504 162.737 30.4374 274.211 123.608 30.701 274.386 124.37 30.5355 
275.198 125.638 30.5879 268.895 126.745 29.8193 275.632 126.678 30.7404 
275.873 127.754 30.7735 262.8 133.543 29.7048 277.334 134.943 30.0725 
277.626 136.039 30.1326 277.496 136.814 29.3338 277.676 136.694 29.6133 
277.717 136.839 29.5802 277.697 136.988 29.6039 277.778 137.603 29.849 
277.958 138.842 29.8476 278.006 146.18 30.4471 276.829 148.166 30.2079 
273.237 151.05 29.861 269.315 153.797 30.3064 264.221 156.405 30.1449 
260.061 158.66 30.2691 257.494 160.34 30.5027 256.211 161.17 30.6353 
246.831 162.489 30.2137 249.103 162.691 30.1199 254.54 162.405 31.1475 
255.778 161.532 30.8031 247.266 163.68 30.429 249.584 163.08 30.2812 
247.784 164.089 30.5834 252.232 163.438 31.0792 248.568 164.733 31.0375 
249.985 164.299 31.1312 274.399 118.776 32.3356 273.709 120.231 31.5632 
271.331 121.457 30.9427 273.308 121.92 30.9241 274.832 121.699 31.8058 
272.565 122.734 30.5497 275.684 123.876 31.7638 255.595 139.214 30.489 
278.491 144.926 31.0418 276.008 149.239 30.5929 270.807 153.002 30.7568 
249.877 155.456 29.8908 263.794 157.285 31.3979 243.847 159.653 30.7651 
259.223 159.791 31.0003 245.126 162.792 30.4817 245.765 164.204 30.703 
251.525 164.279 31.9173 242.958 165.723 31.2566 245.759 165.023 31.0511 
240.735 166.252 31.4576 244.51 166.275 31.6463 240.53 167.562 31.9511 
244.481 166.953 32.0999 241.128 167.817 32.0908 241.448 168.207 32.45 
273.819 115.994 32.8755 274.16 117.308 32.6501 272.816 118.091 31.9938 
273.424 118.081 32.1024 270.896 120.063 31.3995 275.662 122.822 32.1521 
263.134 126.737 31.1748 278.92 143.718 32.2297 277.951 147.458 32.2917 
277.274 148.521 32.4035 258.368 160.876 32.0846 250.042 165.204 32.2333 
237.167 167.891 32.2765 245.501 167.322 32.8587 238.874 168.264 32.3774 
242.691 168.15 32.7419 236.533 168.828 32.5995 237.179 169.678 33.0529 
237.727 169.867 33.257 240.063 169.28 33.2274 274.056 113.62 33.714 
274.384 112.946 34.1057 273.047 113.687 33.4045 274.64 114.823 33.7638 
272.494 116.61 32.4068 275.287 117.908 33.4448 265.78 118.797 32.8016 
275.833 120.932 33.2006 276.018 122.296 32.9532 276.069 122.901 32.788 
256.674 129.772 32.1054 277.342 130.469 32.6008 252.438 133.241 32.4635 
251.539 133.286 32.6888 278.681 146.345 33.2071 263.622 157.88 32.6939 
259.177 160.785 33.1428 233.342 164.321 32.695 235.952 163.827 32.1604 
253.081 163.978 32.6779 253.505 163.927 33.1062 251.618 164.916 33.1809 
233.47 168.18 32.7813 245.501 167.622 33.3065 235.48 168.11 32.4872 
234.021 169.471 33.0676 231.345 170.75 33.7581 234.831 170.015 33.2992 
231.903 171.127 33.8919 231.563 171.859 34.4401 232.638 171.745 34.3818 
235.995 171.04 34.1798 274.079 110.24 34.7905 274.614 110.275 35.0459 
273.32 110.824 34.3963 274.268 111.547 34.4675 272.893 112.124 33.92 
273.486 112.167 33.9874 270.268 113.109 33.7128 276.232 121.933 33.5812 
279.211 141.162 34.0866 278.342 147.669 34.189 277.441 148.917 33.9289 
272.898 152.314 33.1713 247.632 166.965 33.8178 230.132 167.764 33.3744 
245.729 167.734 33.7122 242.068 169.302 34.3607 229.052 170.667 34.0754 
237.223 171.132 34.8143 228.821 171.977 34.6791 228.541 172.698 35.2768 
232.339 172.35 35.0587 229.163 172.886 35.4338 274.985 107.878 35.8785 
272.579 108.712 35.0943 273.616 109.341 34.9684 274.263 109.389 35.1583 
270.346 110.244 34.759 272.831 109.991 34.646 262.171 117.093 34.2504 
276.01 117.319 34.7303 279.416 145.406 35.3209 232.464 150.362 34.3274 
226.876 157.7 34.7829 223.888 166.554 34.8779 227.577 169.362 34.0749 
224.215 171.88 35.3584 226.704 172.088 35.1017 227.514 171.84 34.8258 
232.924 172.469 35.4228 223.965 173.111 35.9384 223.478 173.322 36.1688 
223.684 173.755 36.5014 224.701 173.725 36.387 227.531 173.28 36.0571 
275.147 105.889 36.5181 274.099 105.689 36.3003 275.703 106.381 36.7163 
271.297 107.262 35.7835 275.631 109.69 36.0023 266.748 109.675 35.7739 
276.045 114.418 35.5676 253.047 121.894 35.1885 279.713 144.629 36.1445 
270.264 154.684 36.1927 221.28 171.056 35.8932 236.695 171.72 35.8057 
221.466 173.419 36.7831 229.978 173.34 36.1936 222.172 173.702 36.8206 
221.756 173.941 37.1724 223.665 174.158 37.0461 276.443 102.913 37.78 
275.903 102.67 37.649 275.267 102.842 37.4619 277.184 103.002 38.181 
276.929 104.078 37.9835 276.257 106.609 37.1211 276.539 109.752 37.2618 
276.462 111.802 36.9655 240.393 128.463 36.7233 278.008 128.667 36.5137 
233.718 139.364 35.7352 279.629 141.148 36.1215 225.657 149.513 35.9893 
277.894 149.396 37.268 218.947 158.671 36.8141 258.442 162.048 36.3116 
220.719 162.698 35.9863 251.307 166.015 36.7643 218.276 169.21 36.6151 
243.758 169.436 37.0338 236.002 172.284 37.147 217.377 173.701 37.7908 
230.49 173.649 37.1168 228.22 174.013 37.4468 217.622 174.696 38.4412 
218.668 174.693 38.272 219.497 174.687 38.2937 221.743 174.432 37.8267 
218.204 174.906 38.5597 277.717 100.381 38.9985 274.661 100.94 38.1232 
277.248 101.338 38.5467 272.297 102.248 37.783 276.914 105.715 37.899 
276.957 108.26 37.9905 276.782 111.1 37.7712 276.836 114.104 37.7274 
227.278 138.086 37.5558 278.497 148.92 38.013 276.393 151.034 38.2888 
216.721 171.564 37.3504 233.464 173.132 37.6294 215.438 174.293 38.8023 
227.219 174.475 38.4538 216.107 174.585 38.8103 215.691 174.776 39.1671 
279.553 97.31 40.2527 278.255 98.5819 39.5274 278.145 98.0575 39.602 
276.926 99.0655 39.0252 278.627 98.9043 39.7126 277.154 106.747 38.2412 
277.463 107.94 39.0296 256.34 109.183 38.6405 222.504 140.14 38.3011 
279.538 147.919 39.5694 217.096 149.903 38.23 269.811 155.456 38.6006 
212.309 169.213 38.6312 213.036 172.757 38.9155 236.958 172.305 38.9267 
212.462 173.779 39.5757 213.248 174.705 39.9411 219.016 175.292 39.0852 
219.398 175.405 39.4057 223.037 175.08 39.2291 213.679 175.132 40.3322 
215.621 175.189 39.7958 279.049 95.6315 40.4974 277.733 95.9432 40.2158 
275.082 98.0089 39.3984 279.236 98.316 40.1519 270.481 99.0913 39.7178 
278.73 100.499 39.8304 252.361 109.271 39.6767 218.069 141.678 39.2241 
279.984 147.331 40.3503 269.641 155.849 40.0395 210.255 159.306 39.6017 
209.534 163.355 39.6494 209.444 169.363 39.781 209.701 171.978 40.0333 
210.603 174.431 40.858 212.073 174.715 40.5008 214.466 175.493 40.6969 
282.488 92.4443 42.387 281.322 93.8712 41.7736 281.207 93.2606 41.8192 
282.475 92.6764 42.4381 279.758 94.4882 41.0575 281.647 94.193 41.9711 
281.129 95.0913 41.5989 281.624 94.839 41.9915 280.632 96.7687 41.101 
260.98 103.12 40.0538 243.873 114.63 40.102 220.776 132.62 40.7575 
280.82 145.029 41.3149 245.646 169.309 41.4636 208.877 173.441 40.9696 
209.634 173.254 40.5304 231.207 174.123 40.8228 209.267 174.756 41.799 
217.776 175.813 41.0023 220.475 175.723 41.5991 283.824 90.3508 43.2481 
282.908 91.5616 42.7956 279.958 92.208 41.8574 281.955 92.6333 42.2068 
275.544 93.2558 41.725 281.866 96.0853 42.461 280.07 101.613 42.018 
279.989 102.431 42.3413 215.371 136.032 41.4354 280.349 138.729 40.9387 
209.189 146.89 41.243 278.626 149.9 41.2683 206.144 173.262 42.1339 
209.824 175.634 42.9869 210.621 175.681 42.7662 284.295 88.3207 43.7731 
285.296 88.2049 44.2423 283.198 90.5063 43.0537 278.572 90.3689 42.8021 
283.6 91.3476 43.2452 282.633 95.1218 43.1508 262.386 97.1125 42.7105 
223.209 125.264 42.4354 209.56 139.169 42.6877 281.058 146.28 43.6845 
[...]
POINT_DATA 4628
COLOR_SCALARS scalars 3
0.0941176 0.501961 0.392157 0.0941176 0.501961 0.392157 0.0941176 0.501961 0.392157 
0.0941176 0.501961 0.392157 0.0941176 0.501961 0.392157 
0.0941176 0.501961 0.392157 0.0941176 0.501961 0.392157 
0.0941176 0.501961 0.392157 0.0941176 0.501961 0.392157 
0.0941176 0.501961 0.392157 0.0941176 0.501961 0.392157 
0.0941176 0.501961 0.392157 0.0941176 0.501961 0.392157 
0.0941176 0.501961 0.392157 0.0941176 0.501961 0.392157 
0.0941176 0.501961 0.392157 0.0941176 0.501961 0.392157 
0.0941176 0.501961 0.392157 0.0941176 0.501961 0.392157 
0.0941176 0.501961 0.392157 0.0941176 0.501961 0.392157 
0.0941176 0.501961 0.392157 0.0941176 0.501961 0.392157 
0.0941176 0.501961 0.392157 0.0941176 0.501961 0.392157 
0.0941176 0.501961 0.392157 0.0941176 0.501961 0.392157 
0.0941176 0.501961 0.392157 0.0941176 0.501961 0.392157 
0.0941176 0.501961 0.392157 0.0941176 0.501961 0.392157 
0.0941176 0.501961 0.392157 0.0941176 0.501961 0.392157 
0.0941176 0.501961 0.392157 0.0941176 0.501961 0.392157 
0.0941176 0.501961 0.392157 0.0941176 0.501961 0.392157 
0.0941176 0.501961 0.392157 0.0941176 0.501961 0.392157 
0.0941176 0.501961 0.392157 0.0941176 0.501961 0.392157 
0.0941176 0.501961 0.392157 0.0941176 0.501961 0.392157 
0.0941176 0.501961 0.392157 0.0941176 0.501961 0.392157 
0.0941176 0.501961 0.392157 0.0941176 0.501961 0.392157 
0.0941176 0.501961 0.392157 0.0941176 0.501961 0.392157 
0.0941176 0.501961 0.392157 0.0941176 0.501961 0.392157 
0.0941176 0.501961 0.392157 0.0941176 0.501961 0.392157 
0.0941176 0.501961 0.392157 0.0941176 0.501961 0.392157 
0.0941176 0.501961 0.392157 0.0941176 0.501961 0.392157 
0.0941176 0.501961 0.392157 0.0941176 0.501961 0.392157 
0.0941176 0.501961 0.392157 0.0941176 0.501961 0.392157 
0.0941176 0.501961 0.392157 0.0941176 0.501961 0.392157 
0.0941176 0.501961 0.392157 0.0941176 0.501961 0.392157 
0.0941176 0.501961 0.392157 0.0941176 0.501961 0.392157 
0.0941176 0.501961 0.392157 0.0941176 0.501961 0.392157 
0.0941176 0.501961 0.392157 0.0941176 0.501961 0.392157 
0.0941176 0.501961 0.392157 0.0941176 0.501961 0.392157 
0.0941176 0.501961 0.392157 0.0941176 0.501961 0.392157 
0.0941176 0.501961 0.392157 0.0941176 0.501961 0.392157 
0.0941176 0.501961 0.392157 0.0941176 0.501961 0.392157 
0.0941176 0.501961 0.392157 0.0941176 0.501961 0.392157 
0.0941176 0.501961 0.392157 0.0941176 0.501961 0.392157 
0.0941176 0.501961 0.392157 0.0941176 0.501961 0.392157 
0.0941176 0.501961 0.392157 0.0941176 0.501961 0.392157 
0.0941176 0.501961 0.392157 0.0941176 0.501961 0.392157 
0.0941176 0.501961 0.392157 0.0941176 0.501961 0.392157 
0.0941176 0.501961 0.392157 0.0941176 0.501961 0.392157 
0.0941176 0.501961 0.392157 0.0941176 0.501961 0.392157 
0.0941176 0.501961 0.392157 0.0941176 0.501961 0.392157 
0.0941176 0.501961 0.392157 0.0941176 0.501961 0.392157 
0.0941176 0.501961 0.392157 0.0941176 0.501961 0.392157 
0.0941176 0.501961 0.392157 0.0941176 0.501961 0.392157 
0.0941176 0.501961 0.392157 0.0941176 0.501961 0.392157 
0.0941176 0.501961 0.392157 0.0941176 0.501961 0.392157 
0.0941176 0.501961 0.392157 0.0941176 0.501961 0.392157 
0.0941176 0.501961 0.392157 0.0941176 0.501961 0.392157 
0.0941176 0.501961 0.392157 0.0941176 0.501961 0.392157 
0.0941176 0.501961 0.392157 0.0941176 0.501961 0.392157 
0.0941176 0.501961 0.392157 0.0941176 0.501961 0.392157 
0.0941176 0.501961 0.392157 0.0941176 0.501961 0.392157 
0.0941176 0.501961 0.392157 0.0941176 0.501961 0.392157 
0.0941176 0.501961 0.392157 0.0941176 0.501961 0.392157 
0.0941176 0.501961 0.392157 0.0941176 0.501961 0.392157 
0.0941176 0.501961 0.392157 0.0941176 0.501961 0.392157 
0.0941176 0.501961 0.392157 0.0941176 0.501961 0.392157 
0.0941176 0.501961 0.392157 0.0941176 0.501961 0.392157 
0.0941176 0.501961 0.392157 0.0941176 0.501961 0.392157 
0.0941176 0.501961 0.392157 0.0941176 0.501961 0.392157 
0.0941176 0.501961 0.392157 0.0941176 0.501961 0.392157 
0.0941176 0.501961 0.392157 0.0941176 0.501961 0.392157 
0.0941176 0.501961 0.392157 0.0941176 0.501961 0.392157 
0.0941176 0.501961 0.392157 0.0941176 0.501961 0.392157 
0.0941176 0.501961 0.392157 0.0941176 0.501961 0.392157 
0.0941176 0.501961 0.392157 0.0941176 0.501961 0.392157 
0.0941176 0.501961 0.392157 0.0941176 0.501961 0.392157 
0.0941176 0.501961 0.392157 0.0941176 0.501961 0.392157 
0.0941176 0.501961 0.392157 0.0941176 0.501961 0.392157 
0.0941176 0.501961 0.392157 0.0941176 0.501961 0.392157 
0.0941176 0.501961 0.392157 0.0941176 0.501961 0.392157 
0.0941176 0.501961 0.392157 0.0941176 0.501961 0.392157 
0.0941176 0.501961 0.392157 0.0941176 0.501961 0.392157 
0.0941176 0.501961 0.392157 0.0941176 0.501961 0.392157 
0.0941176 0.501961 0.392157 0.0941176 0.501961 0.392157 
0.0941176 0.501961 0.392157 0.0941176 0.501961 0.392157 
0.0941176 0.501961 0.392157 0.0941176 0.501961 0.392157 
0.0941176 0.501961 0.392157 0.0941176 0.501961 0.392157 
0.0941176 0.501961 0.392157 0.0941176 0.501961 0.392157 
0.0941176 0.501961 0.392157 0.0941176 0.501961 0.392157 
0.0941176 0.501961 0.392157 0.0941176 0.501961 0.392157 
0.0941176 0.501961 0.392157 0.0941176 0.501961 0.392157 
0.0941176 0.501961 0.392157 0.0941176 0.501961 0.392157 
0.0941176 0.501961 0.392157 0.0941176 0.501961 0.392157 
0.0941176 0.501961 0.392157 0.0941176 0.501961 0.392157 
0.0941176 0.501961 0.392157 0.0941176 0.501961 0.392157 
0.0941176 0.501961 0.392157 0.0941176 0.501961 0.392157 
0.0941176 0.501961 0.392157 0.0941176 0.501961 0.392157 
0.0941176 0.501961 0.392157 0.0941176 0.501961 0.392157 
0.0941176 0.501961 0.392157 0.0941176 0.501961 0.392157 
0.0941176 0.501961 0.392157 0.0941176 0.501961 0.392157 
0.0941176 0.501961 0.392157 0.0941176 0.501961 0.392157 
0.0941176 0.501961 0.392157 0.0941176 0.501961 0.392157 
0.0941176 0.501961 0.392157 0.0941176 0.501961 0.392157 
0.0941176 0.501961 0.392157 0.0941176 0.501961 0.392157 
0.0941176 0.501961 0.392157 0.0941176 0.501961 0.392157 
0.0941176 0.501961 0.392157 0.0941176 0.501961 0.392157 
0.0941176 0.501961 0.392157 0.0941176 0.501961 0.392157 
0.0941176 0.501961 0.392157 0.0941176 0.501961 0.392157 
0.0941176 0.501961 0.392157 0.0941176 0.501961 0.392157 
0.0941176 0.501961 0.392157 0.0941176 0.501961 0.392157 
0.0941176 0.501961 0.392157 0.0941176 0.501961 0.392157 
0.0941176 0.501961 0.392157 0.0941176 0.501961 0.392157 
0.0941176 0.501961 0.392157 0.0941176 0.501961 0.392157 
0.0941176 0.501961 0.392157 0.0941176 0.501961 0.392157 
0.0941176 0.501961 0.392157 0.0941176 0.501961 0.392157 
0.0941176 0.501961 0.392157 0.0941176 0.501961 0.392157 
0.0941176 0.501961 0.392157 0.0941176 0.501961 0.392157 
0.0941176 0.501961 0.392157 0.0941176 0.501961 0.392157 
0.0941176 0.501961 0.392157 0.0941176 0.501961 0.392157 
0.0941176 0.501961 0.392157 0.0941176 0.501961 0.392157 
0.0941176 0.501961 0.392157 0.0941176 0.501961 0.392157 
0.0941176 0.501961 0.392157 0.0941176 0.501961 0.392157 
0.0941176 0.501961 0.392157 0.0941176 0.501961 0.392157 
0.0941176 0.501961 0.392157 0.0941176 0.501961 0.392157 
0.0941176 0.501961 0.392157 0.0941176 0.501961 0.392157 
0.0941176 0.501961 0.392157 0.0941176 0.501961 0.392157 
0.0941176 0.501961 0.392157 0.0941176 0.501961 0.392157 
0.0941176 0.501961 0.392157 0.0941176 0.501961 0.392157 
0.0941176 0.501961 0.392157 0.0941176 0.501961 0.392157 
0.0941176 0.501961 0.392157 0.0941176 0.501961 0.392157 
0.0941176 0.501961 0.392157 0.0941176 0.501961 0.392157 
0.0941176 0.501961 0.392157 0.0941176 0.501961 0.392157 
0.0941176 0.501961 0.392157 0.0941176 0.501961 0.392157 
0.0941176 0.501961 0.392157 0.0941176 0.501961 0.392157 
0.0941176 0.501961 0.392157 0.0941176 0.501961 0.392157 
0.0941176 0.501961 0.392157 0.0941176 0.501961 0.392157 
0.0941176 0.501961 0.392157 0.0941176 0.501961 0.392157 
0.0941176 0.501961 0.392157 0.0941176 0.501961 0.392157 
0.0941176 0.501961 0.392157 0.0941176 0.501961 0.392157 
0.0941176 0.501961 0.392157 0.0941176 0.501961 0.392157 
0.0941176 0.501961 0.392157 0.0941176 0.501961 0.392157 
0.0941176 0.501961 0.392157 0.0941176 0.501961 0.392157 
0.0941176 0.501961 0.392157 0.0941176 0.501961 0.392157 
0.0941176 0.501961 0.392157 0.0941176 0.501961 0.392157 
0.0941176 0.501961 0.392157 0.0941176 0.501961 0.392157 
0.0941176 0.501961 0.392157 0.0941176 0.501961 0.392157 
0.0941176 0.501961 0.392157 0.0941176 0.501961 0.392157 
0.0941176 0.501961 0.392157 0.0941176 0.501961 0.392157 
0.0941176 0.501961 0.392157 0.0941176 0.501961 0.392157 
0.0941176 0.501961 0.392157 0.0941176 0.501961 0.392157 
0.0941176 0.501961 0.392157 0.0941176 0.501961 0.392157 
0.0941176 0.501961 0.392157 0.0941176 0.501961 0.392157 
0.0941176 0.501961 0.392157 0.0941176 0.501961 0.392157 
0.0941176 0.501961 0.392157 0.0941176 0.501961 0.392157 
0.0941176 0.501961 0.392157 0.0941176 0.501961 0.392157 
0.0941176 0.501961 0.392157 0.0941176 0.501961 0.392157 
0.0941176 0.501961 0.392157 0.0941176 0.501961 0.392157 
0.0941176 0.501961 0.392157 0.0941176 0.501961 0.392157 
0.0941176 0.501961 0.392157 0.0941176 0.501961 0.392157 
0.0941176 0.501961 0.392157 0.0941176 0.501961 0.392157 
0.0941176 0.501961 0.392157 0.0941176 0.501961 0.392157 
0.0941176 0.501961 0.392157 0.0941176 0.501961 0.392157 
0.0941176 0.501961 0.392157 0.0941176 0.501961 0.392157 
0.0941176 0.501961 0.392157 0.0941176 0.501961 0.392157 
0.0941176 0.501961 0.392157 0.0941176 0.501961 0.392157 
0.0941176 0.501961 0.392157 0.0941176 0.501961 0.392157 
0.0941176 0.501961 0.392157 0.0941176 0.501961 0.392157 
0.0941176 0.501961 0.392157 0.0941176 0.501961 0.392157 
0.0941176 0.501961 0.392157 0.0941176 0.501961 0.392157 
0.0941176 0.501961 0.392157 0.0941176 0.501961 0.392157 
0.0941176 0.501961 0.392157 0.0941176 0.501961 0.392157 
0.0941176 0.501961 0.392157 0.0941176 0.501961 0.392157 
0.0941176 0.501961 0.392157 0.0941176 0.501961 0.392157 
0.0941176 0.501961 0.392157 0.0941176 0.501961 0.392157 
0.0941176 0.501961 0.392157 0.0941176 0.501961 0.392157 
0.0941176 0.501961 0.392157 0.0941176 0.501961 0.392157 
0.0941176 0.501961 0.392157 0.0941176 0.501961 0.392157 
0.0941176 0.501961 0.392157 0.0941176 0.501961 0.392157 
0.0941176 0.501961 0.392157 0.0941176 0.501961 0.392157 
0.0941176 0.501961 0.392157 0.0941176 0.501961 0.392157 
0.0941176 0.501961 0.392157 0.0941176 0.501961 0.392157 
0.0941176 0.501961 0.392157 0.0941176 0.501961 0.392157 
0.0941176 0.501961 0.392157 0.0941176 0.501961 0.392157 
0.0941176 0.501961 0.392157 0.0941176 0.501961 0.392157 
0.0941176 0.501961 0.392157 0.0941176 0.501961 0.392157 
0.0941176 0.501961 0.392157 0.0941176 0.501961 0.392157 
0.0941176 0.501961 0.392157 0.0941176 0.501961 0.392157 
0.0941176 0.501961 0.392157 0.0941176 0.501961 0.392157 
0.0941176 0.501961 0.392157 0.0941176 0.501961 0.392157 
0.0941176 0.501961 0.392157 0.0941176 0.501961 0.392157 
0.0941176 0.501961 0.392157 0.0941176 0.501961 0.392157 
0.0941176 0.501961 0.392157 0.0941176 0.501961 0.392157 
0.0941176 0.501961 0.392157 0.0941176 0.501961 0.392157 
0.0941176 0.501961 0.392157 0.0941176 0.501961 0.392157 
0.0941176 0.501961 0.392157 0.0941176 0.501961 0.392157 
0.0941176 0.501961 0.392157 0.0941176 0.501961 0.392157 
0.0941176 0.501961 0.392157 0.0941176 0.501961 0.392157 
0.0941176 0.501961 0.392157 0.0941176 0.501961 0.392157 
0.0941176 0.501961 0.392157 0.0941176 0.501961 0.392157 
0.0941176 0.501961 0.392157 0.0941176 0.501961 0.392157 
0.0941176 0.501961 0.392157 0.0941176 0.501961 0.392157 
0.0941176 0.501961 0.392157 0.0941176 0.501961 0.392157 
0.0941176 0.501961 0.392157 0.0941176 0.501961 0.392157 
0.0941176 0.501961 0.392157 0.0941176 0.501961 0.392157 
0.0941176 0.501961 0.392157 0.0941176 0.501961 0.392157 
0.0941176 0.501961 0.392157 0.0941176 0.501961 0.392157 
0.0941176 0.501961 0.392157 0.0941176 0.501961 0.392157 
0.0941176 0.501961 0.392157 0.0941176 0.501961 0.392157 
0.0941176 0.501961 0.392157 0.0941176 0.501961 0.392157 
0.0941176 0.501961 0.392157 0.0941176 0.501961 0.392157 
0.0941176 0.501961 0.392157 0.0941176 0.501961 0.392157 
0.0941176 0.501961 0.392157 0.0941176 0.501961 0.392157 
0.0941176 0.501961 0.392157 0.0941176 0.501961 0.392157 
0.0941176 0.501961 0.392157 0.0941176 0.501961 0.392157 
0.0941176 0.501961 0.392157 0.0941176 0.501961 0.392157 
0.0941176 0.501961 0.392157 0.0941176 0.501961 0.392157 
0.0941176 0.501961 0.392157 0.0941176 0.501961 0.392157 
0.0941176 0.501961 0.392157 0.0941176 0.501961 0.392157 
0.0941176 0.501961 0.392157 0.0941176 0.501961 0.392157 
0.0941176 0.501961 0.392157 0.0941176 0.501961 0.392157 
0.0941176 0.501961 0.392157 0.0941176 0.501961 0.392157 
0.0941176 0.501961 0.392157 0.0941176 0.501961 0.392157 
0.0941176 0.501961 0.392157 0.0941176 0.501961 0.392157 
0.0941176 0.501961 0.392157 0.0941176 0.501961 0.392157 
0.0941176 0.501961 0.392157 0.0941176 0.501961 0.392157 
0.0941176 0.501961 0.392157 0.0941176 0.501961 0.392157 
0.0941176 0.501961 0.392157 0.0941176 0.501961 0.392157 
0.0941176 0.501961 0.392157 0.0941176 0.501961 0.392157 
0.0941176 0.501961 0.392157 0.0941176 0.501961 0.392157 
0.0941176 0.501961 0.392157 0.0941176 0.501961 0.392157 
0.0941176 0.501961 0.392157 0.0941176 0.501961 0.392157 
0.0941176 0.501961 0.392157 0.0941176 0.501961 0.392157 
0.0941176 0.501961 0.392157 0.0941176 0.501961 0.392157 
0.0941176 0.501961 0.392157 0.0941176 0.501961 0.392157 
0.0941176 0.501961 0.392157 0.0941176 0.501961 0.392157 
0.0941176 0.501961 0.392157 0.0941176 0.501961 0.392157 
0.0941176 0.501961 0.392157 0.0941176 0.501961 0.392157 
0.0941176 0.501961 0.392157 0.0941176 0.501961 0.392157 
0.0941176 0.501961 0.392157 0.0941176 0.501961 0.392157 
0.0941176 0.501961 0.392157 0.0941176 0.501961 0.392157 
0.0941176 0.501961 0.392157 0.0941176 0.501961 0.392157 
0.0941176 0.501961 0.392157 0.0941176 0.501961 0.392157 
0.0941176 0.501961 0.392157 0.0941176 0.501961 0.392157 
0.0941176 0.501961 0.392157 0.0941176 0.501961 0.392157 
0.0941176 0.501961 0.392157 0.0941176 0.501961 0.392157 
0.0941176 0.501961 0.392157 0.0941176 0.501961 0.392157 
0.0941176 0.501961 0.392157 0.0941176 0.501961 0.392157 
0.0941176 0.501961 0.392157 0.0941176 0.501961 0.392157 
0.0941176 0.501961 0.392157 0.0941176 0.501961 0.392157 
0.0941176 0.501961 0.392157 0.0941176 0.501961 0.392157 
0.0941176 0.501961 0.392157 0.0941176 0.501961 0.392157 
0.0941176 0.501961 0.392157 0.0941176 0.501961 0.392157 
0.0941176 0.501961 0.392157 0.0941176 0.501961 0.392157 
0.0941176 0.501961 0.392157 0.0941176 0.501961 0.392157 
0.0941176 0.501961 0.392157 0.0941176 0.501961 0.392157 
0.0941176 0.501961 0.392157 0.0941176 0.501961 0.392157 
0.0941176 0.501961 0.392157 0.0941176 0.501961 0.392157 
0.0941176 0.501961 0.392157 0.0941176 0.501961 0.392157 
0.0941176 0.501961 0.392157 0.0941176 0.501961 0.392157 
0.0941176 0.501961 0.392157 0.0941176 0.501961 0.392157 
0.0941176 0.501961 0.392157 0.0941176 0.501961 0.392157 
0.0941176 0.501961 0.392157 0.0941176 0.501961 0.392157 
0.0941176 0.501961 0.392157 0.0941176 0.501961 0.392157 
0.0941176 0.501961 0.392157 0.0941176 0.501961 0.392157 
0.0941176 0.501961 0.392157 0.0941176 0.501961 0.392157 
0.0941176 0.501961 0.392157 0.0941176 0.501961 0.392157 
0.0941176 0.501961 0.392157 0.0941176 0.501961 0.392157 
0.0941176 0.501961 0.392157 0.0941176 0.501961 0.392157 
0.0941176 0.501961 0.392157 0.0941176 0.501961 0.392157 
0.0941176 0.501961 0.392157 0.0941176 0.501961 0.392157 
0.0941176 0.501961 0.392157 0.0941176 0.501961 0.392157 
0.0941176 0.501961 0.392157 0.0941176 0.501961 0.392157 
0.0941176 0.501961 0.392157 0.0941176 0.501961 0.392157 
0.0941176 0.501961 0.392157 0.0941176 0.501961 0.392157 
0.0941176 0.501961 0.392157 0.0941176 0.501961 0.392157 
0.0941176 0.501961 0.392157 0.0941176 0.501961 0.392157 
0.0941176 0.501961 0.392157 0.0941176 0.501961 0.392157 
0.0941176 0.501961 0.392157 0.0941176 0.501961 0.392157 
0.0941176 0.501961 0.392157 0.0941176 0.501961 0.392157 
0.0941176 0.501961 0.392157 0.0941176 0.501961 0.392157 
0.0941176 0.501961 0.392157 0.0941176 0.501961 0.392157 
0.0941176 0.501961 0.392157 0.0941176 0.501961 0.392157 
0.0941176 0.501961 0.392157 0.0941176 0.501961 0.392157 
0.0941176 0.501961 0.392157 0.0941176 0.501961 0.392157 
0.0941176 0.501961 0.392157 0.0941176 0.501961 0.392157 
0.0941176 0.501961 0.392157 0.0941176 0.501961 0.392157 
0.0941176 0.501961 0.392157 0.0941176 0.501961 0.392157 
0.0941176 0.501961 0.392157 0.0941176 0.501961 0.392157 
0.0941176 0.501961 0.392157 0.0941176 0.501961 0.392157 
0.0941176 0.501961 0.392157 0.0941176 0.501961 0.392157 
0.0941176 0.501961 0.392157 0.0941176 0.501961 0.392157 
0.0941176 0.501961 0.392157 0.0941176 0.501961 0.392157 
0.0941176 0.501961 0.392157 0.0941176 0.501961 0.392157 
0.0941176 0.501961 0.392157 0.0941176 0.501961 0.392157 
0.0941176 0.501961 0.392157 0.0941176 0.501961 0.392157 
0.0941176 0.501961 0.392157 0.0941176 0.501961 0.392157 
0.0941176 0.501961 0.392157 0.0941176 0.501961 0.392157 
0.0941176 0.501961 0.392157 0.0941176 0.501961 0.392157 
0.0941176 0.501961 0.392157 0.0941176 0.501961 0.392157 
0.0941176 0.501961 0.392157 0.0941176 0.501961 0.392157 
0.0941176 0.501961 0.392157 0.0941176 0.501961 0.392157 
0.0941176 0.501961 0.392157 0.0941176 0.501961 0.392157 
0.0941176 0.501961 0.392157 0.0941176 0.501961 0.392157 
0.0941176 0.501961 0.392157 0.0941176 0.501961 0.392157 
0.0941176 0.501961 0.392157 0.0941176 0.501961 0.392157 
0.0941176 0.501961 0.392157 0.0941176 0.501961 0.392157 
0.0941176 0.501961 0.392157 0.0941176 0.501961 0.392157 
0.0941176 0.501961 0.392157 0.0941176 0.501961 0.392157 
0.0941176 0.501961 0.392157 0.0941176 0.501961 0.392157 
0.0941176 0.501961 0.392157 0.0941176 0.501961 0.392157 
0.0941176 0.501961 0.392157 0.0941176 0.501961 0.392157 
0.0941176 0.501961 0.392157 0.0941176 0.501961 0.392157 
0.0941176 0.501961 0.392157 0.0941176 0.501961 0.392157 
0.0941176 0.501961 0.392157 0.0941176 0.501961 0.392157 
0.0941176 0.501961 0.392157 0.0941176 0.501961 0.392157 
0.0941176 0.501961 0.392157 0.0941176 0.501961 0.392157 
0.0941176 0.501961 0.392157 0.0941176 0.501961 0.392157 
0.0941176 0.501961 0.392157 0.0941176 0.501961 0.392157 
0.0941176 0.501961 0.392157 0.0941176 0.501961 0.392157 
0.0941176 0.501961 0.392157 0.0941176 0.501961 0.392157 
0.0941176 0.501961 0.392157 0.0941176 0.501961 0.392157 
0.0941176 0.501961 0.392157 0.0941176 0.501961 0.392157 
0.0941176 0.501961 0.392157 0.0941176 0.501961 0.392157 
0.0941176 0.501961 0.392157 0.0941176 0.501961 0.392157 
0.0941176 0.501961 0.392157 0.0941176 0.501961 0.392157 
0.0941176 0.501961 0.392157 0.0941176 0.501961 0.392157 
0.0941176 0.501961 0.392157 0.0941176 0.501961 0.392157 
0.0941176 0.501961 0.392157 0.0941176 0.501961 0.392157 
0.0941176 0.501961 0.392157 0.0941176 0.501961 0.392157 
0.0941176 0.501961 0.392157 0.0941176 0.501961 0.392157 
0.0941176 0.501961 0.392157 0.0941176 0.501961 0.392157 
0.0941176 0.501961 0.392157 0.0941176 0.501961 0.392157 
0.0941176 0.501961 0.392157 0.0941176 0.501961 0.392157 
0.0941176 0.501961 0.392157 0.0941176 0.501961 0.392157 
0.0941176 0.501961 0.392157 0.0941176 0.501961 0.392157 
0.0941176 0.501961 0.392157 0.0941176 0.501961 0.392157 
0.0941176 0.501961 0.392157 0.0941176 0.501961 0.392157 
0.0941176 0.501961 0.392157 0.0941176 0.501961 0.392157 
0.0941176 0.501961 0.392157 0.0941176 0.501961 0.392157 
0.0941176 0.501961 0.392157 0.0941176 0.501961 0.392157 
0.0941176 0.501961 0.392157 0.0941176 0.501961 0.392157 
0.0941176 0.501961 0.392157 0.0941176 0.501961 0.392157 
0.0941176 0.501961 0.392157 0.0941176 0.501961 0.392157 
0.0941176 0.501961 0.392157 0.0941176 0.501961 0.392157 
0.0941176 0.501961 0.392157 0.0941176 0.501961 0.392157 
0.0941176 0.501961 0.392157 0.0941176 0.501961 0.392157 
0.0941176 0.501961 0.392157 0.0941176 0.501961 0.392157 
0.0941176 0.501961 0.392157 0.0941176 0.501961 0.392157 
0.0941176 0.501961 0.392157 0.0941176 0.501961 0.392157 
0.0941176 0.501961 0.392157 0.0941176 0.501961 0.392157 
0.0941176 0.501961 0.392157 0.0941176 0.501961 0.392157 