# vtk DataFile Version 4.2
vtk output
ASCII
DATASET POLYDATA
POINTS 7520 float
284.311 150.078 68.8486 284.378 149.634 68.9882 284.295 150.381 68.8425 
284.371 150.126 68.9443 283.968 150.746 68.7881 284.14 150.653 68.8317 
284.276 150.496 68.9151 282.828 151.926 68.9017 282.826 151.783 68.8901 
282.653 151.979 68.9195 283.831 150.922 68.8571 282.941 151.777 68.9328 
284.057 150.778 68.9337 282.742 151.997 68.9471 284.481 145.893 69.5867 
284.967 145.832 69.765 285.018 145.451 69.9551 284.728 146.521 69.5275 
284.896 146.404 69.6552 285.032 145.999 69.8464 284.619 147.163 69.4541 
284.819 146.982 69.7166 284.239 149.092 69.0096 284.439 148.94 69.2405 
284.373 149.749 69.1389 283.2 151.196 68.8726 284.198 150.592 69.0028 
279.194 152.742 69.1503 283.618 151.068 69.041 283.089 151.57 69.0561 
279.438 153.252 69.1839 282.374 152.145 69.0285 282.739 151.957 69.0439 
278.881 153.925 69.3379 279.878 153.371 69.2718 280.46 153.15 69.3264 
277.951 154.644 69.4656 279.362 153.808 69.4514 275.018 156.421 69.6017 
275.475 156.32 69.6446 275.836 156.208 69.7175 276.956 155.491 69.8105 
273.214 157.578 69.927 272.901 157.677 69.9832 273.465 157.387 69.8842 
275.355 156.484 69.7883 273.27 157.566 70.0197 284.512 143.302 70.493 
285 145.069 70.2109 285.035 145.666 70.0706 283.681 149.037 70.0655 
281.352 152.581 69.5097 282.13 152.185 69.3632 277.437 155.138 69.9076 
272.31 157.662 69.9738 273.885 157.196 69.9103 272.473 157.863 70.1842 
273.086 157.612 70.2276 273.73 157.315 70.1184 269.935 158.954 70.2601 
265.452 161.15 70.5195 264.832 161.421 70.6691 266.083 161.005 70.5209 
267.858 160.086 70.5684 264.727 161.787 70.6071 264.655 161.795 70.6312 
264.39 161.975 70.6413 265.185 161.608 70.5874 267.083 160.519 70.6307 
264.046 162.167 70.6648 263.831 162.077 70.712 264.382 162.068 70.648 
264.65 161.953 70.6463 260.998 163.656 70.7959 260.782 163.739 70.7999 
261.288 163.423 70.8169 263.542 162.404 70.7431 259.674 164.463 70.9185 
259.423 164.522 70.947 260.881 163.695 70.8481 259.868 164.306 70.911 
259.642 164.45 70.9841 284.636 139.659 71.7621 284.909 140.236 71.6638 
284.845 139.863 71.7476 284.923 139.875 71.8272 284.908 140.617 71.6452 
284.927 140.182 71.8217 284.729 141.593 71.1881 284.842 141.302 71.4837 
283.092 142.474 70.7512 283.713 142.45 70.7008 284.641 142.493 70.8593 
284.861 141.85 71.2441 284.826 142.147 71.0863 284.795 142.706 71.0307 
284.94 144.846 70.4141 284.112 144.844 71.1631 274.585 150.27 70.7828 
273.392 157.338 70.3771 264.331 160.925 70.6093 266.389 160.803 70.7925 
258.397 163.264 70.8232 263.452 161.622 70.7052 264.59 161.819 70.6675 
264.202 161.421 70.8992 263.686 161.877 70.897 265.245 161.436 70.7394 
261.306 163.023 70.7536 263.752 162.16 70.821 264.472 161.95 70.6957 
254.601 164.496 71.1939 260.214 163.847 70.835 262.224 162.862 70.8749 
261.245 163.459 70.9339 257.253 164.917 70.9287 258.938 164.488 70.9205 
260.614 163.785 70.9927 260.028 164.164 70.9971 256.643 165.446 71.0542 
259.081 164.603 71.0901 251.037 167.548 71.3129 251.384 167.802 71.3407 
249.345 168.623 71.6083 248.754 168.864 71.759 250.399 168.407 71.5612 
251.205 168.098 71.4858 251.78 167.918 71.5005 249.137 168.946 71.7322 
248.669 169.121 71.8621 249.406 168.943 71.7672 250.632 168.401 71.7382 
251.35 168.119 71.6348 284.617 138.596 72.4057 283.357 138.659 72.1335 
284.783 139.434 71.9915 284.887 139.774 71.9746 284.791 142.118 71.3491 
274.317 147.4 71.9319 274.32 148.3 71.7204 273.541 148.588 72.3291 
273.535 149.388 71.7694 273.344 149.241 72.1442 272.981 149.583 72.1204 
272.449 150.223 71.8903 272.26 149.657 72.4424 271.497 150.404 72.4037 
269.027 150.995 72.1548 269.88 150.808 72.2483 270.794 150.92 72.2457 
271.06 151.933 71.3264 275.334 151.911 71.8911 266.702 152.88 71.9781 
266.314 154.358 71.736 265.758 153.806 72.144 265.443 154.554 72.3488 
264.259 155.623 71.7571 263.894 154.977 72.1804 265.424 155.241 71.713 
264.765 155.102 72.1881 266.186 155.099 71.4678 269.44 155.961 72.1472 
256.412 159.602 72.027 260.954 158.787 71.146 264.785 158.644 72.2529 
267.255 158.743 71.7193 255.551 160.75 72.4042 255.397 161.419 72.2345 
255.06 161.769 72.2005 254.285 161.816 72.4801 253.547 162.591 72.4322 
256.106 162.02 71.548 264.437 161.045 71.2887 252.32 163.728 71.9328 
251.949 163.095 72.2998 252.823 163.178 72.289 262.692 161.996 71.394 
250.411 164.375 71.9246 256.206 164.58 72.022 258.074 164.394 71.69 
259.134 164.382 71.3278 253.137 166.521 72.0897 254.408 166.534 71.5662 
251.962 167.611 71.9037 247.532 169.228 72.1897 247.315 169.357 72.3718 
249.331 168.96 71.9291 247.744 169.386 72.1678 247.685 169.431 72.2646 
248.403 169.266 72.0351 248.81 169.133 72.0523 247.845 169.452 72.1719 
284.515 135.597 73.444 284.518 135.066 73.6671 284.375 135.441 73.5 
284.621 135.112 73.6918 284.482 136.19 73.2326 284.572 135.781 73.451 
284.364 136.876 72.9169 284.488 136.675 73.2098 284.51 138.82 72.6632 
283.47 141.938 72.4419 268.603 148.5 73.0098 269.834 147.607 73.0669 
272.882 147.758 72.5102 271.935 148.629 72.6591 273.327 149.409 72.3635 
272.752 148.378 72.8098 272.131 149.048 72.8063 274.282 148.835 72.6183 
273.676 148.204 72.8902 270.005 149.979 72.5465 271.027 149.663 72.6135 
272.083 149.819 72.6749 272.925 150.132 72.4536 273.966 149.814 72.4301 
270.405 150.737 72.657 271.15 151.238 72.4976 270.833 150.16 72.8248 
272.081 150.756 72.4984 271.474 150.016 72.7855 269.784 151.355 72.9898 
260.997 153.02 73.1155 263.758 154.108 72.4384 264.878 153.797 72.4576 
264.375 154.852 72.6205 265.204 155.368 72.5255 264.846 154.263 72.8188 
266.161 154.89 72.6613 265.649 154.154 72.907 267.368 154.679 72.7334 
268.983 154.505 72.5866 263.791 155.422 72.9964 264.367 156.131 72.732 
254.989 156.907 73.1159 254.844 159.842 72.5516 252.216 161.215 72.7054 
253.859 160.747 72.6793 255.352 161.584 72.4289 254.672 160.465 72.8452 
254.068 161.158 72.8198 256.21 161.068 72.6717 255.637 160.334 72.9322 
251.84 162.212 72.5547 252.989 161.829 72.6261 252.405 162.915 72.6764 
253.211 163.402 72.532 252.835 162.294 72.8175 254.15 162.865 72.5353 
253.489 162.143 72.7786 255.822 162.741 72.4294 251.467 164.215 73.0524 
245.078 166.561 73.0898 247.875 167.949 73.2054 244.081 169.605 73.194 
246.024 169.052 72.6601 242.813 170.311 73.6173 246.429 169.363 72.8224 
247.583 169.293 72.4662 248.324 169.191 72.2519 244.798 170.056 73.2498 
242.651 170.872 73.8166 243.261 170.729 73.7159 244.756 170.157 73.3729 
242.846 170.897 73.8269 284.456 133.004 74.6033 284.797 132.276 74.7549 
284.798 133.145 74.4704 284.775 133.837 74.1915 284.807 133.695 74.2725 
283.679 133.829 74.5765 283.165 134.606 74.458 284.705 134.549 73.9483 
284.769 134.104 74.1288 282.978 135.233 74.2431 282.674 135.568 74.1935 
284.527 135.43 73.7282 282.032 135.629 74.4676 281.397 136.456 74.3385 
281.167 137.07 74.078 280.802 137.423 73.9745 279.989 137.549 74.2609 
277.42 139.019 73.8309 274.105 141.943 73.6889 273.402 142.37 73.81 
272.171 144.193 73.7922 271.785 143.734 74.1788 271.515 144.451 74.3691 
270.355 145.518 73.8413 270.036 144.99 74.2638 270.856 144.997 74.2297 
270.251 146.078 73.5413 266.378 147.434 74.0621 266.205 148.258 73.8577 
265.451 148.468 74.3859 272.973 147.896 73.2727 262.556 149.716 74.197 
264.413 149.448 73.8836 263.849 148.935 74.306 264.777 148.973 74.2487 
261.617 150.653 74.4039 268.729 149.392 74.0863 271.625 149.284 73.0466 
260.079 151.193 74.3671 259.554 151.714 74.2012 260.94 151.207 74.276 
269.867 150.472 73.2296 259.406 152.531 73.8868 258.46 152.656 74.3868 
256.942 153.15 74.3477 257.771 153.187 74.2636 256.233 154.447 73.935 
255.79 153.931 74.3153 255.448 154.562 74.3906 264.857 153.714 73.3213 
253.959 155.097 74.3505 254.772 155.112 74.2707 263.878 154.492 73.2432 
253.377 156.466 73.9013 252.479 156.578 74.3777 250.988 157.152 74.3692 
251.793 157.156 74.2763 259.314 157.131 73.7018 249.611 158.73 74.3643 
257.279 158.147 73.7053 249.419 159.394 74.179 249.068 159.754 74.1566 
250.401 159.318 73.6631 256.331 158.943 73.549 248.325 159.822 74.4486 
247.661 160.632 74.3942 254.026 159.959 73.4837 247.465 161.275 74.2142 
247.159 161.622 74.1877 246.457 161.716 74.4774 245.952 162.537 74.3965 
245.985 163.192 74.1273 245.893 163.615 73.9847 251.852 162.55 73.2092 
245.451 164.159 74.0573 244.958 164.883 73.8386 244.487 164.597 74.4265 
243.947 165.313 74.0753 245.781 167.286 74.1409 241.717 168.928 74.0766 
245.157 168.764 73.9903 242.42 169.424 73.7311 246.479 168.988 73.2358 
241.258 170.46 74.399 245.566 169.536 73.3631 241.605 170.771 74.3444 
244.095 170.303 73.7081 241.969 170.868 74.1201 241.955 170.906 74.2107 
243.011 170.837 73.8757 242.164 170.949 74.068 242.462 170.952 73.9744 
242.716 170.922 73.9623 284.74 129.251 75.5503 285.112 129.627 75.4725 
285.289 129.527 75.5763 285.26 129.048 75.6797 285.393 129.078 75.8013 
285.172 130.079 75.4021 284.702 131.339 75.024 285.019 130.701 75.2217 
285.147 130.503 75.3528 284.191 132.036 74.9176 284.944 131.309 75.1268 
284.787 132.307 74.8408 283.498 132.778 74.9097 284.272 133.68 74.4487 
284.123 132.559 74.9472 283.706 133.048 75.0091 282.722 133.74 74.8145 
281.792 134.644 74.8122 282.871 135.362 74.3369 282.539 134.345 74.8414 
281.943 134.922 74.9233 283.466 134.81 74.4126 283.084 134.191 74.8019 
280.9 135.673 74.6913 279.987 136.523 74.6387 281.048 137.26 74.231 
280.591 136.347 74.7853 279.979 137.09 74.7713 281.795 136.671 74.3619 
281.272 136.107 74.728 277.26 137.882 74.4279 279.88 137.931 74.6751 
280.642 138.091 74.3553 281.478 137.576 74.2441 269.919 144.2 74.537 
271.034 143.806 74.5011 272.966 143.561 75.1596 270.556 144.896 74.6339 
271.336 145.096 74.4689 271.056 144.29 74.818 272.286 144.742 74.6162 
271.773 144.152 74.9075 272.759 145.65 74.3305 264.363 147.353 74.6852 
270.953 146.591 74.3949 264.014 148.095 74.5862 264.98 147.806 74.5395 
269.01 147.846 74.5667 264.434 148.746 74.6186 265.187 149.211 74.4745 
264.914 148.229 74.8045 266.218 148.801 74.6015 265.665 148.133 74.8762 
[...]
POINT_DATA 7520
COLOR_SCALARS scalars 3
0.0941176 0.501961 0.392157 0.0941176 0.501961 0.392157 0.0941176 0.501961 0.392157 
0.0941176 0.501961 0.392157 0.0941176 0.501961 0.392157 
0.0941176 0.501961 0.392157 0.0941176 0.501961 0.392157 
0.0941176 0.501961 0.392157 0.0941176 0.501961 0.392157 
0.0941176 0.501961 0.392157 0.0941176 0.501961 0.392157 
0.0941176 0.501961 0.392157 0.0941176 0.501961 0.392157 
0.0941176 0.501961 0.392157 0.0941176 0.501961 0.392157 
0.0941176 0.501961 0.392157 0.0941176 0.501961 0.392157 
0.0941176 0.501961 0.392157 0.0941176 0.501961 0.392157 
0.0941176 0.501961 0.392157 0.0941176 0.501961 0.392157 
0.0941176 0.501961 0.392157 0.0941176 0.501961 0.392157 
0.0941176 0.501961 0.392157 0.0941176 0.501961 0.392157 
0.0941176 0.501961 0.392157 0.0941176 0.501961 0.392157 
0.0941176 0.501961 0.392157 0.0941176 0.501961 0.392157 
0.0941176 0.501961 0.392157 0.0941176 0.501961 0.392157 
0.0941176 0.501961 0.392157 0.0941176 0.501961 0.392157 
0.0941176 0.501961 0.392157 0.0941176 0.501961 0.392157 
0.0941176 0.501961 0.392157 0.0941176 0.501961 0.392157 
0.0941176 0.501961 0.392157 0.0941176 0.501961 0.392157 
0.0941176 0.501961 0.392157 0.0941176 0.501961 0.392157 
0.0941176 0.501961 0.392157 0.0941176 0.501961 0.392157 
0.0941176 0.501961 0.392157 0.0941176 0.501961 0.392157 
0.0941176 0.501961 0.392157 0.0941176 0.501961 0.392157 
0.0941176 0.501961 0.392157 0.0941176 0.501961 0.392157 
0.0941176 0.501961 0.392157 0.0941176 0.501961 0.392157 
0.0941176 0.501961 0.392157 0.0941176 0.501961 0.392157 
0.0941176 0.501961 0.392157 0.0941176 0.501961 0.392157 
0.0941176 0.501961 0.392157 0.0941176 0.501961 0.392157 
0.0941176 0.501961 0.392157 0.0941176 0.501961 0.392157 
0.0941176 0.501961 0.392157 0.0941176 0.501961 0.392157 
0.0941176 0.501961 0.392157 0.0941176 0.501961 0.392157 
0.0941176 0.501961 0.392157 0.0941176 0.501961 0.392157 
0.0941176 0.501961 0.392157 0.0941176 0.501961 0.392157 
0.0941176 0.501961 0.392157 0.0941176 0.501961 0.392157 
0.0941176 0.501961 0.392157 0.0941176 0.501961 0.392157 
0.0941176 0.501961 0.392157 0.0941176 0.501961 0.392157 
0.0941176 0.501961 0.392157 0.0941176 0.501961 0.392157 
0.0941176 0.501961 0.392157 0.0941176 0.501961 0.392157 
0.0941176 0.501961 0.392157 0.0941176 0.501961 0.392157 
0.0941176 0.501961 0.392157 0.0941176 0.501961 0.392157 
0.0941176 0.501961 0.392157 0.0941176 0.501961 0.392157 
0.0941176 0.501961 0.392157 0.0941176 0.501961 0.392157 
0.0941176 0.501961 0.392157 0.0941176 0.501961 0.392157 
0.0941176 0.501961 0.392157 0.0941176 0.501961 0.392157 
0.0941176 0.501961 0.392157 0.0941176 0.501961 0.392157 
0.0941176 0.501961 0.392157 0.0941176 0.501961 0.392157 
0.0941176 0.501961 0.392157 0.0941176 0.501961 0.392157 
0.0941176 0.501961 0.392157 0.0941176 0.501961 0.392157 
0.0941176 0.501961 0.392157 0.0941176 0.501961 0.392157 
0.0941176 0.501961 0.392157 0.0941176 0.501961 0.392157 
0.0941176 0.501961 0.392157 0.0941176 0.501961 0.392157 
0.0941176 0.501961 0.392157 0.0941176 0.501961 0.392157 
0.0941176 0.501961 0.392157 0.0941176 0.501961 0.392157 
0.0941176 0.501961 0.392157 0.0941176 0.501961 0.392157 
0.0941176 0.501961 0.392157 0.0941176 0.501961 0.392157 
0.0941176 0.501961 0.392157 0.0941176 0.501961 0.392157 
0.0941176 0.501961 0.392157 0.0941176 0.501961 0.392157 
0.0941176 0.501961 0.392157 0.0941176 0.501961 0.392157 
0.0941176 0.501961 0.392157 0.0941176 0.501961 0.392157 
0.0941176 0.501961 0.392157 0.0941176 0.501961 0.392157 
0.0941176 0.501961 0.392157 0.0941176 0.501961 0.392157 
0.0941176 0.501961 0.392157 0.0941176 0.501961 0.392157 
0.0941176 0.501961 0.392157 0.0941176 0.501961 0.392157 
0.0941176 0.501961 0.392157 0.0941176 0.501961 0.392157 
0.0941176 0.501961 0.392157 0.0941176 0.501961 0.392157 
0.0941176 0.501961 0.392157 0.0941176 0.501961 0.392157 
0.0941176 0.501961 0.392157 0.0941176 0.501961 0.392157 
0.0941176 0.501961 0.392157 0.0941176 0.501961 0.392157 
0.0941176 0.501961 0.392157 0.0941176 0.501961 0.392157 
0.0941176 0.501961 0.392157 0.0941176 0.501961 0.392157 
0.0941176 0.501961 0.392157 0.0941176 0.501961 0.392157 
0.0941176 0.501961 0.392157 0.0941176 0.501961 0.392157 
0.0941176 0.501961 0.392157 0.0941176 0.501961 0.392157 
0.0941176 0.501961 0.392157 0.0941176 0.501961 0.392157 
0.0941176 0.501961 0.392157 0.0941176 0.501961 0.392157 
0.0941176 0.501961 0.392157 0.0941176 0.501961 0.392157 
0.0941176 0.501961 0.392157 0.0941176 0.501961 0.392157 
0.0941176 0.501961 0.392157 0.0941176 0.501961 0.392157 
0.0941176 0.501961 0.392157 0.0941176 0.501961 0.392157 
0.0941176 0.501961 0.392157 0.0941176 0.501961 0.392157 
0.0941176 0.501961 0.392157 0.0941176 0.501961 0.392157 
0.0941176 0.501961 0.392157 0.0941176 0.501961 0.392157 
0.0941176 0.501961 0.392157 0.0941176 0.501961 0.392157 
0.0941176 0.501961 0.392157 0.0941176 0.501961 0.392157 
0.0941176 0.501961 0.392157 0.0941176 0.501961 0.392157 
0.0941176 0.501961 0.392157 0.0941176 0.501961 0.392157 
0.0941176 0.501961 0.392157 0.0941176 0.501961 0.392157 
0.0941176 0.501961 0.392157 0.0941176 0.501961 0.392157 
0.0941176 0.501961 0.392157 0.0941176 0.501961 0.392157 
0.0941176 0.501961 0.392157 0.0941176 0.501961 0.392157 
0.0941176 0.501961 0.392157 0.0941176 0.501961 0.392157 
0.0941176 0.501961 0.392157 0.0941176 0.501961 0.392157 
0.0941176 0.501961 0.392157 0.0941176 0.501961 0.392157 
0.0941176 0.501961 0.392157 0.0941176 0.501961 0.392157 
0.0941176 0.501961 0.392157 0.0941176 0.501961 0.392157 
0.0941176 0.501961 0.392157 0.0941176 0.501961 0.392157 
0.0941176 0.501961 0.392157 0.0941176 0.501961 0.392157 
0.0941176 0.501961 0.392157 0.0941176 0.501961 0.392157 
0.0941176 0.501961 0.392157 0.0941176 0.501961 0.392157 
0.0941176 0.501961 0.392157 0.0941176 0.501961 0.392157 
0.0941176 0.501961 0.392157 0.0941176 0.501961 0.392157 
0.0941176 0.501961 0.392157 0.0941176 0.501961 0.392157 
0.0941176 0.501961 0.392157 0.0941176 0.501961 0.392157 
0.0941176 0.501961 0.392157 0.0941176 0.501961 0.392157 
0.0941176 0.501961 0.392157 0.0941176 0.501961 0.392157 
0.0941176 0.501961 0.392157 0.0941176 0.501961 0.392157 
0.0941176 0.501961 0.392157 0.0941176 0.501961 0.392157 
0.0941176 0.501961 0.392157 0.0941176 0.501961 0.392157 
0.0941176 0.501961 0.392157 0.0941176 0.501961 0.392157 
0.0941176 0.501961 0.392157 0.0941176 0.501961 0.392157 
0.0941176 0.501961 0.392157 0.0941176 0.501961 0.392157 
0.0941176 0.501961 0.392157 0.0941176 0.501961 0.392157 
0.0941176 0.501961 0.392157 0.0941176 0.501961 0.392157 
0.0941176 0.501961 0.392157 0.0941176 0.501961 0.392157 
0.0941176 0.501961 0.392157 0.0941176 0.501961 0.392157 
0.0941176 0.501961 0.392157 0.0941176 0.501961 0.392157 
0.0941176 0.501961 0.392157 0.0941176 0.501961 0.392157 
0.0941176 0.501961 0.392157 0.0941176 0.501961 0.392157 
0.0941176 0.501961 0.392157 0.0941176 0.501961 0.392157 
0.0941176 0.501961 0.392157 0.0941176 0.501961 0.392157 
0.0941176 0.501961 0.392157 0.0941176 0.501961 0.392157 
0.0941176 0.501961 0.392157 0.0941176 0.501961 0.392157 
0.0941176 0.501961 0.392157 0.0941176 0.501961 0.392157 
0.0941176 0.501961 0.392157 0.0941176 0.501961 0.392157 
0.0941176 0.501961 0.392157 0.0941176 0.501961 0.392157 
0.0941176 0.501961 0.392157 0.0941176 0.501961 0.392157 
0.0941176 0.501961 0.392157 0.0941176 0.501961 0.392157 
0.0941176 0.501961 0.392157 0.0941176 0.501961 0.392157 
0.0941176 0.501961 0.392157 0.0941176 0.501961 0.392157 
0.0941176 0.501961 0.392157 0.0941176 0.501961 0.392157 
0.0941176 0.501961 0.392157 0.0941176 0.501961 0.392157 
0.0941176 0.501961 0.392157 0.0941176 0.501961 0.392157 
0.0941176 0.501961 0.392157 0.0941176 0.501961 0.392157 
0.0941176 0.501961 0.392157 0.0941176 0.501961 0.392157 
0.0941176 0.501961 0.392157 0.0941176 0.501961 0.392157 
0.0941176 0.501961 0.392157 0.0941176 0.501961 0.392157 
0.0941176 0.501961 0.392157 0.0941176 0.501961 0.392157 
0.0941176 0.501961 0.392157 0.0941176 0.501961 0.392157 
0.0941176 0.501961 0.392157 0.0941176 0.501961 0.392157 
0.0941176 0.501961 0.392157 0.0941176 0.501961 0.392157 
0.0941176 0.501961 0.392157 0.0941176 0.501961 0.392157 
0.0941176 0.501961 0.392157 0.0941176 0.501961 0.392157 
0.0941176 0.501961 0.392157 0.0941176 0.501961 0.392157 
0.0941176 0.501961 0.392157 0.0941176 0.501961 0.392157 
0.0941176 0.501961 0.392157 0.0941176 0.501961 0.392157 
0.0941176 0.501961 0.392157 0.0941176 0.501961 0.392157 
0.0941176 0.501961 0.392157 0.0941176 0.501961 0.392157 
0.0941176 0.501961 0.392157 0.0941176 0.501961 0.392157 
0.0941176 0.501961 0.392157 0.0941176 0.501961 0.392157 
0.0941176 0.501961 0.392157 0.0941176 0.501961 0.392157 
0.0941176 0.501961 0.392157 0.0941176 0.501961 0.392157 
0.0941176 0.501961 0.392157 0.0941176 0.501961 0.392157 
0.0941176 0.501961 0.392157 0.0941176 0.501961 0.392157 
0.0941176 0.501961 0.392157 0.0941176 0.501961 0.392157 
0.0941176 0.501961 0.392157 0.0941176 0.501961 0.392157 
0.0941176 0.501961 0.392157 0.0941176 0.501961 0.392157 
0.0941176 0.501961 0.392157 0.0941176 0.501961 0.392157 
0.0941176 0.501961 0.392157 0.0941176 0.501961 0.392157 
0.0941176 0.501961 0.392157 0.0941176 0.501961 0.392157 
0.0941176 0.501961 0.392157 0.0941176 0.501961 0.392157 
0.0941176 0.501961 0.392157 0.0941176 0.501961 0.392157 
0.0941176 0.501961 0.392157 0.0941176 0.501961 0.392157 
0.0941176 0.501961 0.392157 0.0941176 0.501961 0.392157 
0.0941176 0.501961 0.392157 0.0941176 0.501961 0.392157 
0.0941176 0.501961 0.392157 0.0941176 0.501961 0.392157 
0.0941176 0.501961 0.392157 0.0941176 0.501961 0.392157 
0.0941176 0.501961 0.392157 0.0941176 0.501961 0.392157 
0.0941176 0.501961 0.392157 0.0941176 0.501961 0.392157 
0.0941176 0.501961 0.392157 0.0941176 0.501961 0.392157 
0.0941176 0.501961 0.392157 0.0941176 0.501961 0.392157 
0.0941176 0.501961 0.392157 0.0941176 0.501961 0.392157 
0.0941176 0.501961 0.392157 0.0941176 0.501961 0.392157 
0.0941176 0.501961 0.392157 0.0941176 0.501961 0.392157 
0.0941176 0.501961 0.392157 0.0941176 0.501961 0.392157 
0.0941176 0.501961 0.392157 0.0941176 0.501961 0.392157 
0.0941176 0.501961 0.392157 0.0941176 0.501961 0.392157 
0.0941176 0.501961 0.392157 0.0941176 0.501961 0.392157 
0.0941176 0.501961 0.392157 0.0941176 0.501961 0.392157 
0.0941176 0.501961 0.392157 0.0941176 0.501961 0.392157 
0.0941176 0.501961 0.392157 0.0941176 0.501961 0.392157 
0.0941176 0.501961 0.392157 0.0941176 0.501961 0.392157 
0.0941176 0.501961 0.392157 0.0941176 0.501961 0.392157 
0.0941176 0.501961 0.392157 0.0941176 0.501961 0.392157 
0.0941176 0.501961 0.392157 0.0941176 0.501961 0.392157 
0.0941176 0.501961 0.392157 0.0941176 0.501961 0.392157 
0.0941176 0.501961 0.392157 0.0941176 0.501961 0.392157 
0.0941176 0.501961 0.392157 0.0941176 0.501961 0.392157 
0.0941176 0.501961 0.392157 0.0941176 0.501961 0.392157 
0.0941176 0.501961 0.392157 0.0941176 0.501961 0.392157 
0.0941176 0.501961 0.392157 0.0941176 0.501961 0.392157 
0.0941176 0.501961 0.392157 0.0941176 0.501961 0.392157 
0.0941176 0.501961 0.392157 0.0941176 0.501961 0.392157 
0.0941176 0.501961 0.392157 0.0941176 0.501961 0.392157 
0.0941176 0.501961 0.392157 0.0941176 0.501961 0.392157 
0.0941176 0.501961 0.392157 0.0941176 0.501961 0.392157 
0.0941176 0.501961 0.392157 0.0941176 0.501961 0.392157 
0.0941176 0.501961 0.392157 0.0941176 0.501961 0.392157 
0.0941176 0.501961 0.392157 0.0941176 0.501961 0.392157 
0.0941176 0.501961 0.392157 0.0941176 0.501961 0.392157 
0.0941176 0.501961 0.392157 0.0941176 0.501961 0.392157 
0.0941176 0.501961 0.392157 0.0941176 0.501961 0.392157 
0.0941176 0.501961 0.392157 0.0941176 0.501961 0.392157 
0.0941176 0.501961 0.392157 0.0941176 0.501961 0.392157 
0.0941176 0.501961 0.392157 0.0941176 0.501961 0.392157 
0.0941176 0.501961 0.392157 0.0941176 0.501961 0.392157 
0.0941176 0.501961 0.392157 0.0941176 0.501961 0.392157 
0.0941176 0.501961 0.392157 0.0941176 0.501961 0.392157 
0.0941176 0.501961 0.392157 0.0941176 0.501961 0.392157 
0.0941176 0.501961 0.392157 0.0941176 0.501961 0.392157 
0.0941176 0.501961 0.392157 0.0941176 0.501961 0.392157 
0.0941176 0.501961 0.392157 0.0941176 0.501961 0.392157 
0.0941176 0.501961 0.392157 0.0941176 0.501961 0.392157 
0.0941176 0.501961 0.392157 0.0941176 0.501961 0.392157 
0.0941176 0.501961 0.392157 0.0941176 0.501961 0.392157 
0.0941176 0.501961 0.392157 0.0941176 0.501961 0.392157 
0.0941176 0.501961 0.392157 0.0941176 0.501961 0.392157 
0.0941176 0.501961 0.392157 0.0941176 0.501961 0.392157 
0.0941176 0.501961 0.392157 0.0941176 0.501961 0.392157 
0.0941176 0.501961 0.392157 0.0941176 0.501961 0.392157 
0.0941176 0.501961 0.392157 0.0941176 0.501961 0.392157 
0.0941176 0.501961 0.392157 0.0941176 0.501961 0.392157 
0.0941176 0.501961 0.392157 0.0941176 0.501961 0.392157 
0.0941176 0.501961 0.392157 0.0941176 0.501961 0.392157 
0.0941176 0.501961 0.392157 0.0941176 0.501961 0.392157 
0.0941176 0.501961 0.392157 0.0941176 0.501961 0.392157 
0.0941176 0.501961 0.392157 0.0941176 0.501961 0.392157 
0.0941176 0.501961 0.392157 0.0941176 0.501961 0.392157 
0.0941176 0.501961 0.392157 0.0941176 0.501961 0.392157 
0.0941176 0.501961 0.392157 0.0941176 0.501961 0.392157 
0.0941176 0.501961 0.392157 0.0941176 0.501961 0.392157 
0.0941176 0.501961 0.392157 0.0941176 0.501961 0.392157 
0.0941176 0.501961 0.392157 0.0941176 0.501961 0.392157 
0.0941176 0.501961 0.392157 0.0941176 0.501961 0.392157 
0.0941176 0.501961 0.392157 0.0941176 0.501961 0.392157 
0.0941176 0.501961 0.392157 0.0941176 0.501961 0.392157 
0.0941176 0.501961 0.392157 0.0941176 0.501961 0.392157 
0.0941176 0.501961 0.392157 0.0941176 0.501961 0.392157 
0.0941176 0.501961 0.392157 0.0941176 0.501961 0.392157 
0.0941176 0.501961 0.392157 0.0941176 0.501961 0.392157 
0.0941176 0.501961 0.392157 0.0941176 0.501961 0.392157 
0.0941176 0.501961 0.392157 0.0941176 0.501961 0.392157 
0.0941176 0.501961 0.392157 0.0941176 0.501961 0.392157 
0.0941176 0.501961 0.392157 0.0941176 0.501961 0.392157 
0.0941176 0.501961 0.392157 0.0941176 0.501961 0.392157 
0.0941176 0.501961 0.392157 0.0941176 0.501961 0.392157 
0.0941176 0.501961 0.392157 0.0941176 0.501961 0.392157 
0.0941176 0.501961 0.392157 0.0941176 0.501961 0.392157 
0.0941176 0.501961 0.392157 0.0941176 0.501961 0.392157 
0.0941176 0.501961 0.392157 0.0941176 0.501961 0.392157 
0.0941176 0.501961 0.392157 0.0941176 0.501961 0.392157 
0.0941176 0.501961 0.392157 0.0941176 0.501961 0.392157 
0.0941176 0.501961 0.392157 0.0941176 0.501961 0.392157 
0.0941176 0.501961 0.392157 0.0941176 0.501961 0.392157 
0.0941176 0.501961 0.392157 0.0941176 0.501961 0.392157 
0.0941176 0.501961 0.392157 0.0941176 0.501961 0.392157 
0.0941176 0.501961 0.392157 0.0941176 0.501961 0.392157 
0.0941176 0.501961 0.392157 0.0941176 0.501961 0.392157 
0.0941176 0.501961 0.392157 0.0941176 0.501961 0.392157 
0.0941176 0.501961 0.392157 0.0941176 0.501961 0.392157 
0.0941176 0.501961 0.392157 0.0941176 0.501961 0.392157 
0.0941176 0.501961 0.392157 0.0941176 0.501961 0.392157 
0.0941176 0.501961 0.392157 0.0941176 0.501961 0.392157 
0.0941176 0.501961 0.392157 0.0941176 0.501961 0.392157 
0.0941176 0.501961 0.392157 0.0941176 0.501961 0.392157 
0.0941176 0.501961 0.392157 0.0941176 0.501961 0.392157 
0.0941176 0.501961 0.392157 0.0941176 0.501961 0.392157 
0.0941176 0.501961 0.392157 0.0941176 0.501961 0.392157 
0.0941176 0.501961 0.392157 0.0941176 0.501961 0.392157 
0.0941176 0.501961 0.392157 0.0941176 0.501961 0.392157 
0.0941176 0.501961 0.392157 0.0941176 0.501961 0.392157 
0.0941176 0.501961 0.392157 0.0941176 0.501961 0.392157 
0.0941176 0.501961 0.392157 0.0941176 0.501961 0.392157 
0.0941176 0.501961 0.392157 0.0941176 0.501961 0.392157 
0.0941176 0.501961 0.392157 0.0941176 0.501961 0.392157 
0.0941176 0.501961 0.392157 0.0941176 0.501961 0.392157 
0.0941176 0.501961 0.392157 0.0941176 0.501961 0.392157 
0.0941176 0.501961 0.392157 0.0941176 0.501961 0.392157 
0.0941176 0.501961 0.392157 0.0941176 0.501961 0.392157 
0.0941176 0.501961 0.392157 0.0941176 0.501961 0.392157 
0.0941176 0.501961 0.392157 0.0941176 0.501961 0.392157 
0.0941176 0.501961 0.392157 0.0941176 0.501961 0.392157 
0.0941176 0.501961 0.392157 0.0941176 0.501961 0.392157 
0.0941176 0.501961 0.392157 0.0941176 0.501961 0.392157 
0.0941176 0.501961 0.392157 0.0941176 0.501961 0.392157 
0.0941176 0.501961 0.392157 0.0941176 0.501961 0.392157 
0.0941176 0.501961 0.392157 0.0941176 0.501961 0.392157 
0.0941176 0.501961 0.392157 0.0941176 0.501961 0.392157 
0.0941176 0.501961 0.392157 0.0941176 0.501961 0.392157 
0.0941176 0.501961 0.392157 0.0941176 0.501961 0.392157 
0.0941176 0.501961 0.392157 0.0941176 0.501961 0.392157 
0.0941176 0.501961 0.392157 0.0941176 0.501961 0.392157 
0.0941176 0.501961 0.392157 0.0941176 0.501961 0.392157 
0.0941176 0.501961 0.392157 0.0941176 0.501961 0.392157 
0.0941176 0.501961 0.392157 0.0941176 0.501961 0.392157 
0.0941176 0.501961 0.392157 0.0941176 0.501961 0.392157 
0.0941176 0.501961 0.392157 0.0941176 0.501961 0.392157 
0.0941176 0.501961 0.392157 0.0941176 0.501961 0.392157 
0.0941176 0.501961 0.392157 0.0941176 0.501961 0.392157 
0.0941176 0.501961 0.392157 0.0941176 0.501961 0.392157 
0.0941176 0.501961 0.392157 0.0941176 0.501961 0.392157 
0.0941176 0.501961 0.392157 0.0941176 0.501961 0.392157 
0.0941176 0.501961 0.392157 0.0941176 0.501961 0.392157 
0.0941176 0.501961 0.392157 0.0941176 0.501961 0.392157 
0.0941176 0.501961 0.392157 0.0941176 0.501961 0.392157 
0.0941176 0.501961 0.392157 0.0941176 0.501961 0.392157 
0.0941176 0.501961 0.392157 0.0941176 0.501961 0.392157 
0.0941176 0.501961 0.392157 0.0941176 0.501961 0.392157 
0.0941176 0.501961 0.392157 0.0941176 0.501961 0.392157 
0.0941176 0.501961 0.392157 0.0941176 0.501961 0.392157 
0.0941176 0.501961 0.392157 0.0941176 0.501961 0.392157 
0.0941176 0.501961 0.392157 0.0941176 0.501961 0.392157 
0.0941176 0.501961 0.392157 0.0941176 0.501961 0.392157 
0.0941176 0.501961 0.392157 0.0941176 0.501961 0.392157 
0.0941176 0.501961 0.392157 0.0941176 0.501961 0.392157 
0.0941176 0.501961 0.392157 0.0941176 0.501961 0.392157 
0.0941176 0.501961 0.392157 0.0941176 0.501961 0.392157 
0.0941176 0.501961 0.392157 0.0941176 0.501961 0.392157 
0.0941176 0.501961 0.392157 0.0941176 0.501961 0.392157 
0.0941176 0.501961 0.392157 0.0941176 0.501961 0.392157 
0.0941176 0.501961 0.392157 0.0941176 0.501961 0.392157 
0.0941176 0.501961 0.392157 0.0941176 0.501961 0.392157 
0.0941176 0.501961 0.392157 0.0941176 0.501961 0.392157 
0.0941176 0.501961 0.392157 0.0941176 0.501961 0.392157 
0.0941176 0.501961 0.392157 0.0941176 0.501961 0.392157 
0.0941176 0.501961 0.392157 0.0941176 0.501961 0.392157 
0.0941176 0.501961 0.392157 0.0941176 0.501961 0.392157 
0.0941176 0.501961 0.392157 0.0941176 0.501961 0.392157 
0.0941176 0.501961 0.392157 0.0941176 0.501961 0.392157 
0.0941176 0.501961 0.392157 0.0941176 0.501961 0.392157 
0.0941176 0.501961 0.392157 0.0941176 0.501961 0.392157 
0.0941176 0.501961 0.392157 0.0941176 0.501961 0.392157 
0.0941176 0.501961 0.392157 0.0941176 0.501961 0.392157 
0.0941176 0.501961 0.392157 0.0941176 0.501961 0.392157 
0.0941176 0.501961 0.392157 0.0941176 0.501961 0.392157 
0.0941176 0.501961 0.392157 0.0941176 0.501961 0.392157 
0.0941176 0.501961 0.392157 0.0941176 0.501961 0.392157 
0.0941176 0.501961 0.392157 0.0941176 0.501961 0.392157 
0.0941176 0.501961 0.392157 0.0941176 0.501961 0.392157 
0.0941176 0.501961 0.392157 0.0941176 0.501961 0.392157 
0.0941176 0.501961 0.392157 0.0941176 0.501961 0.392157 
0.0941176 0.501961 0.392157 0.0941176 0.501961 0.392157 
0.0941176 0.501961 0.392157 0.0941176 0.501961 0.392157 
0.0941176 0.501961 0.392157 0.0941176 0.501961 0.392157 
0.0941176 0.501961 0.392157 0.0941176 0.501961 0.392157 
0.0941176 0.501961 0.392157 0.0941176 0.501961 0.392157 
0.0941176 0.501961 0.392157 0.0941176 0.501961 0.392157 
0.0941176 0.501961 0.392157 0.0941176 0.501961 0.392157 
0.0941176 0.501961 0.392157 0.0941176 0.501961 0.392157 
0.0941176 0.501961 0.392157 0.0941176 0.501961 0.392157 