# vtk DataFile Version 4.2
vtk output
ASCII
DATASET POLYDATA
POINTS 2213 float
282.427 149.034 59.0416 280.719 150.196 58.7859 282.793 150.092 59.5372 
280.762 151.116 59.0885 279.083 152.509 59.2594 278.777 152.322 59.1531 
278.719 152.678 59.3121 279.397 152.482 59.3304 281.829 151.062 59.4499 
282.716 146.195 59.3745 283.805 145.648 60.0528 283.763 147.635 59.9169 
274.477 151.455 58.9984 278.748 151.715 59.0187 280.075 151.489 59.1894 
274.431 153.342 59.0934 276.006 152.902 59.0992 279.756 152.961 59.9377 
273.863 154.787 59.4184 275.458 154.179 59.4543 278.192 153.895 60.1573 
271.911 155.842 59.4445 270.867 156.747 59.5744 271.612 156.449 59.6014 
273.43 156.331 60.1068 275.197 155.516 60.225 267.262 157.912 59.4838 
268.144 158.619 59.7741 269.542 158.271 59.918 265.52 159.481 59.7618 
265.064 160.289 60.0824 266.288 160.029 60.1412 266.832 160.129 60.3772 
262.701 162.357 60.6133 282.217 142.137 60.1395 282.832 142.164 60.4031 
281.016 143.213 59.6505 284.162 146.069 60.3494 284.166 147.839 60.1967 
284.265 147.76 60.247 284.206 148.254 60.4576 271.82 151.745 59.2576 
265.226 157.06 59.5301 274.529 156.544 60.8595 262.393 158.081 59.8353 
262.523 160.017 59.9276 270.023 159.032 60.7002 260.062 161.041 60.1076 
264.246 160.112 59.9732 266.921 160.515 60.8184 261.186 161.871 60.287 
265.403 161.073 60.7142 263.91 161.843 60.8668 258.852 163.879 60.7745 
260.736 163.268 60.8692 262.213 163.143 61.1784 255.915 164.735 60.7289 
255.952 165.068 60.8858 258.206 164.798 61.1232 254.868 166.101 61.2949 
256.342 165.411 61.2063 255.076 165.88 61.2166 283.17 135.68 62.3832 
281.451 136.846 61.3717 282.545 138.142 61.3734 283.663 139.524 61.8405 
284.504 149.199 61.3298 283.807 150.421 60.9945 279.829 153.902 61.2864 
276.591 155.605 61.1896 255.546 160.467 60.437 267.729 160.831 61.8893 
265.576 161.406 61.148 254.236 162.956 60.4794 253.188 164.704 60.7466 
254.775 164.204 60.6099 260.423 164.443 61.7968 253.888 165.155 60.8614 
248.454 167.123 61.2789 250.032 166.826 61.2847 255.585 165.868 61.3674 
245.616 168.225 61.5276 247.752 168.369 61.6518 245.479 169.223 61.8663 
248.626 168.956 62.1487 246.01 169.963 62.3622 245.569 170.302 62.6441 
282.483 133.422 62.7059 281.353 133.898 62.2442 279.294 135.363 61.8102 
282.913 134.466 62.5671 284.857 147.636 61.4685 259.18 152.963 61.1104 
274.803 156.97 61.6677 253.834 158.713 60.9311 263.824 162.81 61.8724 
245.416 165.046 61.3925 244.677 167.434 61.4776 254.437 167.204 62.3915 
243.147 169.323 62.0591 248.936 169.185 62.4412 242.87 169.932 62.3391 
243.899 170.007 62.3837 248.919 169.496 62.835 281.287 130.997 63.3332 
284.872 140.122 63.2274 283.92 151.45 62.9573 281.159 153.762 62.7687 
276.054 156.769 62.9052 255.242 167.459 63.4933 251.547 168.785 63.304 
252.227 168.575 63.4777 236.622 170.064 63.0178 235.593 170.789 63.3992 
238.069 170.323 62.9245 237.148 171.245 63.4438 244.103 171.002 63.2205 
244.557 171.114 63.5112 237.923 171.766 63.777 239.641 172.063 64.0578 
277.131 131.05 63.616 283.723 131.943 64.1275 284.627 135.911 64.3319 
285.637 145.793 63.7083 285.554 148.342 64.0712 263.359 163.883 63.9442 
260.821 165.128 63.8552 252.233 168.835 64.0808 232.463 169.872 63.7902 
232.33 172.747 65.0535 234.75 173.1 65.0857 282.439 126.484 65.2342 
281.543 127.221 64.7366 285.263 138.164 64.9499 285.341 139.548 64.5658 
256.709 142.442 64.0124 278.133 155.985 64.5443 274.455 158 64.4574 
270.659 160.046 64.4607 254.771 167.928 64.3503 252.402 168.942 64.7437 
227.59 170.172 65.0139 249.836 169.922 64.5074 228.255 171.641 65.2554 
227.446 172.433 65.8642 229.039 172.236 65.4001 243.123 172.107 65.2916 
228.108 172.904 66.089 235.008 173.281 65.3121 238.244 173.023 65.5492 
231.898 173.392 65.9707 233.557 173.601 66.004 283.723 122.109 67.0428 
281.791 123.608 65.9924 283.836 122.92 66.9379 285.83 142.018 65.7225 
285.889 143.597 66.1226 285.627 147.836 65.8709 284.452 151.454 65.3711 
270.757 160.072 65.1462 268.379 161.391 65.6199 226.34 164.127 65.6258 
224.568 171.02 66.2021 225.456 172.848 66.9215 229.628 173.777 66.9891 
284.228 118.584 67.889 284.67 119.38 67.9755 284.194 121.432 67.4632 
284.298 124.096 67.1363 285.723 137.944 66.9732 232.822 150.748 66.7608 
284.77 150.543 66.3127 284.479 151.355 65.7265 283.257 152.549 65.8283 
283.917 151.841 66.083 284.282 151.416 66.1217 274.649 157.954 65.8904 
263.671 163.959 66.1451 259.546 166.035 66.1476 255.418 167.901 66.3458 
221.68 171.093 67.3467 247.533 171.066 66.8695 222.443 172.366 67.672 
222.472 172.863 68.0709 226.813 173.864 67.9551 230.443 174.103 67.6256 
231.408 174.108 67.5392 234.186 174.088 67.3341 285.424 116.77 68.7284 
282.731 118.479 67.6016 248.445 136.315 67.5988 285.793 138.883 67.9859 
285.638 143.145 67.7074 285.523 145.819 67.6628 285.089 148.437 67.1305 
284.276 150.612 67.0913 282.512 152.332 67.3458 278.654 155.325 66.7916 
279.121 154.838 67.1834 272.84 158.503 67.5289 271.59 159.424 66.9888 
268.662 161.147 67.0273 269.52 160.52 67.4657 269.134 160.661 67.7029 
267.182 161.877 67.2188 255.389 167.871 67.1925 252.94 168.845 67.5414 
250.889 169.714 67.5003 245.308 171.869 67.432 219.744 172.488 68.8956 
220.057 173.029 69.2977 285.869 113.095 69.4898 286.109 114.51 69.2501 
284.054 115.263 68.7165 287.64 114.597 69.9161 286.974 115.487 69.5506 
285.219 124.487 68.3191 285.802 136.197 68.7173 285.26 144.545 68.3493 
284.146 146.574 68.9055 281.315 151.136 68.8351 282.434 151.339 68.1846 
278.74 153.918 68.4297 276.939 154.863 68.7256 274.105 157.325 68.146 
275.724 156.833 67.4687 266.18 162.116 68.0822 264.493 163.15 68.0025 
261.417 164.598 68.3229 260.201 165.173 68.3745 255.414 167.76 67.831 
252.904 168.7 68.1359 255.202 167.643 68.3977 217.386 170.864 69.0431 
216.74 171.887 69.7389 245.375 171.821 68.0678 217.519 172.857 70.1237 
220.077 173.502 69.9939 226.458 174.326 69.4793 289.214 110.34 70.9551 
289.66 111.387 71.112 284.268 112.247 69.8406 281.022 114.149 69.4893 
287.36 116.226 69.906 286.598 120.146 70.0271 285.778 127.002 69.5509 
285.634 135.918 70.0278 285.629 136.994 69.5566 285.117 142.567 69.1071 
284.567 143.467 69.5469 275.387 153.334 70.0974 273.72 156.311 69.2883 
272.383 157.936 68.643 268.558 159.661 69.2852 268.353 160.41 68.6888 
266.378 161.604 68.6364 261.299 164.416 68.7074 261.362 163.978 69.1439 
257.984 165.869 69.044 252.735 168.481 68.8313 253.233 168.051 69.1968 
215.21 171.193 70.0762 245.723 171.464 69.156 241.317 173.027 69.3293 
231.048 174.573 70.0912 290.867 107.393 71.8273 290.77 108.599 71.6939 
285.957 110.775 70.3489 281.982 112.585 70.0851 277.203 114.098 70.4952 
287.83 116.5 70.4455 267.218 119.119 70.4671 284.971 139.663 70.2178 
284.642 139.682 70.659 285.077 140.312 69.8303 283.596 140.901 71.0851 
284.853 141.953 69.6517 282.204 144.173 70.7416 283.533 143.756 70.222 
214.408 160.186 70.7039 265.529 159.569 70.5045 261.55 161.246 70.831 
260.499 163.29 70.0971 254.264 166.23 70.4769 213.994 169.558 70.2799 
212.692 171.873 71.6277 241.416 172.938 69.9582 241.266 172.853 70.5596 
227.116 174.605 71.1354 292.685 106.123 72.5199 290.748 111.575 72.0955 
291.368 110.982 72.5299 288.238 118.399 71.938 286.3 126.822 71.6833 
285.911 130.004 71.8815 285.439 133.363 71.6736 285.177 135.755 71.3066 
252.267 164.338 71.8708 247.05 169.47 71.1596 245.094 171.14 70.6076 
241.888 172.588 70.7731 220.373 174.429 72.393 226.994 174.641 72.0201 
237.459 173.87 71.6116 296.82 101.245 74.1144 288.427 105.083 72.7696 
294.481 107.103 73.9518 286.866 124.215 72.5405 286.122 128.2 72.515 
283.975 135.572 72.865 283.281 136.439 72.9917 284.363 136.252 72.2604 
284.734 136.212 71.8424 277.692 141.456 73.3005 245.336 168.985 72.3915 
243.875 170.739 71.9922 209.957 171.328 72.7287 242.716 171.296 72.2112 
209.677 173.198 74.3371 212.872 173.831 73.9162 234.427 174.158 72.5105 
238.709 173.267 72.5044 297.184 99.7327 74.4675 298.424 99.6703 74.7972 
293.977 101.367 73.825 297.803 102.284 74.594 294.556 108.097 74.5501 
272.569 110.488 73.744 291.892 111.817 73.5619 252.297 119.864 73.6593 
286.441 126.413 73.1092 232.743 129.439 73.8045 285.333 130.607 73.3066 
284.661 131.893 73.6988 220.415 140.007 73.5042 249.796 157.845 74.3966 
206.616 171.713 74.7257 207.156 172.097 74.6904 207.278 172.697 75.1965 
224.865 174.643 73.8924 299.077 97.7082 75.3249 300.116 97.4263 75.6163 
301.395 97.4804 76.0771 296.331 98.2445 74.9848 297.458 97.6514 75.2085 
294.497 98.9319 74.9165 291.977 101.38 74.0822 283.92 103.493 74.8559 
292.597 111.948 74.8064 247.017 119.874 75.027 243.159 122.9 74.2753 
239.178 124.913 74.2822 233.387 126.925 75.0099 286.171 126.757 74.2437 
285.955 127.288 74.3271 285.014 129.299 74.5377 285.156 129.928 73.981 
283.563 130.591 75.183 204.554 167.433 74.8046 239.03 169.664 75.2288 
237.76 172.453 74.2518 239.29 172.091 73.6606 207.056 173.396 76.233 
238.245 172.931 73.4052 233.904 173.778 73.9548 302.693 94.9449 76.725 
302.566 94.3631 76.7707 303.734 95.2516 77.2321 298.857 96.4814 75.6646 
297.396 96.3846 75.8058 302.149 97.3284 76.5656 291.757 114.032 75.1954 
252.944 115.872 76.0094 291.143 115.576 75.8214 245.914 119.083 76.1598 
242.177 121.34 75.6686 287.239 122.861 75.5274 236.978 123.75 76.1568 
236.473 124.905 75.2513 232.532 126.397 75.8868 286.047 125.984 75.0827 
284.905 128.074 75.2819 229.059 129.033 75.4768 223.149 133.096 75.7559 
221.03 135.865 75.1349 202.693 167.335 75.8473 203.261 169.778 75.81 
208.711 173.854 76.0245 209.499 174.1 76.3933 235.219 172.629 75.2262 
228.261 174.156 75.2886 304.485 91.2456 77.8624 303.094 92.2204 77.4143 
305.996 92.9237 78.0912 304.51 93.968 77.5779 297.22 95.1663 76.5355 
303.654 96.1482 77.3713 302.59 97.9037 77.1333 301.071 99.7696 76.5869 
301.874 99.6741 77.4913 279.117 102.612 76.848 299.292 103.051 76.7206 
297.868 105.43 76.9805 268.077 107.591 77.0716 269.06 108.197 76.1573 
263.213 109.907 77.3508 264.504 109.763 76.7722 256.532 113.438 76.9208 
253.63 114.72 76.9316 250.85 115.859 77.4008 291.766 114.457 76.0826 
[...]
POINT_DATA 2213
COLOR_SCALARS scalars 3
0.0941176 0.501961 0.392157 0.0941176 0.501961 0.392157 0.0941176 0.501961 0.392157 
0.0941176 0.501961 0.392157 0.0941176 0.501961 0.392157 
0.0941176 0.501961 0.392157 0.0941176 0.501961 0.392157 
0.0941176 0.501961 0.392157 0.0941176 0.501961 0.392157 
0.0941176 0.501961 0.392157 0.0941176 0.501961 0.392157 
0.0941176 0.501961 0.392157 0.0941176 0.501961 0.392157 
0.0941176 0.501961 0.392157 0.0941176 0.501961 0.392157 
0.0941176 0.501961 0.392157 0.0941176 0.501961 0.392157 
0.0941176 0.501961 0.392157 0.0941176 0.501961 0.392157 
0.0941176 0.501961 0.392157 0.0941176 0.501961 0.392157 
0.0941176 0.501961 0.392157 0.0941176 0.501961 0.392157 
0.0941176 0.501961 0.392157 0.0941176 0.501961 0.392157 
0.0941176 0.501961 0.392157 0.0941176 0.501961 0.392157 
0.0941176 0.501961 0.392157 0.0941176 0.501961 0.392157 
0.0941176 0.501961 0.392157 0.0941176 0.501961 0.392157 
0.0941176 0.501961 0.392157 0.0941176 0.501961 0.392157 
0.0941176 0.501961 0.392157 0.0941176 0.501961 0.392157 
0.0941176 0.501961 0.392157 0.0941176 0.501961 0.392157 
0.0941176 0.501961 0.392157 0.0941176 0.501961 0.392157 
0.0941176 0.501961 0.392157 0.0941176 0.501961 0.392157 
0.0941176 0.501961 0.392157 0.0941176 0.501961 0.392157 
0.0941176 0.501961 0.392157 0.0941176 0.501961 0.392157 
0.0941176 0.501961 0.392157 0.0941176 0.501961 0.392157 
0.0941176 0.501961 0.392157 0.0941176 0.501961 0.392157 
0.0941176 0.501961 0.392157 0.0941176 0.501961 0.392157 
0.0941176 0.501961 0.392157 0.0941176 0.501961 0.392157 
0.0941176 0.501961 0.392157 0.0941176 0.501961 0.392157 
0.0941176 0.501961 0.392157 0.0941176 0.501961 0.392157 
0.0941176 0.501961 0.392157 0.0941176 0.501961 0.392157 
0.0941176 0.501961 0.392157 0.0941176 0.501961 0.392157 
0.0941176 0.501961 0.392157 0.0941176 0.501961 0.392157 
0.0941176 0.501961 0.392157 0.0941176 0.501961 0.392157 
0.0941176 0.501961 0.392157 0.0941176 0.501961 0.392157 
0.0941176 0.501961 0.392157 0.0941176 0.501961 0.392157 
0.0941176 0.501961 0.392157 0.0941176 0.501961 0.392157 
0.0941176 0.501961 0.392157 0.0941176 0.501961 0.392157 
0.0941176 0.501961 0.392157 0.0941176 0.501961 0.392157 
0.0941176 0.501961 0.392157 0.0941176 0.501961 0.392157 
0.0941176 0.501961 0.392157 0.0941176 0.501961 0.392157 
0.0941176 0.501961 0.392157 0.0941176 0.501961 0.392157 
0.0941176 0.501961 0.392157 0.0941176 0.501961 0.392157 
0.0941176 0.501961 0.392157 0.0941176 0.501961 0.392157 
0.0941176 0.501961 0.392157 0.0941176 0.501961 0.392157 
0.0941176 0.501961 0.392157 0.0941176 0.501961 0.392157 
0.0941176 0.501961 0.392157 0.0941176 0.501961 0.392157 
0.0941176 0.501961 0.392157 0.0941176 0.501961 0.392157 
0.0941176 0.501961 0.392157 0.0941176 0.501961 0.392157 
0.0941176 0.501961 0.392157 0.0941176 0.501961 0.392157 
0.0941176 0.501961 0.392157 0.0941176 0.501961 0.392157 
0.0941176 0.501961 0.392157 0.0941176 0.501961 0.392157 
0.0941176 0.501961 0.392157 0.0941176 0.501961 0.392157 
0.0941176 0.501961 0.392157 0.0941176 0.501961 0.392157 
0.0941176 0.501961 0.392157 0.0941176 0.501961 0.392157 
0.0941176 0.501961 0.392157 0.0941176 0.501961 0.392157 
0.0941176 0.501961 0.392157 0.0941176 0.501961 0.392157 
0.0941176 0.501961 0.392157 0.0941176 0.501961 0.392157 
0.0941176 0.501961 0.392157 0.0941176 0.501961 0.392157 
0.0941176 0.501961 0.392157 0.0941176 0.501961 0.392157 
0.0941176 0.501961 0.392157 0.0941176 0.501961 0.392157 
0.0941176 0.501961 0.392157 0.0941176 0.501961 0.392157 
0.0941176 0.501961 0.392157 0.0941176 0.501961 0.392157 
0.0941176 0.501961 0.392157 0.0941176 0.501961 0.392157 
0.0941176 0.501961 0.392157 0.0941176 0.501961 0.392157 
0.0941176 0.501961 0.392157 0.0941176 0.501961 0.392157 
0.0941176 0.501961 0.392157 0.0941176 0.501961 0.392157 
0.0941176 0.501961 0.392157 0.0941176 0.501961 0.392157 
0.0941176 0.501961 0.392157 0.0941176 0.501961 0.392157 
0.0941176 0.501961 0.392157 0.0941176 0.501961 0.392157 
0.0941176 0.501961 0.392157 0.0941176 0.501961 0.392157 
0.0941176 0.501961 0.392157 0.0941176 0.501961 0.392157 
0.0941176 0.501961 0.392157 0.0941176 0.501961 0.392157 
0.0941176 0.501961 0.392157 0.0941176 0.501961 0.392157 
0.0941176 0.501961 0.392157 0.0941176 0.501961 0.392157 
0.0941176 0.501961 0.392157 0.0941176 0.501961 0.392157 
0.0941176 0.501961 0.392157 0.0941176 0.501961 0.392157 
0.0941176 0.501961 0.392157 0.0941176 0.501961 0.392157 
0.0941176 0.501961 0.392157 0.0941176 0.501961 0.392157 
0.0941176 0.501961 0.392157 0.0941176 0.501961 0.392157 
0.0941176 0.501961 0.392157 0.0941176 0.501961 0.392157 
0.0941176 0.501961 0.392157 0.0941176 0.501961 0.392157 
0.0941176 0.501961 0.392157 0.0941176 0.501961 0.392157 
0.0941176 0.501961 0.392157 0.0941176 0.501961 0.392157 
0.0941176 0.501961 0.392157 0.0941176 0.501961 0.392157 
0.0941176 0.501961 0.392157 0.0941176 0.501961 0.392157 
0.0941176 0.501961 0.392157 0.0941176 0.501961 0.392157 
0.0941176 0.501961 0.392157 0.0941176 0.501961 0.392157 
0.0941176 0.501961 0.392157 0.0941176 0.501961 0.392157 
0.0941176 0.501961 0.392157 0.0941176 0.501961 0.392157 
0.0941176 0.501961 0.392157 0.0941176 0.501961 0.392157 
0.0941176 0.501961 0.392157 0.0941176 0.501961 0.392157 
0.0941176 0.501961 0.392157 0.0941176 0.501961 0.392157 
0.0941176 0.501961 0.392157 0.0941176 0.501961 0.392157 
0.0941176 0.501961 0.392157 0.0941176 0.501961 0.392157 
0.0941176 0.501961 0.392157 0.0941176 0.501961 0.392157 
0.0941176 0.501961 0.392157 0.0941176 0.501961 0.392157 
0.0941176 0.501961 0.392157 0.0941176 0.501961 0.392157 
0.0941176 0.501961 0.392157 0.0941176 0.501961 0.392157 
0.0941176 0.501961 0.392157 0.0941176 0.501961 0.392157 
0.0941176 0.501961 0.392157 0.0941176 0.501961 0.392157 
0.0941176 0.501961 0.392157 0.0941176 0.501961 0.392157 
0.0941176 0.501961 0.392157 0.0941176 0.501961 0.392157 
0.0941176 0.501961 0.392157 0.0941176 0.501961 0.392157 
0.0941176 0.501961 0.392157 0.0941176 0.501961 0.392157 
0.0941176 0.501961 0.392157 0.0941176 0.501961 0.392157 
0.0941176 0.501961 0.392157 0.0941176 0.501961 0.392157 
0.0941176 0.501961 0.392157 0.0941176 0.501961 0.392157 
0.0941176 0.501961 0.392157 0.0941176 0.501961 0.392157 
0.0941176 0.501961 0.392157 0.0941176 0.501961 0.392157 
0.0941176 0.501961 0.392157 0.0941176 0.501961 0.392157 
0.0941176 0.501961 0.392157 0.0941176 0.501961 0.392157 
0.0941176 0.501961 0.392157 0.0941176 0.501961 0.392157 
0.0941176 0.501961 0.392157 0.0941176 0.501961 0.392157 
0.0941176 0.501961 0.392157 0.0941176 0.501961 0.392157 
0.0941176 0.501961 0.392157 0.0941176 0.501961 0.392157 
0.0941176 0.501961 0.392157 0.0941176 0.501961 0.392157 
0.0941176 0.501961 0.392157 0.0941176 0.501961 0.392157 
0.0941176 0.501961 0.392157 0.0941176 0.501961 0.392157 
0.0941176 0.501961 0.392157 0.0941176 0.501961 0.392157 
0.0941176 0.501961 0.392157 0.0941176 0.501961 0.392157 
0.0941176 0.501961 0.392157 0.0941176 0.501961 0.392157 
0.0941176 0.501961 0.392157 0.0941176 0.501961 0.392157 
0.0941176 0.501961 0.392157 0.0941176 0.501961 0.392157 
0.0941176 0.501961 0.392157 0.0941176 0.501961 0.392157 
0.0941176 0.501961 0.392157 0.0941176 0.501961 0.392157 
0.0941176 0.501961 0.392157 0.0941176 0.501961 0.392157 
0.0941176 0.501961 0.392157 0.0941176 0.501961 0.392157 
0.0941176 0.501961 0.392157 0.0941176 0.501961 0.392157 
0.0941176 0.501961 0.392157 0.0941176 0.501961 0.392157 
0.0941176 0.501961 0.392157 0.0941176 0.501961 0.392157 
0.0941176 0.501961 0.392157 0.0941176 0.501961 0.392157 
0.0941176 0.501961 0.392157 0.0941176 0.501961 0.392157 
0.0941176 0.501961 0.392157 0.0941176 0.501961 0.392157 
0.0941176 0.501961 0.392157 0.0941176 0.501961 0.392157 
0.0941176 0.501961 0.392157 0.0941176 0.501961 0.392157 
0.0941176 0.501961 0.392157 0.0941176 0.501961 0.392157 
0.0941176 0.501961 0.392157 0.0941176 0.501961 0.392157 
0.0941176 0.501961 0.392157 0.0941176 0.501961 0.392157 
0.0941176 0.501961 0.392157 0.0941176 0.501961 0.392157 
0.0941176 0.501961 0.392157 0.0941176 0.501961 0.392157 
0.0941176 0.501961 0.392157 0.0941176 0.501961 0.392157 
0.0941176 0.501961 0.392157 0.0941176 0.501961 0.392157 
0.0941176 0.501961 0.392157 0.0941176 0.501961 0.392157 
0.0941176 0.501961 0.392157 0.0941176 0.501961 0.392157 
0.0941176 0.501961 0.392157 0.0941176 0.501961 0.392157 
0.0941176 0.501961 0.392157 0.0941176 0.501961 0.392157 
0.0941176 0.501961 0.392157 0.0941176 0.501961 0.392157 
0.0941176 0.501961 0.392157 0.0941176 0.501961 0.392157 
0.0941176 0.501961 0.392157 0.0941176 0.501961 0.392157 
0.0941176 0.501961 0.392157 0.0941176 0.501961 0.392157 
0.0941176 0.501961 0.392157 0.0941176 0.501961 0.392157 
0.0941176 0.501961 0.392157 0.0941176 0.501961 0.392157 
0.0941176 0.501961 0.392157 0.0941176 0.501961 0.392157 
0.0941176 0.501961 0.392157 0.0941176 0.501961 0.392157 
0.0941176 0.501961 0.392157 0.0941176 0.501961 0.392157 
0.0941176 0.501961 0.392157 0.0941176 0.501961 0.392157 
0.0941176 0.501961 0.392157 0.0941176 0.501961 0.392157 
0.0941176 0.501961 0.392157 0.0941176 0.501961 0.392157 
0.0941176 0.501961 0.392157 0.0941176 0.501961 0.392157 
0.0941176 0.501961 0.392157 0.0941176 0.501961 0.392157 
0.0941176 0.501961 0.392157 0.0941176 0.501961 0.392157 
0.0941176 0.501961 0.392157 0.0941176 0.501961 0.392157 
0.0941176 0.501961 0.392157 0.0941176 0.501961 0.392157 
0.0941176 0.501961 0.392157 0.0941176 0.501961 0.392157 
0.0941176 0.501961 0.392157 0.0941176 0.501961 0.392157 
0.0941176 0.501961 0.392157 0.0941176 0.501961 0.392157 
0.0941176 0.501961 0.392157 0.0941176 0.501961 0.392157 
0.0941176 0.501961 0.392157 0.0941176 0.501961 0.392157 
0.0941176 0.501961 0.392157 0.0941176 0.501961 0.392157 
0.0941176 0.501961 0.392157 0.0941176 0.501961 0.392157 
0.0941176 0.501961 0.392157 0.0941176 0.501961 0.392157 
0.0941176 0.501961 0.392157 0.0941176 0.501961 0.392157 
0.0941176 0.501961 0.392157 0.0941176 0.501961 0.392157 
0.0941176 0.501961 0.392157 0.0941176 0.501961 0.392157 
0.0941176 0.501961 0.392157 0.0941176 0.501961 0.392157 
0.0941176 0.501961 0.392157 0.0941176 0.501961 0.392157 
0.0941176 0.501961 0.392157 0.0941176 0.501961 0.392157 
0.0941176 0.501961 0.392157 0.0941176 0.501961 0.392157 
0.0941176 0.501961 0.392157 0.0941176 0.501961 0.392157 
0.0941176 0.501961 0.392157 0.0941176 0.501961 0.392157 
0.0941176 0.501961 0.392157 0.0941176 0.501961 0.392157 
0.0941176 0.501961 0.392157 0.0941176 0.501961 0.392157 
0.0941176 0.501961 0.392157 0.0941176 0.501961 0.392157 
0.0941176 0.501961 0.392157 0.0941176 0.501961 0.392157 
0.0941176 0.501961 0.392157 0.0941176 0.501961 0.392157 
0.0941176 0.501961 0.392157 0.0941176 0.501961 0.392157 
0.0941176 0.501961 0.392157 0.0941176 0.501961 0.392157 
0.0941176 0.501961 0.392157 0.0941176 0.501961 0.392157 
0.0941176 0.501961 0.392157 0.0941176 0.501961 0.392157 
0.0941176 0.501961 0.392157 0.0941176 0.501961 0.392157 
0.0941176 0.501961 0.392157 0.0941176 0.501961 0.392157 
0.0941176 0.501961 0.392157 0.0941176 0.501961 0.392157 
0.0941176 0.501961 0.392157 0.0941176 0.501961 0.392157 
0.0941176 0.501961 0.392157 0.0941176 0.501961 0.392157 
0.0941176 0.501961 0.392157 0.0941176 0.501961 0.392157 
0.0941176 0.501961 0.392157 0.0941176 0.501961 0.392157 
0.0941176 0.501961 0.392157 0.0941176 0.501961 0.392157 
0.0941176 0.501961 0.392157 0.0941176 0.501961 0.392157 
0.0941176 0.501961 0.392157 0.0941176 0.501961 0.392157 
0.0941176 0.501961 0.392157 0.0941176 0.501961 0.392157 
0.0941176 0.501961 0.392157 0.0941176 0.501961 0.392157 
0.0941176 0.501961 0.392157 0.0941176 0.501961 0.392157 
0.0941176 0.501961 0.392157 0.0941176 0.501961 0.392157 
0.0941176 0.501961 0.392157 0.0941176 0.501961 0.392157 
0.0941176 0.501961 0.392157 0.0941176 0.501961 0.392157 
0.0941176 0.501961 0.392157 0.0941176 0.501961 0.392157 
0.0941176 0.501961 0.392157 0.0941176 0.501961 0.392157 
0.0941176 0.501961 0.392157 0.0941176 0.501961 0.392157 
0.0941176 0.501961 0.392157 0.0941176 0.501961 0.392157 
0.0941176 0.501961 0.392157 0.0941176 0.501961 0.392157 
0.0941176 0.501961 0.392157 0.0941176 0.501961 0.392157 
0.0941176 0.501961 0.392157 0.0941176 0.501961 0.392157 
0.0941176 0.501961 0.392157 0.0941176 0.501961 0.392157 
0.0941176 0.501961 0.392157 0.0941176 0.501961 0.392157 
0.0941176 0.501961 0.392157 0.0941176 0.501961 0.392157 
0.0941176 0.501961 0.392157 0.0941176 0.501961 0.392157 
0.0941176 0.501961 0.392157 0.0941176 0.501961 0.392157 
0.0941176 0.501961 0.392157 0.0941176 0.501961 0.392157 
0.0941176 0.501961 0.392157 0.0941176 0.501961 0.392157 
0.0941176 0.501961 0.392157 0.0941176 0.501961 0.392157 
0.0941176 0.501961 0.392157 0.0941176 0.501961 0.392157 
0.0941176 0.501961 0.392157 0.0941176 0.501961 0.392157 
0.0941176 0.501961 0.392157 0.0941176 0.501961 0.392157 
0.0941176 0.501961 0.392157 0.0941176 0.501961 0.392157 
0.0941176 0.501961 0.392157 0.0941176 0.501961 0.392157 
0.0941176 0.501961 0.392157 0.0941176 0.501961 0.392157 
0.0941176 0.501961 0.392157 0.0941176 0.501961 0.392157 
0.0941176 0.501961 0.392157 0.0941176 0.501961 0.392157 
0.0941176 0.501961 0.392157 0.0941176 0.501961 0.392157 
0.0941176 0.501961 0.392157 0.0941176 0.501961 0.392157 
0.0941176 0.501961 0.392157 0.0941176 0.501961 0.392157 
0.0941176 0.501961 0.392157 0.0941176 0.501961 0.392157 
0.0941176 0.501961 0.392157 0.0941176 0.501961 0.392157 
0.0941176 0.501961 0.392157 0.0941176 0.501961 0.392157 
0.0941176 0.501961 0.392157 0.0941176 0.501961 0.392157 
0.0941176 0.501961 0.392157 0.0941176 0.501961 0.392157 
0.0941176 0.501961 0.392157 0.0941176 0.501961 0.392157 
0.0941176 0.501961 0.392157 0.0941176 0.501961 0.392157 
0.0941176 0.501961 0.392157 0.0941176 0.501961 0.392157 
0.0941176 0.501961 0.392157 0.0941176 0.501961 0.392157 
0.0941176 0.501961 0.392157 0.0941176 0.501961 0.392157 
0.0941176 0.501961 0.392157 0.0941176 0.501961 0.392157 
0.0941176 0.501961 0.392157 0.0941176 0.501961 0.392157 
0.0941176 0.501961 0.392157 0.0941176 0.501961 0.392157 
0.0941176 0.501961 0.392157 0.0941176 0.501961 0.392157 
0.0941176 0.501961 0.392157 0.0941176 0.501961 0.392157 
0.0941176 0.501961 0.392157 0.0941176 0.501961 0.392157 
0.0941176 0.501961 0.392157 0.0941176 0.501961 0.392157 
0.0941176 0.501961 0.392157 0.0941176 0.501961 0.392157 
0.0941176 0.501961 0.392157 0.0941176 0.501961 0.392157 
0.0941176 0.501961 0.392157 0.0941176 0.501961 0.392157 
0.0941176 0.501961 0.392157 0.0941176 0.501961 0.392157 
0.0941176 0.501961 0.392157 0.0941176 0.501961 0.392157 
0.0941176 0.501961 0.392157 0.0941176 0.501961 0.392157 
0.0941176 0.501961 0.392157 0.0941176 0.501961 0.392157 
0.0941176 0.501961 0.392157 0.0941176 0.501961 0.392157 
0.0941176 0.501961 0.392157 0.0941176 0.501961 0.392157 
0.0941176 0.501961 0.392157 0.0941176 0.501961 0.392157 
0.0941176 0.501961 0.392157 0.0941176 0.501961 0.392157 
0.0941176 0.501961 0.392157 0.0941176 0.501961 0.392157 
0.0941176 0.501961 0.392157 0.0941176 0.501961 0.392157 
0.0941176 0.501961 0.392157 0.0941176 0.501961 0.392157 
0.0941176 0.501961 0.392157 0.0941176 0.501961 0.392157 
0.0941176 0.501961 0.392157 0.0941176 0.501961 0.392157 
0.0941176 0.501961 0.392157 0.0941176 0.501961 0.392157 
0.0941176 0.501961 0.392157 0.0941176 0.501961 0.392157 
0.0941176 0.501961 0.392157 0.0941176 0.501961 0.392157 
0.0941176 0.501961 0.392157 0.0941176 0.501961 0.392157 
0.0941176 0.501961 0.392157 0.0941176 0.501961 0.392157 
0.0941176 0.501961 0.392157 0.0941176 0.501961 0.392157 
0.0941176 0.501961 0.392157 0.0941176 0.501961 0.392157 
0.0941176 0.501961 0.392157 0.0941176 0.501961 0.392157 
0.0941176 0.501961 0.392157 0.0941176 0.501961 0.392157 
0.0941176 0.501961 0.392157 0.0941176 0.501961 0.392157 
0.0941176 0.501961 0.392157 0.0941176 0.501961 0.392157 
0.0941176 0.501961 0.392157 0.0941176 0.501961 0.392157 
0.0941176 0.501961 0.392157 0.0941176 0.501961 0.392157 
0.0941176 0.501961 0.392157 0.0941176 0.501961 0.392157 
0.0941176 0.501961 0.392157 0.0941176 0.501961 0.392157 
0.0941176 0.501961 0.392157 0.0941176 0.501961 0.392157 
0.0941176 0.501961 0.392157 0.0941176 0.501961 0.392157 
0.0941176 0.501961 0.392157 0.0941176 0.501961 0.392157 
0.0941176 0.501961 0.392157 0.0941176 0.501961 0.392157 
0.0941176 0.501961 0.392157 0.0941176 0.501961 0.392157 
0.0941176 0.501961 0.392157 0.0941176 0.501961 0.392157 
0.0941176 0.501961 0.392157 0.0941176 0.501961 0.392157 
0.0941176 0.501961 0.392157 0.0941176 0.501961 0.392157 
0.0941176 0.501961 0.392157 0.0941176 0.501961 0.392157 
0.0941176 0.501961 0.392157 0.0941176 0.501961 0.392157 
0.0941176 0.501961 0.392157 0.0941176 0.501961 0.392157 
0.0941176 0.501961 0.392157 0.0941176 0.501961 0.392157 
0.0941176 0.501961 0.392157 0.0941176 0.501961 0.392157 
0.0941176 0.501961 0.392157 0.0941176 0.501961 0.392157 
0.0941176 0.501961 0.392157 0.0941176 0.501961 0.392157 
0.0941176 0.501961 0.392157 0.0941176 0.501961 0.392157 
0.0941176 0.501961 0.392157 0.0941176 0.501961 0.392157 
0.0941176 0.501961 0.392157 0.0941176 0.501961 0.392157 
0.0941176 0.501961 0.392157 0.0941176 0.501961 0.392157 
0.0941176 0.501961 0.392157 0.0941176 0.501961 0.392157 
0.0941176 0.501961 0.392157 0.0941176 0.501961 0.392157 
0.0941176 0.501961 0.392157 0.0941176 0.501961 0.392157 
0.0941176 0.501961 0.392157 0.0941176 0.501961 0.392157 
0.0941176 0.501961 0.392157 0.0941176 0.501961 0.392157 
0.0941176 0.501961 0.392157 0.0941176 0.501961 0.392157 
0.0941176 0.501961 0.392157 0.0941176 0.501961 0.392157 
0.0941176 0.501961 0.392157 0.0941176 0.501961 0.392157 
0.0941176 0.501961 0.392157 0.0941176 0.501961 0.392157 
0.0941176 0.501961 0.392157 0.0941176 0.501961 0.392157 
0.0941176 0.501961 0.392157 0.0941176 0.501961 0.392157 
0.0941176 0.501961 0.392157 0.0941176 0.501961 0.392157 
0.0941176 0.501961 0.392157 0.0941176 0.501961 0.392157 
0.0941176 0.501961 0.392157 0.0941176 0.501961 0.392157 
0.0941176 0.501961 0.392157 0.0941176 0.501961 0.392157 
0.0941176 0.501961 0.392157 0.0941176 0.501961 0.392157 
0.0941176 0.501961 0.392157 0.0941176 0.501961 0.392157 
0.0941176 0.501961 0.392157 0.0941176 0.501961 0.392157 
0.0941176 0.501961 0.392157 0.0941176 0.501961 0.392157 
0.0941176 0.501961 0.392157 0.0941176 0.501961 0.392157 
0.0941176 0.501961 0.392157 0.0941176 0.501961 0.392157 
0.0941176 0.501961 0.392157 0.0941176 0.501961 0.392157 
0.0941176 0.501961 0.392157 0.0941176 0.501961 0.392157 
0.0941176 0.501961 0.392157 0.0941176 0.501961 0.392157 
0.0941176 0.501961 0.392157 0.0941176 0.501961 0.392157 
0.0941176 0.501961 0.392157 0.0941176 0.501961 0.392157 
0.0941176 0.501961 0.392157 0.0941176 0.501961 0.392157 
0.0941176 0.501961 0.392157 0.0941176 0.501961 0.392157 
0.0941176 0.501961 0.392157 0.0941176 0.501961 0.392157 
0.0941176 0.501961 0.392157 0.0941176 0.501961 0.392157 
0.0941176 0.501961 0.392157 0.0941176 0.501961 0.392157 
0.0941176 0.501961 0.392157 0.0941176 0.501961 0.392157 
0.0941176 0.501961 0.392157 0.0941176 0.501961 0.392157 
0.0941176 0.501961 0.392157 0.0941176 0.501961 0.392157 
0.0941176 0.501961 0.392157 0.0941176 0.501961 0.392157 
0.0941176 0.501961 0.392157 0.0941176 0.501961 0.392157 
0.0941176 0.501961 0.392157 0.0941176 0.501961 0.392157 
0.0941176 0.501961 0.392157 0.0941176 0.501961 0.392157 
0.0941176 0.501961 0.392157 0.0941176 0.501961 0.392157 
0.0941176 0.501961 0.392157 0.0941176 0.501961 0.392157 
0.0941176 0.501961 0.392157 0.0941176 0.501961 0.392157 
0.0941176 0.501961 0.392157 0.0941176 0.501961 0.392157 
0.0941176 0.501961 0.392157 0.0941176 0.501961 0.392157 
0.0941176 0.501961 0.392157 0.0941176 0.501961 0.392157 
0.0941176 0.501961 0.392157 0.0941176 0.501961 0.392157 
0.0941176 0.501961 0.392157 0.0941176 0.501961 0.392157 
0.0941176 0.501961 0.392157 0.0941176 0.501961 0.392157 
0.0941176 0.501961 0.392157 0.0941176 0.501961 0.392157 
0.0941176 0.501961 0.392157 0.0941176 0.501961 0.392157 
0.0941176 0.501961 0.392157 0.0941176 0.501961 0.392157 
0.0941176 0.501961 0.392157 0.0941176 0.501961 0.392157 
0.0941176 0.501961 0.392157 0.0941176 0.501961 0.392157 