# vtk DataFile Version 4.2
vtk output
ASCII
DATASET POLYDATA
POINTS 662 float
284.292 201.377 147.233 285.784 201.181 147.136 287.067 201.387 146.812 
290.606 201.314 146.919 291.434 201.103 147.242 283.257 202.155 147.159 
292.683 201.888 147.07 293.289 201.756 147.384 293.764 201.987 147.388 
284.112 202.329 146.746 291.83 202.059 146.827 292.179 202.521 146.808 
283.924 201.437 147.419 284.921 201.105 147.549 286.284 200.991 147.459 
291.26 200.99 147.43 291.675 201.019 147.683 281.962 202.472 147.733 
283.855 201.405 147.833 293.25 201.516 147.762 281.652 202.685 147.783 
293.779 202.632 147.197 295.831 202.718 148.099 281.593 203.254 147.647 
281.262 203.494 147.855 291.104 203.168 146.72 294.185 203.788 147.336 
295.493 203.564 147.738 287.704 200.871 147.874 281.56 202.546 148.049 
281.662 202.284 148.391 282.111 202.029 148.484 286.401 200.974 148.352 
294.001 201.626 148.212 294.996 202.036 148.103 280.869 202.86 148.805 
280.635 203.298 148.639 297.951 203.12 148.892 280.311 203.891 148.787 
298.123 203.36 148.81 298.45 203.6 148.892 280.218 204.464 148.745 
281.141 204.078 147.989 280.418 204.699 148.552 281.29 202.469 148.715 
281.198 202.581 149.214 296.682 202.341 149.323 297.349 202.606 149.244 
299.294 203.129 149.928 279.983 203.821 149.78 279.744 204.302 149.624 
299.988 203.88 149.809 300.377 203.682 150.203 279.541 204.837 149.757 
300.527 204.413 149.938 301.035 204.479 150.303 299.903 205.107 149.502 
299.646 205.512 149.429 279.438 206.37 149.87 279.561 206.64 149.822 
291.173 208.328 148.819 280.386 203.298 149.648 282.726 202.173 150.071 
287.115 201.517 150.007 298.737 202.805 150.263 279.844 204.013 150.356 
281.054 202.991 150.344 300.081 203.294 150.548 300.647 203.734 150.415 
279.336 205.097 150.25 301.922 205.25 150.912 301.777 204.837 150.981 
301.635 205.582 150.596 302.209 205.512 151.236 279.056 206.209 150.746 
279.122 206.963 150.807 279.864 207.692 150.124 279.674 207.969 150.47 
297.256 202.428 150.418 298.091 202.627 150.341 280.321 203.682 150.924 
299.59 203.07 150.98 299.975 203.203 150.838 300.907 203.726 151.24 
279.696 204.589 151.37 279.311 205.142 150.924 301.317 204.097 151.328 
301.836 204.632 151.462 302.257 205.102 151.901 278.899 207.054 151.485 
300.962 208.668 151.244 280.57 203.68 151.278 300.635 203.55 151.418 
282.267 203.471 152.072 302.254 205.022 152.459 278.819 207.36 152.061 
302.412 208.132 152.009 279.465 210.547 152.45 280.545 211.398 152.265 
280.033 204.736 152.33 300.554 203.798 152.446 279.578 205.718 152.917 
302.404 205.348 153.073 303.39 208.032 153.72 279.242 210.532 152.806 
279.958 205.441 153.186 280.481 205.535 153.808 303.461 207.689 154.427 
303.664 208.069 154.234 303.722 208.261 154.237 303.775 208.209 154.336 
303.75 208.709 154.579 278.615 209.993 154.19 279.229 212.635 154.322 
300.075 213.44 154.156 300.014 204.486 154.474 279.974 206.231 154.09 
287.18 205.337 155.412 302.63 206.274 154.779 303.732 208.21 154.538 
303.675 208.31 155.34 303.358 211.797 155.24 302.172 206.137 155.51 
303.977 209.047 155.947 304.16 209.687 156.313 304.189 210.848 156.266 
304.13 209.697 156.941 278.281 211.532 157.469 278.093 211.96 157.256 
278.125 212.059 156.738 297.428 206.279 157.982 302.83 208.097 157.773 
303.978 209.996 158.109 278.368 211.698 158.135 304.213 210.401 157.794 
277.98 212.827 157.86 277.96 213.435 158.089 300.289 207.238 158.713 
302.381 208.18 158.563 303.334 209.565 159.168 277.928 213.722 158.746 
277.913 214.239 159.06 304.249 214.312 159.159 278.3 215.458 158.53 
301.259 217.951 159.121 301.605 208.204 159.352 278.275 213.396 160.036 
304.509 213.211 159.808 282.596 219.137 159.351 279.585 212.281 160.603 
278.59 213.592 160.841 304.475 213.404 160.686 304.545 215.532 161.232 
304.163 216.623 160.953 304.448 216.273 161.363 278.595 217.71 160.784 
302.821 217.967 160.315 303.423 218.21 161.262 302.713 210.994 161.886 
278.956 213.387 161.193 279.233 213.364 161.446 279.733 213.132 161.555 
278.598 214.509 161.735 304.516 214.37 161.638 304.601 215.147 161.733 
278.022 216.359 161.492 304.576 216.456 162.155 278.234 217.45 161.871 
278.999 218.606 161.594 278.776 218.616 162.244 302.268 220.142 162.019 
279.085 214.185 162.074 279.45 214.241 162.439 304.541 215.344 162.587 
304.621 216.106 162.667 304.346 217.843 162.596 304.467 218.273 163.453 
279.017 219.093 162.654 303.432 220.333 163.362 293.132 223.677 162.905 
302.7 212.662 163.557 303.144 213.425 163.763 279.049 215.254 162.96 
304.04 215.175 163.91 304.392 215.551 163.433 304.543 216.328 163.517 
278.425 216.98 163.302 278.275 217.632 163.077 278.394 218.051 163.02 
304.57 218.439 164.214 279.002 219.088 163.72 304.2 219.419 163.786 
280.343 220.591 163.545 281.916 221.756 163.934 281.742 221.819 164.322 
301.541 213.404 164.988 278.402 217.488 163.415 279.228 219.237 164.469 
304.377 220.212 165.252 281.384 221.669 164.567 283.209 222.827 164.826 
282.941 222.847 165.207 284.694 223.935 165.491 298.303 213.676 165.9 
279.059 218.095 164.495 304.344 217.548 165.305 304.475 218.337 165.406 
279.215 218.816 164.766 280.101 220.197 165.468 280.981 221.433 165.212 
281.434 221.842 165.488 282.576 222.69 165.435 289.099 226.319 166.228 
279.48 218.562 165.132 279.942 218.376 165.516 303.897 218.125 166.696 
279.501 219.064 165.204 279.73 219.532 165.364 280.424 219.488 166.17 
280.827 219.315 166.442 304.428 220.296 166.84 280.373 220.228 166.012 
304.451 220.981 166.815 281.104 221.403 166.162 282.331 222.608 166.34 
304.063 222.54 166.684 283.001 223.071 166.378 283.593 223.5 167.032 
284.273 224.107 166.916 303.017 225.2 167.64 303.371 224.664 167.567 
285.492 225.28 167.586 302.179 225.804 167.421 286.048 225.601 167.304 
280.472 219.967 166.228 303.996 220.259 168.158 280.681 220.348 166.334 
281.986 222.128 166.717 282.433 222.596 166.705 283.566 223.186 167.738 
285.53 225.314 168.134 287.128 226.583 167.961 288.233 227.331 168.119 
288.882 227.514 167.94 302.801 217.669 167.763 303.453 220.18 168.966 
281.611 221.191 166.979 285.282 221.205 168.976 282.877 222.428 167.542 
304.252 223.722 169.075 284.742 224.404 168.44 303.975 224.883 169.044 
285.063 224.837 168.321 287.745 227.26 168.689 289.232 228.353 169.193 
284.548 222.261 168.886 284.215 223.35 168.551 304.13 224.879 169.636 
304.201 224.449 169.948 285.847 225.082 169.244 303.946 225.496 169.833 
288.9 228.214 169.793 289.835 228.811 169.852 290.373 229.013 169.711 
291.929 229.444 169.536 292.829 229.628 169.504 290.921 229.303 170.078 
291.581 229.515 169.953 296.15 230.274 169.92 289.443 223.476 171.01 
286.246 225.131 169.582 304.047 225.515 170.475 287.586 226.728 169.983 
288.203 227.537 169.929 288.726 227.934 170.096 289.161 228.368 170.072 
290.716 229.193 170.561 292.234 229.903 170.937 292.816 230.172 170.864 
301.951 222.054 171.666 303.983 225.371 171.292 303.046 228.431 171.614 
290.203 228.851 170.699 291.107 229.027 171.302 292.258 229.789 171.338 
293.397 230.378 171.633 293.89 230.615 171.681 296.489 231.544 172.143 
303.551 226.909 172.503 291.038 228.002 171.786 303.337 228.287 172.914 
292.635 229.295 172.105 292.906 229.94 171.765 294.058 229.74 172.771 
301.793 231.044 172.714 294.323 230.258 172.652 294.873 230.617 172.744 
295.673 231.182 172.657 300.169 232.178 173.007 297.451 232.281 173.249 
297.377 232.189 172.974 298.587 232.438 173.034 299.595 232.394 173.141 
299.488 224.864 173.743 296.693 227.478 174.054 294.622 229.614 173.124 
302.859 229.99 173.711 295.293 230.653 173.002 302.025 231.307 173.453 
296.704 231.838 173.206 301.014 232.054 173.419 297.708 232.354 173.41 
297.788 232.262 173.589 298.846 232.499 173.294 298.849 232.422 173.669 
299.661 232.422 173.778 301.367 226.259 174.405 302.669 226.649 174.113 
299.519 227.552 174.832 303.11 229.033 174.031 297.371 230.6 174.205 
302.722 230.295 173.99 302.653 230.284 174.293 301.782 231.639 173.897 
298.876 231.926 174.357 299.246 232.102 174.34 300.208 232.364 173.791 
299.422 232.29 174.102 300.728 232.1 174.301 302.603 227.473 174.586 
301.612 227.943 175.076 302.048 227.797 174.98 302.987 228.088 174.412 
302.811 228.36 174.724 302.952 228.556 174.543 300.064 229.686 175.207 
302.812 229.535 174.599 302.688 229.328 174.787 299.992 231.636 174.802 
301.31 231.595 174.734 301.597 231.312 174.746 300.558 231.651 174.892 
300.474 231.939 174.596 302.528 228.36 174.925 301.892 229.006 175.191 
302.318 228.785 175.057 301.308 230.849 175.126 300.842 231.446 175.01 
302.285 228.142 280.335 302.655 228.418 280.417 301.726 228.897 280.029 
302.495 229.224 280.197 301.118 231.216 280.135 301.144 231.55 280.289 
301.811 231.44 280.365 302.087 231.193 280.362 301.423 231.626 280.382 
301.133 227.668 280.286 301.301 227.088 280.513 301.874 227.118 280.602 
302.363 227.418 280.651 300.335 228.277 280.197 302.946 228.415 280.681 
303.09 229.774 280.973 302.946 230.201 280.937 302.056 231.372 280.444 
299.864 231.948 280.727 300.025 232.097 280.879 300.338 231.904 280.628 
301.583 231.73 280.656 300.178 226.519 280.761 303.023 225.81 281.782 
302.829 227.161 281.072 297.035 228.423 281.114 298.558 227.98 280.672 
303.419 227.857 281.591 302.842 230.438 281.19 297.651 231.981 281.766 
302.166 231.424 281.181 298.146 232.107 281.601 297.978 232.228 281.842 
301.636 231.856 281.309 299.943 232.212 281.226 302.011 223.94 282.437 
303.624 226.287 282.343 294.67 230.277 282.493 303.006 230.053 281.889 
295.663 231.14 282.647 297.119 231.948 282.397 297.652 232.209 282.396 
300.472 232.166 281.848 298.055 232.321 282.086 298.486 232.391 282.088 
292.28 225.551 283.07 304.017 225.717 283.461 291.162 227.915 283.477 
303.669 227.826 282.81 303.923 227.031 283.302 291.794 228.539 283.303 
291.702 229.1 283.582 302.742 229.932 282.859 291.483 229.408 283.996 
292.33 229.703 283.573 297.753 232.203 282.662 300.122 232.089 282.302 
299.664 220.795 284.144 294.318 222.153 283.791 303.816 223.807 283.991 
289.119 225.244 284.206 289.34 227.958 284.717 290.296 228.94 284.751 
[...]
POINT_DATA 662
COLOR_SCALARS scalars 3
0.94902 0.282353 0.231373 0.94902 0.282353 0.231373 0.94902 0.282353 0.231373 
0.94902 0.282353 0.231373 0.94902 0.282353 0.231373 
0.94902 0.282353 0.231373 0.94902 0.282353 0.231373 
0.94902 0.282353 0.231373 0.94902 0.282353 0.231373 
0.94902 0.282353 0.231373 0.94902 0.282353 0.231373 
0.94902 0.282353 0.231373 0.94902 0.282353 0.231373 
0.94902 0.282353 0.231373 0.94902 0.282353 0.231373 
0.94902 0.282353 0.231373 0.94902 0.282353 0.231373 
0.94902 0.282353 0.231373 0.94902 0.282353 0.231373 
0.94902 0.282353 0.231373 0.94902 0.282353 0.231373 
0.94902 0.282353 0.231373 0.94902 0.282353 0.231373 
0.94902 0.282353 0.231373 0.94902 0.282353 0.231373 
0.94902 0.282353 0.231373 0.94902 0.282353 0.231373 
0.94902 0.282353 0.231373 0.94902 0.282353 0.231373 
0.94902 0.282353 0.231373 0.94902 0.282353 0.231373 
0.94902 0.282353 0.231373 0.94902 0.282353 0.231373 
0.94902 0.282353 0.231373 0.94902 0.282353 0.231373 
0.94902 0.282353 0.231373 0.94902 0.282353 0.231373 
0.94902 0.282353 0.231373 0.94902 0.282353 0.231373 
0.94902 0.282353 0.231373 0.94902 0.282353 0.231373 
0.94902 0.282353 0.231373 0.94902 0.282353 0.231373 
0.94902 0.282353 0.231373 0.94902 0.282353 0.231373 
0.94902 0.282353 0.231373 0.94902 0.282353 0.231373 
0.94902 0.282353 0.231373 0.94902 0.282353 0.231373 
0.94902 0.282353 0.231373 0.94902 0.282353 0.231373 
0.94902 0.282353 0.231373 0.94902 0.282353 0.231373 
0.94902 0.282353 0.231373 0.94902 0.282353 0.231373 
0.94902 0.282353 0.231373 0.94902 0.282353 0.231373 
0.94902 0.282353 0.231373 0.94902 0.282353 0.231373 
0.94902 0.282353 0.231373 0.94902 0.282353 0.231373 
0.94902 0.282353 0.231373 0.94902 0.282353 0.231373 
0.94902 0.282353 0.231373 0.94902 0.282353 0.231373 
0.94902 0.282353 0.231373 0.94902 0.282353 0.231373 
0.94902 0.282353 0.231373 0.94902 0.282353 0.231373 
0.94902 0.282353 0.231373 0.94902 0.282353 0.231373 
0.94902 0.282353 0.231373 0.94902 0.282353 0.231373 
0.94902 0.282353 0.231373 0.94902 0.282353 0.231373 
0.94902 0.282353 0.231373 0.94902 0.282353 0.231373 
0.94902 0.282353 0.231373 0.94902 0.282353 0.231373 
0.94902 0.282353 0.231373 0.94902 0.282353 0.231373 
0.94902 0.282353 0.231373 0.94902 0.282353 0.231373 
0.94902 0.282353 0.231373 0.94902 0.282353 0.231373 
0.94902 0.282353 0.231373 0.94902 0.282353 0.231373 
0.94902 0.282353 0.231373 0.94902 0.282353 0.231373 
0.94902 0.282353 0.231373 0.94902 0.282353 0.231373 
0.94902 0.282353 0.231373 0.94902 0.282353 0.231373 
0.94902 0.282353 0.231373 0.94902 0.282353 0.231373 
0.94902 0.282353 0.231373 0.94902 0.282353 0.231373 
0.94902 0.282353 0.231373 0.94902 0.282353 0.231373 
0.94902 0.282353 0.231373 0.94902 0.282353 0.231373 
0.94902 0.282353 0.231373 0.94902 0.282353 0.231373 
0.94902 0.282353 0.231373 0.94902 0.282353 0.231373 
0.94902 0.282353 0.231373 0.94902 0.282353 0.231373 
0.94902 0.282353 0.231373 0.94902 0.282353 0.231373 
0.94902 0.282353 0.231373 0.94902 0.282353 0.231373 
0.94902 0.282353 0.231373 0.94902 0.282353 0.231373 
0.94902 0.282353 0.231373 0.94902 0.282353 0.231373 
0.94902 0.282353 0.231373 0.94902 0.282353 0.231373 
0.94902 0.282353 0.231373 0.94902 0.282353 0.231373 
0.94902 0.282353 0.231373 0.94902 0.282353 0.231373 
0.94902 0.282353 0.231373 0.94902 0.282353 0.231373 
0.94902 0.282353 0.231373 0.94902 0.282353 0.231373 
0.94902 0.282353 0.231373 0.94902 0.282353 0.231373 
0.94902 0.282353 0.231373 0.94902 0.282353 0.231373 
0.94902 0.282353 0.231373 0.94902 0.282353 0.231373 
0.94902 0.282353 0.231373 0.94902 0.282353 0.231373 
0.94902 0.282353 0.231373 0.94902 0.282353 0.231373 
0.94902 0.282353 0.231373 0.94902 0.282353 0.231373 
0.94902 0.282353 0.231373 0.94902 0.282353 0.231373 
0.94902 0.282353 0.231373 0.94902 0.282353 0.231373 
0.94902 0.282353 0.231373 0.94902 0.282353 0.231373 
0.94902 0.282353 0.231373 0.94902 0.282353 0.231373 
0.94902 0.282353 0.231373 0.94902 0.282353 0.231373 
0.94902 0.282353 0.231373 0.94902 0.282353 0.231373 
0.94902 0.282353 0.231373 0.94902 0.282353 0.231373 
0.94902 0.282353 0.231373 0.94902 0.282353 0.231373 
0.94902 0.282353 0.231373 0.94902 0.282353 0.231373 
0.94902 0.282353 0.231373 0.94902 0.282353 0.231373 
0.94902 0.282353 0.231373 0.94902 0.282353 0.231373 
0.94902 0.282353 0.231373 0.94902 0.282353 0.231373 
0.94902 0.282353 0.231373 0.94902 0.282353 0.231373 
0.94902 0.282353 0.231373 0.94902 0.282353 0.231373 
0.94902 0.282353 0.231373 0.94902 0.282353 0.231373 
0.94902 0.282353 0.231373 0.94902 0.282353 0.231373 
0.94902 0.282353 0.231373 0.94902 0.282353 0.231373 
0.94902 0.282353 0.231373 0.94902 0.282353 0.231373 
0.94902 0.282353 0.231373 0.94902 0.282353 0.231373 
0.94902 0.282353 0.231373 0.94902 0.282353 0.231373 
0.94902 0.282353 0.231373 0.94902 0.282353 0.231373 
0.94902 0.282353 0.231373 0.94902 0.282353 0.231373 
0.94902 0.282353 0.231373 0.94902 0.282353 0.231373 
0.94902 0.282353 0.231373 0.94902 0.282353 0.231373 
0.94902 0.282353 0.231373 0.94902 0.282353 0.231373 
0.94902 0.282353 0.231373 0.94902 0.282353 0.231373 
0.94902 0.282353 0.231373 0.94902 0.282353 0.231373 
0.94902 0.282353 0.231373 0.94902 0.282353 0.231373 
0.94902 0.282353 0.231373 0.94902 0.282353 0.231373 
0.94902 0.282353 0.231373 0.94902 0.282353 0.231373 
0.94902 0.282353 0.231373 0.94902 0.282353 0.231373 
0.94902 0.282353 0.231373 0.94902 0.282353 0.231373 
0.94902 0.282353 0.231373 0.94902 0.282353 0.231373 
0.94902 0.282353 0.231373 0.94902 0.282353 0.231373 
0.94902 0.282353 0.231373 0.94902 0.282353 0.231373 
0.94902 0.282353 0.231373 0.94902 0.282353 0.231373 
0.94902 0.282353 0.231373 0.94902 0.282353 0.231373 
0.94902 0.282353 0.231373 0.94902 0.282353 0.231373 
0.94902 0.282353 0.231373 0.94902 0.282353 0.231373 
0.94902 0.282353 0.231373 0.94902 0.282353 0.231373 
0.94902 0.282353 0.231373 0.94902 0.282353 0.231373 
0.94902 0.282353 0.231373 0.94902 0.282353 0.231373 
0.94902 0.282353 0.231373 0.94902 0.282353 0.231373 
0.94902 0.282353 0.231373 0.94902 0.282353 0.231373 
0.94902 0.282353 0.231373 0.94902 0.282353 0.231373 
0.94902 0.282353 0.231373 0.94902 0.282353 0.231373 
0.94902 0.282353 0.231373 0.94902 0.282353 0.231373 
0.94902 0.282353 0.231373 0.94902 0.282353 0.231373 
0.94902 0.282353 0.231373 0.94902 0.282353 0.231373 
0.94902 0.282353 0.231373 0.94902 0.282353 0.231373 
0.94902 0.282353 0.231373 0.94902 0.282353 0.231373 
0.94902 0.282353 0.231373 0.94902 0.282353 0.231373 
0.94902 0.282353 0.231373 0.94902 0.282353 0.231373 
0.94902 0.282353 0.231373 0.94902 0.282353 0.231373 
0.94902 0.282353 0.231373 0.94902 0.282353 0.231373 
0.94902 0.282353 0.231373 0.94902 0.282353 0.231373 
0.94902 0.282353 0.231373 0.94902 0.282353 0.231373 
0.94902 0.282353 0.231373 0.94902 0.282353 0.231373 
0.94902 0.282353 0.231373 0.94902 0.282353 0.231373 
0.94902 0.282353 0.231373 0.94902 0.282353 0.231373 
0.94902 0.282353 0.231373 0.94902 0.282353 0.231373 
0.94902 0.282353 0.231373 0.94902 0.282353 0.231373 
0.94902 0.282353 0.231373 0.94902 0.282353 0.231373 
0.94902 0.282353 0.231373 0.94902 0.282353 0.231373 
0.94902 0.282353 0.231373 0.94902 0.282353 0.231373 
0.94902 0.282353 0.231373 0.94902 0.282353 0.231373 
0.94902 0.282353 0.231373 0.94902 0.282353 0.231373 
0.94902 0.282353 0.231373 0.94902 0.282353 0.231373 
0.94902 0.282353 0.231373 0.94902 0.282353 0.231373 
0.94902 0.282353 0.231373 0.94902 0.282353 0.231373 
0.94902 0.282353 0.231373 0.94902 0.282353 0.231373 
0.94902 0.282353 0.231373 0.94902 0.282353 0.231373 
0.94902 0.282353 0.231373 0.94902 0.282353 0.231373 
0.94902 0.282353 0.231373 0.94902 0.282353 0.231373 
0.94902 0.282353 0.231373 0.94902 0.282353 0.231373 
0.94902 0.282353 0.231373 0.94902 0.282353 0.231373 
0.94902 0.282353 0.231373 0.94902 0.282353 0.231373 
0.94902 0.282353 0.231373 0.94902 0.282353 0.231373 
0.94902 0.282353 0.231373 0.94902 0.282353 0.231373 
0.94902 0.282353 0.231373 0.94902 0.282353 0.231373 
0.94902 0.282353 0.231373 0.94902 0.282353 0.231373 
0.94902 0.282353 0.231373 0.94902 0.282353 0.231373 
0.94902 0.282353 0.231373 0.94902 0.282353 0.231373 
0.94902 0.282353 0.231373 0.94902 0.282353 0.231373 
0.94902 0.282353 0.231373 0.94902 0.282353 0.231373 
0.94902 0.282353 0.231373 0.94902 0.282353 0.231373 
0.94902 0.282353 0.231373 0.94902 0.282353 0.231373 
0.94902 0.282353 0.231373 0.94902 0.282353 0.231373 
0.94902 0.282353 0.231373 0.94902 0.282353 0.231373 
0.94902 0.282353 0.231373 0.94902 0.282353 0.231373 
0.94902 0.282353 0.231373 0.94902 0.282353 0.231373 
0.94902 0.282353 0.231373 0.94902 0.282353 0.231373 
0.94902 0.282353 0.231373 0.94902 0.282353 0.231373 
0.94902 0.282353 0.231373 0.94902 0.282353 0.231373 
0.94902 0.282353 0.231373 0.94902 0.282353 0.231373 
0.94902 0.282353 0.231373 0.94902 0.282353 0.231373 
0.94902 0.282353 0.231373 0.94902 0.282353 0.231373 
0.94902 0.282353 0.231373 0.94902 0.282353 0.231373 
0.94902 0.282353 0.231373 0.94902 0.282353 0.231373 
0.94902 0.282353 0.231373 0.94902 0.282353 0.231373 
0.94902 0.282353 0.231373 0.94902 0.282353 0.231373 
0.94902 0.282353 0.231373 0.94902 0.282353 0.231373 
0.94902 0.282353 0.231373 0.94902 0.282353 0.231373 
0.94902 0.282353 0.231373 0.94902 0.282353 0.231373 
0.94902 0.282353 0.231373 0.94902 0.282353 0.231373 
0.94902 0.282353 0.231373 0.94902 0.282353 0.231373 
0.94902 0.282353 0.231373 0.94902 0.282353 0.231373 
0.94902 0.282353 0.231373 0.94902 0.282353 0.231373 
0.94902 0.282353 0.231373 0.94902 0.282353 0.231373 
0.94902 0.282353 0.231373 0.94902 0.282353 0.231373 
0.94902 0.282353 0.231373 0.94902 0.282353 0.231373 
0.94902 0.282353 0.231373 0.94902 0.282353 0.231373 
0.94902 0.282353 0.231373 0.94902 0.282353 0.231373 
0.94902 0.282353 0.231373 0.94902 0.282353 0.231373 
0.94902 0.282353 0.231373 0.94902 0.282353 0.231373 
0.94902 0.282353 0.231373 0.94902 0.282353 0.231373 
0.94902 0.282353 0.231373 0.94902 0.282353 0.231373 
0.94902 0.282353 0.231373 0.94902 0.282353 0.231373 
0.94902 0.282353 0.231373 0.94902 0.282353 0.231373 
0.94902 0.282353 0.231373 0.94902 0.282353 0.231373 
0.94902 0.282353 0.231373 0.94902 0.282353 0.231373 
0.94902 0.282353 0.231373 0.94902 0.282353 0.231373 
0.94902 0.282353 0.231373 0.94902 0.282353 0.231373 
0.94902 0.282353 0.231373 0.94902 0.282353 0.231373 
0.94902 0.282353 0.231373 0.94902 0.282353 0.231373 
0.94902 0.282353 0.231373 0.94902 0.282353 0.231373 
0.94902 0.282353 0.231373 0.94902 0.282353 0.231373 
0.94902 0.282353 0.231373 0.94902 0.282353 0.231373 
0.94902 0.282353 0.231373 0.94902 0.282353 0.231373 
0.94902 0.282353 0.231373 0.94902 0.282353 0.231373 
0.94902 0.282353 0.231373 0.94902 0.282353 0.231373 
0.94902 0.282353 0.231373 0.94902 0.282353 0.231373 
0.94902 0.282353 0.231373 0.94902 0.282353 0.231373 
0.94902 0.282353 0.231373 0.94902 0.282353 0.231373 
0.94902 0.282353 0.231373 0.94902 0.282353 0.231373 
0.94902 0.282353 0.231373 0.94902 0.282353 0.231373 
0.94902 0.282353 0.231373 0.94902 0.282353 0.231373 
0.94902 0.282353 0.231373 0.94902 0.282353 0.231373 
0.94902 0.282353 0.231373 0.94902 0.282353 0.231373 
0.94902 0.282353 0.231373 0.94902 0.282353 0.231373 
0.94902 0.282353 0.231373 0.94902 0.282353 0.231373 
0.94902 0.282353 0.231373 0.94902 0.282353 0.231373 
0.94902 0.282353 0.231373 0.94902 0.282353 0.231373 
0.94902 0.282353 0.231373 0.94902 0.282353 0.231373 
0.94902 0.282353 0.231373 0.94902 0.282353 0.231373 
0.94902 0.282353 0.231373 0.94902 0.282353 0.231373 
0.94902 0.282353 0.231373 0.94902 0.282353 0.231373 
0.94902 0.282353 0.231373 0.94902 0.282353 0.231373 
0.94902 0.282353 0.231373 0.94902 0.282353 0.231373 
0.94902 0.282353 0.231373 0.94902 0.282353 0.231373 
0.94902 0.282353 0.231373 0.94902 0.282353 0.231373 
0.94902 0.282353 0.231373 0.94902 0.282353 0.231373 
0.94902 0.282353 0.231373 0.94902 0.282353 0.231373 
0.94902 0.282353 0.231373 0.94902 0.282353 0.231373 
0.94902 0.282353 0.231373 0.94902 0.282353 0.231373 
0.94902 0.282353 0.231373 0.94902 0.282353 0.231373 
0.94902 0.282353 0.231373 0.94902 0.282353 0.231373 
0.94902 0.282353 0.231373 0.94902 0.282353 0.231373 
0.94902 0.282353 0.231373 0.94902 0.282353 0.231373 
0.94902 0.282353 0.231373 0.94902 0.282353 0.231373 
0.94902 0.282353 0.231373 0.94902 0.282353 0.231373 
0.94902 0.282353 0.231373 0.94902 0.282353 0.231373 
0.94902 0.282353 0.231373 0.94902 0.282353 0.231373 
0.94902 0.282353 0.231373 0.94902 0.282353 0.231373 
0.94902 0.282353 0.231373 0.94902 0.282353 0.231373 
0.94902 0.282353 0.231373 0.94902 0.282353 0.231373 
0.94902 0.282353 0.231373 0.94902 0.282353 0.231373 
0.94902 0.282353 0.231373 0.94902 0.282353 0.231373 
0.94902 0.282353 0.231373 0.94902 0.282353 0.231373 
0.94902 0.282353 0.231373 0.94902 0.282353 0.231373 
0.94902 0.282353 0.231373 0.94902 0.282353 0.231373 
0.94902 0.282353 0.231373 0.94902 0.282353 0.231373 
0.94902 0.282353 0.231373 0.94902 0.282353 0.231373 
0.94902 0.282353 0.231373 0.94902 0.282353 0.231373 
0.94902 0.282353 0.231373 0.94902 0.282353 0.231373 
0.94902 0.282353 0.231373 0.94902 0.282353 0.231373 
0.94902 0.282353 0.231373 0.94902 0.282353 0.231373 
0.94902 0.282353 0.231373 0.94902 0.282353 0.231373 
0.94902 0.282353 0.231373 0.94902 0.282353 0.231373 
0.94902 0.282353 0.231373 0.94902 0.282353 0.231373 
0.94902 0.282353 0.231373 0.94902 0.282353 0.231373 
0.94902 0.282353 0.231373 0.94902 0.282353 0.231373 
0.94902 0.282353 0.231373 0.94902 0.282353 0.231373 
0.94902 0.282353 0.231373 0.94902 0.282353 0.231373 
0.94902 0.282353 0.231373 0.94902 0.282353 0.231373 
0.94902 0.282353 0.231373 0.94902 0.282353 0.231373 
0.94902 0.282353 0.231373 0.94902 0.282353 0.231373 
0.94902 0.282353 0.231373 0.94902 0.282353 0.231373 
0.94902 0.282353 0.231373 0.94902 0.282353 0.231373 
0.94902 0.282353 0.231373 0.94902 0.282353 0.231373 
0.94902 0.282353 0.231373 0.94902 0.282353 0.231373 
0.94902 0.282353 0.231373 0.94902 0.282353 0.231373 
0.94902 0.282353 0.231373 0.94902 0.282353 0.231373 
0.94902 0.282353 0.231373 0.94902 0.282353 0.231373 
0.94902 0.282353 0.231373 0.94902 0.282353 0.231373 
0.94902 0.282353 0.231373 0.94902 0.282353 0.231373 
0.94902 0.282353 0.231373 0.94902 0.282353 0.231373 
0.94902 0.282353 0.231373 0.94902 0.282353 0.231373 
0.94902 0.282353 0.231373 0.94902 0.282353 0.231373 
0.94902 0.282353 0.231373 0.94902 0.282353 0.231373 
0.94902 0.282353 0.231373 0.94902 0.282353 0.231373 
0.94902 0.282353 0.231373 0.94902 0.282353 0.231373 
0.94902 0.282353 0.231373 0.94902 0.282353 0.231373 
0.94902 0.282353 0.231373 0.94902 0.282353 0.231373 
0.94902 0.282353 0.231373 0.94902 0.282353 0.231373 
0.94902 0.282353 0.231373 0.94902 0.282353 0.231373 
0.94902 0.282353 0.231373 0.94902 0.282353 0.231373 
0.94902 0.282353 0.231373 0.94902 0.282353 0.231373 
0.94902 0.282353 0.231373 0.94902 0.282353 0.231373 
0.94902 0.282353 0.231373 0.94902 0.282353 0.231373 
0.94902 0.282353 0.231373 0.94902 0.282353 0.231373 
0.94902 0.282353 0.231373 0.94902 0.282353 0.231373 
0.94902 0.282353 0.231373 0.94902 0.282353 0.231373 
0.94902 0.282353 0.231373 0.94902 0.282353 0.231373 
0.94902 0.282353 0.231373 0.94902 0.282353 0.231373 
0.94902 0.282353 0.231373 0.94902 0.282353 0.231373 
0.94902 0.282353 0.231373 0.94902 0.282353 0.231373 
0.94902 0.282353 0.231373 0.94902 0.282353 0.231373 
0.94902 0.282353 0.231373 0.94902 0.282353 0.231373 
0.94902 0.282353 0.231373 0.94902 0.282353 0.231373 
0.94902 0.282353 0.231373 0.94902 0.282353 0.231373 
0.94902 0.282353 0.231373 0.94902 0.282353 0.231373 
0.94902 0.282353 0.231373 0.94902 0.282353 0.231373 
0.94902 0.282353 0.231373 0.94902 0.282353 0.231373 
0.94902 0.282353 0.231373 0.94902 0.282353 0.231373 
0.94902 0.282353 0.231373 0.94902 0.282353 0.231373 
0.94902 0.282353 0.231373 0.94902 0.282353 0.231373 
0.94902 0.282353 0.231373 0.94902 0.282353 0.231373 
0.94902 0.282353 0.231373 0.94902 0.282353 0.231373 
0.94902 0.282353 0.231373 0.94902 0.282353 0.231373 
0.94902 0.282353 0.231373 0.94902 0.282353 0.231373 
0.94902 0.282353 0.231373 0.94902 0.282353 0.231373 
0.94902 0.282353 0.231373 0.94902 0.282353 0.231373 
0.94902 0.282353 0.231373 0.94902 0.282353 0.231373 
0.94902 0.282353 0.231373 0.94902 0.282353 0.231373 
0.94902 0.282353 0.231373 0.94902 0.282353 0.231373 
0.94902 0.282353 0.231373 0.94902 0.282353 0.231373 
0.94902 0.282353 0.231373 0.94902 0.282353 0.231373 
0.94902 0.282353 0.231373 0.94902 0.282353 0.231373 
0.94902 0.282353 0.231373 0.94902 0.282353 0.231373 
0.94902 0.282353 0.231373 0.94902 0.282353 0.231373 
0.94902 0.282353 0.231373 0.94902 0.282353 0.231373 
0.94902 0.282353 0.231373 0.94902 0.282353 0.231373 
0.94902 0.282353 0.231373 0.94902 0.282353 0.231373 
0.94902 0.282353 0.231373 0.94902 0.282353 0.231373 
0.94902 0.282353 0.231373 0.94902 0.282353 0.231373 
0.94902 0.282353 0.231373 0.94902 0.282353 0.231373 
0.94902 0.282353 0.231373 0.94902 0.282353 0.231373 
0.94902 0.282353 0.231373 0.94902 0.282353 0.231373 
0.94902 0.282353 0.231373 0.94902 0.282353 0.231373 
0.94902 0.282353 0.231373 0.94902 0.282353 0.231373 
0.94902 0.282353 0.231373 0.94902 0.282353 0.231373 
0.94902 0.282353 0.231373 0.94902 0.282353 0.231373 
0.94902 0.282353 0.231373 0.94902 0.282353 0.231373 
0.94902 0.282353 0.231373 0.94902 0.282353 0.231373 
0.94902 0.282353 0.231373 0.94902 0.282353 0.231373 
0.94902 0.282353 0.231373 0.94902 0.282353 0.231373 
0.94902 0.282353 0.231373 0.94902 0.282353 0.231373 
0.94902 0.282353 0.231373 0.94902 0.282353 0.231373 
0.94902 0.282353 0.231373 0.94902 0.282353 0.231373 
0.94902 0.282353 0.231373 0.94902 0.282353 0.231373 
0.94902 0.282353 0.231373 0.94902 0.282353 0.231373 
0.94902 0.282353 0.231373 
NORMALS Normals float
-0.254515 -0.753862 -0.605734 -0.0417012 -0.828991 -0.557704 -0.0604856 -0.489637 -0.869826 
0.0284791 -0.577974 -0.815558 0.217046 -0.758115 -0.614942 -0.480182 -0.627027 -0.613403 
0.183455 -0.562977 -0.805854 0.240387 -0.807417 -0.538788 0.364429 -0.56327 -0.741564 
-0.181992 0.0904163 -0.979134 0.0994665 -0.434704 -0.895064 0.201787 0.00112885 -0.979429 
-0.47241 -0.818044 -0.328076 -0.194822 -0.980658 -0.018834 -0.0383809 -0.961658 -0.271551 
0.0639406 -0.940416 -0.333961 0.185368 -0.982613 -0.0105443 -0.470723 -0.592985 -0.653291 
-0.374188 -0.923015 -0.0895932 0.24519 -0.949001 -0.198189 -0.595003 -0.397439 -0.69858 
0.347307 -0.19969 -0.916243 0.403744 -0.556274 -0.726326 -0.624675 -0.126763 -0.770527 
-0.516068 0.101653 -0.850494 0.0572566 0.093592 -0.993963 0.231088 0.222355 -0.947183 
0.344622 -0.0278471 -0.938328 0.0209196 -0.990101 -0.138786 -0.637688 -0.607941 -0.473035 
-0.462155 -0.884887 -0.0582015 -0.426714 -0.874859 -0.229207 -0.110836 -0.977694 0.178407 
0.214061 -0.969942 -0.115714 0.408295 -0.747759 -0.523595 -0.682639 -0.730015 -0.0329029 
-0.752984 -0.362127 -0.549436 0.433348 -0.65358 -0.620519 -0.787203 -0.298382 -0.539703 
0.426786 -0.438299 -0.791042 0.479076 -0.295973 -0.826369 -0.807493 0.0263686 -0.589287 
-0.463021 0.229243 -0.856189 -0.608049 0.173844 -0.774632 -0.632726 -0.740749 -0.225718 
-0.454497 -0.865153 0.211997 0.353293 -0.88573 -0.301109 0.347219 -0.882389 -0.317535 
0.397787 -0.815004 -0.421348 -0.830892 -0.556414 -0.00473532 -0.905296 -0.245986 -0.346308 
0.510162 -0.433226 -0.743001 0.479552 -0.610683 -0.630156 -0.922724 -0.338362 -0.184639 
0.614452 -0.0608235 -0.786607 0.714007 -0.378336 -0.589115 0.551002 0.0260646 -0.834097 
0.430105 0.237592 -0.870953 -0.864641 0.0874322 -0.494724 -0.763282 0.283111 -0.580731 
0.0945095 0.469024 -0.878114 -0.779384 -0.61512 -0.119111 -0.295363 -0.907466 0.298774 
-0.065693 -0.901276 0.428236 0.188702 -0.981996 0.00867477 -0.84594 -0.497543 0.191928 
-0.477901 -0.830326 0.286653 0.467302 -0.79971 -0.376951 0.635306 -0.647483 -0.420894 
-0.945564 -0.251648 -0.206353 0.719209 -0.229725 -0.655717 0.733463 -0.291364 -0.614117 
0.630365 0.00566223 -0.776278 0.902974 -0.14814 -0.403352 -0.967375 0.00982488 -0.253158 
-0.866279 0.267456 -0.421934 -0.453175 0.437945 -0.776426 -0.789652 0.333999 -0.514678 