# vtk DataFile Version 4.2
vtk output
ASCII
DATASET POLYDATA
POINTS 8415 float
302.359 158.752 71.8397 299.547 159.67 70.9725 301.141 160.503 71.0958 
302.225 159.854 71.5604 300.419 161.45 70.8649 296.414 162.444 70.6831 
299.35 162.401 70.6768 301.699 161.834 71.1442 302.865 161.138 71.8107 
299.21 164.241 70.5412 295.776 165.635 70.4905 302.267 164.316 71.2931 
298.039 167.043 70.4235 301.39 166.513 70.9487 292.343 168.205 70.741 
300.454 167.607 70.7284 302.791 166.971 71.6306 296.895 168.869 70.4922 
301.902 168.254 71.2559 300.173 169.341 70.8284 292.295 170.843 70.9085 
302.305 169.887 71.6601 294.582 171.514 70.888 301.509 170.751 71.4646 
297.146 172.135 71.0353 299.733 171.691 71.1858 296.585 154.774 71.7751 
300.122 155.322 71.8204 302.22 155.031 72.5101 302.386 154.578 72.7388 
292.446 157.442 71.6521 302.862 155.76 72.7885 303.356 156.96 73.0661 
296.452 159.626 70.9836 303.731 160.108 72.8095 303.411 161.617 72.2277 
290.225 163.99 71.1419 303.477 164.563 72.1065 303.986 165.11 72.6069 
304.005 166.112 72.6018 283.558 168.307 71.6712 303.394 167.652 72.1001 
302.992 171.821 72.4931 285.92 172.817 71.5118 302.162 172.891 72.2993 
284.217 173.857 71.7245 296.369 174.486 71.7118 300.029 174.112 72.004 
297.598 151.617 72.4998 299.834 150.391 72.9935 302.345 151.091 73.5893 
300.84 152.004 72.7798 302.756 151.543 73.7901 303.027 151.066 74.2171 
292.462 153.503 72.3898 300.674 152.853 72.52 298.713 153.763 72.0123 
301.328 153.664 72.508 289.561 155.499 72.3733 303.053 155.338 73.0876 
303.457 155.209 73.6929 304.27 161.523 73.3309 282.952 163.853 72.0876 
277.847 165.541 72.7372 304.401 168.898 73.1794 275.971 169.718 72.7847 
304.362 169.904 73.2682 304.347 170.887 73.4284 304.749 171.363 74.062 
277.402 173.311 72.4793 300.748 175.111 72.5962 303.458 174.596 73.8214 
302.58 175.581 73.6081 281.771 176.785 72.2083 288.91 177.091 72.2474 
276.392 178.45 72.8747 279.55 180.409 72.7823 284.125 180.373 72.8689 
277.834 181.249 73.0889 281.004 181.769 73.1 300.154 147.785 73.9201 
293.519 148.525 73.6598 295.933 149.09 73.2843 302.354 148.508 74.4883 
302.64 148.953 74.5494 303.557 152.325 74.7139 304.24 157.867 74.2173 
281.076 158.829 73.1938 304.453 160.003 74.0308 273.97 163.508 73.7131 
304.756 165.118 73.8007 304.761 166.832 73.5947 305.126 167.858 74.3227 
301.887 176.738 73.8239 293.894 178.373 73.0418 297.609 177.777 73.1437 
291.785 179.253 73.2056 293.58 179.146 73.3353 300.867 178.077 74.0795 
285.526 181.766 73.475 276.269 183.127 73.8045 281.927 183.99 73.9988 
296.488 145.482 74.5594 300.302 145.442 74.8335 301.307 144.791 75.3165 
301.859 144.923 75.4603 302.443 145.512 75.5768 302.658 146.593 75.4495 
286.493 148.436 74.7651 290.137 148.076 74.2574 301.386 147.656 74.3235 
303.046 147.145 75.7763 302.692 148.368 74.8627 303.384 149.51 75.4647 
303.57 150.603 75.419 303.732 151.661 75.3991 282.377 153.204 74.2449 
303.979 153.823 75.3472 304.123 155.004 75.3306 304.628 158.854 74.846 
270.47 161.427 74.6835 304.881 160.947 75.2182 304.808 162.078 74.3822 
267.677 164.683 74.5652 305.401 169.223 75.007 262.763 171.741 74.448 
270.635 173.606 73.7229 304.517 174.514 75.0059 261.856 176.704 74.6434 
303.556 177.652 75.7389 299.948 180.463 75.0801 295.289 181.729 74.7617 
269.396 182.492 74.6522 284.818 183.438 74.0979 284.451 184.897 74.7926 
275.065 187.399 75.2642 294.761 142.825 75.7377 298.645 142.524 75.8335 
301.805 143.358 76.0628 302.415 142.796 76.5774 302.634 143.214 76.6025 
302.882 143.442 76.8709 288.277 145.094 75.6372 302.706 144.661 76.2048 
302.716 145.438 75.9003 303.064 145.439 76.4699 303.247 146.579 76.4055 
303.519 148.794 76.19 274.362 154.292 75.6496 304.642 157.47 76.027 
264.324 162.033 75.572 305.668 168.12 76.249 305.568 171.358 75.8135 
257.174 171.783 75.0787 305.499 172.875 76.1512 249.799 175.446 75.7015 
252.326 177.164 75.417 304.691 175.963 76.3466 255.904 178.903 75.2645 
302.742 179.091 75.7644 251.23 179.911 75.6609 258.801 179.855 75.2297 
301.811 179.943 75.624 269.943 183.926 74.8423 282.745 186.274 75.3257 
267.47 186.501 75.6641 270.693 186.734 75.3722 278.68 186.869 75.1575 
269.506 187.995 75.7924 271.345 188.83 75.8979 278.994 188.203 75.9249 
302.655 139.822 77.6643 302.52 140.02 77.5454 302.773 139.855 77.7877 
301.273 140.342 77.1409 302.765 140.601 77.5829 295.618 140.52 76.7447 
301.895 141.398 76.8596 302.877 140.931 77.7555 302.685 141.938 77.1824 
302.96 142.739 77.3759 303.229 144.884 77.1737 303.824 150.278 76.8483 
304.21 154.435 77.0195 304.742 158.726 76.6797 305.219 163.622 76.6791 
253.028 163.856 76.8325 252.151 167.15 76.2835 246.061 169.719 76.7818 
249.237 170.099 76.2139 251.703 170.587 75.8333 305.806 170.039 77.2107 
244.579 174.334 76.4731 305.522 173.695 76.731 246.167 176.033 76.1649 
241.933 177.708 76.8491 304.84 176.823 77.5312 304.539 177.814 77.6068 
245.189 180.14 76.3632 301.612 181.24 76.4123 303.649 180.656 77.9527 
244.199 182.06 76.6698 256.272 183.342 75.8021 297.948 183.315 76.1861 
245.874 183.795 76.6541 299.709 184.428 77.4611 247.67 185.505 76.7627 
296.039 185.281 76.9695 263.796 187.949 76.294 272.598 189.687 76.1984 
264.322 190.374 76.8456 266.489 191.145 76.8821 269.474 190.496 76.5434 
275.315 190.678 76.8804 302.716 139.199 77.9125 302.636 139.199 77.905 
302.731 139.262 77.9336 302.488 139.172 77.9703 302.158 139.14 78.0236 
302.744 139.504 77.9302 300.231 139.04 77.7061 301.5 138.735 78.4498 
289.337 140.005 77.6129 300.948 139.688 77.4402 302.853 140.552 78.0936 
280.412 144.153 77.6707 303.462 146.436 77.6825 274.742 147.503 77.7155 
303.655 148.568 77.6104 304.604 160.047 78.3938 239.21 171.638 77.8051 
240.535 173.123 77.3428 305.817 172.581 78.0722 305.55 174.227 77.4712 
304.771 178.2 78.5313 302.952 182.301 78.1908 247.675 188.593 77.595 
283.765 189.104 77.4475 280.401 190.627 77.8998 270.733 192.722 77.4851 
266.547 193.469 77.7332 298.831 136.085 79.2575 298.457 136.378 78.9992 
300.456 136.764 79.2887 300.708 136.549 79.7154 291.326 137.437 78.57 
294.861 136.504 78.7903 300.822 137.266 79.2548 300.928 137.118 79.6151 
302.639 139.185 77.9745 299.81 137.829 78.3666 300.942 137.804 78.9091 
302.371 139.186 78.1553 301.87 139.189 79.2559 302.278 139.438 78.5437 
302.621 139.542 78.1655 302.571 140.733 79.1184 302.945 141.835 78.5345 
303.368 145.844 78.3463 303.52 147.933 78.3227 267.442 149.56 78.5946 
268.171 150.023 78.2749 303.615 152.23 79.0306 304.227 157.55 78.6494 
251.363 159.396 78.3302 304.526 160.442 78.8615 247.88 162.679 78.0856 
238.984 167.498 78.743 234.955 170.634 78.9111 305.696 169.863 79.2213 
233.858 172.503 78.8846 233.704 175.44 78.7064 305.613 174.189 78.8497 
233.55 179.596 78.7923 304.688 179.618 79.3675 234.519 183.339 78.8111 
236.16 185.038 78.648 301.777 185.898 79.732 238.85 186.853 78.4685 
300.666 186.806 79.5722 236.871 187.509 78.95 240.652 188.698 78.6054 
242.916 190.625 78.8527 262.759 194.924 78.609 267.728 194.888 78.3911 
266.199 196.846 79.3306 300.257 135.814 79.8756 300.212 135.66 80.0076 
300.326 135.759 80.0088 297.262 135.17 79.6249 298.381 134.772 80.1625 
299.803 135.77 79.7735 299.439 135.147 80.3931 300.454 135.944 79.9367 
300.496 136.142 79.7746 284.692 137.611 79.6667 301.417 138.46 79.9662 
282.159 139.064 79.5986 302.705 144.295 80.0385 303.056 146.679 79.6243 
265.283 148.014 79.6901 303.14 149.565 79.808 258.795 151.427 79.7068 
246.773 158.414 79.7188 230.475 178.399 79.6644 230.507 179.396 79.6961 
303.787 182.785 79.8521 297.405 188.125 79.2243 237.798 189.833 79.4473 
248.635 193.782 79.4236 274.559 195.058 79.8343 271.187 196.116 79.6207 
269.205 196.82 79.6619 263.44 198.01 79.9214 265.06 198.202 80.0498 
298.815 133.486 81.3365 298.686 133.447 81.3222 298.864 133.556 81.3814 
292.983 132.821 80.9254 297.151 133.43 80.7783 298.23 133.095 81.5383 
299 133.999 81.1683 299.001 133.852 81.3736 299.019 134.315 80.9028 
299.868 135.551 80.9681 300.162 135.777 80.4294 300.405 135.911 80.1167 
301.019 137.83 80.6037 301.18 139.316 81.194 301.355 140.271 81.2688 
301.951 141.77 80.7669 301.827 143.341 81.3388 269.177 144.762 80.22 
252.393 153.153 80.4103 303.087 154.745 80.6103 303.14 157.363 81.0374 
304.129 162.492 80.8202 304.648 165.281 80.8517 232.377 168.058 80.27 
229.745 169.342 80.7437 229.877 174.641 79.8743 305.266 178.534 81.4138 
304.84 180.727 81.0102 230.649 181.771 79.8198 302.793 186.426 81.3164 
301.395 188.23 81.1548 299.881 189.428 81.1249 294.54 190.951 80.6958 
289.54 192.381 81.1097 278.356 194.003 80.3136 280.563 193.794 80.839 
240.982 194.699 80.7695 271.652 197.752 81.2523 265.274 200.207 81.3344 
295.242 131.371 81.7921 296.776 131.739 81.9038 297.366 131.869 82.0942 
297.455 131.592 82.5165 297.809 131.993 82.4501 297.789 132.356 81.9422 
298.078 132.53 82.2145 298.602 133.392 82.0501 298.766 133.52 81.5632 
284.742 133.717 81.687 300.001 137.196 82.2511 302.077 148.694 81.5675 
235.303 163.655 80.9691 305.066 168.763 81.5518 226.5 171.903 81.2917 
303.703 185.209 82.0048 228.338 188.06 81.5661 302.957 187.504 82.4067 
291.231 192.029 81.0324 297.841 191.713 82.1279 282.653 193.811 81.4233 
273.489 197.033 81.3641 269.963 198.893 81.7575 258.344 200.752 81.6049 
262.354 201.969 82.0237 294.665 129.254 83.0754 295.744 129.939 82.9102 
296.791 130.268 83.3204 296.484 129.719 83.6076 292.843 129.554 82.8318 
296.305 130.61 82.6355 296.953 130.839 82.9028 297.122 130.676 83.4488 
286.308 131.364 82.6621 298.929 134.861 82.9239 299.389 135.617 82.4664 
299.18 136.575 83.3216 263.074 143.862 82.2679 256.458 146.138 82.7384 
300.783 147.903 83.1369 248.567 150.267 82.7429 242.982 153.701 82.7614 
301.592 157.385 83.2741 302.843 163.042 83.3601 303.968 165.855 82.7821 
221.618 176.344 82.5977 221.492 179.303 82.6464 305.131 180.274 83.0855 
222.335 184.809 82.838 303.702 186.256 82.9545 302.728 188.714 83.0353 
225.624 190.226 82.9155 301.844 190.142 83.1369 291.845 193.022 82.0221 
299.669 192.742 83.7924 233.858 193.967 81.9565 276.622 196.728 82.6103 
[...]
POINT_DATA 8415
COLOR_SCALARS scalars 3
0.596078 0.839216 0.976471 0.596078 0.839216 0.976471 0.596078 0.839216 0.976471 
0.596078 0.839216 0.976471 0.596078 0.839216 0.976471 
0.596078 0.839216 0.976471 0.596078 0.839216 0.976471 
0.596078 0.839216 0.976471 0.596078 0.839216 0.976471 
0.596078 0.839216 0.976471 0.596078 0.839216 0.976471 
0.596078 0.839216 0.976471 0.596078 0.839216 0.976471 
0.596078 0.839216 0.976471 0.596078 0.839216 0.976471 
0.596078 0.839216 0.976471 0.596078 0.839216 0.976471 
0.596078 0.839216 0.976471 0.596078 0.839216 0.976471 
0.596078 0.839216 0.976471 0.596078 0.839216 0.976471 
0.596078 0.839216 0.976471 0.596078 0.839216 0.976471 
0.596078 0.839216 0.976471 0.596078 0.839216 0.976471 
0.596078 0.839216 0.976471 0.596078 0.839216 0.976471 
0.596078 0.839216 0.976471 0.596078 0.839216 0.976471 
0.596078 0.839216 0.976471 0.596078 0.839216 0.976471 
0.596078 0.839216 0.976471 0.596078 0.839216 0.976471 
0.596078 0.839216 0.976471 0.596078 0.839216 0.976471 
0.596078 0.839216 0.976471 0.596078 0.839216 0.976471 
0.596078 0.839216 0.976471 0.596078 0.839216 0.976471 
0.596078 0.839216 0.976471 0.596078 0.839216 0.976471 
0.596078 0.839216 0.976471 0.596078 0.839216 0.976471 
0.596078 0.839216 0.976471 0.596078 0.839216 0.976471 
0.596078 0.839216 0.976471 0.596078 0.839216 0.976471 
0.596078 0.839216 0.976471 0.596078 0.839216 0.976471 
0.596078 0.839216 0.976471 0.596078 0.839216 0.976471 
0.596078 0.839216 0.976471 0.596078 0.839216 0.976471 
0.596078 0.839216 0.976471 0.596078 0.839216 0.976471 
0.596078 0.839216 0.976471 0.596078 0.839216 0.976471 
0.596078 0.839216 0.976471 0.596078 0.839216 0.976471 
0.596078 0.839216 0.976471 0.596078 0.839216 0.976471 
0.596078 0.839216 0.976471 0.596078 0.839216 0.976471 
0.596078 0.839216 0.976471 0.596078 0.839216 0.976471 
0.596078 0.839216 0.976471 0.596078 0.839216 0.976471 
0.596078 0.839216 0.976471 0.596078 0.839216 0.976471 
0.596078 0.839216 0.976471 0.596078 0.839216 0.976471 
0.596078 0.839216 0.976471 0.596078 0.839216 0.976471 
0.596078 0.839216 0.976471 0.596078 0.839216 0.976471 
0.596078 0.839216 0.976471 0.596078 0.839216 0.976471 
0.596078 0.839216 0.976471 0.596078 0.839216 0.976471 
0.596078 0.839216 0.976471 0.596078 0.839216 0.976471 
0.596078 0.839216 0.976471 0.596078 0.839216 0.976471 
0.596078 0.839216 0.976471 0.596078 0.839216 0.976471 
0.596078 0.839216 0.976471 0.596078 0.839216 0.976471 
0.596078 0.839216 0.976471 0.596078 0.839216 0.976471 
0.596078 0.839216 0.976471 0.596078 0.839216 0.976471 
0.596078 0.839216 0.976471 0.596078 0.839216 0.976471 
0.596078 0.839216 0.976471 0.596078 0.839216 0.976471 
0.596078 0.839216 0.976471 0.596078 0.839216 0.976471 
0.596078 0.839216 0.976471 0.596078 0.839216 0.976471 
0.596078 0.839216 0.976471 0.596078 0.839216 0.976471 
0.596078 0.839216 0.976471 0.596078 0.839216 0.976471 
0.596078 0.839216 0.976471 0.596078 0.839216 0.976471 
0.596078 0.839216 0.976471 0.596078 0.839216 0.976471 
0.596078 0.839216 0.976471 0.596078 0.839216 0.976471 
0.596078 0.839216 0.976471 0.596078 0.839216 0.976471 
0.596078 0.839216 0.976471 0.596078 0.839216 0.976471 
0.596078 0.839216 0.976471 0.596078 0.839216 0.976471 
0.596078 0.839216 0.976471 0.596078 0.839216 0.976471 
0.596078 0.839216 0.976471 0.596078 0.839216 0.976471 
0.596078 0.839216 0.976471 0.596078 0.839216 0.976471 
0.596078 0.839216 0.976471 0.596078 0.839216 0.976471 
0.596078 0.839216 0.976471 0.596078 0.839216 0.976471 
0.596078 0.839216 0.976471 0.596078 0.839216 0.976471 
0.596078 0.839216 0.976471 0.596078 0.839216 0.976471 
0.596078 0.839216 0.976471 0.596078 0.839216 0.976471 
0.596078 0.839216 0.976471 0.596078 0.839216 0.976471 
0.596078 0.839216 0.976471 0.596078 0.839216 0.976471 
0.596078 0.839216 0.976471 0.596078 0.839216 0.976471 
0.596078 0.839216 0.976471 0.596078 0.839216 0.976471 
0.596078 0.839216 0.976471 0.596078 0.839216 0.976471 
0.596078 0.839216 0.976471 0.596078 0.839216 0.976471 
0.596078 0.839216 0.976471 0.596078 0.839216 0.976471 
0.596078 0.839216 0.976471 0.596078 0.839216 0.976471 
0.596078 0.839216 0.976471 0.596078 0.839216 0.976471 
0.596078 0.839216 0.976471 0.596078 0.839216 0.976471 
0.596078 0.839216 0.976471 0.596078 0.839216 0.976471 
0.596078 0.839216 0.976471 0.596078 0.839216 0.976471 
0.596078 0.839216 0.976471 0.596078 0.839216 0.976471 
0.596078 0.839216 0.976471 0.596078 0.839216 0.976471 
0.596078 0.839216 0.976471 0.596078 0.839216 0.976471 
0.596078 0.839216 0.976471 0.596078 0.839216 0.976471 
0.596078 0.839216 0.976471 0.596078 0.839216 0.976471 
0.596078 0.839216 0.976471 0.596078 0.839216 0.976471 
0.596078 0.839216 0.976471 0.596078 0.839216 0.976471 
0.596078 0.839216 0.976471 0.596078 0.839216 0.976471 
0.596078 0.839216 0.976471 0.596078 0.839216 0.976471 
0.596078 0.839216 0.976471 0.596078 0.839216 0.976471 
0.596078 0.839216 0.976471 0.596078 0.839216 0.976471 
0.596078 0.839216 0.976471 0.596078 0.839216 0.976471 
0.596078 0.839216 0.976471 0.596078 0.839216 0.976471 
0.596078 0.839216 0.976471 0.596078 0.839216 0.976471 
0.596078 0.839216 0.976471 0.596078 0.839216 0.976471 
0.596078 0.839216 0.976471 0.596078 0.839216 0.976471 
0.596078 0.839216 0.976471 0.596078 0.839216 0.976471 
0.596078 0.839216 0.976471 0.596078 0.839216 0.976471 
0.596078 0.839216 0.976471 0.596078 0.839216 0.976471 
0.596078 0.839216 0.976471 0.596078 0.839216 0.976471 
0.596078 0.839216 0.976471 0.596078 0.839216 0.976471 
0.596078 0.839216 0.976471 0.596078 0.839216 0.976471 
0.596078 0.839216 0.976471 0.596078 0.839216 0.976471 
0.596078 0.839216 0.976471 0.596078 0.839216 0.976471 
0.596078 0.839216 0.976471 0.596078 0.839216 0.976471 
0.596078 0.839216 0.976471 0.596078 0.839216 0.976471 
0.596078 0.839216 0.976471 0.596078 0.839216 0.976471 
0.596078 0.839216 0.976471 0.596078 0.839216 0.976471 
0.596078 0.839216 0.976471 0.596078 0.839216 0.976471 
0.596078 0.839216 0.976471 0.596078 0.839216 0.976471 
0.596078 0.839216 0.976471 0.596078 0.839216 0.976471 
0.596078 0.839216 0.976471 0.596078 0.839216 0.976471 
0.596078 0.839216 0.976471 0.596078 0.839216 0.976471 
0.596078 0.839216 0.976471 0.596078 0.839216 0.976471 
0.596078 0.839216 0.976471 0.596078 0.839216 0.976471 
0.596078 0.839216 0.976471 0.596078 0.839216 0.976471 
0.596078 0.839216 0.976471 0.596078 0.839216 0.976471 
0.596078 0.839216 0.976471 0.596078 0.839216 0.976471 
0.596078 0.839216 0.976471 0.596078 0.839216 0.976471 
0.596078 0.839216 0.976471 0.596078 0.839216 0.976471 
0.596078 0.839216 0.976471 0.596078 0.839216 0.976471 
0.596078 0.839216 0.976471 0.596078 0.839216 0.976471 
0.596078 0.839216 0.976471 0.596078 0.839216 0.976471 
0.596078 0.839216 0.976471 0.596078 0.839216 0.976471 
0.596078 0.839216 0.976471 0.596078 0.839216 0.976471 
0.596078 0.839216 0.976471 0.596078 0.839216 0.976471 
0.596078 0.839216 0.976471 0.596078 0.839216 0.976471 
0.596078 0.839216 0.976471 0.596078 0.839216 0.976471 
0.596078 0.839216 0.976471 0.596078 0.839216 0.976471 
0.596078 0.839216 0.976471 0.596078 0.839216 0.976471 
0.596078 0.839216 0.976471 0.596078 0.839216 0.976471 
0.596078 0.839216 0.976471 0.596078 0.839216 0.976471 
0.596078 0.839216 0.976471 0.596078 0.839216 0.976471 
0.596078 0.839216 0.976471 0.596078 0.839216 0.976471 
0.596078 0.839216 0.976471 0.596078 0.839216 0.976471 
0.596078 0.839216 0.976471 0.596078 0.839216 0.976471 
0.596078 0.839216 0.976471 0.596078 0.839216 0.976471 
0.596078 0.839216 0.976471 0.596078 0.839216 0.976471 
0.596078 0.839216 0.976471 0.596078 0.839216 0.976471 
0.596078 0.839216 0.976471 0.596078 0.839216 0.976471 
0.596078 0.839216 0.976471 0.596078 0.839216 0.976471 
0.596078 0.839216 0.976471 0.596078 0.839216 0.976471 
0.596078 0.839216 0.976471 0.596078 0.839216 0.976471 
0.596078 0.839216 0.976471 0.596078 0.839216 0.976471 
0.596078 0.839216 0.976471 0.596078 0.839216 0.976471 
0.596078 0.839216 0.976471 0.596078 0.839216 0.976471 
0.596078 0.839216 0.976471 0.596078 0.839216 0.976471 
0.596078 0.839216 0.976471 0.596078 0.839216 0.976471 
0.596078 0.839216 0.976471 0.596078 0.839216 0.976471 
0.596078 0.839216 0.976471 0.596078 0.839216 0.976471 
0.596078 0.839216 0.976471 0.596078 0.839216 0.976471 
0.596078 0.839216 0.976471 0.596078 0.839216 0.976471 
0.596078 0.839216 0.976471 0.596078 0.839216 0.976471 
0.596078 0.839216 0.976471 0.596078 0.839216 0.976471 
0.596078 0.839216 0.976471 0.596078 0.839216 0.976471 
0.596078 0.839216 0.976471 0.596078 0.839216 0.976471 
0.596078 0.839216 0.976471 0.596078 0.839216 0.976471 
0.596078 0.839216 0.976471 0.596078 0.839216 0.976471 
0.596078 0.839216 0.976471 0.596078 0.839216 0.976471 
0.596078 0.839216 0.976471 0.596078 0.839216 0.976471 
0.596078 0.839216 0.976471 0.596078 0.839216 0.976471 
0.596078 0.839216 0.976471 0.596078 0.839216 0.976471 
0.596078 0.839216 0.976471 0.596078 0.839216 0.976471 
0.596078 0.839216 0.976471 0.596078 0.839216 0.976471 
0.596078 0.839216 0.976471 0.596078 0.839216 0.976471 
0.596078 0.839216 0.976471 0.596078 0.839216 0.976471 
0.596078 0.839216 0.976471 0.596078 0.839216 0.976471 
0.596078 0.839216 0.976471 0.596078 0.839216 0.976471 
0.596078 0.839216 0.976471 0.596078 0.839216 0.976471 
0.596078 0.839216 0.976471 0.596078 0.839216 0.976471 
0.596078 0.839216 0.976471 0.596078 0.839216 0.976471 
0.596078 0.839216 0.976471 0.596078 0.839216 0.976471 
0.596078 0.839216 0.976471 0.596078 0.839216 0.976471 
0.596078 0.839216 0.976471 0.596078 0.839216 0.976471 
0.596078 0.839216 0.976471 0.596078 0.839216 0.976471 
0.596078 0.839216 0.976471 0.596078 0.839216 0.976471 
0.596078 0.839216 0.976471 0.596078 0.839216 0.976471 
0.596078 0.839216 0.976471 0.596078 0.839216 0.976471 
0.596078 0.839216 0.976471 0.596078 0.839216 0.976471 
0.596078 0.839216 0.976471 0.596078 0.839216 0.976471 
0.596078 0.839216 0.976471 0.596078 0.839216 0.976471 
0.596078 0.839216 0.976471 0.596078 0.839216 0.976471 
0.596078 0.839216 0.976471 0.596078 0.839216 0.976471 
0.596078 0.839216 0.976471 0.596078 0.839216 0.976471 
0.596078 0.839216 0.976471 0.596078 0.839216 0.976471 
0.596078 0.839216 0.976471 0.596078 0.839216 0.976471 
0.596078 0.839216 0.976471 0.596078 0.839216 0.976471 
0.596078 0.839216 0.976471 0.596078 0.839216 0.976471 
0.596078 0.839216 0.976471 0.596078 0.839216 0.976471 
0.596078 0.839216 0.976471 0.596078 0.839216 0.976471 
0.596078 0.839216 0.976471 0.596078 0.839216 0.976471 
0.596078 0.839216 0.976471 0.596078 0.839216 0.976471 
0.596078 0.839216 0.976471 0.596078 0.839216 0.976471 
0.596078 0.839216 0.976471 0.596078 0.839216 0.976471 
0.596078 0.839216 0.976471 0.596078 0.839216 0.976471 
0.596078 0.839216 0.976471 0.596078 0.839216 0.976471 
0.596078 0.839216 0.976471 0.596078 0.839216 0.976471 
0.596078 0.839216 0.976471 0.596078 0.839216 0.976471 
0.596078 0.839216 0.976471 0.596078 0.839216 0.976471 
0.596078 0.839216 0.976471 0.596078 0.839216 0.976471 
0.596078 0.839216 0.976471 0.596078 0.839216 0.976471 
0.596078 0.839216 0.976471 0.596078 0.839216 0.976471 
0.596078 0.839216 0.976471 0.596078 0.839216 0.976471 
0.596078 0.839216 0.976471 0.596078 0.839216 0.976471 
0.596078 0.839216 0.976471 0.596078 0.839216 0.976471 
0.596078 0.839216 0.976471 0.596078 0.839216 0.976471 
0.596078 0.839216 0.976471 0.596078 0.839216 0.976471 
0.596078 0.839216 0.976471 0.596078 0.839216 0.976471 
0.596078 0.839216 0.976471 0.596078 0.839216 0.976471 
0.596078 0.839216 0.976471 0.596078 0.839216 0.976471 
0.596078 0.839216 0.976471 0.596078 0.839216 0.976471 
0.596078 0.839216 0.976471 0.596078 0.839216 0.976471 
0.596078 0.839216 0.976471 0.596078 0.839216 0.976471 
0.596078 0.839216 0.976471 0.596078 0.839216 0.976471 
0.596078 0.839216 0.976471 0.596078 0.839216 0.976471 
0.596078 0.839216 0.976471 0.596078 0.839216 0.976471 
0.596078 0.839216 0.976471 0.596078 0.839216 0.976471 
0.596078 0.839216 0.976471 0.596078 0.839216 0.976471 
0.596078 0.839216 0.976471 0.596078 0.839216 0.976471 
0.596078 0.839216 0.976471 0.596078 0.839216 0.976471 
0.596078 0.839216 0.976471 0.596078 0.839216 0.976471 
0.596078 0.839216 0.976471 0.596078 0.839216 0.976471 
0.596078 0.839216 0.976471 0.596078 0.839216 0.976471 
0.596078 0.839216 0.976471 0.596078 0.839216 0.976471 
0.596078 0.839216 0.976471 0.596078 0.839216 0.976471 
0.596078 0.839216 0.976471 0.596078 0.839216 0.976471 
0.596078 0.839216 0.976471 0.596078 0.839216 0.976471 
0.596078 0.839216 0.976471 0.596078 0.839216 0.976471 
0.596078 0.839216 0.976471 0.596078 0.839216 0.976471 
0.596078 0.839216 0.976471 0.596078 0.839216 0.976471 
0.596078 0.839216 0.976471 0.596078 0.839216 0.976471 
0.596078 0.839216 0.976471 0.596078 0.839216 0.976471 
0.596078 0.839216 0.976471 0.596078 0.839216 0.976471 
0.596078 0.839216 0.976471 0.596078 0.839216 0.976471 
0.596078 0.839216 0.976471 0.596078 0.839216 0.976471 
0.596078 0.839216 0.976471 0.596078 0.839216 0.976471 
0.596078 0.839216 0.976471 0.596078 0.839216 0.976471 
0.596078 0.839216 0.976471 0.596078 0.839216 0.976471 
0.596078 0.839216 0.976471 0.596078 0.839216 0.976471 
0.596078 0.839216 0.976471 0.596078 0.839216 0.976471 
0.596078 0.839216 0.976471 0.596078 0.839216 0.976471 
0.596078 0.839216 0.976471 0.596078 0.839216 0.976471 
0.596078 0.839216 0.976471 0.596078 0.839216 0.976471 
0.596078 0.839216 0.976471 0.596078 0.839216 0.976471 
0.596078 0.839216 0.976471 0.596078 0.839216 0.976471 
0.596078 0.839216 0.976471 0.596078 0.839216 0.976471 
0.596078 0.839216 0.976471 0.596078 0.839216 0.976471 
0.596078 0.839216 0.976471 0.596078 0.839216 0.976471 
0.596078 0.839216 0.976471 0.596078 0.839216 0.976471 
0.596078 0.839216 0.976471 0.596078 0.839216 0.976471 
0.596078 0.839216 0.976471 0.596078 0.839216 0.976471 
0.596078 0.839216 0.976471 0.596078 0.839216 0.976471 
0.596078 0.839216 0.976471 0.596078 0.839216 0.976471 
0.596078 0.839216 0.976471 0.596078 0.839216 0.976471 
0.596078 0.839216 0.976471 0.596078 0.839216 0.976471 
0.596078 0.839216 0.976471 0.596078 0.839216 0.976471 
0.596078 0.839216 0.976471 0.596078 0.839216 0.976471 
0.596078 0.839216 0.976471 0.596078 0.839216 0.976471 
0.596078 0.839216 0.976471 0.596078 0.839216 0.976471 
0.596078 0.839216 0.976471 0.596078 0.839216 0.976471 
0.596078 0.839216 0.976471 0.596078 0.839216 0.976471 
0.596078 0.839216 0.976471 0.596078 0.839216 0.976471 
0.596078 0.839216 0.976471 0.596078 0.839216 0.976471 
0.596078 0.839216 0.976471 0.596078 0.839216 0.976471 
0.596078 0.839216 0.976471 0.596078 0.839216 0.976471 
0.596078 0.839216 0.976471 0.596078 0.839216 0.976471 
0.596078 0.839216 0.976471 0.596078 0.839216 0.976471 
0.596078 0.839216 0.976471 0.596078 0.839216 0.976471 
0.596078 0.839216 0.976471 0.596078 0.839216 0.976471 
0.596078 0.839216 0.976471 0.596078 0.839216 0.976471 
0.596078 0.839216 0.976471 0.596078 0.839216 0.976471 
0.596078 0.839216 0.976471 0.596078 0.839216 0.976471 
0.596078 0.839216 0.976471 0.596078 0.839216 0.976471 
0.596078 0.839216 0.976471 0.596078 0.839216 0.976471 
0.596078 0.839216 0.976471 0.596078 0.839216 0.976471 
0.596078 0.839216 0.976471 0.596078 0.839216 0.976471 
0.596078 0.839216 0.976471 0.596078 0.839216 0.976471 
0.596078 0.839216 0.976471 0.596078 0.839216 0.976471 
0.596078 0.839216 0.976471 0.596078 0.839216 0.976471 
0.596078 0.839216 0.976471 0.596078 0.839216 0.976471 
0.596078 0.839216 0.976471 0.596078 0.839216 0.976471 
0.596078 0.839216 0.976471 0.596078 0.839216 0.976471 
0.596078 0.839216 0.976471 0.596078 0.839216 0.976471 
0.596078 0.839216 0.976471 0.596078 0.839216 0.976471 
0.596078 0.839216 0.976471 0.596078 0.839216 0.976471 
0.596078 0.839216 0.976471 0.596078 0.839216 0.976471 
0.596078 0.839216 0.976471 0.596078 0.839216 0.976471 
0.596078 0.839216 0.976471 0.596078 0.839216 0.976471 
0.596078 0.839216 0.976471 0.596078 0.839216 0.976471 
0.596078 0.839216 0.976471 0.596078 0.839216 0.976471 
0.596078 0.839216 0.976471 0.596078 0.839216 0.976471 
0.596078 0.839216 0.976471 0.596078 0.839216 0.976471 
0.596078 0.839216 0.976471 0.596078 0.839216 0.976471 
0.596078 0.839216 0.976471 0.596078 0.839216 0.976471 
0.596078 0.839216 0.976471 0.596078 0.839216 0.976471 
0.596078 0.839216 0.976471 0.596078 0.839216 0.976471 
0.596078 0.839216 0.976471 0.596078 0.839216 0.976471 
0.596078 0.839216 0.976471 0.596078 0.839216 0.976471 
0.596078 0.839216 0.976471 0.596078 0.839216 0.976471 
0.596078 0.839216 0.976471 0.596078 0.839216 0.976471 
0.596078 0.839216 0.976471 0.596078 0.839216 0.976471 
0.596078 0.839216 0.976471 0.596078 0.839216 0.976471 
0.596078 0.839216 0.976471 0.596078 0.839216 0.976471 
0.596078 0.839216 0.976471 0.596078 0.839216 0.976471 
0.596078 0.839216 0.976471 0.596078 0.839216 0.976471 
0.596078 0.839216 0.976471 0.596078 0.839216 0.976471 
0.596078 0.839216 0.976471 0.596078 0.839216 0.976471 
0.596078 0.839216 0.976471 0.596078 0.839216 0.976471 
0.596078 0.839216 0.976471 0.596078 0.839216 0.976471 
0.596078 0.839216 0.976471 0.596078 0.839216 0.976471 
0.596078 0.839216 0.976471 0.596078 0.839216 0.976471 
0.596078 0.839216 0.976471 0.596078 0.839216 0.976471 
0.596078 0.839216 0.976471 0.596078 0.839216 0.976471 
0.596078 0.839216 0.976471 0.596078 0.839216 0.976471 
0.596078 0.839216 0.976471 0.596078 0.839216 0.976471 
0.596078 0.839216 0.976471 0.596078 0.839216 0.976471 
0.596078 0.839216 0.976471 0.596078 0.839216 0.976471 
0.596078 0.839216 0.976471 0.596078 0.839216 0.976471 
0.596078 0.839216 0.976471 0.596078 0.839216 0.976471 
0.596078 0.839216 0.976471 0.596078 0.839216 0.976471 
0.596078 0.839216 0.976471 0.596078 0.839216 0.976471 
0.596078 0.839216 0.976471 0.596078 0.839216 0.976471 
0.596078 0.839216 0.976471 0.596078 0.839216 0.976471 
0.596078 0.839216 0.976471 0.596078 0.839216 0.976471 
0.596078 0.839216 0.976471 0.596078 0.839216 0.976471 
0.596078 0.839216 0.976471 0.596078 0.839216 0.976471 
0.596078 0.839216 0.976471 0.596078 0.839216 0.976471 
0.596078 0.839216 0.976471 0.596078 0.839216 0.976471 
0.596078 0.839216 0.976471 0.596078 0.839216 0.976471 
0.596078 0.839216 0.976471 0.596078 0.839216 0.976471 
0.596078 0.839216 0.976471 0.596078 0.839216 0.976471 
0.596078 0.839216 0.976471 0.596078 0.839216 0.976471 
0.596078 0.839216 0.976471 0.596078 0.839216 0.976471 
0.596078 0.839216 0.976471 0.596078 0.839216 0.976471 
0.596078 0.839216 0.976471 0.596078 0.839216 0.976471 
0.596078 0.839216 0.976471 0.596078 0.839216 0.976471 
0.596078 0.839216 0.976471 0.596078 0.839216 0.976471 
0.596078 0.839216 0.976471 0.596078 0.839216 0.976471 
0.596078 0.839216 0.976471 0.596078 0.839216 0.976471 
0.596078 0.839216 0.976471 0.596078 0.839216 0.976471 
0.596078 0.839216 0.976471 0.596078 0.839216 0.976471 
0.596078 0.839216 0.976471 0.596078 0.839216 0.976471 
0.596078 0.839216 0.976471 0.596078 0.839216 0.976471 
0.596078 0.839216 0.976471 0.596078 0.839216 0.976471 
0.596078 0.839216 0.976471 0.596078 0.839216 0.976471 
0.596078 0.839216 0.976471 0.596078 0.839216 0.976471 
0.596078 0.839216 0.976471 0.596078 0.839216 0.976471 
0.596078 0.839216 0.976471 0.596078 0.839216 0.976471 
0.596078 0.839216 0.976471 0.596078 0.839216 0.976471 
0.596078 0.839216 0.976471 0.596078 0.839216 0.976471 
0.596078 0.839216 0.976471 0.596078 0.839216 0.976471 
0.596078 0.839216 0.976471 0.596078 0.839216 0.976471 
0.596078 0.839216 0.976471 0.596078 0.839216 0.976471 
0.596078 0.839216 0.976471 0.596078 0.839216 0.976471 
0.596078 0.839216 0.976471 0.596078 0.839216 0.976471 
0.596078 0.839216 0.976471 0.596078 0.839216 0.976471 
0.596078 0.839216 0.976471 0.596078 0.839216 0.976471 
0.596078 0.839216 0.976471 0.596078 0.839216 0.976471 
0.596078 0.839216 0.976471 0.596078 0.839216 0.976471 
0.596078 0.839216 0.976471 0.596078 0.839216 0.976471 
0.596078 0.839216 0.976471 0.596078 0.839216 0.976471 
0.596078 0.839216 0.976471 0.596078 0.839216 0.976471 
0.596078 0.839216 0.976471 0.596078 0.839216 0.976471 
0.596078 0.839216 0.976471 0.596078 0.839216 0.976471 
0.596078 0.839216 0.976471 0.596078 0.839216 0.976471 