# vtk DataFile Version 4.2
vtk output
ASCII
DATASET POLYDATA
POINTS 368 float
305.176 177.498 122.349 304.018 178.082 121.979 305.524 177.771 122.177 
305.578 178.229 121.96 305.012 179.126 121.779 307.441 179.102 121.912 
307.867 179.064 122.033 301.924 175.587 123.137 301.593 175.611 123.084 
301.885 175.336 123.376 301.432 175.805 123.004 301.447 176.223 122.869 
302.411 176.397 122.737 302.876 175.912 123.243 302.067 177.385 122.489 
301.448 177.61 122.66 306.156 177.608 122.471 307.038 178.004 122.363 
309.078 178.905 122.542 310.943 179.027 123.176 309.562 179.484 122.517 
311.102 179.251 123.099 311.353 179.478 123.192 302.046 179.862 122.556 
303.182 179.702 122.175 306.927 179.974 121.934 308.523 179.98 122.19 
310.11 180.011 122.659 303.593 180.82 122.38 305.602 180.367 121.982 
311.231 180.295 123.166 300.763 175.443 123.592 300.652 175.639 123.456 
301.186 175.262 123.551 300.512 175.826 123.507 301.104 175.876 123.096 
302.462 175.471 123.552 300.632 176.586 123.227 305.861 177.159 123.323 
309.531 178.21 123.367 310.964 178.844 123.485 311.947 179.189 124.027 
312.267 179.478 124.136 312.597 179.811 124.346 312.474 180.376 124.1 
312.652 180.143 124.294 300.222 180.56 123.884 309.553 181.325 122.805 
307.108 183.075 123.448 308.837 182.95 123.52 301.425 175.026 123.752 
301.391 174.958 123.905 301.208 175.095 123.9 301.673 175.052 123.754 
301.541 174.972 123.874 300.548 175.628 123.613 300.594 175.559 123.805 
300.883 175.321 123.837 300.299 176.397 123.75 302.793 175.641 123.897 
306.627 177.285 123.821 307.386 177.48 123.68 310.22 178.331 124.263 
311.695 178.984 124.142 312.494 179.545 124.455 312.722 179.781 124.658 
299.655 179.893 124.78 300.027 180.6 124.158 312.89 180.881 124.62 
300.063 181.139 124.327 312.387 181.865 124.422 311.211 182.852 124.275 
302.298 183.482 124.587 301.344 174.996 123.99 301.488 174.999 124.004 
300.481 175.809 123.998 301.336 175.162 124.139 300.569 175.928 124.275 
300.837 175.638 124.306 299.962 177.917 124.531 305.605 177.093 124.739 
307.941 177.685 124.793 300.406 182.551 124.961 303.765 184.524 125.335 
309.293 184.797 125.709 301.233 176.655 125.26 302.822 176.694 125.432 
300.535 177.411 125.331 300.973 177.084 125.444 306.347 177.446 125.163 
307.049 177.842 125.611 312.948 180.063 125.461 313.175 180.361 125.793 
313.349 180.578 125.783 313.364 180.537 125.88 299.235 181.244 125.837 
313.363 180.95 125.933 313.401 180.657 125.908 312.956 182.249 125.491 
311.109 184.322 125.943 305.791 185.382 126.425 302.173 177.469 126.058 
304.278 178.48 126.859 306.34 178.654 126.789 299.233 180.764 126.801 
313.312 180.612 126.015 298.974 181.653 126.998 299.126 181.036 126.187 
313.438 181.427 126.424 313.379 181.432 126.75 298.954 182.101 127.111 
313.404 181.755 126.508 313.418 181.662 126.708 298.985 182.227 126.822 
299.066 182.454 126.777 299.638 183.195 126.591 299.555 183.301 126.924 
312.636 183.004 126.042 301.569 184.756 127.174 307.66 185.476 126.724 
309.68 185.348 127.318 299.529 180.396 126.9 309.814 180.414 127.766 
311.518 180.343 127.149 299.213 181.635 127.48 299.024 181.811 127.308 
299.022 182.171 127.424 312.972 181.44 127.2 313.234 181.492 127.009 
313.296 181.724 126.966 299.22 182.876 127.275 312.647 182.986 127.046 
300.562 184.324 127.293 300.402 184.294 127.556 310.18 185.229 127.296 
304.33 185.557 128.125 308.59 185.484 127.77 299.842 182.151 128.046 
299.449 182.703 127.863 299.81 182.687 128.097 300.993 182.732 128.597 
303.457 182.431 128.916 307.207 182.287 128.99 299.737 183.539 127.811 
300.16 184.117 127.665 300.135 184.049 127.879 300.962 184.607 128.18 
301.34 184.895 128.801 310.599 185.085 127.747 310.829 184.915 127.92 
301.796 185.207 128.697 309.049 185.324 128.198 312.31 182.654 127.909 
299.994 183.762 127.98 300.32 183.716 128.292 304.7 183.582 129.244 
306.623 183.476 129.271 308.897 183.69 129.227 309.274 183.948 129.184 
311.531 183.501 128.367 312.156 183.085 127.93 300.853 184.236 128.514 
301.995 184.451 129.064 303.468 184.228 129.205 307.971 183.943 129.274 
310.507 183.899 128.903 311.318 183.956 128.496 311.458 184.097 128.209 
301.265 185.33 129.207 301.195 185.383 129.245 301.274 185.257 129.131 
301.452 185.15 129.093 301.714 184.817 129.03 311.06 184.478 128.348 
301.402 185.261 129.054 301.709 185.264 128.993 308.672 185.151 128.599 
308.68 184.547 129.088 310.185 184.304 128.909 301.27 185.352 129.201 
301.46 185.28 129.133 301.875 185.14 129.06 302.426 185.158 128.997 
309.081 184.815 128.866 310.581 184.55 128.616 311.783 184.138 326.702 
311.63 184.184 326.649 311.908 183.982 326.844 304.882 185.218 326.298 
304.377 184.982 326.292 305.773 184.874 325.972 307.696 185.149 325.873 
308.345 185.256 326.013 310.399 184.98 326.391 311.697 184.204 326.794 
310.73 184.771 326.482 308.133 185.589 326.135 308.759 185.556 326.371 
310.591 185.009 326.565 306.863 185.73 326.182 307.777 185.713 326.16 
310.13 182.686 326.407 302.562 184.017 326.413 303.696 183.315 326.251 
311.819 183.634 326.799 312.197 183.359 327.048 300.381 184.603 326.866 
300.378 184.646 326.828 300.689 184.553 326.866 300.481 184.472 326.951 
300.74 184.218 326.936 306.001 184.351 325.895 310.136 184.227 326.206 
311.161 184.218 326.574 312.235 183.611 327.236 300.477 184.637 326.858 
300.702 184.614 327.032 301.183 184.789 327.109 311.505 184.443 327.132 
302.143 185.003 327.05 308.217 185.8 326.664 308.118 185.735 326.311 
309.972 185.362 326.717 301.288 180.953 327.366 307.809 180.629 327.153 
299.211 181.883 327.8 299.054 182.173 327.836 299.09 182.586 327.836 
298.855 182.228 328.017 312.718 182.539 327.651 298.958 182.808 328.019 
298.796 182.759 328.228 299.341 183.093 327.865 300.599 183.551 327.063 
299.032 183.012 328.169 299.837 183.589 327.94 300.449 184.523 326.995 
300.481 184.171 327.394 312.073 184.009 327.501 312.475 183.544 327.826 
301.146 184.694 327.492 304.558 185.609 327.429 298.786 181.166 328.476 
299.63 179.932 328.732 298.719 181.529 328.416 311.579 180.638 327.824 
312.927 181.364 328.121 313.234 181.263 328.45 313.33 181.015 328.732 
313.362 181.381 328.648 313.289 181.742 328.619 298.75 182.735 328.425 
298.87 182.912 328.355 303.546 185.449 327.965 310.496 185.155 327.634 
308.401 185.749 327.543 303.218 176.785 329.97 301.06 178.321 328.888 
308.053 178.368 329.08 300.081 178.996 329.045 302.203 178.72 328.395 
312.596 180.107 328.924 312.307 179.724 329.314 298.717 181.183 328.732 
299.138 180.241 329.155 313.212 180.495 329.142 313.191 180.658 328.847 
313.343 180.789 329.051 298.727 181.643 329.145 313.388 181.485 328.872 
299.052 182.805 328.87 304.53 185.417 328.779 309.225 185.39 328.314 
300.771 176.043 330.568 302.892 175.913 330.89 305.7 177.391 329.909 
307.414 177.686 329.928 299.722 178.298 330.204 311.544 179.029 329.868 
299.495 178.959 330.254 312.607 179.813 329.677 313.249 180.583 329.344 
313.075 180.556 329.762 298.885 181.219 329.559 298.88 181.686 329.505 
312.879 182.664 329.436 312.063 183.611 329.715 306.608 185.119 329.553 
301.344 175.031 331.414 301.291 174.934 331.655 301.621 175.021 331.489 
301.478 174.93 331.594 301.684 175.007 331.652 300.702 175.484 331.217 
300.576 175.501 331.508 301.032 175.226 331.273 301.637 175.174 331.292 
302.013 175.249 331.51 303.538 176.098 331.186 299.845 177.637 330.766 
309.621 178.026 330.642 299.517 179.164 330.737 312.004 179.232 330.492 
312.43 179.665 330.216 312.885 180.787 330.301 300.199 182.692 330.573 
311.756 183.053 330.636 302.129 183.713 330.58 301.317 174.944 331.823 
301.092 175.08 331.793 301.506 174.948 331.766 300.381 175.817 331.513 
300.765 175.328 331.762 300.347 176.038 331.676 303.031 175.708 331.666 
308.991 177.778 331.291 311.8 179.142 331.076 312.124 179.573 330.934 
312.514 180.348 330.865 312.65 181.4 330.819 312.468 181.139 331.122 
299.869 181.468 331.15 312.081 182.015 331.174 311.738 182.098 331.389 
302.975 183.314 331.307 301.289 175.022 331.921 301.483 175.048 331.948 
300.734 175.465 331.916 301.325 175.254 332.081 302.179 175.582 332.287 
300.211 177.062 331.819 303.953 176.281 332.212 300.406 177.346 332.103 
300.079 177.775 331.711 308.442 177.69 331.747 300.079 178.641 331.82 
311.443 180.093 332.079 300.643 180.578 332.111 301.605 180.929 332.485 
311.026 180.622 332.331 302.344 181.501 332.479 301.183 175.695 332.266 
302.171 175.913 332.593 303.808 176.735 332.855 301.548 177.612 332.899 
302.064 177.259 333.048 304.481 176.962 332.838 308.341 177.877 332.316 
307.813 178.128 332.957 309.966 178.749 332.412 302.347 178.58 333.288 
309.414 178.784 332.824 309.891 179.085 332.767 309.949 179.406 332.868 
311.213 179.59 332.071 309.644 179.537 333.023 303.803 179.898 333.431 
305.046 180.72 333.268 302.415 176.364 332.832 305.116 177.538 333.112 
304.148 178.132 333.424 306.713 178.834 333.424 304.737 179.444 333.546 
305.604 179.449 333.532 301.195 185.383 129.245 301.274 185.257 129.131 
311.63 184.184 326.649 306.001 184.351 325.895 
POLYGONS 720 2880
3 2 0 3 
3 3 0 1 
3 3 6 16 
3 2 3 16 
3 1 4 3 
3 5 6 3 
3 7 33 8 
3 33 7 9 
3 7 10 11 
3 8 10 7 
3 12 9 7 
3 12 7 11 
3 13 9 12 
3 13 12 0 
3 14 11 37 
3 15 14 37 
3 12 11 14 
3 1 12 14 
3 12 1 0 
3 23 14 15 
3 0 2 16 
3 16 6 17 
3 6 18 39 
3 39 18 19 
3 14 4 1 
3 26 18 6 
3 20 18 26 
3 21 19 18 
3 24 14 23 
3 4 14 24 
3 4 29 3 
3 3 25 5 
3 29 25 3 
3 25 6 5 
3 20 26 47 
3 18 20 27 
3 27 20 47 
3 21 18 30 
3 30 18 27 
3 30 22 21 
3 72 24 23 
3 72 28 24 
3 4 24 29 
3 29 24 28 
3 26 6 25 
3 26 25 29 
3 31 32 33 
3 53 33 9 
3 32 34 35 
3 10 35 11 
3 10 33 35 
3 33 32 35 
3 8 33 10 
3 36 53 9 
3 58 37 34 
3 35 34 11 
3 11 34 37 
3 9 13 36 
3 13 0 59 
3 13 59 36 
3 16 38 0 
3 0 38 59 
3 16 17 38 
3 61 17 39 
3 46 37 58 
3 15 37 23 
3 39 17 6 
3 39 19 62 
3 19 22 40 
3 19 40 62 
3 22 42 41 
3 40 22 41 
3 23 37 46 
3 19 21 22 
3 42 22 30 
3 44 45 42 
3 44 42 30 
3 43 42 45 
3 27 47 30 
3 68 44 30 
3 70 68 30 
3 23 46 72 
3 26 49 47 
3 30 47 71 
3 71 70 30 
3 28 72 29 
3 26 29 48 
3 49 26 48 
3 71 47 49 
3 48 29 72 
3 50 51 52 
3 50 53 54 
3 51 50 54 
3 55 32 31 
3 55 31 56 
3 56 31 57 
3 52 33 50 
3 52 57 33 
3 57 31 33 
3 53 50 33 
3 34 55 58 
3 32 55 34 
3 53 36 54 
3 38 80 59 
3 17 60 38 
3 38 60 80 
3 17 61 60 
3 58 66 46 
3 63 40 41 
3 41 42 63 
3 42 64 63 
3 64 42 43 
3 65 64 43 
3 45 44 68 
3 45 68 65 
3 45 65 43 
3 67 46 66 
3 67 66 69 
3 46 67 69 
3 48 72 83 
3 49 48 71 
3 51 73 52 
3 51 54 74 
3 73 51 74 
3 56 75 55 
3 57 76 56 
3 52 76 57 
3 52 73 76 
3 74 76 73 
3 55 75 58 
3 56 77 75 
3 78 77 56 
3 76 78 56 
3 36 59 54 
3 75 79 58 
3 59 80 89 
3 61 39 62 
3 81 61 62 
3 58 79 66 
3 62 40 63 
3 64 65 63 
3 63 65 91 
3 66 107 69 
3 65 68 93 
3 95 69 107 
3 69 95 82 
3 46 69 82 
3 82 72 46 
3 70 98 68 
3 70 71 117 
3 83 100 48 
3 48 119 71 
3 71 84 99 
3 119 48 100 
3 71 119 84 
3 85 76 74 
3 78 76 85 
3 77 87 79 
3 75 77 79 
3 78 85 77 
3 85 87 77 
3 86 85 74 
3 54 86 74 
3 88 87 85 
3 59 89 54 
3 80 60 89 
3 89 60 61 
3 61 90 89 
3 81 90 61 
3 62 90 81 
3 79 104 66 
3 91 90 62 
3 63 91 62 
3 104 107 66 
3 92 91 93 
3 91 65 93 
3 92 93 94 
3 93 96 97 
3 93 68 96 
3 94 93 97 
3 96 68 108 
3 68 98 108 
3 82 95 115 
3 98 70 117 
3 82 115 72 
3 83 72 118 
3 99 117 71 
3 84 119 120 
3 99 84 120 
3 100 83 135 
3 119 100 135 
3 88 85 86 
3 87 88 101 
3 86 101 88 
3 86 54 89 
3 87 121 79 
3 101 121 87 
3 89 102 86 
3 102 101 86 
3 102 89 90 
3 121 104 79 
3 90 103 102 
3 122 103 90 
3 122 90 91 
3 123 122 91 
3 92 105 91 
3 92 94 105 
3 104 106 107 
3 105 96 108 
3 97 96 105 
3 97 105 94 
3 108 109 105 
3 112 109 108 
3 111 112 108 
3 106 110 113 
3 106 113 107 
3 107 113 95 
3 108 98 111 
3 115 114 116 
3 115 113 114 
3 115 95 113 
3 98 117 111 
3 115 116 72 
3 72 116 132 
3 118 72 132 
3 149 117 99 
3 131 117 149 
3 134 99 120 
3 120 119 136 
3 102 103 121 
3 102 121 101 
3 91 105 123 
3 106 124 125 
3 121 106 104 
3 121 124 106 
3 123 105 127 
3 105 109 127 
3 106 125 110 
3 125 126 110 
3 128 127 109 
3 128 109 129 
3 129 109 112 
3 114 113 110 
3 114 110 126 
3 114 126 130 
3 116 130 143 
3 114 130 116 
3 111 117 112 
3 112 117 131 
3 132 144 133 
3 132 116 144 
3 148 149 134 
3 149 99 134 
3 83 175 135 
3 119 135 136 
3 121 103 142 
3 124 126 125 
3 124 121 137 
3 126 124 137 
3 137 121 141 
3 122 123 152 
3 141 140 137 
3 142 141 121 
3 122 142 103 
3 152 142 122 
3 123 127 152 
3 127 128 129 
3 137 139 126 
3 139 138 126 
3 142 155 141 
3 156 155 142 
3 152 165 142 
3 129 112 152 
3 129 152 127 
3 126 138 130 
3 130 138 143 
3 139 143 138 
3 154 143 139 
3 137 154 139 
3 140 154 137 
3 112 131 152 
3 144 143 145 
3 144 116 143 
3 144 145 133 
3 132 133 146 
3 147 118 146 
3 118 132 146 
3 118 150 83 
3 147 150 118 
3 83 150 175 
3 136 135 175 
3 120 136 151 
3 134 120 148 
3 120 151 148 
3 172 140 141 
3 162 141 155 
3 153 143 154 
3 154 140 172 
3 141 162 172 
3 155 163 162 
3 142 164 156 
3 157 142 158 
3 157 164 142 
3 152 159 165 
3 159 166 165 
3 160 159 152 
3 152 131 160 
3 145 143 153 
3 145 153 154 
3 172 161 154 
3 161 145 154 
3 155 182 163 
3 156 182 155 
3 165 158 142 
3 131 149 167 
3 131 167 159 
3 131 159 160 
3 159 167 166 
3 170 171 168 
3 170 168 169 
3 161 146 145 
3 145 146 133 
3 171 147 172 
3 171 170 147 
3 146 161 147 
3 172 147 161 
3 167 149 173 
3 174 365 364 
3 147 365 174 
3 147 174 150 
3 150 174 175 
3 136 175 176 
3 151 136 176 
3 148 151 183 
3 151 176 183 
3 173 149 148 
3 157 177 164 
3 157 158 177 
3 182 162 163 
3 158 165 178 
3 165 166 173 
3 178 165 173 
3 166 167 173 
3 168 179 169 
3 168 171 180 
3 179 168 180 
3 171 172 181 
3 180 171 181 
3 172 162 182 
3 172 182 181 
3 164 177 156 
3 177 182 156 
3 158 183 177 
3 178 184 158 
3 184 183 158 
3 173 184 178 
3 174 364 179 
3 180 174 179 
3 175 174 180 
3 181 175 180 
3 182 175 181 
3 176 175 182 
3 177 176 182 
3 183 176 177 
3 148 183 184 
3 173 148 184 
3 192 193 212 
3 191 192 212 
3 186 194 185 
3 187 185 194 
3 188 189 241 
3 199 188 241 
3 188 199 190 
3 191 190 200 
3 196 197 192 
3 196 192 200 
3 200 192 191 
3 193 192 197 
3 198 193 197 
3 195 193 198 
3 200 190 199 
3 203 191 224 
3 224 212 201 
3 202 189 203 
3 212 224 191 
3 201 212 204 
3 207 208 209 
3 206 207 209 
3 208 202 210 
3 209 208 210 
3 203 189 188 
3 211 203 188 
3 191 203 367 
3 204 212 213 
3 185 213 366 
3 185 204 213 
3 214 205 204 
3 214 204 187 
3 185 187 204 
3 208 207 215 
3 216 208 215 
3 216 217 208 
3 219 202 208 
3 189 202 219 
3 211 188 190 
3 191 211 190 
3 213 212 193 
3 194 213 218 
3 194 186 213 
3 218 213 198 
3 193 195 213 
3 198 213 195 
3 218 187 194 
3 208 217 219 
3 200 220 221 
3 221 197 196 
3 221 220 197 
3 198 197 222 
3 197 220 222 
3 196 200 221 
3 223 203 224 
3 224 201 258 
3 258 201 245 
3 226 233 223 
3 225 226 223 
3 203 223 233 
3 245 201 205 
3 205 229 246 
3 227 228 231 
3 226 228 227 
3 226 227 232 
3 233 226 232 
3 203 233 202 
3 230 227 231 
3 232 227 230 
3 205 201 204 
3 230 231 234 
3 232 230 234 
3 232 234 235 
3 236 206 209 
3 236 207 206 
3 232 237 233 
3 232 235 237 
3 233 237 210 
3 236 209 237 
3 210 237 209 
3 202 233 210 
3 214 238 239 
3 187 238 214 
3 229 205 214 
3 239 229 214 
3 216 215 207 
3 236 216 207 
3 216 240 217 
3 216 237 240 
3 216 236 237 
3 240 253 217 
3 254 218 198 
3 254 286 218 
3 286 238 218 
3 238 187 218 
3 253 219 217 
3 189 219 241 
3 219 253 241 
3 199 241 255 
3 199 255 200 
3 254 198 222 
3 276 224 258 
3 243 223 260 
3 223 224 260 
3 223 243 242 
3 246 247 248 
3 225 242 244 
3 228 225 244 
3 223 242 225 
3 246 245 205 
3 250 247 246 
3 249 248 247 
3 250 249 247 
3 231 228 251 
3 226 225 228 
3 246 229 250 
3 251 252 231 
3 250 229 239 
3 231 252 234 
3 237 235 240 
3 254 272 286 
3 241 271 255 
3 200 255 220 
3 272 254 222 
3 272 222 220 
3 260 275 256 
3 273 260 256 
3 273 259 257 
3 260 273 257 
3 275 260 224 
3 276 275 224 
3 258 262 278 
3 262 261 265 
3 263 242 264 
3 279 243 259 
3 279 264 243 
3 264 242 243 
3 257 259 243 
3 260 257 243 
3 245 262 258 
3 261 262 245 
3 265 261 266 
3 265 266 267 
3 242 263 244 
3 261 245 246 
3 266 261 246 
3 248 266 246 
3 266 248 267 
3 267 248 269 
3 244 268 228 
3 268 244 263 
3 249 269 248 
3 228 268 251 
3 305 251 268 
3 250 285 269 
3 249 250 269 
3 252 251 270 
3 270 251 305 
3 239 286 285 
3 239 285 250 
3 252 270 234 
3 234 270 235 
3 235 270 305 
3 240 235 253 
3 235 305 253 
3 239 238 286 
3 253 271 241 
3 272 220 255 
3 274 296 273 
3 273 293 259 
3 256 274 273 
3 256 275 298 
3 256 298 274 
3 276 258 300 
3 259 277 279 
3 278 300 258 
3 278 262 303 
3 265 280 262 
3 262 280 303 
3 264 301 263 
3 264 279 301 
3 281 282 265 
3 282 280 265 
3 265 267 281 
3 283 263 301 
3 267 282 281 
3 269 282 267 
3 283 284 268 
3 263 283 268 
3 284 305 268 
3 284 283 305 
3 287 255 271 
3 272 255 287 
3 288 290 291 
3 289 288 291 
3 291 290 292 
3 293 294 311 
3 293 295 289 
3 294 293 289 
3 289 295 288 
3 288 295 296 
3 290 288 296 
3 297 292 290 
3 296 297 290 
3 296 295 273 
3 296 274 297 
3 295 293 273 
3 274 298 314 
3 293 299 259 
3 298 275 331 
3 276 315 275 
3 276 300 315 
3 259 299 277 
3 300 316 315 
3 300 278 316 
3 277 299 279 
3 299 301 279 
3 278 302 316 
3 303 302 278 
3 280 282 304 
3 301 321 283 
3 282 269 304 
3 304 269 319 
3 285 319 269 
3 321 305 283 
3 319 306 322 
3 285 306 319 
3 286 357 306 
3 306 285 286 
3 253 305 307 
3 272 357 286 
3 271 253 324 
3 287 271 324 
3 272 287 357 
3 289 308 309 
3 291 310 289 
3 289 310 308 
3 310 291 292 
3 327 311 294 
3 327 294 312 
3 312 294 289 
3 312 289 309 
3 292 297 329 
3 327 313 311 
3 297 314 329 
3 274 314 297 
3 311 299 293 
3 275 334 331 
3 275 315 334 
3 316 302 317 
3 302 303 317 
3 317 303 280 
3 318 317 280 
3 280 304 318 
3 318 304 320 
3 319 320 304 
3 306 323 322 
3 305 321 307 
3 306 357 323 
3 307 324 253 
3 308 325 309 
3 308 310 326 
3 325 308 326 
3 310 292 326 
3 309 327 312 
3 309 328 327 
3 309 325 328 
3 326 328 325 
3 326 292 329 
3 313 330 299 
3 311 313 299 
3 314 331 329 
3 298 331 314 
3 330 332 333 
3 330 333 299 
3 351 334 315 
3 333 335 299 
3 335 301 299 
3 317 336 316 
3 335 337 301 
3 317 320 336 
3 317 318 320 
3 301 337 321 
3 336 320 339 
3 338 321 337 
3 340 321 338 
3 320 323 339 
3 319 322 323 
3 320 319 323 
3 324 321 340 
3 340 357 324 
3 339 323 357 
3 324 307 321 
3 357 287 324 
3 328 341 327 
3 341 328 326 
3 327 358 313 
3 327 341 358 
3 358 326 342 
3 358 341 326 
3 342 326 329 
3 342 329 358 
3 358 332 330 
3 313 358 330 
3 329 343 358 
3 331 343 329 
3 332 344 333 
3 358 344 332 
3 344 358 345 
3 331 346 343 
3 331 359 346 
3 348 334 347 
3 334 351 347 
3 333 344 335 
3 350 335 344 
3 350 344 345 
3 331 348 359 
3 334 348 331 
3 347 351 348 
3 315 316 349 
3 351 315 349 
3 338 335 350 
3 350 356 338 
3 352 351 349 
3 352 349 353 
3 349 316 353 
3 316 354 353 
3 316 336 354 
3 338 337 335 
3 336 339 354 
3 354 339 353 
3 356 357 338 
3 357 340 338 
3 356 362 357 
3 362 363 357 
3 353 339 355 
3 355 339 357 
3 358 343 345 
3 343 346 345 
3 346 360 345 
3 360 350 345 
3 359 360 346 
3 360 356 350 
3 359 362 360 
3 348 363 359 
3 363 362 359 
3 361 363 348 
3 348 355 361 
3 351 352 355 
3 352 353 355 
3 362 356 360 
3 351 355 348 
3 361 357 363 
3 355 357 361 

POINT_DATA 368
COLOR_SCALARS scalars 3
1 0.564706 0.623529 1 0.564706 0.623529 1 0.564706 0.623529 
1 0.564706 0.623529 1 0.564706 0.623529 
1 0.564706 0.623529 1 0.564706 0.623529 
1 0.564706 0.623529 1 0.564706 0.623529 
1 0.564706 0.623529 1 0.564706 0.623529 
1 0.564706 0.623529 1 0.564706 0.623529 
1 0.564706 0.623529 1 0.564706 0.623529 
1 0.564706 0.623529 1 0.564706 0.623529 
1 0.564706 0.623529 1 0.564706 0.623529 
1 0.564706 0.623529 1 0.564706 0.623529 
1 0.564706 0.623529 1 0.564706 0.623529 
1 0.564706 0.623529 1 0.564706 0.623529 
1 0.564706 0.623529 1 0.564706 0.623529 
1 0.564706 0.623529 1 0.564706 0.623529 
1 0.564706 0.623529 1 0.564706 0.623529 
1 0.564706 0.623529 1 0.564706 0.623529 
1 0.564706 0.623529 1 0.564706 0.623529 
1 0.564706 0.623529 1 0.564706 0.623529 
1 0.564706 0.623529 1 0.564706 0.623529 
1 0.564706 0.623529 1 0.564706 0.623529 
1 0.564706 0.623529 1 0.564706 0.623529 
1 0.564706 0.623529 1 0.564706 0.623529 
1 0.564706 0.623529 1 0.564706 0.623529 
1 0.564706 0.623529 1 0.564706 0.623529 
1 0.564706 0.623529 1 0.564706 0.623529 
1 0.564706 0.623529 1 0.564706 0.623529 
1 0.564706 0.623529 1 0.564706 0.623529 
1 0.564706 0.623529 1 0.564706 0.623529 
1 0.564706 0.623529 1 0.564706 0.623529 
1 0.564706 0.623529 1 0.564706 0.623529 
1 0.564706 0.623529 1 0.564706 0.623529 
1 0.564706 0.623529 1 0.564706 0.623529 
1 0.564706 0.623529 1 0.564706 0.623529 
1 0.564706 0.623529 1 0.564706 0.623529 
1 0.564706 0.623529 1 0.564706 0.623529 
1 0.564706 0.623529 1 0.564706 0.623529 
1 0.564706 0.623529 1 0.564706 0.623529 
1 0.564706 0.623529 1 0.564706 0.623529 
1 0.564706 0.623529 1 0.564706 0.623529 
1 0.564706 0.623529 1 0.564706 0.623529 
1 0.564706 0.623529 1 0.564706 0.623529 
1 0.564706 0.623529 1 0.564706 0.623529 
1 0.564706 0.623529 1 0.564706 0.623529 
1 0.564706 0.623529 1 0.564706 0.623529 
1 0.564706 0.623529 1 0.564706 0.623529 
1 0.564706 0.623529 1 0.564706 0.623529 
1 0.564706 0.623529 1 0.564706 0.623529 
1 0.564706 0.623529 1 0.564706 0.623529 
1 0.564706 0.623529 1 0.564706 0.623529 
1 0.564706 0.623529 1 0.564706 0.623529 
1 0.564706 0.623529 1 0.564706 0.623529 
1 0.564706 0.623529 1 0.564706 0.623529 
1 0.564706 0.623529 1 0.564706 0.623529 
1 0.564706 0.623529 1 0.564706 0.623529 
1 0.564706 0.623529 1 0.564706 0.623529 
1 0.564706 0.623529 1 0.564706 0.623529 
1 0.564706 0.623529 1 0.564706 0.623529 
1 0.564706 0.623529 1 0.564706 0.623529 
1 0.564706 0.623529 1 0.564706 0.623529 
1 0.564706 0.623529 1 0.564706 0.623529 
1 0.564706 0.623529 1 0.564706 0.623529 
1 0.564706 0.623529 1 0.564706 0.623529 
1 0.564706 0.623529 1 0.564706 0.623529 
1 0.564706 0.623529 1 0.564706 0.623529 
1 0.564706 0.623529 1 0.564706 0.623529 
1 0.564706 0.623529 1 0.564706 0.623529 
1 0.564706 0.623529 1 0.564706 0.623529 
1 0.564706 0.623529 1 0.564706 0.623529 
1 0.564706 0.623529 1 0.564706 0.623529 
1 0.564706 0.623529 1 0.564706 0.623529 
1 0.564706 0.623529 1 0.564706 0.623529 
1 0.564706 0.623529 1 0.564706 0.623529 
1 0.564706 0.623529 1 0.564706 0.623529 
1 0.564706 0.623529 1 0.564706 0.623529 
1 0.564706 0.623529 1 0.564706 0.623529 
1 0.564706 0.623529 1 0.564706 0.623529 
1 0.564706 0.623529 1 0.564706 0.623529 
1 0.564706 0.623529 1 0.564706 0.623529 
1 0.564706 0.623529 1 0.564706 0.623529 
1 0.564706 0.623529 1 0.564706 0.623529 
1 0.564706 0.623529 1 0.564706 0.623529 
1 0.564706 0.623529 1 0.564706 0.623529 
1 0.564706 0.623529 1 0.564706 0.623529 
1 0.564706 0.623529 1 0.564706 0.623529 
1 0.564706 0.623529 1 0.564706 0.623529 
1 0.564706 0.623529 1 0.564706 0.623529 
1 0.564706 0.623529 1 0.564706 0.623529 
1 0.564706 0.623529 1 0.564706 0.623529 
1 0.564706 0.623529 1 0.564706 0.623529 
1 0.564706 0.623529 1 0.564706 0.623529 
1 0.564706 0.623529 1 0.564706 0.623529 
1 0.564706 0.623529 1 0.564706 0.623529 
1 0.564706 0.623529 1 0.564706 0.623529 
1 0.564706 0.623529 1 0.564706 0.623529 
1 0.564706 0.623529 1 0.564706 0.623529 
1 0.564706 0.623529 1 0.564706 0.623529 
1 0.564706 0.623529 1 0.564706 0.623529 
1 0.564706 0.623529 1 0.564706 0.623529 
1 0.564706 0.623529 1 0.564706 0.623529 
1 0.564706 0.623529 1 0.564706 0.623529 
1 0.564706 0.623529 1 0.564706 0.623529 
1 0.564706 0.623529 1 0.564706 0.623529 
1 0.564706 0.623529 1 0.564706 0.623529 
1 0.564706 0.623529 1 0.564706 0.623529 
1 0.564706 0.623529 1 0.564706 0.623529 
1 0.564706 0.623529 1 0.564706 0.623529 
1 0.564706 0.623529 1 0.564706 0.623529 
1 0.564706 0.623529 1 0.564706 0.623529 
1 0.564706 0.623529 1 0.564706 0.623529 
1 0.564706 0.623529 1 0.564706 0.623529 
1 0.564706 0.623529 1 0.564706 0.623529 
1 0.564706 0.623529 1 0.564706 0.623529 
1 0.564706 0.623529 1 0.564706 0.623529 
1 0.564706 0.623529 1 0.564706 0.623529 
1 0.564706 0.623529 1 0.564706 0.623529 
1 0.564706 0.623529 1 0.564706 0.623529 
1 0.564706 0.623529 1 0.564706 0.623529 
1 0.564706 0.623529 1 0.564706 0.623529 
1 0.564706 0.623529 1 0.564706 0.623529 
1 0.564706 0.623529 1 0.564706 0.623529 
1 0.564706 0.623529 1 0.564706 0.623529 
1 0.564706 0.623529 1 0.564706 0.623529 
1 0.564706 0.623529 1 0.564706 0.623529 
1 0.564706 0.623529 1 0.564706 0.623529 
1 0.564706 0.623529 1 0.564706 0.623529 
1 0.564706 0.623529 1 0.564706 0.623529 
1 0.564706 0.623529 1 0.564706 0.623529 
1 0.564706 0.623529 1 0.564706 0.623529 
1 0.564706 0.623529 1 0.564706 0.623529 
1 0.564706 0.623529 1 0.564706 0.623529 
1 0.564706 0.623529 1 0.564706 0.623529 
1 0.564706 0.623529 1 0.564706 0.623529 
1 0.564706 0.623529 1 0.564706 0.623529 
1 0.564706 0.623529 1 0.564706 0.623529 
1 0.564706 0.623529 1 0.564706 0.623529 
1 0.564706 0.623529 1 0.564706 0.623529 
1 0.564706 0.623529 1 0.564706 0.623529 
1 0.564706 0.623529 1 0.564706 0.623529 
1 0.564706 0.623529 1 0.564706 0.623529 
1 0.564706 0.623529 1 0.564706 0.623529 
1 0.564706 0.623529 1 0.564706 0.623529 
1 0.564706 0.623529 1 0.564706 0.623529 
1 0.564706 0.623529 1 0.564706 0.623529 
1 0.564706 0.623529 1 0.564706 0.623529 
1 0.564706 0.623529 1 0.564706 0.623529 
1 0.564706 0.623529 1 0.564706 0.623529 
1 0.564706 0.623529 1 0.564706 0.623529 
1 0.564706 0.623529 1 0.564706 0.623529 
1 0.564706 0.623529 1 0.564706 0.623529 
1 0.564706 0.623529 1 0.564706 0.623529 
1 0.564706 0.623529 1 0.564706 0.623529 
1 0.564706 0.623529 1 0.564706 0.623529 
1 0.564706 0.623529 1 0.564706 0.623529 
1 0.564706 0.623529 1 0.564706 0.623529 
1 0.564706 0.623529 1 0.564706 0.623529 
1 0.564706 0.623529 1 0.564706 0.623529 
1 0.564706 0.623529 1 0.564706 0.623529 
1 0.564706 0.623529 1 0.564706 0.623529 
1 0.564706 0.623529 1 0.564706 0.623529 
1 0.564706 0.623529 1 0.564706 0.623529 
1 0.564706 0.623529 1 0.564706 0.623529 
1 0.564706 0.623529 1 0.564706 0.623529 
1 0.564706 0.623529 1 0.564706 0.623529 
1 0.564706 0.623529 1 0.564706 0.623529 
1 0.564706 0.623529 1 0.564706 0.623529 
1 0.564706 0.623529 1 0.564706 0.623529 
1 0.564706 0.623529 1 0.564706 0.623529 
1 0.564706 0.623529 1 0.564706 0.623529 
1 0.564706 0.623529 1 0.564706 0.623529 
1 0.564706 0.623529 1 0.564706 0.623529 
1 0.564706 0.623529 1 0.564706 0.623529 
1 0.564706 0.623529 1 0.564706 0.623529 
1 0.564706 0.623529 1 0.564706 0.623529 
1 0.564706 0.623529 1 0.564706 0.623529 
1 0.564706 0.623529 1 0.564706 0.623529 
1 0.564706 0.623529 1 0.564706 0.623529 
1 0.564706 0.623529 1 0.564706 0.623529 
1 0.564706 0.623529 1 0.564706 0.623529 
1 0.564706 0.623529 1 0.564706 0.623529 
1 0.564706 0.623529 1 0.564706 0.623529 
1 0.564706 0.623529 1 0.564706 0.623529 
1 0.564706 0.623529 1 0.564706 0.623529 
1 0.564706 0.623529 1 0.564706 0.623529 
1 0.564706 0.623529 
NORMALS Normals float
0.160126 -0.688064 -0.707762 -0.0674013 -0.275772 -0.958857 0.112104 -0.5186 -0.847636 
0.0999305 -0.286474 -0.952862 -0.0655913 0.018758 -0.99767 0.160849 -0.0975133 -0.98215 
0.238818 -0.31228 -0.919482 0.122494 -0.551523 -0.825117 -0.062861 -0.595466 -0.800918 
0.225405 -0.732462 -0.642411 -0.155002 -0.42686 -0.890935 -0.268656 -0.230276 -0.935306 
0.109767 -0.489132 -0.865275 0.38154 -0.742412 -0.550683 -0.261987 -0.0961134 -0.960273 
-0.44226 -0.0219661 -0.896618 0.20972 -0.651224 -0.729332 0.264745 -0.776799 -0.571396 
0.366487 -0.40562 -0.837353 0.438216 -0.720813 -0.537025 0.374659 -0.138392 -0.916776 
0.437799 -0.292977 -0.849998 0.647414 -0.395311 -0.651601 -0.421509 0.213418 -0.881353 
-0.273826 0.2203 -0.936209 0.105495 0.166914 -0.980311 0.185705 0.215947 -0.958582 
0.446402 -0.147709 -0.882557 -0.250773 0.423344 -0.870571 0.0120652 0.33909 -0.940677 
0.488285 0.11414 -0.865188 -0.548869 -0.772072 -0.320388 -0.528829 -0.525178 -0.66673 
-0.262926 -0.737971 -0.621505 -0.724257 -0.204215 -0.658596 -0.428214 -0.337952 -0.838106 
0.457472 -0.842578 -0.284222 -0.617474 -0.0572356 -0.784506 0.306899 -0.913359 -0.26756 
0.322814 -0.79493 -0.51369 0.443801 -0.782159 -0.437342 0.607661 -0.691892 -0.389914 
0.71799 -0.395537 -0.572749 0.80181 -0.350412 -0.484057 0.648156 0.00822753 -0.761463 
0.798329 -0.147978 -0.583757 -0.671437 0.215249 -0.709112 0.257596 0.307707 -0.915948 
0.0280406 0.714109 -0.699473 0.121578 0.632978 -0.764564 -0.183317 -0.830509 -0.525976 
-0.227432 -0.973077 -0.0373657 -0.618405 -0.785568 -0.0214046 0.18113 -0.837885 -0.514919 
0.32601 -0.944954 0.027921 -0.840019 -0.497725 -0.215959 -0.689598 -0.679315 0.25097 
-0.575756 -0.81414 0.0753693 -0.94604 -0.154837 -0.284665 0.476819 -0.861554 -0.174266 
0.269081 -0.95966 -0.0815374 0.240138 -0.969728 -0.0442973 0.343502 -0.938564 0.0332313 
0.522918 -0.852002 0.0254918 0.710256 -0.68499 -0.162253 0.846922 -0.514141 -0.135581 
-0.941495 -0.0639607 -0.330903 -0.852125 0.114031 -0.510764 0.849003 0.116258 -0.51544 
-0.823473 0.191037 -0.534225 0.616499 0.428912 -0.660275 0.286539 0.6395 -0.713397 
-0.336098 0.647705 -0.683751 -0.381111 -0.797824 0.467152 0.109121 -0.795004 0.596709 
-0.888934 -0.408525 0.207131 -0.405332 -0.657505 0.635132 -0.693883 -0.481866 0.5351 
-0.544289 -0.603015 0.583201 -0.929064 -0.314495 0.194764 0.366032 -0.930399 0.0194464 
0.213953 -0.94223 0.257733 -0.597709 0.498872 -0.627591 -0.141077 0.895349 -0.422429 
0.0712444 0.772792 -0.630648 -0.299986 -0.560636 0.771813 0.0983457 -0.679288 0.727252 
-0.611939 -0.457926 0.644852 -0.315951 -0.507472 0.801653 0.320401 -0.896988 0.304558 
0.217481 -0.848692 0.482103 0.381707 -0.848199 0.367231 0.458689 -0.819274 0.344084 
0.913705 -0.301225 -0.272774 0.824419 -0.549993 0.13357 -0.863608 0.179943 -0.470958 
0.990841 0.0786147 -0.109792 0.984176 -0.116733 0.133311 0.847932 0.362976 -0.386341 
0.436431 0.80948 -0.392772 -0.0546521 0.905133 -0.421601 -0.207745 -0.504458 0.838072 
0.0446234 -0.584325 0.810292 0.0488904 -0.535561 0.84308 -0.91202 -0.356947 0.20201 
0.64693 -0.497175 0.578186 -0.943382 -0.251487 0.216297 -0.962827 -0.148559 -0.225599 
0.994875 0.0208285 -0.0989423 0.847171 -0.336935 0.410824 -0.988663 0.11321 0.0986363 