# vtk DataFile Version 4.2
vtk output
ASCII
DATASET POLYDATA
POINTS 607 float
394.803 198.041 150.415 397.522 197.973 150.333 398.212 199.073 150.264 
394.947 200.846 150.193 397.852 201.033 150.533 392.67 202.515 150.815 
396.184 202.051 150.629 392.565 202.921 151.005 393.265 203.306 151.202 
394.554 196.271 151.35 398.275 195.355 151.61 394.443 196.852 150.994 
399.414 196.6 151 397.144 197.388 150.516 392.89 198.055 150.952 
391.383 200.746 151.251 390.439 203.041 152.261 391.455 203.112 151.665 
392.185 203.147 151.334 395.265 203.073 151.251 397.486 202.803 151.523 
398.599 202.572 151.727 391.484 204.191 152.587 393.804 203.966 152.006 
391.831 196.6 152.129 390.572 198.945 152.087 402.721 200.832 152.052 
404.317 200.642 152.512 399.824 202.184 151.958 397.767 202.956 151.822 
398.879 202.706 152.124 390.512 203.925 152.798 390.318 204.051 153.15 
395.118 203.966 152.725 397.786 203.155 152.307 391.413 195.491 153.404 
409.576 194.698 153.41 406.831 199.692 153.238 405.065 200.702 153.04 
391.259 204.958 153.736 393.553 204.591 153.298 409.515 192.662 154.11 
397.584 193.178 153.855 389.928 196.187 154.166 411.323 195.795 154.079 
409.547 198.158 153.716 411.411 197.801 154.739 409.918 198.689 154.366 
406.448 200.15 153.486 409.386 199.026 154.496 388.397 200.858 154.888 
405.817 200.491 153.533 407.059 200.086 154.148 388.703 202.015 154.583 
401.78 201.862 153.918 398.749 203.004 153.155 389.613 204.078 154.761 
389.984 204.364 154.371 390.819 205.099 154.702 405.678 190.743 155.313 
412.795 191.054 155.704 413.885 195.922 155.463 413.092 196.847 155.35 
411.392 198.068 154.939 412.616 197.456 155.508 388.411 199.296 155.036 
405.869 200.494 154.749 394.074 204.702 154.441 390.493 204.984 155.015 
392.348 205.224 154.697 391.398 205.343 155.338 390.15 194.644 155.772 
415.458 194.271 156.389 415.709 195.187 156.698 388.287 197.349 156.346 
415.132 196.444 156.64 411.871 198.197 155.898 390.383 205.068 156.247 
390.744 205.24 156.022 410.282 188.488 157.07 413.42 188.321 158.028 
404.159 189.674 157.46 416.833 193.695 157.828 416.04 195.88 157.288 
415.89 196.212 157.372 387.767 199.773 157.357 393.593 204.861 156.54 
390.801 205.21 157.074 391.038 205.319 156.526 412.997 187.853 158.356 
414.76 189.451 157.982 416.768 192.401 158.012 417.482 194.137 158.908 
416.815 195.667 158.353 387.821 201.506 158.599 402.236 189.727 158.89 
417.327 192.062 159.018 389.113 194.589 158.417 414.824 197.171 158.57 
391.508 205.247 157.646 392.056 205.071 158.612 415.331 188.191 160.176 
393.428 191.462 160.162 389.811 193.28 160.063 391.219 204.915 159.738 
414.628 187.618 160.406 400.58 189.726 160.572 391.448 191.951 160.92 
389.542 193.318 160.933 418.381 192.922 160.88 388.665 194.411 160.845 
418.476 193.949 161.816 418.181 194.594 161.525 388.393 203.042 162.064 
389.212 204.044 161.957 409.814 186.541 162.322 417.616 190.368 161.118 
390.217 192.483 161.873 418.496 192.192 161.554 389.647 193.037 161.911 
417.642 195.35 162.238 388.128 202.416 162.673 389.703 204.354 162.46 
416.753 188.572 162.535 417.508 189.722 161.908 418.757 192.12 163.045 
389.041 193.691 162.433 388.251 195.072 162.061 418.699 193.512 163.278 
387.658 200.094 162.989 415.192 187.205 163.193 387.824 196.627 163.217 
417.727 195.18 163.85 387.698 199.286 163.769 389.697 204.226 164.022 
413.957 186.322 164.656 418.585 190.752 164.268 388.341 194.929 163.96 
388.015 201.238 164.708 397.649 201.718 164.401 391.509 204.455 164.491 
390.996 191.421 165.923 393.716 203.695 165.759 390.936 204.296 165.282 
390.435 204.242 165.139 411.024 185.611 167.734 413.492 185.967 166.853 
416.093 187.218 166.994 389.508 193.095 166.87 410.792 195.911 166.578 
405.945 196.935 167.109 388.444 199.558 167.331 414.845 186.382 168.069 
417.746 188.861 167.375 418.925 192.249 167.658 394.206 202.968 167.857 
390.525 203.407 167.779 412.119 185.349 169.759 418.608 193.593 168.836 
418.385 194.115 168.648 389.83 202.548 168.84 391.092 203.38 168.498 
416.777 195.252 170.225 389.309 200.436 169.297 390.437 202.508 169.797 
392.765 202.979 169.763 390.658 202.823 169.534 391.099 203.098 169.305 
417.687 194.35 171.012 415.101 195.814 170.294 417.227 194.901 170.791 
390.201 201.431 170.402 391.089 202.407 170.546 391.6 202.99 169.864 
394.403 189.693 172.218 417.246 194.589 172.553 391.007 201.299 171.393 
391.338 201.962 171.189 397.405 188.545 173.265 414.903 195.748 172.82 
391.221 199.881 172.444 391.839 202.082 171.389 393.883 201.568 172.573 
414.527 186.534 173.809 416.805 188.383 173.024 393.966 190.614 174.12 
391.148 194.447 172.812 417.477 193.738 174.086 400.036 197.58 174.369 
397.185 199.589 174.105 395.997 200.325 173.842 392.571 200.714 173.417 
392.653 201.029 173.154 393.15 201.171 173.234 415.247 187.27 174.683 
417.525 193.074 174.743 415.983 195.142 174.425 416.379 194.698 175.171 
392.426 199.11 174.154 395.881 200.165 174.458 393.308 200.757 173.858 
393.751 200.651 174.169 394.259 200.975 173.686 410.768 185.4 174.89 
396.202 189.632 175.525 416.857 189.944 175.761 393.572 191.801 174.954 
393.47 199.942 174.674 395.457 200.228 174.631 394.123 200.721 174.13 
394.677 200.155 174.889 417.095 192.267 176.285 416.729 193.674 176.529 
415.627 194.982 176.482 416.096 194.576 176.764 395.152 199.147 175.864 
396.743 199.342 175.759 397.37 199.083 176.029 394.886 199.762 175.314 
395.483 199.6 175.521 414.297 187.421 177.103 415.023 188.708 178.125 
416.425 193.786 177.332 416.21 194.291 177.189 397.584 198.84 176.556 
399.395 189.734 178.342 416.373 193.208 177.892 415.063 194.954 178.129 
402.888 196.469 178.662 403.93 196.13 178.898 399.509 197.893 178.103 
397.73 198.358 177.395 399.665 197.749 178.442 407.494 187.336 178.95 
402.984 189.211 179.596 414.843 189.936 179.653 415.772 193.057 179.022 
414.946 194.661 179.181 402.771 196.477 179.38 404.608 195.896 179.541 
412.522 195.4 179.712 413.052 195.38 179.45 400.894 197.276 178.747 
401.837 196.796 179.482 400.17 197.485 178.718 401.435 196.872 179.529 
408.874 188.279 180.271 403.309 190.052 180.586 400.813 192.079 180.406 
414.86 191.749 180.364 401.142 194.68 180.669 414.826 194.122 179.977 
401.161 195.224 180.543 413.713 194.799 180.251 414.112 194.486 180.381 
399.346 196.532 179.506 403.288 196.064 180.067 405.409 195.573 180.195 
408.549 195.323 180.405 400.493 196.704 179.687 399.344 197.416 178.946 
399.939 197.199 179.182 401.237 196.695 179.774 404.815 189.871 180.872 
410.854 189.69 181.322 403.686 190.353 180.903 407.368 189.947 181.441 
412.174 190.037 181.257 402.241 192.316 181.045 403.016 192.061 181.258 
414.028 192.05 181.076 402.882 193.579 181.331 414.162 193.665 180.855 
402.912 194.14 181.286 403.293 194.452 181.294 413.818 193.916 181.004 
413.221 194.755 180.639 401.608 196.043 180.316 404.247 195.268 180.878 
409.217 189.919 181.541 411.386 191.775 182.099 408.34 192.7 182.255 
411.814 192.395 182.155 412.461 193.069 181.97 409.065 193.487 182.19 
403.969 194.519 181.345 410.405 193.734 182.175 403.958 195.01 181.1 
409.42 194.596 181.456 412.166 194.53 181.287 412.048 192.836 182.15 
411.369 193.296 182.24 410.711 190.226 273.733 410.407 191.425 273.308 
413.338 191.074 274.029 406.677 192.382 273.253 409.365 192.23 273.135 
413.923 191.966 274.122 405.007 193.777 273.615 407.02 193.647 273.353 
409.819 193.485 273.289 412.31 193.305 273.563 406.403 194.504 273.732 
406.717 194.175 273.539 408.647 194.158 273.531 411.393 193.923 273.572 
407.719 194.738 273.879 408.124 194.996 274.16 412.186 194.327 273.921 
412.876 194.397 274.087 412.766 194.704 274.354 407.749 188.908 274.652 
408.828 188.915 274.575 404.019 191.568 273.914 402.177 192.594 274.371 
414.632 191.884 274.723 404.341 192.785 273.677 401.857 194.696 274.545 
402.179 194.984 274.539 402.223 195.385 274.726 406.387 194.899 274.111 
413.23 194.56 274.334 413.66 194.421 274.471 414.156 194.212 274.68 
402.312 195.819 275.039 403.476 195.356 274.619 404.091 189.743 274.776 
415.251 190.464 275.752 400.67 193.122 274.957 399.738 195.14 275.469 
415.126 193.826 275.404 413.998 194.579 274.864 401.63 195.667 275.028 
414.098 194.823 275.355 401.578 196.671 275.988 407.7 187.27 276.47 
414.123 188.461 276.42 414.797 189.312 276.085 399.935 190.382 276.281 
399.226 191.017 276.274 398.712 192.61 276.023 416.272 192.195 276.713 
406.213 195.701 275.692 415.187 194.477 276.179 401.524 196.871 276.387 
401.837 196.837 276.625 401.008 196.936 276.303 409.763 186.38 277.688 
406.575 187.142 277.087 416.43 191.267 277.148 416.315 193.373 277.205 
396.622 195.32 277.244 397.84 196.2 276.646 396.717 197.671 277.779 
400.299 197.449 277.161 396.862 198.599 278.392 412.019 186.434 278.146 
416.398 190.043 277.794 396.078 191.306 278.373 395.867 191.035 278.707 
417.028 192.525 278.58 396.047 193.87 277.688 416.039 194.311 277.812 
414.331 195.519 278.098 395.628 197.801 278.477 399.419 197.984 278.481 
395.97 198.916 279.021 398.21 198.528 278.54 414.444 187.494 278.266 
395.712 190.708 279.173 395.512 190.348 279.769 415.787 194.811 278.478 
415.157 195.293 278.792 394.661 198.675 279.553 395.197 199.503 279.862 
395.812 199.404 279.622 404.914 186.545 280.718 401.384 187.961 279.205 
396.592 189.576 279.984 394.129 191.583 280.068 417.446 192.752 279.994 
393.617 198.795 280.387 395.652 200.155 280.821 411.311 185.42 280.745 
398.859 188.397 280.817 394.258 190.49 281.272 392.913 191.844 281.596 
396.107 200.122 281.078 392.959 200.847 282.216 395.117 200.568 281.527 
395.187 189.535 282.324 403.769 195.816 282.239 391.57 196.084 282.078 
392.016 197.536 281.609 395.688 200.598 282.073 392.179 201.075 282.984 
394.534 201.026 282.204 409.697 185.235 283.251 416.881 188.372 282.369 
391.768 192.051 283.476 417.391 194.395 282.488 413.605 196.002 283.878 
396.824 200.151 282.915 391.587 201.686 284 394.36 189.629 284.349 
392.024 191.331 284.571 418.607 191.112 284.685 418.543 192.13 284.153 
390.795 193.578 284.078 403.037 196.178 283.755 415.206 195.861 284.593 
[...]
POINT_DATA 607
COLOR_SCALARS scalars 3
1 0.729412 0.52549 1 0.729412 0.52549 1 0.729412 0.52549 
1 0.729412 0.52549 1 0.729412 0.52549 
1 0.729412 0.52549 1 0.729412 0.52549 
1 0.729412 0.52549 1 0.729412 0.52549 
1 0.729412 0.52549 1 0.729412 0.52549 
1 0.729412 0.52549 1 0.729412 0.52549 
1 0.729412 0.52549 1 0.729412 0.52549 
1 0.729412 0.52549 1 0.729412 0.52549 
1 0.729412 0.52549 1 0.729412 0.52549 
1 0.729412 0.52549 1 0.729412 0.52549 
1 0.729412 0.52549 1 0.729412 0.52549 
1 0.729412 0.52549 1 0.729412 0.52549 
1 0.729412 0.52549 1 0.729412 0.52549 
1 0.729412 0.52549 1 0.729412 0.52549 
1 0.729412 0.52549 1 0.729412 0.52549 
1 0.729412 0.52549 1 0.729412 0.52549 
1 0.729412 0.52549 1 0.729412 0.52549 
1 0.729412 0.52549 1 0.729412 0.52549 
1 0.729412 0.52549 1 0.729412 0.52549 
1 0.729412 0.52549 1 0.729412 0.52549 
1 0.729412 0.52549 1 0.729412 0.52549 
1 0.729412 0.52549 1 0.729412 0.52549 
1 0.729412 0.52549 1 0.729412 0.52549 
1 0.729412 0.52549 1 0.729412 0.52549 
1 0.729412 0.52549 1 0.729412 0.52549 
1 0.729412 0.52549 1 0.729412 0.52549 
1 0.729412 0.52549 1 0.729412 0.52549 
1 0.729412 0.52549 1 0.729412 0.52549 
1 0.729412 0.52549 1 0.729412 0.52549 
1 0.729412 0.52549 1 0.729412 0.52549 
1 0.729412 0.52549 1 0.729412 0.52549 
1 0.729412 0.52549 1 0.729412 0.52549 
1 0.729412 0.52549 1 0.729412 0.52549 
1 0.729412 0.52549 1 0.729412 0.52549 
1 0.729412 0.52549 1 0.729412 0.52549 
1 0.729412 0.52549 1 0.729412 0.52549 
1 0.729412 0.52549 1 0.729412 0.52549 
1 0.729412 0.52549 1 0.729412 0.52549 
1 0.729412 0.52549 1 0.729412 0.52549 
1 0.729412 0.52549 1 0.729412 0.52549 
1 0.729412 0.52549 1 0.729412 0.52549 
1 0.729412 0.52549 1 0.729412 0.52549 
1 0.729412 0.52549 1 0.729412 0.52549 
1 0.729412 0.52549 1 0.729412 0.52549 
1 0.729412 0.52549 1 0.729412 0.52549 
1 0.729412 0.52549 1 0.729412 0.52549 
1 0.729412 0.52549 1 0.729412 0.52549 
1 0.729412 0.52549 1 0.729412 0.52549 
1 0.729412 0.52549 1 0.729412 0.52549 
1 0.729412 0.52549 1 0.729412 0.52549 
1 0.729412 0.52549 1 0.729412 0.52549 
1 0.729412 0.52549 1 0.729412 0.52549 
1 0.729412 0.52549 1 0.729412 0.52549 
1 0.729412 0.52549 1 0.729412 0.52549 
1 0.729412 0.52549 1 0.729412 0.52549 
1 0.729412 0.52549 1 0.729412 0.52549 
1 0.729412 0.52549 1 0.729412 0.52549 
1 0.729412 0.52549 1 0.729412 0.52549 
1 0.729412 0.52549 1 0.729412 0.52549 
1 0.729412 0.52549 1 0.729412 0.52549 
1 0.729412 0.52549 1 0.729412 0.52549 
1 0.729412 0.52549 1 0.729412 0.52549 
1 0.729412 0.52549 1 0.729412 0.52549 
1 0.729412 0.52549 1 0.729412 0.52549 
1 0.729412 0.52549 1 0.729412 0.52549 
1 0.729412 0.52549 1 0.729412 0.52549 
1 0.729412 0.52549 1 0.729412 0.52549 
1 0.729412 0.52549 1 0.729412 0.52549 
1 0.729412 0.52549 1 0.729412 0.52549 
1 0.729412 0.52549 1 0.729412 0.52549 
1 0.729412 0.52549 1 0.729412 0.52549 
1 0.729412 0.52549 1 0.729412 0.52549 
1 0.729412 0.52549 1 0.729412 0.52549 
1 0.729412 0.52549 1 0.729412 0.52549 
1 0.729412 0.52549 1 0.729412 0.52549 
1 0.729412 0.52549 1 0.729412 0.52549 
1 0.729412 0.52549 1 0.729412 0.52549 
1 0.729412 0.52549 1 0.729412 0.52549 
1 0.729412 0.52549 1 0.729412 0.52549 
1 0.729412 0.52549 1 0.729412 0.52549 
1 0.729412 0.52549 1 0.729412 0.52549 
1 0.729412 0.52549 1 0.729412 0.52549 
1 0.729412 0.52549 1 0.729412 0.52549 
1 0.729412 0.52549 1 0.729412 0.52549 
1 0.729412 0.52549 1 0.729412 0.52549 
1 0.729412 0.52549 1 0.729412 0.52549 
1 0.729412 0.52549 1 0.729412 0.52549 
1 0.729412 0.52549 1 0.729412 0.52549 
1 0.729412 0.52549 1 0.729412 0.52549 
1 0.729412 0.52549 1 0.729412 0.52549 
1 0.729412 0.52549 1 0.729412 0.52549 
1 0.729412 0.52549 1 0.729412 0.52549 
1 0.729412 0.52549 1 0.729412 0.52549 
1 0.729412 0.52549 1 0.729412 0.52549 
1 0.729412 0.52549 1 0.729412 0.52549 
1 0.729412 0.52549 1 0.729412 0.52549 
1 0.729412 0.52549 1 0.729412 0.52549 
1 0.729412 0.52549 1 0.729412 0.52549 
1 0.729412 0.52549 1 0.729412 0.52549 
1 0.729412 0.52549 1 0.729412 0.52549 
1 0.729412 0.52549 1 0.729412 0.52549 
1 0.729412 0.52549 1 0.729412 0.52549 
1 0.729412 0.52549 1 0.729412 0.52549 
1 0.729412 0.52549 1 0.729412 0.52549 
1 0.729412 0.52549 1 0.729412 0.52549 
1 0.729412 0.52549 1 0.729412 0.52549 
1 0.729412 0.52549 1 0.729412 0.52549 
1 0.729412 0.52549 1 0.729412 0.52549 
1 0.729412 0.52549 1 0.729412 0.52549 
1 0.729412 0.52549 1 0.729412 0.52549 
1 0.729412 0.52549 1 0.729412 0.52549 
1 0.729412 0.52549 1 0.729412 0.52549 
1 0.729412 0.52549 1 0.729412 0.52549 
1 0.729412 0.52549 1 0.729412 0.52549 
1 0.729412 0.52549 1 0.729412 0.52549 
1 0.729412 0.52549 1 0.729412 0.52549 
1 0.729412 0.52549 1 0.729412 0.52549 
1 0.729412 0.52549 1 0.729412 0.52549 
1 0.729412 0.52549 1 0.729412 0.52549 
1 0.729412 0.52549 1 0.729412 0.52549 
1 0.729412 0.52549 1 0.729412 0.52549 
1 0.729412 0.52549 1 0.729412 0.52549 
1 0.729412 0.52549 1 0.729412 0.52549 
1 0.729412 0.52549 1 0.729412 0.52549 
1 0.729412 0.52549 1 0.729412 0.52549 
1 0.729412 0.52549 1 0.729412 0.52549 
1 0.729412 0.52549 1 0.729412 0.52549 
1 0.729412 0.52549 1 0.729412 0.52549 
1 0.729412 0.52549 1 0.729412 0.52549 
1 0.729412 0.52549 1 0.729412 0.52549 
1 0.729412 0.52549 1 0.729412 0.52549 
1 0.729412 0.52549 1 0.729412 0.52549 
1 0.729412 0.52549 1 0.729412 0.52549 
1 0.729412 0.52549 1 0.729412 0.52549 
1 0.729412 0.52549 1 0.729412 0.52549 
1 0.729412 0.52549 1 0.729412 0.52549 
1 0.729412 0.52549 1 0.729412 0.52549 
1 0.729412 0.52549 1 0.729412 0.52549 
1 0.729412 0.52549 1 0.729412 0.52549 
1 0.729412 0.52549 1 0.729412 0.52549 
1 0.729412 0.52549 1 0.729412 0.52549 
1 0.729412 0.52549 1 0.729412 0.52549 
1 0.729412 0.52549 1 0.729412 0.52549 
1 0.729412 0.52549 1 0.729412 0.52549 
1 0.729412 0.52549 1 0.729412 0.52549 
1 0.729412 0.52549 1 0.729412 0.52549 
1 0.729412 0.52549 1 0.729412 0.52549 
1 0.729412 0.52549 1 0.729412 0.52549 
1 0.729412 0.52549 1 0.729412 0.52549 
1 0.729412 0.52549 1 0.729412 0.52549 
1 0.729412 0.52549 1 0.729412 0.52549 
1 0.729412 0.52549 1 0.729412 0.52549 
1 0.729412 0.52549 1 0.729412 0.52549 
1 0.729412 0.52549 1 0.729412 0.52549 
1 0.729412 0.52549 1 0.729412 0.52549 
1 0.729412 0.52549 1 0.729412 0.52549 
1 0.729412 0.52549 1 0.729412 0.52549 
1 0.729412 0.52549 1 0.729412 0.52549 
1 0.729412 0.52549 1 0.729412 0.52549 
1 0.729412 0.52549 1 0.729412 0.52549 
1 0.729412 0.52549 1 0.729412 0.52549 
1 0.729412 0.52549 1 0.729412 0.52549 
1 0.729412 0.52549 1 0.729412 0.52549 
1 0.729412 0.52549 1 0.729412 0.52549 
1 0.729412 0.52549 1 0.729412 0.52549 
1 0.729412 0.52549 1 0.729412 0.52549 
1 0.729412 0.52549 1 0.729412 0.52549 
1 0.729412 0.52549 1 0.729412 0.52549 
1 0.729412 0.52549 1 0.729412 0.52549 
1 0.729412 0.52549 1 0.729412 0.52549 
1 0.729412 0.52549 1 0.729412 0.52549 
1 0.729412 0.52549 1 0.729412 0.52549 
1 0.729412 0.52549 1 0.729412 0.52549 
1 0.729412 0.52549 1 0.729412 0.52549 
1 0.729412 0.52549 1 0.729412 0.52549 
1 0.729412 0.52549 1 0.729412 0.52549 
1 0.729412 0.52549 1 0.729412 0.52549 
1 0.729412 0.52549 1 0.729412 0.52549 
1 0.729412 0.52549 1 0.729412 0.52549 
1 0.729412 0.52549 1 0.729412 0.52549 
1 0.729412 0.52549 1 0.729412 0.52549 
1 0.729412 0.52549 1 0.729412 0.52549 
1 0.729412 0.52549 1 0.729412 0.52549 
1 0.729412 0.52549 1 0.729412 0.52549 
1 0.729412 0.52549 1 0.729412 0.52549 
1 0.729412 0.52549 1 0.729412 0.52549 
1 0.729412 0.52549 1 0.729412 0.52549 
1 0.729412 0.52549 1 0.729412 0.52549 
1 0.729412 0.52549 1 0.729412 0.52549 
1 0.729412 0.52549 1 0.729412 0.52549 
1 0.729412 0.52549 1 0.729412 0.52549 
1 0.729412 0.52549 1 0.729412 0.52549 
1 0.729412 0.52549 1 0.729412 0.52549 
1 0.729412 0.52549 1 0.729412 0.52549 
1 0.729412 0.52549 1 0.729412 0.52549 
1 0.729412 0.52549 1 0.729412 0.52549 
1 0.729412 0.52549 1 0.729412 0.52549 
1 0.729412 0.52549 1 0.729412 0.52549 
1 0.729412 0.52549 1 0.729412 0.52549 
1 0.729412 0.52549 1 0.729412 0.52549 
1 0.729412 0.52549 1 0.729412 0.52549 
1 0.729412 0.52549 1 0.729412 0.52549 
1 0.729412 0.52549 1 0.729412 0.52549 
1 0.729412 0.52549 1 0.729412 0.52549 
1 0.729412 0.52549 1 0.729412 0.52549 
1 0.729412 0.52549 1 0.729412 0.52549 
1 0.729412 0.52549 1 0.729412 0.52549 
1 0.729412 0.52549 1 0.729412 0.52549 
1 0.729412 0.52549 1 0.729412 0.52549 
1 0.729412 0.52549 1 0.729412 0.52549 
1 0.729412 0.52549 1 0.729412 0.52549 
1 0.729412 0.52549 1 0.729412 0.52549 
1 0.729412 0.52549 1 0.729412 0.52549 
1 0.729412 0.52549 1 0.729412 0.52549 
1 0.729412 0.52549 1 0.729412 0.52549 
1 0.729412 0.52549 1 0.729412 0.52549 
1 0.729412 0.52549 1 0.729412 0.52549 
1 0.729412 0.52549 1 0.729412 0.52549 
1 0.729412 0.52549 1 0.729412 0.52549 
1 0.729412 0.52549 1 0.729412 0.52549 
1 0.729412 0.52549 1 0.729412 0.52549 
1 0.729412 0.52549 1 0.729412 0.52549 
1 0.729412 0.52549 1 0.729412 0.52549 
1 0.729412 0.52549 1 0.729412 0.52549 
1 0.729412 0.52549 1 0.729412 0.52549 
1 0.729412 0.52549 1 0.729412 0.52549 
1 0.729412 0.52549 1 0.729412 0.52549 
1 0.729412 0.52549 1 0.729412 0.52549 
1 0.729412 0.52549 1 0.729412 0.52549 
1 0.729412 0.52549 1 0.729412 0.52549 
1 0.729412 0.52549 1 0.729412 0.52549 
1 0.729412 0.52549 1 0.729412 0.52549 
1 0.729412 0.52549 1 0.729412 0.52549 
1 0.729412 0.52549 1 0.729412 0.52549 
1 0.729412 0.52549 1 0.729412 0.52549 
1 0.729412 0.52549 1 0.729412 0.52549 
1 0.729412 0.52549 1 0.729412 0.52549 
1 0.729412 0.52549 1 0.729412 0.52549 
1 0.729412 0.52549 1 0.729412 0.52549 
1 0.729412 0.52549 1 0.729412 0.52549 
1 0.729412 0.52549 1 0.729412 0.52549 
1 0.729412 0.52549 1 0.729412 0.52549 
1 0.729412 0.52549 1 0.729412 0.52549 
1 0.729412 0.52549 1 0.729412 0.52549 
1 0.729412 0.52549 1 0.729412 0.52549 
1 0.729412 0.52549 1 0.729412 0.52549 
1 0.729412 0.52549 1 0.729412 0.52549 
1 0.729412 0.52549 1 0.729412 0.52549 
1 0.729412 0.52549 1 0.729412 0.52549 
1 0.729412 0.52549 1 0.729412 0.52549 
1 0.729412 0.52549 1 0.729412 0.52549 
1 0.729412 0.52549 1 0.729412 0.52549 
1 0.729412 0.52549 1 0.729412 0.52549 
1 0.729412 0.52549 1 0.729412 0.52549 
1 0.729412 0.52549 1 0.729412 0.52549 
1 0.729412 0.52549 1 0.729412 0.52549 
1 0.729412 0.52549 1 0.729412 0.52549 
1 0.729412 0.52549 1 0.729412 0.52549 
1 0.729412 0.52549 1 0.729412 0.52549 
1 0.729412 0.52549 1 0.729412 0.52549 
1 0.729412 0.52549 1 0.729412 0.52549 
1 0.729412 0.52549 1 0.729412 0.52549 
1 0.729412 0.52549 1 0.729412 0.52549 
1 0.729412 0.52549 1 0.729412 0.52549 
1 0.729412 0.52549 1 0.729412 0.52549 
1 0.729412 0.52549 1 0.729412 0.52549 
1 0.729412 0.52549 1 0.729412 0.52549 
1 0.729412 0.52549 1 0.729412 0.52549 
1 0.729412 0.52549 1 0.729412 0.52549 
1 0.729412 0.52549 1 0.729412 0.52549 
1 0.729412 0.52549 1 0.729412 0.52549 
1 0.729412 0.52549 1 0.729412 0.52549 
1 0.729412 0.52549 1 0.729412 0.52549 
1 0.729412 0.52549 1 0.729412 0.52549 
1 0.729412 0.52549 1 0.729412 0.52549 
1 0.729412 0.52549 1 0.729412 0.52549 
1 0.729412 0.52549 1 0.729412 0.52549 
1 0.729412 0.52549 1 0.729412 0.52549 
1 0.729412 0.52549 1 0.729412 0.52549 
1 0.729412 0.52549 1 0.729412 0.52549 
1 0.729412 0.52549 1 0.729412 0.52549 
1 0.729412 0.52549 1 0.729412 0.52549 
1 0.729412 0.52549 1 0.729412 0.52549 
1 0.729412 0.52549 1 0.729412 0.52549 
1 0.729412 0.52549 1 0.729412 0.52549 
1 0.729412 0.52549 1 0.729412 0.52549 
1 0.729412 0.52549 1 0.729412 0.52549 
1 0.729412 0.52549 1 0.729412 0.52549 
1 0.729412 0.52549 1 0.729412 0.52549 
1 0.729412 0.52549 1 0.729412 0.52549 
1 0.729412 0.52549 1 0.729412 0.52549 
1 0.729412 0.52549 1 0.729412 0.52549 
1 0.729412 0.52549 1 0.729412 0.52549 
1 0.729412 0.52549 1 0.729412 0.52549 
1 0.729412 0.52549 1 0.729412 0.52549 
1 0.729412 0.52549 1 0.729412 0.52549 
1 0.729412 0.52549 1 0.729412 0.52549 
1 0.729412 0.52549 1 0.729412 0.52549 
1 0.729412 0.52549 1 0.729412 0.52549 
1 0.729412 0.52549 1 0.729412 0.52549 
1 0.729412 0.52549 1 0.729412 0.52549 
1 0.729412 0.52549 1 0.729412 0.52549 
1 0.729412 0.52549 1 0.729412 0.52549 

NORMALS Normals float
-0.0787428 -0.328411 -0.941247 0.164346 -0.186057 -0.968697 0.269435 -0.164182 -0.94892 
-0.0943945 0.151644 -0.983918 0.178117 0.338995 -0.923773 -0.275372 0.222628 -0.935204 
0.106652 0.465016 -0.878855 -0.256514 0.418976 -0.871011 -0.0831592 0.738115 -0.66953 
-0.155273 -0.609617 -0.77734 -0.0146346 -0.623713 -0.781517 -0.150049 -0.476727 -0.86615 
0.120043 -0.482233 -0.867779 0.305097 -0.502194 -0.809146 -0.36774 -0.281906 -0.886169 
-0.490564 0.0647288 -0.868998 -0.746311 0.216687 -0.629338 -0.382562 0.538463 -0.750802 
-0.370581 0.56147 -0.739879 0.113562 0.674739 -0.729267 0.179146 0.742064 -0.645947 
0.261608 0.763994 -0.589808 -0.262416 0.74013 -0.619149 0.0662255 0.852259 -0.518911 
-0.409937 -0.594226 -0.691988 -0.625937 -0.204188 -0.752669 0.306796 0.443982 -0.841877 
0.34352 0.476034 -0.809559 0.35127 0.733937 -0.581331 0.252197 0.867409 -0.428951 
0.254722 0.904599 -0.341786 -0.480333 0.599263 -0.640441 -0.622244 0.638381 -0.45308 
0.302232 0.934846 -0.186331 0.205506 0.917186 -0.341374 -0.406892 -0.6844 -0.605008 
0.321188 -0.0569222 -0.945303 0.428311 0.565647 -0.704694 0.357982 0.873142 -0.330867 
-0.0983895 0.911155 -0.400146 0.071275 0.928794 -0.363677 0.192937 -0.447813 -0.873063 
-0.150736 -0.835019 -0.52917 -0.731182 -0.415822 -0.5408 0.446571 0.131517 -0.88503 
0.40355 0.456339 -0.793034 0.557904 0.486194 -0.672576 0.437168 0.66379 -0.606849 
0.41546 0.83874 -0.352007 0.400105 0.872385 -0.28082 -0.889041 0.034853 -0.456498 
0.404846 0.859977 -0.310708 0.44204 0.837373 -0.321571 -0.885275 0.193768 -0.422778 
0.340261 0.924642 0.171054 0.301948 0.945399 -0.122675 -0.795418 0.563432 -0.223283 
-0.666936 0.700272 -0.254589 -0.488431 0.839872 -0.236748 -0.0822093 -0.653126 -0.752774 
0.405915 -0.395191 -0.824049 0.609683 0.227266 -0.759366 0.591395 0.469624 -0.655519 
0.577838 0.676335 -0.456809 0.589119 0.642079 -0.490585 -0.840664 -0.109915 -0.530286 
0.343719 0.939072 0.00134289 0.329399 0.931365 -0.155098 -0.515135 0.842412 -0.158042 
0.21781 0.975624 0.0267756 -0.197985 0.975431 -0.0966225 -0.619772 -0.680056 -0.391671 
0.601164 -0.0891381 -0.794139 0.667323 0.231714 -0.707805 -0.904147 -0.326298 -0.275767 
0.58304 0.596221 -0.551892 0.551766 0.767994 -0.325177 -0.532645 0.842445 -0.0810892 
-0.185224 0.982646 0.00997017 -0.0411173 -0.817139 -0.574972 0.28409 -0.53438 -0.796072 
-0.259886 -0.881417 -0.394416 0.794254 0.021938 -0.607189 0.711318 0.334105 -0.618385 
0.647754 0.597775 -0.472313 -0.99066 -0.0365861 -0.131359 0.38477 0.921565 0.0516787 
-0.130506 0.977293 0.166933 -0.0632669 0.991747 0.111511 0.192293 -0.86859 -0.456701 
0.514557 -0.520348 -0.68152 0.641298 -0.230032 -0.731999 0.887223 -0.0754864 -0.455124 
0.839071 0.358393 -0.409285 -0.954856 0.28712 -0.076238 -0.288261 -0.874954 -0.389052 
0.815997 -0.344988 -0.463823 -0.829608 -0.51082 -0.22542 0.422403 0.906274 -0.0156123 
-0.0500467 0.989959 0.132197 0.128452 0.979713 0.153828 0.649693 -0.642533 -0.406263 
-0.26365 -0.953605 -0.14535 -0.635563 -0.729005 -0.254187 -0.101345 0.990547 0.092441 
0.466912 -0.819753 -0.331661 -0.237916 -0.948471 -0.20928 -0.437154 -0.855342 -0.278004 
-0.726782 -0.676673 -0.1179 0.935825 0.0860382 -0.341802 -0.883604 -0.435849 -0.171114 
0.957101 0.275017 -0.0912333 0.844263 0.514475 -0.150119 -0.874721 0.480695 0.0615994 
-0.638424 0.768957 0.0334691 -0.00522416 -0.969357 -0.245603 0.860108 -0.382209 -0.337833 
-0.543019 -0.839076 -0.0328874 0.919534 -0.214209 -0.329501 -0.683853 -0.710927 -0.164099 
0.753098 0.657836 0.00970072 -0.907268 0.402999 0.120238 -0.531057 0.835546 0.140856 
0.680684 -0.721294 -0.128082 0.787034 -0.568981 -0.238407 0.975852 -0.173283 -0.132991 
-0.822185 -0.56922 0.000498355 -0.905835 -0.422243 -0.0342513 0.97863 0.205222 0.0129564 
-0.993775 0.111278 0.00537841 0.421574 -0.890143 -0.172979 -0.986302 -0.158911 0.0442301 
0.746886 0.664121 0.0332223 -0.969858 0.0429187 0.239862 -0.678107 0.703426 0.212984 
0.40961 -0.906228 -0.104738 0.942606 -0.327858 -0.0632759 -0.915704 -0.393699 0.0805422 
-0.922858 0.215784 0.319015 0.504278 0.824452 0.256872 -0.0275511 0.991628 0.126154 
-0.567607 -0.823017 -0.0215804 0.288903 0.937728 0.192877 0.0442633 0.967413 0.249304 
-0.273963 0.931295 0.240071 -0.0732379 -0.993181 -0.0907123 0.309436 -0.945489 -0.101483 
0.576299 -0.814156 -0.0709222 -0.866607 -0.454173 0.206687 0.113733 0.991357 0.0653954 
0.208863 0.969467 0.128495 -0.949525 0.0508006 0.30955 0.437664 -0.899131 0.00380897 
0.816307 -0.575245 0.0523091 0.996774 -0.00532913 0.0800762 0.421193 0.85148 0.312374 
-0.183773 0.966403 0.1797 0.188885 -0.981377 -0.0349605 0.935707 0.339012 0.0975873 
0.790016 0.605636 0.0952929 -0.620183 0.714926 0.322885 -0.138125 0.971305 0.193617 
0.556162 0.830665 0.0260877 -0.885277 0.156312 0.438009 -0.619363 0.602205 0.503725 
0.172309 0.938801 0.298267 -0.421499 0.809401 0.408912 -0.25081 0.923023 0.291759 
0.764521 0.638876 0.0856992 0.200637 0.978987 0.0364758 0.698307 0.715737 0.00937261 
-0.749394 0.34991 0.562113 -0.494697 0.643107 0.584541 -0.210458 0.853712 0.476322 
-0.499471 -0.854632 0.141889 0.835655 0.546988 0.049842 -0.640889 0.379428 0.667305 
-0.403196 0.650208 0.643942 -0.319059 -0.943805 0.0862189 0.0936974 0.972587 0.212825 
-0.726534 0.326558 0.604573 -0.305851 0.717094 0.626283 0.102408 0.920429 0.377257 
0.511703 -0.849869 0.126026 0.773994 -0.61411 0.15428 -0.662703 -0.687199 0.297629 
-0.834535 -0.162357 0.52649 0.872485 0.468719 0.1381 0.442647 0.896426 0.022005 
0.461192 0.880794 0.107257 0.415949 0.890771 0.183066 -0.521906 0.555404 0.647411 
-0.434017 0.728772 0.529643 -0.228749 0.822228 0.521167 0.59665 -0.752217 0.279604 
0.959806 0.19933 0.197586 0.434006 0.879806 0.193856 0.582357 0.741717 0.332739 
-0.672654 0.154809 0.723582 0.320014 0.867909 0.379902 -0.327648 0.715018 0.617573 
-0.165181 0.718292 0.675849 0.0873747 0.87629 0.473795 -0.00513232 -0.946895 0.321502 
-0.493344 -0.751642 0.437773 0.886062 -0.338145 0.3171 -0.659905 -0.383152 0.646312 
-0.355099 0.541686 0.761893 0.195646 0.849473 0.490018 -0.0737367 0.792826 0.604971 
-0.185208 0.710793 0.678581 0.939131 0.0460735 0.340455 0.867813 0.461925 0.183101 
0.535981 0.832939 0.137608 0.779589 0.619875 0.0894192 -0.351821 0.522244 0.776842 
0.159385 0.86759 0.471045 0.167659 0.920001 0.354243 -0.23616 0.660225 0.712973 
0.0668202 0.760598 0.645775 0.474702 -0.751143 0.45874 0.391968 -0.709543 0.585585 
0.885961 0.360784 0.291389 0.712184 0.59996 0.364476 0.119215 0.916904 0.380887 
-0.396569 -0.710939 0.580774 0.864827 0.201971 0.459655 0.581386 0.758125 0.295359 
0.344143 0.938654 -0.0222165 0.312809 0.948605 0.047955 0.236044 0.930429 0.28033 
-0.133031 0.79663 0.589646 0.0903801 0.878122 0.469822 -0.199677 -0.77852 0.595008 
-0.228135 -0.805572 0.546817 0.583929 -0.507949 0.633257 0.813107 0.186746 0.551347 
0.658696 0.637864 0.39906 0.369122 0.865459 0.338718 0.290535 0.936835 0.194756 
0.0772932 0.911152 0.404756 0.253315 0.94471 0.208218 0.158339 0.936759 0.312108 
0.272721 0.889762 0.365987 0.285762 0.939092 0.190908 0.170888 0.927881 0.331414 
0.049951 -0.750744 0.658702 -0.307506 -0.501809 0.808472 -0.565004 -0.10835 0.817943 
0.803003 -0.118441 0.584087 -0.358193 0.222549 0.906736 0.742207 0.315097 0.591475 
-0.396908 0.3134 0.862696 0.414119 0.766073 0.491567 0.53331 0.65702 0.532828 
-0.385036 0.365497 0.847443 0.24022 0.884035 0.40097 0.19642 0.934927 0.295518 
-0.0457428 0.882931 0.46727 -0.133022 0.642429 0.754712 -0.141322 0.74392 0.653155 
-0.0313127 0.682723 0.730006 0.0251521 0.719792 0.693734 -0.153822 -0.633471 0.758323 
0.180556 -0.64421 0.743232 -0.177192 -0.528108 0.830485 -0.109045 -0.513353 0.851221 
0.339355 -0.436798 0.833094 -0.398304 -0.127429 0.908359 -0.167816 -0.166783 0.971608 
0.594821 -0.0540738 0.802038 -0.201487 0.0200756 0.979285 0.631154 0.246626 0.735405 
-0.420904 0.254849 0.87057 -0.179752 0.301547 0.936354 0.445006 0.413749 0.794218 
0.297205 0.723693 0.622846 -0.119248 0.419147 0.900053 0.0803444 0.667895 0.739906 
-0.0893412 -0.453013 0.887016 0.203251 -0.303239 0.930986 -0.0648436 0.0698759 0.995446 