# vtk DataFile Version 4.2
vtk output
ASCII
DATASET POLYDATA
POINTS 447 float
441.648 176.403 149.799 442.208 176.219 149.688 442.805 176.073 149.824 
442.08 176.871 149.776 442.831 176.422 149.81 441.295 174.575 150.688 
442.867 175.635 149.986 439.593 176.755 150.495 441.2 176.276 150.004 
439.922 177.751 150.298 439.972 178.348 150.333 440.07 178.956 150.396 
441.163 178.546 150.186 440.307 173.907 151.535 448.036 173.828 151.524 
448.44 174.426 151.484 438.066 176.536 151.24 448.574 175.688 151.446 
440.054 179.624 150.579 438.437 181.52 151.513 442.032 182.176 151.512 
445.27 172.463 151.879 448.161 172.42 152.143 437.588 175.639 151.831 
437.78 174.68 152.304 439.007 183.229 152.31 448.885 171.006 153.226 
455.333 173.489 153.453 434.594 180.436 153.144 438.108 184.381 153.716 
442.042 184.864 153.662 454.876 170.966 154.328 435.053 175.012 154.043 
433.046 177.277 154.34 432.571 179.061 154.58 433.618 181.345 154.182 
449.573 183.268 154.617 435.946 184.057 154.558 439.79 185.302 154.456 
446.602 169.149 155.281 458.656 171.016 156.096 459.407 172.947 155.752 
432.319 175.919 155.558 459.239 176.431 155.532 457.21 178.573 155.06 
432.075 181.595 155.88 455.093 181.16 155.739 433.37 183.06 155.7 
448.669 184.193 155.209 447.557 184.804 155.532 459.726 172.188 156.218 
460.893 173.907 156.971 431.893 175.699 156.265 431.645 175.921 156.405 
430.886 179.05 156.66 435.035 184.761 156.671 446.479 185.372 155.922 
460.491 172.411 156.96 432.874 174.375 156.978 430.818 176.999 157.011 
460.63 176.511 157.059 431.203 181.164 157.121 455.628 181.491 156.671 
436.517 185.743 157.974 440.248 186.535 157.127 461.23 172.685 158.021 
461.781 175.876 159.105 461.365 177.008 158.586 459.351 179.271 157.558 
431.511 182.437 158.886 432.49 183.386 158.141 452.876 183.525 157.882 
442.211 186.651 157.773 437.997 170.658 158.648 430.681 175.894 158.657 
461.425 177.63 159.724 440.925 186.717 158.426 430.588 181.148 161.091 
436.377 185.709 160.375 458.658 168.235 160.296 460.531 169.972 160.674 
461.424 171.666 159.932 431.222 174.367 160.55 460.149 179.62 160.991 
432.609 183.541 161.51 445.017 165.912 161.706 456.568 166.428 161.756 
462.082 176.469 162.247 453.611 183.466 162.036 446.313 164.957 162.938 
448.693 164.419 163.634 461.708 171.772 162.4 429.916 179.65 163.443 
437.931 185.651 162.933 455.331 165.48 163.45 429.865 177.14 163.862 
430.12 179.411 164.231 460.412 179.363 163.692 431.414 181.34 164.758 
461.919 172.816 164.511 430.405 174.758 164.214 429.97 177.871 165.059 
432.273 181.938 165.093 451.777 164.357 166.214 458.118 167.234 166.253 
460.963 170.431 165.296 430.03 176.341 165.547 460.999 178.261 165.818 
451.545 183.598 166.22 456.738 166.34 167.163 460.912 177.966 166.733 
441.634 184.932 166.913 446.485 185.115 166.179 459.061 168.393 167.533 
430.621 177.974 167.359 444.33 185.039 166.954 439.208 165.712 168.435 
433.469 169.933 169.516 461.051 174.557 168.463 460.841 175.931 168.585 
459.416 177.675 169.171 456.974 167.421 170.133 432.213 171.73 169.749 
460.101 171.752 169.582 453.092 181.504 169.848 431.697 172.884 169.918 
431.828 173.113 170.368 431.581 175.033 170.06 458.66 176.995 170.827 
447.753 182.98 170.505 433.544 170.219 171.909 432.605 176.139 171.082 
457.996 176.695 171.811 457.077 177.398 172.112 438.446 165.12 172.61 
457.006 169.746 172.921 433.239 171.159 172.306 457.644 171.044 172.83 
432.775 173.358 171.945 433.386 173.582 172.754 434.952 175.336 173.553 
442.668 163.252 174.464 447.989 164.655 173.512 456.405 169.248 173.164 
457.005 171.554 173.851 433.766 173.049 173.404 455.085 177.498 173.725 
438.568 178.822 173.341 442.165 180.8 173.039 440.504 163.76 175.404 
433.729 171.657 173.507 457.038 173.657 174.053 443.831 163.486 175.415 
436.253 167.637 175.622 434.564 170.938 174.691 451.867 176.677 176.067 
440.789 163.681 176.715 441.588 163.525 177.473 438.394 165.375 176.505 
445.583 164.682 176.716 437.362 166.55 176.451 435.526 169.26 175.916 
435.702 170.239 176.315 440.48 175.385 176.757 439.743 164.5 177.966 
446.625 166.443 177.891 436.191 168.827 176.789 435.656 169.776 176.294 
446.138 167.387 179.133 447.129 168.653 178.909 447.361 169.748 179.094 
439.046 172.056 178.621 450.582 171.96 177.965 444.67 173.009 179.223 
448.099 173.075 178.697 449.474 174.172 178.021 440.611 164.28 179.431 
443.066 164.091 179.107 440.569 164.492 179.793 445.709 168.356 179.897 
438.984 170.471 179.538 446.992 171.226 179.337 442.102 172.142 179.667 
441.61 164.223 180.178 441.23 164.391 180.239 442.305 164.268 180.244 
440.135 165.413 180.292 444.173 166.02 180.514 439.106 167.937 180.155 
438.282 169.38 179.289 445.821 169.821 179.921 440.028 170.247 180.328 
444.026 170.833 180.367 441.93 164.354 180.452 441.208 164.905 180.858 
443.013 165.073 181.042 440.803 165.83 181.381 443.894 166.936 181.334 
444.013 168.3 181.308 443.699 169.007 181.36 443.457 169.57 181.244 
442.47 169.892 181.214 443.047 169.615 181.351 443.157 168.379 181.928 
440.442 169.225 181.025 441.709 168.658 181.908 442.002 169.247 181.592 
442.314 168.657 181.983 441.946 165.85 182.173 442.42 166.09 182.355 
441.774 166.1 182.265 442.724 166.59 182.365 441.33 167.343 182.234 
442.59 167.644 182.375 441.54 168.13 182.138 442.212 167.743 182.431 
441.785 166.542 182.401 442.161 166.564 182.521 442.416 166.396 182.469 
441.648 167.475 182.427 441.961 167.391 182.513 442.165 166.511 272.757 
442.119 166.256 272.863 441.948 166.51 272.817 442.312 166.324 272.852 
441.988 167.071 272.768 441.82 167.111 272.809 442.005 165.596 273.293 
441.92 165.256 273.569 441.665 165.602 273.465 442.315 165.889 273.096 
442.681 165.886 273.187 442.879 165.704 273.388 441.865 166.068 273.077 
442.6 166.316 273.013 442.615 167.155 273.002 441.867 167.787 273.077 
442.205 167.691 273.068 442.381 164.826 273.852 442.28 164.482 274.247 
442.583 164.648 274.065 443.449 165.801 274.056 443.647 166.417 274.133 
440.707 169.209 274.217 443.176 168.966 274.029 442.21 164.242 274.564 
442.822 164.701 274.132 442.997 164.625 274.383 440.744 165.744 274.218 
439.33 168.859 275.096 440.332 169.316 274.443 442.113 163.975 275.502 
442.638 164.164 274.798 440.782 164.592 275.48 440.431 164.968 275.439 
443.23 164.76 274.562 445.695 168.542 275.83 444.847 171.019 275.516 
441.019 164.305 275.808 441.685 163.816 276.625 443.147 164.293 275.227 
443.36 164.274 275.789 445.364 167.087 276.011 438.138 168.439 276.35 
446.936 169.862 276.35 445.66 171.162 275.831 446.354 171.711 276.138 
446.186 172.378 276.267 439.72 164.934 276.849 446.538 173.677 276.806 
440.249 164.181 278.02 442.764 163.634 277.632 447.606 167.671 277.691 
436.736 168.833 278.161 438.72 172.781 277.684 441.182 174.168 277.525 
452.124 173.516 278.193 451.071 175.322 278.432 442.203 163.447 279.026 
446.902 165.412 279.352 435.811 168.58 279.735 435.49 170.878 279.815 
436.238 172.155 279.269 455.04 173.426 279.635 454.459 175.601 279.89 
442.398 176.966 279.187 440.283 163.865 279.704 445.22 163.965 280.017 
455.695 174.658 280.251 454.214 176.737 280.518 442.26 163.305 281.192 
444.692 163.527 280.859 447.258 164.726 280.913 434.83 169.476 281.196 
457.296 172.408 281.552 457.563 175.009 282.07 451.412 178.953 281.092 
441.683 163.389 282.473 444.606 163.392 281.507 434.548 169.424 281.831 
434.482 169.212 282.481 456.669 170.853 281.453 433.623 172.35 282.17 
458.333 174.376 282.799 454.827 178.297 282.351 447.012 163.769 283.245 
457.653 169.497 283.484 457.764 176.791 283.362 440.612 180.715 282.913 
449.79 181.592 283.467 434.44 168.905 284.377 457.398 168.318 284.41 
431.799 172.716 285.512 459.861 175.44 285.123 458.803 177.09 284.871 
441.873 182.967 285.064 446.744 183.074 284.889 431.43 176.349 286.246 
440.12 165.093 286.723 453.969 165.191 286.486 435.275 168.548 287.382 
430.808 174.609 287.423 461.342 173.342 287.469 430.972 175.558 286.941 
431.136 176.39 286.904 459.074 178.286 286.606 460.535 177.414 287.714 
452.818 181.994 286.292 461.322 171.951 288.062 430.823 174.075 288.393 
461.789 174.369 288.841 461.34 176.417 288.452 448.714 163.749 288.682 
460.591 170.015 288.872 431.482 172.722 288.769 461.921 173.717 289.455 
430.484 175.394 288.961 458.617 179.653 288.24 431.879 180.752 289.297 
435.362 183.275 289.316 461.551 171.646 289.733 430.357 178.5 290.684 
461.383 177.592 290.366 460.015 179.085 289.642 453.204 164.648 290.277 
430.776 174.324 291.013 430.304 175.694 290.472 430.142 177.07 291.051 
431.061 180.483 290.524 453.412 183.127 290.516 461.931 172.527 291.727 
429.895 179.626 292.791 431.154 181.471 291.85 446.227 165.07 292.899 
453.84 165.153 292.549 462.177 175.807 292.977 429.965 177.3 292.879 
429.849 179.597 293.067 431.633 182.355 292.771 433.394 183.827 292.797 
449.615 164.695 293.065 457.851 167.217 293.712 430.198 180.303 294.312 
458.791 180.655 294.142 435.024 185.024 294.236 438.965 186.344 294.783 
429.889 178.875 294.902 430.258 180.416 295.325 430.932 181.788 295.065 
431.965 183.046 294.863 449.331 185.261 294.623 431.633 174.532 295.882 
430.037 177.569 295.418 460.399 179.337 295.179 431.891 182.984 296.012 
461.563 173.258 296.085 432.503 174.168 297.099 461.646 176.439 296.193 
461.161 178.102 296.533 460.587 178.736 296.535 431.478 182.291 297.527 
441.258 186.7 296.734 459.266 170.206 297.706 430.541 176.978 297.049 
461.055 177.586 297.168 430.829 181.095 298.104 456.828 181.206 297.578 
440.414 186.62 297.687 454.654 168.308 298.773 443.206 169.067 298.344 
458.262 170.198 298.923 438.286 171.628 299.212 459.96 171.755 298.33 
433.526 174.198 298.821 431.644 176.122 298.745 461.184 175.167 297.422 
430.464 178.672 297.981 460.271 177.413 298.33 430.745 180.418 298.536 
456.686 180.612 298.922 434.658 184.734 298.498 456.82 169.669 299.31 
459.2 172.163 299.375 436.327 173.409 300.556 459.668 176.317 299.308 
457.427 179.448 299.534 431.464 181.24 299.326 455.325 181.091 299.493 
432.682 182.671 299.598 434.972 184.448 299.703 436.796 185.303 299.787 
[...]
POINT_DATA 447
COLOR_SCALARS scalars 3
1 0.701961 0.85098 1 0.701961 0.85098 1 0.701961 0.85098 
1 0.701961 0.85098 1 0.701961 0.85098 
1 0.701961 0.85098 1 0.701961 0.85098 
1 0.701961 0.85098 1 0.701961 0.85098 
1 0.701961 0.85098 1 0.701961 0.85098 
1 0.701961 0.85098 1 0.701961 0.85098 
1 0.701961 0.85098 1 0.701961 0.85098 
1 0.701961 0.85098 1 0.701961 0.85098 
1 0.701961 0.85098 1 0.701961 0.85098 
1 0.701961 0.85098 1 0.701961 0.85098 
1 0.701961 0.85098 1 0.701961 0.85098 
1 0.701961 0.85098 1 0.701961 0.85098 
1 0.701961 0.85098 1 0.701961 0.85098 
1 0.701961 0.85098 1 0.701961 0.85098 
1 0.701961 0.85098 1 0.701961 0.85098 
1 0.701961 0.85098 1 0.701961 0.85098 
1 0.701961 0.85098 1 0.701961 0.85098 
1 0.701961 0.85098 1 0.701961 0.85098 
1 0.701961 0.85098 1 0.701961 0.85098 
1 0.701961 0.85098 1 0.701961 0.85098 
1 0.701961 0.85098 1 0.701961 0.85098 
1 0.701961 0.85098 1 0.701961 0.85098 
1 0.701961 0.85098 1 0.701961 0.85098 
1 0.701961 0.85098 1 0.701961 0.85098 
1 0.701961 0.85098 1 0.701961 0.85098 
1 0.701961 0.85098 1 0.701961 0.85098 
1 0.701961 0.85098 1 0.701961 0.85098 
1 0.701961 0.85098 1 0.701961 0.85098 
1 0.701961 0.85098 1 0.701961 0.85098 
1 0.701961 0.85098 1 0.701961 0.85098 
1 0.701961 0.85098 1 0.701961 0.85098 
1 0.701961 0.85098 1 0.701961 0.85098 
1 0.701961 0.85098 1 0.701961 0.85098 
1 0.701961 0.85098 1 0.701961 0.85098 
1 0.701961 0.85098 1 0.701961 0.85098 
1 0.701961 0.85098 1 0.701961 0.85098 
1 0.701961 0.85098 1 0.701961 0.85098 
1 0.701961 0.85098 1 0.701961 0.85098 
1 0.701961 0.85098 1 0.701961 0.85098 
1 0.701961 0.85098 1 0.701961 0.85098 
1 0.701961 0.85098 1 0.701961 0.85098 
1 0.701961 0.85098 1 0.701961 0.85098 
1 0.701961 0.85098 1 0.701961 0.85098 
1 0.701961 0.85098 1 0.701961 0.85098 
1 0.701961 0.85098 1 0.701961 0.85098 
1 0.701961 0.85098 1 0.701961 0.85098 
1 0.701961 0.85098 1 0.701961 0.85098 
1 0.701961 0.85098 1 0.701961 0.85098 
1 0.701961 0.85098 1 0.701961 0.85098 
1 0.701961 0.85098 1 0.701961 0.85098 
1 0.701961 0.85098 1 0.701961 0.85098 
1 0.701961 0.85098 1 0.701961 0.85098 
1 0.701961 0.85098 1 0.701961 0.85098 
1 0.701961 0.85098 1 0.701961 0.85098 
1 0.701961 0.85098 1 0.701961 0.85098 
1 0.701961 0.85098 1 0.701961 0.85098 
1 0.701961 0.85098 1 0.701961 0.85098 
1 0.701961 0.85098 1 0.701961 0.85098 
1 0.701961 0.85098 1 0.701961 0.85098 
1 0.701961 0.85098 1 0.701961 0.85098 
1 0.701961 0.85098 1 0.701961 0.85098 
1 0.701961 0.85098 1 0.701961 0.85098 
1 0.701961 0.85098 1 0.701961 0.85098 
1 0.701961 0.85098 1 0.701961 0.85098 
1 0.701961 0.85098 1 0.701961 0.85098 
1 0.701961 0.85098 1 0.701961 0.85098 
1 0.701961 0.85098 1 0.701961 0.85098 
1 0.701961 0.85098 1 0.701961 0.85098 
1 0.701961 0.85098 1 0.701961 0.85098 
1 0.701961 0.85098 1 0.701961 0.85098 
1 0.701961 0.85098 1 0.701961 0.85098 
1 0.701961 0.85098 1 0.701961 0.85098 
1 0.701961 0.85098 1 0.701961 0.85098 
1 0.701961 0.85098 1 0.701961 0.85098 
1 0.701961 0.85098 1 0.701961 0.85098 
1 0.701961 0.85098 1 0.701961 0.85098 
1 0.701961 0.85098 1 0.701961 0.85098 
1 0.701961 0.85098 1 0.701961 0.85098 
1 0.701961 0.85098 1 0.701961 0.85098 
1 0.701961 0.85098 1 0.701961 0.85098 
1 0.701961 0.85098 1 0.701961 0.85098 
1 0.701961 0.85098 1 0.701961 0.85098 
1 0.701961 0.85098 1 0.701961 0.85098 
1 0.701961 0.85098 1 0.701961 0.85098 
1 0.701961 0.85098 1 0.701961 0.85098 
1 0.701961 0.85098 1 0.701961 0.85098 
1 0.701961 0.85098 1 0.701961 0.85098 
1 0.701961 0.85098 1 0.701961 0.85098 
1 0.701961 0.85098 1 0.701961 0.85098 
1 0.701961 0.85098 1 0.701961 0.85098 
1 0.701961 0.85098 1 0.701961 0.85098 
1 0.701961 0.85098 1 0.701961 0.85098 
1 0.701961 0.85098 1 0.701961 0.85098 
1 0.701961 0.85098 1 0.701961 0.85098 
1 0.701961 0.85098 1 0.701961 0.85098 
1 0.701961 0.85098 1 0.701961 0.85098 
1 0.701961 0.85098 1 0.701961 0.85098 
1 0.701961 0.85098 1 0.701961 0.85098 
1 0.701961 0.85098 1 0.701961 0.85098 
1 0.701961 0.85098 1 0.701961 0.85098 
1 0.701961 0.85098 1 0.701961 0.85098 
1 0.701961 0.85098 1 0.701961 0.85098 
1 0.701961 0.85098 1 0.701961 0.85098 
1 0.701961 0.85098 1 0.701961 0.85098 
1 0.701961 0.85098 1 0.701961 0.85098 
1 0.701961 0.85098 1 0.701961 0.85098 
1 0.701961 0.85098 1 0.701961 0.85098 
1 0.701961 0.85098 1 0.701961 0.85098 
1 0.701961 0.85098 1 0.701961 0.85098 
1 0.701961 0.85098 1 0.701961 0.85098 
1 0.701961 0.85098 1 0.701961 0.85098 
1 0.701961 0.85098 1 0.701961 0.85098 
1 0.701961 0.85098 1 0.701961 0.85098 
1 0.701961 0.85098 1 0.701961 0.85098 
1 0.701961 0.85098 1 0.701961 0.85098 
1 0.701961 0.85098 1 0.701961 0.85098 
1 0.701961 0.85098 1 0.701961 0.85098 
1 0.701961 0.85098 1 0.701961 0.85098 
1 0.701961 0.85098 1 0.701961 0.85098 
1 0.701961 0.85098 1 0.701961 0.85098 
1 0.701961 0.85098 1 0.701961 0.85098 
1 0.701961 0.85098 1 0.701961 0.85098 
1 0.701961 0.85098 1 0.701961 0.85098 
1 0.701961 0.85098 1 0.701961 0.85098 
1 0.701961 0.85098 1 0.701961 0.85098 
1 0.701961 0.85098 1 0.701961 0.85098 
1 0.701961 0.85098 1 0.701961 0.85098 
1 0.701961 0.85098 1 0.701961 0.85098 
1 0.701961 0.85098 1 0.701961 0.85098 
1 0.701961 0.85098 1 0.701961 0.85098 
1 0.701961 0.85098 1 0.701961 0.85098 
1 0.701961 0.85098 1 0.701961 0.85098 
1 0.701961 0.85098 1 0.701961 0.85098 
1 0.701961 0.85098 1 0.701961 0.85098 
1 0.701961 0.85098 1 0.701961 0.85098 
1 0.701961 0.85098 1 0.701961 0.85098 
1 0.701961 0.85098 1 0.701961 0.85098 
1 0.701961 0.85098 1 0.701961 0.85098 
1 0.701961 0.85098 1 0.701961 0.85098 
1 0.701961 0.85098 1 0.701961 0.85098 
1 0.701961 0.85098 1 0.701961 0.85098 
1 0.701961 0.85098 1 0.701961 0.85098 
1 0.701961 0.85098 1 0.701961 0.85098 
1 0.701961 0.85098 1 0.701961 0.85098 
1 0.701961 0.85098 1 0.701961 0.85098 
1 0.701961 0.85098 1 0.701961 0.85098 
1 0.701961 0.85098 1 0.701961 0.85098 
1 0.701961 0.85098 1 0.701961 0.85098 
1 0.701961 0.85098 1 0.701961 0.85098 
1 0.701961 0.85098 1 0.701961 0.85098 
1 0.701961 0.85098 1 0.701961 0.85098 
1 0.701961 0.85098 1 0.701961 0.85098 
1 0.701961 0.85098 1 0.701961 0.85098 
1 0.701961 0.85098 1 0.701961 0.85098 
1 0.701961 0.85098 1 0.701961 0.85098 
1 0.701961 0.85098 1 0.701961 0.85098 
1 0.701961 0.85098 1 0.701961 0.85098 
1 0.701961 0.85098 1 0.701961 0.85098 
1 0.701961 0.85098 1 0.701961 0.85098 
1 0.701961 0.85098 1 0.701961 0.85098 
1 0.701961 0.85098 1 0.701961 0.85098 
1 0.701961 0.85098 1 0.701961 0.85098 
1 0.701961 0.85098 1 0.701961 0.85098 
1 0.701961 0.85098 1 0.701961 0.85098 
1 0.701961 0.85098 1 0.701961 0.85098 
1 0.701961 0.85098 1 0.701961 0.85098 
1 0.701961 0.85098 1 0.701961 0.85098 
1 0.701961 0.85098 1 0.701961 0.85098 
1 0.701961 0.85098 1 0.701961 0.85098 
1 0.701961 0.85098 1 0.701961 0.85098 
1 0.701961 0.85098 1 0.701961 0.85098 
1 0.701961 0.85098 1 0.701961 0.85098 
1 0.701961 0.85098 1 0.701961 0.85098 
1 0.701961 0.85098 1 0.701961 0.85098 
1 0.701961 0.85098 1 0.701961 0.85098 
1 0.701961 0.85098 1 0.701961 0.85098 
1 0.701961 0.85098 1 0.701961 0.85098 
1 0.701961 0.85098 1 0.701961 0.85098 
1 0.701961 0.85098 1 0.701961 0.85098 
1 0.701961 0.85098 1 0.701961 0.85098 
1 0.701961 0.85098 1 0.701961 0.85098 
1 0.701961 0.85098 1 0.701961 0.85098 
1 0.701961 0.85098 1 0.701961 0.85098 
1 0.701961 0.85098 1 0.701961 0.85098 
1 0.701961 0.85098 1 0.701961 0.85098 
1 0.701961 0.85098 1 0.701961 0.85098 
1 0.701961 0.85098 1 0.701961 0.85098 
1 0.701961 0.85098 1 0.701961 0.85098 
1 0.701961 0.85098 1 0.701961 0.85098 
1 0.701961 0.85098 1 0.701961 0.85098 
1 0.701961 0.85098 1 0.701961 0.85098 
1 0.701961 0.85098 1 0.701961 0.85098 
1 0.701961 0.85098 1 0.701961 0.85098 
1 0.701961 0.85098 1 0.701961 0.85098 
1 0.701961 0.85098 1 0.701961 0.85098 
1 0.701961 0.85098 1 0.701961 0.85098 
1 0.701961 0.85098 1 0.701961 0.85098 
1 0.701961 0.85098 1 0.701961 0.85098 
1 0.701961 0.85098 1 0.701961 0.85098 
1 0.701961 0.85098 1 0.701961 0.85098 
1 0.701961 0.85098 1 0.701961 0.85098 
1 0.701961 0.85098 1 0.701961 0.85098 
1 0.701961 0.85098 1 0.701961 0.85098 
1 0.701961 0.85098 1 0.701961 0.85098 
1 0.701961 0.85098 1 0.701961 0.85098 
1 0.701961 0.85098 1 0.701961 0.85098 
1 0.701961 0.85098 1 0.701961 0.85098 
1 0.701961 0.85098 1 0.701961 0.85098 
1 0.701961 0.85098 1 0.701961 0.85098 
1 0.701961 0.85098 1 0.701961 0.85098 
1 0.701961 0.85098 1 0.701961 0.85098 
1 0.701961 0.85098 1 0.701961 0.85098 
1 0.701961 0.85098 1 0.701961 0.85098 
1 0.701961 0.85098 1 0.701961 0.85098 
1 0.701961 0.85098 1 0.701961 0.85098 
1 0.701961 0.85098 1 0.701961 0.85098 
1 0.701961 0.85098 1 0.701961 0.85098 
1 0.701961 0.85098 1 0.701961 0.85098 
1 0.701961 0.85098 1 0.701961 0.85098 
1 0.701961 0.85098 1 0.701961 0.85098 
1 0.701961 0.85098 1 0.701961 0.85098 
1 0.701961 0.85098 1 0.701961 0.85098 
1 0.701961 0.85098 1 0.701961 0.85098 

NORMALS Normals float
-0.33121 0.0446735 -0.942499 -0.0483978 -0.204887 -0.977588 0.426596 -0.168096 -0.888684 
-0.114578 0.199099 -0.973258 0.323846 0.0661605 -0.943794 -0.0757834 -0.622922 -0.778605 
0.359251 -0.488696 -0.795057 -0.492637 -0.0431476 -0.869165 -0.368256 -0.227715 -0.901406 
-0.197837 0.04494 -0.979204 -0.389986 0.120867 -0.912854 -0.110904 0.153074 -0.981972 
0.0451476 0.341498 -0.938798 -0.212963 -0.732722 -0.646347 0.158802 -0.264643 -0.951181 
0.30799 -0.173903 -0.935361 -0.448898 -0.237853 -0.861346 0.239806 0.0971582 -0.965947 
-0.175381 0.371699 -0.911637 -0.318728 0.282788 -0.904679 0.152068 0.497052 -0.854292 
0.069861 -0.523183 -0.849352 0.193778 -0.506728 -0.840046 -0.457977 -0.375526 -0.805753 
-0.377653 -0.52589 -0.762115 -0.188954 0.546267 -0.81602 0.172969 -0.599215 -0.78168 
0.336206 -0.14428 -0.930671 -0.45861 0.276963 -0.844375 -0.281662 0.58911 -0.757374 
0.0482169 0.79649 -0.602726 0.284907 -0.560232 -0.777797 -0.433348 -0.690144 -0.579579 
-0.606218 -0.139743 -0.782925 -0.691018 0.015926 -0.722662 -0.595388 0.274103 -0.755235 
0.257539 0.545633 -0.79747 -0.3579 0.755699 -0.548477 -0.167937 0.862226 -0.477875 
-0.150902 -0.816064 -0.557914 0.54184 -0.601936 -0.586585 0.548664 -0.198523 -0.812131 
-0.631514 -0.473474 -0.614013 0.611752 0.202644 -0.764654 0.47929 0.365993 -0.797703 
-0.752474 0.415747 -0.510819 0.430555 0.686351 -0.586127 -0.5141 0.538013 -0.668014 
0.391649 0.838154 -0.379617 0.205726 0.758653 -0.618161 0.624568 -0.343278 -0.701481 
0.808365 -0.0399661 -0.587323 -0.663124 -0.599596 -0.448052 -0.768763 -0.436416 -0.467488 
-0.925029 0.132315 -0.35611 -0.476074 0.841897 -0.254092 0.270601 0.911229 -0.310542 
0.729484 -0.335459 -0.596087 -0.503388 -0.801264 -0.323383 -0.855701 -0.170729 -0.488495 
0.835311 0.264871 -0.481767 -0.876041 0.399455 -0.270164 0.521773 0.77497 -0.356617 
-0.358592 0.917034 -0.174527 -0.144679 0.968311 -0.203574 0.932004 -0.121096 -0.341621 
0.96327 0.104158 -0.247511 0.781406 0.414675 -0.466315 0.655508 0.605762 -0.450956 
-0.876613 0.478016 -0.05523 -0.688701 0.707439 -0.158808 0.411974 0.849728 -0.328997 
0.119775 0.990837 -0.0624112 -0.464257 -0.821866 -0.330153 -0.939652 -0.274166 -0.204663 
0.875896 0.457017 -0.154733 -0.0298268 0.995387 0.0911919 -0.861531 0.505762 0.0443872 
-0.319699 0.943129 0.0911109 0.579145 -0.753823 -0.31039 0.769514 -0.63195 -0.0921316 
0.868719 -0.421129 -0.260725 -0.484323 -0.862801 -0.14493 0.648091 0.74304 -0.166943 
-0.610238 0.784394 0.111066 -0.254343 -0.836001 -0.486222 0.480177 -0.829635 -0.284843 
0.990714 0.135795 0.00679898 0.452072 0.888033 0.0838393 -0.183367 -0.914339 -0.361054 
-0.00688492 -0.962237 -0.272127 0.932991 -0.359803 0.0083721 -0.961484 0.264934 0.0732024 
-0.229302 0.946269 0.228025 0.265297 -0.934936 -0.23561 -0.997416 -0.0522468 0.0493069 
-0.849209 0.397436 0.347692 0.650427 0.744318 0.151444 -0.648813 0.645904 0.402305 
0.947109 -0.287477 0.142626 -0.85939 -0.503451 -0.0893583 -0.992681 0.021728 0.118797 
-0.518422 0.656279 0.548211 0.23336 -0.968356 0.0884886 0.684127 -0.727562 0.0512266 
0.870058 -0.444077 0.213995 -0.977252 -0.149056 0.150864 0.80812 0.561696 0.177312 
0.30042 0.907777 0.292725 0.489126 -0.865114 0.111059 0.815889 0.48613 0.313053 
-0.165109 0.91572 0.366328 0.128463 0.974284 0.185117 0.819804 -0.551615 0.15376 
-0.868869 0.279601 0.408522 0.057313 0.898283 0.435665 -0.445041 -0.859741 -0.250568 
-0.721196 -0.691599 -0.0395903 0.900908 0.0202308 0.433539 0.82731 0.272957 0.490971 
0.528381 0.728599 0.43584 0.638031 -0.659964 0.396692 -0.876216 -0.455338 0.15784 
0.84622 -0.32469 0.42248 0.405504 0.799536 0.443066 -0.926892 -0.250619 0.279395 
-0.876935 -0.181352 0.445081 -0.894126 0.0209122 0.447327 0.696526 0.386839 0.604324 
0.159016 0.829479 0.535424 -0.800665 -0.58421 0.132794 -0.652532 0.386686 0.651672 
0.647256 0.443611 0.619894 0.540304 0.577025 0.612465 -0.638333 -0.768549 -0.043174 
0.708616 -0.406384 0.576814 -0.877173 -0.192222 0.44002 0.774133 -0.237155 0.58692 
-0.81015 0.123281 0.573113 -0.803928 0.17802 0.567459 -0.617796 0.411223 0.670241 
-0.027127 -0.999234 -0.0282144 0.331772 -0.918985 0.213058 0.565644 -0.441731 0.696362 
0.6542 -0.227135 0.72141 -0.806596 0.125311 0.577668 0.470179 0.563781 0.679031 
-0.332585 0.629104 0.702578 -0.143418 0.736063 0.661546 -0.382512 -0.922561 -0.0506459 
-0.876619 -0.0447831 0.479097 0.673663 0.148431 0.72398 0.166772 -0.971721 0.167169 
-0.796253 -0.50578 0.331916 -0.865546 -0.161069 0.474223 0.194796 0.590792 0.782956 
-0.442749 -0.892297 0.0881994 -0.177491 -0.975547 0.129637 -0.667232 -0.74483 0.00550416 
0.494653 -0.749735 0.439564 -0.774327 -0.590072 0.228544 -0.900219 -0.214369 0.379014 
-0.750051 0.188834 0.63385 -0.372437 0.58692 0.718899 -0.53486 -0.820353 0.20235 
0.67413 -0.491744 0.551123 -0.748136 -0.258502 0.611121 -0.850718 -0.0237914 0.525084 
0.723397 -0.38608 0.572398 0.615991 -0.225811 0.754694 0.532612 -0.158266 0.831431 
-0.476179 0.550208 0.685948 0.490902 -0.053332 0.869581 0.0206646 0.528885 0.848442 
0.0888042 0.430665 0.898132 0.284404 0.253001 0.924719 -0.529155 -0.818839 0.222481 
0.443602 -0.832398 0.33216 -0.54326 -0.73163 0.411809 0.691292 -0.044208 0.721222 
-0.607795 0.336569 0.71924 0.29394 0.0532385 0.95434 -0.141582 0.588545 0.795971 
-0.111312 -0.952927 0.282029 -0.3868 -0.739184 0.551356 0.17279 -0.890094 0.421753 
-0.753886 -0.44961 0.479068 0.749039 -0.412652 0.518323 -0.734874 -0.0104288 0.678123 
-0.75589 -0.0633341 0.651628 0.446144 0.130953 0.885328 -0.376955 0.440427 0.814819 
0.133966 0.495187 0.858396 -0.0531957 -0.750514 0.65871 -0.322367 -0.642523 0.695158 
0.429816 -0.679095 0.595053 -0.513683 -0.398861 0.759631 0.714877 -0.218907 0.664102 
0.737767 0.0432797 0.673667 0.596987 0.368984 0.712361 0.489678 0.419378 0.76442 
0.0239687 0.607676 0.793823 0.226491 0.499485 0.836191 0.308859 0.38152 0.871234 
-0.482682 0.35374 0.801178 -0.390926 0.483558 0.783166 -0.0959285 0.54603 0.832256 
0.0953817 0.486539 0.868437 -0.152215 -0.667208 0.729153 0.188082 -0.461334 0.867062 
-0.352656 -0.387743 0.851639 0.485594 -0.109065 0.867354 -0.728873 0.0625864 0.681783 
0.377062 0.13793 0.91586 -0.561412 0.389899 0.729929 -0.0316598 0.357333 0.93344 
-0.411426 -0.234945 0.880642 -0.0221638 -0.110245 0.993657 0.241463 -0.191884 0.95125 
-0.38415 0.0531529 0.92174 -0.0198232 0.112679 0.993434 0.159987 -0.134045 -0.977975 
-0.130495 -0.4565 -0.880102 -0.431095 -0.229191 -0.872714 0.29073 -0.356041 -0.888094 
-0.0310717 0.241975 -0.969785 -0.325021 0.247739 -0.912681 -0.206499 -0.537164 -0.81781 
-0.195377 -0.715446 -0.670794 -0.572255 -0.596428 -0.562848 0.117349 -0.543874 -0.830921 
0.34956 -0.401986 -0.846295 0.499943 -0.437264 -0.747567 -0.41101 -0.436232 -0.800483 
0.546108 -0.168695 -0.820553 0.464633 0.265288 -0.84483 -0.0471071 0.499534 -0.865013 
0.138128 0.485426 -0.863297 -0.0675063 -0.736272 -0.67331 -0.0558099 -0.795608 -0.603236 
0.237484 -0.7739 -0.587095 0.833711 -0.298362 -0.464657 0.79693 -0.0982761 -0.596024 
-0.301457 0.420027 -0.855979 0.47623 0.250287 -0.842948 -0.223325 -0.817748 -0.530485 
0.482103 -0.580288 -0.656386 0.409778 -0.759228 -0.505624 -0.687364 -0.379804 -0.619096 
-0.621455 0.187308 -0.76073 -0.513847 0.347724 -0.784251 -0.171077 -0.947672 -0.269539 
0.323345 -0.902495 -0.28452 -0.537078 -0.745801 -0.394117 -0.712428 -0.606991 -0.352149 
0.743949 -0.509532 -0.432338 0.556497 -0.126149 -0.821217 0.327955 0.28336 -0.901195 
-0.522565 -0.815827 -0.247694 -0.214228 -0.966194 -0.143439 0.577561 -0.753438 -0.314253 
0.603483 -0.741896 -0.29223 0.699186 -0.338992 -0.629463 -0.781572 -0.150137 -0.605479 
0.543296 -0.00224987 -0.839538 0.245636 0.307314 -0.919359 0.344974 0.279016 -0.896183 
0.388686 0.296613 -0.872321 -0.71754 -0.628651 -0.299891 0.160271 0.455998 -0.875431 
-0.399308 -0.903105 -0.157973 0.163305 -0.970555 -0.17707 0.547933 -0.443285 -0.709413 
-0.797045 -0.146402 -0.585907 -0.466793 0.570383 -0.675846 -0.189761 0.550418 -0.813038 
0.37603 0.195086 -0.905838 0.316879 0.445512 -0.837321 -0.036304 -0.987615 -0.152639 
0.589787 -0.681932 -0.432574 -0.837353 -0.341319 -0.427014 -0.827262 -0.0176495 -0.561539 
-0.6153 0.437796 -0.655546 0.504568 -0.0337796 -0.862711 0.408149 0.36616 -0.836266 
-0.194335 0.627669 -0.753834 -0.487331 -0.872412 -0.0374906 0.403328 -0.878772 -0.255122 
0.596217 0.312945 -0.739317 0.389319 0.536199 -0.748947 -0.0612579 -0.996414 -0.0583612 
0.239759 -0.955164 -0.173717 0.501458 -0.797472 -0.335526 -0.847356 -0.335954 -0.411246 
0.718004 -0.122205 -0.685228 0.661275 0.294654 -0.689851 0.260092 0.719483 -0.64397 
-0.197172 -0.974929 0.103135 0.237718 -0.965204 -0.108952 -0.913061 -0.235331 -0.333075 
-0.855712 -0.473145 -0.209502 0.582938 -0.347133 -0.73463 -0.793536 0.218685 -0.567871 
0.776032 0.185788 -0.602708 0.481114 0.702002 -0.525093 0.430181 -0.878621 -0.20729 
0.63481 -0.518758 -0.57263 0.652686 0.457619 -0.603809 -0.183637 0.674207 -0.715348 
0.159397 0.763561 -0.625753 -0.80883 -0.588041 -0.00111801 0.57547 -0.724014 -0.380312 
-0.934055 -0.215863 -0.284508 0.792456 0.232413 -0.563912 0.555031 0.686126 -0.470289 
-0.143754 0.858279 -0.492638 0.0512737 0.901835 -0.429027 -0.809757 0.145615 -0.56841 
-0.439134 -0.867914 0.232136 0.395379 -0.852745 -0.341322 -0.658022 -0.724946 0.20362 
-0.94792 -0.156312 -0.277513 0.919594 -0.055429 -0.38894 -0.91999 0.0380509 -0.39009 
-0.941665 0.215616 -0.258411 0.658326 0.599715 -0.454915 0.658916 0.583358 -0.474893 
0.385208 0.856482 -0.34359 0.860945 -0.276155 -0.427215 -0.933203 -0.358729 -0.0211306 
0.968993 0.0201663 -0.246266 0.887441 0.311406 -0.339815 0.131074 -0.99043 0.0432291 
0.824405 -0.563993 -0.0476215 -0.739044 -0.663444 0.116858 0.990639 -0.0332662 -0.132392 
-0.986758 -0.151959 -0.0567179 0.454945 0.804213 -0.382447 -0.676204 0.538768 -0.502471 
-0.347317 0.840226 -0.416403 0.947549 -0.270762 -0.169819 -0.945774 0.15809 -0.283758 
0.943812 0.317279 -0.0924799 0.672802 0.698154 -0.244782 0.217233 -0.974158 0.0618599 
-0.893952 -0.43886 0.0908392 -0.992615 -0.0431406 -0.113381 -0.994636 -0.0723072 -0.0739691 
-0.851848 0.386765 -0.353225 0.412621 0.902268 -0.12513 0.974 -0.22648 0.00563796 
-0.912561 0.363828 -0.186716 -0.818556 0.519004 -0.246171 -0.154821 -0.947762 0.278888 
0.266402 -0.92357 0.27577 0.995577 0.0929234 0.0138696 -0.984881 -0.172609 -0.0147122 
-0.99429 0.0911105 -0.0555523 -0.687128 0.682353 -0.2495 -0.536615 0.805487 -0.251465 
-0.0148987 -0.921939 0.387048 0.533073 -0.82574 0.184357 -0.882754 0.465781 -0.0615965 
0.535209 0.843105 0.052211 -0.392297 0.913477 -0.107991 -0.142748 0.974109 -0.175313 
-0.98163 0.114198 0.152843 -0.947967 0.275786 0.159061 -0.84104 0.540216 -0.0286075 
-0.675442 0.731719 -0.0914624 0.255341 0.964026 -0.0738549 -0.8211 -0.541373 0.180861 
-0.975354 -0.16102 0.150854 0.49648 0.836952 0.230259 -0.751614 0.651957 0.10014 
0.901223 -0.278168 0.332293 -0.644595 -0.710078 0.283347 0.947553 0.147648 0.28345 
0.852222 0.494751 0.170113 0.420188 0.75105 0.50928 -0.762242 0.611886 0.211147 
0.119038 0.990199 0.0730463 0.716244 -0.555792 0.422007 -0.843728 -0.44889 0.294314 
0.792211 0.33257 0.511663 -0.881068 0.436809 0.18143 0.524267 0.805925 0.275007 