# vtk DataFile Version 4.2
vtk output
ASCII
DATASET POLYDATA
POINTS 2327 float
325.757 147.467 21.7668 325.929 147.444 21.8448 325.364 147.545 21.9151 
323.848 148.901 21.4197 320.223 149.858 21.5511 306.245 151.923 22.2938 
305.409 152.973 21.5194 308.139 152.841 21.3678 322.776 151.739 20.8597 
305.668 154.167 21.0761 314.682 156.423 20.6293 334.835 142.803 23.161 
335.865 143.224 22.5356 333.276 144.3 22.6202 330.489 145.311 22.8584 
335.486 144.473 22.14 328.84 145.751 23.1255 325.757 147.4 21.8851 
330.845 146.715 21.9806 323.746 147.564 22.6968 326.201 147.186 22.2615 
322.426 148.141 22.5288 326.726 148.901 21.3695 331.285 148.268 21.5471 
320.33 148.965 22.4141 313.858 150.532 22.766 313.266 150.901 22.314 
331.034 150.07 21.3286 293.862 151.67 23.3712 293.426 152.294 22.7952 
295.16 152.959 22.3325 298.191 152.968 22.1859 302.826 153.548 21.6352 
297.581 154.435 21.6529 298.237 156.171 21.3513 331.165 158.536 21.8942 
325.384 160.509 21.5409 324.147 163.089 22.1223 316.821 165.834 22.103 
341.535 139.304 23.8151 343.139 139.253 23.3407 340.337 140.435 23.4958 
338.402 141.253 23.521 335.313 142.356 23.4477 339.221 142.057 22.8744 
334.728 142.571 23.6357 342.343 142.28 22.6053 329.472 145.286 23.4965 
326.641 146.625 22.8302 322.325 147.989 23.1021 286.085 150.389 23.842 
316.154 149.88 23.0133 320.145 148.801 22.9911 291.035 151.199 23.5107 
291.911 151.216 23.6128 313.038 150.692 22.8752 314.529 150.248 23.2546 
310.429 151.141 23.1311 288.513 152.475 22.7451 340.599 152.677 22.3825 
342.799 154.022 23.1653 336.863 155.941 22.3042 340.217 155.82 23.0777 
340.757 156.413 23.591 338.821 157.523 23.5118 330.887 160.063 22.307 
333.416 159.662 22.7825 333.888 160.166 23.2962 337.216 158.976 23.9065 
331.189 161.24 22.9936 331.959 161.188 23.301 335.285 160.044 23.9022 
328.621 162.434 22.9058 331.781 161.683 23.7509 333.334 161.059 23.9147 
325.643 163.673 22.7737 327.119 163.654 23.326 291.153 165.759 22.6496 
325.89 164.473 23.7335 327.388 163.921 23.7906 317.975 167.24 23.1618 
317.797 167.76 23.6094 320.154 166.913 23.8066 296.228 169.278 22.842 
305.092 170.268 22.9723 309.015 169.954 23.1025 310.428 170.471 23.815 
348.971 134.43 24.5832 344.924 136.586 24.7608 344.48 137.091 24.4401 
342.405 138.247 24.3867 335.975 141.848 24.2369 336.472 141.659 24.0106 
327.972 145.754 23.8567 329.398 145.2 24.077 325.892 146.638 23.3716 
326.13 146.527 23.9326 327.272 146.03 23.9975 281.287 148.455 25.3586 
281.875 149.246 24.6628 282.48 148.601 25.3211 282.734 149.1 24.7977 
321.608 148.307 23.9122 280.98 150.015 24.437 287.202 149.808 24.6325 
317.612 149.528 24.007 282.493 150.563 23.9436 284.538 150.321 23.9258 
315.26 150.063 23.7524 281.775 151.624 23.7721 293.518 151.032 24.489 
295.45 151.334 24.3018 312.082 150.831 23.588 282.371 152.246 23.508 
347.894 151.299 23.9389 280.756 153.406 23.96 348.113 152.591 24.7186 
280.224 155.304 24.1703 345.014 154.005 23.97 347.324 153.358 24.9419 
279.587 156.519 24.6426 344.914 154.607 24.3918 281.507 157.184 23.5581 
345.178 154.861 24.8887 341.348 156.643 24.0738 341.825 156.691 24.4807 
343.26 156.006 24.7941 279.979 159.861 24.3335 335.862 159.905 24.17 
280.804 162.2 24.0329 334.549 160.721 24.5013 332.551 161.626 24.5566 
331.154 162.194 24.4176 326.768 164.365 24.3232 294.754 168.958 22.8937 
317.908 167.995 24.0617 296.793 170.031 23.0086 292.98 171.547 23.7161 
299.478 171.634 23.4864 312.933 170.04 24.4174 302.005 172.196 23.9401 
308.881 171.297 24.3698 305.341 172.301 24.6462 306.212 172.211 24.8004 
352.124 130.003 26.1358 351.919 130.497 25.9055 353.531 130.07 25.6156 
354.638 131.028 25.2442 349.441 132.764 25.6722 350.547 134.563 24.3706 
355.91 134.046 24.7996 345.878 135.532 25.5201 343.586 137.289 25.0761 
341.178 138.877 24.7707 338.174 140.831 24.9082 336.126 141.897 24.7457 
335.024 142.578 24.7842 334.192 142.883 24.399 327.904 145.794 24.2916 
327.549 146.015 24.4872 328.979 145.613 24.8367 279.748 148.504 26.0028 
279.579 148.77 25.7585 280.195 148.37 25.8397 280.847 148.571 25.2698 
281.303 148.24 25.7382 281.701 148.188 26.0162 280.682 148.919 25.0328 
283.058 148.556 25.6274 279.163 149.653 25.7297 286.263 149.39 25.3825 
316.826 149.983 24.6804 279.374 150.178 25.2884 291.62 150.498 24.979 
292.236 150.619 25.2402 313.736 150.754 24.5789 312.897 150.75 24.1047 
315.287 150.237 24.3651 350.72 149.668 24.4691 298.225 151.65 24.7243 
304.36 151.696 24.4929 347.923 152.959 24.9334 346.759 153.94 25.1954 
347.965 153.13 25.3424 344.35 155.5 25.482 341.773 156.899 24.934 
343.081 156.202 25.2262 339.238 158.305 24.9515 340.478 157.641 25.2373 
279.662 160.862 24.6695 337.088 159.436 24.8666 335.133 160.488 24.864 
279.331 164.11 25.2999 329.587 162.948 24.7175 279.897 165.059 24.9101 
326.092 164.49 25.1227 326.583 164.201 25.2427 327.735 163.956 24.5024 
282.126 166.042 23.9727 325.75 164.695 24.8193 325.09 164.842 25.0122 
327.171 164.223 24.6011 283.002 166.997 23.8737 322.104 166.044 24.9836 
320.429 166.982 24.5249 319.955 167.199 24.7469 278.967 169.112 26.0356 
319.208 167.52 24.729 279.387 170.053 25.5815 279.93 170.996 25.2123 
312.221 170.445 25.244 312.686 170.229 25.6088 314.346 169.604 25.2717 
310.299 171.028 24.713 282.981 172.811 24.453 307.535 171.964 25.259 
279.325 173.808 25.8482 295.472 173.53 24.4807 301.954 173.192 24.9625 
303.714 172.946 25.0457 304.305 172.894 25.2503 278.944 174.671 26.4254 
279.795 174.577 25.6238 281.154 174.542 25.0718 283.703 174.485 24.6841 
285.525 174.443 24.6495 303.234 173.206 25.3675 279.27 175.315 26.1815 
282.701 175.254 24.994 296.639 174.812 25.6622 296.998 174.46 25.3158 
279.26 175.884 26.3957 279.017 175.925 26.7612 283.432 175.878 25.2023 
285.179 175.774 25.1458 287.995 175.719 25.456 293.754 175.229 25.7788 
279.276 176.264 26.6031 280.797 176.432 25.9416 280.016 176.727 26.5108 
280.633 176.802 26.3385 286.244 176.641 25.9296 354.001 127.337 26.9825 
354.483 127.38 26.7394 351.668 130.212 26.3127 355.4 128.615 26.0524 
349.68 131.867 26.4483 349.324 132.455 26.2046 347.535 134.013 25.8684 
348.497 133.213 26.3789 344.195 136.85 25.4803 342.402 138.098 25.4687 
341.898 138.553 25.6571 341.236 138.886 25.3233 360.515 137.466 25.6614 
340.72 139.363 25.5264 338.87 140.686 25.4396 336.843 141.8 25.1445 
360.373 142.606 26.4645 327.598 146.283 24.9088 358.583 144.779 26.551 
359.118 144.358 26.7337 279.598 148.499 26.472 280.499 148.202 26.1248 
281.058 148.14 26.18 357.357 145.557 26.1625 358.222 145.251 26.714 
282.976 148.416 26.1757 283.632 148.594 26.5193 284.394 148.819 26.3247 
286.94 149.467 25.8932 316.145 150.266 24.81 320.314 149.365 24.902 
355.768 147.146 26.4723 278.751 150.476 26.2172 314.598 150.895 25.0355 
297.916 151.867 25.3704 349.182 152.343 25.5753 346.69 154.095 25.6833 
278.558 156.166 26.3023 343.616 155.902 25.6112 341.574 157.018 25.432 
337.677 159.092 25.2016 335.666 160.198 25.1898 333.763 161.128 25.1901 
331.681 161.843 25.2654 331.082 161.698 25.6919 332.577 161.465 25.4948 
328.786 162.959 25.4777 330.158 162.206 25.6254 327.36 163.785 25.3363 
327.494 164.014 24.8673 325.391 164.397 25.5994 278.653 167.174 26.5229 
321.738 165.825 25.5451 319.891 166.873 25.5461 316.351 168.745 25.3551 
311.463 170.615 25.849 312.708 170.062 26.0784 313.979 169.657 25.6674 
309.6 171.317 25.3263 309.076 171.452 25.5791 310.682 170.82 25.904 
278.732 173.122 26.6954 305.905 172.464 25.9062 304.303 173.005 25.6238 
303.846 173.176 25.8635 278.805 175.45 27.0362 292.581 175.83 26.2398 
294.489 175.415 26.2594 292.146 176.009 26.3938 279.435 176.729 27.1122 
279.892 176.913 26.9205 281.135 177.093 26.6584 283.745 177.093 26.3805 
285.294 176.952 26.1836 355.44 124.131 28.0557 353.713 126.973 27.4841 
352.756 128.007 27.7313 351.515 129.931 26.8983 351.017 130.416 27.0965 
349.208 132.533 26.9066 348.818 133.058 27.074 345.414 136.084 26.2376 
364.177 134.394 26.9814 344.988 136.617 26.3646 343.235 138.087 26.2849 
339.781 140.554 25.9831 338.574 142.075 26.1899 339.446 141.837 26.4368 
340.895 141.324 26.811 338.108 144.362 26.6917 361.153 142.718 27.2578 
328.865 146.538 25.6019 328.707 147.201 25.9099 359.309 144.448 27.2884 
279.948 148.344 26.8532 323.733 148.61 25.3815 358.318 145.342 27.1788 
324.666 149.077 25.886 329.353 148.558 26.4402 336.825 147.933 26.9594 
278.743 149.917 26.6977 285.102 149.117 26.7246 285.817 149.264 26.519 
288.395 149.972 26.6349 319.403 150.292 25.5285 354.661 148.037 26.7233 
315.64 151.237 25.5412 319.324 150.97 25.9215 324.357 150.577 26.3566 
278.509 151.428 26.7823 296.961 151.912 25.771 297.395 152.451 26.2888 
314.416 152.069 25.8312 334.783 150.818 27.0057 352.329 149.934 26.5457 
352.398 149.657 26.9252 298.256 152.908 26.4505 299.116 152.955 26.2863 
315.296 152.697 26.1958 351.215 150.589 26.7751 298.197 153.316 26.7174 
298.409 153.912 26.9242 316.193 153.441 26.4715 348.621 152.757 26.171 
348.137 152.998 26.4106 278.4 154.727 26.9976 309.013 155.246 26.636 
278.48 156.472 26.8563 278.493 155.757 27.3911 328.853 155.862 26.9516 
345.241 154.627 26.6799 336.46 156.144 26.9935 343.556 155.454 26.4563 
344.433 155.195 26.4082 278.55 157.725 27.4678 341.343 156.994 25.8116 
340.847 157.07 26.0059 317.924 159.939 26.9408 337.469 159.048 25.6259 
336.987 159.119 25.8438 333.677 159.394 26.5162 335.497 160.153 25.5629 
335.089 160.194 25.7623 333.639 161.053 25.5459 333.271 161.048 25.7362 
328.547 162.306 26.0203 330.166 161.738 25.9858 325.298 163.442 26.1147 
327.283 162.951 26.0504 327.824 162.805 26.0318 324.404 163.966 26.0327 
325.343 163.916 25.9866 327.789 163.328 25.6978 278.493 166.262 27.0588 
319.044 165.146 26.5793 321.388 165.061 26.1289 319.513 165.784 26.3604 
320.263 166.174 25.9876 319.295 167.178 25.5769 318.783 167.208 25.7993 
315.338 168.837 25.9248 314.596 168.992 26.1695 278.666 171.401 27.1401 
311.181 170.557 26.1898 310.622 170.596 26.3898 311.765 170.016 26.6047 
313.043 169.781 26.2637 308.246 171.455 26.3004 305.644 172.446 26.4518 
[...]
POINT_DATA 2327
COLOR_SCALARS scalars 3
0.0823529 0.690196 0.701961 0.0823529 0.690196 0.701961 0.0823529 0.690196 0.701961 
0.0823529 0.690196 0.701961 0.0823529 0.690196 0.701961 
0.0823529 0.690196 0.701961 0.0823529 0.690196 0.701961 
0.0823529 0.690196 0.701961 0.0823529 0.690196 0.701961 
0.0823529 0.690196 0.701961 0.0823529 0.690196 0.701961 
0.0823529 0.690196 0.701961 0.0823529 0.690196 0.701961 
0.0823529 0.690196 0.701961 0.0823529 0.690196 0.701961 
0.0823529 0.690196 0.701961 0.0823529 0.690196 0.701961 
0.0823529 0.690196 0.701961 0.0823529 0.690196 0.701961 
0.0823529 0.690196 0.701961 0.0823529 0.690196 0.701961 
0.0823529 0.690196 0.701961 0.0823529 0.690196 0.701961 
0.0823529 0.690196 0.701961 0.0823529 0.690196 0.701961 
0.0823529 0.690196 0.701961 0.0823529 0.690196 0.701961 
0.0823529 0.690196 0.701961 0.0823529 0.690196 0.701961 
0.0823529 0.690196 0.701961 0.0823529 0.690196 0.701961 
0.0823529 0.690196 0.701961 0.0823529 0.690196 0.701961 
0.0823529 0.690196 0.701961 0.0823529 0.690196 0.701961 
0.0823529 0.690196 0.701961 0.0823529 0.690196 0.701961 
0.0823529 0.690196 0.701961 0.0823529 0.690196 0.701961 
0.0823529 0.690196 0.701961 0.0823529 0.690196 0.701961 
0.0823529 0.690196 0.701961 0.0823529 0.690196 0.701961 
0.0823529 0.690196 0.701961 0.0823529 0.690196 0.701961 
0.0823529 0.690196 0.701961 0.0823529 0.690196 0.701961 
0.0823529 0.690196 0.701961 0.0823529 0.690196 0.701961 
0.0823529 0.690196 0.701961 0.0823529 0.690196 0.701961 
0.0823529 0.690196 0.701961 0.0823529 0.690196 0.701961 
0.0823529 0.690196 0.701961 0.0823529 0.690196 0.701961 
0.0823529 0.690196 0.701961 0.0823529 0.690196 0.701961 
0.0823529 0.690196 0.701961 0.0823529 0.690196 0.701961 
0.0823529 0.690196 0.701961 0.0823529 0.690196 0.701961 
0.0823529 0.690196 0.701961 0.0823529 0.690196 0.701961 
0.0823529 0.690196 0.701961 0.0823529 0.690196 0.701961 
0.0823529 0.690196 0.701961 0.0823529 0.690196 0.701961 
0.0823529 0.690196 0.701961 0.0823529 0.690196 0.701961 
0.0823529 0.690196 0.701961 0.0823529 0.690196 0.701961 
0.0823529 0.690196 0.701961 0.0823529 0.690196 0.701961 
0.0823529 0.690196 0.701961 0.0823529 0.690196 0.701961 
0.0823529 0.690196 0.701961 0.0823529 0.690196 0.701961 
0.0823529 0.690196 0.701961 0.0823529 0.690196 0.701961 
0.0823529 0.690196 0.701961 0.0823529 0.690196 0.701961 
0.0823529 0.690196 0.701961 0.0823529 0.690196 0.701961 
0.0823529 0.690196 0.701961 0.0823529 0.690196 0.701961 
0.0823529 0.690196 0.701961 0.0823529 0.690196 0.701961 
0.0823529 0.690196 0.701961 0.0823529 0.690196 0.701961 
0.0823529 0.690196 0.701961 0.0823529 0.690196 0.701961 
0.0823529 0.690196 0.701961 0.0823529 0.690196 0.701961 
0.0823529 0.690196 0.701961 0.0823529 0.690196 0.701961 
0.0823529 0.690196 0.701961 0.0823529 0.690196 0.701961 
0.0823529 0.690196 0.701961 0.0823529 0.690196 0.701961 
0.0823529 0.690196 0.701961 0.0823529 0.690196 0.701961 
0.0823529 0.690196 0.701961 0.0823529 0.690196 0.701961 
0.0823529 0.690196 0.701961 0.0823529 0.690196 0.701961 
0.0823529 0.690196 0.701961 0.0823529 0.690196 0.701961 
0.0823529 0.690196 0.701961 0.0823529 0.690196 0.701961 
0.0823529 0.690196 0.701961 0.0823529 0.690196 0.701961 
0.0823529 0.690196 0.701961 0.0823529 0.690196 0.701961 
0.0823529 0.690196 0.701961 0.0823529 0.690196 0.701961 
0.0823529 0.690196 0.701961 0.0823529 0.690196 0.701961 
0.0823529 0.690196 0.701961 0.0823529 0.690196 0.701961 
0.0823529 0.690196 0.701961 0.0823529 0.690196 0.701961 
0.0823529 0.690196 0.701961 0.0823529 0.690196 0.701961 
0.0823529 0.690196 0.701961 0.0823529 0.690196 0.701961 
0.0823529 0.690196 0.701961 0.0823529 0.690196 0.701961 
0.0823529 0.690196 0.701961 0.0823529 0.690196 0.701961 
0.0823529 0.690196 0.701961 0.0823529 0.690196 0.701961 
0.0823529 0.690196 0.701961 0.0823529 0.690196 0.701961 
0.0823529 0.690196 0.701961 0.0823529 0.690196 0.701961 
0.0823529 0.690196 0.701961 0.0823529 0.690196 0.701961 
0.0823529 0.690196 0.701961 0.0823529 0.690196 0.701961 
0.0823529 0.690196 0.701961 0.0823529 0.690196 0.701961 
0.0823529 0.690196 0.701961 0.0823529 0.690196 0.701961 
0.0823529 0.690196 0.701961 0.0823529 0.690196 0.701961 
0.0823529 0.690196 0.701961 0.0823529 0.690196 0.701961 
0.0823529 0.690196 0.701961 0.0823529 0.690196 0.701961 
0.0823529 0.690196 0.701961 0.0823529 0.690196 0.701961 
0.0823529 0.690196 0.701961 0.0823529 0.690196 0.701961 
0.0823529 0.690196 0.701961 0.0823529 0.690196 0.701961 
0.0823529 0.690196 0.701961 0.0823529 0.690196 0.701961 
0.0823529 0.690196 0.701961 0.0823529 0.690196 0.701961 
0.0823529 0.690196 0.701961 0.0823529 0.690196 0.701961 
0.0823529 0.690196 0.701961 0.0823529 0.690196 0.701961 
0.0823529 0.690196 0.701961 0.0823529 0.690196 0.701961 
0.0823529 0.690196 0.701961 0.0823529 0.690196 0.701961 
0.0823529 0.690196 0.701961 0.0823529 0.690196 0.701961 
0.0823529 0.690196 0.701961 0.0823529 0.690196 0.701961 
0.0823529 0.690196 0.701961 0.0823529 0.690196 0.701961 
0.0823529 0.690196 0.701961 0.0823529 0.690196 0.701961 
0.0823529 0.690196 0.701961 0.0823529 0.690196 0.701961 
0.0823529 0.690196 0.701961 0.0823529 0.690196 0.701961 
0.0823529 0.690196 0.701961 0.0823529 0.690196 0.701961 
0.0823529 0.690196 0.701961 0.0823529 0.690196 0.701961 
0.0823529 0.690196 0.701961 0.0823529 0.690196 0.701961 
0.0823529 0.690196 0.701961 0.0823529 0.690196 0.701961 
0.0823529 0.690196 0.701961 0.0823529 0.690196 0.701961 
0.0823529 0.690196 0.701961 0.0823529 0.690196 0.701961 
0.0823529 0.690196 0.701961 0.0823529 0.690196 0.701961 
0.0823529 0.690196 0.701961 0.0823529 0.690196 0.701961 
0.0823529 0.690196 0.701961 0.0823529 0.690196 0.701961 
0.0823529 0.690196 0.701961 0.0823529 0.690196 0.701961 
0.0823529 0.690196 0.701961 0.0823529 0.690196 0.701961 
0.0823529 0.690196 0.701961 0.0823529 0.690196 0.701961 
0.0823529 0.690196 0.701961 0.0823529 0.690196 0.701961 
0.0823529 0.690196 0.701961 0.0823529 0.690196 0.701961 
0.0823529 0.690196 0.701961 0.0823529 0.690196 0.701961 
0.0823529 0.690196 0.701961 0.0823529 0.690196 0.701961 
0.0823529 0.690196 0.701961 0.0823529 0.690196 0.701961 
0.0823529 0.690196 0.701961 0.0823529 0.690196 0.701961 
0.0823529 0.690196 0.701961 0.0823529 0.690196 0.701961 
0.0823529 0.690196 0.701961 0.0823529 0.690196 0.701961 
0.0823529 0.690196 0.701961 0.0823529 0.690196 0.701961 
0.0823529 0.690196 0.701961 0.0823529 0.690196 0.701961 
0.0823529 0.690196 0.701961 0.0823529 0.690196 0.701961 
0.0823529 0.690196 0.701961 0.0823529 0.690196 0.701961 
0.0823529 0.690196 0.701961 0.0823529 0.690196 0.701961 
0.0823529 0.690196 0.701961 0.0823529 0.690196 0.701961 
0.0823529 0.690196 0.701961 0.0823529 0.690196 0.701961 
0.0823529 0.690196 0.701961 0.0823529 0.690196 0.701961 
0.0823529 0.690196 0.701961 0.0823529 0.690196 0.701961 
0.0823529 0.690196 0.701961 0.0823529 0.690196 0.701961 
0.0823529 0.690196 0.701961 0.0823529 0.690196 0.701961 
0.0823529 0.690196 0.701961 0.0823529 0.690196 0.701961 
0.0823529 0.690196 0.701961 0.0823529 0.690196 0.701961 
0.0823529 0.690196 0.701961 0.0823529 0.690196 0.701961 
0.0823529 0.690196 0.701961 0.0823529 0.690196 0.701961 
0.0823529 0.690196 0.701961 0.0823529 0.690196 0.701961 
0.0823529 0.690196 0.701961 0.0823529 0.690196 0.701961 
0.0823529 0.690196 0.701961 0.0823529 0.690196 0.701961 
0.0823529 0.690196 0.701961 0.0823529 0.690196 0.701961 
0.0823529 0.690196 0.701961 0.0823529 0.690196 0.701961 
0.0823529 0.690196 0.701961 0.0823529 0.690196 0.701961 
0.0823529 0.690196 0.701961 0.0823529 0.690196 0.701961 
0.0823529 0.690196 0.701961 0.0823529 0.690196 0.701961 
0.0823529 0.690196 0.701961 0.0823529 0.690196 0.701961 
0.0823529 0.690196 0.701961 0.0823529 0.690196 0.701961 
0.0823529 0.690196 0.701961 0.0823529 0.690196 0.701961 
0.0823529 0.690196 0.701961 0.0823529 0.690196 0.701961 
0.0823529 0.690196 0.701961 0.0823529 0.690196 0.701961 
0.0823529 0.690196 0.701961 0.0823529 0.690196 0.701961 
0.0823529 0.690196 0.701961 0.0823529 0.690196 0.701961 
0.0823529 0.690196 0.701961 0.0823529 0.690196 0.701961 
0.0823529 0.690196 0.701961 0.0823529 0.690196 0.701961 
0.0823529 0.690196 0.701961 0.0823529 0.690196 0.701961 
0.0823529 0.690196 0.701961 0.0823529 0.690196 0.701961 
0.0823529 0.690196 0.701961 0.0823529 0.690196 0.701961 
0.0823529 0.690196 0.701961 0.0823529 0.690196 0.701961 
0.0823529 0.690196 0.701961 0.0823529 0.690196 0.701961 
0.0823529 0.690196 0.701961 0.0823529 0.690196 0.701961 
0.0823529 0.690196 0.701961 0.0823529 0.690196 0.701961 
0.0823529 0.690196 0.701961 0.0823529 0.690196 0.701961 
0.0823529 0.690196 0.701961 0.0823529 0.690196 0.701961 
0.0823529 0.690196 0.701961 0.0823529 0.690196 0.701961 
0.0823529 0.690196 0.701961 0.0823529 0.690196 0.701961 
0.0823529 0.690196 0.701961 0.0823529 0.690196 0.701961 
0.0823529 0.690196 0.701961 0.0823529 0.690196 0.701961 
0.0823529 0.690196 0.701961 0.0823529 0.690196 0.701961 
0.0823529 0.690196 0.701961 0.0823529 0.690196 0.701961 
0.0823529 0.690196 0.701961 0.0823529 0.690196 0.701961 
0.0823529 0.690196 0.701961 0.0823529 0.690196 0.701961 
0.0823529 0.690196 0.701961 0.0823529 0.690196 0.701961 
0.0823529 0.690196 0.701961 0.0823529 0.690196 0.701961 
0.0823529 0.690196 0.701961 0.0823529 0.690196 0.701961 
0.0823529 0.690196 0.701961 0.0823529 0.690196 0.701961 
0.0823529 0.690196 0.701961 0.0823529 0.690196 0.701961 
0.0823529 0.690196 0.701961 0.0823529 0.690196 0.701961 
0.0823529 0.690196 0.701961 0.0823529 0.690196 0.701961 
0.0823529 0.690196 0.701961 0.0823529 0.690196 0.701961 
0.0823529 0.690196 0.701961 0.0823529 0.690196 0.701961 
0.0823529 0.690196 0.701961 0.0823529 0.690196 0.701961 
0.0823529 0.690196 0.701961 0.0823529 0.690196 0.701961 
0.0823529 0.690196 0.701961 0.0823529 0.690196 0.701961 
0.0823529 0.690196 0.701961 0.0823529 0.690196 0.701961 
0.0823529 0.690196 0.701961 0.0823529 0.690196 0.701961 
0.0823529 0.690196 0.701961 0.0823529 0.690196 0.701961 
0.0823529 0.690196 0.701961 0.0823529 0.690196 0.701961 
0.0823529 0.690196 0.701961 0.0823529 0.690196 0.701961 
0.0823529 0.690196 0.701961 0.0823529 0.690196 0.701961 
0.0823529 0.690196 0.701961 0.0823529 0.690196 0.701961 
0.0823529 0.690196 0.701961 0.0823529 0.690196 0.701961 
0.0823529 0.690196 0.701961 0.0823529 0.690196 0.701961 
0.0823529 0.690196 0.701961 0.0823529 0.690196 0.701961 
0.0823529 0.690196 0.701961 0.0823529 0.690196 0.701961 
0.0823529 0.690196 0.701961 0.0823529 0.690196 0.701961 
0.0823529 0.690196 0.701961 0.0823529 0.690196 0.701961 
0.0823529 0.690196 0.701961 0.0823529 0.690196 0.701961 
0.0823529 0.690196 0.701961 0.0823529 0.690196 0.701961 
0.0823529 0.690196 0.701961 0.0823529 0.690196 0.701961 
0.0823529 0.690196 0.701961 0.0823529 0.690196 0.701961 
0.0823529 0.690196 0.701961 0.0823529 0.690196 0.701961 
0.0823529 0.690196 0.701961 0.0823529 0.690196 0.701961 
0.0823529 0.690196 0.701961 0.0823529 0.690196 0.701961 
0.0823529 0.690196 0.701961 0.0823529 0.690196 0.701961 
0.0823529 0.690196 0.701961 0.0823529 0.690196 0.701961 
0.0823529 0.690196 0.701961 0.0823529 0.690196 0.701961 
0.0823529 0.690196 0.701961 0.0823529 0.690196 0.701961 
0.0823529 0.690196 0.701961 0.0823529 0.690196 0.701961 
0.0823529 0.690196 0.701961 0.0823529 0.690196 0.701961 
0.0823529 0.690196 0.701961 0.0823529 0.690196 0.701961 
0.0823529 0.690196 0.701961 0.0823529 0.690196 0.701961 
0.0823529 0.690196 0.701961 0.0823529 0.690196 0.701961 
0.0823529 0.690196 0.701961 0.0823529 0.690196 0.701961 
0.0823529 0.690196 0.701961 0.0823529 0.690196 0.701961 
0.0823529 0.690196 0.701961 0.0823529 0.690196 0.701961 
0.0823529 0.690196 0.701961 0.0823529 0.690196 0.701961 
0.0823529 0.690196 0.701961 0.0823529 0.690196 0.701961 
0.0823529 0.690196 0.701961 0.0823529 0.690196 0.701961 
0.0823529 0.690196 0.701961 0.0823529 0.690196 0.701961 
0.0823529 0.690196 0.701961 0.0823529 0.690196 0.701961 
0.0823529 0.690196 0.701961 0.0823529 0.690196 0.701961 
0.0823529 0.690196 0.701961 0.0823529 0.690196 0.701961 
0.0823529 0.690196 0.701961 0.0823529 0.690196 0.701961 
0.0823529 0.690196 0.701961 0.0823529 0.690196 0.701961 
0.0823529 0.690196 0.701961 0.0823529 0.690196 0.701961 
0.0823529 0.690196 0.701961 0.0823529 0.690196 0.701961 
0.0823529 0.690196 0.701961 0.0823529 0.690196 0.701961 
0.0823529 0.690196 0.701961 0.0823529 0.690196 0.701961 
0.0823529 0.690196 0.701961 0.0823529 0.690196 0.701961 
0.0823529 0.690196 0.701961 0.0823529 0.690196 0.701961 
0.0823529 0.690196 0.701961 0.0823529 0.690196 0.701961 
0.0823529 0.690196 0.701961 0.0823529 0.690196 0.701961 
0.0823529 0.690196 0.701961 0.0823529 0.690196 0.701961 
0.0823529 0.690196 0.701961 0.0823529 0.690196 0.701961 
0.0823529 0.690196 0.701961 0.0823529 0.690196 0.701961 
0.0823529 0.690196 0.701961 0.0823529 0.690196 0.701961 
0.0823529 0.690196 0.701961 0.0823529 0.690196 0.701961 
0.0823529 0.690196 0.701961 0.0823529 0.690196 0.701961 
0.0823529 0.690196 0.701961 0.0823529 0.690196 0.701961 
0.0823529 0.690196 0.701961 0.0823529 0.690196 0.701961 
0.0823529 0.690196 0.701961 0.0823529 0.690196 0.701961 
0.0823529 0.690196 0.701961 0.0823529 0.690196 0.701961 
0.0823529 0.690196 0.701961 0.0823529 0.690196 0.701961 
0.0823529 0.690196 0.701961 0.0823529 0.690196 0.701961 
0.0823529 0.690196 0.701961 0.0823529 0.690196 0.701961 
0.0823529 0.690196 0.701961 0.0823529 0.690196 0.701961 
0.0823529 0.690196 0.701961 0.0823529 0.690196 0.701961 
0.0823529 0.690196 0.701961 0.0823529 0.690196 0.701961 
0.0823529 0.690196 0.701961 0.0823529 0.690196 0.701961 
0.0823529 0.690196 0.701961 0.0823529 0.690196 0.701961 
0.0823529 0.690196 0.701961 0.0823529 0.690196 0.701961 
0.0823529 0.690196 0.701961 0.0823529 0.690196 0.701961 
0.0823529 0.690196 0.701961 0.0823529 0.690196 0.701961 
0.0823529 0.690196 0.701961 0.0823529 0.690196 0.701961 
0.0823529 0.690196 0.701961 0.0823529 0.690196 0.701961 
0.0823529 0.690196 0.701961 0.0823529 0.690196 0.701961 
0.0823529 0.690196 0.701961 0.0823529 0.690196 0.701961 
0.0823529 0.690196 0.701961 0.0823529 0.690196 0.701961 
0.0823529 0.690196 0.701961 0.0823529 0.690196 0.701961 
0.0823529 0.690196 0.701961 0.0823529 0.690196 0.701961 
0.0823529 0.690196 0.701961 0.0823529 0.690196 0.701961 
0.0823529 0.690196 0.701961 0.0823529 0.690196 0.701961 
0.0823529 0.690196 0.701961 0.0823529 0.690196 0.701961 
0.0823529 0.690196 0.701961 0.0823529 0.690196 0.701961 
0.0823529 0.690196 0.701961 0.0823529 0.690196 0.701961 
0.0823529 0.690196 0.701961 0.0823529 0.690196 0.701961 
0.0823529 0.690196 0.701961 0.0823529 0.690196 0.701961 
0.0823529 0.690196 0.701961 0.0823529 0.690196 0.701961 
0.0823529 0.690196 0.701961 0.0823529 0.690196 0.701961 
0.0823529 0.690196 0.701961 0.0823529 0.690196 0.701961 
0.0823529 0.690196 0.701961 0.0823529 0.690196 0.701961 
0.0823529 0.690196 0.701961 0.0823529 0.690196 0.701961 
0.0823529 0.690196 0.701961 0.0823529 0.690196 0.701961 
0.0823529 0.690196 0.701961 0.0823529 0.690196 0.701961 
0.0823529 0.690196 0.701961 0.0823529 0.690196 0.701961 
0.0823529 0.690196 0.701961 0.0823529 0.690196 0.701961 
0.0823529 0.690196 0.701961 0.0823529 0.690196 0.701961 
0.0823529 0.690196 0.701961 0.0823529 0.690196 0.701961 
0.0823529 0.690196 0.701961 0.0823529 0.690196 0.701961 
0.0823529 0.690196 0.701961 0.0823529 0.690196 0.701961 
0.0823529 0.690196 0.701961 0.0823529 0.690196 0.701961 
0.0823529 0.690196 0.701961 0.0823529 0.690196 0.701961 
0.0823529 0.690196 0.701961 0.0823529 0.690196 0.701961 
0.0823529 0.690196 0.701961 0.0823529 0.690196 0.701961 
0.0823529 0.690196 0.701961 0.0823529 0.690196 0.701961 
0.0823529 0.690196 0.701961 0.0823529 0.690196 0.701961 
0.0823529 0.690196 0.701961 0.0823529 0.690196 0.701961 
0.0823529 0.690196 0.701961 0.0823529 0.690196 0.701961 
0.0823529 0.690196 0.701961 0.0823529 0.690196 0.701961 
0.0823529 0.690196 0.701961 0.0823529 0.690196 0.701961 
0.0823529 0.690196 0.701961 0.0823529 0.690196 0.701961 
0.0823529 0.690196 0.701961 0.0823529 0.690196 0.701961 
0.0823529 0.690196 0.701961 0.0823529 0.690196 0.701961 
0.0823529 0.690196 0.701961 0.0823529 0.690196 0.701961 
0.0823529 0.690196 0.701961 0.0823529 0.690196 0.701961 
0.0823529 0.690196 0.701961 0.0823529 0.690196 0.701961 
0.0823529 0.690196 0.701961 0.0823529 0.690196 0.701961 
0.0823529 0.690196 0.701961 0.0823529 0.690196 0.701961 
0.0823529 0.690196 0.701961 0.0823529 0.690196 0.701961 
0.0823529 0.690196 0.701961 0.0823529 0.690196 0.701961 
0.0823529 0.690196 0.701961 0.0823529 0.690196 0.701961 
0.0823529 0.690196 0.701961 0.0823529 0.690196 0.701961 
0.0823529 0.690196 0.701961 0.0823529 0.690196 0.701961 
0.0823529 0.690196 0.701961 0.0823529 0.690196 0.701961 
0.0823529 0.690196 0.701961 0.0823529 0.690196 0.701961 
0.0823529 0.690196 0.701961 0.0823529 0.690196 0.701961 
0.0823529 0.690196 0.701961 0.0823529 0.690196 0.701961 
0.0823529 0.690196 0.701961 0.0823529 0.690196 0.701961 
0.0823529 0.690196 0.701961 0.0823529 0.690196 0.701961 
0.0823529 0.690196 0.701961 0.0823529 0.690196 0.701961 
0.0823529 0.690196 0.701961 0.0823529 0.690196 0.701961 
0.0823529 0.690196 0.701961 0.0823529 0.690196 0.701961 
0.0823529 0.690196 0.701961 0.0823529 0.690196 0.701961 
0.0823529 0.690196 0.701961 0.0823529 0.690196 0.701961 
0.0823529 0.690196 0.701961 0.0823529 0.690196 0.701961 
0.0823529 0.690196 0.701961 0.0823529 0.690196 0.701961 
0.0823529 0.690196 0.701961 0.0823529 0.690196 0.701961 
0.0823529 0.690196 0.701961 0.0823529 0.690196 0.701961 
0.0823529 0.690196 0.701961 0.0823529 0.690196 0.701961 
0.0823529 0.690196 0.701961 0.0823529 0.690196 0.701961 
0.0823529 0.690196 0.701961 0.0823529 0.690196 0.701961 
0.0823529 0.690196 0.701961 0.0823529 0.690196 0.701961 
0.0823529 0.690196 0.701961 0.0823529 0.690196 0.701961 
0.0823529 0.690196 0.701961 0.0823529 0.690196 0.701961 
0.0823529 0.690196 0.701961 0.0823529 0.690196 0.701961 
0.0823529 0.690196 0.701961 0.0823529 0.690196 0.701961 
0.0823529 0.690196 0.701961 0.0823529 0.690196 0.701961 
0.0823529 0.690196 0.701961 0.0823529 0.690196 0.701961 
0.0823529 0.690196 0.701961 0.0823529 0.690196 0.701961 
0.0823529 0.690196 0.701961 0.0823529 0.690196 0.701961 
0.0823529 0.690196 0.701961 0.0823529 0.690196 0.701961 
0.0823529 0.690196 0.701961 0.0823529 0.690196 0.701961 
0.0823529 0.690196 0.701961 0.0823529 0.690196 0.701961 
0.0823529 0.690196 0.701961 0.0823529 0.690196 0.701961 
0.0823529 0.690196 0.701961 0.0823529 0.690196 0.701961 
0.0823529 0.690196 0.701961 0.0823529 0.690196 0.701961 
0.0823529 0.690196 0.701961 0.0823529 0.690196 0.701961 
0.0823529 0.690196 0.701961 0.0823529 0.690196 0.701961 
0.0823529 0.690196 0.701961 0.0823529 0.690196 0.701961 
0.0823529 0.690196 0.701961 0.0823529 0.690196 0.701961 
0.0823529 0.690196 0.701961 0.0823529 0.690196 0.701961 
0.0823529 0.690196 0.701961 0.0823529 0.690196 0.701961 
0.0823529 0.690196 0.701961 0.0823529 0.690196 0.701961 
0.0823529 0.690196 0.701961 0.0823529 0.690196 0.701961 
0.0823529 0.690196 0.701961 0.0823529 0.690196 0.701961 
0.0823529 0.690196 0.701961 0.0823529 0.690196 0.701961 
0.0823529 0.690196 0.701961 0.0823529 0.690196 0.701961 
0.0823529 0.690196 0.701961 0.0823529 0.690196 0.701961 
0.0823529 0.690196 0.701961 0.0823529 0.690196 0.701961 
0.0823529 0.690196 0.701961 0.0823529 0.690196 0.701961 
0.0823529 0.690196 0.701961 0.0823529 0.690196 0.701961 
0.0823529 0.690196 0.701961 0.0823529 0.690196 0.701961 
0.0823529 0.690196 0.701961 0.0823529 0.690196 0.701961 
0.0823529 0.690196 0.701961 0.0823529 0.690196 0.701961 
0.0823529 0.690196 0.701961 0.0823529 0.690196 0.701961 
0.0823529 0.690196 0.701961 0.0823529 0.690196 0.701961 
0.0823529 0.690196 0.701961 0.0823529 0.690196 0.701961 
0.0823529 0.690196 0.701961 0.0823529 0.690196 0.701961 
0.0823529 0.690196 0.701961 0.0823529 0.690196 0.701961 
0.0823529 0.690196 0.701961 0.0823529 0.690196 0.701961 
0.0823529 0.690196 0.701961 0.0823529 0.690196 0.701961 
0.0823529 0.690196 0.701961 0.0823529 0.690196 0.701961 