# vtk DataFile Version 4.2
vtk output
ASCII
DATASET POLYDATA
POINTS 1707 float
332.45 144.985 36.2115 334.341 144.238 36.1223 331.842 145.281 36.3398 
334.207 145.217 35.5816 335.774 144.876 35.5235 332.292 146.024 35.7257 
341.898 141.371 36.3977 333.497 143.798 36.9212 331.674 144.841 36.8652 
339.11 145.247 35.4993 331.034 146.729 35.9819 325.238 148.279 37.0773 
342.283 149.284 35.8927 346.318 136.78 37.8581 343.939 139.795 36.9336 
348.706 138.79 37.0204 346.324 140.312 36.6382 347.939 141.035 36.6241 
349.576 140.345 36.8921 350.037 140.792 36.943 322.522 149.071 37.8156 
318.71 150.277 37.9982 321.423 150.02 37.4739 345.09 149.278 36.3921 
318.584 150.942 37.5691 320.17 150.941 37.2181 335.337 153.418 36.0752 
322.039 155.004 36.3471 331.326 156.556 36.5799 334.255 156.387 36.9199 
333.597 157.908 37.5582 331.548 158.611 37.4346 348.641 134.011 39.0948 
346.32 136.219 38.316 347.296 135.908 38.2423 346.898 136.64 37.831 
352.242 136.891 37.8721 353.39 139.494 37.7711 352.583 142.768 37.5868 
352.183 145.592 37.9089 351.909 146.321 38.0048 322.228 148.704 38.389 
352.643 147.017 38.8047 318.533 149.96 38.3745 350.463 148.295 38.0946 
350.948 148.765 38.7967 309.208 151.735 39.3683 310.623 152.18 38.68 
310.184 151.663 39.2602 311.567 152.09 38.5717 312.063 151.476 39.0307 
347.261 151.199 38.1893 310.844 153.568 37.912 311.554 154.342 37.6138 
313.306 155.148 37.2885 339.922 156.144 38.6324 336.777 157.273 38.1554 
313.863 158.866 37.3218 333.207 158.499 37.8363 335.526 158.433 38.8426 
313.695 160.632 37.5605 331.283 159.99 38.4309 329.266 160.813 38.4233 
331.633 160.384 39.0441 350.828 131.618 39.7127 350.64 131.354 39.886 
350.363 131.459 40.0303 350.796 131.277 39.8807 349.916 131.831 40.0555 
351.141 131.068 40.0009 350.823 132.938 39.1059 345.355 135.986 39.1579 
354.982 135.136 38.6656 358.65 140.061 39.4113 332.179 143.626 39.0907 
355.255 144.134 38.9915 355.333 144.818 39.4317 355.636 145.212 39.9861 
322.585 147.941 39.6781 353.018 147.124 39.2055 320.327 148.805 39.6351 
348.758 150.948 39.4863 304.325 164.574 38.9067 309.614 165.51 38.8262 
306.239 166.132 39.0889 312.366 166.029 39.1535 317.327 166.028 40.0823 
313.885 166.948 40.0561 352.004 129.172 40.9155 347.905 133.581 40.1878 
360.136 137.349 39.9537 359.607 141.748 40.7365 326.855 146.081 39.8174 
354.37 146.47 40.1034 352.208 148.619 40.1656 304.858 151.378 40.9805 
309.603 150.917 40.6643 299.321 152.7 40.8983 324.786 163.631 40.2743 
320.281 165.192 40.3864 317.653 166.269 40.5739 308.159 168.165 40.2442 
309.325 168.03 40.2515 307.776 169.028 41.052 351.578 128.052 42.0013 
353.712 128.659 40.7117 350.5 130.246 41.1122 347.683 133.295 41.082 
362.169 134.348 41.1371 362.792 135.509 41.3549 362.982 137.993 41.8468 
332.117 143.552 40.6037 295.149 152.391 41.7442 294.567 152.606 41.6486 
296.018 153.102 41.0995 299.794 151.823 41.7886 298.25 153.146 40.7431 
296.349 154.335 40.5259 317.641 166.548 41.1715 293.44 168.353 40.7793 
293.618 169.022 40.8597 311.368 168.407 41.2706 294.853 169.719 40.9184 
299.458 169.353 40.8091 308.453 169.105 41.3 297.132 170.897 41.3863 
300.124 170.652 41.5734 301.938 170.631 41.8407 353.412 125.092 42.3577 
351.18 127.883 42.54 348.501 132.025 42.0986 347.541 133.125 42.0348 
364.241 136.935 42.674 362.598 139.73 42.4948 290.983 152.178 42.5397 
298.027 151.565 42.4626 300.629 151.544 41.9391 301.052 151.353 42.2165 
286.803 155.479 41.7895 339.682 157.105 41.7696 326.913 163.187 42.0633 
319.095 166.385 42.3713 284.617 169.139 41.9067 309.076 169.445 42.1863 
284.923 171.043 42.0757 293.694 170.46 41.2322 294.521 171.251 41.4839 
298.466 172.109 42.6356 288.779 173.129 42.425 294.27 172.604 42.4404 
295.017 173.025 42.9406 353.892 121.483 43.8692 352.607 124.577 43.1249 
352.166 125.211 43.2617 351.026 127.547 43.0693 363.616 139.024 43.5686 
285.852 150.128 44.2837 283.328 151.865 43.4593 290.687 150.948 44.094 
350.287 150.63 42.7883 284.068 152.71 42.884 300.47 151.171 43.4968 
282.035 155.156 43.9204 283.38 158.611 42.5798 281.312 165.225 43.7883 
281.473 167.25 43.5539 280.946 166.894 44.2442 282.008 168.184 43.0695 
281.428 169.254 43.5635 283.392 168.892 42.3268 308.48 169.845 43.0276 
280.89 172.025 44.3671 281.313 172.75 44.0458 281.85 172.702 43.6397 
280.947 173.513 44.7247 282.446 173.417 43.5717 296.385 173.005 43.2251 
297.933 172.768 43.4979 281.338 174.06 44.546 290.555 174.071 43.3531 
292.176 174.116 43.7231 281.392 174.475 44.8284 283.042 174.656 44.1124 
291.175 174.447 43.9327 281.731 174.876 45.0376 282.294 175.026 44.8267 
286.328 175.088 44.1291 352.986 121.752 44.266 352.278 123.73 43.8902 
367.467 132.349 44.4971 346.639 134.03 44.0672 282.724 150.468 45.1178 
282.522 150.818 44.7456 283.396 150.376 44.5448 282.405 151.188 44.4939 
289.532 150.457 44.9388 291.387 150.777 44.6056 349.443 151.004 43.7706 
282.548 152.035 43.9158 281.945 153.418 44.3465 346.36 152.83 43.5989 
342.01 155.595 43.1567 339.326 156.957 43.4564 334.174 159.735 43.3587 
331.442 161.004 43.5849 280.986 164.066 44.2173 280.765 165.933 44.7385 
306.967 170.499 44.2159 301.209 172.13 44.2587 354.542 117.914 45.4067 
352.133 120.891 45.5487 361.747 122.042 45.017 351.729 122.998 45.1401 
368.808 130.381 45.5729 368.14 132.913 45.2757 368.541 132.971 45.77 
367.304 134.572 45.0146 336.479 141.805 44.2718 282.393 150.745 45.1296 
283.014 150.183 45.7194 282.23 150.911 45.39 348.867 151.074 44.6068 
281.666 153.514 44.9413 281.443 154.856 45.1721 338.291 156.98 44.4365 
319.67 166.272 44.7755 280.391 172.326 45.4494 298.762 173.04 44.9351 
288.685 175.455 44.9944 291.025 175.128 45.334 281.577 175.172 46.2649 
282.835 175.679 45.9397 353.062 117.111 46.2185 355.598 117.478 45.6595 
348.21 132.402 45.8543 368.322 133.866 46.2461 345.963 135.442 45.8501 
341.534 139.007 45.2784 364.363 138.892 45.8084 334.559 143.149 45.2485 
329.173 145.832 45.4457 347.859 151.353 45.0572 281.419 154.331 45.5061 
342.883 153.752 45.1588 326.531 162.968 45.2273 280.355 166.054 46.4162 
280.128 171.489 46.2773 304.031 171.563 45.9994 289.269 175.736 46.0329 
351.282 121.074 47.0564 338.143 141.85 46.1636 333.487 144.26 46.2756 
326.557 147.429 46.6734 325.774 147.46 46.2433 355.257 145.8 46.5729 
352.944 147.591 46.1392 353.366 146.966 46.5694 282.992 150.214 47.353 
283.577 149.875 47.1173 284.314 149.642 46.7548 285.06 149.519 46.7871 
287.942 149.727 47.7844 281.892 151.691 46.6952 295.257 150.76 46.7267 
301.14 151.085 47.0674 340.843 151.866 46.6684 348.032 150.361 46.1379 
281.551 153.221 46.8966 343.188 152.222 46.1089 337.644 154.583 46.3509 
339.363 154.322 46.0161 337.145 155.918 45.8735 325.309 162.785 46.6726 
319.41 166.036 46.5346 299.42 173.139 47.3181 281.052 174.732 47.6639 
281.422 175.106 47.6659 282.696 175.838 47.5401 284.285 176.206 47.324 
352.647 115.267 47.4536 367.998 122.922 47.2694 370.504 125.346 48.2362 
342.977 139.602 47.0353 363.291 139.904 47.597 335.534 143.784 46.7887 
329.564 146.51 46.6878 327.848 147.222 46.9125 328.733 147.064 46.9747 
334.342 148.469 47.8447 282.602 150.582 47.5199 282.911 150.375 48.0837 
323.685 148.587 47.0671 282.533 150.76 47.9867 350.358 149.004 46.4596 
312.199 150.7 47.4899 309.267 151.022 47.8901 329.072 158.631 47.4382 
326.159 162.113 46.8085 324.265 162.866 47.237 303.157 171.815 48.2158 
280.924 174.416 48.1362 294.113 174.832 48.1824 354.637 112.313 48.5606 
350.748 120.211 49.263 370.147 121.813 49.3978 370.289 122.384 49.2272 
370.304 122.991 48.983 370.544 122.762 49.3455 370.988 124.434 49.5392 
350.5 126.747 48.907 371.236 127.511 49.2593 350.065 129.545 48.6996 
369.427 133.037 48.8587 348.783 134.103 48.4444 347.104 137.87 48.2704 
348.844 137.429 48.9586 346.729 138.699 48.2263 349.23 137.855 49.0727 
332.095 146.01 47.1721 334.109 145.623 47.445 351.492 144.474 48.4059 
353.809 144.894 48.0388 355.25 145.027 47.5361 328.222 147.946 47.7361 
333.663 146.964 47.7543 325.208 148.696 47.7786 326.428 149.953 48.5241 
282.354 151.121 48.1854 316.69 150.433 48.1231 321.5 149.929 48.2695 
312.597 151.061 48.5557 281.515 155.325 48.6776 326.074 157.741 48.5763 
325.354 161.162 47.8404 323.478 162.205 48.1136 319.861 165.366 47.5843 
320.081 165.013 47.891 314.598 167.571 47.8998 314.083 167.621 48.2234 
299.241 173.17 48.6085 292.542 175.29 48.899 282.598 175.713 49.4419 
352.524 110.139 50.2749 353.311 110.481 49.846 353.527 110.052 50.077 
351.504 111.092 50.6495 368.818 119.167 49.5724 368.919 118.669 49.9892 
369.37 119.048 50.2384 370.71 121.973 50.3036 370.878 122.459 50.3614 
370.759 122.898 49.6695 371.211 125.033 50.0968 371.355 128.713 50.0168 
350.769 129.791 49.9838 350.264 135.076 49.5568 357.021 140.959 49.699 
357.262 141.54 49.3874 357.226 142.184 48.9465 356 143.207 48.5399 
328.019 147.851 47.673 283.624 150.077 49.3851 321.534 150.355 48.6379 
324.647 150.195 48.6094 282.638 151.273 49.5875 323.075 151.518 49.157 
307.855 151.605 49.3773 282.146 152.936 50.0834 318.606 160.31 50.2304 
319.351 164.122 48.9832 314.202 166.838 49.1964 311.222 168.212 49.3648 
289.271 176.03 49.3771 351.78 109.867 50.8482 368.558 115.811 51.5236 
369.775 119.255 50.7371 371.184 124.03 51.2674 351.176 128.209 50.6079 
351.311 129.223 50.6526 351.305 131.526 50.438 370.902 130.661 50.4229 
352.718 132.333 51.0592 350.868 133.77 49.9204 356.697 139.684 50.1913 
362.913 139.243 49.9625 361.641 140.025 49.8195 292.653 150.752 50.7602 
314.706 151.651 49.5698 315.973 152.241 49.9573 312.415 152.077 49.9787 
315.504 153.157 50.4918 317.333 152.874 50.1435 315.375 153.786 50.7259 
316.555 154.656 50.7267 317.523 162.335 50.212 316.084 164.839 49.842 
313.401 166.137 50.1032 315.162 165.866 49.5703 302.101 171.783 50.1539 
299.63 172.488 50.8283 301.324 171.917 50.5353 284.028 176.109 51.0064 
352.061 106.932 52.3585 370.192 119.124 51.8346 350.686 120.016 51.9489 
370.371 119.768 51.9896 371.091 129.552 51.9633 365.565 136.337 51.5702 
361.658 137.888 51.5027 363.116 138.398 50.8187 283.745 150.485 51.5934 
[...]
POINT_DATA 1707
COLOR_SCALARS scalars 3
0.0823529 0.690196 0.701961 0.0823529 0.690196 0.701961 0.0823529 0.690196 0.701961 
0.0823529 0.690196 0.701961 0.0823529 0.690196 0.701961 
0.0823529 0.690196 0.701961 0.0823529 0.690196 0.701961 
0.0823529 0.690196 0.701961 0.0823529 0.690196 0.701961 
0.0823529 0.690196 0.701961 0.0823529 0.690196 0.701961 
0.0823529 0.690196 0.701961 0.0823529 0.690196 0.701961 
0.0823529 0.690196 0.701961 0.0823529 0.690196 0.701961 
0.0823529 0.690196 0.701961 0.0823529 0.690196 0.701961 
0.0823529 0.690196 0.701961 0.0823529 0.690196 0.701961 
0.0823529 0.690196 0.701961 0.0823529 0.690196 0.701961 
0.0823529 0.690196 0.701961 0.0823529 0.690196 0.701961 
0.0823529 0.690196 0.701961 0.0823529 0.690196 0.701961 
0.0823529 0.690196 0.701961 0.0823529 0.690196 0.701961 
0.0823529 0.690196 0.701961 0.0823529 0.690196 0.701961 
0.0823529 0.690196 0.701961 0.0823529 0.690196 0.701961 
0.0823529 0.690196 0.701961 0.0823529 0.690196 0.701961 
0.0823529 0.690196 0.701961 0.0823529 0.690196 0.701961 
0.0823529 0.690196 0.701961 0.0823529 0.690196 0.701961 
0.0823529 0.690196 0.701961 0.0823529 0.690196 0.701961 
0.0823529 0.690196 0.701961 0.0823529 0.690196 0.701961 
0.0823529 0.690196 0.701961 0.0823529 0.690196 0.701961 
0.0823529 0.690196 0.701961 0.0823529 0.690196 0.701961 
0.0823529 0.690196 0.701961 0.0823529 0.690196 0.701961 
0.0823529 0.690196 0.701961 0.0823529 0.690196 0.701961 
0.0823529 0.690196 0.701961 0.0823529 0.690196 0.701961 
0.0823529 0.690196 0.701961 0.0823529 0.690196 0.701961 
0.0823529 0.690196 0.701961 0.0823529 0.690196 0.701961 
0.0823529 0.690196 0.701961 0.0823529 0.690196 0.701961 
0.0823529 0.690196 0.701961 0.0823529 0.690196 0.701961 
0.0823529 0.690196 0.701961 0.0823529 0.690196 0.701961 
0.0823529 0.690196 0.701961 0.0823529 0.690196 0.701961 
0.0823529 0.690196 0.701961 0.0823529 0.690196 0.701961 
0.0823529 0.690196 0.701961 0.0823529 0.690196 0.701961 
0.0823529 0.690196 0.701961 0.0823529 0.690196 0.701961 
0.0823529 0.690196 0.701961 0.0823529 0.690196 0.701961 
0.0823529 0.690196 0.701961 0.0823529 0.690196 0.701961 
0.0823529 0.690196 0.701961 0.0823529 0.690196 0.701961 
0.0823529 0.690196 0.701961 0.0823529 0.690196 0.701961 
0.0823529 0.690196 0.701961 0.0823529 0.690196 0.701961 
0.0823529 0.690196 0.701961 0.0823529 0.690196 0.701961 
0.0823529 0.690196 0.701961 0.0823529 0.690196 0.701961 
0.0823529 0.690196 0.701961 0.0823529 0.690196 0.701961 
0.0823529 0.690196 0.701961 0.0823529 0.690196 0.701961 
0.0823529 0.690196 0.701961 0.0823529 0.690196 0.701961 
0.0823529 0.690196 0.701961 0.0823529 0.690196 0.701961 
0.0823529 0.690196 0.701961 0.0823529 0.690196 0.701961 
0.0823529 0.690196 0.701961 0.0823529 0.690196 0.701961 
0.0823529 0.690196 0.701961 0.0823529 0.690196 0.701961 
0.0823529 0.690196 0.701961 0.0823529 0.690196 0.701961 
0.0823529 0.690196 0.701961 0.0823529 0.690196 0.701961 
0.0823529 0.690196 0.701961 0.0823529 0.690196 0.701961 
0.0823529 0.690196 0.701961 0.0823529 0.690196 0.701961 
0.0823529 0.690196 0.701961 0.0823529 0.690196 0.701961 
0.0823529 0.690196 0.701961 0.0823529 0.690196 0.701961 
0.0823529 0.690196 0.701961 0.0823529 0.690196 0.701961 
0.0823529 0.690196 0.701961 0.0823529 0.690196 0.701961 
0.0823529 0.690196 0.701961 0.0823529 0.690196 0.701961 
0.0823529 0.690196 0.701961 0.0823529 0.690196 0.701961 
0.0823529 0.690196 0.701961 0.0823529 0.690196 0.701961 
0.0823529 0.690196 0.701961 0.0823529 0.690196 0.701961 
0.0823529 0.690196 0.701961 0.0823529 0.690196 0.701961 
0.0823529 0.690196 0.701961 0.0823529 0.690196 0.701961 
0.0823529 0.690196 0.701961 0.0823529 0.690196 0.701961 
0.0823529 0.690196 0.701961 0.0823529 0.690196 0.701961 
0.0823529 0.690196 0.701961 0.0823529 0.690196 0.701961 
0.0823529 0.690196 0.701961 0.0823529 0.690196 0.701961 
0.0823529 0.690196 0.701961 0.0823529 0.690196 0.701961 
0.0823529 0.690196 0.701961 0.0823529 0.690196 0.701961 
0.0823529 0.690196 0.701961 0.0823529 0.690196 0.701961 
0.0823529 0.690196 0.701961 0.0823529 0.690196 0.701961 
0.0823529 0.690196 0.701961 0.0823529 0.690196 0.701961 
0.0823529 0.690196 0.701961 0.0823529 0.690196 0.701961 
0.0823529 0.690196 0.701961 0.0823529 0.690196 0.701961 
0.0823529 0.690196 0.701961 0.0823529 0.690196 0.701961 
0.0823529 0.690196 0.701961 0.0823529 0.690196 0.701961 
0.0823529 0.690196 0.701961 0.0823529 0.690196 0.701961 
0.0823529 0.690196 0.701961 0.0823529 0.690196 0.701961 
0.0823529 0.690196 0.701961 0.0823529 0.690196 0.701961 
0.0823529 0.690196 0.701961 0.0823529 0.690196 0.701961 
0.0823529 0.690196 0.701961 0.0823529 0.690196 0.701961 
0.0823529 0.690196 0.701961 0.0823529 0.690196 0.701961 
0.0823529 0.690196 0.701961 0.0823529 0.690196 0.701961 
0.0823529 0.690196 0.701961 0.0823529 0.690196 0.701961 
0.0823529 0.690196 0.701961 0.0823529 0.690196 0.701961 
0.0823529 0.690196 0.701961 0.0823529 0.690196 0.701961 
0.0823529 0.690196 0.701961 0.0823529 0.690196 0.701961 
0.0823529 0.690196 0.701961 0.0823529 0.690196 0.701961 
0.0823529 0.690196 0.701961 0.0823529 0.690196 0.701961 
0.0823529 0.690196 0.701961 0.0823529 0.690196 0.701961 
0.0823529 0.690196 0.701961 0.0823529 0.690196 0.701961 
0.0823529 0.690196 0.701961 0.0823529 0.690196 0.701961 
0.0823529 0.690196 0.701961 0.0823529 0.690196 0.701961 
0.0823529 0.690196 0.701961 0.0823529 0.690196 0.701961 
0.0823529 0.690196 0.701961 0.0823529 0.690196 0.701961 
0.0823529 0.690196 0.701961 0.0823529 0.690196 0.701961 
0.0823529 0.690196 0.701961 0.0823529 0.690196 0.701961 
0.0823529 0.690196 0.701961 0.0823529 0.690196 0.701961 
0.0823529 0.690196 0.701961 0.0823529 0.690196 0.701961 
0.0823529 0.690196 0.701961 0.0823529 0.690196 0.701961 
0.0823529 0.690196 0.701961 0.0823529 0.690196 0.701961 
0.0823529 0.690196 0.701961 0.0823529 0.690196 0.701961 
0.0823529 0.690196 0.701961 0.0823529 0.690196 0.701961 
0.0823529 0.690196 0.701961 0.0823529 0.690196 0.701961 
0.0823529 0.690196 0.701961 0.0823529 0.690196 0.701961 
0.0823529 0.690196 0.701961 0.0823529 0.690196 0.701961 
0.0823529 0.690196 0.701961 0.0823529 0.690196 0.701961 
0.0823529 0.690196 0.701961 0.0823529 0.690196 0.701961 
0.0823529 0.690196 0.701961 0.0823529 0.690196 0.701961 
0.0823529 0.690196 0.701961 0.0823529 0.690196 0.701961 
0.0823529 0.690196 0.701961 0.0823529 0.690196 0.701961 
0.0823529 0.690196 0.701961 0.0823529 0.690196 0.701961 
0.0823529 0.690196 0.701961 0.0823529 0.690196 0.701961 
0.0823529 0.690196 0.701961 0.0823529 0.690196 0.701961 
0.0823529 0.690196 0.701961 0.0823529 0.690196 0.701961 
0.0823529 0.690196 0.701961 0.0823529 0.690196 0.701961 
0.0823529 0.690196 0.701961 0.0823529 0.690196 0.701961 
0.0823529 0.690196 0.701961 0.0823529 0.690196 0.701961 
0.0823529 0.690196 0.701961 0.0823529 0.690196 0.701961 
0.0823529 0.690196 0.701961 0.0823529 0.690196 0.701961 
0.0823529 0.690196 0.701961 0.0823529 0.690196 0.701961 
0.0823529 0.690196 0.701961 0.0823529 0.690196 0.701961 
0.0823529 0.690196 0.701961 0.0823529 0.690196 0.701961 
0.0823529 0.690196 0.701961 0.0823529 0.690196 0.701961 
0.0823529 0.690196 0.701961 0.0823529 0.690196 0.701961 
0.0823529 0.690196 0.701961 0.0823529 0.690196 0.701961 
0.0823529 0.690196 0.701961 0.0823529 0.690196 0.701961 
0.0823529 0.690196 0.701961 0.0823529 0.690196 0.701961 
0.0823529 0.690196 0.701961 0.0823529 0.690196 0.701961 
0.0823529 0.690196 0.701961 0.0823529 0.690196 0.701961 
0.0823529 0.690196 0.701961 0.0823529 0.690196 0.701961 
0.0823529 0.690196 0.701961 0.0823529 0.690196 0.701961 
0.0823529 0.690196 0.701961 0.0823529 0.690196 0.701961 
0.0823529 0.690196 0.701961 0.0823529 0.690196 0.701961 
0.0823529 0.690196 0.701961 0.0823529 0.690196 0.701961 
0.0823529 0.690196 0.701961 0.0823529 0.690196 0.701961 
0.0823529 0.690196 0.701961 0.0823529 0.690196 0.701961 
0.0823529 0.690196 0.701961 0.0823529 0.690196 0.701961 
0.0823529 0.690196 0.701961 0.0823529 0.690196 0.701961 
0.0823529 0.690196 0.701961 0.0823529 0.690196 0.701961 
0.0823529 0.690196 0.701961 0.0823529 0.690196 0.701961 
0.0823529 0.690196 0.701961 0.0823529 0.690196 0.701961 
0.0823529 0.690196 0.701961 0.0823529 0.690196 0.701961 
0.0823529 0.690196 0.701961 0.0823529 0.690196 0.701961 
0.0823529 0.690196 0.701961 0.0823529 0.690196 0.701961 
0.0823529 0.690196 0.701961 0.0823529 0.690196 0.701961 
0.0823529 0.690196 0.701961 0.0823529 0.690196 0.701961 
0.0823529 0.690196 0.701961 0.0823529 0.690196 0.701961 
0.0823529 0.690196 0.701961 0.0823529 0.690196 0.701961 
0.0823529 0.690196 0.701961 0.0823529 0.690196 0.701961 
0.0823529 0.690196 0.701961 0.0823529 0.690196 0.701961 
0.0823529 0.690196 0.701961 0.0823529 0.690196 0.701961 
0.0823529 0.690196 0.701961 0.0823529 0.690196 0.701961 
0.0823529 0.690196 0.701961 0.0823529 0.690196 0.701961 
0.0823529 0.690196 0.701961 0.0823529 0.690196 0.701961 
0.0823529 0.690196 0.701961 0.0823529 0.690196 0.701961 
0.0823529 0.690196 0.701961 0.0823529 0.690196 0.701961 
0.0823529 0.690196 0.701961 0.0823529 0.690196 0.701961 
0.0823529 0.690196 0.701961 0.0823529 0.690196 0.701961 
0.0823529 0.690196 0.701961 0.0823529 0.690196 0.701961 
0.0823529 0.690196 0.701961 0.0823529 0.690196 0.701961 
0.0823529 0.690196 0.701961 0.0823529 0.690196 0.701961 
0.0823529 0.690196 0.701961 0.0823529 0.690196 0.701961 
0.0823529 0.690196 0.701961 0.0823529 0.690196 0.701961 
0.0823529 0.690196 0.701961 0.0823529 0.690196 0.701961 
0.0823529 0.690196 0.701961 0.0823529 0.690196 0.701961 
0.0823529 0.690196 0.701961 0.0823529 0.690196 0.701961 
0.0823529 0.690196 0.701961 0.0823529 0.690196 0.701961 
0.0823529 0.690196 0.701961 0.0823529 0.690196 0.701961 
0.0823529 0.690196 0.701961 0.0823529 0.690196 0.701961 
0.0823529 0.690196 0.701961 0.0823529 0.690196 0.701961 
0.0823529 0.690196 0.701961 0.0823529 0.690196 0.701961 
0.0823529 0.690196 0.701961 0.0823529 0.690196 0.701961 
0.0823529 0.690196 0.701961 0.0823529 0.690196 0.701961 
0.0823529 0.690196 0.701961 0.0823529 0.690196 0.701961 
0.0823529 0.690196 0.701961 0.0823529 0.690196 0.701961 
0.0823529 0.690196 0.701961 0.0823529 0.690196 0.701961 
0.0823529 0.690196 0.701961 0.0823529 0.690196 0.701961 
0.0823529 0.690196 0.701961 0.0823529 0.690196 0.701961 
0.0823529 0.690196 0.701961 0.0823529 0.690196 0.701961 
0.0823529 0.690196 0.701961 0.0823529 0.690196 0.701961 
0.0823529 0.690196 0.701961 0.0823529 0.690196 0.701961 
0.0823529 0.690196 0.701961 0.0823529 0.690196 0.701961 
0.0823529 0.690196 0.701961 0.0823529 0.690196 0.701961 
0.0823529 0.690196 0.701961 0.0823529 0.690196 0.701961 
0.0823529 0.690196 0.701961 0.0823529 0.690196 0.701961 
0.0823529 0.690196 0.701961 0.0823529 0.690196 0.701961 
0.0823529 0.690196 0.701961 0.0823529 0.690196 0.701961 
0.0823529 0.690196 0.701961 0.0823529 0.690196 0.701961 
0.0823529 0.690196 0.701961 0.0823529 0.690196 0.701961 
0.0823529 0.690196 0.701961 0.0823529 0.690196 0.701961 
0.0823529 0.690196 0.701961 0.0823529 0.690196 0.701961 
0.0823529 0.690196 0.701961 0.0823529 0.690196 0.701961 
0.0823529 0.690196 0.701961 0.0823529 0.690196 0.701961 
0.0823529 0.690196 0.701961 0.0823529 0.690196 0.701961 
0.0823529 0.690196 0.701961 0.0823529 0.690196 0.701961 
0.0823529 0.690196 0.701961 0.0823529 0.690196 0.701961 
0.0823529 0.690196 0.701961 0.0823529 0.690196 0.701961 
0.0823529 0.690196 0.701961 0.0823529 0.690196 0.701961 
0.0823529 0.690196 0.701961 0.0823529 0.690196 0.701961 
0.0823529 0.690196 0.701961 0.0823529 0.690196 0.701961 
0.0823529 0.690196 0.701961 0.0823529 0.690196 0.701961 
0.0823529 0.690196 0.701961 0.0823529 0.690196 0.701961 
0.0823529 0.690196 0.701961 0.0823529 0.690196 0.701961 
0.0823529 0.690196 0.701961 0.0823529 0.690196 0.701961 
0.0823529 0.690196 0.701961 0.0823529 0.690196 0.701961 
0.0823529 0.690196 0.701961 0.0823529 0.690196 0.701961 
0.0823529 0.690196 0.701961 0.0823529 0.690196 0.701961 
0.0823529 0.690196 0.701961 0.0823529 0.690196 0.701961 
0.0823529 0.690196 0.701961 0.0823529 0.690196 0.701961 
0.0823529 0.690196 0.701961 0.0823529 0.690196 0.701961 
0.0823529 0.690196 0.701961 0.0823529 0.690196 0.701961 
0.0823529 0.690196 0.701961 0.0823529 0.690196 0.701961 
0.0823529 0.690196 0.701961 0.0823529 0.690196 0.701961 
0.0823529 0.690196 0.701961 0.0823529 0.690196 0.701961 
0.0823529 0.690196 0.701961 0.0823529 0.690196 0.701961 
0.0823529 0.690196 0.701961 0.0823529 0.690196 0.701961 
0.0823529 0.690196 0.701961 0.0823529 0.690196 0.701961 
0.0823529 0.690196 0.701961 0.0823529 0.690196 0.701961 
0.0823529 0.690196 0.701961 0.0823529 0.690196 0.701961 
0.0823529 0.690196 0.701961 0.0823529 0.690196 0.701961 
0.0823529 0.690196 0.701961 0.0823529 0.690196 0.701961 
0.0823529 0.690196 0.701961 0.0823529 0.690196 0.701961 
0.0823529 0.690196 0.701961 0.0823529 0.690196 0.701961 
0.0823529 0.690196 0.701961 0.0823529 0.690196 0.701961 
0.0823529 0.690196 0.701961 0.0823529 0.690196 0.701961 
0.0823529 0.690196 0.701961 0.0823529 0.690196 0.701961 
0.0823529 0.690196 0.701961 0.0823529 0.690196 0.701961 
0.0823529 0.690196 0.701961 0.0823529 0.690196 0.701961 
0.0823529 0.690196 0.701961 0.0823529 0.690196 0.701961 
0.0823529 0.690196 0.701961 0.0823529 0.690196 0.701961 
0.0823529 0.690196 0.701961 0.0823529 0.690196 0.701961 
0.0823529 0.690196 0.701961 0.0823529 0.690196 0.701961 
0.0823529 0.690196 0.701961 0.0823529 0.690196 0.701961 
0.0823529 0.690196 0.701961 0.0823529 0.690196 0.701961 
0.0823529 0.690196 0.701961 0.0823529 0.690196 0.701961 
0.0823529 0.690196 0.701961 0.0823529 0.690196 0.701961 
0.0823529 0.690196 0.701961 0.0823529 0.690196 0.701961 
0.0823529 0.690196 0.701961 0.0823529 0.690196 0.701961 
0.0823529 0.690196 0.701961 0.0823529 0.690196 0.701961 
0.0823529 0.690196 0.701961 0.0823529 0.690196 0.701961 
0.0823529 0.690196 0.701961 0.0823529 0.690196 0.701961 
0.0823529 0.690196 0.701961 0.0823529 0.690196 0.701961 
0.0823529 0.690196 0.701961 0.0823529 0.690196 0.701961 
0.0823529 0.690196 0.701961 0.0823529 0.690196 0.701961 
0.0823529 0.690196 0.701961 0.0823529 0.690196 0.701961 
0.0823529 0.690196 0.701961 0.0823529 0.690196 0.701961 
0.0823529 0.690196 0.701961 0.0823529 0.690196 0.701961 
0.0823529 0.690196 0.701961 0.0823529 0.690196 0.701961 
0.0823529 0.690196 0.701961 0.0823529 0.690196 0.701961 
0.0823529 0.690196 0.701961 0.0823529 0.690196 0.701961 
0.0823529 0.690196 0.701961 0.0823529 0.690196 0.701961 
0.0823529 0.690196 0.701961 0.0823529 0.690196 0.701961 
0.0823529 0.690196 0.701961 0.0823529 0.690196 0.701961 
0.0823529 0.690196 0.701961 0.0823529 0.690196 0.701961 
0.0823529 0.690196 0.701961 0.0823529 0.690196 0.701961 
0.0823529 0.690196 0.701961 0.0823529 0.690196 0.701961 
0.0823529 0.690196 0.701961 0.0823529 0.690196 0.701961 
0.0823529 0.690196 0.701961 0.0823529 0.690196 0.701961 
0.0823529 0.690196 0.701961 0.0823529 0.690196 0.701961 
0.0823529 0.690196 0.701961 0.0823529 0.690196 0.701961 
0.0823529 0.690196 0.701961 0.0823529 0.690196 0.701961 
0.0823529 0.690196 0.701961 0.0823529 0.690196 0.701961 
0.0823529 0.690196 0.701961 0.0823529 0.690196 0.701961 
0.0823529 0.690196 0.701961 0.0823529 0.690196 0.701961 
0.0823529 0.690196 0.701961 0.0823529 0.690196 0.701961 
0.0823529 0.690196 0.701961 0.0823529 0.690196 0.701961 
0.0823529 0.690196 0.701961 0.0823529 0.690196 0.701961 
0.0823529 0.690196 0.701961 0.0823529 0.690196 0.701961 
0.0823529 0.690196 0.701961 0.0823529 0.690196 0.701961 
0.0823529 0.690196 0.701961 0.0823529 0.690196 0.701961 
0.0823529 0.690196 0.701961 0.0823529 0.690196 0.701961 
0.0823529 0.690196 0.701961 0.0823529 0.690196 0.701961 
0.0823529 0.690196 0.701961 0.0823529 0.690196 0.701961 
0.0823529 0.690196 0.701961 0.0823529 0.690196 0.701961 
0.0823529 0.690196 0.701961 0.0823529 0.690196 0.701961 
0.0823529 0.690196 0.701961 0.0823529 0.690196 0.701961 
0.0823529 0.690196 0.701961 0.0823529 0.690196 0.701961 
0.0823529 0.690196 0.701961 0.0823529 0.690196 0.701961 
0.0823529 0.690196 0.701961 0.0823529 0.690196 0.701961 
0.0823529 0.690196 0.701961 0.0823529 0.690196 0.701961 
0.0823529 0.690196 0.701961 0.0823529 0.690196 0.701961 
0.0823529 0.690196 0.701961 0.0823529 0.690196 0.701961 
0.0823529 0.690196 0.701961 0.0823529 0.690196 0.701961 
0.0823529 0.690196 0.701961 0.0823529 0.690196 0.701961 
0.0823529 0.690196 0.701961 0.0823529 0.690196 0.701961 
0.0823529 0.690196 0.701961 0.0823529 0.690196 0.701961 
0.0823529 0.690196 0.701961 0.0823529 0.690196 0.701961 
0.0823529 0.690196 0.701961 0.0823529 0.690196 0.701961 
0.0823529 0.690196 0.701961 0.0823529 0.690196 0.701961 
0.0823529 0.690196 0.701961 0.0823529 0.690196 0.701961 
0.0823529 0.690196 0.701961 0.0823529 0.690196 0.701961 
0.0823529 0.690196 0.701961 0.0823529 0.690196 0.701961 
0.0823529 0.690196 0.701961 0.0823529 0.690196 0.701961 
0.0823529 0.690196 0.701961 0.0823529 0.690196 0.701961 
0.0823529 0.690196 0.701961 0.0823529 0.690196 0.701961 
0.0823529 0.690196 0.701961 0.0823529 0.690196 0.701961 
0.0823529 0.690196 0.701961 0.0823529 0.690196 0.701961 
0.0823529 0.690196 0.701961 0.0823529 0.690196 0.701961 
0.0823529 0.690196 0.701961 0.0823529 0.690196 0.701961 
0.0823529 0.690196 0.701961 0.0823529 0.690196 0.701961 
0.0823529 0.690196 0.701961 0.0823529 0.690196 0.701961 
0.0823529 0.690196 0.701961 0.0823529 0.690196 0.701961 
0.0823529 0.690196 0.701961 0.0823529 0.690196 0.701961 
0.0823529 0.690196 0.701961 0.0823529 0.690196 0.701961 
0.0823529 0.690196 0.701961 0.0823529 0.690196 0.701961 
0.0823529 0.690196 0.701961 0.0823529 0.690196 0.701961 
0.0823529 0.690196 0.701961 0.0823529 0.690196 0.701961 
0.0823529 0.690196 0.701961 0.0823529 0.690196 0.701961 
0.0823529 0.690196 0.701961 0.0823529 0.690196 0.701961 
0.0823529 0.690196 0.701961 0.0823529 0.690196 0.701961 
0.0823529 0.690196 0.701961 0.0823529 0.690196 0.701961 
0.0823529 0.690196 0.701961 0.0823529 0.690196 0.701961 
0.0823529 0.690196 0.701961 0.0823529 0.690196 0.701961 
0.0823529 0.690196 0.701961 0.0823529 0.690196 0.701961 
0.0823529 0.690196 0.701961 0.0823529 0.690196 0.701961 
0.0823529 0.690196 0.701961 0.0823529 0.690196 0.701961 
0.0823529 0.690196 0.701961 0.0823529 0.690196 0.701961 
0.0823529 0.690196 0.701961 0.0823529 0.690196 0.701961 
0.0823529 0.690196 0.701961 0.0823529 0.690196 0.701961 
0.0823529 0.690196 0.701961 0.0823529 0.690196 0.701961 
0.0823529 0.690196 0.701961 0.0823529 0.690196 0.701961 
0.0823529 0.690196 0.701961 0.0823529 0.690196 0.701961 
0.0823529 0.690196 0.701961 0.0823529 0.690196 0.701961 
0.0823529 0.690196 0.701961 0.0823529 0.690196 0.701961 
0.0823529 0.690196 0.701961 0.0823529 0.690196 0.701961 
0.0823529 0.690196 0.701961 0.0823529 0.690196 0.701961 
0.0823529 0.690196 0.701961 0.0823529 0.690196 0.701961 
0.0823529 0.690196 0.701961 0.0823529 0.690196 0.701961 
0.0823529 0.690196 0.701961 0.0823529 0.690196 0.701961 
0.0823529 0.690196 0.701961 0.0823529 0.690196 0.701961 
0.0823529 0.690196 0.701961 0.0823529 0.690196 0.701961 
0.0823529 0.690196 0.701961 0.0823529 0.690196 0.701961 
0.0823529 0.690196 0.701961 0.0823529 0.690196 0.701961 
0.0823529 0.690196 0.701961 0.0823529 0.690196 0.701961 
0.0823529 0.690196 0.701961 0.0823529 0.690196 0.701961 
0.0823529 0.690196 0.701961 0.0823529 0.690196 0.701961 
0.0823529 0.690196 0.701961 0.0823529 0.690196 0.701961 
0.0823529 0.690196 0.701961 0.0823529 0.690196 0.701961 
0.0823529 0.690196 0.701961 0.0823529 0.690196 0.701961 
0.0823529 0.690196 0.701961 0.0823529 0.690196 0.701961 
0.0823529 0.690196 0.701961 0.0823529 0.690196 0.701961 
0.0823529 0.690196 0.701961 0.0823529 0.690196 0.701961 
0.0823529 0.690196 0.701961 0.0823529 0.690196 0.701961 
0.0823529 0.690196 0.701961 0.0823529 0.690196 0.701961 
0.0823529 0.690196 0.701961 0.0823529 0.690196 0.701961 
0.0823529 0.690196 0.701961 0.0823529 0.690196 0.701961 
0.0823529 0.690196 0.701961 0.0823529 0.690196 0.701961 
0.0823529 0.690196 0.701961 0.0823529 0.690196 0.701961 
0.0823529 0.690196 0.701961 0.0823529 0.690196 0.701961 