# vtk DataFile Version 4.2
vtk output
ASCII
DATASET POLYDATA
POINTS 2002 float
343.659 152.242 47.6038 345.047 151.668 47.9071 333.579 155.409 46.8992 
343.317 153.464 48.1993 337.314 155.302 47.1337 333.858 156.703 47.1148 
337.03 155.914 47.3186 337.023 156.599 47.7059 337.383 157.004 48.1685 
330.764 159.336 48.1063 331.831 158.972 47.9175 334.06 158.569 48.079 
335.51 158.022 48.2029 333.089 159.096 48.27 341.345 143.36 48.2797 
336.114 146.104 48.1733 345.949 146.1 47.5769 349.027 146.244 48.1418 
347.937 148.323 48.1322 348.364 149.034 48.5452 346.827 149.823 48.0891 
348.957 149.329 49.0889 347.18 150.91 48.9259 344.029 153.205 48.4468 
342.924 154.023 48.4773 342.429 154.514 48.7093 339.15 156.211 48.5123 
336.112 157.942 48.4772 336.781 157.796 48.8425 327.315 159.787 48.4596 
328.626 160.013 48.4822 331.304 160.044 48.7502 333.612 159.235 48.688 
329.386 160.707 48.9808 346.257 139.251 49.1623 342.313 140.969 49.5202 
344.004 140.795 48.9781 340.363 142.125 49.4576 340.189 141.841 49.9604 
341.631 141.265 49.6584 339.196 142.778 49.5012 353.313 141.169 49.0399 
336.378 144.176 49.7213 337.994 143.771 49.1794 338.915 143.348 49.0852 
333.386 145.846 49.7412 334.844 145.637 48.9752 353.005 144.312 49.1752 
354.358 144.051 49.6491 332.064 146.888 49.428 331.912 146.531 50.0858 
333.798 146.391 48.8781 351.25 145.359 48.7663 352.704 145.006 49.2304 
353.503 145.812 50.0085 350.905 146.887 49.0252 326.225 150.935 49.1872 
348.676 149.956 49.3792 345.837 152.073 49.0461 344.639 153.204 49.1739 
343.049 154.256 49.0813 343.623 153.956 49.4967 339.88 156.179 49.6017 
338.631 156.927 49.4428 323.411 159.176 48.8201 337.414 157.612 49.2699 
335.514 158.644 49.3182 323.973 160.713 49.0113 331.918 160.265 49.3734 
333.488 159.567 49.3227 329.612 160.963 49.2688 329.988 161.011 49.4933 
327.692 161.853 49.9949 326.597 162.363 50.187 346.917 136.581 50.7149 
347.999 136.914 49.9189 348.774 136.862 49.7602 344.298 138.957 50.2747 
351.289 138.297 49.1858 343.613 139.334 50.5284 339.728 142.047 50.114 
340.611 141.447 50.4054 341.379 141.051 50.2771 356.787 141.045 50.3181 
336.886 143.663 50.558 338.368 142.94 50.2494 334.525 144.926 50.1488 
334.876 144.681 50.4095 331.205 146.82 50.3212 332.509 146.065 50.4781 
329.766 147.42 50.7733 329.143 147.858 50.3982 326.917 148.987 50.3628 
324.41 150.143 50.5541 324.906 149.603 50.9663 351.754 147.816 50.291 
325.549 150.188 49.9175 347.748 151 49.8362 348.309 150.66 50.2566 
347.146 151.454 50.0386 344.124 153.6 49.9184 342.353 154.734 49.9543 
339.205 156.594 49.8716 340.447 155.817 50.0396 336.118 158.415 49.7645 
336.675 158.105 50.2132 334.129 159.405 49.8119 330.58 161.094 50.2627 
318.242 162.953 50.1786 326.871 162.542 50.5398 318.812 164.676 50.9014 
319.823 164.931 51.2358 350.47 131.676 52.1519 349.243 133.425 52.0145 
353.221 132.655 51.0495 354.277 134.343 50.6749 344.604 138.304 51.087 
358.447 138.074 51.0291 340.577 141.441 50.8734 339.025 142.498 50.7046 
340.182 141.745 51.0187 336.771 143.745 50.9604 338.346 142.967 50.902 
335.657 144.422 51.2114 333.765 145.413 51.2601 357.081 143.393 51.5026 
330.447 147.058 51.1903 326.849 148.57 51.5705 326.218 148.898 51.1944 
353.497 146.804 51.3735 321.078 150.869 51.6616 350.129 149.311 50.5859 
350.426 149.107 50.9191 318.099 152.302 51.4758 319.561 151.381 51.8363 
347.701 151.102 50.4758 318.516 153.369 50.6551 345.802 152.258 50.5045 
316.534 155.342 50.5275 342.823 154.32 50.3553 342.149 154.624 50.5787 
337.861 157.365 50.3986 313.422 159.365 50.7091 333.273 159.823 50.8643 
326.917 162.68 50.8962 313.126 164.894 51.1672 323.057 164.073 51.1832 
315.223 166.017 51.6493 319.747 165.307 51.7249 315.202 166.608 52.0808 
316.99 166.214 52.0991 314.827 166.905 52.2966 351.714 129.403 52.5089 
352.27 129.34 52.3809 352.85 129.388 52.2622 351.037 129.945 52.627 
349.613 131.992 52.8373 344.306 138.541 51.3245 344.361 138.62 51.8154 
360.733 139.931 52.6113 339.107 142.631 51.3076 340.341 141.942 51.5349 
360.526 140.474 52.8337 337.792 143.698 51.7527 336.39 144.256 51.5939 
333.155 145.796 51.4743 334.469 145.237 51.6284 356.252 144.532 51.8091 
329.676 147.503 52.0157 329.002 147.696 51.5921 354.467 146.029 52.0768 
352.946 147.187 51.6327 325.43 149.13 52.153 322.463 150.09 52.3717 
349.955 149.243 51.5468 316.75 152.199 52.0745 320.071 150.893 52.3846 
315.154 152.665 52.2373 316.043 152.676 51.8704 347.576 151.084 50.9984 
347.167 151.197 51.2634 348.246 150.376 51.5054 344.336 152.969 50.9638 
344.74 152.441 51.3078 341.887 154.388 51.1132 339.848 155.441 51.3908 
337.615 157.253 51.0795 336.174 157.847 51.5638 331.775 160.459 51.8254 
333.06 159.727 51.5866 327.241 162.682 51.768 322.621 164.565 52.0663 
315.439 166.944 52.5322 308.029 168.234 52.8736 308.785 168.88 53.4308 
351.735 126.182 54.0046 351.226 126.698 54.1134 352.804 126.923 53.3086 
351.409 127.742 53.4703 350.881 128.072 53.6848 353.975 126.917 53.1959 
350.639 129.499 53.2401 349.595 131.578 53.4801 349.274 132.289 53.6287 
349.047 132.99 53.0116 348.657 133.782 53.1867 345.857 137.467 52.5807 
344.187 139.345 52.583 343.562 139.849 52.3789 341.905 141.419 52.2004 
339.364 142.803 51.7781 339.964 142.754 52.0726 360.043 141.131 53.0103 
361.131 140.333 53.418 338.665 143.719 52.1796 334.65 145.618 52.1782 
356.749 144.167 52.6567 331.828 146.836 52.3344 355.252 145.32 52.6153 
356.327 144.449 52.9267 329.579 147.695 52.4323 326.221 148.841 52.2952 
326.682 148.764 52.5635 352.891 147.042 52.2081 353.349 146.589 52.5202 
323.752 149.614 52.6122 324.304 149.503 52.8192 342.213 149.538 53.1657 
352.322 147.2 52.4313 350.574 148.138 52.3358 315.816 151.682 53.3305 
308.191 153.381 53.5716 307.3 153.358 53.7623 308.863 152.799 54.1378 
311.92 152.733 53.3348 344.247 151.371 52.3132 345.313 150.64 52.501 
347.232 150.505 51.9808 308.601 154.433 52.722 341.171 153.779 51.9587 
337.271 157.008 51.7075 336.501 157.267 51.945 333.881 158.647 52.3111 
331.275 160.69 51.9711 331.475 160.431 52.2669 330.244 160.869 52.5987 
327.107 162.69 52.4708 328.977 161.639 52.4352 304.207 164.124 52.4171 
325.797 163.26 53.005 317.875 166.638 53.1661 319.131 166.268 53.5596 
302.118 169.644 53.5904 302.173 170.285 53.9269 308.892 169.265 53.9524 
302.402 170.763 54.2852 303.448 170.633 54.2397 350.618 126.96 54.5986 
350.441 127.696 54.4502 350.027 130.002 54.1329 349.773 130.858 54.2099 
347.173 136.613 53.3269 364.897 134.772 54.4288 344.391 139.59 52.9118 
345.751 141.35 53.8755 361.482 140.28 53.9019 340.69 143.172 52.5894 
360.233 141.235 53.698 335.673 145.594 52.5045 340.432 144.727 53.0707 
349.572 144.016 54.223 334.18 146.906 52.9387 342.002 146.242 53.4215 
355.12 145.165 53.0379 330.36 147.863 52.9478 331.878 147.602 53.0041 
333.152 147.546 53.1185 335.191 147.518 53.2476 351.16 145.703 53.7968 
351.092 146.175 53.5609 351.769 146.386 53.3429 353.115 146.334 52.9588 
323.801 149.88 53.4508 348.041 148.717 52.8008 316.363 151.485 53.9669 
319.215 151.023 53.8648 303.78 153.192 54.7825 311.488 152.268 54.5162 
332.684 152.575 54.0382 302.371 153.839 54.5965 304.189 153.819 54.066 
303.446 155.113 53.55 333.987 154.818 53.7007 334.677 155.535 53.4183 
302.826 156.654 53.1849 331.383 157.114 54.099 336.868 155.86 52.6873 
333.115 157.904 53.218 335.006 157.566 52.4992 332.313 159.128 52.9547 
331.308 160.141 52.7255 327.878 161.907 53.2805 325.613 163.131 53.6977 
322.923 164.493 54.1807 315.469 167.53 53.8863 316.133 167.424 54.4501 
317.67 166.883 54.1088 297.082 169.928 53.9762 310.428 169.256 54.7888 
296.373 171.465 54.4575 296.788 171.794 54.584 296.95 172.227 54.8694 
301.322 171.475 54.9915 303.205 171.24 54.9026 297.802 172.786 55.439 
352.039 121.419 55.8182 351.593 122.675 55.5915 352.735 121.77 55.4376 
350.359 126.748 55.2147 350.243 127.803 55.1459 350.208 128.805 54.8026 
365.916 131.592 55.2588 349.153 134.551 54.8203 366.438 133.457 55.5905 
366.232 134.761 55.8187 365.203 136.548 55.4504 366.011 135.315 55.87 
361.571 140.302 54.287 361.894 140.019 54.6918 362.291 139.65 54.5563 
354.162 142.246 55.075 350.97 144.79 54.1026 355.055 143.494 54.5331 
356.484 143.776 53.8324 333.162 146.862 52.864 352.351 145.17 53.8748 
353.84 144.948 53.7529 354.594 144.619 53.8179 355.78 143.998 53.966 
329.125 149.011 53.4658 324.572 149.951 53.7716 329.067 149.719 53.8418 
320.852 150.586 53.9442 329.733 150.895 54.2137 295.859 153.493 55.6936 
297.701 153.269 55.8087 297.011 153.052 56.0939 300.425 153.121 55.5334 
303.823 152.931 55.151 304.941 152.558 55.503 308.417 152.317 55.4436 
311.266 152.183 55.1887 294.935 154.234 55.3073 303.739 152.732 55.727 
299.195 154.058 54.9328 328.345 154.165 54.9053 293.715 155.621 54.9227 
330.231 159.096 53.9504 328.336 160.993 53.9131 326.55 162.398 53.8633 
322.658 164.496 54.7315 291.184 169.138 54.5412 311.697 168.9 54.9836 
292.814 170.739 54.5876 289.542 171.856 55.1621 291.678 172.484 55.1986 
294.128 173.008 55.4498 295.22 172.82 55.4004 290.821 173.807 56.0073 
291.639 173.719 55.9105 291.224 174.271 56.4804 293.837 173.674 55.823 
350.3 125.2 56.3267 350.291 126.316 55.7589 350.284 126.619 56.233 
350.297 129.054 55.8043 350.25 130.291 55.7881 366.861 131.672 56.0623 
349.596 133.65 55.2722 349.447 134.126 55.2573 349.642 134.007 55.4388 
366.686 133.126 55.8232 366.967 133.046 56.2702 349.71 134.691 55.3852 
350.246 135.049 55.6691 366.951 133.728 56.5373 349.576 137.532 55.0519 
353.143 137.567 56.1883 365.459 136.39 55.7019 365.568 136.315 55.9682 
354.267 137.932 56.3782 361.228 140.158 55.7578 358.795 141.78 54.8565 
324.927 150.442 54.289 322.191 150.915 54.7131 316.494 151.708 55.1625 
320.826 151.208 54.8658 292.721 153.261 56.3735 292.299 152.625 57.1433 
294.465 152.743 56.7865 300.452 153.007 55.7681 301.323 152.617 56.4111 
314.778 151.94 55.429 325.087 152.371 55.2655 302.154 152.635 56.5875 
323.58 153.642 55.9217 290.06 153.906 56.2391 325.978 155.722 55.6202 
324.309 156.629 56.1634 325.699 160.531 55.5197 327.928 160.126 54.6622 
[...]
POINT_DATA 2002
COLOR_SCALARS scalars 3
0.0823529 0.690196 0.701961 0.0823529 0.690196 0.701961 0.0823529 0.690196 0.701961 
0.0823529 0.690196 0.701961 0.0823529 0.690196 0.701961 
0.0823529 0.690196 0.701961 0.0823529 0.690196 0.701961 
0.0823529 0.690196 0.701961 0.0823529 0.690196 0.701961 
0.0823529 0.690196 0.701961 0.0823529 0.690196 0.701961 
0.0823529 0.690196 0.701961 0.0823529 0.690196 0.701961 
0.0823529 0.690196 0.701961 0.0823529 0.690196 0.701961 
0.0823529 0.690196 0.701961 0.0823529 0.690196 0.701961 
0.0823529 0.690196 0.701961 0.0823529 0.690196 0.701961 
0.0823529 0.690196 0.701961 0.0823529 0.690196 0.701961 
0.0823529 0.690196 0.701961 0.0823529 0.690196 0.701961 
0.0823529 0.690196 0.701961 0.0823529 0.690196 0.701961 
0.0823529 0.690196 0.701961 0.0823529 0.690196 0.701961 
0.0823529 0.690196 0.701961 0.0823529 0.690196 0.701961 
0.0823529 0.690196 0.701961 0.0823529 0.690196 0.701961 
0.0823529 0.690196 0.701961 0.0823529 0.690196 0.701961 
0.0823529 0.690196 0.701961 0.0823529 0.690196 0.701961 
0.0823529 0.690196 0.701961 0.0823529 0.690196 0.701961 
0.0823529 0.690196 0.701961 0.0823529 0.690196 0.701961 
0.0823529 0.690196 0.701961 0.0823529 0.690196 0.701961 
0.0823529 0.690196 0.701961 0.0823529 0.690196 0.701961 
0.0823529 0.690196 0.701961 0.0823529 0.690196 0.701961 
0.0823529 0.690196 0.701961 0.0823529 0.690196 0.701961 
0.0823529 0.690196 0.701961 0.0823529 0.690196 0.701961 
0.0823529 0.690196 0.701961 0.0823529 0.690196 0.701961 
0.0823529 0.690196 0.701961 0.0823529 0.690196 0.701961 
0.0823529 0.690196 0.701961 0.0823529 0.690196 0.701961 
0.0823529 0.690196 0.701961 0.0823529 0.690196 0.701961 
0.0823529 0.690196 0.701961 0.0823529 0.690196 0.701961 
0.0823529 0.690196 0.701961 0.0823529 0.690196 0.701961 
0.0823529 0.690196 0.701961 0.0823529 0.690196 0.701961 
0.0823529 0.690196 0.701961 0.0823529 0.690196 0.701961 
0.0823529 0.690196 0.701961 0.0823529 0.690196 0.701961 
0.0823529 0.690196 0.701961 0.0823529 0.690196 0.701961 
0.0823529 0.690196 0.701961 0.0823529 0.690196 0.701961 
0.0823529 0.690196 0.701961 0.0823529 0.690196 0.701961 
0.0823529 0.690196 0.701961 0.0823529 0.690196 0.701961 
0.0823529 0.690196 0.701961 0.0823529 0.690196 0.701961 
0.0823529 0.690196 0.701961 0.0823529 0.690196 0.701961 
0.0823529 0.690196 0.701961 0.0823529 0.690196 0.701961 
0.0823529 0.690196 0.701961 0.0823529 0.690196 0.701961 
0.0823529 0.690196 0.701961 0.0823529 0.690196 0.701961 
0.0823529 0.690196 0.701961 0.0823529 0.690196 0.701961 
0.0823529 0.690196 0.701961 0.0823529 0.690196 0.701961 
0.0823529 0.690196 0.701961 0.0823529 0.690196 0.701961 
0.0823529 0.690196 0.701961 0.0823529 0.690196 0.701961 
0.0823529 0.690196 0.701961 0.0823529 0.690196 0.701961 
0.0823529 0.690196 0.701961 0.0823529 0.690196 0.701961 
0.0823529 0.690196 0.701961 0.0823529 0.690196 0.701961 
0.0823529 0.690196 0.701961 0.0823529 0.690196 0.701961 
0.0823529 0.690196 0.701961 0.0823529 0.690196 0.701961 
0.0823529 0.690196 0.701961 0.0823529 0.690196 0.701961 
0.0823529 0.690196 0.701961 0.0823529 0.690196 0.701961 
0.0823529 0.690196 0.701961 0.0823529 0.690196 0.701961 
0.0823529 0.690196 0.701961 0.0823529 0.690196 0.701961 
0.0823529 0.690196 0.701961 0.0823529 0.690196 0.701961 
0.0823529 0.690196 0.701961 0.0823529 0.690196 0.701961 
0.0823529 0.690196 0.701961 0.0823529 0.690196 0.701961 
0.0823529 0.690196 0.701961 0.0823529 0.690196 0.701961 
0.0823529 0.690196 0.701961 0.0823529 0.690196 0.701961 
0.0823529 0.690196 0.701961 0.0823529 0.690196 0.701961 
0.0823529 0.690196 0.701961 0.0823529 0.690196 0.701961 
0.0823529 0.690196 0.701961 0.0823529 0.690196 0.701961 
0.0823529 0.690196 0.701961 0.0823529 0.690196 0.701961 
0.0823529 0.690196 0.701961 0.0823529 0.690196 0.701961 
0.0823529 0.690196 0.701961 0.0823529 0.690196 0.701961 
0.0823529 0.690196 0.701961 0.0823529 0.690196 0.701961 
0.0823529 0.690196 0.701961 0.0823529 0.690196 0.701961 
0.0823529 0.690196 0.701961 0.0823529 0.690196 0.701961 
0.0823529 0.690196 0.701961 0.0823529 0.690196 0.701961 
0.0823529 0.690196 0.701961 0.0823529 0.690196 0.701961 
0.0823529 0.690196 0.701961 0.0823529 0.690196 0.701961 
0.0823529 0.690196 0.701961 0.0823529 0.690196 0.701961 
0.0823529 0.690196 0.701961 0.0823529 0.690196 0.701961 
0.0823529 0.690196 0.701961 0.0823529 0.690196 0.701961 
0.0823529 0.690196 0.701961 0.0823529 0.690196 0.701961 
0.0823529 0.690196 0.701961 0.0823529 0.690196 0.701961 
0.0823529 0.690196 0.701961 0.0823529 0.690196 0.701961 
0.0823529 0.690196 0.701961 0.0823529 0.690196 0.701961 
0.0823529 0.690196 0.701961 0.0823529 0.690196 0.701961 
0.0823529 0.690196 0.701961 0.0823529 0.690196 0.701961 
0.0823529 0.690196 0.701961 0.0823529 0.690196 0.701961 
0.0823529 0.690196 0.701961 0.0823529 0.690196 0.701961 
0.0823529 0.690196 0.701961 0.0823529 0.690196 0.701961 
0.0823529 0.690196 0.701961 0.0823529 0.690196 0.701961 
0.0823529 0.690196 0.701961 0.0823529 0.690196 0.701961 
0.0823529 0.690196 0.701961 0.0823529 0.690196 0.701961 
0.0823529 0.690196 0.701961 0.0823529 0.690196 0.701961 
0.0823529 0.690196 0.701961 0.0823529 0.690196 0.701961 
0.0823529 0.690196 0.701961 0.0823529 0.690196 0.701961 
0.0823529 0.690196 0.701961 0.0823529 0.690196 0.701961 
0.0823529 0.690196 0.701961 0.0823529 0.690196 0.701961 
0.0823529 0.690196 0.701961 0.0823529 0.690196 0.701961 
0.0823529 0.690196 0.701961 0.0823529 0.690196 0.701961 
0.0823529 0.690196 0.701961 0.0823529 0.690196 0.701961 
0.0823529 0.690196 0.701961 0.0823529 0.690196 0.701961 
0.0823529 0.690196 0.701961 0.0823529 0.690196 0.701961 
0.0823529 0.690196 0.701961 0.0823529 0.690196 0.701961 
0.0823529 0.690196 0.701961 0.0823529 0.690196 0.701961 
0.0823529 0.690196 0.701961 0.0823529 0.690196 0.701961 
0.0823529 0.690196 0.701961 0.0823529 0.690196 0.701961 
0.0823529 0.690196 0.701961 0.0823529 0.690196 0.701961 
0.0823529 0.690196 0.701961 0.0823529 0.690196 0.701961 
0.0823529 0.690196 0.701961 0.0823529 0.690196 0.701961 
0.0823529 0.690196 0.701961 0.0823529 0.690196 0.701961 
0.0823529 0.690196 0.701961 0.0823529 0.690196 0.701961 
0.0823529 0.690196 0.701961 0.0823529 0.690196 0.701961 
0.0823529 0.690196 0.701961 0.0823529 0.690196 0.701961 
0.0823529 0.690196 0.701961 0.0823529 0.690196 0.701961 
0.0823529 0.690196 0.701961 0.0823529 0.690196 0.701961 
0.0823529 0.690196 0.701961 0.0823529 0.690196 0.701961 
0.0823529 0.690196 0.701961 0.0823529 0.690196 0.701961 
0.0823529 0.690196 0.701961 0.0823529 0.690196 0.701961 
0.0823529 0.690196 0.701961 0.0823529 0.690196 0.701961 
0.0823529 0.690196 0.701961 0.0823529 0.690196 0.701961 
0.0823529 0.690196 0.701961 0.0823529 0.690196 0.701961 
0.0823529 0.690196 0.701961 0.0823529 0.690196 0.701961 
0.0823529 0.690196 0.701961 0.0823529 0.690196 0.701961 
0.0823529 0.690196 0.701961 0.0823529 0.690196 0.701961 
0.0823529 0.690196 0.701961 0.0823529 0.690196 0.701961 
0.0823529 0.690196 0.701961 0.0823529 0.690196 0.701961 
0.0823529 0.690196 0.701961 0.0823529 0.690196 0.701961 
0.0823529 0.690196 0.701961 0.0823529 0.690196 0.701961 
0.0823529 0.690196 0.701961 0.0823529 0.690196 0.701961 
0.0823529 0.690196 0.701961 0.0823529 0.690196 0.701961 
0.0823529 0.690196 0.701961 0.0823529 0.690196 0.701961 
0.0823529 0.690196 0.701961 0.0823529 0.690196 0.701961 
0.0823529 0.690196 0.701961 0.0823529 0.690196 0.701961 
0.0823529 0.690196 0.701961 0.0823529 0.690196 0.701961 
0.0823529 0.690196 0.701961 0.0823529 0.690196 0.701961 
0.0823529 0.690196 0.701961 0.0823529 0.690196 0.701961 
0.0823529 0.690196 0.701961 0.0823529 0.690196 0.701961 
0.0823529 0.690196 0.701961 0.0823529 0.690196 0.701961 
0.0823529 0.690196 0.701961 0.0823529 0.690196 0.701961 
0.0823529 0.690196 0.701961 0.0823529 0.690196 0.701961 
0.0823529 0.690196 0.701961 0.0823529 0.690196 0.701961 
0.0823529 0.690196 0.701961 0.0823529 0.690196 0.701961 
0.0823529 0.690196 0.701961 0.0823529 0.690196 0.701961 
0.0823529 0.690196 0.701961 0.0823529 0.690196 0.701961 
0.0823529 0.690196 0.701961 0.0823529 0.690196 0.701961 
0.0823529 0.690196 0.701961 0.0823529 0.690196 0.701961 
0.0823529 0.690196 0.701961 0.0823529 0.690196 0.701961 
0.0823529 0.690196 0.701961 0.0823529 0.690196 0.701961 
0.0823529 0.690196 0.701961 0.0823529 0.690196 0.701961 
0.0823529 0.690196 0.701961 0.0823529 0.690196 0.701961 
0.0823529 0.690196 0.701961 0.0823529 0.690196 0.701961 
0.0823529 0.690196 0.701961 0.0823529 0.690196 0.701961 
0.0823529 0.690196 0.701961 0.0823529 0.690196 0.701961 
0.0823529 0.690196 0.701961 0.0823529 0.690196 0.701961 
0.0823529 0.690196 0.701961 0.0823529 0.690196 0.701961 
0.0823529 0.690196 0.701961 0.0823529 0.690196 0.701961 
0.0823529 0.690196 0.701961 0.0823529 0.690196 0.701961 
0.0823529 0.690196 0.701961 0.0823529 0.690196 0.701961 
0.0823529 0.690196 0.701961 0.0823529 0.690196 0.701961 
0.0823529 0.690196 0.701961 0.0823529 0.690196 0.701961 
0.0823529 0.690196 0.701961 0.0823529 0.690196 0.701961 
0.0823529 0.690196 0.701961 0.0823529 0.690196 0.701961 
0.0823529 0.690196 0.701961 0.0823529 0.690196 0.701961 
0.0823529 0.690196 0.701961 0.0823529 0.690196 0.701961 
0.0823529 0.690196 0.701961 0.0823529 0.690196 0.701961 
0.0823529 0.690196 0.701961 0.0823529 0.690196 0.701961 
0.0823529 0.690196 0.701961 0.0823529 0.690196 0.701961 
0.0823529 0.690196 0.701961 0.0823529 0.690196 0.701961 
0.0823529 0.690196 0.701961 0.0823529 0.690196 0.701961 
0.0823529 0.690196 0.701961 0.0823529 0.690196 0.701961 
0.0823529 0.690196 0.701961 0.0823529 0.690196 0.701961 
0.0823529 0.690196 0.701961 0.0823529 0.690196 0.701961 
0.0823529 0.690196 0.701961 0.0823529 0.690196 0.701961 
0.0823529 0.690196 0.701961 0.0823529 0.690196 0.701961 
0.0823529 0.690196 0.701961 0.0823529 0.690196 0.701961 
0.0823529 0.690196 0.701961 0.0823529 0.690196 0.701961 
0.0823529 0.690196 0.701961 0.0823529 0.690196 0.701961 
0.0823529 0.690196 0.701961 0.0823529 0.690196 0.701961 
0.0823529 0.690196 0.701961 0.0823529 0.690196 0.701961 
0.0823529 0.690196 0.701961 0.0823529 0.690196 0.701961 
0.0823529 0.690196 0.701961 0.0823529 0.690196 0.701961 
0.0823529 0.690196 0.701961 0.0823529 0.690196 0.701961 
0.0823529 0.690196 0.701961 0.0823529 0.690196 0.701961 
0.0823529 0.690196 0.701961 0.0823529 0.690196 0.701961 
0.0823529 0.690196 0.701961 0.0823529 0.690196 0.701961 
0.0823529 0.690196 0.701961 0.0823529 0.690196 0.701961 
0.0823529 0.690196 0.701961 0.0823529 0.690196 0.701961 
0.0823529 0.690196 0.701961 0.0823529 0.690196 0.701961 
0.0823529 0.690196 0.701961 0.0823529 0.690196 0.701961 
0.0823529 0.690196 0.701961 0.0823529 0.690196 0.701961 
0.0823529 0.690196 0.701961 0.0823529 0.690196 0.701961 
0.0823529 0.690196 0.701961 0.0823529 0.690196 0.701961 
0.0823529 0.690196 0.701961 0.0823529 0.690196 0.701961 
0.0823529 0.690196 0.701961 0.0823529 0.690196 0.701961 
0.0823529 0.690196 0.701961 0.0823529 0.690196 0.701961 
0.0823529 0.690196 0.701961 0.0823529 0.690196 0.701961 
0.0823529 0.690196 0.701961 0.0823529 0.690196 0.701961 
0.0823529 0.690196 0.701961 0.0823529 0.690196 0.701961 
0.0823529 0.690196 0.701961 0.0823529 0.690196 0.701961 
0.0823529 0.690196 0.701961 0.0823529 0.690196 0.701961 
0.0823529 0.690196 0.701961 0.0823529 0.690196 0.701961 
0.0823529 0.690196 0.701961 0.0823529 0.690196 0.701961 
0.0823529 0.690196 0.701961 0.0823529 0.690196 0.701961 
0.0823529 0.690196 0.701961 0.0823529 0.690196 0.701961 
0.0823529 0.690196 0.701961 0.0823529 0.690196 0.701961 
0.0823529 0.690196 0.701961 0.0823529 0.690196 0.701961 
0.0823529 0.690196 0.701961 0.0823529 0.690196 0.701961 
0.0823529 0.690196 0.701961 0.0823529 0.690196 0.701961 
0.0823529 0.690196 0.701961 0.0823529 0.690196 0.701961 
0.0823529 0.690196 0.701961 0.0823529 0.690196 0.701961 
0.0823529 0.690196 0.701961 0.0823529 0.690196 0.701961 
0.0823529 0.690196 0.701961 0.0823529 0.690196 0.701961 
0.0823529 0.690196 0.701961 0.0823529 0.690196 0.701961 
0.0823529 0.690196 0.701961 0.0823529 0.690196 0.701961 
0.0823529 0.690196 0.701961 0.0823529 0.690196 0.701961 
0.0823529 0.690196 0.701961 0.0823529 0.690196 0.701961 
0.0823529 0.690196 0.701961 0.0823529 0.690196 0.701961 
0.0823529 0.690196 0.701961 0.0823529 0.690196 0.701961 
0.0823529 0.690196 0.701961 0.0823529 0.690196 0.701961 
0.0823529 0.690196 0.701961 0.0823529 0.690196 0.701961 
0.0823529 0.690196 0.701961 0.0823529 0.690196 0.701961 
0.0823529 0.690196 0.701961 0.0823529 0.690196 0.701961 
0.0823529 0.690196 0.701961 0.0823529 0.690196 0.701961 
0.0823529 0.690196 0.701961 0.0823529 0.690196 0.701961 
0.0823529 0.690196 0.701961 0.0823529 0.690196 0.701961 
0.0823529 0.690196 0.701961 0.0823529 0.690196 0.701961 
0.0823529 0.690196 0.701961 0.0823529 0.690196 0.701961 
0.0823529 0.690196 0.701961 0.0823529 0.690196 0.701961 
0.0823529 0.690196 0.701961 0.0823529 0.690196 0.701961 
0.0823529 0.690196 0.701961 0.0823529 0.690196 0.701961 
0.0823529 0.690196 0.701961 0.0823529 0.690196 0.701961 
0.0823529 0.690196 0.701961 0.0823529 0.690196 0.701961 
0.0823529 0.690196 0.701961 0.0823529 0.690196 0.701961 
0.0823529 0.690196 0.701961 0.0823529 0.690196 0.701961 
0.0823529 0.690196 0.701961 0.0823529 0.690196 0.701961 
0.0823529 0.690196 0.701961 0.0823529 0.690196 0.701961 
0.0823529 0.690196 0.701961 0.0823529 0.690196 0.701961 
0.0823529 0.690196 0.701961 0.0823529 0.690196 0.701961 
0.0823529 0.690196 0.701961 0.0823529 0.690196 0.701961 
0.0823529 0.690196 0.701961 0.0823529 0.690196 0.701961 
0.0823529 0.690196 0.701961 0.0823529 0.690196 0.701961 
0.0823529 0.690196 0.701961 0.0823529 0.690196 0.701961 
0.0823529 0.690196 0.701961 0.0823529 0.690196 0.701961 
0.0823529 0.690196 0.701961 0.0823529 0.690196 0.701961 
0.0823529 0.690196 0.701961 0.0823529 0.690196 0.701961 
0.0823529 0.690196 0.701961 0.0823529 0.690196 0.701961 
0.0823529 0.690196 0.701961 0.0823529 0.690196 0.701961 
0.0823529 0.690196 0.701961 0.0823529 0.690196 0.701961 
0.0823529 0.690196 0.701961 0.0823529 0.690196 0.701961 
0.0823529 0.690196 0.701961 0.0823529 0.690196 0.701961 
0.0823529 0.690196 0.701961 0.0823529 0.690196 0.701961 
0.0823529 0.690196 0.701961 0.0823529 0.690196 0.701961 
0.0823529 0.690196 0.701961 0.0823529 0.690196 0.701961 
0.0823529 0.690196 0.701961 0.0823529 0.690196 0.701961 
0.0823529 0.690196 0.701961 0.0823529 0.690196 0.701961 
0.0823529 0.690196 0.701961 0.0823529 0.690196 0.701961 
0.0823529 0.690196 0.701961 0.0823529 0.690196 0.701961 
0.0823529 0.690196 0.701961 0.0823529 0.690196 0.701961 
0.0823529 0.690196 0.701961 0.0823529 0.690196 0.701961 
0.0823529 0.690196 0.701961 0.0823529 0.690196 0.701961 
0.0823529 0.690196 0.701961 0.0823529 0.690196 0.701961 
0.0823529 0.690196 0.701961 0.0823529 0.690196 0.701961 
0.0823529 0.690196 0.701961 0.0823529 0.690196 0.701961 
0.0823529 0.690196 0.701961 0.0823529 0.690196 0.701961 
0.0823529 0.690196 0.701961 0.0823529 0.690196 0.701961 
0.0823529 0.690196 0.701961 0.0823529 0.690196 0.701961 
0.0823529 0.690196 0.701961 0.0823529 0.690196 0.701961 
0.0823529 0.690196 0.701961 0.0823529 0.690196 0.701961 
0.0823529 0.690196 0.701961 0.0823529 0.690196 0.701961 
0.0823529 0.690196 0.701961 0.0823529 0.690196 0.701961 
0.0823529 0.690196 0.701961 0.0823529 0.690196 0.701961 
0.0823529 0.690196 0.701961 0.0823529 0.690196 0.701961 
0.0823529 0.690196 0.701961 0.0823529 0.690196 0.701961 
0.0823529 0.690196 0.701961 0.0823529 0.690196 0.701961 
0.0823529 0.690196 0.701961 0.0823529 0.690196 0.701961 
0.0823529 0.690196 0.701961 0.0823529 0.690196 0.701961 
0.0823529 0.690196 0.701961 0.0823529 0.690196 0.701961 
0.0823529 0.690196 0.701961 0.0823529 0.690196 0.701961 
0.0823529 0.690196 0.701961 0.0823529 0.690196 0.701961 
0.0823529 0.690196 0.701961 0.0823529 0.690196 0.701961 
0.0823529 0.690196 0.701961 0.0823529 0.690196 0.701961 
0.0823529 0.690196 0.701961 0.0823529 0.690196 0.701961 
0.0823529 0.690196 0.701961 0.0823529 0.690196 0.701961 
0.0823529 0.690196 0.701961 0.0823529 0.690196 0.701961 
0.0823529 0.690196 0.701961 0.0823529 0.690196 0.701961 
0.0823529 0.690196 0.701961 0.0823529 0.690196 0.701961 
0.0823529 0.690196 0.701961 0.0823529 0.690196 0.701961 
0.0823529 0.690196 0.701961 0.0823529 0.690196 0.701961 
0.0823529 0.690196 0.701961 0.0823529 0.690196 0.701961 
0.0823529 0.690196 0.701961 0.0823529 0.690196 0.701961 
0.0823529 0.690196 0.701961 0.0823529 0.690196 0.701961 
0.0823529 0.690196 0.701961 0.0823529 0.690196 0.701961 
0.0823529 0.690196 0.701961 0.0823529 0.690196 0.701961 
0.0823529 0.690196 0.701961 0.0823529 0.690196 0.701961 
0.0823529 0.690196 0.701961 0.0823529 0.690196 0.701961 
0.0823529 0.690196 0.701961 0.0823529 0.690196 0.701961 
0.0823529 0.690196 0.701961 0.0823529 0.690196 0.701961 
0.0823529 0.690196 0.701961 0.0823529 0.690196 0.701961 
0.0823529 0.690196 0.701961 0.0823529 0.690196 0.701961 
0.0823529 0.690196 0.701961 0.0823529 0.690196 0.701961 
0.0823529 0.690196 0.701961 0.0823529 0.690196 0.701961 
0.0823529 0.690196 0.701961 0.0823529 0.690196 0.701961 
0.0823529 0.690196 0.701961 0.0823529 0.690196 0.701961 
0.0823529 0.690196 0.701961 0.0823529 0.690196 0.701961 
0.0823529 0.690196 0.701961 0.0823529 0.690196 0.701961 
0.0823529 0.690196 0.701961 0.0823529 0.690196 0.701961 
0.0823529 0.690196 0.701961 0.0823529 0.690196 0.701961 
0.0823529 0.690196 0.701961 0.0823529 0.690196 0.701961 
0.0823529 0.690196 0.701961 0.0823529 0.690196 0.701961 
0.0823529 0.690196 0.701961 0.0823529 0.690196 0.701961 
0.0823529 0.690196 0.701961 0.0823529 0.690196 0.701961 
0.0823529 0.690196 0.701961 0.0823529 0.690196 0.701961 
0.0823529 0.690196 0.701961 0.0823529 0.690196 0.701961 
0.0823529 0.690196 0.701961 0.0823529 0.690196 0.701961 
0.0823529 0.690196 0.701961 0.0823529 0.690196 0.701961 
0.0823529 0.690196 0.701961 0.0823529 0.690196 0.701961 
0.0823529 0.690196 0.701961 0.0823529 0.690196 0.701961 
0.0823529 0.690196 0.701961 0.0823529 0.690196 0.701961 
0.0823529 0.690196 0.701961 0.0823529 0.690196 0.701961 
0.0823529 0.690196 0.701961 0.0823529 0.690196 0.701961 
0.0823529 0.690196 0.701961 0.0823529 0.690196 0.701961 
0.0823529 0.690196 0.701961 0.0823529 0.690196 0.701961 
0.0823529 0.690196 0.701961 0.0823529 0.690196 0.701961 
0.0823529 0.690196 0.701961 0.0823529 0.690196 0.701961 
0.0823529 0.690196 0.701961 0.0823529 0.690196 0.701961 
0.0823529 0.690196 0.701961 0.0823529 0.690196 0.701961 
0.0823529 0.690196 0.701961 0.0823529 0.690196 0.701961 
0.0823529 0.690196 0.701961 0.0823529 0.690196 0.701961 
0.0823529 0.690196 0.701961 0.0823529 0.690196 0.701961 
0.0823529 0.690196 0.701961 0.0823529 0.690196 0.701961 
0.0823529 0.690196 0.701961 0.0823529 0.690196 0.701961 
0.0823529 0.690196 0.701961 0.0823529 0.690196 0.701961 
0.0823529 0.690196 0.701961 0.0823529 0.690196 0.701961 
0.0823529 0.690196 0.701961 0.0823529 0.690196 0.701961 
0.0823529 0.690196 0.701961 0.0823529 0.690196 0.701961 
0.0823529 0.690196 0.701961 0.0823529 0.690196 0.701961 
0.0823529 0.690196 0.701961 0.0823529 0.690196 0.701961 
0.0823529 0.690196 0.701961 0.0823529 0.690196 0.701961 
0.0823529 0.690196 0.701961 0.0823529 0.690196 0.701961 
0.0823529 0.690196 0.701961 0.0823529 0.690196 0.701961 
0.0823529 0.690196 0.701961 0.0823529 0.690196 0.701961 
0.0823529 0.690196 0.701961 0.0823529 0.690196 0.701961 
0.0823529 0.690196 0.701961 0.0823529 0.690196 0.701961 
0.0823529 0.690196 0.701961 0.0823529 0.690196 0.701961 
0.0823529 0.690196 0.701961 0.0823529 0.690196 0.701961 
0.0823529 0.690196 0.701961 0.0823529 0.690196 0.701961 
0.0823529 0.690196 0.701961 0.0823529 0.690196 0.701961 
0.0823529 0.690196 0.701961 0.0823529 0.690196 0.701961 
0.0823529 0.690196 0.701961 0.0823529 0.690196 0.701961 
0.0823529 0.690196 0.701961 0.0823529 0.690196 0.701961 
0.0823529 0.690196 0.701961 0.0823529 0.690196 0.701961 
0.0823529 0.690196 0.701961 0.0823529 0.690196 0.701961 
0.0823529 0.690196 0.701961 0.0823529 0.690196 0.701961 
0.0823529 0.690196 0.701961 0.0823529 0.690196 0.701961 