# vtk DataFile Version 4.2
vtk output
ASCII
DATASET POLYDATA
POINTS 524 float
296.08 258.781 176.525 296.891 258.938 176.136 297.94 258.877 176.103 
295.584 259.629 176.466 296.62 259.477 175.984 296.943 259.961 175.846 
297.543 259.856 175.857 295.571 261.073 176.373 296.19 260.501 175.948 
295.907 261.171 176.126 296.146 261.44 176.095 296.675 261.141 175.904 
297.665 260.882 175.92 296.454 261.435 176.012 296.799 257.694 177.383 
299.714 257.889 177.236 299.864 258.234 177.046 300.228 258.507 177.111 
295.248 259.415 176.84 294.985 259.582 177.089 300.086 259.886 176.785 
295.054 260.385 176.82 295.403 261.641 176.756 295.836 262.03 176.568 
295.588 262.325 176.924 298.903 262.047 176.542 296.771 257.435 177.886 
300.957 258.004 177.77 301.23 257.777 178.079 301.43 258.139 177.997 
301.882 258.611 178.169 294.881 260.662 177.104 300.904 262.874 177.795 
297.931 256.667 179.071 300.461 256.813 178.773 300.713 257.133 178.493 
303.25 260.127 178.929 294.328 261.772 178.634 294.321 263.305 179.206 
298.438 264.807 177.866 295.557 265.207 178.641 295.774 265.76 178.916 
296.407 265.986 178.836 301.087 256.765 179.353 301.508 257.105 179.204 
303.148 258.396 179.441 294.854 265.834 179.909 295.112 266.516 180.119 
296.364 267.058 179.726 297.169 256.789 179.973 299.831 256.364 180.072 
296.554 257.111 180.248 294.866 258.679 180.061 304.906 259.725 180.805 
305.015 260.259 180.764 304.762 261.128 180.415 304.586 262.7 180.761 
303.097 264.048 180.046 294.039 264.486 180.743 294.924 266.909 180.684 
296.722 267.674 180.178 295.696 267.874 180.751 296.34 268.104 180.642 
298.34 256.415 181.096 301.118 256.552 180.455 303.424 257.849 180.407 
294.631 259.087 180.4 305.838 260.927 181.898 305.918 261.701 182.079 
294.186 267.028 182.261 295.679 268.876 181.663 301.717 256.65 181.781 
304.105 257.747 181.849 304.673 258.066 182.224 305.103 258.444 182.34 
305.375 258.991 182.189 298.755 268.95 181.503 295.385 269.225 182.224 
296.292 270.063 182.433 297.469 256.853 182.177 298.558 256.83 183.119 
294.403 260.021 182.223 306.044 259.423 183.06 293.693 264.184 182.911 
293.9 267.471 183.673 294.866 269.837 183.427 296.639 270.56 182.814 
294.735 270.736 184.548 295.394 270.846 183.684 295.821 270.922 183.455 
295.233 271.125 184.174 305.167 258.212 183.591 294.845 259.932 183.733 
306.318 259.278 183.995 306.831 259.864 184.216 307.394 260.426 184.985 
293.93 262.049 183.13 298.554 271.298 183.78 295.705 271.753 184.439 
304.473 257.774 184.496 305.838 258.617 185.158 295.974 259.187 185.107 
307.124 260.003 184.728 293.814 263.694 184.324 293.69 267.04 185.04 
294.088 270.389 185.878 294.971 272.031 185.525 295.226 272.965 186.171 
295.984 273.05 185.612 297.833 273.274 185.657 307.417 260.007 186.111 
307.932 260.559 186.581 308.401 262.331 186.72 301.686 270.929 185.414 
296.817 273.587 185.968 295.751 273.795 186.747 299.678 258.192 186.309 
306.941 259.523 186.434 308.048 260.519 187.091 308.746 261.704 187.77 
293.862 270.684 187.429 294.315 272.852 188.147 296.817 274.424 187.113 
295.186 274.054 187.857 298.041 274.784 187.624 305.06 258.543 186.794 
307.326 259.995 187.94 308.736 261.623 188.72 295.951 275.369 189.239 
297.4 275.594 188.919 294.256 265.814 188.067 295.017 274.672 189.34 
295.352 275.223 189.829 305.537 259.52 188.703 308.346 261.392 189.583 
308.83 262.74 189.75 308.77 263.469 189.279 307.706 265.727 189.233 
293.877 269.612 189.355 305.039 270.404 190 295.05 275.234 190.573 
307.937 261.456 190.156 308.32 262.256 190.615 308.528 262.53 190.485 
308.689 263.47 190.376 308.368 264.547 190.685 307.064 267.191 190.657 
296.407 276.642 191.704 307.913 262.307 191.045 308.548 263.675 190.878 
307.283 266.672 191.577 294.518 269.361 191.82 294.336 274.524 192.392 
300.6 275.701 191.078 296.421 276.867 192.521 296.906 277.234 193.072 
297.608 277.216 192.442 305.862 262.214 191.65 307.058 262.9 191.851 
307.821 263.44 191.803 308.062 264.106 191.66 307.483 265.582 192.11 
307.078 266.764 192.209 307.116 266.234 192.485 295.473 268.094 192.592 
306.529 267.851 192.877 294.257 270.801 192.411 305.762 270.399 193.475 
294.04 272.516 192.524 304.96 271.816 192.418 294.073 273.264 192.705 
294.632 275.305 193.194 296.408 277.134 194.059 298.588 277.313 192.697 
299.6 277.118 192.899 304.819 263.509 192.755 307.363 263.452 192.05 
305.934 264.611 193.203 302.261 265.223 194.01 307.076 265.778 192.69 
306.526 267.472 193.118 306.282 267.282 193.545 305.843 269.594 194.301 
303.795 273.891 193.136 294.457 274.651 194.112 301.616 275.949 193.019 
295.385 276.229 194.721 297.555 277.691 194.567 306.643 265.654 193.125 
305.418 266.784 194.33 305.829 268.416 194.354 294.285 273.529 194.118 
296.355 277.166 195.768 300.278 277.372 194.538 296.837 277.503 195.491 
298.102 277.882 195.26 294.694 272.99 195.316 304.94 273.319 195.652 
297.955 277.951 196.184 304.594 269.05 196.58 295.187 274.718 196.506 
295.76 276.123 197.022 296.089 276.552 197.196 300.895 277.662 196.366 
298.66 278.145 196.778 304.07 269.297 197.264 304.573 270.251 197.724 
304.873 270.638 197.613 295.875 272.428 197.069 305.208 272.702 197.979 
304.921 273.781 197.858 305.118 273.265 198.048 298.64 278.194 198.207 
303.198 269.316 197.652 304.273 270.178 197.964 298.161 271.687 198.696 
296.257 274.273 198.552 298.352 277.969 198.982 300.346 278.119 198.039 
299.115 278.247 198.678 304.808 271.527 198.612 304.624 271.633 198.929 
304.826 271.854 198.815 304.883 272.955 199.073 296.816 274.704 199.442 
304.655 273.797 199.411 296.646 275.429 199.179 304.118 275.073 199.508 
297.729 277.098 199.666 301.845 277.243 199.157 297.98 277.423 199.547 
298.674 278.052 199.236 298.876 277.992 199.544 299.088 278.145 199.249 
303.488 271.503 199.5 303.686 272.48 200.185 297.447 273.763 199.725 
296.846 275.156 199.494 297.85 276.857 200.01 302.836 276.335 200.038 
298.235 277.065 200.255 299.013 277.746 199.948 299.209 278.004 199.676 
299.477 277.867 199.933 300.48 277.861 199.515 299.339 273.487 200.709 
300.392 273.349 200.968 301.026 273.133 200.923 302.819 272.937 200.737 
303.935 273.247 200.418 298.275 275.874 200.641 303.419 275.283 200.814 
303.616 275.011 200.792 298.491 276.855 200.561 298.933 276.992 200.682 
300.974 277.065 200.631 302.465 273.539 201.124 303.664 273.485 200.687 
299.509 274.656 201.173 300.317 275.008 201.522 301.423 274.77 201.779 
301.951 274.622 201.73 302.874 275.071 201.428 299.648 276.1 201.218 
300.876 275.379 201.742 302.857 275.494 201.179 302.369 275.581 201.529 
302.597 275.301 201.558 300.975 275.743 201.692 301.409 275.793 201.702 
301.592 276.064 201.472 301.918 275.715 201.64 299.933 276.971 200.857 
301.349 275.197 201.848 302.218 274.919 201.769 302.559 274.995 201.646 
301.673 275.44 201.819 302.927 273.627 254.23 303.408 273.594 254.357 
303.709 273.36 254.586 300.505 274.315 253.975 300.702 275.263 253.817 
301.873 274.913 253.858 303.039 274.58 254.166 299.232 276.276 254.327 
300.696 276.057 254.001 301.303 276.102 254.114 302.12 275.78 254.189 
303.226 275.413 254.668 299.533 277.003 254.692 301.214 276.612 254.4 
302.375 276.104 254.533 300.13 277.125 254.772 302.915 272.455 254.708 
302.908 272.192 254.865 303.126 272.241 254.886 303.922 272.773 255.001 
304.337 273.177 255.173 299.061 274.128 254.557 304.378 273.723 255.179 
298.519 274.718 254.703 303.843 274.541 254.694 304.056 274.703 255.085 
302.837 275.967 254.806 303.753 275.244 255.197 299.139 277.022 254.833 
301.415 276.823 254.655 301.77 276.799 254.867 300.022 277.558 255.242 
301.683 271.687 255.323 303.509 272.195 255.085 304.348 272.211 255.576 
298.401 273.564 255.207 304.65 273.187 255.562 297.711 273.845 255.526 
302.961 276.17 255.357 298.435 277.308 255.629 301.898 276.969 255.375 
302.519 276.652 255.662 299.024 277.925 256.156 300.452 277.925 255.939 
304.188 271.261 256.082 305.059 273.288 256.583 299.584 278.159 256.69 
302.404 270.092 256.787 301.844 269.924 257.006 303.685 270.22 256.855 
305.208 271.94 257.314 295.941 273.224 257.747 305.022 273.85 257.516 
296.499 276.254 257.288 303.018 276.432 256.594 299.777 269.923 257.574 
304.792 270.545 257.368 304.659 270.002 257.702 305.396 272.65 258.238 
305.063 273.699 258.204 296.08 276.38 258.235 296.932 277.279 258.471 
301.65 277.428 257.91 298.188 278.005 258.517 298.683 278.128 258.171 
295.604 271.152 259.513 305.416 272.711 258.777 294.975 273.957 259.511 
295.592 276.066 259.628 298.314 278.035 259.068 302.023 266.944 259.879 
304.842 267.998 259.618 294.822 274.635 260.344 305.725 265.683 261.447 
306.608 265.889 261.958 306.379 266.707 261.638 305.942 268.789 260.656 
294.626 270.717 261.497 294.404 274.097 261.908 304.565 264.287 261.99 
307.507 264.256 262.902 307.216 263.729 262.958 307.919 264.246 263.183 
308.219 264.064 263.508 307.453 265.879 262.949 294.453 269.795 262.544 
294.075 272.486 262.535 295.488 276.206 262.683 306.109 263.339 262.836 
307.953 263.182 263.571 308.466 263.947 263.85 308.598 264.038 264.214 
306.906 267.537 262.942 306.646 268.354 263.111 294.044 273.411 263.727 
294.651 274.983 263.157 301.993 275.521 262.564 295.564 276.209 263.398 
296.794 277.25 262.226 297.201 277.388 262.084 308.03 262.394 264.166 
308.73 263.595 264.653 294.692 267.671 263.981 294.139 268.838 264.152 
307.872 261.722 264.873 308.496 262.661 264.548 308.619 262.616 265.012 
307.771 266.151 264.729 306.307 268.765 264.772 293.706 269.842 265.147 
296.128 276.158 264.784 298.477 276.507 264.31 306.672 260.623 265.758 
307.435 260.66 266.466 308.277 261.717 265.708 308.693 262.529 265.733 
296.096 263.51 265.921 308.857 263.64 265.624 294.709 265.862 265.621 
294.351 266.075 266.123 297.453 276.386 264.755 306.505 259.869 266.94 
306.746 259.838 267.262 299.77 259.92 267.041 307.486 260.448 267.271 
293.808 266.896 267.018 303.828 270.794 267.366 293.673 271.688 267.263 
294.918 274.584 267.174 299.019 275.273 266.417 303.409 258.661 268.134 
307.055 260.004 267.414 308.294 261.523 267.1 308.68 262.816 267.284 
[...]
POINT_DATA 524
COLOR_SCALARS scalars 3
1 0.298039 0.243137 1 0.298039 0.243137 1 0.298039 0.243137 
1 0.298039 0.243137 1 0.298039 0.243137 
1 0.298039 0.243137 1 0.298039 0.243137 
1 0.298039 0.243137 1 0.298039 0.243137 
1 0.298039 0.243137 1 0.298039 0.243137 
1 0.298039 0.243137 1 0.298039 0.243137 
1 0.298039 0.243137 1 0.298039 0.243137 
1 0.298039 0.243137 1 0.298039 0.243137 
1 0.298039 0.243137 1 0.298039 0.243137 
1 0.298039 0.243137 1 0.298039 0.243137 
1 0.298039 0.243137 1 0.298039 0.243137 
1 0.298039 0.243137 1 0.298039 0.243137 
1 0.298039 0.243137 1 0.298039 0.243137 
1 0.298039 0.243137 1 0.298039 0.243137 
1 0.298039 0.243137 1 0.298039 0.243137 
1 0.298039 0.243137 1 0.298039 0.243137 
1 0.298039 0.243137 1 0.298039 0.243137 
1 0.298039 0.243137 1 0.298039 0.243137 
1 0.298039 0.243137 1 0.298039 0.243137 
1 0.298039 0.243137 1 0.298039 0.243137 
1 0.298039 0.243137 1 0.298039 0.243137 
1 0.298039 0.243137 1 0.298039 0.243137 
1 0.298039 0.243137 1 0.298039 0.243137 
1 0.298039 0.243137 1 0.298039 0.243137 
1 0.298039 0.243137 1 0.298039 0.243137 
1 0.298039 0.243137 1 0.298039 0.243137 
1 0.298039 0.243137 1 0.298039 0.243137 
1 0.298039 0.243137 1 0.298039 0.243137 
1 0.298039 0.243137 1 0.298039 0.243137 
1 0.298039 0.243137 1 0.298039 0.243137 
1 0.298039 0.243137 1 0.298039 0.243137 
1 0.298039 0.243137 1 0.298039 0.243137 
1 0.298039 0.243137 1 0.298039 0.243137 
1 0.298039 0.243137 1 0.298039 0.243137 
1 0.298039 0.243137 1 0.298039 0.243137 
1 0.298039 0.243137 1 0.298039 0.243137 
1 0.298039 0.243137 1 0.298039 0.243137 
1 0.298039 0.243137 1 0.298039 0.243137 
1 0.298039 0.243137 1 0.298039 0.243137 
1 0.298039 0.243137 1 0.298039 0.243137 
1 0.298039 0.243137 1 0.298039 0.243137 
1 0.298039 0.243137 1 0.298039 0.243137 
1 0.298039 0.243137 1 0.298039 0.243137 
1 0.298039 0.243137 1 0.298039 0.243137 
1 0.298039 0.243137 1 0.298039 0.243137 
1 0.298039 0.243137 1 0.298039 0.243137 
1 0.298039 0.243137 1 0.298039 0.243137 
1 0.298039 0.243137 1 0.298039 0.243137 
1 0.298039 0.243137 1 0.298039 0.243137 
1 0.298039 0.243137 1 0.298039 0.243137 
1 0.298039 0.243137 1 0.298039 0.243137 
1 0.298039 0.243137 1 0.298039 0.243137 
1 0.298039 0.243137 1 0.298039 0.243137 
1 0.298039 0.243137 1 0.298039 0.243137 
1 0.298039 0.243137 1 0.298039 0.243137 
1 0.298039 0.243137 1 0.298039 0.243137 
1 0.298039 0.243137 1 0.298039 0.243137 
1 0.298039 0.243137 1 0.298039 0.243137 
1 0.298039 0.243137 1 0.298039 0.243137 
1 0.298039 0.243137 1 0.298039 0.243137 
1 0.298039 0.243137 1 0.298039 0.243137 
1 0.298039 0.243137 1 0.298039 0.243137 
1 0.298039 0.243137 1 0.298039 0.243137 
1 0.298039 0.243137 1 0.298039 0.243137 
1 0.298039 0.243137 1 0.298039 0.243137 
1 0.298039 0.243137 1 0.298039 0.243137 
1 0.298039 0.243137 1 0.298039 0.243137 
1 0.298039 0.243137 1 0.298039 0.243137 
1 0.298039 0.243137 1 0.298039 0.243137 
1 0.298039 0.243137 1 0.298039 0.243137 
1 0.298039 0.243137 1 0.298039 0.243137 
1 0.298039 0.243137 1 0.298039 0.243137 
1 0.298039 0.243137 1 0.298039 0.243137 
1 0.298039 0.243137 1 0.298039 0.243137 
1 0.298039 0.243137 1 0.298039 0.243137 
1 0.298039 0.243137 1 0.298039 0.243137 
1 0.298039 0.243137 1 0.298039 0.243137 
1 0.298039 0.243137 1 0.298039 0.243137 
1 0.298039 0.243137 1 0.298039 0.243137 
1 0.298039 0.243137 1 0.298039 0.243137 
1 0.298039 0.243137 1 0.298039 0.243137 
1 0.298039 0.243137 1 0.298039 0.243137 
1 0.298039 0.243137 1 0.298039 0.243137 
1 0.298039 0.243137 1 0.298039 0.243137 
1 0.298039 0.243137 1 0.298039 0.243137 
1 0.298039 0.243137 1 0.298039 0.243137 
1 0.298039 0.243137 1 0.298039 0.243137 
1 0.298039 0.243137 1 0.298039 0.243137 
1 0.298039 0.243137 1 0.298039 0.243137 
1 0.298039 0.243137 1 0.298039 0.243137 
1 0.298039 0.243137 1 0.298039 0.243137 
1 0.298039 0.243137 1 0.298039 0.243137 
1 0.298039 0.243137 1 0.298039 0.243137 
1 0.298039 0.243137 1 0.298039 0.243137 
1 0.298039 0.243137 1 0.298039 0.243137 
1 0.298039 0.243137 1 0.298039 0.243137 
1 0.298039 0.243137 1 0.298039 0.243137 
1 0.298039 0.243137 1 0.298039 0.243137 
1 0.298039 0.243137 1 0.298039 0.243137 
1 0.298039 0.243137 1 0.298039 0.243137 
1 0.298039 0.243137 1 0.298039 0.243137 
1 0.298039 0.243137 1 0.298039 0.243137 
1 0.298039 0.243137 1 0.298039 0.243137 
1 0.298039 0.243137 1 0.298039 0.243137 
1 0.298039 0.243137 1 0.298039 0.243137 
1 0.298039 0.243137 1 0.298039 0.243137 
1 0.298039 0.243137 1 0.298039 0.243137 
1 0.298039 0.243137 1 0.298039 0.243137 
1 0.298039 0.243137 1 0.298039 0.243137 
1 0.298039 0.243137 1 0.298039 0.243137 
1 0.298039 0.243137 1 0.298039 0.243137 
1 0.298039 0.243137 1 0.298039 0.243137 
1 0.298039 0.243137 1 0.298039 0.243137 
1 0.298039 0.243137 1 0.298039 0.243137 
1 0.298039 0.243137 1 0.298039 0.243137 
1 0.298039 0.243137 1 0.298039 0.243137 
1 0.298039 0.243137 1 0.298039 0.243137 
1 0.298039 0.243137 1 0.298039 0.243137 
1 0.298039 0.243137 1 0.298039 0.243137 
1 0.298039 0.243137 1 0.298039 0.243137 
1 0.298039 0.243137 1 0.298039 0.243137 
1 0.298039 0.243137 1 0.298039 0.243137 
1 0.298039 0.243137 1 0.298039 0.243137 
1 0.298039 0.243137 1 0.298039 0.243137 
1 0.298039 0.243137 1 0.298039 0.243137 
1 0.298039 0.243137 1 0.298039 0.243137 
1 0.298039 0.243137 1 0.298039 0.243137 
1 0.298039 0.243137 1 0.298039 0.243137 
1 0.298039 0.243137 1 0.298039 0.243137 
1 0.298039 0.243137 1 0.298039 0.243137 
1 0.298039 0.243137 1 0.298039 0.243137 
1 0.298039 0.243137 1 0.298039 0.243137 
1 0.298039 0.243137 1 0.298039 0.243137 
1 0.298039 0.243137 1 0.298039 0.243137 
1 0.298039 0.243137 1 0.298039 0.243137 
1 0.298039 0.243137 1 0.298039 0.243137 
1 0.298039 0.243137 1 0.298039 0.243137 
1 0.298039 0.243137 1 0.298039 0.243137 
1 0.298039 0.243137 1 0.298039 0.243137 
1 0.298039 0.243137 1 0.298039 0.243137 
1 0.298039 0.243137 1 0.298039 0.243137 
1 0.298039 0.243137 1 0.298039 0.243137 
1 0.298039 0.243137 1 0.298039 0.243137 
1 0.298039 0.243137 1 0.298039 0.243137 
1 0.298039 0.243137 1 0.298039 0.243137 
1 0.298039 0.243137 1 0.298039 0.243137 
1 0.298039 0.243137 1 0.298039 0.243137 
1 0.298039 0.243137 1 0.298039 0.243137 
1 0.298039 0.243137 1 0.298039 0.243137 
1 0.298039 0.243137 1 0.298039 0.243137 
1 0.298039 0.243137 1 0.298039 0.243137 
1 0.298039 0.243137 1 0.298039 0.243137 
1 0.298039 0.243137 1 0.298039 0.243137 
1 0.298039 0.243137 1 0.298039 0.243137 
1 0.298039 0.243137 1 0.298039 0.243137 
1 0.298039 0.243137 1 0.298039 0.243137 
1 0.298039 0.243137 1 0.298039 0.243137 
1 0.298039 0.243137 1 0.298039 0.243137 
1 0.298039 0.243137 1 0.298039 0.243137 
1 0.298039 0.243137 1 0.298039 0.243137 
1 0.298039 0.243137 1 0.298039 0.243137 
1 0.298039 0.243137 1 0.298039 0.243137 
1 0.298039 0.243137 1 0.298039 0.243137 
1 0.298039 0.243137 1 0.298039 0.243137 
1 0.298039 0.243137 1 0.298039 0.243137 
1 0.298039 0.243137 1 0.298039 0.243137 
1 0.298039 0.243137 1 0.298039 0.243137 
1 0.298039 0.243137 1 0.298039 0.243137 
1 0.298039 0.243137 1 0.298039 0.243137 
1 0.298039 0.243137 1 0.298039 0.243137 
1 0.298039 0.243137 1 0.298039 0.243137 
1 0.298039 0.243137 1 0.298039 0.243137 
1 0.298039 0.243137 1 0.298039 0.243137 
1 0.298039 0.243137 1 0.298039 0.243137 
1 0.298039 0.243137 1 0.298039 0.243137 
1 0.298039 0.243137 1 0.298039 0.243137 
1 0.298039 0.243137 1 0.298039 0.243137 
1 0.298039 0.243137 1 0.298039 0.243137 
1 0.298039 0.243137 1 0.298039 0.243137 
1 0.298039 0.243137 1 0.298039 0.243137 
1 0.298039 0.243137 1 0.298039 0.243137 
1 0.298039 0.243137 1 0.298039 0.243137 
1 0.298039 0.243137 1 0.298039 0.243137 
1 0.298039 0.243137 1 0.298039 0.243137 
1 0.298039 0.243137 1 0.298039 0.243137 
1 0.298039 0.243137 1 0.298039 0.243137 
1 0.298039 0.243137 1 0.298039 0.243137 
1 0.298039 0.243137 1 0.298039 0.243137 
1 0.298039 0.243137 1 0.298039 0.243137 
1 0.298039 0.243137 1 0.298039 0.243137 
1 0.298039 0.243137 1 0.298039 0.243137 
1 0.298039 0.243137 1 0.298039 0.243137 
1 0.298039 0.243137 1 0.298039 0.243137 
1 0.298039 0.243137 1 0.298039 0.243137 
1 0.298039 0.243137 1 0.298039 0.243137 
1 0.298039 0.243137 1 0.298039 0.243137 
1 0.298039 0.243137 1 0.298039 0.243137 
1 0.298039 0.243137 1 0.298039 0.243137 
1 0.298039 0.243137 1 0.298039 0.243137 
1 0.298039 0.243137 1 0.298039 0.243137 
1 0.298039 0.243137 1 0.298039 0.243137 
1 0.298039 0.243137 1 0.298039 0.243137 
1 0.298039 0.243137 1 0.298039 0.243137 
1 0.298039 0.243137 1 0.298039 0.243137 
1 0.298039 0.243137 1 0.298039 0.243137 
1 0.298039 0.243137 1 0.298039 0.243137 
1 0.298039 0.243137 1 0.298039 0.243137 
1 0.298039 0.243137 1 0.298039 0.243137 
1 0.298039 0.243137 1 0.298039 0.243137 
1 0.298039 0.243137 1 0.298039 0.243137 
1 0.298039 0.243137 1 0.298039 0.243137 
1 0.298039 0.243137 1 0.298039 0.243137 
1 0.298039 0.243137 1 0.298039 0.243137 
1 0.298039 0.243137 1 0.298039 0.243137 
1 0.298039 0.243137 1 0.298039 0.243137 
1 0.298039 0.243137 1 0.298039 0.243137 
1 0.298039 0.243137 1 0.298039 0.243137 
1 0.298039 0.243137 1 0.298039 0.243137 
1 0.298039 0.243137 1 0.298039 0.243137 
1 0.298039 0.243137 1 0.298039 0.243137 
1 0.298039 0.243137 1 0.298039 0.243137 
1 0.298039 0.243137 1 0.298039 0.243137 
1 0.298039 0.243137 1 0.298039 0.243137 
1 0.298039 0.243137 1 0.298039 0.243137 
1 0.298039 0.243137 1 0.298039 0.243137 
1 0.298039 0.243137 1 0.298039 0.243137 
1 0.298039 0.243137 1 0.298039 0.243137 
1 0.298039 0.243137 1 0.298039 0.243137 
1 0.298039 0.243137 1 0.298039 0.243137 
1 0.298039 0.243137 1 0.298039 0.243137 
1 0.298039 0.243137 1 0.298039 0.243137 
1 0.298039 0.243137 1 0.298039 0.243137 
1 0.298039 0.243137 1 0.298039 0.243137 
1 0.298039 0.243137 1 0.298039 0.243137 
1 0.298039 0.243137 1 0.298039 0.243137 
1 0.298039 0.243137 1 0.298039 0.243137 
1 0.298039 0.243137 1 0.298039 0.243137 
1 0.298039 0.243137 1 0.298039 0.243137 
1 0.298039 0.243137 1 0.298039 0.243137 
1 0.298039 0.243137 1 0.298039 0.243137 
1 0.298039 0.243137 1 0.298039 0.243137 
1 0.298039 0.243137 1 0.298039 0.243137 
1 0.298039 0.243137 1 0.298039 0.243137 
1 0.298039 0.243137 1 0.298039 0.243137 
1 0.298039 0.243137 1 0.298039 0.243137 
1 0.298039 0.243137 1 0.298039 0.243137 
1 0.298039 0.243137 1 0.298039 0.243137 
1 0.298039 0.243137 1 0.298039 0.243137 
1 0.298039 0.243137 1 0.298039 0.243137 
1 0.298039 0.243137 1 0.298039 0.243137 
1 0.298039 0.243137 1 0.298039 0.243137 
1 0.298039 0.243137 1 0.298039 0.243137 
1 0.298039 0.243137 1 0.298039 0.243137 
1 0.298039 0.243137 1 0.298039 0.243137 
1 0.298039 0.243137 1 0.298039 0.243137 
1 0.298039 0.243137 1 0.298039 0.243137 
1 0.298039 0.243137 1 0.298039 0.243137 
1 0.298039 0.243137 1 0.298039 0.243137 
1 0.298039 0.243137 1 0.298039 0.243137 
1 0.298039 0.243137 1 0.298039 0.243137 
1 0.298039 0.243137 1 0.298039 0.243137 
1 0.298039 0.243137 
NORMALS Normals float
-0.502376 -0.525423 -0.686694 -0.116186 -0.447951 -0.886477 0.205309 -0.504842 -0.838441 
-0.605438 -0.175453 -0.776313 -0.273666 -0.269048 -0.923428 -0.0562962 -0.101087 -0.993284 
0.184271 -0.103948 -0.977363 -0.651294 0.0983364 -0.752427 -0.338347 -0.0707979 -0.938354 
-0.412179 0.174111 -0.894312 -0.462435 0.362579 -0.809129 -0.107232 0.166879 -0.980129 
0.129206 0.289376 -0.948455 0.0369804 0.540813 -0.84033 -0.256949 -0.791591 -0.554401 
0.25169 -0.674166 -0.694372 0.373237 -0.387701 -0.842842 0.47874 -0.3523 -0.804172 
-0.690419 -0.440956 -0.57348 -0.842224 -0.431555 -0.323139 0.4682 -0.0614234 -0.881485 
-0.722662 -0.0596724 -0.688621 -0.694343 0.302505 -0.652976 -0.275637 0.58069 -0.766044 
-0.333215 0.566096 -0.753991 0.284704 0.23687 -0.92889 -0.296865 -0.873931 -0.384859 
0.449903 -0.395083 -0.800935 0.539631 -0.580331 -0.60993 0.572408 -0.365519 -0.733993 
0.606463 -0.324788 -0.725751 -0.861062 0.137617 -0.489524 0.508514 0.261473 -0.820394 
-0.13021 -0.909372 -0.395079 0.141057 -0.853185 -0.502174 0.273432 -0.735184 -0.620274 
0.643521 0.0208763 -0.765144 -0.950014 0.0469479 -0.308656 -0.846582 0.249625 -0.470091 
0.171859 0.545418 -0.820356 -0.640801 0.394519 -0.658582 -0.428757 0.656538 -0.620585 
-0.265558 0.616014 -0.741623 0.297686 -0.896212 -0.328918 0.554171 -0.712666 -0.430119 
0.650432 -0.440559 -0.618745 -0.69668 0.472124 -0.540125 -0.663743 0.470486 -0.581453 
-0.170492 0.623028 -0.763393 -0.417097 -0.902566 -0.106787 0.0705699 -0.99538 -0.0651053 
-0.587252 -0.809133 -0.0209432 -0.778235 -0.627692 -0.0187672 0.734491 -0.355831 -0.577847 
0.835407 -0.0748364 -0.544513 0.743182 0.0309701 -0.668372 0.757394 0.271696 -0.593747 
0.583679 0.483761 -0.652146 -0.980221 -0.066763 -0.186305 -0.582333 0.522375 -0.622907 
-0.166518 0.623746 -0.763683 -0.452309 0.529771 -0.717467 -0.206986 0.573444 -0.792666 
-0.214396 -0.974056 0.0724581 0.313084 -0.946156 -0.0822634 0.571324 -0.721482 -0.391219 
-0.842989 -0.523683 0.122982 0.847613 -0.137934 -0.512374 0.840756 0.119455 -0.528073 
-0.911128 0.268472 -0.31268 -0.702437 0.36564 -0.610646 0.282406 -0.957936 0.0510489 
0.607851 -0.725536 -0.322668 0.546664 -0.826378 -0.135126 0.727706 -0.576111 -0.37221 
0.831849 -0.401632 -0.38304 0.192348 0.648189 -0.736785 -0.688908 0.452816 -0.566007 
-0.207233 0.670382 -0.71249 -0.513285 -0.811425 0.279515 -0.0546916 -0.960911 0.2714 
-0.908259 -0.412898 0.0676827 0.833491 -0.428376 -0.34898 -0.981718 -0.145248 -0.123013 
-0.905663 0.349296 -0.240348 -0.859982 0.317896 -0.399214 -0.261128 0.646704 -0.71665 
-0.768466 0.526468 -0.363719 -0.580153 0.535315 -0.613889 -0.313761 0.685853 -0.656628 
-0.606117 0.62746 -0.48879 0.699983 -0.70132 -0.134814 -0.835371 -0.434971 0.336088 
0.766127 -0.597582 -0.236527 0.816846 -0.387735 -0.427111 0.865535 -0.399256 -0.302396 
-0.956489 -0.214423 0.197868 0.113494 0.705396 -0.699668 -0.517014 0.659047 -0.546217 
0.463275 -0.885177 0.0428724 0.638713 -0.769148 0.0213878 -0.657205 -0.567661 0.495825 
0.808706 -0.569645 -0.146626 -0.951597 -0.284663 0.115889 -0.995692 0.083184 -0.0409708 
-0.922255 0.292248 -0.253056 -0.703768 0.486491 -0.517722 -0.625773 0.59904 -0.499559 
-0.290377 0.693949 -0.658875 0.190675 0.734374 -0.651412 0.716597 -0.687779 -0.115965 
0.82254 -0.520157 -0.229926 0.877825 0.244428 -0.411919 0.601798 0.605736 -0.520503 
-0.0833213 0.744886 -0.661969 -0.358369 0.741173 -0.567657 -0.204487 -0.800162 0.563848 
0.617002 -0.786691 -0.0206329 0.755913 -0.654141 -0.0263602 0.96305 -0.195857 -0.184867 
-0.995948 0.0634311 -0.0637483 -0.941832 0.318035 -0.108657 -0.197643 0.8049 -0.55953 
-0.604472 0.687606 -0.402257 0.0960131 0.8313 -0.547469 0.275553 -0.909662 0.310782 
0.563561 -0.810556 0.159368 0.944087 -0.322524 0.0683863 -0.39315 0.823323 -0.409357 
-0.0295078 0.900633 -0.433578 -0.966811 -0.171747 0.189155 -0.8269 0.548584 -0.123657 
-0.77101 0.633211 -0.0677286 0.152443 -0.826811 0.541429 0.734185 -0.599221 0.319228 
0.957122 -0.213697 0.195579 0.978138 0.19146 -0.0811758 0.886006 0.432883 -0.16615 
-0.983229 -0.127556 0.130348 0.796217 0.538062 -0.276638 -0.68462 0.700953 -0.1999 
0.38599 -0.73848 0.552864 0.740853 -0.475333 0.474547 0.84109 -0.268479 0.46956 
0.970788 0.154653 0.183447 0.94241 0.295487 0.156689 0.838882 0.533651 -0.107208 
-0.523494 0.815791 -0.245843 0.518008 -0.492368 0.699458 0.954135 0.0586364 0.293578 
0.901167 0.394794 0.178988 -0.922383 -0.316157 0.221931 -0.910836 0.391812 -0.12985 
0.479499 0.748923 -0.457379 -0.361753 0.903021 -0.231708 -0.36364 0.901581 -0.234344 
-0.126544 0.942669 -0.308808 0.0725458 -0.636944 0.767489 0.25824 -0.557159 0.789232 
0.632141 -0.257626 0.730771 0.817107 0.0808617 0.570787 0.832889 0.106205 0.543155 
0.914464 0.361031 0.182792 0.850796 0.214831 0.479576 -0.787014 -0.440272 0.432169 
0.87442 0.204189 0.440111 -0.915 -0.225505 0.334549 0.961404 0.273783 0.0273084 
-0.998091 -0.0125832 0.0604664 0.790448 0.526258 -0.313439 -0.983301 0.0137776 0.181466 
-0.905253 0.424162 -0.024568 -0.572491 0.810491 -0.123932 0.10822 0.9442 -0.311088 
0.370566 0.855734 -0.361111 0.166365 -0.558427 0.8127 0.327217 -0.393061 0.859321 
0.352198 -0.366578 0.861149 -0.13218 -0.655973 0.743121 0.762212 0.0342382 0.646421 
0.846904 0.192745 0.495584 0.7501 -0.00642171 0.661293 0.899244 -0.112763 0.422664 
0.755744 0.59804 -0.266832 -0.941451 0.298295 0.157128 0.591372 0.71988 -0.363388 
-0.787558 0.616196 0.00741928 -0.25074 0.948359 -0.194281 0.658182 -0.0802948 0.748565 
0.522875 -0.250349 0.814817 0.820937 0.0265092 0.570404 -0.98331 0.0600983 0.171728 
-0.656927 0.753811 0.0147013 0.334278 0.907429 -0.254619 -0.471006 0.880946 0.045699 
-0.0713775 0.987938 -0.137419 -0.920932 -0.176477 0.347475 0.806248 0.56883 -0.16247 
-0.171296 0.985047 -0.0184588 0.545562 -0.554079 0.628775 -0.921421 0.126844 0.367278 
-0.857464 0.439505 0.267565 -0.686116 0.676861 0.266655 0.653589 0.720355 -0.232185 
-0.136957 0.989725 -0.0410729 0.515137 -0.65894 0.548116 0.697505 -0.487601 0.525102 
0.801892 -0.393091 0.449942 -0.835092 -0.283308 0.471549 0.992958 0.0241603 0.115977 
0.926649 0.372482 -0.0507793 0.97136 0.227005 0.0702001 -0.286834 0.957462 0.0314992 
-0.00320692 -0.689839 0.723956 0.513708 -0.54376 0.663648 -0.425683 -0.572889 0.700423 
-0.950307 0.0509668 0.307113 -0.484928 0.858854 0.164967 0.22833 0.972003 -0.0554528 
-0.0385452 0.993488 0.107221 0.801168 -0.414128 0.432004 0.594215 -0.46267 0.65791 
0.856115 -0.231376 0.462095 0.876226 -0.0472442 0.479579 -0.746945 -0.152008 0.647276 
0.913194 0.253025 0.319462 -0.877202 0.216011 0.428784 0.807297 0.584014 0.0848505 
-0.798059 0.39328 0.456544 0.663818 0.747374 -0.0278788 -0.58507 0.679537 0.442631 
-0.433417 0.80968 0.395687 -0.342491 0.817643 0.462774 -0.100621 0.971919 0.212717 
0.297551 -0.647084 0.701959 0.491578 -0.447558 0.747023 -0.504844 -0.348269 0.789836 
-0.677808 0.0646314 0.732393 -0.7677 0.303779 0.564229 0.591503 0.715411 0.371901 
-0.517644 0.552839 0.653004 -0.346327 0.711927 0.610915 -0.0659223 0.896199 0.438727 
-0.0101071 0.791089 0.611618 0.235912 0.912192 0.335039 -0.314359 -0.721044 0.617474 
-0.169285 -0.44832 0.877697 -0.120271 -0.792176 0.598325 0.142671 -0.647816 0.748318 
0.610788 -0.251261 0.75087 -0.620836 0.0441776 0.782694 0.682561 0.559832 0.469786 
0.77538 0.295589 0.558043 -0.470023 0.324792 0.820724 -0.30151 0.44405 0.843748 
0.215226 0.72376 0.655629 0.221997 -0.388108 0.894477 0.581993 -0.149622 0.799311 
-0.405839 -0.130561 0.904571 -0.34311 -0.0821911 0.935692 -0.106629 -0.234629 0.966219 
0.120557 -0.336327 0.933997 0.589205 0.0699204 0.804953 -0.244234 0.261662 0.933747 
-0.306172 0.0122785 0.951897 0.553012 0.598247 0.579895 0.388891 0.542377 0.744708 
0.462958 0.333452 0.821267 -0.176082 0.380704 0.907777 0.0528328 0.497843 0.865656 
0.19951 0.683607 0.702053 0.340942 0.589392 0.732377 0.04534 0.629213 0.77591 
-0.0863902 0.0177295 0.996104 0.269678 0.0855816 0.95914 0.447433 -0.145519 0.882399 
0.0913828 0.128953 0.987431 0.164697 -0.307201 -0.937285 0.415527 -0.161137 -0.895194 
0.504364 -0.256799 -0.824422 -0.182235 -0.378469 -0.907498 -0.113345 0.0681646 -0.991215 
0.114997 -0.0175168 -0.993211 0.456682 0.286044 -0.84239 -0.373665 0.319985 -0.870623 
0.00666188 0.405738 -0.913965 0.231268 0.405033 -0.88457 0.369194 0.431478 -0.823117 
0.690196 0.522357 -0.500772 -0.123092 0.642369 -0.756446 0.177668 0.569235 -0.802749 
0.508003 0.672176 -0.538622 -0.0063643 0.687209 -0.726431 0.150592 -0.42146 -0.894256 
0.113515 -0.677358 -0.726843 0.267721 -0.679729 -0.682858 0.537444 -0.384384 -0.750602 
0.702347 -0.224044 -0.675658 -0.359553 -0.293981 -0.885605 0.79589 0.0807225 -0.600036 
-0.624067 -0.0535724 -0.779532 0.644603 0.217964 -0.732788 0.811737 0.455152 -0.365951 
0.536385 0.541855 -0.647059 0.738652 0.51493 -0.435017 -0.285993 0.70445 -0.649584 
0.266125 0.762952 -0.589136 0.410805 0.643638 -0.645732 0.0344412 0.841934 -0.53848 
-0.0418554 -0.69712 -0.715732 0.288743 -0.568598 -0.770275 0.658119 -0.374614 -0.653103 
-0.460215 -0.455437 -0.762089 0.86408 -0.142412 -0.482789 -0.629328 -0.34878 -0.694477 
0.668011 0.675384 -0.312439 -0.645597 0.45482 -0.613468 0.452713 0.837801 -0.305188 