# vtk DataFile Version 4.2
vtk output
ASCII
DATASET POLYDATA
POINTS 739 float
278.76 260.055 173.791 277.887 260.041 173.947 280.823 259.761 173.661 
284.223 258.91 173.88 287.411 259.374 173.706 289.065 259.404 173.922 
289.509 258.888 174.183 290.471 259.343 174.294 277.218 260.697 173.793 
278.753 260.702 173.55 280.42 260.406 173.498 286.11 260.017 173.522 
290.777 260.056 174.384 291.137 259.941 174.604 279.214 261.133 173.452 
277.091 261.562 173.691 284.61 261.476 173.523 277.773 262.112 173.652 
284.784 258.366 174.23 288.318 258.397 174.282 291.001 258.571 174.814 
278.156 258.763 174.821 291.674 259.288 175.06 275.482 260.288 174.637 
290.962 261.097 174.821 291.562 260.823 175.284 274.715 262.121 174.619 
276.089 262.976 174.252 282.474 257.19 176.029 284.56 257.426 175.275 
285.038 257.216 175.614 291.004 257.923 175.365 290.934 257.765 175.562 
277.819 258.098 175.738 281.577 257.943 174.925 291.641 258.728 175.243 
292.067 258.932 175.879 292.027 260.982 175.976 272.831 262.666 175.464 
287.61 257.231 175.658 289.176 256.956 176.552 292.028 258.52 176.201 
292.429 259.618 176.651 272.593 261.244 175.947 292.54 260.209 176.91 
291.372 262.667 175.936 289.517 263.849 175.617 271.871 264.509 176.017 
288.025 256.687 177.049 291.625 257.751 176.751 269.935 261.3 177.589 
269.678 262.172 177.309 291.907 262.873 176.969 281.316 256.654 178.381 
271.22 259.853 177.931 292.835 259.816 178.236 292.254 264.318 178.472 
291.391 265.861 178.543 290.512 256.642 178.922 290.037 256.499 178.874 
289.336 256.281 179.423 291.054 256.701 179.978 287.627 256.196 179.461 
274.909 257.533 180.193 293.057 264.244 180.597 265.384 267.923 179.396 
279.287 274.085 179.81 271.823 258.292 180.892 265.105 261.275 180.964 
262.311 268.032 181.238 291.151 268.834 180.676 292.519 267.926 181.979 
289.816 270.76 181.035 287.603 256.169 181.88 286.153 256.294 181.731 
293.057 259.652 181.655 262.568 262.538 182.257 261.553 264.354 182.25 
291.582 270.435 182.236 290.73 271.569 182.145 291.044 256.828 181.916 
279.639 257.113 182.814 292.442 258.406 182.294 293.442 264.819 183.176 
260.546 271.201 183.117 292.606 269.918 183.646 292.119 272.082 184.037 
290.637 256.916 183.205 269.426 258.681 183.185 272.843 258.237 183.541 
279.752 257.599 184.086 264.498 260.096 183.666 262.543 261.134 184.016 
259.5 264.412 184.517 258.676 268.06 184.079 292.846 271.061 184.959 
291.804 258.378 184.637 270.041 258.672 183.877 265.162 259.752 184.774 
265.911 259.62 184.883 262.969 260.64 185.39 260.186 263.041 185.054 
293.409 267.751 185.192 257.779 270.015 185.103 284.6 279.919 184.239 
286.534 257.204 185.127 292.267 258.957 184.669 263.998 260.152 185.529 
264.549 259.978 185.45 265.935 259.716 185.47 292.441 259.423 184.939 
266.291 259.856 185.913 293.206 262.068 185.203 259.965 262.94 186.18 
258.2 265.057 186.128 256.708 268.929 186.312 256.613 271.069 186.406 
292.971 273.285 186.731 292.376 275.46 186.497 261.231 276.81 185.591 
289.006 279.069 185.507 282.022 283.242 186.152 287.319 257.885 186.486 
289.678 257.787 186.168 291.999 259.71 186.218 267.707 260.163 186.512 
270.818 260.095 186.473 260.656 262.381 187.115 257.99 264.9 187.248 
256.478 267.673 187.339 256.128 272.223 187.457 256.948 273.908 187.119 
292.281 277.416 187.645 274.654 283.832 186.529 290.015 258.443 187.059 
261.826 261.77 187.586 270.869 261.652 187.989 292.666 262.083 187.117 
256.501 267.055 188.374 255.643 269.599 188.339 255.54 271.068 188.547 
287.896 282.706 187.703 290.047 259.622 188.312 287.782 259.633 188.703 
290.465 259.838 188.322 290.924 259.934 188 290.652 260.122 188.454 
260 263.373 188.91 258.124 264.788 188.64 293.425 270.246 188.774 
256.306 275.666 189.179 292.455 278.864 189.212 260.476 280.987 189.033 
291.027 261.151 189.05 255.352 270.506 189.841 258.217 279.58 189.661 
290.842 282.645 189.883 291.582 282.027 190.302 279.261 286.675 190.175 
290.043 262.297 190.59 290.81 263.014 190.614 256.591 267.04 190.185 
293.15 269.69 190.295 292.674 280.827 191.768 290.346 263.625 191.314 
256.832 280.713 192.102 260.464 284.211 192.165 290.036 284.498 191.991 
288.32 265.346 192.748 288.856 265.352 192.699 289.429 265.163 192.464 
289.926 265.764 192.639 291.22 266.429 192.226 256.647 268.323 192.183 
281.727 268.257 193.068 255.552 270.822 192.39 255.686 271.159 193.125 
258.41 283.937 193.38 290.207 267.578 193.413 288.179 267.864 193.875 
291.557 269.04 193.014 284.62 269.652 194.229 255.174 272.972 193.282 
254.983 274.461 193.651 254.928 276.046 193.979 256.408 281.846 193.932 
289.726 267.78 193.634 292.08 272.459 193.843 292.426 274.012 194.117 
257.607 270.472 195.049 256.655 271.634 195.337 289.075 272.963 195.815 
289.925 272.841 195.587 255.118 280.561 196.491 255.958 282.936 196.026 
256.265 283.439 195.85 258.057 285.637 196.031 257.338 272.246 196.519 
288.754 273.735 196.187 291.014 273.296 195.342 263.104 288.031 197 
290.396 275.666 196.764 291.174 276.996 197.116 292.68 281.625 197.432 
292.358 283.394 197.913 290.69 278.959 198.62 255.096 283.17 199.853 
255.624 284.165 198.954 291.899 284.124 198.546 292.174 283.617 198.763 
290.964 285.382 198.055 289.653 286.533 199.046 271.367 289.583 199.446 
254.818 281.002 199.99 284.316 280.174 199.975 292.223 283.33 199.026 
292.105 283.166 199.4 291.59 284.409 199.48 256.013 285.434 200.466 
291.185 285.081 199.612 269.318 289.589 200.317 254.893 280.315 200.647 
289.149 281.271 201.125 255.253 284.309 201.741 289.135 287.058 200.459 
255.275 278.997 200.981 289.737 281.664 201.326 290.568 281.998 201.138 
256.708 286.587 202.085 290.464 285.963 201.61 287.184 287.937 201.317 
272.467 289.829 202.137 257.804 277.34 202.52 255.035 283.722 203.403 
290.879 284.373 202.063 290.864 285.071 201.995 290.653 285.56 202.248 
289.54 286.818 202.226 287.099 287.894 202.49 277.532 289.369 202.751 
273.252 289.736 203.158 255.948 278.984 202.885 256.345 278.691 203.212 
255.531 279.77 202.918 254.98 282.276 203.788 290.534 284.119 202.733 
290.274 284.255 203.23 255.24 284.501 204.509 255.534 285.216 204.792 
257.396 287.323 204.829 285.273 288.16 203.435 266.103 289.194 203.776 
268.545 289.552 203.223 272.58 289.586 203.966 256.674 278.716 203.658 
268.674 282.068 205.361 255.043 283.164 204.919 276.598 282.956 204.38 
275.445 283.327 205.01 289.857 284.107 203.501 283.429 284.35 205.181 
286.422 284.329 204.786 290.311 285.801 203.517 284.132 288.118 204.317 
286.753 287.633 203.941 264.966 288.91 204.556 269.403 289.295 204.586 
275.153 289.074 204.52 259.025 279.004 205.145 267.857 281.992 205.591 
279.836 284.07 205.21 255.379 284.639 206.308 289.901 285.054 204.162 
289.616 285.234 204.402 290.199 285.167 203.908 290.185 285.471 204.013 
290.172 285.725 203.908 289.382 286.109 204.33 289.822 285.92 204.147 
257.366 287.225 206.261 259.979 288.024 205.693 282.882 287.86 205.212 
285.618 287.617 204.739 269.405 289.05 205.085 274.795 288.745 205.126 
272.744 289.116 204.951 270.944 283.98 206.314 274.063 284.253 205.978 
271.547 284.572 206.465 272.587 284.647 206.345 280.014 285.102 205.907 
282.964 285.255 205.855 279.609 285.655 206.131 281.6 285.681 206.081 
283.382 285.766 206.048 284.033 285.849 206.039 284.39 286.118 206.042 
285.38 285.769 205.807 287.1 285.943 205.346 289.964 285.638 204.203 
256.433 286.199 207.355 271.33 287.328 206.511 277.571 286.647 206.27 
279.261 286.845 206.23 285.772 286.211 205.797 286.975 286.419 205.41 
287.612 286.544 204.961 286.919 286.696 205.328 267.352 287.804 206.424 
270.237 288.028 206.202 271.995 287.838 206.227 273.754 287.756 206.103 
277.657 287.715 205.838 279.633 287.159 206.129 281.001 287.347 205.962 
282.971 287.448 205.695 283.358 287.173 205.855 286.081 287.223 205.156 
286.834 287.004 205.039 258.956 287.623 206.564 263.351 288.038 206.264 
268.179 288.589 205.532 274.182 288.34 205.639 270.672 288.879 205.44 
271.458 288.821 205.478 256.973 280.763 207.048 258.293 280.324 207.03 
256.154 281.844 207.453 268.649 285.571 207.194 255.906 285.106 208.176 
279.18 286.285 206.248 282.158 286.182 206.167 256.179 285.692 207.856 
266.714 286.689 207.247 286.601 286.579 205.542 264.317 287.013 207.394 
282.624 287.064 205.973 258.192 287.255 207.256 258.735 287.351 207.207 
257.439 280.845 207.459 259.367 281.315 208.135 261.102 282.209 208.36 
265.199 283.537 207.629 263.805 284.296 208.245 263.011 284.642 208.541 
262.907 285.323 208.506 264.63 284.985 208.045 264.351 285.623 208.043 
256.826 286.24 208.122 257.033 286.143 208.434 261.986 286.653 208.054 
262.115 286.091 208.436 257.905 286.69 208.059 258.708 286.699 208.239 
257.113 281.788 208.304 258.906 282.533 209.136 256.199 283.315 208.782 
260.298 283.209 209.133 260.434 283.737 209.289 255.904 284.161 208.721 
260.792 284.078 209.238 260.597 285.145 209.182 256.256 284.865 209.136 
256.475 285.173 209.148 259.86 285.678 209.129 257.534 286.224 208.553 
259.242 285.776 209.134 259.072 283.712 209.571 256.474 284.015 209.321 
259.562 284.209 209.551 256.182 284.57 209.184 257.997 283.583 209.653 
256.796 284.667 209.535 257.691 284.475 209.728 257.432 283.86 245.525 
257.375 283.736 245.599 257.355 283.915 245.607 257.557 283.789 245.566 
257.537 283.969 245.574 257.127 282.256 246.341 258.191 282.342 246.179 
256.432 282.602 246.492 257.129 283.217 245.903 257.564 283.394 245.755 
256.504 283.636 246.242 257.09 283.688 245.839 257.987 283.957 245.667 
259.527 283.98 245.833 257.462 284.278 245.791 258.565 284.405 245.738 
256.221 284.539 246.587 256.361 284.858 246.62 256.564 284.647 246.358 
257.871 284.999 246.041 259.412 285.079 245.954 259.83 284.878 245.945 
256.755 285.139 246.567 256.974 281.815 246.721 256.494 281.754 246.927 
256.248 281.925 246.986 259.087 282.316 246.299 255.868 282.95 247.097 
260.03 282.751 246.362 255.665 284.042 247.496 260.558 285.543 246.29 
257.419 286.046 246.974 257.161 286.184 247.328 258.02 286.154 246.824 
259.301 286.149 246.582 258.481 286.649 247.214 256.313 281.606 247.201 
[...]
POINT_DATA 739
COLOR_SCALARS scalars 3
0.94902 0.282353 0.231373 0.94902 0.282353 0.231373 0.94902 0.282353 0.231373 
0.94902 0.282353 0.231373 0.94902 0.282353 0.231373 
0.94902 0.282353 0.231373 0.94902 0.282353 0.231373 
0.94902 0.282353 0.231373 0.94902 0.282353 0.231373 
0.94902 0.282353 0.231373 0.94902 0.282353 0.231373 
0.94902 0.282353 0.231373 0.94902 0.282353 0.231373 
0.94902 0.282353 0.231373 0.94902 0.282353 0.231373 
0.94902 0.282353 0.231373 0.94902 0.282353 0.231373 
0.94902 0.282353 0.231373 0.94902 0.282353 0.231373 
0.94902 0.282353 0.231373 0.94902 0.282353 0.231373 
0.94902 0.282353 0.231373 0.94902 0.282353 0.231373 
0.94902 0.282353 0.231373 0.94902 0.282353 0.231373 
0.94902 0.282353 0.231373 0.94902 0.282353 0.231373 
0.94902 0.282353 0.231373 0.94902 0.282353 0.231373 
0.94902 0.282353 0.231373 0.94902 0.282353 0.231373 
0.94902 0.282353 0.231373 0.94902 0.282353 0.231373 
0.94902 0.282353 0.231373 0.94902 0.282353 0.231373 
0.94902 0.282353 0.231373 0.94902 0.282353 0.231373 
0.94902 0.282353 0.231373 0.94902 0.282353 0.231373 
0.94902 0.282353 0.231373 0.94902 0.282353 0.231373 
0.94902 0.282353 0.231373 0.94902 0.282353 0.231373 
0.94902 0.282353 0.231373 0.94902 0.282353 0.231373 
0.94902 0.282353 0.231373 0.94902 0.282353 0.231373 
0.94902 0.282353 0.231373 0.94902 0.282353 0.231373 
0.94902 0.282353 0.231373 0.94902 0.282353 0.231373 
0.94902 0.282353 0.231373 0.94902 0.282353 0.231373 
0.94902 0.282353 0.231373 0.94902 0.282353 0.231373 
0.94902 0.282353 0.231373 0.94902 0.282353 0.231373 
0.94902 0.282353 0.231373 0.94902 0.282353 0.231373 
0.94902 0.282353 0.231373 0.94902 0.282353 0.231373 
0.94902 0.282353 0.231373 0.94902 0.282353 0.231373 
0.94902 0.282353 0.231373 0.94902 0.282353 0.231373 
0.94902 0.282353 0.231373 0.94902 0.282353 0.231373 
0.94902 0.282353 0.231373 0.94902 0.282353 0.231373 
0.94902 0.282353 0.231373 0.94902 0.282353 0.231373 
0.94902 0.282353 0.231373 0.94902 0.282353 0.231373 
0.94902 0.282353 0.231373 0.94902 0.282353 0.231373 
0.94902 0.282353 0.231373 0.94902 0.282353 0.231373 
0.94902 0.282353 0.231373 0.94902 0.282353 0.231373 
0.94902 0.282353 0.231373 0.94902 0.282353 0.231373 
0.94902 0.282353 0.231373 0.94902 0.282353 0.231373 
0.94902 0.282353 0.231373 0.94902 0.282353 0.231373 
0.94902 0.282353 0.231373 0.94902 0.282353 0.231373 
0.94902 0.282353 0.231373 0.94902 0.282353 0.231373 
0.94902 0.282353 0.231373 0.94902 0.282353 0.231373 
0.94902 0.282353 0.231373 0.94902 0.282353 0.231373 
0.94902 0.282353 0.231373 0.94902 0.282353 0.231373 
0.94902 0.282353 0.231373 0.94902 0.282353 0.231373 
0.94902 0.282353 0.231373 0.94902 0.282353 0.231373 
0.94902 0.282353 0.231373 0.94902 0.282353 0.231373 
0.94902 0.282353 0.231373 0.94902 0.282353 0.231373 
0.94902 0.282353 0.231373 0.94902 0.282353 0.231373 
0.94902 0.282353 0.231373 0.94902 0.282353 0.231373 
0.94902 0.282353 0.231373 0.94902 0.282353 0.231373 
0.94902 0.282353 0.231373 0.94902 0.282353 0.231373 
0.94902 0.282353 0.231373 0.94902 0.282353 0.231373 
0.94902 0.282353 0.231373 0.94902 0.282353 0.231373 
0.94902 0.282353 0.231373 0.94902 0.282353 0.231373 
0.94902 0.282353 0.231373 0.94902 0.282353 0.231373 
0.94902 0.282353 0.231373 0.94902 0.282353 0.231373 
0.94902 0.282353 0.231373 0.94902 0.282353 0.231373 
0.94902 0.282353 0.231373 0.94902 0.282353 0.231373 
0.94902 0.282353 0.231373 0.94902 0.282353 0.231373 
0.94902 0.282353 0.231373 0.94902 0.282353 0.231373 
0.94902 0.282353 0.231373 0.94902 0.282353 0.231373 
0.94902 0.282353 0.231373 0.94902 0.282353 0.231373 
0.94902 0.282353 0.231373 0.94902 0.282353 0.231373 
0.94902 0.282353 0.231373 0.94902 0.282353 0.231373 
0.94902 0.282353 0.231373 0.94902 0.282353 0.231373 
0.94902 0.282353 0.231373 0.94902 0.282353 0.231373 
0.94902 0.282353 0.231373 0.94902 0.282353 0.231373 
0.94902 0.282353 0.231373 0.94902 0.282353 0.231373 
0.94902 0.282353 0.231373 0.94902 0.282353 0.231373 
0.94902 0.282353 0.231373 0.94902 0.282353 0.231373 
0.94902 0.282353 0.231373 0.94902 0.282353 0.231373 
0.94902 0.282353 0.231373 0.94902 0.282353 0.231373 
0.94902 0.282353 0.231373 0.94902 0.282353 0.231373 
0.94902 0.282353 0.231373 0.94902 0.282353 0.231373 
0.94902 0.282353 0.231373 0.94902 0.282353 0.231373 
0.94902 0.282353 0.231373 0.94902 0.282353 0.231373 
0.94902 0.282353 0.231373 0.94902 0.282353 0.231373 
0.94902 0.282353 0.231373 0.94902 0.282353 0.231373 
0.94902 0.282353 0.231373 0.94902 0.282353 0.231373 
0.94902 0.282353 0.231373 0.94902 0.282353 0.231373 
0.94902 0.282353 0.231373 0.94902 0.282353 0.231373 
0.94902 0.282353 0.231373 0.94902 0.282353 0.231373 
0.94902 0.282353 0.231373 0.94902 0.282353 0.231373 
0.94902 0.282353 0.231373 0.94902 0.282353 0.231373 
0.94902 0.282353 0.231373 0.94902 0.282353 0.231373 
0.94902 0.282353 0.231373 0.94902 0.282353 0.231373 
0.94902 0.282353 0.231373 0.94902 0.282353 0.231373 
0.94902 0.282353 0.231373 0.94902 0.282353 0.231373 
0.94902 0.282353 0.231373 0.94902 0.282353 0.231373 
0.94902 0.282353 0.231373 0.94902 0.282353 0.231373 
0.94902 0.282353 0.231373 0.94902 0.282353 0.231373 
0.94902 0.282353 0.231373 0.94902 0.282353 0.231373 
0.94902 0.282353 0.231373 0.94902 0.282353 0.231373 
0.94902 0.282353 0.231373 0.94902 0.282353 0.231373 
0.94902 0.282353 0.231373 0.94902 0.282353 0.231373 
0.94902 0.282353 0.231373 0.94902 0.282353 0.231373 
0.94902 0.282353 0.231373 0.94902 0.282353 0.231373 
0.94902 0.282353 0.231373 0.94902 0.282353 0.231373 
0.94902 0.282353 0.231373 0.94902 0.282353 0.231373 
0.94902 0.282353 0.231373 0.94902 0.282353 0.231373 
0.94902 0.282353 0.231373 0.94902 0.282353 0.231373 
0.94902 0.282353 0.231373 0.94902 0.282353 0.231373 
0.94902 0.282353 0.231373 0.94902 0.282353 0.231373 
0.94902 0.282353 0.231373 0.94902 0.282353 0.231373 
0.94902 0.282353 0.231373 0.94902 0.282353 0.231373 
0.94902 0.282353 0.231373 0.94902 0.282353 0.231373 
0.94902 0.282353 0.231373 0.94902 0.282353 0.231373 
0.94902 0.282353 0.231373 0.94902 0.282353 0.231373 
0.94902 0.282353 0.231373 0.94902 0.282353 0.231373 
0.94902 0.282353 0.231373 0.94902 0.282353 0.231373 
0.94902 0.282353 0.231373 0.94902 0.282353 0.231373 
0.94902 0.282353 0.231373 0.94902 0.282353 0.231373 
0.94902 0.282353 0.231373 0.94902 0.282353 0.231373 
0.94902 0.282353 0.231373 0.94902 0.282353 0.231373 
0.94902 0.282353 0.231373 0.94902 0.282353 0.231373 
0.94902 0.282353 0.231373 0.94902 0.282353 0.231373 
0.94902 0.282353 0.231373 0.94902 0.282353 0.231373 
0.94902 0.282353 0.231373 0.94902 0.282353 0.231373 
0.94902 0.282353 0.231373 0.94902 0.282353 0.231373 
0.94902 0.282353 0.231373 0.94902 0.282353 0.231373 
0.94902 0.282353 0.231373 0.94902 0.282353 0.231373 
0.94902 0.282353 0.231373 0.94902 0.282353 0.231373 
0.94902 0.282353 0.231373 0.94902 0.282353 0.231373 
0.94902 0.282353 0.231373 0.94902 0.282353 0.231373 
0.94902 0.282353 0.231373 0.94902 0.282353 0.231373 
0.94902 0.282353 0.231373 0.94902 0.282353 0.231373 
0.94902 0.282353 0.231373 0.94902 0.282353 0.231373 
0.94902 0.282353 0.231373 0.94902 0.282353 0.231373 
0.94902 0.282353 0.231373 0.94902 0.282353 0.231373 
0.94902 0.282353 0.231373 0.94902 0.282353 0.231373 
0.94902 0.282353 0.231373 0.94902 0.282353 0.231373 
0.94902 0.282353 0.231373 0.94902 0.282353 0.231373 
0.94902 0.282353 0.231373 0.94902 0.282353 0.231373 
0.94902 0.282353 0.231373 0.94902 0.282353 0.231373 
0.94902 0.282353 0.231373 0.94902 0.282353 0.231373 
0.94902 0.282353 0.231373 0.94902 0.282353 0.231373 
0.94902 0.282353 0.231373 0.94902 0.282353 0.231373 
0.94902 0.282353 0.231373 0.94902 0.282353 0.231373 
0.94902 0.282353 0.231373 0.94902 0.282353 0.231373 
0.94902 0.282353 0.231373 0.94902 0.282353 0.231373 
0.94902 0.282353 0.231373 0.94902 0.282353 0.231373 
0.94902 0.282353 0.231373 0.94902 0.282353 0.231373 
0.94902 0.282353 0.231373 0.94902 0.282353 0.231373 
0.94902 0.282353 0.231373 0.94902 0.282353 0.231373 
0.94902 0.282353 0.231373 0.94902 0.282353 0.231373 
0.94902 0.282353 0.231373 0.94902 0.282353 0.231373 
0.94902 0.282353 0.231373 0.94902 0.282353 0.231373 
0.94902 0.282353 0.231373 0.94902 0.282353 0.231373 
0.94902 0.282353 0.231373 0.94902 0.282353 0.231373 
0.94902 0.282353 0.231373 0.94902 0.282353 0.231373 
0.94902 0.282353 0.231373 0.94902 0.282353 0.231373 
0.94902 0.282353 0.231373 0.94902 0.282353 0.231373 
0.94902 0.282353 0.231373 0.94902 0.282353 0.231373 
0.94902 0.282353 0.231373 0.94902 0.282353 0.231373 
0.94902 0.282353 0.231373 0.94902 0.282353 0.231373 
0.94902 0.282353 0.231373 0.94902 0.282353 0.231373 
0.94902 0.282353 0.231373 0.94902 0.282353 0.231373 
0.94902 0.282353 0.231373 0.94902 0.282353 0.231373 
0.94902 0.282353 0.231373 0.94902 0.282353 0.231373 
0.94902 0.282353 0.231373 0.94902 0.282353 0.231373 
0.94902 0.282353 0.231373 0.94902 0.282353 0.231373 
0.94902 0.282353 0.231373 0.94902 0.282353 0.231373 
0.94902 0.282353 0.231373 0.94902 0.282353 0.231373 
0.94902 0.282353 0.231373 0.94902 0.282353 0.231373 
0.94902 0.282353 0.231373 0.94902 0.282353 0.231373 
0.94902 0.282353 0.231373 0.94902 0.282353 0.231373 
0.94902 0.282353 0.231373 0.94902 0.282353 0.231373 
0.94902 0.282353 0.231373 0.94902 0.282353 0.231373 
0.94902 0.282353 0.231373 0.94902 0.282353 0.231373 
0.94902 0.282353 0.231373 0.94902 0.282353 0.231373 
0.94902 0.282353 0.231373 0.94902 0.282353 0.231373 
0.94902 0.282353 0.231373 0.94902 0.282353 0.231373 
0.94902 0.282353 0.231373 0.94902 0.282353 0.231373 
0.94902 0.282353 0.231373 0.94902 0.282353 0.231373 
0.94902 0.282353 0.231373 0.94902 0.282353 0.231373 
0.94902 0.282353 0.231373 0.94902 0.282353 0.231373 
0.94902 0.282353 0.231373 0.94902 0.282353 0.231373 
0.94902 0.282353 0.231373 0.94902 0.282353 0.231373 
0.94902 0.282353 0.231373 0.94902 0.282353 0.231373 
0.94902 0.282353 0.231373 0.94902 0.282353 0.231373 
0.94902 0.282353 0.231373 0.94902 0.282353 0.231373 
0.94902 0.282353 0.231373 0.94902 0.282353 0.231373 
0.94902 0.282353 0.231373 0.94902 0.282353 0.231373 
0.94902 0.282353 0.231373 0.94902 0.282353 0.231373 
0.94902 0.282353 0.231373 0.94902 0.282353 0.231373 
0.94902 0.282353 0.231373 0.94902 0.282353 0.231373 
0.94902 0.282353 0.231373 0.94902 0.282353 0.231373 
0.94902 0.282353 0.231373 0.94902 0.282353 0.231373 
0.94902 0.282353 0.231373 0.94902 0.282353 0.231373 
0.94902 0.282353 0.231373 0.94902 0.282353 0.231373 
0.94902 0.282353 0.231373 0.94902 0.282353 0.231373 
0.94902 0.282353 0.231373 0.94902 0.282353 0.231373 
0.94902 0.282353 0.231373 0.94902 0.282353 0.231373 
0.94902 0.282353 0.231373 0.94902 0.282353 0.231373 
0.94902 0.282353 0.231373 0.94902 0.282353 0.231373 
0.94902 0.282353 0.231373 0.94902 0.282353 0.231373 
0.94902 0.282353 0.231373 0.94902 0.282353 0.231373 
0.94902 0.282353 0.231373 0.94902 0.282353 0.231373 
0.94902 0.282353 0.231373 0.94902 0.282353 0.231373 
0.94902 0.282353 0.231373 0.94902 0.282353 0.231373 
0.94902 0.282353 0.231373 0.94902 0.282353 0.231373 
0.94902 0.282353 0.231373 0.94902 0.282353 0.231373 
0.94902 0.282353 0.231373 0.94902 0.282353 0.231373 
0.94902 0.282353 0.231373 0.94902 0.282353 0.231373 
0.94902 0.282353 0.231373 0.94902 0.282353 0.231373 
0.94902 0.282353 0.231373 0.94902 0.282353 0.231373 
0.94902 0.282353 0.231373 0.94902 0.282353 0.231373 
0.94902 0.282353 0.231373 0.94902 0.282353 0.231373 
0.94902 0.282353 0.231373 0.94902 0.282353 0.231373 
0.94902 0.282353 0.231373 0.94902 0.282353 0.231373 
0.94902 0.282353 0.231373 0.94902 0.282353 0.231373 
0.94902 0.282353 0.231373 0.94902 0.282353 0.231373 
0.94902 0.282353 0.231373 0.94902 0.282353 0.231373 
0.94902 0.282353 0.231373 0.94902 0.282353 0.231373 
0.94902 0.282353 0.231373 0.94902 0.282353 0.231373 
0.94902 0.282353 0.231373 0.94902 0.282353 0.231373 
0.94902 0.282353 0.231373 0.94902 0.282353 0.231373 
0.94902 0.282353 0.231373 0.94902 0.282353 0.231373 
0.94902 0.282353 0.231373 0.94902 0.282353 0.231373 
0.94902 0.282353 0.231373 0.94902 0.282353 0.231373 
0.94902 0.282353 0.231373 0.94902 0.282353 0.231373 
0.94902 0.282353 0.231373 0.94902 0.282353 0.231373 
0.94902 0.282353 0.231373 0.94902 0.282353 0.231373 
0.94902 0.282353 0.231373 0.94902 0.282353 0.231373 
0.94902 0.282353 0.231373 0.94902 0.282353 0.231373 
0.94902 0.282353 0.231373 0.94902 0.282353 0.231373 
0.94902 0.282353 0.231373 0.94902 0.282353 0.231373 
0.94902 0.282353 0.231373 0.94902 0.282353 0.231373 
0.94902 0.282353 0.231373 0.94902 0.282353 0.231373 
0.94902 0.282353 0.231373 0.94902 0.282353 0.231373 
0.94902 0.282353 0.231373 0.94902 0.282353 0.231373 
0.94902 0.282353 0.231373 0.94902 0.282353 0.231373 
0.94902 0.282353 0.231373 0.94902 0.282353 0.231373 
0.94902 0.282353 0.231373 0.94902 0.282353 0.231373 
0.94902 0.282353 0.231373 0.94902 0.282353 0.231373 
0.94902 0.282353 0.231373 0.94902 0.282353 0.231373 
0.94902 0.282353 0.231373 0.94902 0.282353 0.231373 
0.94902 0.282353 0.231373 0.94902 0.282353 0.231373 
0.94902 0.282353 0.231373 0.94902 0.282353 0.231373 
0.94902 0.282353 0.231373 0.94902 0.282353 0.231373 
0.94902 0.282353 0.231373 0.94902 0.282353 0.231373 
0.94902 0.282353 0.231373 0.94902 0.282353 0.231373 
0.94902 0.282353 0.231373 0.94902 0.282353 0.231373 
0.94902 0.282353 0.231373 0.94902 0.282353 0.231373 
0.94902 0.282353 0.231373 0.94902 0.282353 0.231373 
0.94902 0.282353 0.231373 0.94902 0.282353 0.231373 
0.94902 0.282353 0.231373 0.94902 0.282353 0.231373 
0.94902 0.282353 0.231373 0.94902 0.282353 0.231373 
0.94902 0.282353 0.231373 0.94902 0.282353 0.231373 
0.94902 0.282353 0.231373 0.94902 0.282353 0.231373 
0.94902 0.282353 0.231373 0.94902 0.282353 0.231373 
0.94902 0.282353 0.231373 0.94902 0.282353 0.231373 
0.94902 0.282353 0.231373 0.94902 0.282353 0.231373 
0.94902 0.282353 0.231373 0.94902 0.282353 0.231373 
0.94902 0.282353 0.231373 0.94902 0.282353 0.231373 
0.94902 0.282353 0.231373 0.94902 0.282353 0.231373 
0.94902 0.282353 0.231373 0.94902 0.282353 0.231373 
0.94902 0.282353 0.231373 0.94902 0.282353 0.231373 
0.94902 0.282353 0.231373 0.94902 0.282353 0.231373 
0.94902 0.282353 0.231373 0.94902 0.282353 0.231373 
0.94902 0.282353 0.231373 0.94902 0.282353 0.231373 
0.94902 0.282353 0.231373 0.94902 0.282353 0.231373 
0.94902 0.282353 0.231373 0.94902 0.282353 0.231373 
0.94902 0.282353 0.231373 0.94902 0.282353 0.231373 
0.94902 0.282353 0.231373 0.94902 0.282353 0.231373 
0.94902 0.282353 0.231373 0.94902 0.282353 0.231373 
0.94902 0.282353 0.231373 0.94902 0.282353 0.231373 
0.94902 0.282353 0.231373 0.94902 0.282353 0.231373 
0.94902 0.282353 0.231373 0.94902 0.282353 0.231373 
0.94902 0.282353 0.231373 0.94902 0.282353 0.231373 
0.94902 0.282353 0.231373 0.94902 0.282353 0.231373 
0.94902 0.282353 0.231373 0.94902 0.282353 0.231373 
0.94902 0.282353 0.231373 0.94902 0.282353 0.231373 
0.94902 0.282353 0.231373 0.94902 0.282353 0.231373 
0.94902 0.282353 0.231373 0.94902 0.282353 0.231373 
0.94902 0.282353 0.231373 0.94902 0.282353 0.231373 
0.94902 0.282353 0.231373 0.94902 0.282353 0.231373 
0.94902 0.282353 0.231373 0.94902 0.282353 0.231373 
0.94902 0.282353 0.231373 0.94902 0.282353 0.231373 
0.94902 0.282353 0.231373 0.94902 0.282353 0.231373 
0.94902 0.282353 0.231373 0.94902 0.282353 0.231373 
0.94902 0.282353 0.231373 0.94902 0.282353 0.231373 
0.94902 0.282353 0.231373 0.94902 0.282353 0.231373 
0.94902 0.282353 0.231373 0.94902 0.282353 0.231373 
0.94902 0.282353 0.231373 0.94902 0.282353 0.231373 
0.94902 0.282353 0.231373 0.94902 0.282353 0.231373 
0.94902 0.282353 0.231373 0.94902 0.282353 0.231373 
0.94902 0.282353 0.231373 0.94902 0.282353 0.231373 
0.94902 0.282353 0.231373 0.94902 0.282353 0.231373 
0.94902 0.282353 0.231373 0.94902 0.282353 0.231373 
0.94902 0.282353 0.231373 0.94902 0.282353 0.231373 
0.94902 0.282353 0.231373 0.94902 0.282353 0.231373 
0.94902 0.282353 0.231373 0.94902 0.282353 0.231373 
0.94902 0.282353 0.231373 0.94902 0.282353 0.231373 
0.94902 0.282353 0.231373 0.94902 0.282353 0.231373 
0.94902 0.282353 0.231373 0.94902 0.282353 0.231373 
0.94902 0.282353 0.231373 0.94902 0.282353 0.231373 
0.94902 0.282353 0.231373 0.94902 0.282353 0.231373 
0.94902 0.282353 0.231373 0.94902 0.282353 0.231373 
0.94902 0.282353 0.231373 0.94902 0.282353 0.231373 
0.94902 0.282353 0.231373 0.94902 0.282353 0.231373 
0.94902 0.282353 0.231373 0.94902 0.282353 0.231373 
0.94902 0.282353 0.231373 0.94902 0.282353 0.231373 
0.94902 0.282353 0.231373 0.94902 0.282353 0.231373 
0.94902 0.282353 0.231373 0.94902 0.282353 0.231373 
0.94902 0.282353 0.231373 0.94902 0.282353 0.231373 
0.94902 0.282353 0.231373 0.94902 0.282353 0.231373 
0.94902 0.282353 0.231373 0.94902 0.282353 0.231373 
0.94902 0.282353 0.231373 0.94902 0.282353 0.231373 
0.94902 0.282353 0.231373 0.94902 0.282353 0.231373 
0.94902 0.282353 0.231373 0.94902 0.282353 0.231373 
0.94902 0.282353 0.231373 0.94902 0.282353 0.231373 
0.94902 0.282353 0.231373 0.94902 0.282353 0.231373 
0.94902 0.282353 0.231373 0.94902 0.282353 0.231373 
0.94902 0.282353 0.231373 0.94902 0.282353 0.231373 
0.94902 0.282353 0.231373 0.94902 0.282353 0.231373 
0.94902 0.282353 0.231373 0.94902 0.282353 0.231373 
0.94902 0.282353 0.231373 0.94902 0.282353 0.231373 
0.94902 0.282353 0.231373 0.94902 0.282353 0.231373 
0.94902 0.282353 0.231373 0.94902 0.282353 0.231373 
0.94902 0.282353 0.231373 0.94902 0.282353 0.231373 
0.94902 0.282353 0.231373 0.94902 0.282353 0.231373 
0.94902 0.282353 0.231373 0.94902 0.282353 0.231373 
0.94902 0.282353 0.231373 0.94902 0.282353 0.231373 
0.94902 0.282353 0.231373 0.94902 0.282353 0.231373 
0.94902 0.282353 0.231373 0.94902 0.282353 0.231373 
0.94902 0.282353 0.231373 0.94902 0.282353 0.231373 
0.94902 0.282353 0.231373 0.94902 0.282353 0.231373 
0.94902 0.282353 0.231373 0.94902 0.282353 0.231373 
0.94902 0.282353 0.231373 0.94902 0.282353 0.231373 
0.94902 0.282353 0.231373 0.94902 0.282353 0.231373 
0.94902 0.282353 0.231373 0.94902 0.282353 0.231373 
0.94902 0.282353 0.231373 0.94902 0.282353 0.231373 
0.94902 0.282353 0.231373 0.94902 0.282353 0.231373 
0.94902 0.282353 0.231373 0.94902 0.282353 0.231373 
0.94902 0.282353 0.231373 0.94902 0.282353 0.231373 
0.94902 0.282353 0.231373 0.94902 0.282353 0.231373 
0.94902 0.282353 0.231373 0.94902 0.282353 0.231373 
0.94902 0.282353 0.231373 0.94902 0.282353 0.231373 
0.94902 0.282353 0.231373 0.94902 0.282353 0.231373 
0.94902 0.282353 0.231373 0.94902 0.282353 0.231373 
0.94902 0.282353 0.231373 0.94902 0.282353 0.231373 
0.94902 0.282353 0.231373 0.94902 0.282353 0.231373 
0.94902 0.282353 0.231373 0.94902 0.282353 0.231373 
0.94902 0.282353 0.231373 0.94902 0.282353 0.231373 
0.94902 0.282353 0.231373 0.94902 0.282353 0.231373 
0.94902 0.282353 0.231373 0.94902 0.282353 0.231373 
0.94902 0.282353 0.231373 0.94902 0.282353 0.231373 
0.94902 0.282353 0.231373 0.94902 0.282353 0.231373 
0.94902 0.282353 0.231373 0.94902 0.282353 0.231373 
0.94902 0.282353 0.231373 0.94902 0.282353 0.231373 
0.94902 0.282353 0.231373 0.94902 0.282353 0.231373 
0.94902 0.282353 0.231373 0.94902 0.282353 0.231373 
0.94902 0.282353 0.231373 0.94902 0.282353 0.231373 
0.94902 0.282353 0.231373 0.94902 0.282353 0.231373 
0.94902 0.282353 0.231373 0.94902 0.282353 0.231373 
0.94902 0.282353 0.231373 0.94902 0.282353 0.231373 
0.94902 0.282353 0.231373 0.94902 0.282353 0.231373 
0.94902 0.282353 0.231373 0.94902 0.282353 0.231373 
0.94902 0.282353 0.231373 0.94902 0.282353 0.231373 
0.94902 0.282353 0.231373 0.94902 0.282353 0.231373 
0.94902 0.282353 0.231373 0.94902 0.282353 0.231373 
0.94902 0.282353 0.231373 0.94902 0.282353 0.231373 
0.94902 0.282353 0.231373 0.94902 0.282353 0.231373 
0.94902 0.282353 0.231373 0.94902 0.282353 0.231373 

NORMALS Normals float
-0.0937659 -0.406082 -0.909013 -0.14873 -0.392326 -0.907722 -0.0681845 -0.482033 -0.873496 
-0.0637804 -0.470069 -0.880322 0.0169045 -0.375297 -0.92675 0.17311 -0.165175 -0.970953 
0.198288 -0.31071 -0.929592 0.32554 -0.154139 -0.93288 -0.244183 -0.365423 -0.898243 