# vtk DataFile Version 4.2
vtk output
ASCII
DATASET POLYDATA
POINTS 2090 float
495.772 174.97 162.702 494.789 175.708 162.737 495.824 175.363 162.618 
495.711 176.48 162.583 495.345 177.29 162.704 495.091 177.417 162.92 
496.15 176.937 162.711 495.371 177.692 162.827 495.246 177.845 163.1 
496.136 177.625 162.817 495.556 178.014 162.947 495.79 178.089 162.876 
495.963 177.995 162.842 495.809 178.282 163.131 494.457 173.414 163.28 
494.325 172.758 163.593 495.336 174.197 162.837 494.502 175.846 162.973 
496.576 175.961 162.914 495.99 178.22 162.993 490.748 169.204 165.206 
490.908 169.228 165.214 490.804 169.326 165.191 491.709 169.902 164.895 
491.474 170.183 164.946 491.73 170.139 164.782 491.958 170.161 164.741 
492.927 170.997 164.43 492.444 171.372 164.504 493.821 171.559 164.108 
493.665 172.129 163.91 492.706 172.379 164.29 495.959 173.907 163.213 
494.255 175.972 163.304 494.248 176.354 163.54 490.421 169.098 165.552 
491.164 169.559 165.148 491.208 169.018 165.426 490.659 169.438 165.357 
492.377 170.516 164.65 491.285 170.707 165.241 494.32 171.096 164.438 
492.589 173.156 164.719 496.94 174.005 163.78 497.922 177.622 164.015 
498.236 177.892 164.412 488.637 167.321 166.687 488.267 167.301 166.863 
489.177 167.404 166.547 489.343 167.046 166.748 489.723 168.014 166.242 
489.931 168.766 165.976 491.972 172.484 165.313 499.376 176.628 165.445 
499.265 177.39 165.372 498.465 178.763 165.305 486.195 165.721 167.898 
486.426 165.81 167.78 486.726 165.809 167.749 487.943 166.707 167.22 
488.236 167.56 166.921 488.838 168.382 166.783 490.049 169.924 166.288 
490.176 170.312 166.469 491.44 171.815 165.695 498.212 172.27 166.024 
491.872 172.903 165.946 499.158 173.453 166.189 492.822 174.768 165.727 
499.44 178.343 165.883 499.879 178.148 166.265 488.036 165.053 168.308 
485.413 165.277 168.67 485.705 165.611 168.5 487.419 166.203 167.606 
487.107 166.734 167.881 488.009 167.628 167.28 493.667 167.808 167.56 
499.857 173.02 167.342 499.928 174.313 166.643 501.217 176.7 167.531 
485.119 164.35 169.105 484.952 165.007 169.299 486.477 166.439 168.322 
488.387 168.622 167.968 492.784 175.291 167.632 501.722 177.669 168.092 
501.13 179.223 168.189 497.558 180.151 167.868 498.388 180.258 168.113 
500.265 179.747 168.067 483.841 163.332 170.402 484.655 163.045 170.331 
486.09 163.095 170.025 483.659 163.417 170.514 483.655 163.629 170.598 
484.428 163.944 169.838 488.028 164.004 169.363 488.561 169.124 169.264 
502.776 176.952 169.101 501.835 178.782 168.475 496.804 180.177 168.798 
498.495 180.627 168.977 501.712 179.601 168.827 483.636 163.204 170.652 
483.763 162.621 171.133 485.648 166.151 170.135 503.364 175.915 169.916 
504.041 177.616 169.983 503.605 178.956 169.738 496.166 180.004 169.91 
503.828 180.187 170.22 502.851 180.797 170.247 484.032 162.238 171.432 
483.679 162.024 171.942 486.249 162.112 171.237 483.135 163.008 171.646 
483.154 163.143 171.745 483.51 163.756 171.306 505.889 176.848 171.413 
505.021 179.304 170.509 508.555 179.444 171.685 508.726 179.971 171.647 
498.309 181.301 171.053 499.832 181.674 171.119 500.579 181.632 170.931 
502.711 181.391 170.769 505.325 181.441 171.229 509.061 181.418 171.788 
484.177 161.371 172.523 485.356 161.232 172.429 483.332 161.908 172.479 
483.202 163.182 172.34 485.634 166.032 172.103 509.792 179.289 172.13 
523.13 180.71 172.446 523.952 180.072 172.816 510.83 181.377 172.052 
517.703 181.556 172.235 517.137 180.873 172.425 520.544 181.377 172.17 
524.538 180.488 173.005 511.866 182.175 172.204 512.874 181.139 172.29 
514.289 181.936 172.294 516.509 182.36 172.219 503.711 182.619 172.135 
508.533 182.834 172.262 510.378 182.78 172.291 523.264 182.434 172.381 
507.232 183.132 172.5 515.422 183.519 172.406 524.492 183.007 173.052 
523.7 183.809 172.747 483.039 161.426 173.491 483.854 161.268 172.87 
483 161.909 173.146 482.776 161.72 173.883 482.842 162.056 173.715 
504.103 173.549 172.427 505.314 173.962 173.389 524.903 178.185 174.087 
524.63 177.79 174.092 509.981 178.331 172.715 522.347 178.996 172.928 
521.821 178.479 173.159 512.306 179.209 172.924 514.378 179.902 172.812 
514.654 179.444 173.093 521.193 179.885 172.559 514.091 180.524 172.541 
509.46 183.939 173 513.83 184.039 172.699 524.968 183.361 173.551 
525.454 182.64 174.056 515.516 184.959 172.947 522.806 184.829 172.747 
524.428 184.638 173.383 524.925 184.22 173.702 514.819 185.419 173.341 
520.16 186.945 173.48 482.853 161.05 174.539 482.753 161.903 174.524 
483.352 163.237 173.739 511.152 177.106 174.338 522.201 177.228 173.893 
524.506 176.811 174.646 516.582 178.179 174.202 518.367 178.253 173.799 
525.617 178.448 174.931 525.911 182.073 174.81 525.704 185.578 175.261 
523.465 188.249 174.638 523.806 188.472 174.966 524.814 188.089 175.512 
483.116 160.491 175.092 482.729 160.472 175.975 482.749 161.106 175.253 
483.76 163.536 174.551 506.612 173.999 174.755 523.052 175.587 175.155 
521.194 175.9 175.031 524.161 176.289 174.85 524.72 175.785 175.543 
511.418 176.672 175.055 515.524 177.395 175.472 517.555 177.146 175.416 
495.506 180.078 174.954 502.713 184.087 175.376 526.162 183.264 175.611 
514.179 187.098 175.238 522.467 188.816 174.984 525.615 187.438 176.285 
521.917 189.702 175.92 524.335 189.226 176.271 487.066 158.908 176.638 
482.507 159.915 177.141 490.831 160.632 175.998 520.5 175.141 175.964 
524.814 175.452 175.928 525.086 175.125 176.582 519.3 175.569 176.383 
525.552 175.972 176.53 510.824 186.556 176.002 518.282 189.054 176.159 
523.293 190.105 176.736 482.561 159.452 177.549 518.938 174.084 177.952 
518.746 173.949 178.279 523.61 174.238 176.44 524.137 174.274 176.593 
524.748 173.844 177.361 519.04 174.608 177.72 519.502 174.831 176.953 
512.644 175.794 177.608 518.509 176.126 176.636 518.962 175.443 177.296 
517.194 176.682 177.331 518.124 176.387 177.575 525.777 188.674 178.139 
524.793 190.317 178.364 483.365 158.199 178.336 497.778 157.49 180.289 
497.739 157.397 180.342 497.879 157.486 180.305 497.863 157.576 180.337 
498.004 159.013 178.009 498.004 159.013 178.009 498.004 159.013 178.009 
498.004 159.013 178.009 482.32 159.693 178.499 482.369 160.035 178.11 
498.004 159.013 178.009 482.525 160.52 178.031 524.847 173.524 177.783 
518.657 173.846 178.55 518.952 174.664 178.383 519.102 175.286 178.273 
518.952 175.711 178.031 519.173 175.874 178.662 498.777 183.102 177.459 
524.361 191.371 179.454 484.933 157.037 179.979 497.817 157.258 180.416 
497.613 156.873 180.774 497.611 157.251 180.58 482.779 158.303 178.916 
483.105 158.144 178.692 483.562 157.503 179.574 497.62 157.455 180.698 
498.047 157.453 180.354 498.004 159.013 178.009 498.163 157.72 180.432 
500.224 158.981 180.377 482.271 159.494 179.312 500.602 159.292 180.352 
500.975 159.656 180.315 500.446 160.496 180.66 501.313 160.024 180.326 
500.742 160.726 180.617 501.687 161.111 180.452 502.046 161.575 180.574 
503.325 162.723 180.643 503.76 162.889 180.49 503.876 162.715 180.439 
486.719 165.469 178.291 503.933 163.417 180.741 505.466 164.424 180.814 
506.688 165.323 180.853 506.756 165.434 180.871 506.87 165.426 180.896 
507.004 167.013 179.009 507.004 167.013 179.009 507.004 167.013 179.009 
507.004 167.013 179.009 507.004 167.013 179.009 504.075 170.232 178.889 
517.223 172.001 179.952 517.197 172.002 180.002 517.194 172.026 179.937 
517.4 172.016 179.934 517.249 171.914 180.108 517.889 172.201 179.728 
517.518 171.773 180.064 518.693 172.327 179.166 518.142 171.678 179.755 
517.268 172.051 179.932 517.46 172.164 179.997 517.845 172.504 179.948 
518.369 172.959 179.415 518.691 173.954 178.726 518.618 173.573 179.618 
519.443 175.224 179.102 520.124 176.07 179.969 517.879 176.546 179.204 
526.427 187.452 179.44 525.436 190.674 180.268 496.816 155.821 181.686 
484.451 156.67 180.932 497.285 157.023 181.157 482.599 157.809 180.382 
483 157.571 180.068 499.029 157.628 180.658 498.96 158.218 180.581 
482.198 158.881 180.152 498.236 158.091 180.796 498.939 158.887 180.972 
500.43 158.959 180.401 500.729 158.91 180.543 501.222 159.705 180.348 
501.558 159.725 180.493 501.86 160.234 180.428 483.993 162.263 179.516 
502.743 162.002 180.611 501.476 161.633 181.072 504.082 162.733 180.45 
504.395 162.73 180.555 504.913 163.871 180.726 504.75 163.278 180.593 
506.51 164.975 180.883 505.736 164.845 181.135 506.381 165.302 181.17 
507.248 165.471 180.941 508.172 165.639 181.184 507.004 167.013 179.009 
507.218 165.708 181.131 507.701 165.81 181.023 509.004 168.013 180.009 
509.004 168.013 180.009 509.004 168.013 180.009 509.004 168.013 180.009 
509.004 168.013 180.009 516.248 170.964 181.158 517.509 171.16 180.337 
517.242 172.052 179.982 516.585 171.211 180.996 517.264 172.019 180.18 
517.083 171.672 180.686 517.539 172.311 180.468 520.313 175.136 180.61 
526.607 175.983 180.066 521.425 176.455 181.487 522.803 192.283 180.588 
524.786 191.817 180.925 524.494 192.164 181.203 496.5 154.639 182.287 
497.285 154.253 182.325 496.342 155.229 182.176 499.001 155.024 182.275 
496.081 155.387 182.379 496.388 155.899 182.144 482.783 157.392 180.861 
497.714 158.036 181.804 500.582 158.144 180.949 482.226 159.216 180.952 
499.552 160.001 181.433 501.431 161.949 181.948 504.288 161.988 180.766 
509.774 164.917 181.638 506.516 165.736 182.016 510.37 166.055 181.612 
508.068 166.092 181.463 508.637 166.792 182.157 511.235 166.827 181.713 
509.004 168.013 180.009 510.207 167.238 181.987 512.109 167.552 181.816 
510.551 167.717 182.289 517.028 168.499 181.489 516.157 169.893 181.282 
517.179 169.814 180.924 518.142 169.775 180.712 519.107 169.104 181.03 
515 170.111 181.988 516.165 170.957 181.308 515.743 170.591 181.703 
522.214 176.169 182.176 521.834 176.38 181.756 522.236 176.373 182.163 
519.726 176.712 181.329 526.313 189.34 181.551 525.85 190.854 181.964 
494.932 153.465 183.613 496.438 153.092 183.259 495.139 153.778 183.369 
495.436 154.28 183.107 497.626 154.184 182.398 496.062 155.999 182.844 
497.587 158.12 182.578 504.692 164.576 182.093 514.6 166.453 182.272 
[...]
POINT_DATA 2090
COLOR_SCALARS scalars 3
1 0.988235 0.568627 1 0.988235 0.568627 1 0.988235 0.568627 
1 0.988235 0.568627 1 0.988235 0.568627 
1 0.988235 0.568627 1 0.988235 0.568627 
1 0.988235 0.568627 1 0.988235 0.568627 
1 0.988235 0.568627 1 0.988235 0.568627 
1 0.988235 0.568627 1 0.988235 0.568627 
1 0.988235 0.568627 1 0.988235 0.568627 
1 0.988235 0.568627 1 0.988235 0.568627 
1 0.988235 0.568627 1 0.988235 0.568627 
1 0.988235 0.568627 1 0.988235 0.568627 
1 0.988235 0.568627 1 0.988235 0.568627 
1 0.988235 0.568627 1 0.988235 0.568627 
1 0.988235 0.568627 1 0.988235 0.568627 
1 0.988235 0.568627 1 0.988235 0.568627 
1 0.988235 0.568627 1 0.988235 0.568627 
1 0.988235 0.568627 1 0.988235 0.568627 
1 0.988235 0.568627 1 0.988235 0.568627 
1 0.988235 0.568627 1 0.988235 0.568627 
1 0.988235 0.568627 1 0.988235 0.568627 
1 0.988235 0.568627 1 0.988235 0.568627 
1 0.988235 0.568627 1 0.988235 0.568627 
1 0.988235 0.568627 1 0.988235 0.568627 
1 0.988235 0.568627 1 0.988235 0.568627 
1 0.988235 0.568627 1 0.988235 0.568627 
1 0.988235 0.568627 1 0.988235 0.568627 
1 0.988235 0.568627 1 0.988235 0.568627 
1 0.988235 0.568627 1 0.988235 0.568627 
1 0.988235 0.568627 1 0.988235 0.568627 
1 0.988235 0.568627 1 0.988235 0.568627 
1 0.988235 0.568627 1 0.988235 0.568627 
1 0.988235 0.568627 1 0.988235 0.568627 
1 0.988235 0.568627 1 0.988235 0.568627 
1 0.988235 0.568627 1 0.988235 0.568627 
1 0.988235 0.568627 1 0.988235 0.568627 
1 0.988235 0.568627 1 0.988235 0.568627 
1 0.988235 0.568627 1 0.988235 0.568627 
1 0.988235 0.568627 1 0.988235 0.568627 
1 0.988235 0.568627 1 0.988235 0.568627 
1 0.988235 0.568627 1 0.988235 0.568627 
1 0.988235 0.568627 1 0.988235 0.568627 
1 0.988235 0.568627 1 0.988235 0.568627 
1 0.988235 0.568627 1 0.988235 0.568627 
1 0.988235 0.568627 1 0.988235 0.568627 
1 0.988235 0.568627 1 0.988235 0.568627 
1 0.988235 0.568627 1 0.988235 0.568627 
1 0.988235 0.568627 1 0.988235 0.568627 
1 0.988235 0.568627 1 0.988235 0.568627 
1 0.988235 0.568627 1 0.988235 0.568627 
1 0.988235 0.568627 1 0.988235 0.568627 
1 0.988235 0.568627 1 0.988235 0.568627 
1 0.988235 0.568627 1 0.988235 0.568627 
1 0.988235 0.568627 1 0.988235 0.568627 
1 0.988235 0.568627 1 0.988235 0.568627 
1 0.988235 0.568627 1 0.988235 0.568627 
1 0.988235 0.568627 1 0.988235 0.568627 
1 0.988235 0.568627 1 0.988235 0.568627 
1 0.988235 0.568627 1 0.988235 0.568627 
1 0.988235 0.568627 1 0.988235 0.568627 
1 0.988235 0.568627 1 0.988235 0.568627 
1 0.988235 0.568627 1 0.988235 0.568627 
1 0.988235 0.568627 1 0.988235 0.568627 
1 0.988235 0.568627 1 0.988235 0.568627 
1 0.988235 0.568627 1 0.988235 0.568627 
1 0.988235 0.568627 1 0.988235 0.568627 
1 0.988235 0.568627 1 0.988235 0.568627 
1 0.988235 0.568627 1 0.988235 0.568627 
1 0.988235 0.568627 1 0.988235 0.568627 
1 0.988235 0.568627 1 0.988235 0.568627 
1 0.988235 0.568627 1 0.988235 0.568627 
1 0.988235 0.568627 1 0.988235 0.568627 
1 0.988235 0.568627 1 0.988235 0.568627 
1 0.988235 0.568627 1 0.988235 0.568627 
1 0.988235 0.568627 1 0.988235 0.568627 
1 0.988235 0.568627 1 0.988235 0.568627 
1 0.988235 0.568627 1 0.988235 0.568627 
1 0.988235 0.568627 1 0.988235 0.568627 
1 0.988235 0.568627 1 0.988235 0.568627 
1 0.988235 0.568627 1 0.988235 0.568627 
1 0.988235 0.568627 1 0.988235 0.568627 
1 0.988235 0.568627 1 0.988235 0.568627 
1 0.988235 0.568627 1 0.988235 0.568627 
1 0.988235 0.568627 1 0.988235 0.568627 
1 0.988235 0.568627 1 0.988235 0.568627 
1 0.988235 0.568627 1 0.988235 0.568627 
1 0.988235 0.568627 1 0.988235 0.568627 
1 0.988235 0.568627 1 0.988235 0.568627 
1 0.988235 0.568627 1 0.988235 0.568627 
1 0.988235 0.568627 1 0.988235 0.568627 
1 0.988235 0.568627 1 0.988235 0.568627 
1 0.988235 0.568627 1 0.988235 0.568627 
1 0.988235 0.568627 1 0.988235 0.568627 
1 0.988235 0.568627 1 0.988235 0.568627 
1 0.988235 0.568627 1 0.988235 0.568627 
1 0.988235 0.568627 1 0.988235 0.568627 
1 0.988235 0.568627 1 0.988235 0.568627 
1 0.988235 0.568627 1 0.988235 0.568627 
1 0.988235 0.568627 1 0.988235 0.568627 
1 0.988235 0.568627 1 0.988235 0.568627 
1 0.988235 0.568627 1 0.988235 0.568627 
1 0.988235 0.568627 1 0.988235 0.568627 
1 0.988235 0.568627 1 0.988235 0.568627 
1 0.988235 0.568627 1 0.988235 0.568627 
1 0.988235 0.568627 1 0.988235 0.568627 
1 0.988235 0.568627 1 0.988235 0.568627 
1 0.988235 0.568627 1 0.988235 0.568627 
1 0.988235 0.568627 1 0.988235 0.568627 
1 0.988235 0.568627 1 0.988235 0.568627 
1 0.988235 0.568627 1 0.988235 0.568627 
1 0.988235 0.568627 1 0.988235 0.568627 
1 0.988235 0.568627 1 0.988235 0.568627 
1 0.988235 0.568627 1 0.988235 0.568627 
1 0.988235 0.568627 1 0.988235 0.568627 
1 0.988235 0.568627 1 0.988235 0.568627 
1 0.988235 0.568627 1 0.988235 0.568627 
1 0.988235 0.568627 1 0.988235 0.568627 
1 0.988235 0.568627 1 0.988235 0.568627 
1 0.988235 0.568627 1 0.988235 0.568627 
1 0.988235 0.568627 1 0.988235 0.568627 
1 0.988235 0.568627 1 0.988235 0.568627 
1 0.988235 0.568627 1 0.988235 0.568627 
1 0.988235 0.568627 1 0.988235 0.568627 
1 0.988235 0.568627 1 0.988235 0.568627 
1 0.988235 0.568627 1 0.988235 0.568627 
1 0.988235 0.568627 1 0.988235 0.568627 
1 0.988235 0.568627 1 0.988235 0.568627 
1 0.988235 0.568627 1 0.988235 0.568627 
1 0.988235 0.568627 1 0.988235 0.568627 
1 0.988235 0.568627 1 0.988235 0.568627 
1 0.988235 0.568627 1 0.988235 0.568627 
1 0.988235 0.568627 1 0.988235 0.568627 
1 0.988235 0.568627 1 0.988235 0.568627 
1 0.988235 0.568627 1 0.988235 0.568627 
1 0.988235 0.568627 1 0.988235 0.568627 
1 0.988235 0.568627 1 0.988235 0.568627 
1 0.988235 0.568627 1 0.988235 0.568627 
1 0.988235 0.568627 1 0.988235 0.568627 
1 0.988235 0.568627 1 0.988235 0.568627 
1 0.988235 0.568627 1 0.988235 0.568627 
1 0.988235 0.568627 1 0.988235 0.568627 
1 0.988235 0.568627 1 0.988235 0.568627 
1 0.988235 0.568627 1 0.988235 0.568627 
1 0.988235 0.568627 1 0.988235 0.568627 
1 0.988235 0.568627 1 0.988235 0.568627 
1 0.988235 0.568627 1 0.988235 0.568627 
1 0.988235 0.568627 1 0.988235 0.568627 
1 0.988235 0.568627 1 0.988235 0.568627 
1 0.988235 0.568627 1 0.988235 0.568627 
1 0.988235 0.568627 1 0.988235 0.568627 
1 0.988235 0.568627 1 0.988235 0.568627 
1 0.988235 0.568627 1 0.988235 0.568627 
1 0.988235 0.568627 1 0.988235 0.568627 
1 0.988235 0.568627 1 0.988235 0.568627 
1 0.988235 0.568627 1 0.988235 0.568627 
1 0.988235 0.568627 1 0.988235 0.568627 
1 0.988235 0.568627 1 0.988235 0.568627 
1 0.988235 0.568627 1 0.988235 0.568627 
1 0.988235 0.568627 1 0.988235 0.568627 
1 0.988235 0.568627 1 0.988235 0.568627 
1 0.988235 0.568627 1 0.988235 0.568627 
1 0.988235 0.568627 1 0.988235 0.568627 
1 0.988235 0.568627 1 0.988235 0.568627 
1 0.988235 0.568627 1 0.988235 0.568627 
1 0.988235 0.568627 1 0.988235 0.568627 
1 0.988235 0.568627 1 0.988235 0.568627 
1 0.988235 0.568627 1 0.988235 0.568627 
1 0.988235 0.568627 1 0.988235 0.568627 
1 0.988235 0.568627 1 0.988235 0.568627 
1 0.988235 0.568627 1 0.988235 0.568627 
1 0.988235 0.568627 1 0.988235 0.568627 
1 0.988235 0.568627 1 0.988235 0.568627 
1 0.988235 0.568627 1 0.988235 0.568627 
1 0.988235 0.568627 1 0.988235 0.568627 
1 0.988235 0.568627 1 0.988235 0.568627 
1 0.988235 0.568627 1 0.988235 0.568627 
1 0.988235 0.568627 1 0.988235 0.568627 
1 0.988235 0.568627 1 0.988235 0.568627 
1 0.988235 0.568627 1 0.988235 0.568627 
1 0.988235 0.568627 1 0.988235 0.568627 
1 0.988235 0.568627 1 0.988235 0.568627 
1 0.988235 0.568627 1 0.988235 0.568627 
1 0.988235 0.568627 1 0.988235 0.568627 
1 0.988235 0.568627 1 0.988235 0.568627 
1 0.988235 0.568627 1 0.988235 0.568627 
1 0.988235 0.568627 1 0.988235 0.568627 
1 0.988235 0.568627 1 0.988235 0.568627 
1 0.988235 0.568627 1 0.988235 0.568627 
1 0.988235 0.568627 1 0.988235 0.568627 
1 0.988235 0.568627 1 0.988235 0.568627 
1 0.988235 0.568627 1 0.988235 0.568627 
1 0.988235 0.568627 1 0.988235 0.568627 
1 0.988235 0.568627 1 0.988235 0.568627 
1 0.988235 0.568627 1 0.988235 0.568627 
1 0.988235 0.568627 1 0.988235 0.568627 
1 0.988235 0.568627 1 0.988235 0.568627 
1 0.988235 0.568627 1 0.988235 0.568627 
1 0.988235 0.568627 1 0.988235 0.568627 
1 0.988235 0.568627 1 0.988235 0.568627 
1 0.988235 0.568627 1 0.988235 0.568627 
1 0.988235 0.568627 1 0.988235 0.568627 
1 0.988235 0.568627 1 0.988235 0.568627 
1 0.988235 0.568627 1 0.988235 0.568627 
1 0.988235 0.568627 1 0.988235 0.568627 
1 0.988235 0.568627 1 0.988235 0.568627 
1 0.988235 0.568627 1 0.988235 0.568627 
1 0.988235 0.568627 1 0.988235 0.568627 
1 0.988235 0.568627 1 0.988235 0.568627 
1 0.988235 0.568627 1 0.988235 0.568627 
1 0.988235 0.568627 1 0.988235 0.568627 
1 0.988235 0.568627 1 0.988235 0.568627 
1 0.988235 0.568627 1 0.988235 0.568627 
1 0.988235 0.568627 1 0.988235 0.568627 
1 0.988235 0.568627 1 0.988235 0.568627 
1 0.988235 0.568627 1 0.988235 0.568627 
1 0.988235 0.568627 1 0.988235 0.568627 
1 0.988235 0.568627 1 0.988235 0.568627 
1 0.988235 0.568627 1 0.988235 0.568627 
1 0.988235 0.568627 1 0.988235 0.568627 
1 0.988235 0.568627 1 0.988235 0.568627 
1 0.988235 0.568627 1 0.988235 0.568627 
1 0.988235 0.568627 1 0.988235 0.568627 
1 0.988235 0.568627 1 0.988235 0.568627 
1 0.988235 0.568627 1 0.988235 0.568627 
1 0.988235 0.568627 1 0.988235 0.568627 
1 0.988235 0.568627 1 0.988235 0.568627 
1 0.988235 0.568627 1 0.988235 0.568627 
1 0.988235 0.568627 1 0.988235 0.568627 
1 0.988235 0.568627 1 0.988235 0.568627 
1 0.988235 0.568627 1 0.988235 0.568627 
1 0.988235 0.568627 1 0.988235 0.568627 
1 0.988235 0.568627 1 0.988235 0.568627 
1 0.988235 0.568627 1 0.988235 0.568627 
1 0.988235 0.568627 1 0.988235 0.568627 
1 0.988235 0.568627 1 0.988235 0.568627 
1 0.988235 0.568627 1 0.988235 0.568627 
1 0.988235 0.568627 1 0.988235 0.568627 
1 0.988235 0.568627 1 0.988235 0.568627 
1 0.988235 0.568627 1 0.988235 0.568627 
1 0.988235 0.568627 1 0.988235 0.568627 
1 0.988235 0.568627 1 0.988235 0.568627 
1 0.988235 0.568627 1 0.988235 0.568627 
1 0.988235 0.568627 1 0.988235 0.568627 
1 0.988235 0.568627 1 0.988235 0.568627 
1 0.988235 0.568627 1 0.988235 0.568627 
1 0.988235 0.568627 1 0.988235 0.568627 
1 0.988235 0.568627 1 0.988235 0.568627 
1 0.988235 0.568627 1 0.988235 0.568627 
1 0.988235 0.568627 1 0.988235 0.568627 
1 0.988235 0.568627 1 0.988235 0.568627 
1 0.988235 0.568627 1 0.988235 0.568627 
1 0.988235 0.568627 1 0.988235 0.568627 
1 0.988235 0.568627 1 0.988235 0.568627 
1 0.988235 0.568627 1 0.988235 0.568627 
1 0.988235 0.568627 1 0.988235 0.568627 
1 0.988235 0.568627 1 0.988235 0.568627 
1 0.988235 0.568627 1 0.988235 0.568627 
1 0.988235 0.568627 1 0.988235 0.568627 
1 0.988235 0.568627 1 0.988235 0.568627 
1 0.988235 0.568627 1 0.988235 0.568627 
1 0.988235 0.568627 1 0.988235 0.568627 
1 0.988235 0.568627 1 0.988235 0.568627 
1 0.988235 0.568627 1 0.988235 0.568627 
1 0.988235 0.568627 1 0.988235 0.568627 
1 0.988235 0.568627 1 0.988235 0.568627 
1 0.988235 0.568627 1 0.988235 0.568627 
1 0.988235 0.568627 1 0.988235 0.568627 
1 0.988235 0.568627 1 0.988235 0.568627 
1 0.988235 0.568627 1 0.988235 0.568627 
1 0.988235 0.568627 1 0.988235 0.568627 
1 0.988235 0.568627 1 0.988235 0.568627 
1 0.988235 0.568627 1 0.988235 0.568627 
1 0.988235 0.568627 1 0.988235 0.568627 
1 0.988235 0.568627 1 0.988235 0.568627 
1 0.988235 0.568627 1 0.988235 0.568627 
1 0.988235 0.568627 1 0.988235 0.568627 
1 0.988235 0.568627 1 0.988235 0.568627 
1 0.988235 0.568627 1 0.988235 0.568627 
1 0.988235 0.568627 1 0.988235 0.568627 
1 0.988235 0.568627 1 0.988235 0.568627 
1 0.988235 0.568627 1 0.988235 0.568627 
1 0.988235 0.568627 1 0.988235 0.568627 
1 0.988235 0.568627 1 0.988235 0.568627 
1 0.988235 0.568627 1 0.988235 0.568627 
1 0.988235 0.568627 1 0.988235 0.568627 
1 0.988235 0.568627 1 0.988235 0.568627 
1 0.988235 0.568627 1 0.988235 0.568627 
1 0.988235 0.568627 1 0.988235 0.568627 
1 0.988235 0.568627 1 0.988235 0.568627 
1 0.988235 0.568627 1 0.988235 0.568627 
1 0.988235 0.568627 1 0.988235 0.568627 
1 0.988235 0.568627 1 0.988235 0.568627 
1 0.988235 0.568627 1 0.988235 0.568627 
1 0.988235 0.568627 1 0.988235 0.568627 
1 0.988235 0.568627 1 0.988235 0.568627 
1 0.988235 0.568627 1 0.988235 0.568627 
1 0.988235 0.568627 1 0.988235 0.568627 
1 0.988235 0.568627 1 0.988235 0.568627 
1 0.988235 0.568627 1 0.988235 0.568627 
1 0.988235 0.568627 1 0.988235 0.568627 
1 0.988235 0.568627 1 0.988235 0.568627 
1 0.988235 0.568627 1 0.988235 0.568627 
1 0.988235 0.568627 1 0.988235 0.568627 
1 0.988235 0.568627 1 0.988235 0.568627 
1 0.988235 0.568627 1 0.988235 0.568627 
1 0.988235 0.568627 1 0.988235 0.568627 
1 0.988235 0.568627 1 0.988235 0.568627 
1 0.988235 0.568627 1 0.988235 0.568627 
1 0.988235 0.568627 1 0.988235 0.568627 
1 0.988235 0.568627 1 0.988235 0.568627 
1 0.988235 0.568627 1 0.988235 0.568627 
1 0.988235 0.568627 1 0.988235 0.568627 
1 0.988235 0.568627 1 0.988235 0.568627 
1 0.988235 0.568627 1 0.988235 0.568627 
1 0.988235 0.568627 1 0.988235 0.568627 
1 0.988235 0.568627 1 0.988235 0.568627 
1 0.988235 0.568627 1 0.988235 0.568627 
1 0.988235 0.568627 1 0.988235 0.568627 
1 0.988235 0.568627 1 0.988235 0.568627 
1 0.988235 0.568627 1 0.988235 0.568627 
1 0.988235 0.568627 1 0.988235 0.568627 
1 0.988235 0.568627 1 0.988235 0.568627 
1 0.988235 0.568627 1 0.988235 0.568627 
1 0.988235 0.568627 1 0.988235 0.568627 
1 0.988235 0.568627 1 0.988235 0.568627 
1 0.988235 0.568627 1 0.988235 0.568627 
1 0.988235 0.568627 1 0.988235 0.568627 
1 0.988235 0.568627 1 0.988235 0.568627 
1 0.988235 0.568627 1 0.988235 0.568627 
1 0.988235 0.568627 1 0.988235 0.568627 
1 0.988235 0.568627 1 0.988235 0.568627 
1 0.988235 0.568627 1 0.988235 0.568627 
1 0.988235 0.568627 1 0.988235 0.568627 
1 0.988235 0.568627 1 0.988235 0.568627 
1 0.988235 0.568627 1 0.988235 0.568627 
1 0.988235 0.568627 1 0.988235 0.568627 
1 0.988235 0.568627 1 0.988235 0.568627 
1 0.988235 0.568627 1 0.988235 0.568627 
1 0.988235 0.568627 1 0.988235 0.568627 
1 0.988235 0.568627 1 0.988235 0.568627 
1 0.988235 0.568627 1 0.988235 0.568627 
1 0.988235 0.568627 1 0.988235 0.568627 
1 0.988235 0.568627 1 0.988235 0.568627 
1 0.988235 0.568627 1 0.988235 0.568627 
1 0.988235 0.568627 1 0.988235 0.568627 
1 0.988235 0.568627 1 0.988235 0.568627 
1 0.988235 0.568627 1 0.988235 0.568627 
1 0.988235 0.568627 1 0.988235 0.568627 
1 0.988235 0.568627 1 0.988235 0.568627 
1 0.988235 0.568627 1 0.988235 0.568627 
1 0.988235 0.568627 1 0.988235 0.568627 
1 0.988235 0.568627 1 0.988235 0.568627 
1 0.988235 0.568627 1 0.988235 0.568627 
1 0.988235 0.568627 1 0.988235 0.568627 
1 0.988235 0.568627 1 0.988235 0.568627 
1 0.988235 0.568627 1 0.988235 0.568627 
1 0.988235 0.568627 1 0.988235 0.568627 
1 0.988235 0.568627 1 0.988235 0.568627 
1 0.988235 0.568627 1 0.988235 0.568627 
1 0.988235 0.568627 1 0.988235 0.568627 
1 0.988235 0.568627 1 0.988235 0.568627 
1 0.988235 0.568627 1 0.988235 0.568627 
1 0.988235 0.568627 1 0.988235 0.568627 
1 0.988235 0.568627 1 0.988235 0.568627 
1 0.988235 0.568627 1 0.988235 0.568627 
1 0.988235 0.568627 1 0.988235 0.568627 
1 0.988235 0.568627 1 0.988235 0.568627 
1 0.988235 0.568627 1 0.988235 0.568627 
1 0.988235 0.568627 1 0.988235 0.568627 
1 0.988235 0.568627 1 0.988235 0.568627 
1 0.988235 0.568627 1 0.988235 0.568627 
1 0.988235 0.568627 1 0.988235 0.568627 
1 0.988235 0.568627 1 0.988235 0.568627 
1 0.988235 0.568627 1 0.988235 0.568627 
1 0.988235 0.568627 1 0.988235 0.568627 
1 0.988235 0.568627 1 0.988235 0.568627 
1 0.988235 0.568627 1 0.988235 0.568627 
1 0.988235 0.568627 1 0.988235 0.568627 
1 0.988235 0.568627 1 0.988235 0.568627 
1 0.988235 0.568627 1 0.988235 0.568627 
1 0.988235 0.568627 1 0.988235 0.568627 
1 0.988235 0.568627 1 0.988235 0.568627 
1 0.988235 0.568627 1 0.988235 0.568627 
1 0.988235 0.568627 1 0.988235 0.568627 
1 0.988235 0.568627 1 0.988235 0.568627 
1 0.988235 0.568627 1 0.988235 0.568627 
1 0.988235 0.568627 1 0.988235 0.568627 
1 0.988235 0.568627 1 0.988235 0.568627 
1 0.988235 0.568627 1 0.988235 0.568627 
1 0.988235 0.568627 1 0.988235 0.568627 
1 0.988235 0.568627 1 0.988235 0.568627 
1 0.988235 0.568627 1 0.988235 0.568627 
1 0.988235 0.568627 1 0.988235 0.568627 
1 0.988235 0.568627 1 0.988235 0.568627 
1 0.988235 0.568627 1 0.988235 0.568627 
1 0.988235 0.568627 1 0.988235 0.568627 
1 0.988235 0.568627 1 0.988235 0.568627 
1 0.988235 0.568627 1 0.988235 0.568627 
1 0.988235 0.568627 1 0.988235 0.568627 
1 0.988235 0.568627 1 0.988235 0.568627 
1 0.988235 0.568627 1 0.988235 0.568627 
1 0.988235 0.568627 1 0.988235 0.568627 
1 0.988235 0.568627 1 0.988235 0.568627 
1 0.988235 0.568627 1 0.988235 0.568627 
1 0.988235 0.568627 1 0.988235 0.568627 
1 0.988235 0.568627 1 0.988235 0.568627 
1 0.988235 0.568627 1 0.988235 0.568627 
1 0.988235 0.568627 1 0.988235 0.568627 
1 0.988235 0.568627 1 0.988235 0.568627 
1 0.988235 0.568627 1 0.988235 0.568627 
1 0.988235 0.568627 1 0.988235 0.568627 
1 0.988235 0.568627 1 0.988235 0.568627 
1 0.988235 0.568627 1 0.988235 0.568627 
1 0.988235 0.568627 1 0.988235 0.568627 
1 0.988235 0.568627 1 0.988235 0.568627 
1 0.988235 0.568627 1 0.988235 0.568627 
1 0.988235 0.568627 1 0.988235 0.568627 
1 0.988235 0.568627 1 0.988235 0.568627 
1 0.988235 0.568627 1 0.988235 0.568627 
1 0.988235 0.568627 1 0.988235 0.568627 
1 0.988235 0.568627 1 0.988235 0.568627 
1 0.988235 0.568627 1 0.988235 0.568627 
1 0.988235 0.568627 1 0.988235 0.568627 
1 0.988235 0.568627 1 0.988235 0.568627 
1 0.988235 0.568627 1 0.988235 0.568627 
1 0.988235 0.568627 1 0.988235 0.568627 
1 0.988235 0.568627 1 0.988235 0.568627 
1 0.988235 0.568627 1 0.988235 0.568627 
1 0.988235 0.568627 1 0.988235 0.568627 
1 0.988235 0.568627 1 0.988235 0.568627 
1 0.988235 0.568627 1 0.988235 0.568627 
1 0.988235 0.568627 1 0.988235 0.568627 
1 0.988235 0.568627 1 0.988235 0.568627 
1 0.988235 0.568627 1 0.988235 0.568627 
1 0.988235 0.568627 1 0.988235 0.568627 
1 0.988235 0.568627 1 0.988235 0.568627 
1 0.988235 0.568627 1 0.988235 0.568627 
1 0.988235 0.568627 1 0.988235 0.568627 
1 0.988235 0.568627 1 0.988235 0.568627 
1 0.988235 0.568627 1 0.988235 0.568627 
1 0.988235 0.568627 1 0.988235 0.568627 
1 0.988235 0.568627 1 0.988235 0.568627 
1 0.988235 0.568627 1 0.988235 0.568627 
1 0.988235 0.568627 1 0.988235 0.568627 
1 0.988235 0.568627 1 0.988235 0.568627 
1 0.988235 0.568627 1 0.988235 0.568627 
1 0.988235 0.568627 1 0.988235 0.568627 
1 0.988235 0.568627 1 0.988235 0.568627 
1 0.988235 0.568627 1 0.988235 0.568627 
1 0.988235 0.568627 1 0.988235 0.568627 
1 0.988235 0.568627 1 0.988235 0.568627 
1 0.988235 0.568627 1 0.988235 0.568627 
1 0.988235 0.568627 1 0.988235 0.568627 
1 0.988235 0.568627 1 0.988235 0.568627 
1 0.988235 0.568627 1 0.988235 0.568627 
1 0.988235 0.568627 1 0.988235 0.568627 
1 0.988235 0.568627 1 0.988235 0.568627 
1 0.988235 0.568627 1 0.988235 0.568627 
1 0.988235 0.568627 1 0.988235 0.568627 
1 0.988235 0.568627 1 0.988235 0.568627 
1 0.988235 0.568627 1 0.988235 0.568627 
1 0.988235 0.568627 1 0.988235 0.568627 
1 0.988235 0.568627 1 0.988235 0.568627 
1 0.988235 0.568627 1 0.988235 0.568627 
1 0.988235 0.568627 1 0.988235 0.568627 
1 0.988235 0.568627 1 0.988235 0.568627 
1 0.988235 0.568627 1 0.988235 0.568627 
1 0.988235 0.568627 1 0.988235 0.568627 
1 0.988235 0.568627 1 0.988235 0.568627 
1 0.988235 0.568627 1 0.988235 0.568627 
1 0.988235 0.568627 1 0.988235 0.568627 
1 0.988235 0.568627 1 0.988235 0.568627 
1 0.988235 0.568627 1 0.988235 0.568627 
1 0.988235 0.568627 1 0.988235 0.568627 
1 0.988235 0.568627 1 0.988235 0.568627 
1 0.988235 0.568627 1 0.988235 0.568627 
1 0.988235 0.568627 1 0.988235 0.568627 
1 0.988235 0.568627 1 0.988235 0.568627 
1 0.988235 0.568627 1 0.988235 0.568627 
1 0.988235 0.568627 1 0.988235 0.568627 
1 0.988235 0.568627 1 0.988235 0.568627 
1 0.988235 0.568627 1 0.988235 0.568627 
1 0.988235 0.568627 1 0.988235 0.568627 
1 0.988235 0.568627 1 0.988235 0.568627 
1 0.988235 0.568627 1 0.988235 0.568627 
1 0.988235 0.568627 1 0.988235 0.568627 
1 0.988235 0.568627 1 0.988235 0.568627 
1 0.988235 0.568627 1 0.988235 0.568627 