# vtk DataFile Version 4.2
vtk output
ASCII
DATASET POLYDATA
POINTS 1560 float
261.088 152.847 160.908 261.064 152.771 160.974 261.044 152.89 160.978 
261.107 152.897 160.964 261.297 193.491 160.267 261.224 193.433 160.341 
261.251 193.555 160.302 261.417 193.447 160.354 261.346 193.536 160.267 
263.773 195.044 160.064 263.731 194.943 160.132 263.689 195.026 160.064 
263.956 195.065 160.158 263.734 195.124 160.104 264.591 195.601 160.158 
264.476 195.714 160.151 264.656 195.72 160.128 264.821 195.689 160.192 
267.428 197.215 160.01 268.933 197.992 160.129 269.038 197.874 160.205 
269.226 198.105 160.253 268.844 198.108 160.147 261.08 152.571 161.166 
260.974 152.714 161.16 261.077 152.994 161.062 260.941 153.039 161.22 
260.283 154.718 161.511 260.273 154.632 161.593 260.25 154.733 161.597 
261.091 153.156 161.283 260.321 154.683 161.533 260.312 154.728 161.562 
259.235 191.733 161.049 259.21 191.656 161.093 259.176 191.759 161.089 
259.315 191.696 161.087 259.28 191.8 161.083 261.192 193.212 160.544 
261.019 193.466 160.468 261.463 193.655 160.326 261.796 193.566 160.451 
261.761 193.817 160.384 262.202 193.878 160.498 261.876 194.077 160.448 
263.536 194.976 160.149 264.428 195.005 160.412 263.336 195.186 160.269 
264.14 195.421 160.206 266.387 196.999 160.293 268.086 197.485 160.139 
268.953 197.556 160.357 269.708 198.108 160.454 269.965 197.913 160.646 
267.866 198.13 160.22 260.703 153.193 161.489 261.305 153.232 161.701 
260.258 154.323 161.718 260.118 154.64 161.846 260.437 154.563 161.694 
260.923 153.524 161.544 260.291 154.831 161.755 257.214 189.644 161.566 
257.379 189.733 161.514 257.559 189.784 161.522 258.338 190.363 161.486 
258.264 190.61 161.406 259.025 191.59 161.195 259.346 191.474 161.228 
259.545 191.793 161.159 259.177 191.991 161.207 260.835 192.827 160.839 
260.645 193.41 160.692 262.631 194.537 160.463 261.993 194.942 160.704 
263.349 194.301 160.588 263.146 195.598 160.454 266.129 196.269 160.472 
264.518 196.549 160.51 265.483 196.779 160.42 266.579 197.888 160.429 
271.931 198.792 161.533 260.595 152.149 161.926 260.46 153.746 161.699 
260.76 154.127 161.747 260.171 155.041 162.021 260.481 155.141 162.13 
259.467 156.297 162.948 253.514 186.259 162.782 253.759 186.421 162.737 
255.999 187.667 162.232 255.983 188.071 162.166 255.394 188.804 162.364 
257.062 189.283 161.697 256.902 189.701 161.693 256.477 190.069 162.01 
257.88 190.08 161.519 257.348 190.69 161.629 258.841 191.091 161.364 
257.673 191.167 161.617 258.462 191.534 161.396 260.147 192.283 161.131 
259.486 192.844 161.256 266.386 194.856 161.52 269.087 196.569 161.258 
269.745 196.826 161.344 270.334 197.019 161.531 265.679 198.679 161.417 
273.861 199.252 162.703 273.17 199.642 162.369 273.557 199.563 162.563 
271.312 199.965 162.044 261.077 149.584 163.363 260.98 149.219 163.621 
261.194 149.201 163.663 261.012 150.049 163.08 261.522 151.25 162.482 
260.116 152.784 162.152 259.829 153.074 162.451 259.632 155.539 162.688 
259.952 155.956 162.692 259.976 156.438 162.965 251.206 181.88 163.541 
251.184 181.578 163.61 253.968 186.007 162.742 261.153 191.898 161.478 
259.551 194.875 162.143 274.52 199.089 163.151 274.024 199.746 163.026 
261.022 148.859 163.897 261.472 149.169 163.88 260.136 150.471 163.35 
260 151.176 163.04 259.986 151.793 162.733 260.918 155.838 163.069 
261.188 155.959 163.54 260.276 156.747 163.319 259.236 157.738 164.116 
258.464 159.211 164.921 248.608 177.516 164.413 255.063 185.139 163.021 
259.284 189.268 162.348 255.181 189.828 162.886 274.165 198.49 163.041 
274.751 198.867 163.425 275.254 198.918 163.974 264.613 199.725 163.213 
274.635 199.598 163.412 268.253 200.994 163.586 270.565 200.802 163.04 
261.495 148.521 164.454 261.662 148.952 164.283 262.044 149.998 164.492 
261.936 155.707 165.009 260.534 157.124 163.821 260.998 157.035 164.249 
258.219 157.948 164.837 260.546 157.803 164.427 247.048 173.199 165.4 
247.785 174.724 165.021 248.389 176.671 164.605 249.525 177.227 164.433 
249.399 181.074 164.472 250.56 182.932 164.062 253.962 183.12 163.482 
257.545 193.845 163.301 249 142.009 165.017 249 142.009 165.017 
249 142.009 165.017 249 142.009 165.017 249 142.009 165.017 
260.755 146.424 165.965 260.606 146.188 166.174 260.52 146.497 165.925 
260.076 147.91 165.111 261.563 147.501 165.703 248.244 156.208 166.763 
261.632 157.762 165.907 246.725 161.706 166.477 246.916 162.68 166.247 
246.181 166.053 166.338 247.986 168.736 165.621 246.725 170.354 165.792 
246.235 170.647 166.035 247.395 171.184 165.516 250.206 177.203 164.563 
253.428 189.945 165.132 276.716 199.649 165.787 268.898 201.758 165.239 
271.527 201.647 164.941 273.923 201.292 165.15 275.171 200.665 165.172 
272.991 201.621 165.569 249 142.009 165.017 249.609 144.743 167.346 
249.604 144.776 167.358 249.615 144.761 167.347 249.632 144.771 167.365 
249.621 144.847 167.383 249.608 144.91 167.43 249.709 144.908 167.443 
260.569 145.987 166.428 260.376 145.815 166.732 260.675 145.911 166.669 
249.671 145.115 167.497 261.346 146.979 165.904 249.311 149.041 167.526 
249.106 149.488 167.534 249.317 149.867 167.422 262.558 151.802 166.181 
257.741 153.273 165.442 248.264 155.625 166.907 247.939 155.589 167.077 
248.584 155.428 166.923 259.748 160.557 165.738 260.791 160.148 166.212 
258.285 161.212 165.967 258.682 161.225 165.978 259.343 161.084 165.992 
260.55 160.728 166.378 257.73 161.638 166.402 245.726 164.063 166.948 
249.09 168.289 165.77 245.557 171.437 166.635 249.531 183.671 165.601 
263.972 187.964 166.606 274.641 201.204 165.738 249.671 144.863 167.451 
249.569 145.163 167.568 249.795 145.069 167.69 249.937 145.031 167.641 
260.1 145.867 166.755 260.46 145.719 167.022 249.589 145.354 167.622 
249.779 145.728 167.671 249.488 145.959 167.964 250.097 145.764 167.704 
261.251 146.424 166.604 250.462 146.096 167.829 250.588 146.888 167.763 
248.743 149.611 167.734 250.036 151.733 167.317 248.784 153.282 167.37 
247.879 154.595 167.443 249.934 154.019 167.145 256.842 154.055 166.245 
256.759 156.39 166.115 245.046 163.946 167.813 260.026 162.938 167.457 
265.25 188.488 167.245 280 196.009 167.017 280 196.009 167.017 
280 196.009 167.017 280 196.009 167.017 258.583 197.128 166.036 
280 196.009 167.017 277.252 198.003 166.685 277.176 197.453 166.96 
259.881 198.695 167.243 277.699 198.968 167.372 277.693 198.567 167.236 
277.735 199.13 167.741 276.289 200.398 166.292 276.527 200.313 166.995 
249.568 145.336 167.686 250.386 145.127 167.872 250.231 145.043 167.804 
250.388 144.989 167.849 250.347 144.971 167.827 250.368 144.939 167.833 
259.374 145.484 167.762 259.292 145.504 167.724 259.644 145.628 167.365 
259.655 145.51 167.662 260.018 145.537 167.654 260.369 145.639 167.421 
249.028 146.577 168.548 249.834 145.646 168.3 250.675 145.646 168.124 
250.433 145.137 167.913 250.376 144.994 167.859 259.202 145.629 167.69 
258.796 145.93 167.925 248.83 147.042 168.477 248.309 148.583 168.469 
257.237 150.375 166.589 247.579 153.663 167.973 247.033 154.642 168.2 
251.759 154.869 167.301 255.745 155.16 166.866 256.253 155.76 166.53 
255.816 161.079 166.974 255.549 162.586 167.288 252.02 164.954 167.054 
252.632 164.59 167.239 249.322 185.742 167.813 255.996 194.885 167.498 
276.287 196.192 167.419 277.567 196.575 168.072 277.826 196.557 168.393 
280 196.009 167.017 278.022 196.965 168.182 258.521 197.656 167.417 
278.354 197.925 168.379 277.887 199.054 168.414 262.43 200.215 167.642 
275.627 200.835 167.715 263.99 201.134 168.122 270.423 202.062 167.79 
250.207 145.39 168.151 250.329 145.144 167.92 250.335 144.977 167.837 
259.195 145.573 167.821 259.328 145.572 167.97 260.23 145.63 167.912 
249.089 146.501 168.871 250.51 145.775 168.855 251.837 146.467 168.39 
251.723 146.012 168.996 252.903 146.443 168.866 252.714 146.085 169.396 
255.956 146.402 168.936 255.505 146.138 169.444 257.614 146.153 168.578 
259.206 145.697 168.559 253.71 147.029 168.542 254.666 146.975 168.602 
257.96 146.377 168.05 248.505 147.555 169.562 252.686 147.858 168.041 
255.249 147.512 168.248 256.868 147.241 167.951 255.586 148.882 167.707 
262.692 151.178 168.865 247.507 151.855 168.669 253.144 155.243 167.391 
254.516 154.645 167.292 255.151 155.378 167.09 253.852 158.003 167.294 
259.872 165.034 168.465 256.385 168.386 168.557 244.746 174.644 168.495 
268.541 189.764 169.129 254.149 192.9 168.53 255.626 194.645 168.895 
278.188 197.199 168.3 258.339 197.468 167.724 278.676 197.514 169.492 
258.831 197.942 168.321 278.248 198.577 168.945 278.54 198.017 169.378 
260.931 199.075 168.543 263.628 200.78 168.443 263.921 201.26 168.557 
263.89 201.324 168.547 263.874 201.301 168.533 263.886 201.191 168.463 
263.943 201.068 168.599 273.685 201.23 168.693 274.735 201.168 167.875 
263.918 201.309 168.506 264.115 201.278 168.384 264.913 201.295 168.377 
248.874 146.982 169.474 261.923 148.043 169.265 262.391 149.538 169.578 
256.025 195.122 168.994 278.096 196.191 169.586 278.459 196.512 169.668 
256.734 195.639 169.469 258.406 196.486 170.22 278.575 196.837 169.469 
278.564 198.043 170.157 264.178 199.502 170.162 276.256 199.972 169.721 
264.259 200.784 168.887 272.995 200.653 170.039 263.97 201.301 168.529 
264.147 201.188 168.58 250.879 146.128 170.059 252.778 146.031 170.424 
255.609 145.938 170.507 249.556 146.712 170.091 248.157 148.381 170.393 
262.1 148.839 170.295 246.9 151.602 171.084 246.573 152.716 170.825 
246.539 153.152 170.313 258.958 172.74 170.324 248.952 187.12 170.398 
254.831 193.568 170.554 258.116 196.012 170.691 278.626 196.66 169.947 
278.766 197.032 170.741 265.512 199.223 170.868 278.204 198.429 170.911 
252.234 146.4 171.373 260.138 146.589 170.946 254.467 146.525 172.25 
261.112 147.396 170.935 248.803 148.372 171.514 247.458 150.459 171.386 
246.631 152.63 171.418 263.611 164.391 172.486 263.359 167.219 172.318 
262.695 168.704 171.802 249.276 187.954 171.167 249.714 188.781 171.913 
251.747 190.556 172.094 260.13 195.716 172.332 278.486 196.132 170.895 
270.581 199.237 171.96 278.122 198.005 172.434 252.854 147.061 172.696 
[...]
POINT_DATA 1560
COLOR_SCALARS scalars 3
1 0.501961 0.517647 1 0.501961 0.517647 1 0.501961 0.517647 
1 0.501961 0.517647 1 0.501961 0.517647 
1 0.501961 0.517647 1 0.501961 0.517647 
1 0.501961 0.517647 1 0.501961 0.517647 
1 0.501961 0.517647 1 0.501961 0.517647 
1 0.501961 0.517647 1 0.501961 0.517647 
1 0.501961 0.517647 1 0.501961 0.517647 
1 0.501961 0.517647 1 0.501961 0.517647 
1 0.501961 0.517647 1 0.501961 0.517647 
1 0.501961 0.517647 1 0.501961 0.517647 
1 0.501961 0.517647 1 0.501961 0.517647 
1 0.501961 0.517647 1 0.501961 0.517647 
1 0.501961 0.517647 1 0.501961 0.517647 
1 0.501961 0.517647 1 0.501961 0.517647 
1 0.501961 0.517647 1 0.501961 0.517647 
1 0.501961 0.517647 1 0.501961 0.517647 
1 0.501961 0.517647 1 0.501961 0.517647 
1 0.501961 0.517647 1 0.501961 0.517647 
1 0.501961 0.517647 1 0.501961 0.517647 
1 0.501961 0.517647 1 0.501961 0.517647 
1 0.501961 0.517647 1 0.501961 0.517647 
1 0.501961 0.517647 1 0.501961 0.517647 
1 0.501961 0.517647 1 0.501961 0.517647 
1 0.501961 0.517647 1 0.501961 0.517647 
1 0.501961 0.517647 1 0.501961 0.517647 
1 0.501961 0.517647 1 0.501961 0.517647 
1 0.501961 0.517647 1 0.501961 0.517647 
1 0.501961 0.517647 1 0.501961 0.517647 
1 0.501961 0.517647 1 0.501961 0.517647 
1 0.501961 0.517647 1 0.501961 0.517647 
1 0.501961 0.517647 1 0.501961 0.517647 
1 0.501961 0.517647 1 0.501961 0.517647 
1 0.501961 0.517647 1 0.501961 0.517647 
1 0.501961 0.517647 1 0.501961 0.517647 
1 0.501961 0.517647 1 0.501961 0.517647 
1 0.501961 0.517647 1 0.501961 0.517647 
1 0.501961 0.517647 1 0.501961 0.517647 
1 0.501961 0.517647 1 0.501961 0.517647 
1 0.501961 0.517647 1 0.501961 0.517647 
1 0.501961 0.517647 1 0.501961 0.517647 
1 0.501961 0.517647 1 0.501961 0.517647 
1 0.501961 0.517647 1 0.501961 0.517647 
1 0.501961 0.517647 1 0.501961 0.517647 
1 0.501961 0.517647 1 0.501961 0.517647 
1 0.501961 0.517647 1 0.501961 0.517647 
1 0.501961 0.517647 1 0.501961 0.517647 
1 0.501961 0.517647 1 0.501961 0.517647 
1 0.501961 0.517647 1 0.501961 0.517647 
1 0.501961 0.517647 1 0.501961 0.517647 
1 0.501961 0.517647 1 0.501961 0.517647 
1 0.501961 0.517647 1 0.501961 0.517647 
1 0.501961 0.517647 1 0.501961 0.517647 
1 0.501961 0.517647 1 0.501961 0.517647 
1 0.501961 0.517647 1 0.501961 0.517647 
1 0.501961 0.517647 1 0.501961 0.517647 
1 0.501961 0.517647 1 0.501961 0.517647 
1 0.501961 0.517647 1 0.501961 0.517647 
1 0.501961 0.517647 1 0.501961 0.517647 
1 0.501961 0.517647 1 0.501961 0.517647 
1 0.501961 0.517647 1 0.501961 0.517647 
1 0.501961 0.517647 1 0.501961 0.517647 
1 0.501961 0.517647 1 0.501961 0.517647 
1 0.501961 0.517647 1 0.501961 0.517647 
1 0.501961 0.517647 1 0.501961 0.517647 
1 0.501961 0.517647 1 0.501961 0.517647 
1 0.501961 0.517647 1 0.501961 0.517647 
1 0.501961 0.517647 1 0.501961 0.517647 
1 0.501961 0.517647 1 0.501961 0.517647 
1 0.501961 0.517647 1 0.501961 0.517647 
1 0.501961 0.517647 1 0.501961 0.517647 
1 0.501961 0.517647 1 0.501961 0.517647 
1 0.501961 0.517647 1 0.501961 0.517647 
1 0.501961 0.517647 1 0.501961 0.517647 
1 0.501961 0.517647 1 0.501961 0.517647 
1 0.501961 0.517647 1 0.501961 0.517647 
1 0.501961 0.517647 1 0.501961 0.517647 
1 0.501961 0.517647 1 0.501961 0.517647 
1 0.501961 0.517647 1 0.501961 0.517647 
1 0.501961 0.517647 1 0.501961 0.517647 
1 0.501961 0.517647 1 0.501961 0.517647 
1 0.501961 0.517647 1 0.501961 0.517647 
1 0.501961 0.517647 1 0.501961 0.517647 
1 0.501961 0.517647 1 0.501961 0.517647 
1 0.501961 0.517647 1 0.501961 0.517647 
1 0.501961 0.517647 1 0.501961 0.517647 
1 0.501961 0.517647 1 0.501961 0.517647 
1 0.501961 0.517647 1 0.501961 0.517647 
1 0.501961 0.517647 1 0.501961 0.517647 
1 0.501961 0.517647 1 0.501961 0.517647 
1 0.501961 0.517647 1 0.501961 0.517647 
1 0.501961 0.517647 1 0.501961 0.517647 
1 0.501961 0.517647 1 0.501961 0.517647 
1 0.501961 0.517647 1 0.501961 0.517647 
1 0.501961 0.517647 1 0.501961 0.517647 
1 0.501961 0.517647 1 0.501961 0.517647 
1 0.501961 0.517647 1 0.501961 0.517647 
1 0.501961 0.517647 1 0.501961 0.517647 
1 0.501961 0.517647 1 0.501961 0.517647 
1 0.501961 0.517647 1 0.501961 0.517647 
1 0.501961 0.517647 1 0.501961 0.517647 
1 0.501961 0.517647 1 0.501961 0.517647 
1 0.501961 0.517647 1 0.501961 0.517647 
1 0.501961 0.517647 1 0.501961 0.517647 
1 0.501961 0.517647 1 0.501961 0.517647 
1 0.501961 0.517647 1 0.501961 0.517647 
1 0.501961 0.517647 1 0.501961 0.517647 
1 0.501961 0.517647 1 0.501961 0.517647 
1 0.501961 0.517647 1 0.501961 0.517647 
1 0.501961 0.517647 1 0.501961 0.517647 
1 0.501961 0.517647 1 0.501961 0.517647 
1 0.501961 0.517647 1 0.501961 0.517647 
1 0.501961 0.517647 1 0.501961 0.517647 
1 0.501961 0.517647 1 0.501961 0.517647 
1 0.501961 0.517647 1 0.501961 0.517647 
1 0.501961 0.517647 1 0.501961 0.517647 
1 0.501961 0.517647 1 0.501961 0.517647 
1 0.501961 0.517647 1 0.501961 0.517647 
1 0.501961 0.517647 1 0.501961 0.517647 
1 0.501961 0.517647 1 0.501961 0.517647 
1 0.501961 0.517647 1 0.501961 0.517647 
1 0.501961 0.517647 1 0.501961 0.517647 
1 0.501961 0.517647 1 0.501961 0.517647 
1 0.501961 0.517647 1 0.501961 0.517647 
1 0.501961 0.517647 1 0.501961 0.517647 
1 0.501961 0.517647 1 0.501961 0.517647 
1 0.501961 0.517647 1 0.501961 0.517647 
1 0.501961 0.517647 1 0.501961 0.517647 
1 0.501961 0.517647 1 0.501961 0.517647 
1 0.501961 0.517647 1 0.501961 0.517647 
1 0.501961 0.517647 1 0.501961 0.517647 
1 0.501961 0.517647 1 0.501961 0.517647 
1 0.501961 0.517647 1 0.501961 0.517647 
1 0.501961 0.517647 1 0.501961 0.517647 
1 0.501961 0.517647 1 0.501961 0.517647 
1 0.501961 0.517647 1 0.501961 0.517647 
1 0.501961 0.517647 1 0.501961 0.517647 
1 0.501961 0.517647 1 0.501961 0.517647 
1 0.501961 0.517647 1 0.501961 0.517647 
1 0.501961 0.517647 1 0.501961 0.517647 
1 0.501961 0.517647 1 0.501961 0.517647 
1 0.501961 0.517647 1 0.501961 0.517647 
1 0.501961 0.517647 1 0.501961 0.517647 
1 0.501961 0.517647 1 0.501961 0.517647 
1 0.501961 0.517647 1 0.501961 0.517647 
1 0.501961 0.517647 1 0.501961 0.517647 
1 0.501961 0.517647 1 0.501961 0.517647 
1 0.501961 0.517647 1 0.501961 0.517647 
1 0.501961 0.517647 1 0.501961 0.517647 
1 0.501961 0.517647 1 0.501961 0.517647 
1 0.501961 0.517647 1 0.501961 0.517647 
1 0.501961 0.517647 1 0.501961 0.517647 
1 0.501961 0.517647 1 0.501961 0.517647 
1 0.501961 0.517647 1 0.501961 0.517647 
1 0.501961 0.517647 1 0.501961 0.517647 
1 0.501961 0.517647 1 0.501961 0.517647 
1 0.501961 0.517647 1 0.501961 0.517647 
1 0.501961 0.517647 1 0.501961 0.517647 
1 0.501961 0.517647 1 0.501961 0.517647 
1 0.501961 0.517647 1 0.501961 0.517647 
1 0.501961 0.517647 1 0.501961 0.517647 
1 0.501961 0.517647 1 0.501961 0.517647 
1 0.501961 0.517647 1 0.501961 0.517647 
1 0.501961 0.517647 1 0.501961 0.517647 
1 0.501961 0.517647 1 0.501961 0.517647 
1 0.501961 0.517647 1 0.501961 0.517647 
1 0.501961 0.517647 1 0.501961 0.517647 
1 0.501961 0.517647 1 0.501961 0.517647 
1 0.501961 0.517647 1 0.501961 0.517647 
1 0.501961 0.517647 1 0.501961 0.517647 
1 0.501961 0.517647 1 0.501961 0.517647 
1 0.501961 0.517647 1 0.501961 0.517647 
1 0.501961 0.517647 1 0.501961 0.517647 
1 0.501961 0.517647 1 0.501961 0.517647 
1 0.501961 0.517647 1 0.501961 0.517647 
1 0.501961 0.517647 1 0.501961 0.517647 
1 0.501961 0.517647 1 0.501961 0.517647 
1 0.501961 0.517647 1 0.501961 0.517647 
1 0.501961 0.517647 1 0.501961 0.517647 
1 0.501961 0.517647 1 0.501961 0.517647 
1 0.501961 0.517647 1 0.501961 0.517647 
1 0.501961 0.517647 1 0.501961 0.517647 
1 0.501961 0.517647 1 0.501961 0.517647 
1 0.501961 0.517647 1 0.501961 0.517647 
1 0.501961 0.517647 1 0.501961 0.517647 
1 0.501961 0.517647 1 0.501961 0.517647 
1 0.501961 0.517647 1 0.501961 0.517647 
1 0.501961 0.517647 1 0.501961 0.517647 
1 0.501961 0.517647 1 0.501961 0.517647 
1 0.501961 0.517647 1 0.501961 0.517647 
1 0.501961 0.517647 1 0.501961 0.517647 
1 0.501961 0.517647 1 0.501961 0.517647 
1 0.501961 0.517647 1 0.501961 0.517647 
1 0.501961 0.517647 1 0.501961 0.517647 
1 0.501961 0.517647 1 0.501961 0.517647 
1 0.501961 0.517647 1 0.501961 0.517647 
1 0.501961 0.517647 1 0.501961 0.517647 
1 0.501961 0.517647 1 0.501961 0.517647 
1 0.501961 0.517647 1 0.501961 0.517647 
1 0.501961 0.517647 1 0.501961 0.517647 
1 0.501961 0.517647 1 0.501961 0.517647 
1 0.501961 0.517647 1 0.501961 0.517647 
1 0.501961 0.517647 1 0.501961 0.517647 
1 0.501961 0.517647 1 0.501961 0.517647 
1 0.501961 0.517647 1 0.501961 0.517647 
1 0.501961 0.517647 1 0.501961 0.517647 
1 0.501961 0.517647 1 0.501961 0.517647 
1 0.501961 0.517647 1 0.501961 0.517647 
1 0.501961 0.517647 1 0.501961 0.517647 
1 0.501961 0.517647 1 0.501961 0.517647 
1 0.501961 0.517647 1 0.501961 0.517647 
1 0.501961 0.517647 1 0.501961 0.517647 
1 0.501961 0.517647 1 0.501961 0.517647 
1 0.501961 0.517647 1 0.501961 0.517647 
1 0.501961 0.517647 1 0.501961 0.517647 
1 0.501961 0.517647 1 0.501961 0.517647 
1 0.501961 0.517647 1 0.501961 0.517647 
1 0.501961 0.517647 1 0.501961 0.517647 
1 0.501961 0.517647 1 0.501961 0.517647 
1 0.501961 0.517647 1 0.501961 0.517647 
1 0.501961 0.517647 1 0.501961 0.517647 
1 0.501961 0.517647 1 0.501961 0.517647 
1 0.501961 0.517647 1 0.501961 0.517647 
1 0.501961 0.517647 1 0.501961 0.517647 
1 0.501961 0.517647 1 0.501961 0.517647 
1 0.501961 0.517647 1 0.501961 0.517647 
1 0.501961 0.517647 1 0.501961 0.517647 
1 0.501961 0.517647 1 0.501961 0.517647 
1 0.501961 0.517647 1 0.501961 0.517647 
1 0.501961 0.517647 1 0.501961 0.517647 
1 0.501961 0.517647 1 0.501961 0.517647 
1 0.501961 0.517647 1 0.501961 0.517647 
1 0.501961 0.517647 1 0.501961 0.517647 
1 0.501961 0.517647 1 0.501961 0.517647 
1 0.501961 0.517647 1 0.501961 0.517647 
1 0.501961 0.517647 1 0.501961 0.517647 
1 0.501961 0.517647 1 0.501961 0.517647 
1 0.501961 0.517647 1 0.501961 0.517647 
1 0.501961 0.517647 1 0.501961 0.517647 
1 0.501961 0.517647 1 0.501961 0.517647 
1 0.501961 0.517647 1 0.501961 0.517647 
1 0.501961 0.517647 1 0.501961 0.517647 
1 0.501961 0.517647 1 0.501961 0.517647 
1 0.501961 0.517647 1 0.501961 0.517647 
1 0.501961 0.517647 1 0.501961 0.517647 
1 0.501961 0.517647 1 0.501961 0.517647 
1 0.501961 0.517647 1 0.501961 0.517647 
1 0.501961 0.517647 1 0.501961 0.517647 
1 0.501961 0.517647 1 0.501961 0.517647 
1 0.501961 0.517647 1 0.501961 0.517647 
1 0.501961 0.517647 1 0.501961 0.517647 
1 0.501961 0.517647 1 0.501961 0.517647 
1 0.501961 0.517647 1 0.501961 0.517647 
1 0.501961 0.517647 1 0.501961 0.517647 
1 0.501961 0.517647 1 0.501961 0.517647 
1 0.501961 0.517647 1 0.501961 0.517647 
1 0.501961 0.517647 1 0.501961 0.517647 
1 0.501961 0.517647 1 0.501961 0.517647 
1 0.501961 0.517647 1 0.501961 0.517647 
1 0.501961 0.517647 1 0.501961 0.517647 
1 0.501961 0.517647 1 0.501961 0.517647 
1 0.501961 0.517647 1 0.501961 0.517647 
1 0.501961 0.517647 1 0.501961 0.517647 
1 0.501961 0.517647 1 0.501961 0.517647 
1 0.501961 0.517647 1 0.501961 0.517647 
1 0.501961 0.517647 1 0.501961 0.517647 
1 0.501961 0.517647 1 0.501961 0.517647 
1 0.501961 0.517647 1 0.501961 0.517647 
1 0.501961 0.517647 1 0.501961 0.517647 
1 0.501961 0.517647 1 0.501961 0.517647 
1 0.501961 0.517647 1 0.501961 0.517647 
1 0.501961 0.517647 1 0.501961 0.517647 
1 0.501961 0.517647 1 0.501961 0.517647 
1 0.501961 0.517647 1 0.501961 0.517647 
1 0.501961 0.517647 1 0.501961 0.517647 
1 0.501961 0.517647 1 0.501961 0.517647 
1 0.501961 0.517647 1 0.501961 0.517647 
1 0.501961 0.517647 1 0.501961 0.517647 
1 0.501961 0.517647 1 0.501961 0.517647 
1 0.501961 0.517647 1 0.501961 0.517647 
1 0.501961 0.517647 1 0.501961 0.517647 
1 0.501961 0.517647 1 0.501961 0.517647 
1 0.501961 0.517647 1 0.501961 0.517647 
1 0.501961 0.517647 1 0.501961 0.517647 
1 0.501961 0.517647 1 0.501961 0.517647 
1 0.501961 0.517647 1 0.501961 0.517647 
1 0.501961 0.517647 1 0.501961 0.517647 
1 0.501961 0.517647 1 0.501961 0.517647 
1 0.501961 0.517647 1 0.501961 0.517647 
1 0.501961 0.517647 1 0.501961 0.517647 
1 0.501961 0.517647 1 0.501961 0.517647 
1 0.501961 0.517647 1 0.501961 0.517647 
1 0.501961 0.517647 1 0.501961 0.517647 
1 0.501961 0.517647 1 0.501961 0.517647 
1 0.501961 0.517647 1 0.501961 0.517647 
1 0.501961 0.517647 1 0.501961 0.517647 
1 0.501961 0.517647 1 0.501961 0.517647 
1 0.501961 0.517647 1 0.501961 0.517647 
1 0.501961 0.517647 1 0.501961 0.517647 
1 0.501961 0.517647 1 0.501961 0.517647 
1 0.501961 0.517647 1 0.501961 0.517647 
1 0.501961 0.517647 1 0.501961 0.517647 
1 0.501961 0.517647 1 0.501961 0.517647 
1 0.501961 0.517647 1 0.501961 0.517647 
1 0.501961 0.517647 1 0.501961 0.517647 
1 0.501961 0.517647 1 0.501961 0.517647 
1 0.501961 0.517647 1 0.501961 0.517647 
1 0.501961 0.517647 1 0.501961 0.517647 
1 0.501961 0.517647 1 0.501961 0.517647 
1 0.501961 0.517647 1 0.501961 0.517647 
1 0.501961 0.517647 1 0.501961 0.517647 
1 0.501961 0.517647 1 0.501961 0.517647 
1 0.501961 0.517647 1 0.501961 0.517647 
1 0.501961 0.517647 1 0.501961 0.517647 
1 0.501961 0.517647 1 0.501961 0.517647 
1 0.501961 0.517647 1 0.501961 0.517647 
1 0.501961 0.517647 1 0.501961 0.517647 
1 0.501961 0.517647 1 0.501961 0.517647 
1 0.501961 0.517647 1 0.501961 0.517647 
1 0.501961 0.517647 1 0.501961 0.517647 
1 0.501961 0.517647 1 0.501961 0.517647 
1 0.501961 0.517647 1 0.501961 0.517647 
1 0.501961 0.517647 1 0.501961 0.517647 
1 0.501961 0.517647 1 0.501961 0.517647 
1 0.501961 0.517647 1 0.501961 0.517647 
1 0.501961 0.517647 1 0.501961 0.517647 
1 0.501961 0.517647 1 0.501961 0.517647 
1 0.501961 0.517647 1 0.501961 0.517647 
1 0.501961 0.517647 1 0.501961 0.517647 
1 0.501961 0.517647 1 0.501961 0.517647 
1 0.501961 0.517647 1 0.501961 0.517647 
1 0.501961 0.517647 1 0.501961 0.517647 
1 0.501961 0.517647 1 0.501961 0.517647 
1 0.501961 0.517647 1 0.501961 0.517647 
1 0.501961 0.517647 1 0.501961 0.517647 
1 0.501961 0.517647 1 0.501961 0.517647 
1 0.501961 0.517647 1 0.501961 0.517647 
1 0.501961 0.517647 1 0.501961 0.517647 
1 0.501961 0.517647 1 0.501961 0.517647 
1 0.501961 0.517647 1 0.501961 0.517647 
1 0.501961 0.517647 1 0.501961 0.517647 
1 0.501961 0.517647 1 0.501961 0.517647 
1 0.501961 0.517647 1 0.501961 0.517647 
1 0.501961 0.517647 1 0.501961 0.517647 
1 0.501961 0.517647 1 0.501961 0.517647 
1 0.501961 0.517647 1 0.501961 0.517647 
1 0.501961 0.517647 1 0.501961 0.517647 
1 0.501961 0.517647 1 0.501961 0.517647 
1 0.501961 0.517647 1 0.501961 0.517647 
1 0.501961 0.517647 1 0.501961 0.517647 
1 0.501961 0.517647 1 0.501961 0.517647 
1 0.501961 0.517647 1 0.501961 0.517647 
1 0.501961 0.517647 1 0.501961 0.517647 
1 0.501961 0.517647 1 0.501961 0.517647 
1 0.501961 0.517647 1 0.501961 0.517647 
1 0.501961 0.517647 1 0.501961 0.517647 
1 0.501961 0.517647 1 0.501961 0.517647 
1 0.501961 0.517647 1 0.501961 0.517647 
1 0.501961 0.517647 1 0.501961 0.517647 
1 0.501961 0.517647 1 0.501961 0.517647 
1 0.501961 0.517647 1 0.501961 0.517647 
1 0.501961 0.517647 1 0.501961 0.517647 
1 0.501961 0.517647 1 0.501961 0.517647 
1 0.501961 0.517647 1 0.501961 0.517647 
1 0.501961 0.517647 1 0.501961 0.517647 
1 0.501961 0.517647 1 0.501961 0.517647 
1 0.501961 0.517647 1 0.501961 0.517647 
1 0.501961 0.517647 1 0.501961 0.517647 
1 0.501961 0.517647 1 0.501961 0.517647 
1 0.501961 0.517647 1 0.501961 0.517647 
1 0.501961 0.517647 1 0.501961 0.517647 
1 0.501961 0.517647 1 0.501961 0.517647 
1 0.501961 0.517647 1 0.501961 0.517647 
1 0.501961 0.517647 1 0.501961 0.517647 
1 0.501961 0.517647 1 0.501961 0.517647 
1 0.501961 0.517647 1 0.501961 0.517647 
1 0.501961 0.517647 1 0.501961 0.517647 
1 0.501961 0.517647 1 0.501961 0.517647 
1 0.501961 0.517647 1 0.501961 0.517647 
1 0.501961 0.517647 1 0.501961 0.517647 
1 0.501961 0.517647 1 0.501961 0.517647 
1 0.501961 0.517647 1 0.501961 0.517647 
1 0.501961 0.517647 1 0.501961 0.517647 
1 0.501961 0.517647 1 0.501961 0.517647 
1 0.501961 0.517647 1 0.501961 0.517647 
1 0.501961 0.517647 1 0.501961 0.517647 
1 0.501961 0.517647 1 0.501961 0.517647 
1 0.501961 0.517647 1 0.501961 0.517647 
1 0.501961 0.517647 1 0.501961 0.517647 
1 0.501961 0.517647 1 0.501961 0.517647 
1 0.501961 0.517647 1 0.501961 0.517647 
1 0.501961 0.517647 1 0.501961 0.517647 
1 0.501961 0.517647 1 0.501961 0.517647 
1 0.501961 0.517647 1 0.501961 0.517647 
1 0.501961 0.517647 1 0.501961 0.517647 
1 0.501961 0.517647 1 0.501961 0.517647 
1 0.501961 0.517647 1 0.501961 0.517647 
1 0.501961 0.517647 1 0.501961 0.517647 
1 0.501961 0.517647 1 0.501961 0.517647 
1 0.501961 0.517647 1 0.501961 0.517647 
1 0.501961 0.517647 1 0.501961 0.517647 
1 0.501961 0.517647 1 0.501961 0.517647 
1 0.501961 0.517647 1 0.501961 0.517647 
1 0.501961 0.517647 1 0.501961 0.517647 
1 0.501961 0.517647 1 0.501961 0.517647 
1 0.501961 0.517647 1 0.501961 0.517647 
1 0.501961 0.517647 1 0.501961 0.517647 
1 0.501961 0.517647 1 0.501961 0.517647 
1 0.501961 0.517647 1 0.501961 0.517647 
1 0.501961 0.517647 1 0.501961 0.517647 
1 0.501961 0.517647 1 0.501961 0.517647 
1 0.501961 0.517647 1 0.501961 0.517647 
1 0.501961 0.517647 1 0.501961 0.517647 
1 0.501961 0.517647 1 0.501961 0.517647 
1 0.501961 0.517647 1 0.501961 0.517647 
1 0.501961 0.517647 1 0.501961 0.517647 
1 0.501961 0.517647 1 0.501961 0.517647 
1 0.501961 0.517647 1 0.501961 0.517647 
1 0.501961 0.517647 1 0.501961 0.517647 
1 0.501961 0.517647 1 0.501961 0.517647 
1 0.501961 0.517647 1 0.501961 0.517647 
1 0.501961 0.517647 1 0.501961 0.517647 
1 0.501961 0.517647 1 0.501961 0.517647 
1 0.501961 0.517647 1 0.501961 0.517647 
1 0.501961 0.517647 1 0.501961 0.517647 
1 0.501961 0.517647 1 0.501961 0.517647 
1 0.501961 0.517647 1 0.501961 0.517647 
1 0.501961 0.517647 1 0.501961 0.517647 
1 0.501961 0.517647 1 0.501961 0.517647 
1 0.501961 0.517647 1 0.501961 0.517647 
1 0.501961 0.517647 1 0.501961 0.517647 
1 0.501961 0.517647 1 0.501961 0.517647 
1 0.501961 0.517647 1 0.501961 0.517647 
1 0.501961 0.517647 1 0.501961 0.517647 
1 0.501961 0.517647 1 0.501961 0.517647 
1 0.501961 0.517647 1 0.501961 0.517647 
1 0.501961 0.517647 1 0.501961 0.517647 
1 0.501961 0.517647 1 0.501961 0.517647 
1 0.501961 0.517647 1 0.501961 0.517647 
1 0.501961 0.517647 1 0.501961 0.517647 
1 0.501961 0.517647 1 0.501961 0.517647 
1 0.501961 0.517647 1 0.501961 0.517647 
1 0.501961 0.517647 1 0.501961 0.517647 
1 0.501961 0.517647 1 0.501961 0.517647 
1 0.501961 0.517647 1 0.501961 0.517647 
1 0.501961 0.517647 1 0.501961 0.517647 
1 0.501961 0.517647 1 0.501961 0.517647 
1 0.501961 0.517647 1 0.501961 0.517647 
1 0.501961 0.517647 1 0.501961 0.517647 
1 0.501961 0.517647 1 0.501961 0.517647 
1 0.501961 0.517647 1 0.501961 0.517647 
1 0.501961 0.517647 1 0.501961 0.517647 
1 0.501961 0.517647 1 0.501961 0.517647 
1 0.501961 0.517647 1 0.501961 0.517647 
1 0.501961 0.517647 1 0.501961 0.517647 
1 0.501961 0.517647 1 0.501961 0.517647 
1 0.501961 0.517647 1 0.501961 0.517647 
1 0.501961 0.517647 1 0.501961 0.517647 
1 0.501961 0.517647 1 0.501961 0.517647 
1 0.501961 0.517647 1 0.501961 0.517647 
1 0.501961 0.517647 1 0.501961 0.517647 
1 0.501961 0.517647 1 0.501961 0.517647 
1 0.501961 0.517647 1 0.501961 0.517647 
1 0.501961 0.517647 1 0.501961 0.517647 
1 0.501961 0.517647 1 0.501961 0.517647 
1 0.501961 0.517647 1 0.501961 0.517647 
1 0.501961 0.517647 1 0.501961 0.517647 
1 0.501961 0.517647 1 0.501961 0.517647 
1 0.501961 0.517647 1 0.501961 0.517647 
1 0.501961 0.517647 1 0.501961 0.517647 
1 0.501961 0.517647 1 0.501961 0.517647 
1 0.501961 0.517647 1 0.501961 0.517647 
1 0.501961 0.517647 1 0.501961 0.517647 
1 0.501961 0.517647 1 0.501961 0.517647 
1 0.501961 0.517647 1 0.501961 0.517647 
1 0.501961 0.517647 1 0.501961 0.517647 
1 0.501961 0.517647 1 0.501961 0.517647 
1 0.501961 0.517647 1 0.501961 0.517647 
1 0.501961 0.517647 1 0.501961 0.517647 
1 0.501961 0.517647 1 0.501961 0.517647 
1 0.501961 0.517647 1 0.501961 0.517647 
1 0.501961 0.517647 1 0.501961 0.517647 
1 0.501961 0.517647 1 0.501961 0.517647 
1 0.501961 0.517647 1 0.501961 0.517647 
1 0.501961 0.517647 1 0.501961 0.517647 
1 0.501961 0.517647 1 0.501961 0.517647 
1 0.501961 0.517647 1 0.501961 0.517647 