# vtk DataFile Version 4.2
vtk output
ASCII
DATASET POLYDATA
POINTS 324 float
429.831 209.331 205.526 430.47 208.935 205.576 432.232 209.436 205.702 
430.027 209.551 205.445 430.113 209.823 205.5 430.44 209.615 205.398 
431.558 209.762 205.477 432.108 209.784 205.628 431.239 210.104 205.549 
429.193 208.482 206.109 431.343 208.49 205.903 431.679 208.289 206.134 
428.245 208.505 206.596 432.748 209.682 205.923 433.344 209.761 206.19 
428.52 209.657 206.185 433.707 210 206.42 428.625 209.985 206.23 
428.888 210.378 206.273 429.983 210.241 205.78 431.694 210.543 205.837 
432.363 210.709 206.039 432.695 211.028 206.349 433.232 210.914 206.486 
429.156 207.186 206.995 432.56 208.52 206.34 434.077 209.747 206.713 
433.906 209.257 206.769 427.844 209.718 207.08 434.465 209.895 207.095 
428.561 210.35 206.459 428.411 210.42 206.665 434.13 210.476 206.861 
430.103 211.38 206.605 433.636 211.03 206.835 427.404 206.734 208.086 
427.143 206.86 208.244 427.265 207.704 207.759 426.819 207.817 208.328 
432.984 208.252 206.809 434.432 209.148 207.323 434.806 209.198 207.776 
435.002 209.568 207.966 434.851 210.251 207.698 433.989 211.129 207.239 
430.715 212.557 208.094 432.256 212.38 207.748 427.695 206.038 208.806 
428.486 206.256 208.119 432.075 207.036 207.729 426.455 207.912 209.011 
428.234 211.372 208.467 435.006 210.799 208.602 430.007 205.257 209.79 
434.884 208.51 208.436 426.171 208.422 209.866 426.7 209.631 209.41 
431.348 213.213 209.46 432.779 213.019 209.381 432.152 213.279 209.712 
432.319 205.77 209.882 425.917 207.276 210.473 435.969 208.913 210.564 
435.851 209.696 210.225 433.916 212.454 209.933 431.522 213.356 210.35 
432.51 213.261 210.096 430.133 204.456 211.817 425.787 206.905 211.515 
429.147 212.381 211.392 430.936 213.213 211.123 432.91 213.132 210.496 
427.532 204.789 212.3 431.338 204.492 212.36 433.413 205.311 212.149 
426.121 205.884 212.039 435.889 207.927 211.471 435.644 210.42 211.992 
429.12 212.262 212.236 434.166 212.317 211.46 432.79 213.135 211.089 
431.334 213.274 211.345 427.418 204.718 213.008 426.108 205.873 212.633 
426.948 204.956 213.249 425.799 207.391 212.528 426.48 209.364 213.001 
436.044 209.479 212.628 435.813 209.864 212.891 436.006 209.328 213.064 
427.992 211.314 212.911 435.069 210.956 213.243 434.077 211.861 212.979 
431.865 212.937 212.283 432.103 213.153 211.709 426.152 205.85 213.419 
434.228 205.621 213.1 434.677 206.056 213.084 435.94 208.392 213.487 
435.995 208.964 213.384 435.185 210.589 213.585 429.796 212.185 213.429 
427.231 204.708 214.378 426.994 204.882 214.638 427.927 204.507 215.112 
429.086 204.265 214.751 434.632 210.769 214.246 428.688 211.345 214.133 
433.902 211.124 214.378 427.036 204.921 215.052 427.772 204.692 215.575 
426.718 205.505 215.412 427.016 205.118 215.421 433.024 205.156 214.868 
434.173 205.794 214.768 426.346 206.126 215.123 434.97 206.663 214.73 
426.855 208.451 214.979 435.607 208.256 214.662 427.683 209.885 214.966 
434.956 209.568 214.978 434.656 209.639 215.185 428.292 210.634 214.767 
430.204 211.432 214.583 430.461 204.544 215.566 430.972 204.83 215.964 
426.522 205.899 215.438 426.787 205.741 215.778 433.781 206.026 215.619 
434.502 206.751 215.563 427.512 208.084 215.871 428.02 208.219 216.163 
433.765 208.093 216.296 432.507 208.285 216.611 434.304 208.751 215.814 
431.983 209.61 216.059 430.809 210.36 215.6 427.615 205.129 216.16 
428.938 205.23 216.645 429.648 204.887 216.328 427.397 205.69 216.341 
427.026 205.848 216.109 427.718 205.414 216.391 432.124 205.884 216.691 
426.987 206.164 216.158 426.898 206.39 216.045 432.458 206.52 216.825 
433.909 206.542 215.922 428.816 206.889 216.922 429.391 206.894 217.069 
431.88 206.985 217.004 432.08 206.648 216.968 433.247 207.09 216.561 
429.812 207.18 217.079 427.331 206.053 216.385 428.593 205.93 216.841 
429.231 205.693 216.876 430.853 205.624 216.832 428.364 206.387 216.815 
431.307 206.006 216.97 431.405 206.507 217.061 428.249 205.342 238.7 
427.936 205.542 238.773 429.273 205.247 238.588 430.099 205.69 238.344 
428.129 205.828 238.558 427.806 205.952 238.753 429.855 206.033 238.245 
428.193 205.092 239.053 427.2 205.25 239.668 432.929 206.174 238.911 
433.266 206.005 239.191 427.502 205.801 239.008 427.247 205.962 239.207 
433.229 206.6 238.89 427.516 206.437 239.086 432.327 206.919 238.536 
429.031 207.535 238.559 429.759 207.628 238.426 433.049 207.669 238.828 
433.477 207.519 239.001 427.874 204.554 240.343 430.741 204.694 239.502 
431.796 205.039 239.431 426.926 205.602 239.698 433.372 205.721 239.622 
434.343 206.376 239.807 434.704 206.404 240.179 434.796 206.871 240.029 
435.209 207.034 240.437 427.137 207.829 239.925 435.534 207.724 240.708 
431.78 208.766 238.877 428.604 209.663 239.781 434.613 209.499 240.281 
430.284 210.519 239.878 431.636 210.551 239.871 427.348 204.74 240.379 
427.952 204.401 240.96 429.897 204.334 240.317 431.331 204.611 240.026 
433.885 205.696 240.179 435.087 206.474 240.987 435.338 206.899 240.835 
429.217 211.098 240.693 432.584 211.749 241.092 427.023 204.813 241.037 
427.216 204.659 241.373 429.061 204.211 241.191 431.846 204.543 241.169 
426.329 205.79 241.273 433.161 205.096 240.856 426.508 208.128 241.008 
435.376 209.611 241.051 428.499 211.398 241.858 433.587 211.471 241.179 
431.354 212.587 242.276 430.385 204.242 241.551 426.802 205.042 242.244 
434.944 206.305 242.1 425.829 206.766 242.341 425.857 207.201 242.118 
435.929 208.04 242.537 436.003 208.89 242.13 436.018 208.51 242.517 
427.83 210.896 242.131 434.82 210.933 241.809 429.463 204.22 242.302 
426.054 206.028 242.888 426.804 205.187 243.051 433.11 205.082 242.24 
425.841 206.481 242.819 435.46 207.153 243.006 425.872 207.822 242.934 
434.468 211.758 243.384 431.133 213.233 243.973 432.204 213.125 243.44 
432.067 213.271 243.819 426.047 206.275 243.977 425.754 206.983 243.544 
435.914 208.545 244.134 436.064 208.988 244.003 436.019 209.739 243.486 
426.59 209.628 243.819 434.406 211.951 244.346 432.713 213.093 243.962 
432.387 213.256 244.164 427.506 204.998 243.99 432.636 205.262 243.889 
425.938 206.566 244.118 425.824 206.887 243.99 434.772 207.322 245.28 
425.975 207.763 244.472 426.429 209.186 245.241 436.016 209.609 244.48 
435.69 210.407 244.344 435.865 209.986 244.783 430.442 213.039 244.792 
430.943 213.214 245.177 431.852 213.36 244.827 427.212 205.969 245.735 
425.899 207.18 244.383 426.157 207.141 245.052 426.197 207.948 245.365 
435.808 208.96 245.214 435.867 209.287 245.256 435.118 211.093 245.64 
429.211 212.25 246.294 431.078 213.16 245.681 431.731 213.312 245.344 
426.955 206.382 245.992 428.024 205.919 246.515 426.37 207.53 245.831 
434.439 207.993 246.84 434.598 208.395 247.16 434.877 208.754 247.036 
435.767 209.572 245.552 427.889 210.893 247.257 429.092 206.222 247.293 
426.682 208.293 246.859 434.253 208.244 247.439 433.956 208.329 247.855 
426.916 209.261 247.27 435.129 210.336 246.948 434.553 211.306 247.456 
434.784 211.1 247.367 429.729 212.281 247.226 433.349 212.401 246.884 
430.879 212.615 247.078 427.464 207.629 247.681 430.232 207.096 248.357 
434.656 209.544 247.896 434.815 210.445 247.679 434.641 210.702 248.005 
434.256 211.075 248.281 432.135 212.399 247.554 427.986 207.702 248.221 
433.826 209.823 248.922 434.066 210.478 248.762 428.979 210.588 249.241 
433.67 210.891 248.927 429.712 211.366 248.838 433.363 211.031 248.992 
432.542 211.541 248.688 428.087 208.519 248.832 430.375 208.46 249.686 
428.536 209.07 249.379 428.917 208.857 249.541 431.325 208.727 249.755 
432.709 209.852 249.671 428.532 209.821 249.398 432.572 210.203 249.758 
432.011 210.519 249.813 432.329 210.333 249.831 432.869 211.045 249.141 
430.215 209.443 250.263 431.339 209.549 250.245 430.266 209.875 250.252 
431.572 209.768 250.22 430.451 209.588 250.318 430.737 209.853 250.32 
431.189 209.803 250.312 430.47 208.935 205.576 430.737 209.853 250.32 

POLYGONS 636 2544
3 0 6 10 
3 1 0 10 
3 3 4 5 
3 3 5 0 
3 6 0 5 
3 7 2 6 
3 6 5 8 
3 7 6 8 
3 9 322 10 
3 9 12 15 
3 9 15 0 
3 322 9 0 
3 10 6 11 
3 2 13 25 
3 2 25 6 
3 6 25 11 
3 25 13 14 
3 3 0 4 
3 13 7 21 
3 2 7 13 
3 14 13 21 
3 17 18 15 
3 15 18 0 
3 4 19 5 
3 4 0 19 
3 0 18 19 
3 5 19 8 
3 8 20 7 
3 19 20 8 
3 7 20 21 
3 14 21 22 
3 22 16 14 
3 33 19 18 
3 21 20 19 
3 16 22 23 
3 9 10 24 
3 11 49 10 
3 10 49 24 
3 49 11 25 
3 9 24 12 
3 14 39 25 
3 16 26 27 
3 16 27 14 
3 14 27 39 
3 27 26 29 
3 15 12 28 
3 28 12 38 
3 26 16 32 
3 32 29 26 
3 15 28 31 
3 17 31 30 
3 17 15 31 
3 17 30 18 
3 43 29 32 
3 18 30 31 
3 18 31 33 
3 19 22 21 
3 33 22 19 
3 16 23 34 
3 16 34 32 
3 64 22 46 
3 23 22 64 
3 44 23 64 
3 34 23 44 
3 35 24 48 
3 37 35 36 
3 38 37 36 
3 24 37 12 
3 35 37 24 
3 25 39 49 
3 37 38 12 
3 29 40 27 
3 27 40 39 
3 40 29 43 
3 42 41 40 
3 43 42 40 
3 32 34 44 
3 43 32 44 
3 22 33 45 
3 45 46 22 
3 36 35 47 
3 35 48 47 
3 24 53 48 
3 36 50 38 
3 49 39 54 
3 50 55 38 
3 40 41 39 
3 39 41 54 
3 41 42 54 
3 38 51 28 
3 42 43 52 
3 31 28 51 
3 44 52 43 
3 33 31 45 
3 31 51 45 
3 64 52 44 
3 46 45 57 
3 58 46 57 
3 64 46 58 
3 47 48 72 
3 72 48 53 
3 60 53 24 
3 24 49 60 
3 36 61 50 
3 61 55 50 
3 56 38 55 
3 54 42 62 
3 62 42 52 
3 56 51 38 
3 45 51 69 
3 45 69 57 
3 58 57 59 
3 47 75 36 
3 61 36 75 
3 49 54 60 
3 76 54 62 
3 62 52 63 
3 56 69 51 
3 63 52 64 
3 69 70 57 
3 58 66 64 
3 59 57 66 
3 57 65 66 
3 58 59 66 
3 75 47 72 
3 67 72 53 
3 53 60 74 
3 53 74 67 
3 61 75 68 
3 60 54 97 
3 61 56 55 
3 70 65 57 
3 64 71 80 
3 66 71 64 
3 79 64 80 
3 65 70 81 
3 66 65 80 
3 65 81 80 
3 80 71 66 
3 67 105 72 
3 72 83 75 
3 67 74 73 
3 60 97 74 
3 75 85 68 
3 97 54 76 
3 61 68 56 
3 76 62 63 
3 56 86 69 
3 86 90 69 
3 63 64 77 
3 69 90 78 
3 77 64 79 
3 69 78 101 
3 70 69 101 
3 72 105 82 
3 73 124 67 
3 67 124 105 
3 82 83 72 
3 84 83 82 
3 73 74 124 
3 75 83 85 
3 68 85 56 
3 85 86 56 
3 76 63 89 
3 87 88 89 
3 87 89 63 
3 63 88 87 
3 63 77 88 
3 77 91 88 
3 101 78 90 
3 79 80 92 
3 91 77 92 
3 92 77 79 
3 81 70 93 
3 70 101 93 
3 81 93 94 
3 94 92 80 
3 80 81 94 
3 82 105 102 
3 83 84 95 
3 102 84 82 
3 95 84 102 
3 124 113 125 
3 74 96 124 
3 124 96 113 
3 83 95 85 
3 96 74 97 
3 76 118 97 
3 118 76 98 
3 85 117 86 
3 99 98 89 
3 89 98 76 
3 89 88 99 
3 86 119 90 
3 100 106 88 
3 100 88 91 
3 107 90 119 
3 91 92 100 
3 90 107 101 
3 94 93 92 
3 102 109 103 
3 109 102 104 
3 105 104 102 
3 103 95 102 
3 95 115 85 
3 96 116 114 
3 97 116 96 
3 85 115 117 
3 97 118 116 
3 118 98 99 
3 117 119 86 
3 99 88 120 
3 120 88 106 
3 119 122 107 
3 100 92 106 
3 101 136 92 
3 136 108 92 
3 108 106 92 
3 92 93 101 
3 110 109 104 
3 104 105 110 
3 103 111 115 
3 95 103 115 
3 109 112 103 
3 112 111 103 
3 96 114 113 
3 99 120 118 
3 121 120 106 
3 123 136 101 
3 123 101 107 
3 109 110 137 
3 105 138 110 
3 105 139 138 
3 105 124 139 
3 111 126 115 
3 127 126 111 
3 127 111 141 
3 141 111 112 
3 137 112 109 
3 141 112 137 
3 113 143 125 
3 114 128 113 
3 145 126 127 
3 115 126 145 
3 114 129 128 
3 114 116 129 
3 117 145 130 
3 115 145 117 
3 116 118 129 
3 117 130 131 
3 134 132 152 
3 118 152 129 
3 117 131 119 
3 136 119 131 
3 118 120 134 
3 152 118 134 
3 135 136 133 
3 132 135 133 
3 134 135 132 
3 120 121 134 
3 122 119 123 
3 123 119 136 
3 106 108 135 
3 106 135 134 
3 121 106 134 
3 122 123 107 
3 108 136 135 
3 138 137 110 
3 139 124 157 
3 124 125 157 
3 137 142 141 
3 142 140 141 
3 143 113 128 
3 146 143 128 
3 144 145 141 
3 141 145 127 
3 146 128 152 
3 128 129 147 
3 128 147 152 
3 130 144 131 
3 145 144 130 
3 131 158 148 
3 144 158 131 
3 146 150 151 
3 147 129 152 
3 149 131 148 
3 153 160 136 
3 136 160 150 
3 146 133 150 
3 152 133 146 
3 149 136 131 
3 153 136 149 
3 150 133 136 
3 152 132 133 
3 140 154 141 
3 154 140 142 
3 142 137 155 
3 138 139 156 
3 138 156 137 
3 137 156 155 
3 156 139 157 
3 157 125 143 
3 141 154 144 
3 155 158 142 
3 158 154 142 
3 156 158 155 
3 157 160 156 
3 143 159 157 
3 158 144 154 
3 156 148 158 
3 149 148 156 
3 149 156 153 
3 153 156 160 
3 159 160 157 
3 151 150 160 
3 151 160 143 
3 143 160 159 
3 146 151 143 
3 161 164 163 
3 163 164 170 
3 165 161 162 
3 166 165 162 
3 164 161 165 
3 167 164 165 
3 167 170 164 
3 167 165 177 
3 162 169 173 
3 168 169 162 
3 168 162 161 
3 163 168 161 
3 167 176 170 
3 172 162 173 
3 162 172 166 
3 171 170 174 
3 174 170 176 
3 172 173 175 
3 166 172 175 
3 166 175 165 
3 178 167 177 
3 176 167 178 
3 179 180 174 
3 179 174 176 
3 176 178 179 
3 169 181 197 
3 169 168 181 
3 163 183 182 
3 184 173 169 
3 184 169 197 
3 163 170 183 
3 171 185 170 
3 170 185 183 
3 171 186 201 
3 185 171 201 
3 201 186 187 
3 174 186 171 
3 187 186 188 
3 187 188 189 
3 175 184 190 
3 175 173 184 
3 165 175 177 
3 186 174 180 
3 188 186 180 
3 175 190 177 
3 191 189 180 
3 180 189 188 
3 190 193 177 
3 178 177 193 
3 178 192 179 
3 191 180 213 
3 178 193 192 
3 194 180 179 
3 213 180 194 
3 195 192 193 
3 196 192 195 
3 196 215 192 
3 179 192 215 
3 194 179 215 
3 197 181 206 
3 206 181 198 
3 168 198 181 
3 163 199 168 
3 163 182 199 
3 183 200 182 
3 206 210 197 
3 210 184 197 
3 185 211 183 
3 185 201 211 
3 202 187 189 
3 212 190 184 
3 189 203 202 
3 203 189 191 
3 193 190 212 
3 204 195 193 
3 205 215 196 
3 216 195 204 
3 196 195 216 
3 205 196 216 
3 207 206 198 
3 168 208 198 
3 168 199 208 
3 182 217 199 
3 182 200 217 
3 209 200 183 
3 206 207 210 
3 183 211 209 
3 210 221 184 
3 187 202 201 
3 221 212 184 
3 202 203 219 
3 203 191 222 
3 213 223 191 
3 223 222 191 
3 225 193 212 
3 193 225 214 
3 193 214 204 
3 194 215 226 
3 205 216 215 
3 198 227 207 
3 207 227 218 
3 208 227 198 
3 199 227 208 
3 199 217 227 
3 200 209 217 
3 207 218 210 
3 210 220 221 
3 202 219 201 
3 222 219 203 
3 243 212 221 
3 223 224 222 
3 243 225 212 
3 194 226 213 
3 204 214 235 
3 216 204 235 
3 215 216 236 
3 216 235 236 
3 218 227 247 
3 217 209 227 
3 210 229 228 
3 218 229 210 
3 211 230 209 
3 201 230 211 
3 210 228 220 
3 228 231 220 
3 219 232 230 
3 219 230 201 
3 219 222 232 
3 220 231 221 
3 221 233 243 
3 222 224 232 
3 232 224 241 
3 241 224 223 
3 242 241 223 
3 223 213 242 
3 214 225 257 
3 235 214 257 
3 226 215 234 
3 213 226 234 
3 236 235 237 
3 229 238 228 
3 238 229 247 
3 247 229 218 
3 230 248 209 
3 238 239 228 
3 228 239 231 
3 221 231 239 
3 239 233 221 
3 232 241 240 
3 241 242 254 
3 243 277 225 
3 242 213 255 
3 213 234 255 
3 234 244 255 
3 245 244 236 
3 244 215 236 
3 244 234 215 
3 237 235 259 
3 237 259 246 
3 245 236 237 
3 245 237 246 
3 209 248 227 
3 238 249 239 
3 232 248 230 
3 249 261 250 
3 249 250 239 
3 232 251 248 
3 250 233 239 
3 252 233 250 
3 240 264 251 
3 232 240 251 
3 252 263 233 
3 264 240 254 
3 254 240 241 
3 233 263 243 
3 263 253 243 
3 277 243 253 
3 254 255 256 
3 242 255 254 
3 225 277 257 
3 255 244 266 
3 244 246 266 
3 257 259 235 
3 258 259 257 
3 245 246 244 
3 238 260 262 
3 247 260 238 
3 247 271 260 
3 227 278 247 
3 248 278 227 
3 238 262 249 
3 251 278 248 
3 261 249 262 
3 261 252 250 
3 261 262 252 
3 262 263 252 
3 275 251 264 
3 276 275 264 
3 264 265 276 
3 265 264 254 
3 255 276 256 
3 265 254 256 
3 276 265 256 
3 276 255 266 
3 277 267 257 
3 257 267 268 
3 268 258 257 
3 259 258 268 
3 259 268 269 
3 269 246 259 
3 260 270 262 
3 270 260 271 
3 271 247 278 
3 270 272 262 
3 262 272 263 
3 275 274 273 
3 275 273 251 
3 263 272 253 
3 272 279 253 
3 279 282 253 
3 276 266 283 
3 283 266 285 
3 246 287 285 
3 285 266 246 
3 269 295 246 
3 295 287 246 
3 278 251 290 
3 270 279 272 
3 280 281 273 
3 273 281 251 
3 273 274 280 
3 274 275 280 
3 275 291 280 
3 283 291 275 
3 275 276 283 
3 282 277 253 
3 267 277 286 
3 295 284 287 
3 284 285 287 
3 268 267 288 
3 267 286 288 
3 269 268 288 
3 269 288 295 
3 270 289 279 
3 270 271 289 
3 278 290 271 
3 251 305 290 
3 280 297 281 
3 291 297 280 
3 297 291 283 
3 297 283 292 
3 310 299 282 
3 293 292 285 
3 285 292 283 
3 282 299 277 
3 293 284 294 
3 293 285 284 
3 286 301 288 
3 286 277 301 
3 294 284 303 
3 303 284 295 
3 271 296 289 
3 271 290 307 
3 296 271 307 
3 289 296 279 
3 307 304 296 
3 290 305 307 
3 251 308 305 
3 281 308 251 
3 279 296 282 
3 296 304 282 
3 304 310 282 
3 297 293 298 
3 297 292 293 
3 294 300 298 
3 293 294 298 
3 277 299 301 
3 299 317 301 
3 301 317 288 
3 295 288 303 
3 288 317 303 
3 302 300 303 
3 294 303 300 
3 304 307 306 
3 308 281 309 
3 297 309 281 
3 310 304 306 
3 311 309 297 
3 311 312 313 
3 297 300 311 
3 298 300 297 
3 311 314 312 
3 302 314 300 
3 300 314 311 
3 312 303 317 
3 314 303 312 
3 302 303 314 
3 305 315 307 
3 308 316 305 
3 305 316 315 
3 318 316 309 
3 309 316 308 
3 306 307 310 
3 310 307 317 
3 317 307 315 
3 318 313 321 
3 318 309 313 
3 309 311 313 
3 310 317 299 
3 317 321 312 
3 313 312 321 
3 319 315 316 
3 317 315 319 
3 317 319 320 
3 320 319 316 
3 316 318 321 
3 316 321 320 
3 321 317 323 

POINT_DATA 324
COLOR_SCALARS scalars 3
1 0.701961 0.85098 1 0.701961 0.85098 1 0.701961 0.85098 
1 0.701961 0.85098 1 0.701961 0.85098 
1 0.701961 0.85098 1 0.701961 0.85098 
1 0.701961 0.85098 1 0.701961 0.85098 
1 0.701961 0.85098 1 0.701961 0.85098 
1 0.701961 0.85098 1 0.701961 0.85098 
1 0.701961 0.85098 1 0.701961 0.85098 
1 0.701961 0.85098 1 0.701961 0.85098 
1 0.701961 0.85098 1 0.701961 0.85098 
1 0.701961 0.85098 1 0.701961 0.85098 
1 0.701961 0.85098 1 0.701961 0.85098 
1 0.701961 0.85098 1 0.701961 0.85098 
1 0.701961 0.85098 1 0.701961 0.85098 
1 0.701961 0.85098 1 0.701961 0.85098 
1 0.701961 0.85098 1 0.701961 0.85098 
1 0.701961 0.85098 1 0.701961 0.85098 
1 0.701961 0.85098 1 0.701961 0.85098 
1 0.701961 0.85098 1 0.701961 0.85098 
1 0.701961 0.85098 1 0.701961 0.85098 
1 0.701961 0.85098 1 0.701961 0.85098 
1 0.701961 0.85098 1 0.701961 0.85098 
1 0.701961 0.85098 1 0.701961 0.85098 
1 0.701961 0.85098 1 0.701961 0.85098 
1 0.701961 0.85098 1 0.701961 0.85098 
1 0.701961 0.85098 1 0.701961 0.85098 
1 0.701961 0.85098 1 0.701961 0.85098 
1 0.701961 0.85098 1 0.701961 0.85098 
1 0.701961 0.85098 1 0.701961 0.85098 
1 0.701961 0.85098 1 0.701961 0.85098 
1 0.701961 0.85098 1 0.701961 0.85098 
1 0.701961 0.85098 1 0.701961 0.85098 
1 0.701961 0.85098 1 0.701961 0.85098 
1 0.701961 0.85098 1 0.701961 0.85098 
1 0.701961 0.85098 1 0.701961 0.85098 
1 0.701961 0.85098 1 0.701961 0.85098 
1 0.701961 0.85098 1 0.701961 0.85098 
1 0.701961 0.85098 1 0.701961 0.85098 
1 0.701961 0.85098 1 0.701961 0.85098 
1 0.701961 0.85098 1 0.701961 0.85098 
1 0.701961 0.85098 1 0.701961 0.85098 
1 0.701961 0.85098 1 0.701961 0.85098 
1 0.701961 0.85098 1 0.701961 0.85098 
1 0.701961 0.85098 1 0.701961 0.85098 
1 0.701961 0.85098 1 0.701961 0.85098 
1 0.701961 0.85098 1 0.701961 0.85098 
1 0.701961 0.85098 1 0.701961 0.85098 
1 0.701961 0.85098 1 0.701961 0.85098 
1 0.701961 0.85098 1 0.701961 0.85098 
1 0.701961 0.85098 1 0.701961 0.85098 
1 0.701961 0.85098 1 0.701961 0.85098 
1 0.701961 0.85098 1 0.701961 0.85098 
1 0.701961 0.85098 1 0.701961 0.85098 
1 0.701961 0.85098 1 0.701961 0.85098 
1 0.701961 0.85098 1 0.701961 0.85098 
1 0.701961 0.85098 1 0.701961 0.85098 
1 0.701961 0.85098 1 0.701961 0.85098 
1 0.701961 0.85098 1 0.701961 0.85098 
1 0.701961 0.85098 1 0.701961 0.85098 
1 0.701961 0.85098 1 0.701961 0.85098 
1 0.701961 0.85098 1 0.701961 0.85098 
1 0.701961 0.85098 1 0.701961 0.85098 
1 0.701961 0.85098 1 0.701961 0.85098 
1 0.701961 0.85098 1 0.701961 0.85098 
1 0.701961 0.85098 1 0.701961 0.85098 
1 0.701961 0.85098 1 0.701961 0.85098 
1 0.701961 0.85098 1 0.701961 0.85098 
1 0.701961 0.85098 1 0.701961 0.85098 
1 0.701961 0.85098 1 0.701961 0.85098 
1 0.701961 0.85098 1 0.701961 0.85098 
1 0.701961 0.85098 1 0.701961 0.85098 
1 0.701961 0.85098 1 0.701961 0.85098 
1 0.701961 0.85098 1 0.701961 0.85098 
1 0.701961 0.85098 1 0.701961 0.85098 
1 0.701961 0.85098 1 0.701961 0.85098 
1 0.701961 0.85098 1 0.701961 0.85098 
1 0.701961 0.85098 1 0.701961 0.85098 
1 0.701961 0.85098 1 0.701961 0.85098 
1 0.701961 0.85098 1 0.701961 0.85098 
1 0.701961 0.85098 1 0.701961 0.85098 
1 0.701961 0.85098 1 0.701961 0.85098 
1 0.701961 0.85098 1 0.701961 0.85098 
1 0.701961 0.85098 1 0.701961 0.85098 
1 0.701961 0.85098 1 0.701961 0.85098 
1 0.701961 0.85098 1 0.701961 0.85098 
1 0.701961 0.85098 1 0.701961 0.85098 
1 0.701961 0.85098 1 0.701961 0.85098 
1 0.701961 0.85098 1 0.701961 0.85098 
1 0.701961 0.85098 1 0.701961 0.85098 
1 0.701961 0.85098 1 0.701961 0.85098 
1 0.701961 0.85098 1 0.701961 0.85098 
1 0.701961 0.85098 1 0.701961 0.85098 
1 0.701961 0.85098 1 0.701961 0.85098 
1 0.701961 0.85098 1 0.701961 0.85098 
1 0.701961 0.85098 1 0.701961 0.85098 
1 0.701961 0.85098 1 0.701961 0.85098 
1 0.701961 0.85098 1 0.701961 0.85098 
1 0.701961 0.85098 1 0.701961 0.85098 
1 0.701961 0.85098 1 0.701961 0.85098 
1 0.701961 0.85098 1 0.701961 0.85098 
1 0.701961 0.85098 1 0.701961 0.85098 
1 0.701961 0.85098 1 0.701961 0.85098 
1 0.701961 0.85098 1 0.701961 0.85098 
1 0.701961 0.85098 1 0.701961 0.85098 
1 0.701961 0.85098 1 0.701961 0.85098 
1 0.701961 0.85098 1 0.701961 0.85098 
1 0.701961 0.85098 1 0.701961 0.85098 
1 0.701961 0.85098 1 0.701961 0.85098 
1 0.701961 0.85098 1 0.701961 0.85098 
1 0.701961 0.85098 1 0.701961 0.85098 
1 0.701961 0.85098 1 0.701961 0.85098 
1 0.701961 0.85098 1 0.701961 0.85098 
1 0.701961 0.85098 1 0.701961 0.85098 
1 0.701961 0.85098 1 0.701961 0.85098 
1 0.701961 0.85098 1 0.701961 0.85098 
1 0.701961 0.85098 1 0.701961 0.85098 
1 0.701961 0.85098 1 0.701961 0.85098 
1 0.701961 0.85098 1 0.701961 0.85098 
1 0.701961 0.85098 1 0.701961 0.85098 
1 0.701961 0.85098 1 0.701961 0.85098 
1 0.701961 0.85098 1 0.701961 0.85098 
1 0.701961 0.85098 1 0.701961 0.85098 
1 0.701961 0.85098 1 0.701961 0.85098 
1 0.701961 0.85098 1 0.701961 0.85098 
1 0.701961 0.85098 1 0.701961 0.85098 
1 0.701961 0.85098 1 0.701961 0.85098 
1 0.701961 0.85098 1 0.701961 0.85098 
1 0.701961 0.85098 1 0.701961 0.85098 
1 0.701961 0.85098 1 0.701961 0.85098 
1 0.701961 0.85098 1 0.701961 0.85098 
1 0.701961 0.85098 1 0.701961 0.85098 
1 0.701961 0.85098 1 0.701961 0.85098 
1 0.701961 0.85098 1 0.701961 0.85098 
1 0.701961 0.85098 1 0.701961 0.85098 
1 0.701961 0.85098 1 0.701961 0.85098 
1 0.701961 0.85098 1 0.701961 0.85098 
1 0.701961 0.85098 1 0.701961 0.85098 
1 0.701961 0.85098 1 0.701961 0.85098 
1 0.701961 0.85098 1 0.701961 0.85098 
1 0.701961 0.85098 1 0.701961 0.85098 
1 0.701961 0.85098 1 0.701961 0.85098 
1 0.701961 0.85098 1 0.701961 0.85098 
1 0.701961 0.85098 1 0.701961 0.85098 
1 0.701961 0.85098 1 0.701961 0.85098 
1 0.701961 0.85098 1 0.701961 0.85098 
1 0.701961 0.85098 1 0.701961 0.85098 
1 0.701961 0.85098 1 0.701961 0.85098 
1 0.701961 0.85098 1 0.701961 0.85098 
1 0.701961 0.85098 1 0.701961 0.85098 
1 0.701961 0.85098 1 0.701961 0.85098 
1 0.701961 0.85098 1 0.701961 0.85098 
1 0.701961 0.85098 1 0.701961 0.85098 
1 0.701961 0.85098 1 0.701961 0.85098 
1 0.701961 0.85098 1 0.701961 0.85098 
1 0.701961 0.85098 1 0.701961 0.85098 
1 0.701961 0.85098 1 0.701961 0.85098 
1 0.701961 0.85098 1 0.701961 0.85098 
1 0.701961 0.85098 1 0.701961 0.85098 
1 0.701961 0.85098 1 0.701961 0.85098 
1 0.701961 0.85098 1 0.701961 0.85098 
1 0.701961 0.85098 1 0.701961 0.85098 
1 0.701961 0.85098 1 0.701961 0.85098 
1 0.701961 0.85098 
NORMALS Normals float
-0.250379 0.0164421 -0.968008 0.519523 0.802316 -0.293913 0.309599 -0.284394 -0.907341 
-0.316874 0.105473 -0.942585 -0.3469 0.393013 -0.851588 -0.00622766 0.108946 -0.994028 
0.189258 -0.231664 -0.954208 0.299651 0.211039 -0.930415 0.0592419 0.421626 -0.904832 
-0.290108 -0.449321 -0.844954 0.155735 -0.469275 -0.869211 0.250747 -0.577074 -0.777246 
-0.638746 -0.211837 -0.739681 0.447873 -0.056918 -0.892284 0.484855 -0.0828448 -0.870662 
-0.553676 0.08891 -0.827972 0.506099 0.127718 -0.852967 -0.521081 0.299981 -0.799053 
-0.347826 0.480406 -0.805126 -0.18134 0.600711 -0.778628 0.0453587 0.620765 -0.782683 
0.224446 0.529864 -0.817844 0.222129 0.614064 -0.757353 0.23895 0.765511 -0.597408 
-0.127711 -0.676204 -0.72556 0.348536 -0.514634 -0.783374 0.653839 -0.0992363 -0.750098 
0.590635 -0.336395 -0.733477 -0.844242 0.224105 -0.48686 0.765998 -0.091758 -0.63626 
-0.547971 0.501096 -0.669799 -0.614228 0.567861 -0.547958 0.662085 0.291699 -0.69033 
-0.228858 0.709681 -0.666315 0.389035 0.646613 -0.656158 -0.455745 -0.572599 -0.681489 
-0.761229 -0.431536 -0.484054 -0.629801 -0.282859 -0.723423 -0.848862 0.107214 -0.517628 
0.507809 -0.590951 -0.626823 0.735616 -0.317348 -0.598465 0.739909 -0.414259 -0.530023 
0.892783 -0.0740632 -0.444358 0.846495 0.178212 -0.501683 0.492311 0.753389 -0.435929 
-0.277978 0.848938 -0.44948 0.247895 0.81956 -0.516594 -0.442391 -0.793726 -0.41748 
-0.141933 -0.834018 -0.533168 0.258103 -0.768155 -0.585935 -0.9016 -0.0322888 -0.431363 
-0.72571 0.615553 -0.307308 0.879891 0.345019 -0.326732 0.0729325 -0.895365 -0.43932 
0.699924 -0.562273 -0.440404 -0.931931 0.323499 -0.163871 -0.892585 0.445938 -0.0665686 
-0.150495 0.962748 -0.22465 0.313403 0.88422 -0.346313 0.0813775 0.977597 -0.194117 
0.389193 -0.795459 -0.464514 -0.988892 -0.0678221 -0.13226 0.964659 -0.0651752 -0.255313 
0.972843 0.222101 -0.065166 0.590566 0.775796 -0.222198 -0.0481079 0.998841 -0.00179215 
0.22655 0.972407 -0.0556835 0.0729141 -0.969734 -0.233024 -0.997547 -0.0292174 -0.063613 
-0.550311 0.83468 -0.0216131 -0.324952 0.932699 0.156456 0.454108 0.890901 -0.00903603 
-0.32212 -0.917373 -0.233806 0.233037 -0.962555 -0.138494 0.414847 -0.868341 -0.271819 
-0.818495 -0.546253 -0.177971 0.94746 -0.319503 -0.015426 0.821776 0.569013 0.0301492 
-0.419093 0.887767 0.190345 0.638481 0.761449 0.111976 0.319527 0.937279 0.13932 
-0.0765808 0.970816 0.227272 -0.41767 -0.895028 -0.156451 -0.796952 -0.597194 -0.0907007 
-0.646452 -0.75731 -0.0926357 -0.994739 0.0333861 0.0968459 -0.855006 0.501974 0.13033 
0.989214 0.143572 0.0290325 0.864971 0.408691 0.2912 0.996312 0.0146033 0.0845563 
-0.646052 0.737112 0.198198 0.733036 0.631585 0.252505 0.403719 0.81125 0.422947 
-0.0329908 0.875049 0.482909 0.182573 0.931771 0.313799 -0.860514 -0.506677 0.0528567 
0.534699 -0.844963 -0.0115636 0.750651 -0.633959 -0.186064 0.969168 -0.233102 0.0798531 
0.923406 0.207396 0.322969 0.716568 0.515137 0.470281 -0.0927626 0.911919 0.399749 
-0.477443 -0.878639 0.00652939 -0.788398 -0.606388 0.103542 -0.295981 -0.940309 0.167974 
-0.103895 -0.983593 0.147477 0.498775 0.567729 0.65491 -0.477175 0.757669 0.445244 
0.23921 0.721409 0.649883 -0.56792 -0.784078 0.250377 -0.2449 -0.878518 0.410158 
-0.764784 -0.548379 0.338209 -0.731607 -0.567904 0.377141 0.385074 -0.87534 0.292402 
0.617584 -0.721222 0.313732 -0.945679 -0.169402 0.277478 0.799617 -0.552164 0.236068 
-0.790051 0.358754 0.497107 0.875725 -0.173712 0.450477 -0.550751 0.561519 0.617552 
0.737732 0.369466 0.565019 0.339428 0.529854 0.777202 -0.356836 0.608529 0.708774 
0.0323943 0.690733 0.722384 0.173018 -0.957072 0.232548 0.207648 -0.810099 0.54829 
-0.867062 -0.243832 0.434454 -0.742934 -0.357476 0.565915 0.503303 -0.590525 0.630845 
0.67481 -0.391519 0.625575 -0.559417 0.363239 0.745057 -0.411891 0.386696 0.825113 
0.438547 0.201091 0.875922 0.148461 0.252412 0.956163 0.490548 0.278304 0.825778 
0.197581 0.491078 0.848413 -0.0233575 0.578814 0.815125 -0.388311 -0.608878 0.691724 
-0.120708 -0.715734 0.687863 0.0189471 -0.76437 0.6445 -0.508946 -0.332908 0.793817 
-0.666462 -0.392109 0.634097 -0.381105 -0.368191 0.848053 0.317754 -0.532403 0.784589 
-0.592804 0.121816 0.796081 -0.798649 0.0651188 0.598263 0.398707 -0.138192 0.906607 
0.490382 -0.43985 0.752368 -0.274762 0.100055 0.956292 -0.188862 0.212556 0.958724 
0.11604 0.183107 0.976221 0.24704 -0.135926 0.959424 0.52665 -0.169242 0.833065 
-0.0343279 0.151292 0.987893 -0.459413 -0.0895475 0.883697 -0.178897 -0.312543 0.932905 
-0.0782334 -0.259125 0.96267 0.0568013 -0.558102 0.827826 -0.330305 0.0558707 0.942219 
0.106039 -0.311878 0.944186 0.0492064 -0.052398 0.997413 -0.285452 -0.50285 -0.81588 
-0.569296 -0.519278 -0.637379 0.0380905 -0.73657 -0.675288 0.0178021 -0.390091 -0.920604 
-0.344399 -0.078142 -0.935566 -0.563979 0.00720089 -0.825758 4.14374e-05 -0.0792556 -0.996854 
-0.196684 -0.862237 -0.466758 -0.555752 -0.627571 -0.545247 0.271863 -0.511096 -0.815397 
0.454335 -0.589559 -0.667833 -0.686347 -0.26961 -0.675454 -0.775449 -0.280494 -0.565687 
0.45665 -0.174641 -0.872337 -0.636819 0.256985 -0.726925 0.216073 -0.0306338 -0.975896 
-0.358256 0.271059 -0.893409 -0.0338497 0.277675 -0.960079 0.29172 0.24917 -0.923479 
0.58833 0.0628934 -0.806171 -0.227447 -0.923667 -0.308395 0.138447 -0.904591 -0.403172 
0.324422 -0.797351 -0.508902 -0.883168 -0.12027 -0.453376 0.359244 -0.781385 -0.510275 
0.608231 -0.383331 -0.695063 0.702202 -0.528822 -0.476717 0.676176 -0.168186 -0.717286 
0.777289 -0.264833 -0.570688 -0.68824 0.298676 -0.66115 0.87852 -0.0618002 -0.473692 
0.0919215 0.428862 -0.898681 -0.446451 0.52304 -0.726023 0.5106 0.412781 -0.754254 
-0.104254 0.614262 -0.782185 0.0828121 0.631769 -0.77072 -0.636547 -0.712568 -0.29505 
-0.166547 -0.977455 -0.129783 0.00390429 -0.967882 -0.251375 0.235723 -0.936405 -0.259963 
0.571405 -0.766375 -0.29354 0.736226 -0.644032 -0.207832 0.883473 -0.430932 -0.183777 
-0.32026 0.765491 -0.558084 0.137752 0.779206 -0.611443 -0.579256 -0.806129 -0.120908 
-0.531549 -0.844304 0.0678653 -0.0885221 -0.983486 -0.157858 0.304373 -0.95255 0.00229527 
-0.876728 -0.459782 -0.141235 0.434312 -0.878347 -0.199698 -0.829108 0.369621 -0.419478 
0.81287 0.396039 -0.427077 -0.539992 0.767969 -0.34443 0.352459 0.734122 -0.580377 
-0.0247358 0.854842 -0.518298 0.143346 -0.988132 -0.0552016 -0.573781 -0.811897 0.107697 
0.737088 -0.673311 0.0579159 -0.965464 -0.209422 -0.154988 -0.967235 0.119065 -0.224231 
0.952971 -0.303058 -0.000943862 0.979814 0.0379002 -0.196288 0.978685 -0.176577 0.104863 
-0.710846 0.667842 -0.220646 0.670916 0.620698 -0.405717 -0.0397769 -0.983121 0.178578 
-0.873143 -0.487464 0.00076382 -0.710666 -0.689487 0.139863 0.506324 -0.851184 0.138281 
-0.978401 -0.205976 -0.0174925 0.807937 -0.539268 0.237546 -0.943306 0.331819 0.00841703 