# vtk DataFile Version 4.2
vtk output
ASCII
DATASET POLYDATA
POINTS 896 float
309.761 25.9533 134.58 309.701 25.9251 134.625 309.812 26.0172 134.646 
309.651 25.7665 134.775 309.841 26.2796 134.748 309.618 26.9681 134.962 
309.822 27.2166 135.028 309.922 27.5894 135.206 309.467 25.4333 135.128 
309.612 25.5198 135.002 309.563 25.3208 135.24 309.743 25.3884 135.265 
309.445 25.7126 134.989 309.29 27.9031 135.454 310.315 27.2338 135.489 
309.799 29.2859 135.924 309.694 29.5915 136.146 310.07 29.1732 135.997 
309.911 29.5424 136.106 309.161 26.2889 135.251 308.854 26.2794 135.74 
309.03 27.4883 135.578 310.428 28.1473 135.934 309.166 29.014 136.014 
308.974 28.7669 136.088 309.231 29.3351 136.184 309.422 29.6221 136.314 
310.3 29.3162 136.323 309.87 29.7788 136.318 309.953 29.9285 136.604 
309.131 24.7532 136.533 308.862 25.1963 136.284 310.185 24.921 136.543 
310.462 25.3464 136.423 310.579 25.8149 136.299 308.476 27.3513 136.359 
310.936 27.3113 136.782 310.561 29.1385 136.681 309.147 23.8122 137.844 
310.106 24.1988 137.404 309.963 24.0296 137.577 308.227 24.4593 137.634 
308.648 24.6048 137.129 310.303 24.4759 137.266 310.413 24.7787 136.948 
307.983 25.4602 137.358 308.58 29.509 137.409 309.055 29.8239 136.982 
310.783 29.4833 137.613 310.05 30.3147 137.796 310.635 24.444 138.014 
307.642 25.8336 137.861 308.103 29.1124 137.966 308.672 30.1137 138.332 
309.009 30.4189 138.518 310.374 30.1796 137.926 310.615 30.0371 138.379 
306.933 25.4128 139.329 306.769 26.1086 139.523 306.962 27.7095 139.527 
308.244 29.789 138.661 308.16 29.9413 139.404 309.154 30.5526 139.018 
309.656 30.6004 139.122 310.707 23.2311 140.057 311.911 27.0751 139.917 
310.778 30.0465 139.673 308.421 30.2248 140.026 310.063 30.5392 139.651 
309.972 30.5079 140.425 310.408 30.3723 139.477 310.346 22.4272 141.128 
311.509 23.9089 140.497 311.724 24.4607 140.364 312.325 25.7958 141.395 
311.356 29.5468 141.172 308.614 30.291 141.015 309.433 30.4884 140.959 
310.58 30.2078 141.038 305.796 22.2885 143.073 307.758 21.8817 142.139 
305.33 23.3204 142.626 312.495 26.7979 142.078 311.864 28.917 142.206 
311.087 29.8499 141.295 309.116 30.3736 141.822 309.808 30.3871 141.827 
309.215 21.4369 142.729 305.174 22.7362 143.281 306.273 21.6647 143.473 
312.335 23.5303 142.879 305.078 26.3952 142.702 305.941 27.9065 142.159 
305.981 28.7231 143.451 306.781 29.2533 142.965 311.744 29.1614 142.833 
308.548 30.1238 143.431 310.835 29.9825 142.51 312.388 22.8667 143.696 
313.01 26.2572 143.755 307.427 29.794 144.512 311.896 21.5039 144.758 
312.564 21.701 145.367 312.828 22.988 144.45 312.607 28.0196 144.321 
310.947 20.5039 145.623 312.201 20.779 146.239 312.676 21.2432 146.119 
313.358 22.5128 145.908 313.589 23.2368 145.894 313.79 24.2473 146.019 
303.638 27.1846 145.925 304.789 28.8265 146.36 312.194 20.3616 147.014 
313.544 21.4227 147.334 313.845 22.1028 147.284 302.829 24.8825 146.143 
314.171 24.4608 147.22 303.089 27.5137 147.426 304.001 28.1986 146.489 
303.865 28.3418 147.024 304.155 28.6686 147.231 306.886 29.6784 147.122 
312.857 20.4163 147.729 301.724 22.0384 148.124 311.306 19.3319 148.714 
300.879 24.9982 149.438 302.023 27.3522 149.405 302.485 27.6516 148.958 
314.265 20.2082 150.31 315.065 23.7787 149.798 301.185 26.2211 149.628 
302.483 27.8443 149.482 308.685 29.2612 149.969 303.574 28.6105 150.126 
314.732 21.1691 150.114 314.988 21.9001 150.164 315.145 25.4175 151.095 
299.298 20.5477 152.236 299.382 20.1656 152.54 298.97 20.9416 152.338 
298.832 21.6516 152.203 299.566 24.9052 151.499 300.182 26.003 151.379 
315.289 25.6232 151.909 300.564 26.7122 151.649 302.476 28.2296 151.836 
313.042 27.9277 151.695 300.076 19.4039 153.077 297.944 21.2056 153.491 
315.853 21.7174 152.368 298.072 22.6367 153.04 315.912 24.2725 152.528 
298.923 25.7829 153.345 299.584 26.3786 153.015 315.002 26.4485 152.868 
300.524 27.1211 152.766 314.106 27.2689 152.517 300.817 27.5686 153.672 
302.535 28.1855 153.383 297.838 23.6176 153.559 298.818 26.5603 154.472 
299.091 26.9581 154.815 315.152 26.5586 154.141 300.547 27.596 154.461 
296.851 20.0251 155.713 299.176 18.6293 155.486 316.965 23.1496 154.74 
316.602 24.8315 155.045 316.679 24.9536 155.493 315.775 26.1026 154.629 
315.569 26.3054 154.448 315.668 26.2563 154.633 298.583 26.7121 155.148 
317.152 19.0239 156.331 316.992 23.9435 155.157 315.524 26.2241 155.105 
302.624 27.9564 155.727 298.583 27.0565 156.203 316.01 17.7608 156.862 
317.073 18.3127 157.01 316.982 24.8827 156.684 297.725 26.595 156.629 
299.2 27.3691 156.984 310.768 16.8567 157.862 316.667 17.4421 158.275 
295.405 19.6452 158.208 295.069 22.7776 157.714 317.452 24.2677 157.1 
316.638 25.2272 157.71 315.152 16.7061 159.224 317.886 18.0165 158.841 
295.753 18.788 158.917 318.528 19.0277 158.805 318.797 19.3289 159.195 
294.323 20.7898 158.873 293.965 21.4172 159.209 294.399 23.4943 159.012 
317.398 17.2226 159.861 318.911 19.9422 159.234 318.962 20.7022 159.308 
293.553 22.1973 159.781 318.009 23.7411 159.574 294.362 24.4292 159.716 
295.177 25.7837 160.296 301.309 27.153 159.444 297.107 26.6178 160.118 
319.057 18.2769 160.657 292.549 18.9194 161.916 293.712 17.98 162.132 
319.419 18.376 161.33 292.398 19.2769 161.756 319.518 19.4146 160.807 
319.447 21.6186 161.064 292.623 23.0229 161.436 318.578 23.0634 160.232 
319.334 17.8553 161.861 319.793 20.3702 161.381 291.658 21.2144 162.091 
319.353 22.6148 162.296 292.853 24.5494 162.511 293.997 25.4393 162.304 
319.011 17.2168 162.457 291.499 18.8649 163.279 293.921 17.4592 163.143 
291.281 20.5255 162.617 291.174 21.8484 162.863 291.552 23.8193 163.563 
295.083 26.0475 162.017 295.473 26.1061 163.117 318.075 16.2765 163.496 
318.839 16.2475 164.321 320.69 17.2035 164.657 320.442 17.9341 163.716 
320.783 19.4136 163.621 320.32 21.5766 163.698 318.04 23.7335 163.745 
292.435 24.8432 163.681 318.787 15.9328 165.131 321.021 17.3039 165.057 
321.069 17.0151 165.493 295.668 16.5501 165.671 289.874 18.9403 165.629 
290.761 18.0208 165.587 321.421 18.3136 165.096 289.462 19.5685 165.842 
320.9 20.339 164.141 289.735 21.5282 165.14 320.393 21.7631 164.393 
320.08 22.2953 165.156 292.664 25.3137 164.868 293.226 25.5009 164.918 
294.521 16.6123 166.49 303.567 15.974 165.675 290.043 18.14 166.527 
321.324 20.6872 165.678 321.726 20.155 166.245 317.732 15.445 166.652 
291.027 17.4317 166.822 292.641 16.831 167.556 322.138 19.0212 166.667 
321.216 21.3577 167.345 289.416 23.2106 166.805 289.774 23.7024 166.835 
322.088 16.2441 168.261 322.412 16.4376 168.398 312.945 15.4596 167.702 
322.524 16.7787 168.286 295.133 16.4856 168.03 322.381 19.034 167.361 
322.619 18.7272 167.962 317.348 23.1226 167.438 289.821 24.3153 168.572 
315.61 15.4075 168.415 317.406 15.4099 168.234 322.374 16.2632 168.672 
304.2 15.9258 168.074 307.203 15.9284 168.9 311.891 15.6306 168.452 
322.732 16.9698 168.682 322.543 19.4622 168.61 321.997 20.5326 168.265 
315.716 22.7003 169.023 321.42 21.123 168.737 305.687 23.6316 169.016 
296.145 24.7881 169.363 315.358 15.6834 169.407 320.788 15.7799 169.225 
321.93 15.9838 169.082 322.321 16.1708 169.01 322.544 16.411 169.233 
303.349 16.2789 169.889 305.147 16.2004 169.723 308.79 16.0207 169.397 
322.678 16.7839 169.38 294.92 16.7254 169.647 296.712 16.5563 169.391 
286.968 19.0021 170.19 322.714 17.7457 169.621 286.566 20.2309 170.218 
322.477 19.5871 169.179 322.333 19.6841 169.66 319.982 21.6386 169.45 
321.219 21.1167 169.228 287.196 22.4444 170.042 308.889 22.4599 170.248 
288.098 23.6748 170.359 310.605 16.1782 170.042 310.053 16.3048 170.18 
310.979 16.3268 170.333 315.914 16.0007 170.01 316.798 16.0188 170.075 
322.442 16.4904 169.557 298.84 16.679 170.226 301.641 16.6636 170.596 
303.941 16.5148 170.45 312.061 16.3131 170.142 314.575 16.3355 170.298 
317.417 16.3841 170.479 286.594 18.1942 171.986 289.45 17.4571 171.079 
296.588 16.755 170.031 322.528 17.4094 169.872 286.38 18.6215 171.402 
322.279 19.306 170.005 322.134 19.7664 169.987 318.896 21.6487 169.899 
321.804 20.085 170.085 287.279 23.2243 170.856 291.342 24.6488 170.372 
288.236 23.8892 170.944 310.257 16.6822 170.637 319.802 16.4235 170.336 
321.266 16.3022 169.984 322.157 16.2817 169.635 299.216 17.2326 171.228 
301.5 16.9906 171.049 304.087 16.8462 170.961 315.257 16.8252 170.75 
316.24 16.8382 170.802 320.511 16.8442 170.534 286.429 18.1937 172.489 
286.128 18.447 172.333 288.443 17.7486 171.907 295.87 17.3243 171.172 
296.882 17.0892 170.756 304.613 17.1957 171.27 317.833 17.437 171.117 
321.135 17.3136 170.6 286.14 18.8154 171.64 316.672 17.9317 171.322 
321.674 17.7978 170.525 315.479 18.5755 171.461 316.448 18.543 171.459 
318.206 18.7681 171.497 322.108 18.2537 170.309 314.269 19.2352 171.538 
317.918 19.135 171.501 319.582 19.2338 171.391 320.065 19.3669 171.296 
321.004 19.3743 170.986 319.764 19.624 171.311 319.048 20.7307 170.811 
303.621 22.6218 170.874 309.768 21.5403 170.988 286.645 23.0131 171.834 
296.887 23.7995 171.204 297.618 23.1379 171.892 287.259 23.3987 171.292 
289.494 24.2715 171.474 292.588 24.1106 171.71 287.59 23.6653 171.614 
299.033 17.6266 171.609 300.593 17.5457 171.592 302.306 17.3575 171.413 
286.073 18.296 172.576 285.981 18.3302 172.672 286.445 18.3054 172.824 
286.927 18.1517 172.688 296.303 17.752 171.798 301.329 18.0031 171.856 
285.961 18.4499 172.62 285.91 18.9365 172.724 302.116 18.5628 172.029 
304.9 19.0659 171.941 305.712 19.7384 171.904 285.846 20.8445 172.046 
312.758 20.4511 171.391 314.572 20.3177 171.358 319.477 20.0864 171.142 
285.974 21.6538 172.683 313.426 21.0327 171.07 286.701 23.2967 172.557 
288.562 23.8279 172.683 291.294 23.7922 172.452 285.974 18.4645 172.734 
286.144 18.5257 172.875 296.803 18.0724 172.075 285.994 19.2072 173.156 
285.826 19.4328 173.175 285.818 19.2327 173.034 286.244 18.8661 173.107 
289.353 19.5205 173.686 285.721 19.9685 173.021 285.816 20.1602 173.231 
289.378 19.9639 173.827 289.086 20.2354 173.867 290.75 20.0311 173.664 
294.897 19.9409 173.026 285.927 21.0259 172.999 289.715 20.4479 173.865 
[...]
POINT_DATA 896
COLOR_SCALARS scalars 3
0.0313725 0.521569 0.54902 0.0313725 0.521569 0.54902 0.0313725 0.521569 0.54902 
0.0313725 0.521569 0.54902 0.0313725 0.521569 0.54902 
0.0313725 0.521569 0.54902 0.0313725 0.521569 0.54902 
0.0313725 0.521569 0.54902 0.0313725 0.521569 0.54902 
0.0313725 0.521569 0.54902 0.0313725 0.521569 0.54902 
0.0313725 0.521569 0.54902 0.0313725 0.521569 0.54902 
0.0313725 0.521569 0.54902 0.0313725 0.521569 0.54902 
0.0313725 0.521569 0.54902 0.0313725 0.521569 0.54902 
0.0313725 0.521569 0.54902 0.0313725 0.521569 0.54902 
0.0313725 0.521569 0.54902 0.0313725 0.521569 0.54902 
0.0313725 0.521569 0.54902 0.0313725 0.521569 0.54902 
0.0313725 0.521569 0.54902 0.0313725 0.521569 0.54902 
0.0313725 0.521569 0.54902 0.0313725 0.521569 0.54902 
0.0313725 0.521569 0.54902 0.0313725 0.521569 0.54902 
0.0313725 0.521569 0.54902 0.0313725 0.521569 0.54902 
0.0313725 0.521569 0.54902 0.0313725 0.521569 0.54902 
0.0313725 0.521569 0.54902 0.0313725 0.521569 0.54902 
0.0313725 0.521569 0.54902 0.0313725 0.521569 0.54902 
0.0313725 0.521569 0.54902 0.0313725 0.521569 0.54902 
0.0313725 0.521569 0.54902 0.0313725 0.521569 0.54902 
0.0313725 0.521569 0.54902 0.0313725 0.521569 0.54902 
0.0313725 0.521569 0.54902 0.0313725 0.521569 0.54902 
0.0313725 0.521569 0.54902 0.0313725 0.521569 0.54902 
0.0313725 0.521569 0.54902 0.0313725 0.521569 0.54902 
0.0313725 0.521569 0.54902 0.0313725 0.521569 0.54902 
0.0313725 0.521569 0.54902 0.0313725 0.521569 0.54902 
0.0313725 0.521569 0.54902 0.0313725 0.521569 0.54902 
0.0313725 0.521569 0.54902 0.0313725 0.521569 0.54902 
0.0313725 0.521569 0.54902 0.0313725 0.521569 0.54902 
0.0313725 0.521569 0.54902 0.0313725 0.521569 0.54902 
0.0313725 0.521569 0.54902 0.0313725 0.521569 0.54902 
0.0313725 0.521569 0.54902 0.0313725 0.521569 0.54902 
0.0313725 0.521569 0.54902 0.0313725 0.521569 0.54902 
0.0313725 0.521569 0.54902 0.0313725 0.521569 0.54902 
0.0313725 0.521569 0.54902 0.0313725 0.521569 0.54902 
0.0313725 0.521569 0.54902 0.0313725 0.521569 0.54902 
0.0313725 0.521569 0.54902 0.0313725 0.521569 0.54902 
0.0313725 0.521569 0.54902 0.0313725 0.521569 0.54902 
0.0313725 0.521569 0.54902 0.0313725 0.521569 0.54902 
0.0313725 0.521569 0.54902 0.0313725 0.521569 0.54902 
0.0313725 0.521569 0.54902 0.0313725 0.521569 0.54902 
0.0313725 0.521569 0.54902 0.0313725 0.521569 0.54902 
0.0313725 0.521569 0.54902 0.0313725 0.521569 0.54902 
0.0313725 0.521569 0.54902 0.0313725 0.521569 0.54902 
0.0313725 0.521569 0.54902 0.0313725 0.521569 0.54902 
0.0313725 0.521569 0.54902 0.0313725 0.521569 0.54902 
0.0313725 0.521569 0.54902 0.0313725 0.521569 0.54902 
0.0313725 0.521569 0.54902 0.0313725 0.521569 0.54902 
0.0313725 0.521569 0.54902 0.0313725 0.521569 0.54902 
0.0313725 0.521569 0.54902 0.0313725 0.521569 0.54902 
0.0313725 0.521569 0.54902 0.0313725 0.521569 0.54902 
0.0313725 0.521569 0.54902 0.0313725 0.521569 0.54902 
0.0313725 0.521569 0.54902 0.0313725 0.521569 0.54902 
0.0313725 0.521569 0.54902 0.0313725 0.521569 0.54902 
0.0313725 0.521569 0.54902 0.0313725 0.521569 0.54902 
0.0313725 0.521569 0.54902 0.0313725 0.521569 0.54902 
0.0313725 0.521569 0.54902 0.0313725 0.521569 0.54902 
0.0313725 0.521569 0.54902 0.0313725 0.521569 0.54902 
0.0313725 0.521569 0.54902 0.0313725 0.521569 0.54902 
0.0313725 0.521569 0.54902 0.0313725 0.521569 0.54902 
0.0313725 0.521569 0.54902 0.0313725 0.521569 0.54902 
0.0313725 0.521569 0.54902 0.0313725 0.521569 0.54902 
0.0313725 0.521569 0.54902 0.0313725 0.521569 0.54902 
0.0313725 0.521569 0.54902 0.0313725 0.521569 0.54902 
0.0313725 0.521569 0.54902 0.0313725 0.521569 0.54902 
0.0313725 0.521569 0.54902 0.0313725 0.521569 0.54902 
0.0313725 0.521569 0.54902 0.0313725 0.521569 0.54902 
0.0313725 0.521569 0.54902 0.0313725 0.521569 0.54902 
0.0313725 0.521569 0.54902 0.0313725 0.521569 0.54902 
0.0313725 0.521569 0.54902 0.0313725 0.521569 0.54902 
0.0313725 0.521569 0.54902 0.0313725 0.521569 0.54902 
0.0313725 0.521569 0.54902 0.0313725 0.521569 0.54902 
0.0313725 0.521569 0.54902 0.0313725 0.521569 0.54902 
0.0313725 0.521569 0.54902 0.0313725 0.521569 0.54902 
0.0313725 0.521569 0.54902 0.0313725 0.521569 0.54902 
0.0313725 0.521569 0.54902 0.0313725 0.521569 0.54902 
0.0313725 0.521569 0.54902 0.0313725 0.521569 0.54902 
0.0313725 0.521569 0.54902 0.0313725 0.521569 0.54902 
0.0313725 0.521569 0.54902 0.0313725 0.521569 0.54902 
0.0313725 0.521569 0.54902 0.0313725 0.521569 0.54902 
0.0313725 0.521569 0.54902 0.0313725 0.521569 0.54902 
0.0313725 0.521569 0.54902 0.0313725 0.521569 0.54902 
0.0313725 0.521569 0.54902 0.0313725 0.521569 0.54902 
0.0313725 0.521569 0.54902 0.0313725 0.521569 0.54902 
0.0313725 0.521569 0.54902 0.0313725 0.521569 0.54902 
0.0313725 0.521569 0.54902 0.0313725 0.521569 0.54902 
0.0313725 0.521569 0.54902 0.0313725 0.521569 0.54902 
0.0313725 0.521569 0.54902 0.0313725 0.521569 0.54902 
0.0313725 0.521569 0.54902 0.0313725 0.521569 0.54902 
0.0313725 0.521569 0.54902 0.0313725 0.521569 0.54902 
0.0313725 0.521569 0.54902 0.0313725 0.521569 0.54902 
0.0313725 0.521569 0.54902 0.0313725 0.521569 0.54902 
0.0313725 0.521569 0.54902 0.0313725 0.521569 0.54902 
0.0313725 0.521569 0.54902 0.0313725 0.521569 0.54902 
0.0313725 0.521569 0.54902 0.0313725 0.521569 0.54902 
0.0313725 0.521569 0.54902 0.0313725 0.521569 0.54902 
0.0313725 0.521569 0.54902 0.0313725 0.521569 0.54902 
0.0313725 0.521569 0.54902 0.0313725 0.521569 0.54902 
0.0313725 0.521569 0.54902 0.0313725 0.521569 0.54902 
0.0313725 0.521569 0.54902 0.0313725 0.521569 0.54902 
0.0313725 0.521569 0.54902 0.0313725 0.521569 0.54902 
0.0313725 0.521569 0.54902 0.0313725 0.521569 0.54902 
0.0313725 0.521569 0.54902 0.0313725 0.521569 0.54902 
0.0313725 0.521569 0.54902 0.0313725 0.521569 0.54902 
0.0313725 0.521569 0.54902 0.0313725 0.521569 0.54902 
0.0313725 0.521569 0.54902 0.0313725 0.521569 0.54902 
0.0313725 0.521569 0.54902 0.0313725 0.521569 0.54902 
0.0313725 0.521569 0.54902 0.0313725 0.521569 0.54902 
0.0313725 0.521569 0.54902 0.0313725 0.521569 0.54902 
0.0313725 0.521569 0.54902 0.0313725 0.521569 0.54902 
0.0313725 0.521569 0.54902 0.0313725 0.521569 0.54902 
0.0313725 0.521569 0.54902 0.0313725 0.521569 0.54902 
0.0313725 0.521569 0.54902 0.0313725 0.521569 0.54902 
0.0313725 0.521569 0.54902 0.0313725 0.521569 0.54902 
0.0313725 0.521569 0.54902 0.0313725 0.521569 0.54902 
0.0313725 0.521569 0.54902 0.0313725 0.521569 0.54902 
0.0313725 0.521569 0.54902 0.0313725 0.521569 0.54902 
0.0313725 0.521569 0.54902 0.0313725 0.521569 0.54902 
0.0313725 0.521569 0.54902 0.0313725 0.521569 0.54902 
0.0313725 0.521569 0.54902 0.0313725 0.521569 0.54902 
0.0313725 0.521569 0.54902 0.0313725 0.521569 0.54902 
0.0313725 0.521569 0.54902 0.0313725 0.521569 0.54902 
0.0313725 0.521569 0.54902 0.0313725 0.521569 0.54902 
0.0313725 0.521569 0.54902 0.0313725 0.521569 0.54902 
0.0313725 0.521569 0.54902 0.0313725 0.521569 0.54902 
0.0313725 0.521569 0.54902 0.0313725 0.521569 0.54902 
0.0313725 0.521569 0.54902 0.0313725 0.521569 0.54902 
0.0313725 0.521569 0.54902 0.0313725 0.521569 0.54902 
0.0313725 0.521569 0.54902 0.0313725 0.521569 0.54902 
0.0313725 0.521569 0.54902 0.0313725 0.521569 0.54902 
0.0313725 0.521569 0.54902 0.0313725 0.521569 0.54902 
0.0313725 0.521569 0.54902 0.0313725 0.521569 0.54902 
0.0313725 0.521569 0.54902 0.0313725 0.521569 0.54902 
0.0313725 0.521569 0.54902 0.0313725 0.521569 0.54902 
0.0313725 0.521569 0.54902 0.0313725 0.521569 0.54902 
0.0313725 0.521569 0.54902 0.0313725 0.521569 0.54902 
0.0313725 0.521569 0.54902 0.0313725 0.521569 0.54902 
0.0313725 0.521569 0.54902 0.0313725 0.521569 0.54902 
0.0313725 0.521569 0.54902 0.0313725 0.521569 0.54902 
0.0313725 0.521569 0.54902 0.0313725 0.521569 0.54902 
0.0313725 0.521569 0.54902 0.0313725 0.521569 0.54902 
0.0313725 0.521569 0.54902 0.0313725 0.521569 0.54902 
0.0313725 0.521569 0.54902 0.0313725 0.521569 0.54902 
0.0313725 0.521569 0.54902 0.0313725 0.521569 0.54902 
0.0313725 0.521569 0.54902 0.0313725 0.521569 0.54902 
0.0313725 0.521569 0.54902 0.0313725 0.521569 0.54902 
0.0313725 0.521569 0.54902 0.0313725 0.521569 0.54902 
0.0313725 0.521569 0.54902 0.0313725 0.521569 0.54902 
0.0313725 0.521569 0.54902 0.0313725 0.521569 0.54902 
0.0313725 0.521569 0.54902 0.0313725 0.521569 0.54902 
0.0313725 0.521569 0.54902 0.0313725 0.521569 0.54902 
0.0313725 0.521569 0.54902 0.0313725 0.521569 0.54902 
0.0313725 0.521569 0.54902 0.0313725 0.521569 0.54902 
0.0313725 0.521569 0.54902 0.0313725 0.521569 0.54902 
0.0313725 0.521569 0.54902 0.0313725 0.521569 0.54902 
0.0313725 0.521569 0.54902 0.0313725 0.521569 0.54902 
0.0313725 0.521569 0.54902 0.0313725 0.521569 0.54902 
0.0313725 0.521569 0.54902 0.0313725 0.521569 0.54902 
0.0313725 0.521569 0.54902 0.0313725 0.521569 0.54902 
0.0313725 0.521569 0.54902 0.0313725 0.521569 0.54902 
0.0313725 0.521569 0.54902 0.0313725 0.521569 0.54902 
0.0313725 0.521569 0.54902 0.0313725 0.521569 0.54902 
0.0313725 0.521569 0.54902 0.0313725 0.521569 0.54902 
0.0313725 0.521569 0.54902 0.0313725 0.521569 0.54902 
0.0313725 0.521569 0.54902 0.0313725 0.521569 0.54902 
0.0313725 0.521569 0.54902 0.0313725 0.521569 0.54902 
0.0313725 0.521569 0.54902 0.0313725 0.521569 0.54902 
0.0313725 0.521569 0.54902 0.0313725 0.521569 0.54902 
0.0313725 0.521569 0.54902 0.0313725 0.521569 0.54902 
0.0313725 0.521569 0.54902 0.0313725 0.521569 0.54902 
0.0313725 0.521569 0.54902 0.0313725 0.521569 0.54902 
0.0313725 0.521569 0.54902 0.0313725 0.521569 0.54902 
0.0313725 0.521569 0.54902 0.0313725 0.521569 0.54902 
0.0313725 0.521569 0.54902 0.0313725 0.521569 0.54902 
0.0313725 0.521569 0.54902 0.0313725 0.521569 0.54902 
0.0313725 0.521569 0.54902 0.0313725 0.521569 0.54902 
0.0313725 0.521569 0.54902 0.0313725 0.521569 0.54902 
0.0313725 0.521569 0.54902 0.0313725 0.521569 0.54902 
0.0313725 0.521569 0.54902 0.0313725 0.521569 0.54902 
0.0313725 0.521569 0.54902 0.0313725 0.521569 0.54902 
0.0313725 0.521569 0.54902 0.0313725 0.521569 0.54902 
0.0313725 0.521569 0.54902 0.0313725 0.521569 0.54902 
0.0313725 0.521569 0.54902 0.0313725 0.521569 0.54902 
0.0313725 0.521569 0.54902 0.0313725 0.521569 0.54902 
0.0313725 0.521569 0.54902 0.0313725 0.521569 0.54902 
0.0313725 0.521569 0.54902 0.0313725 0.521569 0.54902 
0.0313725 0.521569 0.54902 0.0313725 0.521569 0.54902 
0.0313725 0.521569 0.54902 0.0313725 0.521569 0.54902 
0.0313725 0.521569 0.54902 0.0313725 0.521569 0.54902 
0.0313725 0.521569 0.54902 0.0313725 0.521569 0.54902 
0.0313725 0.521569 0.54902 0.0313725 0.521569 0.54902 
0.0313725 0.521569 0.54902 0.0313725 0.521569 0.54902 
0.0313725 0.521569 0.54902 0.0313725 0.521569 0.54902 
0.0313725 0.521569 0.54902 0.0313725 0.521569 0.54902 
0.0313725 0.521569 0.54902 0.0313725 0.521569 0.54902 
0.0313725 0.521569 0.54902 0.0313725 0.521569 0.54902 
0.0313725 0.521569 0.54902 0.0313725 0.521569 0.54902 
0.0313725 0.521569 0.54902 0.0313725 0.521569 0.54902 
0.0313725 0.521569 0.54902 0.0313725 0.521569 0.54902 
0.0313725 0.521569 0.54902 0.0313725 0.521569 0.54902 
0.0313725 0.521569 0.54902 0.0313725 0.521569 0.54902 
0.0313725 0.521569 0.54902 0.0313725 0.521569 0.54902 
0.0313725 0.521569 0.54902 0.0313725 0.521569 0.54902 
0.0313725 0.521569 0.54902 0.0313725 0.521569 0.54902 
0.0313725 0.521569 0.54902 0.0313725 0.521569 0.54902 
0.0313725 0.521569 0.54902 0.0313725 0.521569 0.54902 
0.0313725 0.521569 0.54902 0.0313725 0.521569 0.54902 
0.0313725 0.521569 0.54902 0.0313725 0.521569 0.54902 
0.0313725 0.521569 0.54902 0.0313725 0.521569 0.54902 
0.0313725 0.521569 0.54902 0.0313725 0.521569 0.54902 
0.0313725 0.521569 0.54902 0.0313725 0.521569 0.54902 
0.0313725 0.521569 0.54902 0.0313725 0.521569 0.54902 
0.0313725 0.521569 0.54902 0.0313725 0.521569 0.54902 
0.0313725 0.521569 0.54902 0.0313725 0.521569 0.54902 
0.0313725 0.521569 0.54902 0.0313725 0.521569 0.54902 
0.0313725 0.521569 0.54902 0.0313725 0.521569 0.54902 
0.0313725 0.521569 0.54902 0.0313725 0.521569 0.54902 
0.0313725 0.521569 0.54902 0.0313725 0.521569 0.54902 
0.0313725 0.521569 0.54902 0.0313725 0.521569 0.54902 
0.0313725 0.521569 0.54902 0.0313725 0.521569 0.54902 
0.0313725 0.521569 0.54902 0.0313725 0.521569 0.54902 
0.0313725 0.521569 0.54902 0.0313725 0.521569 0.54902 
0.0313725 0.521569 0.54902 0.0313725 0.521569 0.54902 
0.0313725 0.521569 0.54902 0.0313725 0.521569 0.54902 
0.0313725 0.521569 0.54902 0.0313725 0.521569 0.54902 
0.0313725 0.521569 0.54902 0.0313725 0.521569 0.54902 
0.0313725 0.521569 0.54902 0.0313725 0.521569 0.54902 
0.0313725 0.521569 0.54902 0.0313725 0.521569 0.54902 
0.0313725 0.521569 0.54902 0.0313725 0.521569 0.54902 
0.0313725 0.521569 0.54902 0.0313725 0.521569 0.54902 
0.0313725 0.521569 0.54902 0.0313725 0.521569 0.54902 
0.0313725 0.521569 0.54902 0.0313725 0.521569 0.54902 
0.0313725 0.521569 0.54902 0.0313725 0.521569 0.54902 
0.0313725 0.521569 0.54902 0.0313725 0.521569 0.54902 
0.0313725 0.521569 0.54902 0.0313725 0.521569 0.54902 
0.0313725 0.521569 0.54902 0.0313725 0.521569 0.54902 
0.0313725 0.521569 0.54902 0.0313725 0.521569 0.54902 
0.0313725 0.521569 0.54902 0.0313725 0.521569 0.54902 
0.0313725 0.521569 0.54902 0.0313725 0.521569 0.54902 
0.0313725 0.521569 0.54902 0.0313725 0.521569 0.54902 
0.0313725 0.521569 0.54902 0.0313725 0.521569 0.54902 
0.0313725 0.521569 0.54902 0.0313725 0.521569 0.54902 
0.0313725 0.521569 0.54902 0.0313725 0.521569 0.54902 
0.0313725 0.521569 0.54902 0.0313725 0.521569 0.54902 
0.0313725 0.521569 0.54902 0.0313725 0.521569 0.54902 
0.0313725 0.521569 0.54902 0.0313725 0.521569 0.54902 
0.0313725 0.521569 0.54902 0.0313725 0.521569 0.54902 
0.0313725 0.521569 0.54902 0.0313725 0.521569 0.54902 
0.0313725 0.521569 0.54902 0.0313725 0.521569 0.54902 
0.0313725 0.521569 0.54902 0.0313725 0.521569 0.54902 
0.0313725 0.521569 0.54902 0.0313725 0.521569 0.54902 
0.0313725 0.521569 0.54902 0.0313725 0.521569 0.54902 
0.0313725 0.521569 0.54902 0.0313725 0.521569 0.54902 
0.0313725 0.521569 0.54902 0.0313725 0.521569 0.54902 
0.0313725 0.521569 0.54902 0.0313725 0.521569 0.54902 
0.0313725 0.521569 0.54902 0.0313725 0.521569 0.54902 
0.0313725 0.521569 0.54902 0.0313725 0.521569 0.54902 
0.0313725 0.521569 0.54902 0.0313725 0.521569 0.54902 
0.0313725 0.521569 0.54902 0.0313725 0.521569 0.54902 
0.0313725 0.521569 0.54902 0.0313725 0.521569 0.54902 
0.0313725 0.521569 0.54902 0.0313725 0.521569 0.54902 
0.0313725 0.521569 0.54902 0.0313725 0.521569 0.54902 
0.0313725 0.521569 0.54902 0.0313725 0.521569 0.54902 
0.0313725 0.521569 0.54902 0.0313725 0.521569 0.54902 
0.0313725 0.521569 0.54902 0.0313725 0.521569 0.54902 
0.0313725 0.521569 0.54902 0.0313725 0.521569 0.54902 
0.0313725 0.521569 0.54902 0.0313725 0.521569 0.54902 
0.0313725 0.521569 0.54902 0.0313725 0.521569 0.54902 
0.0313725 0.521569 0.54902 0.0313725 0.521569 0.54902 
0.0313725 0.521569 0.54902 0.0313725 0.521569 0.54902 
0.0313725 0.521569 0.54902 0.0313725 0.521569 0.54902 
0.0313725 0.521569 0.54902 0.0313725 0.521569 0.54902 
0.0313725 0.521569 0.54902 0.0313725 0.521569 0.54902 
0.0313725 0.521569 0.54902 0.0313725 0.521569 0.54902 
0.0313725 0.521569 0.54902 0.0313725 0.521569 0.54902 
0.0313725 0.521569 0.54902 0.0313725 0.521569 0.54902 
0.0313725 0.521569 0.54902 0.0313725 0.521569 0.54902 
0.0313725 0.521569 0.54902 0.0313725 0.521569 0.54902 
0.0313725 0.521569 0.54902 0.0313725 0.521569 0.54902 
0.0313725 0.521569 0.54902 0.0313725 0.521569 0.54902 
0.0313725 0.521569 0.54902 0.0313725 0.521569 0.54902 
0.0313725 0.521569 0.54902 0.0313725 0.521569 0.54902 
0.0313725 0.521569 0.54902 0.0313725 0.521569 0.54902 
0.0313725 0.521569 0.54902 0.0313725 0.521569 0.54902 
0.0313725 0.521569 0.54902 0.0313725 0.521569 0.54902 
0.0313725 0.521569 0.54902 0.0313725 0.521569 0.54902 
0.0313725 0.521569 0.54902 0.0313725 0.521569 0.54902 
0.0313725 0.521569 0.54902 0.0313725 0.521569 0.54902 
0.0313725 0.521569 0.54902 0.0313725 0.521569 0.54902 
0.0313725 0.521569 0.54902 0.0313725 0.521569 0.54902 
0.0313725 0.521569 0.54902 0.0313725 0.521569 0.54902 
0.0313725 0.521569 0.54902 0.0313725 0.521569 0.54902 
0.0313725 0.521569 0.54902 0.0313725 0.521569 0.54902 
0.0313725 0.521569 0.54902 0.0313725 0.521569 0.54902 
0.0313725 0.521569 0.54902 0.0313725 0.521569 0.54902 
0.0313725 0.521569 0.54902 0.0313725 0.521569 0.54902 
0.0313725 0.521569 0.54902 0.0313725 0.521569 0.54902 
0.0313725 0.521569 0.54902 0.0313725 0.521569 0.54902 
0.0313725 0.521569 0.54902 0.0313725 0.521569 0.54902 
0.0313725 0.521569 0.54902 0.0313725 0.521569 0.54902 
0.0313725 0.521569 0.54902 0.0313725 0.521569 0.54902 
0.0313725 0.521569 0.54902 0.0313725 0.521569 0.54902 
0.0313725 0.521569 0.54902 0.0313725 0.521569 0.54902 
0.0313725 0.521569 0.54902 0.0313725 0.521569 0.54902 
0.0313725 0.521569 0.54902 0.0313725 0.521569 0.54902 
0.0313725 0.521569 0.54902 0.0313725 0.521569 0.54902 
0.0313725 0.521569 0.54902 0.0313725 0.521569 0.54902 
0.0313725 0.521569 0.54902 0.0313725 0.521569 0.54902 
0.0313725 0.521569 0.54902 0.0313725 0.521569 0.54902 
0.0313725 0.521569 0.54902 0.0313725 0.521569 0.54902 
0.0313725 0.521569 0.54902 0.0313725 0.521569 0.54902 
0.0313725 0.521569 0.54902 0.0313725 0.521569 0.54902 
0.0313725 0.521569 0.54902 0.0313725 0.521569 0.54902 
0.0313725 0.521569 0.54902 0.0313725 0.521569 0.54902 
0.0313725 0.521569 0.54902 0.0313725 0.521569 0.54902 
0.0313725 0.521569 0.54902 0.0313725 0.521569 0.54902 
0.0313725 0.521569 0.54902 0.0313725 0.521569 0.54902 
0.0313725 0.521569 0.54902 0.0313725 0.521569 0.54902 
0.0313725 0.521569 0.54902 0.0313725 0.521569 0.54902 
0.0313725 0.521569 0.54902 0.0313725 0.521569 0.54902 
0.0313725 0.521569 0.54902 0.0313725 0.521569 0.54902 
0.0313725 0.521569 0.54902 0.0313725 0.521569 0.54902 
0.0313725 0.521569 0.54902 0.0313725 0.521569 0.54902 
0.0313725 0.521569 0.54902 0.0313725 0.521569 0.54902 
0.0313725 0.521569 0.54902 0.0313725 0.521569 0.54902 
0.0313725 0.521569 0.54902 0.0313725 0.521569 0.54902 
0.0313725 0.521569 0.54902 0.0313725 0.521569 0.54902 
0.0313725 0.521569 0.54902 0.0313725 0.521569 0.54902 
0.0313725 0.521569 0.54902 0.0313725 0.521569 0.54902 
0.0313725 0.521569 0.54902 0.0313725 0.521569 0.54902 
0.0313725 0.521569 0.54902 0.0313725 0.521569 0.54902 
0.0313725 0.521569 0.54902 0.0313725 0.521569 0.54902 
0.0313725 0.521569 0.54902 0.0313725 0.521569 0.54902 
0.0313725 0.521569 0.54902 0.0313725 0.521569 0.54902 
0.0313725 0.521569 0.54902 0.0313725 0.521569 0.54902 
0.0313725 0.521569 0.54902 0.0313725 0.521569 0.54902 
0.0313725 0.521569 0.54902 0.0313725 0.521569 0.54902 
0.0313725 0.521569 0.54902 0.0313725 0.521569 0.54902 
0.0313725 0.521569 0.54902 0.0313725 0.521569 0.54902 
0.0313725 0.521569 0.54902 0.0313725 0.521569 0.54902 
0.0313725 0.521569 0.54902 0.0313725 0.521569 0.54902 
0.0313725 0.521569 0.54902 0.0313725 0.521569 0.54902 
0.0313725 0.521569 0.54902 0.0313725 0.521569 0.54902 
0.0313725 0.521569 0.54902 0.0313725 0.521569 0.54902 
0.0313725 0.521569 0.54902 0.0313725 0.521569 0.54902 
0.0313725 0.521569 0.54902 0.0313725 0.521569 0.54902 
0.0313725 0.521569 0.54902 0.0313725 0.521569 0.54902 
0.0313725 0.521569 0.54902 0.0313725 0.521569 0.54902 
0.0313725 0.521569 0.54902 0.0313725 0.521569 0.54902 
0.0313725 0.521569 0.54902 0.0313725 0.521569 0.54902 
0.0313725 0.521569 0.54902 0.0313725 0.521569 0.54902 
0.0313725 0.521569 0.54902 0.0313725 0.521569 0.54902 
0.0313725 0.521569 0.54902 0.0313725 0.521569 0.54902 
0.0313725 0.521569 0.54902 0.0313725 0.521569 0.54902 
0.0313725 0.521569 0.54902 0.0313725 0.521569 0.54902 
0.0313725 0.521569 0.54902 0.0313725 0.521569 0.54902 
0.0313725 0.521569 0.54902 0.0313725 0.521569 0.54902 
0.0313725 0.521569 0.54902 0.0313725 0.521569 0.54902 
0.0313725 0.521569 0.54902 0.0313725 0.521569 0.54902 
0.0313725 0.521569 0.54902 0.0313725 0.521569 0.54902 
0.0313725 0.521569 0.54902 0.0313725 0.521569 0.54902 
0.0313725 0.521569 0.54902 0.0313725 0.521569 0.54902 