# vtk DataFile Version 4.2
vtk output
ASCII
DATASET POLYDATA
POINTS 1022 float
310.87 50.8754 144.146 310.861 50.8406 144.251 310.869 50.8696 144.168 
310.86 50.8291 144.278 310.874 50.8811 144.132 310.869 50.8508 144.214 
310.873 50.8573 144.2 310.832 50.7287 144.578 310.853 50.7992 144.381 
310.864 50.7912 144.386 310.81 50.64 144.871 310.76 50.5294 145.179 
310.733 50.4593 145.455 310.803 50.5843 144.972 310.839 50.6294 144.844 
310.829 50.578 145.043 310.713 50.3658 145.603 310.549 50.0897 146.425 
310.646 50.3095 145.875 310.818 50.3334 145.64 310.83 50.4477 145.361 
310.823 50.2859 145.821 310.783 50.4089 145.618 310.469 50.0662 146.729 
310.253 49.8695 147.446 310.426 49.842 147.059 310.783 50.0733 146.431 
310.567 50.0686 146.868 310.809 50.2149 146.105 310.764 49.7863 147.342 
310.747 49.856 147.411 309.318 49.1798 149.57 309.954 49.3354 148.536 
310.307 49.4295 148.102 310.694 49.6068 147.682 310.759 49.4787 148.179 
309.535 49.3904 149.188 310.8 49.5902 148.153 309.828 49.568 148.709 
308.992 48.9613 150.183 308.807 48.7255 150.69 308.756 48.8967 150.645 
310.85 49.2755 148.998 309.015 49.083 150.276 309.347 49.2871 149.775 
310.846 49.4309 148.934 309.378 48.4451 150.83 309.89 48.5265 150.496 
310.864 48.839 150.07 311.017 49.1138 149.904 310.669 49.2769 150.453 
311.013 49.1591 150.4 310.87 49.3388 149.55 308.239 48.5994 151.723 
308.153 48.4044 152.121 308.045 48.553 152.306 311.479 48.7416 151.375 
308.319 48.7619 151.76 308.542 48.9037 151.628 309.494 49.1516 151.355 
311.358 48.9164 151.284 307.814 47.9983 153.699 307.88 48.3195 152.936 
309.057 47.7579 153.146 311.68 48.5169 152.039 307.882 48.5289 153.081 
308.822 48.9517 152.363 311.667 48.6994 152.081 311.475 48.8691 151.875 
307.52 48.2841 153.98 311.916 48.461 152.741 311.849 48.2911 152.72 
312.091 48.2749 153.255 307.853 48.5773 154.018 306.63 48.0638 155.643 
306.128 47.9298 156.337 305.736 47.96 156.879 312.354 47.9139 154.569 
312.607 48.1083 154.806 305.008 47.6625 157.791 305.4 47.4558 157.555 
305.958 47.3552 157.214 312.118 47.4305 155.761 313.186 47.913 156.151 
305.486 48.0985 157.471 313.156 48.085 156.184 304.415 47.5009 158.622 
304.89 48.0913 158.456 306.935 48.5594 157.684 313.533 48.0705 157.184 
304.012 47.6933 159.05 303.566 47.6966 159.613 309.222 48.7488 158.201 
310.983 48.7366 158.117 312.61 48.5403 158.105 314.111 47.8937 158.193 
302.273 47.3879 160.991 304.104 46.8797 160.292 308.377 46.5094 159.521 
314.025 47.282 158.573 303.069 47.4962 160.18 302.525 47.6415 160.791 
314.571 47.6594 159.005 303.18 47.8252 160.299 314.454 47.926 159.084 
301.861 47.2367 161.462 301.551 47.2457 161.741 315.039 47.4683 159.937 
315.028 47.7123 159.911 303.932 48.1623 160.695 300.794 47.3517 162.646 
314.993 47.0127 160.904 315.486 47.5337 160.64 315.833 47.4269 161.253 
301.095 47.4619 162.157 301.393 47.577 161.886 301.078 47.6058 162.305 
315.424 47.7181 160.642 315.82 47.5902 161.215 312.659 48.4861 160.9 
300.516 47.2548 163.21 316.129 47.4551 161.749 316.004 47.2761 161.773 
316.336 47.3339 162.274 300.782 47.5166 162.629 316.076 47.6009 161.725 
316.356 47.4882 162.25 300.805 47.6588 162.924 301.215 47.7973 162.874 
309.677 48.4068 161.802 314.358 48.2002 161.865 315.725 47.8448 161.999 
300.09 47.03 164.518 304.89 46.3485 163.329 316.611 47.3255 162.922 
316.486 47.5208 162.696 308.457 48.197 162.594 299.547 47.1958 164.729 
299.313 47.0545 165.455 299.082 47.2621 165.218 310.749 46.2306 163.961 
316.902 47.2532 163.603 299.446 47.3633 164.648 299.023 47.4071 165.205 
302.577 47.763 163.856 317.027 47.2701 163.969 299.42 47.5417 164.841 
305.583 46.2059 165.246 304.836 46.5763 165.697 308.46 46.0943 164.97 
308.327 45.9293 165.763 309.196 46.0877 165.778 309.813 46.4973 165.788 
300.376 46.8246 165.59 302.899 46.6091 165.412 303.852 46.614 164.975 
309.876 46.4235 165.036 310.678 46.3156 164.912 315.363 46.5068 164.7 
316.934 46.9114 164.355 298.658 47.3319 165.715 298.228 47.3611 166.344 
302.164 47.6559 164.324 304.647 47.3014 164.898 308.762 47.4189 164.854 
309.832 47.3397 164.892 310.821 47.4949 164.802 315.509 47.6609 164.462 
317.202 47.1533 164.627 298.717 47.4808 165.755 299.094 47.582 165.54 
316.516 47.5024 164.416 303.742 46.404 166.438 303.035 46.5415 166.729 
304.467 46.42 166.302 305.681 45.8423 167.133 310.605 46.3198 166.143 
310.176 45.9959 166.508 311.347 46.2007 165.806 311.255 45.9671 166.625 
314.108 46.3188 165.955 314.069 46.1247 166.642 314.689 46.4979 166.658 
297.936 47.21 166.891 300.934 46.8082 166.18 301.985 46.7045 165.773 
303.688 46.7431 165.768 304.324 46.9157 165.325 304.444 46.6918 166.655 
305.414 47.0409 165.652 305.472 46.8399 166.564 307.424 47.0951 166.502 
308.428 47.0686 166.44 309.439 46.8957 166.296 309.411 47.0337 165.471 
310.335 46.6693 166.358 310.068 46.8373 165.402 310.711 46.6292 165.804 
314.703 46.5325 165.696 315.434 46.55 165.572 316.105 46.5113 165.631 
317.501 46.8679 165.612 297.779 47.3622 166.99 300.808 47.1996 166.298 
302.729 47.0799 165.56 310.772 47.1001 165.436 312.635 47.3515 165.554 
314.413 47.2447 165.531 315.351 47.1523 165.608 317.52 46.9346 166.034 
298.144 47.476 166.694 299.275 47.5986 165.921 302.487 46.2917 168.227 
301.895 46.3544 168.368 303.036 46.2873 167.731 315.557 46.3088 167.333 
316.231 46.2976 167.226 316.01 46.0265 167.685 316.694 46.3583 166.642 
317.335 46.1473 167.379 300.062 46.6791 167.294 302.054 46.5128 168.411 
301.217 46.9921 166.255 300.683 46.8995 167.046 302.926 46.5158 167.981 
302.102 46.8653 166.072 303.282 46.7626 166.362 303.768 46.6656 167.478 
311.197 46.8285 166.963 311.523 46.9854 166.198 314.314 46.794 167.169 
314.216 46.9748 166.208 315.281 46.5564 167.496 314.825 46.8655 165.948 
316.01 46.4778 167.471 315.481 46.764 165.959 316.223 46.5691 166.652 
318.261 46.4767 167.327 297.395 47.2857 167.51 297.009 47.3239 167.988 
300.23 47.1753 167.135 297.397 47.4143 167.64 301.08 46.5219 168.246 
302.034 45.8752 169.338 318.528 46.2579 168.073 296.25 47.2313 169.18 
301.416 46.7573 168.929 300.587 46.9147 168.034 315.94 46.5668 168.169 
316.894 46.7012 167.154 318.548 46.3051 168.407 318.331 46.4602 167.681 
296.655 47.2804 168.488 296.44 47.3282 168.799 296.789 47.3706 168.343 
318.804 46.1035 168.764 318.99 45.9189 169.288 295.877 47.1641 169.853 
303.396 46.7355 169.489 318.955 46.0416 169.267 295.782 47.2597 169.96 
296.206 47.3166 169.238 298.288 46.5628 170.632 312.633 45.1491 169.797 
319.241 45.7815 169.922 297.23 46.7609 170.248 295.284 47.2537 170.597 
295.004 47.2221 171.005 295.024 47.2609 171.059 319.473 45.4889 170.619 
319.779 45.4665 170.968 319.92 45.3662 171.306 298.273 46.3644 171.387 
297.909 46.4116 171.682 319.571 45.6373 170.6 319.844 45.4995 171.104 
296.448 46.7704 171.213 298.015 46.5352 171.61 297.672 46.8643 170.306 
296.895 46.8372 170.912 298.585 46.8427 170.358 302.198 46.7718 171.217 
304.052 46.7485 171.064 319.577 45.6565 170.924 294.446 47.193 171.985 
294.662 47.2388 171.593 318.552 44.8608 171.914 319.701 44.8194 172.336 
319.925 45.1601 171.757 319.978 45.3628 171.485 297.221 46.562 171.798 
319.888 45.4821 171.318 319.964 45.3957 171.546 309.623 46.6469 171.623 
294.18 47.1872 172.547 294.361 47.2281 172.143 320.367 44.4443 173.237 
320.924 44.2594 173.62 320.205 44.799 172.755 319.979 45.2503 171.855 
320.981 44.265 173.783 296.544 46.5242 172.82 293.974 47.1131 173.197 
295.368 46.7653 172.968 296.194 46.7032 172.467 296.568 46.5778 173.06 
295.576 46.7808 172.869 293.971 47.1785 173.042 294.198 47.2146 172.57 
322.033 43.6568 174.472 322.344 43.5537 174.627 322.551 43.4495 174.761 
319.241 44.5019 173.673 322.076 43.7077 174.461 322.372 43.5625 174.67 
317.732 44.625 173.486 318.497 44.6562 173.239 321.99 43.7562 174.489 
295.926 46.6025 173.312 319.061 45.0007 173.147 293.464 47.1116 174.055 
295.915 46.5946 173.728 302.447 46.49 173.128 293.095 47.1825 174.401 
293.623 47.1339 173.87 292.835 47.2179 174.685 322.586 43.3112 174.914 
322.637 43.408 174.837 322.709 43.3377 174.889 322.768 43.3295 174.914 
316.664 44.7059 174.143 318.343 44.474 173.988 318.942 44.4289 173.983 
314.979 44.81 174.019 315.842 44.7845 173.84 318.317 44.6844 173.731 
318.84 44.7509 173.483 318.772 44.4768 174.113 319.548 44.6197 173.629 
319.77 44.3518 174.088 295.313 46.6021 174.09 313.808 45.8605 173.42 
294.243 46.811 174.384 294.991 46.7279 173.92 295.288 46.616 174.217 
294.432 46.8177 174.223 292.606 47.227 174.95 322.991 43.1233 175.126 
322.999 43.1065 175.143 323.022 43.0998 175.153 320.797 43.76 174.73 
321.319 43.6246 174.812 322.34 43.3478 174.927 322.821 43.2355 175.019 
315.734 44.7527 174.351 315.729 44.7386 174.454 316.344 44.7037 174.357 
316.554 44.6306 174.472 317.487 44.4833 174.509 318.3 44.3408 174.495 
319.362 44.1316 174.499 308.464 45.4845 174.323 307.737 45.4748 174.109 
309.353 45.3871 174.377 310.806 45.3229 174.364 314.22 44.9012 174.204 
315.632 44.9124 174.174 316.228 44.9401 174.01 316.143 44.7653 174.352 
317.067 44.8166 174.087 316.824 44.6822 174.352 294.764 46.682 174.432 
296.902 46.2864 174.226 298.602 46.0933 174.008 302.416 45.8451 173.859 
310.838 45.9101 174.05 310.752 45.7599 174.308 311.464 45.6834 174.274 
312.333 45.4982 174.31 314.556 45.2659 174.114 292.384 47.1722 175.378 
293.465 46.8901 175.04 297.827 46.3169 174.039 299.643 46.2408 173.879 
303.857 46.1345 173.921 307.855 46.0644 174.016 292.341 47.2115 175.348 
292.463 47.2277 175.164 322.933 43.1327 175.129 320.2 43.9431 174.663 
321.609 43.5714 174.858 322.207 43.414 174.934 316.109 44.7266 174.456 
318.096 44.4126 174.502 319.16 44.2064 174.543 308.956 45.5836 174.489 
310.535 45.5907 174.458 309.88 45.5575 174.618 312.741 45.2722 174.343 
314.042 45.0901 174.316 292.997 46.9335 175.402 294.314 46.724 174.791 
294.947 46.6128 174.631 295.781 46.4739 174.462 297.375 46.2796 174.198 
299.139 46.1471 174.013 301.045 46.0595 173.929 303.114 45.9763 173.971 
304.152 45.9129 174.06 305.563 45.7748 174.137 306.521 45.8618 174.171 
305.618 45.9284 174.188 307.497 45.9025 174.212 292.159 47.1741 175.66 
[...]
POINT_DATA 1022
COLOR_SCALARS scalars 3
0.0313725 0.521569 0.54902 0.0313725 0.521569 0.54902 0.0313725 0.521569 0.54902 
0.0313725 0.521569 0.54902 0.0313725 0.521569 0.54902 
0.0313725 0.521569 0.54902 0.0313725 0.521569 0.54902 
0.0313725 0.521569 0.54902 0.0313725 0.521569 0.54902 
0.0313725 0.521569 0.54902 0.0313725 0.521569 0.54902 
0.0313725 0.521569 0.54902 0.0313725 0.521569 0.54902 
0.0313725 0.521569 0.54902 0.0313725 0.521569 0.54902 
0.0313725 0.521569 0.54902 0.0313725 0.521569 0.54902 
0.0313725 0.521569 0.54902 0.0313725 0.521569 0.54902 
0.0313725 0.521569 0.54902 0.0313725 0.521569 0.54902 
0.0313725 0.521569 0.54902 0.0313725 0.521569 0.54902 
0.0313725 0.521569 0.54902 0.0313725 0.521569 0.54902 
0.0313725 0.521569 0.54902 0.0313725 0.521569 0.54902 
0.0313725 0.521569 0.54902 0.0313725 0.521569 0.54902 
0.0313725 0.521569 0.54902 0.0313725 0.521569 0.54902 
0.0313725 0.521569 0.54902 0.0313725 0.521569 0.54902 
0.0313725 0.521569 0.54902 0.0313725 0.521569 0.54902 
0.0313725 0.521569 0.54902 0.0313725 0.521569 0.54902 
0.0313725 0.521569 0.54902 0.0313725 0.521569 0.54902 
0.0313725 0.521569 0.54902 0.0313725 0.521569 0.54902 
0.0313725 0.521569 0.54902 0.0313725 0.521569 0.54902 
0.0313725 0.521569 0.54902 0.0313725 0.521569 0.54902 
0.0313725 0.521569 0.54902 0.0313725 0.521569 0.54902 
0.0313725 0.521569 0.54902 0.0313725 0.521569 0.54902 
0.0313725 0.521569 0.54902 0.0313725 0.521569 0.54902 
0.0313725 0.521569 0.54902 0.0313725 0.521569 0.54902 
0.0313725 0.521569 0.54902 0.0313725 0.521569 0.54902 
0.0313725 0.521569 0.54902 0.0313725 0.521569 0.54902 
0.0313725 0.521569 0.54902 0.0313725 0.521569 0.54902 
0.0313725 0.521569 0.54902 0.0313725 0.521569 0.54902 
0.0313725 0.521569 0.54902 0.0313725 0.521569 0.54902 
0.0313725 0.521569 0.54902 0.0313725 0.521569 0.54902 
0.0313725 0.521569 0.54902 0.0313725 0.521569 0.54902 
0.0313725 0.521569 0.54902 0.0313725 0.521569 0.54902 
0.0313725 0.521569 0.54902 0.0313725 0.521569 0.54902 
0.0313725 0.521569 0.54902 0.0313725 0.521569 0.54902 
0.0313725 0.521569 0.54902 0.0313725 0.521569 0.54902 
0.0313725 0.521569 0.54902 0.0313725 0.521569 0.54902 
0.0313725 0.521569 0.54902 0.0313725 0.521569 0.54902 
0.0313725 0.521569 0.54902 0.0313725 0.521569 0.54902 
0.0313725 0.521569 0.54902 0.0313725 0.521569 0.54902 
0.0313725 0.521569 0.54902 0.0313725 0.521569 0.54902 
0.0313725 0.521569 0.54902 0.0313725 0.521569 0.54902 
0.0313725 0.521569 0.54902 0.0313725 0.521569 0.54902 
0.0313725 0.521569 0.54902 0.0313725 0.521569 0.54902 
0.0313725 0.521569 0.54902 0.0313725 0.521569 0.54902 
0.0313725 0.521569 0.54902 0.0313725 0.521569 0.54902 
0.0313725 0.521569 0.54902 0.0313725 0.521569 0.54902 
0.0313725 0.521569 0.54902 0.0313725 0.521569 0.54902 
0.0313725 0.521569 0.54902 0.0313725 0.521569 0.54902 
0.0313725 0.521569 0.54902 0.0313725 0.521569 0.54902 
0.0313725 0.521569 0.54902 0.0313725 0.521569 0.54902 
0.0313725 0.521569 0.54902 0.0313725 0.521569 0.54902 
0.0313725 0.521569 0.54902 0.0313725 0.521569 0.54902 
0.0313725 0.521569 0.54902 0.0313725 0.521569 0.54902 
0.0313725 0.521569 0.54902 0.0313725 0.521569 0.54902 
0.0313725 0.521569 0.54902 0.0313725 0.521569 0.54902 
0.0313725 0.521569 0.54902 0.0313725 0.521569 0.54902 
0.0313725 0.521569 0.54902 0.0313725 0.521569 0.54902 
0.0313725 0.521569 0.54902 0.0313725 0.521569 0.54902 
0.0313725 0.521569 0.54902 0.0313725 0.521569 0.54902 
0.0313725 0.521569 0.54902 0.0313725 0.521569 0.54902 
0.0313725 0.521569 0.54902 0.0313725 0.521569 0.54902 
0.0313725 0.521569 0.54902 0.0313725 0.521569 0.54902 
0.0313725 0.521569 0.54902 0.0313725 0.521569 0.54902 
0.0313725 0.521569 0.54902 0.0313725 0.521569 0.54902 
0.0313725 0.521569 0.54902 0.0313725 0.521569 0.54902 
0.0313725 0.521569 0.54902 0.0313725 0.521569 0.54902 
0.0313725 0.521569 0.54902 0.0313725 0.521569 0.54902 
0.0313725 0.521569 0.54902 0.0313725 0.521569 0.54902 
0.0313725 0.521569 0.54902 0.0313725 0.521569 0.54902 
0.0313725 0.521569 0.54902 0.0313725 0.521569 0.54902 
0.0313725 0.521569 0.54902 0.0313725 0.521569 0.54902 
0.0313725 0.521569 0.54902 0.0313725 0.521569 0.54902 
0.0313725 0.521569 0.54902 0.0313725 0.521569 0.54902 
0.0313725 0.521569 0.54902 0.0313725 0.521569 0.54902 
0.0313725 0.521569 0.54902 0.0313725 0.521569 0.54902 
0.0313725 0.521569 0.54902 0.0313725 0.521569 0.54902 
0.0313725 0.521569 0.54902 0.0313725 0.521569 0.54902 
0.0313725 0.521569 0.54902 0.0313725 0.521569 0.54902 
0.0313725 0.521569 0.54902 0.0313725 0.521569 0.54902 
0.0313725 0.521569 0.54902 0.0313725 0.521569 0.54902 
0.0313725 0.521569 0.54902 0.0313725 0.521569 0.54902 
0.0313725 0.521569 0.54902 0.0313725 0.521569 0.54902 
0.0313725 0.521569 0.54902 0.0313725 0.521569 0.54902 
0.0313725 0.521569 0.54902 0.0313725 0.521569 0.54902 
0.0313725 0.521569 0.54902 0.0313725 0.521569 0.54902 
0.0313725 0.521569 0.54902 0.0313725 0.521569 0.54902 
0.0313725 0.521569 0.54902 0.0313725 0.521569 0.54902 
0.0313725 0.521569 0.54902 0.0313725 0.521569 0.54902 
0.0313725 0.521569 0.54902 0.0313725 0.521569 0.54902 
0.0313725 0.521569 0.54902 0.0313725 0.521569 0.54902 
0.0313725 0.521569 0.54902 0.0313725 0.521569 0.54902 
0.0313725 0.521569 0.54902 0.0313725 0.521569 0.54902 
0.0313725 0.521569 0.54902 0.0313725 0.521569 0.54902 
0.0313725 0.521569 0.54902 0.0313725 0.521569 0.54902 
0.0313725 0.521569 0.54902 0.0313725 0.521569 0.54902 
0.0313725 0.521569 0.54902 0.0313725 0.521569 0.54902 
0.0313725 0.521569 0.54902 0.0313725 0.521569 0.54902 
0.0313725 0.521569 0.54902 0.0313725 0.521569 0.54902 
0.0313725 0.521569 0.54902 0.0313725 0.521569 0.54902 
0.0313725 0.521569 0.54902 0.0313725 0.521569 0.54902 
0.0313725 0.521569 0.54902 0.0313725 0.521569 0.54902 
0.0313725 0.521569 0.54902 0.0313725 0.521569 0.54902 
0.0313725 0.521569 0.54902 0.0313725 0.521569 0.54902 
0.0313725 0.521569 0.54902 0.0313725 0.521569 0.54902 
0.0313725 0.521569 0.54902 0.0313725 0.521569 0.54902 
0.0313725 0.521569 0.54902 0.0313725 0.521569 0.54902 
0.0313725 0.521569 0.54902 0.0313725 0.521569 0.54902 
0.0313725 0.521569 0.54902 0.0313725 0.521569 0.54902 
0.0313725 0.521569 0.54902 0.0313725 0.521569 0.54902 
0.0313725 0.521569 0.54902 0.0313725 0.521569 0.54902 
0.0313725 0.521569 0.54902 0.0313725 0.521569 0.54902 
0.0313725 0.521569 0.54902 0.0313725 0.521569 0.54902 
0.0313725 0.521569 0.54902 0.0313725 0.521569 0.54902 
0.0313725 0.521569 0.54902 0.0313725 0.521569 0.54902 
0.0313725 0.521569 0.54902 0.0313725 0.521569 0.54902 
0.0313725 0.521569 0.54902 0.0313725 0.521569 0.54902 
0.0313725 0.521569 0.54902 0.0313725 0.521569 0.54902 
0.0313725 0.521569 0.54902 0.0313725 0.521569 0.54902 
0.0313725 0.521569 0.54902 0.0313725 0.521569 0.54902 
0.0313725 0.521569 0.54902 0.0313725 0.521569 0.54902 
0.0313725 0.521569 0.54902 0.0313725 0.521569 0.54902 
0.0313725 0.521569 0.54902 0.0313725 0.521569 0.54902 
0.0313725 0.521569 0.54902 0.0313725 0.521569 0.54902 
0.0313725 0.521569 0.54902 0.0313725 0.521569 0.54902 
0.0313725 0.521569 0.54902 0.0313725 0.521569 0.54902 
0.0313725 0.521569 0.54902 0.0313725 0.521569 0.54902 
0.0313725 0.521569 0.54902 0.0313725 0.521569 0.54902 
0.0313725 0.521569 0.54902 0.0313725 0.521569 0.54902 
0.0313725 0.521569 0.54902 0.0313725 0.521569 0.54902 
0.0313725 0.521569 0.54902 0.0313725 0.521569 0.54902 
0.0313725 0.521569 0.54902 0.0313725 0.521569 0.54902 
0.0313725 0.521569 0.54902 0.0313725 0.521569 0.54902 
0.0313725 0.521569 0.54902 0.0313725 0.521569 0.54902 
0.0313725 0.521569 0.54902 0.0313725 0.521569 0.54902 
0.0313725 0.521569 0.54902 0.0313725 0.521569 0.54902 
0.0313725 0.521569 0.54902 0.0313725 0.521569 0.54902 
0.0313725 0.521569 0.54902 0.0313725 0.521569 0.54902 
0.0313725 0.521569 0.54902 0.0313725 0.521569 0.54902 
0.0313725 0.521569 0.54902 0.0313725 0.521569 0.54902 
0.0313725 0.521569 0.54902 0.0313725 0.521569 0.54902 
0.0313725 0.521569 0.54902 0.0313725 0.521569 0.54902 
0.0313725 0.521569 0.54902 0.0313725 0.521569 0.54902 
0.0313725 0.521569 0.54902 0.0313725 0.521569 0.54902 
0.0313725 0.521569 0.54902 0.0313725 0.521569 0.54902 
0.0313725 0.521569 0.54902 0.0313725 0.521569 0.54902 
0.0313725 0.521569 0.54902 0.0313725 0.521569 0.54902 
0.0313725 0.521569 0.54902 0.0313725 0.521569 0.54902 
0.0313725 0.521569 0.54902 0.0313725 0.521569 0.54902 
0.0313725 0.521569 0.54902 0.0313725 0.521569 0.54902 
0.0313725 0.521569 0.54902 0.0313725 0.521569 0.54902 
0.0313725 0.521569 0.54902 0.0313725 0.521569 0.54902 
0.0313725 0.521569 0.54902 0.0313725 0.521569 0.54902 
0.0313725 0.521569 0.54902 0.0313725 0.521569 0.54902 
0.0313725 0.521569 0.54902 0.0313725 0.521569 0.54902 
0.0313725 0.521569 0.54902 0.0313725 0.521569 0.54902 
0.0313725 0.521569 0.54902 0.0313725 0.521569 0.54902 
0.0313725 0.521569 0.54902 0.0313725 0.521569 0.54902 
0.0313725 0.521569 0.54902 0.0313725 0.521569 0.54902 
0.0313725 0.521569 0.54902 0.0313725 0.521569 0.54902 
0.0313725 0.521569 0.54902 0.0313725 0.521569 0.54902 
0.0313725 0.521569 0.54902 0.0313725 0.521569 0.54902 
0.0313725 0.521569 0.54902 0.0313725 0.521569 0.54902 
0.0313725 0.521569 0.54902 0.0313725 0.521569 0.54902 
0.0313725 0.521569 0.54902 0.0313725 0.521569 0.54902 
0.0313725 0.521569 0.54902 0.0313725 0.521569 0.54902 
0.0313725 0.521569 0.54902 0.0313725 0.521569 0.54902 
0.0313725 0.521569 0.54902 0.0313725 0.521569 0.54902 
0.0313725 0.521569 0.54902 0.0313725 0.521569 0.54902 
0.0313725 0.521569 0.54902 0.0313725 0.521569 0.54902 
0.0313725 0.521569 0.54902 0.0313725 0.521569 0.54902 
0.0313725 0.521569 0.54902 0.0313725 0.521569 0.54902 
0.0313725 0.521569 0.54902 0.0313725 0.521569 0.54902 
0.0313725 0.521569 0.54902 0.0313725 0.521569 0.54902 
0.0313725 0.521569 0.54902 0.0313725 0.521569 0.54902 
0.0313725 0.521569 0.54902 0.0313725 0.521569 0.54902 
0.0313725 0.521569 0.54902 0.0313725 0.521569 0.54902 
0.0313725 0.521569 0.54902 0.0313725 0.521569 0.54902 
0.0313725 0.521569 0.54902 0.0313725 0.521569 0.54902 
0.0313725 0.521569 0.54902 0.0313725 0.521569 0.54902 
0.0313725 0.521569 0.54902 0.0313725 0.521569 0.54902 
0.0313725 0.521569 0.54902 0.0313725 0.521569 0.54902 
0.0313725 0.521569 0.54902 0.0313725 0.521569 0.54902 
0.0313725 0.521569 0.54902 0.0313725 0.521569 0.54902 
0.0313725 0.521569 0.54902 0.0313725 0.521569 0.54902 
0.0313725 0.521569 0.54902 0.0313725 0.521569 0.54902 
0.0313725 0.521569 0.54902 0.0313725 0.521569 0.54902 
0.0313725 0.521569 0.54902 0.0313725 0.521569 0.54902 
0.0313725 0.521569 0.54902 0.0313725 0.521569 0.54902 
0.0313725 0.521569 0.54902 0.0313725 0.521569 0.54902 
0.0313725 0.521569 0.54902 0.0313725 0.521569 0.54902 
0.0313725 0.521569 0.54902 0.0313725 0.521569 0.54902 
0.0313725 0.521569 0.54902 0.0313725 0.521569 0.54902 
0.0313725 0.521569 0.54902 0.0313725 0.521569 0.54902 
0.0313725 0.521569 0.54902 0.0313725 0.521569 0.54902 
0.0313725 0.521569 0.54902 0.0313725 0.521569 0.54902 
0.0313725 0.521569 0.54902 0.0313725 0.521569 0.54902 
0.0313725 0.521569 0.54902 0.0313725 0.521569 0.54902 
0.0313725 0.521569 0.54902 0.0313725 0.521569 0.54902 
0.0313725 0.521569 0.54902 0.0313725 0.521569 0.54902 
0.0313725 0.521569 0.54902 0.0313725 0.521569 0.54902 
0.0313725 0.521569 0.54902 0.0313725 0.521569 0.54902 
0.0313725 0.521569 0.54902 0.0313725 0.521569 0.54902 
0.0313725 0.521569 0.54902 0.0313725 0.521569 0.54902 
0.0313725 0.521569 0.54902 0.0313725 0.521569 0.54902 
0.0313725 0.521569 0.54902 0.0313725 0.521569 0.54902 
0.0313725 0.521569 0.54902 0.0313725 0.521569 0.54902 
0.0313725 0.521569 0.54902 0.0313725 0.521569 0.54902 
0.0313725 0.521569 0.54902 0.0313725 0.521569 0.54902 
0.0313725 0.521569 0.54902 0.0313725 0.521569 0.54902 
0.0313725 0.521569 0.54902 0.0313725 0.521569 0.54902 
0.0313725 0.521569 0.54902 0.0313725 0.521569 0.54902 
0.0313725 0.521569 0.54902 0.0313725 0.521569 0.54902 
0.0313725 0.521569 0.54902 0.0313725 0.521569 0.54902 
0.0313725 0.521569 0.54902 0.0313725 0.521569 0.54902 
0.0313725 0.521569 0.54902 0.0313725 0.521569 0.54902 
0.0313725 0.521569 0.54902 0.0313725 0.521569 0.54902 
0.0313725 0.521569 0.54902 0.0313725 0.521569 0.54902 
0.0313725 0.521569 0.54902 0.0313725 0.521569 0.54902 
0.0313725 0.521569 0.54902 0.0313725 0.521569 0.54902 
0.0313725 0.521569 0.54902 0.0313725 0.521569 0.54902 
0.0313725 0.521569 0.54902 0.0313725 0.521569 0.54902 
0.0313725 0.521569 0.54902 0.0313725 0.521569 0.54902 
0.0313725 0.521569 0.54902 0.0313725 0.521569 0.54902 
0.0313725 0.521569 0.54902 0.0313725 0.521569 0.54902 
0.0313725 0.521569 0.54902 0.0313725 0.521569 0.54902 
0.0313725 0.521569 0.54902 0.0313725 0.521569 0.54902 
0.0313725 0.521569 0.54902 0.0313725 0.521569 0.54902 
0.0313725 0.521569 0.54902 0.0313725 0.521569 0.54902 
0.0313725 0.521569 0.54902 0.0313725 0.521569 0.54902 
0.0313725 0.521569 0.54902 0.0313725 0.521569 0.54902 
0.0313725 0.521569 0.54902 0.0313725 0.521569 0.54902 
0.0313725 0.521569 0.54902 0.0313725 0.521569 0.54902 
0.0313725 0.521569 0.54902 0.0313725 0.521569 0.54902 
0.0313725 0.521569 0.54902 0.0313725 0.521569 0.54902 
0.0313725 0.521569 0.54902 0.0313725 0.521569 0.54902 
0.0313725 0.521569 0.54902 0.0313725 0.521569 0.54902 
0.0313725 0.521569 0.54902 0.0313725 0.521569 0.54902 
0.0313725 0.521569 0.54902 0.0313725 0.521569 0.54902 
0.0313725 0.521569 0.54902 0.0313725 0.521569 0.54902 
0.0313725 0.521569 0.54902 0.0313725 0.521569 0.54902 
0.0313725 0.521569 0.54902 0.0313725 0.521569 0.54902 
0.0313725 0.521569 0.54902 0.0313725 0.521569 0.54902 
0.0313725 0.521569 0.54902 0.0313725 0.521569 0.54902 
0.0313725 0.521569 0.54902 0.0313725 0.521569 0.54902 
0.0313725 0.521569 0.54902 0.0313725 0.521569 0.54902 
0.0313725 0.521569 0.54902 0.0313725 0.521569 0.54902 
0.0313725 0.521569 0.54902 0.0313725 0.521569 0.54902 
0.0313725 0.521569 0.54902 0.0313725 0.521569 0.54902 
0.0313725 0.521569 0.54902 0.0313725 0.521569 0.54902 
0.0313725 0.521569 0.54902 0.0313725 0.521569 0.54902 
0.0313725 0.521569 0.54902 0.0313725 0.521569 0.54902 
0.0313725 0.521569 0.54902 0.0313725 0.521569 0.54902 
0.0313725 0.521569 0.54902 0.0313725 0.521569 0.54902 
0.0313725 0.521569 0.54902 0.0313725 0.521569 0.54902 
0.0313725 0.521569 0.54902 0.0313725 0.521569 0.54902 
0.0313725 0.521569 0.54902 0.0313725 0.521569 0.54902 
0.0313725 0.521569 0.54902 0.0313725 0.521569 0.54902 
0.0313725 0.521569 0.54902 0.0313725 0.521569 0.54902 
0.0313725 0.521569 0.54902 0.0313725 0.521569 0.54902 
0.0313725 0.521569 0.54902 0.0313725 0.521569 0.54902 
0.0313725 0.521569 0.54902 0.0313725 0.521569 0.54902 
0.0313725 0.521569 0.54902 0.0313725 0.521569 0.54902 
0.0313725 0.521569 0.54902 0.0313725 0.521569 0.54902 
0.0313725 0.521569 0.54902 0.0313725 0.521569 0.54902 
0.0313725 0.521569 0.54902 0.0313725 0.521569 0.54902 
0.0313725 0.521569 0.54902 0.0313725 0.521569 0.54902 
0.0313725 0.521569 0.54902 0.0313725 0.521569 0.54902 
0.0313725 0.521569 0.54902 0.0313725 0.521569 0.54902 
0.0313725 0.521569 0.54902 0.0313725 0.521569 0.54902 
0.0313725 0.521569 0.54902 0.0313725 0.521569 0.54902 
0.0313725 0.521569 0.54902 0.0313725 0.521569 0.54902 
0.0313725 0.521569 0.54902 0.0313725 0.521569 0.54902 
0.0313725 0.521569 0.54902 0.0313725 0.521569 0.54902 
0.0313725 0.521569 0.54902 0.0313725 0.521569 0.54902 
0.0313725 0.521569 0.54902 0.0313725 0.521569 0.54902 
0.0313725 0.521569 0.54902 0.0313725 0.521569 0.54902 
0.0313725 0.521569 0.54902 0.0313725 0.521569 0.54902 
0.0313725 0.521569 0.54902 0.0313725 0.521569 0.54902 
0.0313725 0.521569 0.54902 0.0313725 0.521569 0.54902 
0.0313725 0.521569 0.54902 0.0313725 0.521569 0.54902 
0.0313725 0.521569 0.54902 0.0313725 0.521569 0.54902 
0.0313725 0.521569 0.54902 0.0313725 0.521569 0.54902 
0.0313725 0.521569 0.54902 0.0313725 0.521569 0.54902 
0.0313725 0.521569 0.54902 0.0313725 0.521569 0.54902 
0.0313725 0.521569 0.54902 0.0313725 0.521569 0.54902 
0.0313725 0.521569 0.54902 0.0313725 0.521569 0.54902 
0.0313725 0.521569 0.54902 0.0313725 0.521569 0.54902 
0.0313725 0.521569 0.54902 0.0313725 0.521569 0.54902 
0.0313725 0.521569 0.54902 0.0313725 0.521569 0.54902 
0.0313725 0.521569 0.54902 0.0313725 0.521569 0.54902 
0.0313725 0.521569 0.54902 0.0313725 0.521569 0.54902 
0.0313725 0.521569 0.54902 0.0313725 0.521569 0.54902 
0.0313725 0.521569 0.54902 0.0313725 0.521569 0.54902 
0.0313725 0.521569 0.54902 0.0313725 0.521569 0.54902 
0.0313725 0.521569 0.54902 0.0313725 0.521569 0.54902 
0.0313725 0.521569 0.54902 0.0313725 0.521569 0.54902 
0.0313725 0.521569 0.54902 0.0313725 0.521569 0.54902 
0.0313725 0.521569 0.54902 0.0313725 0.521569 0.54902 
0.0313725 0.521569 0.54902 0.0313725 0.521569 0.54902 
0.0313725 0.521569 0.54902 0.0313725 0.521569 0.54902 
0.0313725 0.521569 0.54902 0.0313725 0.521569 0.54902 
0.0313725 0.521569 0.54902 0.0313725 0.521569 0.54902 
0.0313725 0.521569 0.54902 0.0313725 0.521569 0.54902 
0.0313725 0.521569 0.54902 0.0313725 0.521569 0.54902 
0.0313725 0.521569 0.54902 0.0313725 0.521569 0.54902 
0.0313725 0.521569 0.54902 0.0313725 0.521569 0.54902 
0.0313725 0.521569 0.54902 0.0313725 0.521569 0.54902 
0.0313725 0.521569 0.54902 0.0313725 0.521569 0.54902 
0.0313725 0.521569 0.54902 0.0313725 0.521569 0.54902 
0.0313725 0.521569 0.54902 0.0313725 0.521569 0.54902 
0.0313725 0.521569 0.54902 0.0313725 0.521569 0.54902 
0.0313725 0.521569 0.54902 0.0313725 0.521569 0.54902 
0.0313725 0.521569 0.54902 0.0313725 0.521569 0.54902 
0.0313725 0.521569 0.54902 0.0313725 0.521569 0.54902 
0.0313725 0.521569 0.54902 0.0313725 0.521569 0.54902 
0.0313725 0.521569 0.54902 0.0313725 0.521569 0.54902 
0.0313725 0.521569 0.54902 0.0313725 0.521569 0.54902 
0.0313725 0.521569 0.54902 0.0313725 0.521569 0.54902 
0.0313725 0.521569 0.54902 0.0313725 0.521569 0.54902 
0.0313725 0.521569 0.54902 0.0313725 0.521569 0.54902 
0.0313725 0.521569 0.54902 0.0313725 0.521569 0.54902 
0.0313725 0.521569 0.54902 0.0313725 0.521569 0.54902 
0.0313725 0.521569 0.54902 0.0313725 0.521569 0.54902 
0.0313725 0.521569 0.54902 0.0313725 0.521569 0.54902 
0.0313725 0.521569 0.54902 0.0313725 0.521569 0.54902 
0.0313725 0.521569 0.54902 0.0313725 0.521569 0.54902 
0.0313725 0.521569 0.54902 0.0313725 0.521569 0.54902 
0.0313725 0.521569 0.54902 0.0313725 0.521569 0.54902 
0.0313725 0.521569 0.54902 0.0313725 0.521569 0.54902 
0.0313725 0.521569 0.54902 0.0313725 0.521569 0.54902 
0.0313725 0.521569 0.54902 0.0313725 0.521569 0.54902 
0.0313725 0.521569 0.54902 0.0313725 0.521569 0.54902 
0.0313725 0.521569 0.54902 0.0313725 0.521569 0.54902 
0.0313725 0.521569 0.54902 0.0313725 0.521569 0.54902 
0.0313725 0.521569 0.54902 0.0313725 0.521569 0.54902 
0.0313725 0.521569 0.54902 0.0313725 0.521569 0.54902 
0.0313725 0.521569 0.54902 0.0313725 0.521569 0.54902 
0.0313725 0.521569 0.54902 0.0313725 0.521569 0.54902 
0.0313725 0.521569 0.54902 0.0313725 0.521569 0.54902 
0.0313725 0.521569 0.54902 0.0313725 0.521569 0.54902 
0.0313725 0.521569 0.54902 0.0313725 0.521569 0.54902 
0.0313725 0.521569 0.54902 0.0313725 0.521569 0.54902 
0.0313725 0.521569 0.54902 0.0313725 0.521569 0.54902 
0.0313725 0.521569 0.54902 0.0313725 0.521569 0.54902 
0.0313725 0.521569 0.54902 0.0313725 0.521569 0.54902 
0.0313725 0.521569 0.54902 0.0313725 0.521569 0.54902 
0.0313725 0.521569 0.54902 0.0313725 0.521569 0.54902 
0.0313725 0.521569 0.54902 0.0313725 0.521569 0.54902 
0.0313725 0.521569 0.54902 0.0313725 0.521569 0.54902 
0.0313725 0.521569 0.54902 0.0313725 0.521569 0.54902 
0.0313725 0.521569 0.54902 0.0313725 0.521569 0.54902 
0.0313725 0.521569 0.54902 0.0313725 0.521569 0.54902 
0.0313725 0.521569 0.54902 0.0313725 0.521569 0.54902 
0.0313725 0.521569 0.54902 0.0313725 0.521569 0.54902 
0.0313725 0.521569 0.54902 0.0313725 0.521569 0.54902 
0.0313725 0.521569 0.54902 0.0313725 0.521569 0.54902 
0.0313725 0.521569 0.54902 0.0313725 0.521569 0.54902 
0.0313725 0.521569 0.54902 0.0313725 0.521569 0.54902 
0.0313725 0.521569 0.54902 0.0313725 0.521569 0.54902 
0.0313725 0.521569 0.54902 0.0313725 0.521569 0.54902 