# vtk DataFile Version 4.2
vtk output
ASCII
DATASET POLYDATA
POINTS 775 float
334.343 66.6932 58.3787 334.683 66.8001 58.3455 336.34 67.4311 58.25 
336.041 67.6392 58.3617 336.795 67.3586 58.2259 339.552 68.0282 58.1572 
340.084 67.9694 58.1908 340.886 68.9509 58.1894 341.418 69.0217 58.1762 
341.174 69.2731 58.2321 341.267 69.5547 58.3573 342.818 69.1026 58.6185 
342.283 69.8239 58.6586 333.31 66.5178 58.6522 335.93 67.0259 58.3361 
335.4 66.3018 58.4772 333.456 67.1743 58.7863 333.756 67.6009 58.9165 
341.326 67.769 58.4482 342.155 68.2181 58.4355 337.435 68.5209 58.4354 
338.11 68.7808 58.4339 342.823 68.4801 58.6531 343.33 68.6297 58.9976 
343.2 68.4146 58.9137 343.443 68.4068 59.185 343.259 69.2738 59.2576 
340.023 69.8227 58.8097 341.979 70.3008 58.885 342.213 70.434 59.1397 
325.768 64.6037 60.2219 326.06 64.9874 60.2451 327.409 65.2624 59.9485 
327.751 65.5831 59.9839 331.376 66.6701 59.2284 343.068 67.6624 59.224 
332.202 67.3682 59.3916 343.368 67.7398 59.4508 333.719 67.9745 59.2919 
343.6 68.394 59.5197 343.41 69.1374 59.6838 343.589 68.6551 59.6816 
341.584 70.366 58.9889 340.481 70.5078 59.5204 342.001 70.8294 59.5333 
342.507 70.5889 59.5421 342.247 70.8754 59.7659 342.632 70.7153 59.8595 
328.507 63.872 59.9072 325.036 64.6659 60.5376 327.118 65.5002 60.1679 
341.034 66.1116 59.3409 342.112 65.8417 60.0527 326.629 65.6709 60.6256 
331.012 67.4585 60.3801 343.498 67.614 59.8343 343.651 68.0146 59.8325 
332.59 68.1176 60.6363 343.678 68.0176 60.1934 333.653 68.5639 60.3421 
334.043 68.6295 60.0977 333.792 68.6102 60.1988 338.99 70.0098 59.9943 
339.808 70.3216 59.7199 340.649 70.7005 59.8483 340.589 70.6904 60.1044 
343.002 70.2862 60.3644 340.901 70.7928 59.9961 341.935 70.9491 60.1114 
342.322 71.0146 60.0591 342.287 71.0222 60.2477 342.543 70.9288 60.0384 
342.476 71.0279 60.1856 342.624 70.9374 60.2422 320.139 61.8704 62.4291 
325.262 64.9274 60.5762 342.908 65.5594 61.0231 343.216 65.8674 61.3039 
326.062 65.684 61.3734 327.368 66.4271 61.3111 329.007 66.8474 61.0498 
340.271 70.4743 60.456 340.856 70.5686 60.7572 341.293 70.6028 60.925 
342.115 70.8832 60.5358 342.498 70.8125 60.6533 342.572 70.5961 60.9064 
342.871 70.5119 60.5851 342.714 70.6691 60.7074 319.048 60.8599 62.9066 
318.699 60.5414 63.1091 319.644 60.8417 62.7219 319.549 62.0733 62.826 
321.336 63.2157 62.2464 320.837 63.1183 62.5302 322.887 64.1913 62.0115 
342.69 64.6101 61.7209 343.421 65.8137 62.1232 324.211 64.9622 61.8867 
328.09 66.4649 62.0332 343.539 66.7135 61.969 328.493 66.6787 61.6254 
339.922 69.8439 61.6168 317.219 59.738 64.06 317.171 59.972 64.0111 
318.68 60.0736 63.3175 320.441 59.9502 62.9895 319.428 62.7821 63.641 
321.577 63.8549 63.3893 323.279 64.5029 62.9335 329.656 66.7461 62.3155 
343.458 66.7807 62.7386 343.276 67.6532 62.6043 341.675 69.4687 62.307 
316.599 59.2547 64.7431 317.857 59.1138 64.1312 316.821 59.8028 64.3967 
317.267 60.7429 64.0011 316.97 60.7327 64.2963 317.885 61.5863 63.8953 
318.39 62.3183 64.4034 320.168 63.2448 63.9324 320.691 63.4323 64.0235 
325.434 64.8163 63.8769 318.601 58.0378 64.7844 322.333 57.9264 64.6481 
315.503 58.7734 66.0397 315.801 59.2809 65.667 316.799 61.0011 64.8772 
317.284 61.4517 64.6224 343.099 62.2898 65.1598 318.002 62.097 64.7195 
343.264 63.2206 64.9879 343.322 64.1925 64.773 327.872 64.6583 64.8386 
343.296 65.145 64.5197 338.992 66.4053 65.1378 341.721 67.0239 64.6285 
342.904 66.75 64.1516 342.176 66.9176 64.6168 315.94 56.9442 66.8622 
339.68 58.9153 65.7141 342.414 60.2336 65.9447 317.222 61.4598 65.6804 
318.534 62.0364 65.8377 342.504 66.0495 65.1234 342.668 66.4666 64.6891 
315.242 56.691 67.7683 314.652 57.7239 67.7012 314.549 57.7495 67.8188 
314.63 57.8758 67.7881 314.828 58.3367 67.7136 342.704 59.9914 66.8715 
315.357 59.2861 66.6397 319.127 61.4531 67.0875 343.061 62.4379 66.7726 
342.972 63.4552 66.3863 341.654 65.0932 66.1768 342.842 64.8315 65.6549 
342.185 65.5773 65.6267 315.461 56.1608 68.0443 314.554 57.7341 67.9473 
314.67 57.6452 68.3361 342.238 58.4039 68.4631 314.66 58.0295 68.4502 
314.65 58.1733 68.3514 314.667 58.1172 68.2179 314.813 58.3356 68.2754 
343.006 60.536 67.5212 317.32 60.3219 67.8702 320.473 61.1496 67.8482 
342.835 61.3939 68.1107 342.183 63.8274 66.985 315.414 55.0205 69.4416 
316.061 55.1243 68.7136 315.819 54.8138 69.2773 317.497 54.8616 68.4283 
341.357 57.4067 68.4028 341.546 57.0579 69.0343 314.913 57.9919 68.889 
342.632 59.2878 68.1098 315.223 58.6459 68.4604 317.196 53.6508 70.0791 
341.24 56.4722 69.4025 341.457 56.2025 69.9805 315.064 57.3281 69.9685 
316.817 58.9478 69.4909 329.748 59.8617 70.3683 342.349 60.9161 69.1301 
341.578 61.1882 69.5614 314.838 55.5009 70.6211 341.768 55.9475 70.9105 
314.838 56.0212 70.6947 342.267 57.2585 70.9529 342.311 57.8517 70.9324 
342.297 58.3715 70.7467 341.645 59.604 70.7954 340.758 60.6832 70.3084 
317.811 52.404 71.7991 315.499 53.8931 71.8031 314.907 55.4082 71.2788 
342.116 58.6515 70.96 341.654 58.6328 71.5597 317.517 51.9286 73.8046 
318.13 51.7515 73.0102 319.731 51.2653 72.8372 316.018 53.2245 72.8407 
336.084 51.8989 72.6603 315.607 53.7977 72.4956 341.081 53.5946 73.2146 
341.845 55.9992 72.8112 315.445 56.0258 72.077 315.815 56.1448 72.292 
339.785 58.8696 72.4146 320.182 50.5425 74.0956 320.203 50.3587 74.6422 
316.256 53.1556 73.5849 341.176 53.2481 74.0669 315.412 54.6294 72.7004 
317.156 55.4316 73.4897 319.775 55.6204 73.9767 320.579 50.107 75.0717 
320.028 50.4172 75.0711 322.137 49.6367 74.8902 317.844 51.8098 74.4964 
318.201 51.7026 74.785 316.192 53.4082 73.6417 316.395 53.5176 73.8636 
317.229 54.4169 74.1152 340.82 57.1425 73.7728 319.779 50.7132 75.634 
319.023 51.327 75.2836 341.316 53.2746 75.7591 318.975 53.4261 75.2479 
333.925 54.8629 76.5782 339.909 55.9711 75.5336 340.424 55.7964 75.4657 
323.311 48.9315 76.9685 325.39 48.0697 77.3968 327.129 47.7385 77.2424 
328.473 47.9685 76.641 320.524 50.4389 76.4697 340.163 50.5642 76.212 
340.552 50.9307 76.2385 319.409 51.6083 75.7704 320.543 50.6502 76.6009 
341.019 51.5901 76.6989 320.177 51.6464 76.3797 318.047 52.8559 74.9754 
341.145 53.3891 76.5745 340.585 55.2433 75.9682 325.303 47.8506 78.6976 
325.877 47.6037 78.6035 324.049 48.5777 77.9897 322.414 49.5326 77.389 
340.257 49.3972 78.4539 321.03 51.0163 77.0802 341.106 51.9115 77.5719 
340.97 51.8267 78.1128 341.015 51.4038 78.0145 326.842 52.7901 78.0597 
340.709 54.5006 76.6144 323.047 49.5075 78.112 340.36 49.1096 79.382 
321.689 50.3456 77.4562 322.842 50.1074 78.2477 322.387 50.6696 78.0054 
322.577 50.4428 78.1423 340.884 50.8228 78.122 322.524 50.9743 77.9935 
324.039 51.3209 78.5331 325.356 52.0492 78.442 327.094 47.05 79.701 
328.356 46.5996 80.244 329.52 46.3787 79.6799 325.686 47.7719 79.4776 
339.89 47.8713 80.0821 324.77 48.4062 79.1312 323.609 49.3217 78.619 
340.581 50.179 79.7558 323.565 50.1887 78.7377 324.415 50.2422 79.2221 
329.441 46.161 81.3758 327.145 47.2556 80.6133 333.829 45.3868 80.8047 
338.587 46.426 80.6803 327.456 47.2923 81.0813 339.557 47.2237 80.5558 
326.412 48.1121 80.6597 330.153 45.8194 82.2759 331.255 45.3031 82.3127 
332.097 45.0614 82.0464 333.071 44.8446 82.0926 337.74 45.3411 81.7748 
328.502 46.7501 81.439 327.445 47.4403 81.2294 327.81 47.3153 81.4025 
327.063 47.9149 81.137 327.52 47.6619 81.3697 326.386 48.5969 80.7005 
326.435 49.5965 80.508 329.609 49.6848 81.886 340.169 49.5586 81.5071 
338.913 50.4933 81.8683 339.921 50.3498 81.2721 333.329 44.4155 83.5454 
338.535 45.4341 82.3312 339.489 46.3172 82.3921 329.028 47.1073 82.2888 
328.53 48.1894 82.0713 331.796 49.4791 82.8099 336.834 50.1461 82.8239 
334.044 44.0483 84.7779 334.962 43.7938 84.4238 332.131 44.9196 83.8059 
336.624 44.0004 83.8631 338.785 45.0007 83.6161 338.536 44.619 84.0193 
331.233 45.6057 83.5672 339.277 45.485 84.171 330.297 46.291 83.1633 
339.568 46.2115 83.8728 330.464 46.6239 83.4487 340.019 47.3276 82.9924 
329.625 47.6183 82.9272 329.565 47.9199 82.8293 330.952 48.3104 83.38 
333.638 44.295 84.9736 338.636 44.551 84.452 338.759 44.6624 84.7942 
339.077 45.1097 84.7202 332.251 45.3155 84.6465 332.013 45.6387 84.6484 
339.426 46.1486 84.5975 331.55 47.0419 84.2888 335.648 43.5667 86.1606 
333.886 44.2521 85.4106 334.996 43.8866 86.0595 338.776 44.8086 85.3227 
331.929 45.9449 84.7096 332.902 45.631 85.3846 339.235 46.3235 85.0441 
331.754 46.2641 84.5883 336.005 48.0196 85.2568 337.642 47.5987 85.6328 
338.812 47.448 85.042 335.448 43.6974 86.3021 335.986 43.5283 86.2891 
335.322 43.8319 86.3823 337.251 43.8525 86.1039 337.819 44.1195 86.0649 
334.255 44.4725 86.1525 335.283 44.0424 86.5103 337.988 44.3509 86.3006 
337.721 44.3324 86.5864 338.341 44.7423 86.1876 338.626 44.8108 85.8136 
334.122 44.7908 86.2532 337.956 44.5689 86.5178 334.428 44.8658 86.4882 
338.905 46.4199 85.5612 333.637 45.9481 85.8793 335.348 46.9917 86.0193 
337.882 46.7001 86.2049 338.791 46.9132 85.5035 338.489 47.2366 85.547 
336.105 43.6142 86.4988 336.443 43.7354 86.5933 337.275 43.9667 86.5389 
337.084 44.0423 86.7551 337.224 44.2489 86.8326 338.636 44.9915 85.9699 
338.155 45.435 86.4918 333.989 45.5388 86.2331 334.356 45.4196 86.4716 
334.639 45.1196 86.6095 334.896 45.9524 86.5112 336.738 43.9449 86.7621 
336.826 44.2729 86.912 336.361 44.5453 87.0293 336.774 45.0967 87.0521 
335.303 45.6239 86.7509 335.94 45.5149 86.8984 336.363 45.1562 87.0665 
337.773 45.5552 86.6879 336.529 44.873 87.1003 336.579 44.2771 368.464 
337.468 44.3955 368.437 335.508 44.7898 368.642 337.741 44.6095 368.433 
337.979 44.844 368.457 335.777 45.7442 368.652 337.374 45.4642 368.479 
338.238 45.4289 368.727 336.348 45.9646 368.656 337.683 45.8699 368.714 
336.566 43.6598 368.816 336.384 43.5287 368.97 336.261 43.6932 368.841 
336.624 43.5117 368.954 337.679 44.3918 368.48 337.881 44.4183 368.621 
338.151 44.8699 368.534 338.298 44.8955 368.723 334.211 45.5923 369.227 
333.973 45.3778 369.382 338.426 45.5971 368.988 336.3 43.4879 369.168 
336.722 43.4927 369.042 335.65 43.8452 369.089 335.192 44.1018 369.202 
[...]
POINT_DATA 775
COLOR_SCALARS scalars 3
0.0313725 0.521569 0.54902 0.0313725 0.521569 0.54902 0.0313725 0.521569 0.54902 
0.0313725 0.521569 0.54902 0.0313725 0.521569 0.54902 
0.0313725 0.521569 0.54902 0.0313725 0.521569 0.54902 
0.0313725 0.521569 0.54902 0.0313725 0.521569 0.54902 
0.0313725 0.521569 0.54902 0.0313725 0.521569 0.54902 
0.0313725 0.521569 0.54902 0.0313725 0.521569 0.54902 
0.0313725 0.521569 0.54902 0.0313725 0.521569 0.54902 
0.0313725 0.521569 0.54902 0.0313725 0.521569 0.54902 
0.0313725 0.521569 0.54902 0.0313725 0.521569 0.54902 
0.0313725 0.521569 0.54902 0.0313725 0.521569 0.54902 
0.0313725 0.521569 0.54902 0.0313725 0.521569 0.54902 
0.0313725 0.521569 0.54902 0.0313725 0.521569 0.54902 
0.0313725 0.521569 0.54902 0.0313725 0.521569 0.54902 
0.0313725 0.521569 0.54902 0.0313725 0.521569 0.54902 
0.0313725 0.521569 0.54902 0.0313725 0.521569 0.54902 
0.0313725 0.521569 0.54902 0.0313725 0.521569 0.54902 
0.0313725 0.521569 0.54902 0.0313725 0.521569 0.54902 
0.0313725 0.521569 0.54902 0.0313725 0.521569 0.54902 
0.0313725 0.521569 0.54902 0.0313725 0.521569 0.54902 
0.0313725 0.521569 0.54902 0.0313725 0.521569 0.54902 
0.0313725 0.521569 0.54902 0.0313725 0.521569 0.54902 
0.0313725 0.521569 0.54902 0.0313725 0.521569 0.54902 
0.0313725 0.521569 0.54902 0.0313725 0.521569 0.54902 
0.0313725 0.521569 0.54902 0.0313725 0.521569 0.54902 
0.0313725 0.521569 0.54902 0.0313725 0.521569 0.54902 
0.0313725 0.521569 0.54902 0.0313725 0.521569 0.54902 
0.0313725 0.521569 0.54902 0.0313725 0.521569 0.54902 
0.0313725 0.521569 0.54902 0.0313725 0.521569 0.54902 
0.0313725 0.521569 0.54902 0.0313725 0.521569 0.54902 
0.0313725 0.521569 0.54902 0.0313725 0.521569 0.54902 
0.0313725 0.521569 0.54902 0.0313725 0.521569 0.54902 
0.0313725 0.521569 0.54902 0.0313725 0.521569 0.54902 
0.0313725 0.521569 0.54902 0.0313725 0.521569 0.54902 
0.0313725 0.521569 0.54902 0.0313725 0.521569 0.54902 
0.0313725 0.521569 0.54902 0.0313725 0.521569 0.54902 
0.0313725 0.521569 0.54902 0.0313725 0.521569 0.54902 
0.0313725 0.521569 0.54902 0.0313725 0.521569 0.54902 
0.0313725 0.521569 0.54902 0.0313725 0.521569 0.54902 
0.0313725 0.521569 0.54902 0.0313725 0.521569 0.54902 
0.0313725 0.521569 0.54902 0.0313725 0.521569 0.54902 
0.0313725 0.521569 0.54902 0.0313725 0.521569 0.54902 
0.0313725 0.521569 0.54902 0.0313725 0.521569 0.54902 
0.0313725 0.521569 0.54902 0.0313725 0.521569 0.54902 
0.0313725 0.521569 0.54902 0.0313725 0.521569 0.54902 
0.0313725 0.521569 0.54902 0.0313725 0.521569 0.54902 
0.0313725 0.521569 0.54902 0.0313725 0.521569 0.54902 
0.0313725 0.521569 0.54902 0.0313725 0.521569 0.54902 
0.0313725 0.521569 0.54902 0.0313725 0.521569 0.54902 
0.0313725 0.521569 0.54902 0.0313725 0.521569 0.54902 
0.0313725 0.521569 0.54902 0.0313725 0.521569 0.54902 
0.0313725 0.521569 0.54902 0.0313725 0.521569 0.54902 
0.0313725 0.521569 0.54902 0.0313725 0.521569 0.54902 
0.0313725 0.521569 0.54902 0.0313725 0.521569 0.54902 
0.0313725 0.521569 0.54902 0.0313725 0.521569 0.54902 
0.0313725 0.521569 0.54902 0.0313725 0.521569 0.54902 
0.0313725 0.521569 0.54902 0.0313725 0.521569 0.54902 
0.0313725 0.521569 0.54902 0.0313725 0.521569 0.54902 
0.0313725 0.521569 0.54902 0.0313725 0.521569 0.54902 
0.0313725 0.521569 0.54902 0.0313725 0.521569 0.54902 
0.0313725 0.521569 0.54902 0.0313725 0.521569 0.54902 
0.0313725 0.521569 0.54902 0.0313725 0.521569 0.54902 
0.0313725 0.521569 0.54902 0.0313725 0.521569 0.54902 
0.0313725 0.521569 0.54902 0.0313725 0.521569 0.54902 
0.0313725 0.521569 0.54902 0.0313725 0.521569 0.54902 
0.0313725 0.521569 0.54902 0.0313725 0.521569 0.54902 
0.0313725 0.521569 0.54902 0.0313725 0.521569 0.54902 
0.0313725 0.521569 0.54902 0.0313725 0.521569 0.54902 
0.0313725 0.521569 0.54902 0.0313725 0.521569 0.54902 
0.0313725 0.521569 0.54902 0.0313725 0.521569 0.54902 
0.0313725 0.521569 0.54902 0.0313725 0.521569 0.54902 
0.0313725 0.521569 0.54902 0.0313725 0.521569 0.54902 
0.0313725 0.521569 0.54902 0.0313725 0.521569 0.54902 
0.0313725 0.521569 0.54902 0.0313725 0.521569 0.54902 
0.0313725 0.521569 0.54902 0.0313725 0.521569 0.54902 
0.0313725 0.521569 0.54902 0.0313725 0.521569 0.54902 
0.0313725 0.521569 0.54902 0.0313725 0.521569 0.54902 
0.0313725 0.521569 0.54902 0.0313725 0.521569 0.54902 
0.0313725 0.521569 0.54902 0.0313725 0.521569 0.54902 
0.0313725 0.521569 0.54902 0.0313725 0.521569 0.54902 
0.0313725 0.521569 0.54902 0.0313725 0.521569 0.54902 
0.0313725 0.521569 0.54902 0.0313725 0.521569 0.54902 
0.0313725 0.521569 0.54902 0.0313725 0.521569 0.54902 
0.0313725 0.521569 0.54902 0.0313725 0.521569 0.54902 
0.0313725 0.521569 0.54902 0.0313725 0.521569 0.54902 
0.0313725 0.521569 0.54902 0.0313725 0.521569 0.54902 
0.0313725 0.521569 0.54902 0.0313725 0.521569 0.54902 
0.0313725 0.521569 0.54902 0.0313725 0.521569 0.54902 
0.0313725 0.521569 0.54902 0.0313725 0.521569 0.54902 
0.0313725 0.521569 0.54902 0.0313725 0.521569 0.54902 
0.0313725 0.521569 0.54902 0.0313725 0.521569 0.54902 
0.0313725 0.521569 0.54902 0.0313725 0.521569 0.54902 
0.0313725 0.521569 0.54902 0.0313725 0.521569 0.54902 
0.0313725 0.521569 0.54902 0.0313725 0.521569 0.54902 
0.0313725 0.521569 0.54902 0.0313725 0.521569 0.54902 
0.0313725 0.521569 0.54902 0.0313725 0.521569 0.54902 
0.0313725 0.521569 0.54902 0.0313725 0.521569 0.54902 
0.0313725 0.521569 0.54902 0.0313725 0.521569 0.54902 
0.0313725 0.521569 0.54902 0.0313725 0.521569 0.54902 
0.0313725 0.521569 0.54902 0.0313725 0.521569 0.54902 
0.0313725 0.521569 0.54902 0.0313725 0.521569 0.54902 
0.0313725 0.521569 0.54902 0.0313725 0.521569 0.54902 
0.0313725 0.521569 0.54902 0.0313725 0.521569 0.54902 
0.0313725 0.521569 0.54902 0.0313725 0.521569 0.54902 
0.0313725 0.521569 0.54902 0.0313725 0.521569 0.54902 
0.0313725 0.521569 0.54902 0.0313725 0.521569 0.54902 
0.0313725 0.521569 0.54902 0.0313725 0.521569 0.54902 
0.0313725 0.521569 0.54902 0.0313725 0.521569 0.54902 
0.0313725 0.521569 0.54902 0.0313725 0.521569 0.54902 
0.0313725 0.521569 0.54902 0.0313725 0.521569 0.54902 
0.0313725 0.521569 0.54902 0.0313725 0.521569 0.54902 
0.0313725 0.521569 0.54902 0.0313725 0.521569 0.54902 
0.0313725 0.521569 0.54902 0.0313725 0.521569 0.54902 
0.0313725 0.521569 0.54902 0.0313725 0.521569 0.54902 
0.0313725 0.521569 0.54902 0.0313725 0.521569 0.54902 
0.0313725 0.521569 0.54902 0.0313725 0.521569 0.54902 
0.0313725 0.521569 0.54902 0.0313725 0.521569 0.54902 
0.0313725 0.521569 0.54902 0.0313725 0.521569 0.54902 
0.0313725 0.521569 0.54902 0.0313725 0.521569 0.54902 
0.0313725 0.521569 0.54902 0.0313725 0.521569 0.54902 
0.0313725 0.521569 0.54902 0.0313725 0.521569 0.54902 
0.0313725 0.521569 0.54902 0.0313725 0.521569 0.54902 
0.0313725 0.521569 0.54902 0.0313725 0.521569 0.54902 
0.0313725 0.521569 0.54902 0.0313725 0.521569 0.54902 
0.0313725 0.521569 0.54902 0.0313725 0.521569 0.54902 
0.0313725 0.521569 0.54902 0.0313725 0.521569 0.54902 
0.0313725 0.521569 0.54902 0.0313725 0.521569 0.54902 
0.0313725 0.521569 0.54902 0.0313725 0.521569 0.54902 
0.0313725 0.521569 0.54902 0.0313725 0.521569 0.54902 
0.0313725 0.521569 0.54902 0.0313725 0.521569 0.54902 
0.0313725 0.521569 0.54902 0.0313725 0.521569 0.54902 
0.0313725 0.521569 0.54902 0.0313725 0.521569 0.54902 
0.0313725 0.521569 0.54902 0.0313725 0.521569 0.54902 
0.0313725 0.521569 0.54902 0.0313725 0.521569 0.54902 
0.0313725 0.521569 0.54902 0.0313725 0.521569 0.54902 
0.0313725 0.521569 0.54902 0.0313725 0.521569 0.54902 
0.0313725 0.521569 0.54902 0.0313725 0.521569 0.54902 
0.0313725 0.521569 0.54902 0.0313725 0.521569 0.54902 
0.0313725 0.521569 0.54902 0.0313725 0.521569 0.54902 
0.0313725 0.521569 0.54902 0.0313725 0.521569 0.54902 
0.0313725 0.521569 0.54902 0.0313725 0.521569 0.54902 
0.0313725 0.521569 0.54902 0.0313725 0.521569 0.54902 
0.0313725 0.521569 0.54902 0.0313725 0.521569 0.54902 
0.0313725 0.521569 0.54902 0.0313725 0.521569 0.54902 
0.0313725 0.521569 0.54902 0.0313725 0.521569 0.54902 
0.0313725 0.521569 0.54902 0.0313725 0.521569 0.54902 
0.0313725 0.521569 0.54902 0.0313725 0.521569 0.54902 
0.0313725 0.521569 0.54902 0.0313725 0.521569 0.54902 
0.0313725 0.521569 0.54902 0.0313725 0.521569 0.54902 
0.0313725 0.521569 0.54902 0.0313725 0.521569 0.54902 
0.0313725 0.521569 0.54902 0.0313725 0.521569 0.54902 
0.0313725 0.521569 0.54902 0.0313725 0.521569 0.54902 
0.0313725 0.521569 0.54902 0.0313725 0.521569 0.54902 
0.0313725 0.521569 0.54902 0.0313725 0.521569 0.54902 
0.0313725 0.521569 0.54902 0.0313725 0.521569 0.54902 
0.0313725 0.521569 0.54902 0.0313725 0.521569 0.54902 
0.0313725 0.521569 0.54902 0.0313725 0.521569 0.54902 
0.0313725 0.521569 0.54902 0.0313725 0.521569 0.54902 
0.0313725 0.521569 0.54902 0.0313725 0.521569 0.54902 
0.0313725 0.521569 0.54902 0.0313725 0.521569 0.54902 
0.0313725 0.521569 0.54902 0.0313725 0.521569 0.54902 
0.0313725 0.521569 0.54902 0.0313725 0.521569 0.54902 
0.0313725 0.521569 0.54902 0.0313725 0.521569 0.54902 
0.0313725 0.521569 0.54902 0.0313725 0.521569 0.54902 
0.0313725 0.521569 0.54902 0.0313725 0.521569 0.54902 
0.0313725 0.521569 0.54902 0.0313725 0.521569 0.54902 
0.0313725 0.521569 0.54902 0.0313725 0.521569 0.54902 
0.0313725 0.521569 0.54902 0.0313725 0.521569 0.54902 
0.0313725 0.521569 0.54902 0.0313725 0.521569 0.54902 
0.0313725 0.521569 0.54902 0.0313725 0.521569 0.54902 
0.0313725 0.521569 0.54902 0.0313725 0.521569 0.54902 
0.0313725 0.521569 0.54902 0.0313725 0.521569 0.54902 
0.0313725 0.521569 0.54902 0.0313725 0.521569 0.54902 
0.0313725 0.521569 0.54902 0.0313725 0.521569 0.54902 
0.0313725 0.521569 0.54902 0.0313725 0.521569 0.54902 
0.0313725 0.521569 0.54902 0.0313725 0.521569 0.54902 
0.0313725 0.521569 0.54902 0.0313725 0.521569 0.54902 
0.0313725 0.521569 0.54902 0.0313725 0.521569 0.54902 
0.0313725 0.521569 0.54902 0.0313725 0.521569 0.54902 
0.0313725 0.521569 0.54902 0.0313725 0.521569 0.54902 
0.0313725 0.521569 0.54902 0.0313725 0.521569 0.54902 
0.0313725 0.521569 0.54902 0.0313725 0.521569 0.54902 
0.0313725 0.521569 0.54902 0.0313725 0.521569 0.54902 
0.0313725 0.521569 0.54902 0.0313725 0.521569 0.54902 
0.0313725 0.521569 0.54902 0.0313725 0.521569 0.54902 
0.0313725 0.521569 0.54902 0.0313725 0.521569 0.54902 
0.0313725 0.521569 0.54902 0.0313725 0.521569 0.54902 
0.0313725 0.521569 0.54902 0.0313725 0.521569 0.54902 
0.0313725 0.521569 0.54902 0.0313725 0.521569 0.54902 
0.0313725 0.521569 0.54902 0.0313725 0.521569 0.54902 
0.0313725 0.521569 0.54902 0.0313725 0.521569 0.54902 
0.0313725 0.521569 0.54902 0.0313725 0.521569 0.54902 
0.0313725 0.521569 0.54902 0.0313725 0.521569 0.54902 
0.0313725 0.521569 0.54902 0.0313725 0.521569 0.54902 
0.0313725 0.521569 0.54902 0.0313725 0.521569 0.54902 
0.0313725 0.521569 0.54902 0.0313725 0.521569 0.54902 
0.0313725 0.521569 0.54902 0.0313725 0.521569 0.54902 
0.0313725 0.521569 0.54902 0.0313725 0.521569 0.54902 
0.0313725 0.521569 0.54902 0.0313725 0.521569 0.54902 
0.0313725 0.521569 0.54902 0.0313725 0.521569 0.54902 
0.0313725 0.521569 0.54902 0.0313725 0.521569 0.54902 
0.0313725 0.521569 0.54902 0.0313725 0.521569 0.54902 
0.0313725 0.521569 0.54902 0.0313725 0.521569 0.54902 
0.0313725 0.521569 0.54902 0.0313725 0.521569 0.54902 
0.0313725 0.521569 0.54902 0.0313725 0.521569 0.54902 
0.0313725 0.521569 0.54902 0.0313725 0.521569 0.54902 
0.0313725 0.521569 0.54902 0.0313725 0.521569 0.54902 
0.0313725 0.521569 0.54902 0.0313725 0.521569 0.54902 
0.0313725 0.521569 0.54902 0.0313725 0.521569 0.54902 
0.0313725 0.521569 0.54902 0.0313725 0.521569 0.54902 
0.0313725 0.521569 0.54902 0.0313725 0.521569 0.54902 
0.0313725 0.521569 0.54902 0.0313725 0.521569 0.54902 
0.0313725 0.521569 0.54902 0.0313725 0.521569 0.54902 
0.0313725 0.521569 0.54902 0.0313725 0.521569 0.54902 
0.0313725 0.521569 0.54902 0.0313725 0.521569 0.54902 
0.0313725 0.521569 0.54902 0.0313725 0.521569 0.54902 
0.0313725 0.521569 0.54902 0.0313725 0.521569 0.54902 
0.0313725 0.521569 0.54902 0.0313725 0.521569 0.54902 
0.0313725 0.521569 0.54902 0.0313725 0.521569 0.54902 
0.0313725 0.521569 0.54902 0.0313725 0.521569 0.54902 
0.0313725 0.521569 0.54902 0.0313725 0.521569 0.54902 
0.0313725 0.521569 0.54902 0.0313725 0.521569 0.54902 
0.0313725 0.521569 0.54902 0.0313725 0.521569 0.54902 
0.0313725 0.521569 0.54902 0.0313725 0.521569 0.54902 
0.0313725 0.521569 0.54902 0.0313725 0.521569 0.54902 
0.0313725 0.521569 0.54902 0.0313725 0.521569 0.54902 
0.0313725 0.521569 0.54902 0.0313725 0.521569 0.54902 
0.0313725 0.521569 0.54902 0.0313725 0.521569 0.54902 
0.0313725 0.521569 0.54902 0.0313725 0.521569 0.54902 
0.0313725 0.521569 0.54902 0.0313725 0.521569 0.54902 
0.0313725 0.521569 0.54902 0.0313725 0.521569 0.54902 
0.0313725 0.521569 0.54902 0.0313725 0.521569 0.54902 
0.0313725 0.521569 0.54902 0.0313725 0.521569 0.54902 
0.0313725 0.521569 0.54902 0.0313725 0.521569 0.54902 
0.0313725 0.521569 0.54902 0.0313725 0.521569 0.54902 
0.0313725 0.521569 0.54902 0.0313725 0.521569 0.54902 
0.0313725 0.521569 0.54902 0.0313725 0.521569 0.54902 
0.0313725 0.521569 0.54902 0.0313725 0.521569 0.54902 
0.0313725 0.521569 0.54902 0.0313725 0.521569 0.54902 
0.0313725 0.521569 0.54902 0.0313725 0.521569 0.54902 
0.0313725 0.521569 0.54902 0.0313725 0.521569 0.54902 
0.0313725 0.521569 0.54902 0.0313725 0.521569 0.54902 
0.0313725 0.521569 0.54902 0.0313725 0.521569 0.54902 
0.0313725 0.521569 0.54902 0.0313725 0.521569 0.54902 
0.0313725 0.521569 0.54902 0.0313725 0.521569 0.54902 
0.0313725 0.521569 0.54902 0.0313725 0.521569 0.54902 
0.0313725 0.521569 0.54902 0.0313725 0.521569 0.54902 
0.0313725 0.521569 0.54902 0.0313725 0.521569 0.54902 
0.0313725 0.521569 0.54902 0.0313725 0.521569 0.54902 
0.0313725 0.521569 0.54902 0.0313725 0.521569 0.54902 
0.0313725 0.521569 0.54902 0.0313725 0.521569 0.54902 
0.0313725 0.521569 0.54902 0.0313725 0.521569 0.54902 
0.0313725 0.521569 0.54902 0.0313725 0.521569 0.54902 
0.0313725 0.521569 0.54902 0.0313725 0.521569 0.54902 
0.0313725 0.521569 0.54902 0.0313725 0.521569 0.54902 
0.0313725 0.521569 0.54902 0.0313725 0.521569 0.54902 
0.0313725 0.521569 0.54902 0.0313725 0.521569 0.54902 
0.0313725 0.521569 0.54902 0.0313725 0.521569 0.54902 
0.0313725 0.521569 0.54902 0.0313725 0.521569 0.54902 
0.0313725 0.521569 0.54902 0.0313725 0.521569 0.54902 
0.0313725 0.521569 0.54902 0.0313725 0.521569 0.54902 
0.0313725 0.521569 0.54902 0.0313725 0.521569 0.54902 
0.0313725 0.521569 0.54902 0.0313725 0.521569 0.54902 
0.0313725 0.521569 0.54902 0.0313725 0.521569 0.54902 
0.0313725 0.521569 0.54902 0.0313725 0.521569 0.54902 
0.0313725 0.521569 0.54902 0.0313725 0.521569 0.54902 
0.0313725 0.521569 0.54902 0.0313725 0.521569 0.54902 
0.0313725 0.521569 0.54902 0.0313725 0.521569 0.54902 
0.0313725 0.521569 0.54902 0.0313725 0.521569 0.54902 
0.0313725 0.521569 0.54902 0.0313725 0.521569 0.54902 
0.0313725 0.521569 0.54902 0.0313725 0.521569 0.54902 
0.0313725 0.521569 0.54902 0.0313725 0.521569 0.54902 
0.0313725 0.521569 0.54902 0.0313725 0.521569 0.54902 
0.0313725 0.521569 0.54902 0.0313725 0.521569 0.54902 
0.0313725 0.521569 0.54902 0.0313725 0.521569 0.54902 
0.0313725 0.521569 0.54902 0.0313725 0.521569 0.54902 
0.0313725 0.521569 0.54902 0.0313725 0.521569 0.54902 
0.0313725 0.521569 0.54902 0.0313725 0.521569 0.54902 
0.0313725 0.521569 0.54902 0.0313725 0.521569 0.54902 
0.0313725 0.521569 0.54902 0.0313725 0.521569 0.54902 
0.0313725 0.521569 0.54902 0.0313725 0.521569 0.54902 
0.0313725 0.521569 0.54902 0.0313725 0.521569 0.54902 
0.0313725 0.521569 0.54902 0.0313725 0.521569 0.54902 
0.0313725 0.521569 0.54902 0.0313725 0.521569 0.54902 
0.0313725 0.521569 0.54902 0.0313725 0.521569 0.54902 
0.0313725 0.521569 0.54902 0.0313725 0.521569 0.54902 
0.0313725 0.521569 0.54902 0.0313725 0.521569 0.54902 
0.0313725 0.521569 0.54902 0.0313725 0.521569 0.54902 
0.0313725 0.521569 0.54902 0.0313725 0.521569 0.54902 
0.0313725 0.521569 0.54902 0.0313725 0.521569 0.54902 
0.0313725 0.521569 0.54902 0.0313725 0.521569 0.54902 
0.0313725 0.521569 0.54902 0.0313725 0.521569 0.54902 
0.0313725 0.521569 0.54902 0.0313725 0.521569 0.54902 
0.0313725 0.521569 0.54902 0.0313725 0.521569 0.54902 
0.0313725 0.521569 0.54902 0.0313725 0.521569 0.54902 
0.0313725 0.521569 0.54902 0.0313725 0.521569 0.54902 
0.0313725 0.521569 0.54902 0.0313725 0.521569 0.54902 
0.0313725 0.521569 0.54902 0.0313725 0.521569 0.54902 
0.0313725 0.521569 0.54902 0.0313725 0.521569 0.54902 
0.0313725 0.521569 0.54902 0.0313725 0.521569 0.54902 
0.0313725 0.521569 0.54902 0.0313725 0.521569 0.54902 
0.0313725 0.521569 0.54902 0.0313725 0.521569 0.54902 
0.0313725 0.521569 0.54902 0.0313725 0.521569 0.54902 
0.0313725 0.521569 0.54902 0.0313725 0.521569 0.54902 
0.0313725 0.521569 0.54902 0.0313725 0.521569 0.54902 
0.0313725 0.521569 0.54902 0.0313725 0.521569 0.54902 
0.0313725 0.521569 0.54902 0.0313725 0.521569 0.54902 
0.0313725 0.521569 0.54902 0.0313725 0.521569 0.54902 
0.0313725 0.521569 0.54902 0.0313725 0.521569 0.54902 
0.0313725 0.521569 0.54902 0.0313725 0.521569 0.54902 
0.0313725 0.521569 0.54902 0.0313725 0.521569 0.54902 
0.0313725 0.521569 0.54902 0.0313725 0.521569 0.54902 
0.0313725 0.521569 0.54902 0.0313725 0.521569 0.54902 
0.0313725 0.521569 0.54902 0.0313725 0.521569 0.54902 
0.0313725 0.521569 0.54902 0.0313725 0.521569 0.54902 
0.0313725 0.521569 0.54902 0.0313725 0.521569 0.54902 
0.0313725 0.521569 0.54902 0.0313725 0.521569 0.54902 
0.0313725 0.521569 0.54902 0.0313725 0.521569 0.54902 
0.0313725 0.521569 0.54902 0.0313725 0.521569 0.54902 
0.0313725 0.521569 0.54902 0.0313725 0.521569 0.54902 
0.0313725 0.521569 0.54902 0.0313725 0.521569 0.54902 
0.0313725 0.521569 0.54902 0.0313725 0.521569 0.54902 
0.0313725 0.521569 0.54902 0.0313725 0.521569 0.54902 
0.0313725 0.521569 0.54902 0.0313725 0.521569 0.54902 
0.0313725 0.521569 0.54902 0.0313725 0.521569 0.54902 
0.0313725 0.521569 0.54902 0.0313725 0.521569 0.54902 
0.0313725 0.521569 0.54902 0.0313725 0.521569 0.54902 
0.0313725 0.521569 0.54902 0.0313725 0.521569 0.54902 
0.0313725 0.521569 0.54902 0.0313725 0.521569 0.54902 
0.0313725 0.521569 0.54902 0.0313725 0.521569 0.54902 
0.0313725 0.521569 0.54902 0.0313725 0.521569 0.54902 
0.0313725 0.521569 0.54902 0.0313725 0.521569 0.54902 
0.0313725 0.521569 0.54902 0.0313725 0.521569 0.54902 
0.0313725 0.521569 0.54902 0.0313725 0.521569 0.54902 
0.0313725 0.521569 0.54902 0.0313725 0.521569 0.54902 
0.0313725 0.521569 0.54902 0.0313725 0.521569 0.54902 
0.0313725 0.521569 0.54902 0.0313725 0.521569 0.54902 
0.0313725 0.521569 0.54902 0.0313725 0.521569 0.54902 
0.0313725 0.521569 0.54902 0.0313725 0.521569 0.54902 
0.0313725 0.521569 0.54902 0.0313725 0.521569 0.54902 
0.0313725 0.521569 0.54902 0.0313725 0.521569 0.54902 
0.0313725 0.521569 0.54902 0.0313725 0.521569 0.54902 
0.0313725 0.521569 0.54902 0.0313725 0.521569 0.54902 
0.0313725 0.521569 0.54902 0.0313725 0.521569 0.54902 
0.0313725 0.521569 0.54902 0.0313725 0.521569 0.54902 
0.0313725 0.521569 0.54902 0.0313725 0.521569 0.54902 
0.0313725 0.521569 0.54902 0.0313725 0.521569 0.54902 
0.0313725 0.521569 0.54902 0.0313725 0.521569 0.54902 
0.0313725 0.521569 0.54902 0.0313725 0.521569 0.54902 
0.0313725 0.521569 0.54902 0.0313725 0.521569 0.54902 
0.0313725 0.521569 0.54902 0.0313725 0.521569 0.54902 
0.0313725 0.521569 0.54902 0.0313725 0.521569 0.54902 
0.0313725 0.521569 0.54902 0.0313725 0.521569 0.54902 
0.0313725 0.521569 0.54902 0.0313725 0.521569 0.54902 
0.0313725 0.521569 0.54902 0.0313725 0.521569 0.54902 
0.0313725 0.521569 0.54902 0.0313725 0.521569 0.54902 
0.0313725 0.521569 0.54902 0.0313725 0.521569 0.54902 
0.0313725 0.521569 0.54902 0.0313725 0.521569 0.54902 
0.0313725 0.521569 0.54902 0.0313725 0.521569 0.54902 
0.0313725 0.521569 0.54902 0.0313725 0.521569 0.54902 
0.0313725 0.521569 0.54902 0.0313725 0.521569 0.54902 
0.0313725 0.521569 0.54902 0.0313725 0.521569 0.54902 
0.0313725 0.521569 0.54902 0.0313725 0.521569 0.54902 