# vtk DataFile Version 4.2
vtk output
ASCII
DATASET POLYDATA
POINTS 1212 float
288.45 27.7483 116.931 288.914 27.2555 117.158 289.887 27.7496 116.924 
289.769 27.3122 117.127 283.728 28.2225 117.451 284.763 28.1898 117.091 
284.212 28.792 117.063 284.45 29.1233 116.986 285.331 28.9286 116.84 
286.817 28.9614 116.729 284.916 29.2073 116.889 297.458 25.6882 118.176 
298.824 25.3687 118.462 299.792 25.8333 118.269 300.237 25.617 118.443 
284.162 27.4241 117.736 291.15 27.7664 117.058 282.423 28.3624 118.284 
293.726 28.3376 117.299 282.525 29.4016 117.93 283.877 29.1741 117.203 
291.842 29.4452 117.086 286.152 30.1716 116.848 282.904 30.5395 117.739 
284.218 30.6693 117.289 288.459 31.3622 117.08 299.527 24.9364 118.85 
300.502 25.1374 118.819 302.422 25.2097 119.14 303.274 25.7172 119.135 
303.675 25.5566 119.377 289.375 26.1843 118.018 299.82 26.5966 118.104 
301.144 26.4148 118.416 300.828 26.9583 118.316 281.712 29.0034 118.748 
281.535 29.4385 118.899 282.543 32.1994 118.616 281.084 27.9274 119.925 
281.833 26.9469 119.928 281.284 28.2486 119.482 302.393 28.846 119.082 
303.716 28.5158 119.526 281.188 30.2371 119.536 283.865 35.09 119.338 
287.666 34.9438 118.508 284.312 35.2988 119.242 284.699 35.7334 119.338 
285.681 35.2635 118.849 301.907 24.2202 119.851 304.828 24.3167 120.757 
297.441 24.0904 119.824 305.842 25.4429 120.627 305.961 25.2506 120.787 
282.141 26.4614 120.245 281 28.3852 119.826 304.861 27.8466 119.963 
297.135 32.8003 119.085 282.761 35.1037 120.206 283.168 36.5822 120.717 
285.733 37.7297 120.088 298.08 23.7252 120.384 305.943 24.9993 120.978 
306.128 25.235 120.969 306.331 26.5407 121.192 305.631 31.3204 121.652 
281.243 32.9386 120.824 303.273 33.2504 120.981 304.54 23.094 122.306 
306.206 25.1095 121.209 280.167 26.5866 122.736 280.244 27.3257 122.064 
306.871 26.7105 122.181 307.051 28.3524 122.668 280.167 30.2782 121.858 
281.372 34.5404 121.908 282.769 38.3231 122.536 283.772 39.7704 122.371 
296.571 40.3205 122.033 284.206 40.882 122.693 285.228 40.5181 121.841 
306.704 24.1562 123.269 306.093 36.171 123.802 301.504 38.6596 122.642 
283.7 41.3224 123.518 285.556 43.5654 123.437 282.788 24.2646 123.833 
307.391 32.6191 124.327 307.288 34.5291 124.369 304.588 38.0243 123.495 
283.757 42.6054 124.369 283.968 43.2507 124.412 286.197 45.4144 124.274 
285.916 45.5163 124.505 287.472 46.1394 124.268 301.362 21.7009 124.652 
306.468 22.8514 124.689 307.399 23.116 125.754 280.543 24.8058 125.067 
307.192 37.9466 125.587 285.415 45.4537 124.86 290.53 48.0167 124.796 
288.349 48.223 125.228 289.284 48.2879 125.075 306.861 22.1803 125.986 
281.596 23.9598 125.61 279.574 25.5184 125.965 307.905 25.1969 125.176 
308.206 29.2116 125.6 282.367 41.0552 126.184 306.037 41.2594 125.565 
283.606 43.9513 126.08 286.731 49.5687 126.75 305.788 21.0823 127.325 
306.847 21.7889 126.843 308.339 37.596 127.329 306.451 45.0968 127.503 
285.75 49.2586 127.514 286.144 49.6336 127.248 286.11 49.8068 127.399 
287.148 51.0126 127.549 287.778 51.7463 127.7 307.662 22.2022 127.921 
281.146 23.1307 128.043 279.372 24.4618 127.976 279.931 23.6701 128.385 
278.548 27.1488 128.175 278.93 30.0775 127.883 284.481 47.7701 128.531 
279.144 23.9986 129.268 278.562 25.7696 128.716 307.924 47.4783 129.874 
288.847 55.552 129.967 292.563 55.7394 128.837 308.401 47.8807 130.629 
308.313 48.4969 130.475 308.277 48.6525 130.53 286.222 51.87 129.694 
290.6 57.3124 130.304 304.764 19.9337 129.933 307.88 21.2848 130.968 
278.087 25.9587 130.428 306.305 53.4135 130.895 304.876 54.9423 131.454 
289.611 56.9686 130.655 300.421 56.3242 130.699 296.625 57.6235 130.587 
293.692 58.4856 130.961 297.138 58.0876 131.326 298.771 57.5541 131.314 
290.672 59.0165 131.98 293.211 59.2238 131.864 306.803 20.0892 132.049 
279.236 22.4297 132.117 308.539 22.6607 131.868 309.482 27.5907 131.475 
308.994 48.0246 131.858 308.118 53.7526 133.132 303.386 55.7448 131.557 
307.523 54.5221 132.947 302.671 56.1382 131.754 303.938 55.9706 132.458 
306.655 55.0126 132.927 288.756 57.8227 132.739 297.095 58.416 132.031 
290.973 59.5672 132.731 291.34 59.6721 132.546 291.608 59.5428 132.212 
291.519 59.6708 132.432 291.782 59.6456 132.402 305.007 19.3911 132.158 
309.617 31.8753 132.925 309.625 31.0781 132.999 303.991 56.1068 133.515 
306.274 55.3031 133.288 301.84 56.7873 133.177 289.644 58.9387 133.256 
295.105 59.0916 133.204 290.823 59.6995 133.213 291.293 59.6826 133.327 
291.594 59.6802 132.713 292.113 59.6115 132.548 290.578 59.6952 133.375 
278.046 22.531 134.197 278.94 21.5975 134.346 279.485 21.4336 134.032 
308.155 22.4858 133.896 277.294 24.0887 134.631 309.408 29.1648 133.872 
287.044 55.7602 133.724 307.814 54.4966 134.036 300.768 57.0643 134.029 
299.248 57.6643 133.465 294.076 59.2262 134.063 290.48 59.6644 133.608 
306.374 20.0197 134.788 277.652 22.6212 135.169 277.031 24.7157 135.435 
309.103 29.2676 135.407 310.058 42.5041 135.32 309.967 45.2253 134.767 
290.417 59.4283 134.445 277.758 22.0287 135.967 277.001 23.4021 136.226 
310.01 49.5103 136.14 309.563 51.7345 135.659 308.88 53.2655 136.043 
305.618 55.2047 136.137 288.217 57.8447 135.376 288.908 58.4004 135.976 
289.414 58.7236 136.059 303.401 18.3919 137.194 304.088 18.6955 136.971 
305.075 19.267 136.364 276.872 25.8719 136.437 309.096 52.8391 137.302 
289.611 58.662 136.669 299.299 17.7271 137.474 305.318 19.7374 137.738 
276.902 22.2242 137.798 308.927 52.9133 137.989 285.776 54.2841 137.742 
300.565 17.4715 138.811 285.441 18.7418 138.494 305.692 20.5645 138.369 
306.778 24.2129 138.887 308.16 29.9407 138.44 309.524 38.2234 138.932 
301.86 17.5986 139.207 302.402 17.7447 139.87 303.389 18.3788 139.95 
276.581 27.0401 139.212 310.201 47.4882 139.45 309.93 50.1129 139.749 
308.033 52.9656 139.997 276.992 20.5191 140.719 277.572 19.6171 141.674 
275.927 22.4053 141.145 275.944 24.461 140.657 309.355 51.7353 140.681 
276.527 20.1018 142.5 277.07 19.6776 142.315 276.061 21.0566 142.082 
275.745 22.6892 141.75 304.814 22.5007 141.965 277.214 19.1088 143.577 
278.48 18.6006 143.405 302.702 18.8699 142.862 275.843 20.4336 143.618 
303.812 20.166 142.211 275.602 21.7282 142.824 288.284 56.428 142.935 
300.09 17.0959 143.37 276.229 19.4233 144.746 275.262 22.6012 143.711 
275.64 25.8009 143.351 297.35 54.2637 143.383 275.285 20.5568 145.21 
308.7 48.4514 144.335 307.136 49.9292 145.886 303.866 51.5155 146.403 
300.407 18.3495 146.981 306.316 50.0693 146.777 289.372 55.3586 146.308 
278.092 17.4698 147.847 307.358 48.4707 146.79 306.687 49.2381 147.212 
304.646 50.3913 147.985 297.404 15.9193 148.516 298.222 16.2855 148.303 
298.606 17.2079 149.293 275.429 18.4081 148.889 274.666 19.4494 148.883 
306.807 47.3045 148.075 306.635 48.0277 148.112 306.445 48.5998 148.083 
285.694 54.1516 148.419 287.247 54.5948 149.039 294.925 15.2963 149.832 
297.643 16.3887 149.564 274.052 22.5904 149.804 305.669 48.4441 149.212 
306.083 48.9093 148.323 286.169 54.3069 149.379 290.601 14.9369 150.616 
275.779 17.0848 151.856 305.757 46.6927 149.852 286.934 54.1628 150.525 
274.659 17.6275 152.378 273.996 18.3685 152.568 273.759 19.3382 152.021 
277.655 37.7485 151.499 301.837 49.9418 151.459 302.293 49.1421 152.47 
274.233 17.4438 153.813 295.949 16.891 152.89 273.574 19.4041 152.517 
293.121 15.081 153.339 301.843 48.7953 153.611 302.201 48.1093 154.132 
291.114 14.4858 154.392 293.087 15.1843 154.391 274.856 16.5743 154.863 
303.118 46.571 154.05 302.571 47.3191 154.409 301.511 48.1697 154.897 
282.484 50.7914 155.379 288.533 52.7645 155.034 294.639 16.9544 155.414 
302.52 46.4936 154.942 298.752 49.2637 155.959 279.627 14.7848 156.469 
293.358 15.9253 156.732 272.768 21.0356 156.187 299.672 48.3149 156.833 
286.162 13.9259 157.233 282.547 50.9732 157.953 284.037 52.0876 158.107 
286.196 52.4085 157.846 284.474 52.3213 157.734 290.418 14.297 158.904 
293.798 20.6087 159.22 284.234 52.0751 158.723 284.847 52.326 158.237 
289.024 13.7738 159.475 289.455 13.9376 159.825 289.96 14.2229 159.966 
291.154 14.9689 159.253 272.508 16.7771 160.065 294.006 22.3422 159.648 
280.833 48.7857 159.581 285.951 52.01 159.67 289.951 14.3758 160.425 
274.027 14.8425 161.842 271.702 18.1595 161.313 271.679 19.1019 161.278 
298.51 47.175 159.993 286.574 51.7575 160.522 283.529 51.5238 161.036 
290.365 16.5108 162.078 298.173 45.6673 161.597 288.446 14.748 163.297 
272.206 15.4669 163.932 271.97 15.8884 163.358 271.499 17.1078 162.694 
297.92 45.0378 162.18 297.476 46.5475 162.119 296.558 47.5032 162.337 
280.681 49.3192 163.417 282.568 51.0676 163.022 285.228 51.637 162.137 
288.079 14.9629 164.189 271.267 16.6696 164.274 270.964 17.9587 164.211 
296.05 38.8074 163.438 292.512 48.9429 164.722 295.092 48.069 163.422 
281.454 50.3528 164.244 283.185 51.3001 163.849 275.916 38.5851 165.08 
284.799 51.2612 165.017 282.063 50.8693 165.305 285.679 13.5638 165.112 
286.099 14.0063 165.768 296.061 43.9534 165.047 295.806 45.818 165.112 
280.677 12.801 167.522 290.616 48.9255 167.704 281.163 50.3318 166.479 
286.134 50.642 166.776 283.587 51.168 166.699 282.517 51.0646 166.521 
282.77 13.0247 167.599 294.453 46.439 166.776 276.057 13.072 168.767 
277.83 12.8305 169.539 286.505 17.1992 168.894 279.471 48.7925 169.068 
280.389 49.8907 168.91 281.577 50.7488 168.777 274.936 13.1501 169.829 
280.821 12.9271 169.571 284.283 14.7741 170.037 282.651 50.8007 169.492 
283.923 50.6377 169.738 281.303 50.6599 169.445 275.686 13.0945 171.401 
282.083 13.3006 169.859 268.888 17.9995 171.353 270.089 24.2487 170.805 
270.833 27.2918 170.97 274.004 37.101 170.669 291.934 40.8541 170.514 
291.835 47.0273 170.308 287.098 49.4625 171.216 281.43 50.5962 170.309 
278.006 13.0976 171.491 282.798 14.3599 171.398 269.749 15.0635 171.506 
268.856 16.6324 171.918 285.319 20.2903 171.897 289.48 48.2964 171.796 
271.314 13.7859 173.072 272.591 13.4835 172.432 275.225 13.4778 172.75 
268.776 15.5183 173.11 283.487 16.0857 172.168 286.902 29.0828 172.986 
291.716 44.9506 171.967 280.246 50.0507 172.89 280.379 50.1388 173.319 
[...]
POINT_DATA 1212
COLOR_SCALARS scalars 3
0 0.623529 0.67451 0 0.623529 0.67451 0 0.623529 0.67451 
0 0.623529 0.67451 0 0.623529 0.67451 
0 0.623529 0.67451 0 0.623529 0.67451 
0 0.623529 0.67451 0 0.623529 0.67451 
0 0.623529 0.67451 0 0.623529 0.67451 
0 0.623529 0.67451 0 0.623529 0.67451 
0 0.623529 0.67451 0 0.623529 0.67451 
0 0.623529 0.67451 0 0.623529 0.67451 
0 0.623529 0.67451 0 0.623529 0.67451 
0 0.623529 0.67451 0 0.623529 0.67451 
0 0.623529 0.67451 0 0.623529 0.67451 
0 0.623529 0.67451 0 0.623529 0.67451 
0 0.623529 0.67451 0 0.623529 0.67451 
0 0.623529 0.67451 0 0.623529 0.67451 
0 0.623529 0.67451 0 0.623529 0.67451 
0 0.623529 0.67451 0 0.623529 0.67451 
0 0.623529 0.67451 0 0.623529 0.67451 
0 0.623529 0.67451 0 0.623529 0.67451 
0 0.623529 0.67451 0 0.623529 0.67451 
0 0.623529 0.67451 0 0.623529 0.67451 
0 0.623529 0.67451 0 0.623529 0.67451 
0 0.623529 0.67451 0 0.623529 0.67451 
0 0.623529 0.67451 0 0.623529 0.67451 
0 0.623529 0.67451 0 0.623529 0.67451 
0 0.623529 0.67451 0 0.623529 0.67451 
0 0.623529 0.67451 0 0.623529 0.67451 
0 0.623529 0.67451 0 0.623529 0.67451 
0 0.623529 0.67451 0 0.623529 0.67451 
0 0.623529 0.67451 0 0.623529 0.67451 
0 0.623529 0.67451 0 0.623529 0.67451 
0 0.623529 0.67451 0 0.623529 0.67451 
0 0.623529 0.67451 0 0.623529 0.67451 
0 0.623529 0.67451 0 0.623529 0.67451 
0 0.623529 0.67451 0 0.623529 0.67451 
0 0.623529 0.67451 0 0.623529 0.67451 
0 0.623529 0.67451 0 0.623529 0.67451 
0 0.623529 0.67451 0 0.623529 0.67451 
0 0.623529 0.67451 0 0.623529 0.67451 
0 0.623529 0.67451 0 0.623529 0.67451 
0 0.623529 0.67451 0 0.623529 0.67451 
0 0.623529 0.67451 0 0.623529 0.67451 
0 0.623529 0.67451 0 0.623529 0.67451 
0 0.623529 0.67451 0 0.623529 0.67451 
0 0.623529 0.67451 0 0.623529 0.67451 
0 0.623529 0.67451 0 0.623529 0.67451 
0 0.623529 0.67451 0 0.623529 0.67451 
0 0.623529 0.67451 0 0.623529 0.67451 
0 0.623529 0.67451 0 0.623529 0.67451 
0 0.623529 0.67451 0 0.623529 0.67451 
0 0.623529 0.67451 0 0.623529 0.67451 
0 0.623529 0.67451 0 0.623529 0.67451 
0 0.623529 0.67451 0 0.623529 0.67451 
0 0.623529 0.67451 0 0.623529 0.67451 
0 0.623529 0.67451 0 0.623529 0.67451 
0 0.623529 0.67451 0 0.623529 0.67451 
0 0.623529 0.67451 0 0.623529 0.67451 
0 0.623529 0.67451 0 0.623529 0.67451 
0 0.623529 0.67451 0 0.623529 0.67451 
0 0.623529 0.67451 0 0.623529 0.67451 
0 0.623529 0.67451 0 0.623529 0.67451 
0 0.623529 0.67451 0 0.623529 0.67451 
0 0.623529 0.67451 0 0.623529 0.67451 
0 0.623529 0.67451 0 0.623529 0.67451 
0 0.623529 0.67451 0 0.623529 0.67451 
0 0.623529 0.67451 0 0.623529 0.67451 
0 0.623529 0.67451 0 0.623529 0.67451 
0 0.623529 0.67451 0 0.623529 0.67451 
0 0.623529 0.67451 0 0.623529 0.67451 
0 0.623529 0.67451 0 0.623529 0.67451 
0 0.623529 0.67451 0 0.623529 0.67451 
0 0.623529 0.67451 0 0.623529 0.67451 
0 0.623529 0.67451 0 0.623529 0.67451 
0 0.623529 0.67451 0 0.623529 0.67451 
0 0.623529 0.67451 0 0.623529 0.67451 
0 0.623529 0.67451 0 0.623529 0.67451 
0 0.623529 0.67451 0 0.623529 0.67451 
0 0.623529 0.67451 0 0.623529 0.67451 
0 0.623529 0.67451 0 0.623529 0.67451 
0 0.623529 0.67451 0 0.623529 0.67451 
0 0.623529 0.67451 0 0.623529 0.67451 
0 0.623529 0.67451 0 0.623529 0.67451 
0 0.623529 0.67451 0 0.623529 0.67451 
0 0.623529 0.67451 0 0.623529 0.67451 
0 0.623529 0.67451 0 0.623529 0.67451 
0 0.623529 0.67451 0 0.623529 0.67451 
0 0.623529 0.67451 0 0.623529 0.67451 
0 0.623529 0.67451 0 0.623529 0.67451 
0 0.623529 0.67451 0 0.623529 0.67451 
0 0.623529 0.67451 0 0.623529 0.67451 
0 0.623529 0.67451 0 0.623529 0.67451 
0 0.623529 0.67451 0 0.623529 0.67451 
0 0.623529 0.67451 0 0.623529 0.67451 
0 0.623529 0.67451 0 0.623529 0.67451 
0 0.623529 0.67451 0 0.623529 0.67451 
0 0.623529 0.67451 0 0.623529 0.67451 
0 0.623529 0.67451 0 0.623529 0.67451 
0 0.623529 0.67451 0 0.623529 0.67451 
0 0.623529 0.67451 0 0.623529 0.67451 
0 0.623529 0.67451 0 0.623529 0.67451 
0 0.623529 0.67451 0 0.623529 0.67451 
0 0.623529 0.67451 0 0.623529 0.67451 
0 0.623529 0.67451 0 0.623529 0.67451 
0 0.623529 0.67451 0 0.623529 0.67451 
0 0.623529 0.67451 0 0.623529 0.67451 
0 0.623529 0.67451 0 0.623529 0.67451 
0 0.623529 0.67451 0 0.623529 0.67451 
0 0.623529 0.67451 0 0.623529 0.67451 
0 0.623529 0.67451 0 0.623529 0.67451 
0 0.623529 0.67451 0 0.623529 0.67451 
0 0.623529 0.67451 0 0.623529 0.67451 
0 0.623529 0.67451 0 0.623529 0.67451 
0 0.623529 0.67451 0 0.623529 0.67451 
0 0.623529 0.67451 0 0.623529 0.67451 
0 0.623529 0.67451 0 0.623529 0.67451 
0 0.623529 0.67451 0 0.623529 0.67451 
0 0.623529 0.67451 0 0.623529 0.67451 
0 0.623529 0.67451 0 0.623529 0.67451 
0 0.623529 0.67451 0 0.623529 0.67451 
0 0.623529 0.67451 0 0.623529 0.67451 
0 0.623529 0.67451 0 0.623529 0.67451 
0 0.623529 0.67451 0 0.623529 0.67451 
0 0.623529 0.67451 0 0.623529 0.67451 
0 0.623529 0.67451 0 0.623529 0.67451 
0 0.623529 0.67451 0 0.623529 0.67451 
0 0.623529 0.67451 0 0.623529 0.67451 
0 0.623529 0.67451 0 0.623529 0.67451 
0 0.623529 0.67451 0 0.623529 0.67451 
0 0.623529 0.67451 0 0.623529 0.67451 
0 0.623529 0.67451 0 0.623529 0.67451 
0 0.623529 0.67451 0 0.623529 0.67451 
0 0.623529 0.67451 0 0.623529 0.67451 
0 0.623529 0.67451 0 0.623529 0.67451 
0 0.623529 0.67451 0 0.623529 0.67451 
0 0.623529 0.67451 0 0.623529 0.67451 
0 0.623529 0.67451 0 0.623529 0.67451 
0 0.623529 0.67451 0 0.623529 0.67451 
0 0.623529 0.67451 0 0.623529 0.67451 
0 0.623529 0.67451 0 0.623529 0.67451 
0 0.623529 0.67451 0 0.623529 0.67451 
0 0.623529 0.67451 0 0.623529 0.67451 
0 0.623529 0.67451 0 0.623529 0.67451 
0 0.623529 0.67451 0 0.623529 0.67451 
0 0.623529 0.67451 0 0.623529 0.67451 
0 0.623529 0.67451 0 0.623529 0.67451 
0 0.623529 0.67451 0 0.623529 0.67451 
0 0.623529 0.67451 0 0.623529 0.67451 
0 0.623529 0.67451 0 0.623529 0.67451 
0 0.623529 0.67451 0 0.623529 0.67451 
0 0.623529 0.67451 0 0.623529 0.67451 
0 0.623529 0.67451 0 0.623529 0.67451 
0 0.623529 0.67451 0 0.623529 0.67451 
0 0.623529 0.67451 0 0.623529 0.67451 
0 0.623529 0.67451 0 0.623529 0.67451 
0 0.623529 0.67451 0 0.623529 0.67451 
0 0.623529 0.67451 0 0.623529 0.67451 
0 0.623529 0.67451 0 0.623529 0.67451 
0 0.623529 0.67451 0 0.623529 0.67451 
0 0.623529 0.67451 0 0.623529 0.67451 
0 0.623529 0.67451 0 0.623529 0.67451 
0 0.623529 0.67451 0 0.623529 0.67451 
0 0.623529 0.67451 0 0.623529 0.67451 
0 0.623529 0.67451 0 0.623529 0.67451 
0 0.623529 0.67451 0 0.623529 0.67451 
0 0.623529 0.67451 0 0.623529 0.67451 
0 0.623529 0.67451 0 0.623529 0.67451 
0 0.623529 0.67451 0 0.623529 0.67451 
0 0.623529 0.67451 0 0.623529 0.67451 
0 0.623529 0.67451 0 0.623529 0.67451 
0 0.623529 0.67451 0 0.623529 0.67451 
0 0.623529 0.67451 0 0.623529 0.67451 
0 0.623529 0.67451 0 0.623529 0.67451 
0 0.623529 0.67451 0 0.623529 0.67451 
0 0.623529 0.67451 0 0.623529 0.67451 
0 0.623529 0.67451 0 0.623529 0.67451 
0 0.623529 0.67451 0 0.623529 0.67451 
0 0.623529 0.67451 0 0.623529 0.67451 
0 0.623529 0.67451 0 0.623529 0.67451 
0 0.623529 0.67451 0 0.623529 0.67451 
0 0.623529 0.67451 0 0.623529 0.67451 
0 0.623529 0.67451 0 0.623529 0.67451 
0 0.623529 0.67451 0 0.623529 0.67451 
0 0.623529 0.67451 0 0.623529 0.67451 
0 0.623529 0.67451 0 0.623529 0.67451 
0 0.623529 0.67451 0 0.623529 0.67451 
0 0.623529 0.67451 0 0.623529 0.67451 
0 0.623529 0.67451 0 0.623529 0.67451 
0 0.623529 0.67451 0 0.623529 0.67451 
0 0.623529 0.67451 0 0.623529 0.67451 
0 0.623529 0.67451 0 0.623529 0.67451 
0 0.623529 0.67451 0 0.623529 0.67451 
0 0.623529 0.67451 0 0.623529 0.67451 
0 0.623529 0.67451 0 0.623529 0.67451 
0 0.623529 0.67451 0 0.623529 0.67451 
0 0.623529 0.67451 0 0.623529 0.67451 
0 0.623529 0.67451 0 0.623529 0.67451 
0 0.623529 0.67451 0 0.623529 0.67451 
0 0.623529 0.67451 0 0.623529 0.67451 
0 0.623529 0.67451 0 0.623529 0.67451 
0 0.623529 0.67451 0 0.623529 0.67451 
0 0.623529 0.67451 0 0.623529 0.67451 
0 0.623529 0.67451 0 0.623529 0.67451 
0 0.623529 0.67451 0 0.623529 0.67451 
0 0.623529 0.67451 0 0.623529 0.67451 
0 0.623529 0.67451 0 0.623529 0.67451 
0 0.623529 0.67451 0 0.623529 0.67451 
0 0.623529 0.67451 0 0.623529 0.67451 
0 0.623529 0.67451 0 0.623529 0.67451 
0 0.623529 0.67451 0 0.623529 0.67451 
0 0.623529 0.67451 0 0.623529 0.67451 
0 0.623529 0.67451 0 0.623529 0.67451 
0 0.623529 0.67451 0 0.623529 0.67451 
0 0.623529 0.67451 0 0.623529 0.67451 
0 0.623529 0.67451 0 0.623529 0.67451 
0 0.623529 0.67451 0 0.623529 0.67451 
0 0.623529 0.67451 0 0.623529 0.67451 
0 0.623529 0.67451 0 0.623529 0.67451 
0 0.623529 0.67451 0 0.623529 0.67451 
0 0.623529 0.67451 0 0.623529 0.67451 
0 0.623529 0.67451 0 0.623529 0.67451 
0 0.623529 0.67451 0 0.623529 0.67451 
0 0.623529 0.67451 0 0.623529 0.67451 
0 0.623529 0.67451 0 0.623529 0.67451 
0 0.623529 0.67451 0 0.623529 0.67451 
0 0.623529 0.67451 0 0.623529 0.67451 
0 0.623529 0.67451 0 0.623529 0.67451 
0 0.623529 0.67451 0 0.623529 0.67451 
0 0.623529 0.67451 0 0.623529 0.67451 
0 0.623529 0.67451 0 0.623529 0.67451 
0 0.623529 0.67451 0 0.623529 0.67451 
0 0.623529 0.67451 0 0.623529 0.67451 
0 0.623529 0.67451 0 0.623529 0.67451 
0 0.623529 0.67451 0 0.623529 0.67451 
0 0.623529 0.67451 0 0.623529 0.67451 
0 0.623529 0.67451 0 0.623529 0.67451 
0 0.623529 0.67451 0 0.623529 0.67451 
0 0.623529 0.67451 0 0.623529 0.67451 
0 0.623529 0.67451 0 0.623529 0.67451 
0 0.623529 0.67451 0 0.623529 0.67451 
0 0.623529 0.67451 0 0.623529 0.67451 
0 0.623529 0.67451 0 0.623529 0.67451 
0 0.623529 0.67451 0 0.623529 0.67451 
0 0.623529 0.67451 0 0.623529 0.67451 
0 0.623529 0.67451 0 0.623529 0.67451 
0 0.623529 0.67451 0 0.623529 0.67451 
0 0.623529 0.67451 0 0.623529 0.67451 
0 0.623529 0.67451 0 0.623529 0.67451 
0 0.623529 0.67451 0 0.623529 0.67451 
0 0.623529 0.67451 0 0.623529 0.67451 
0 0.623529 0.67451 0 0.623529 0.67451 
0 0.623529 0.67451 0 0.623529 0.67451 
0 0.623529 0.67451 0 0.623529 0.67451 
0 0.623529 0.67451 0 0.623529 0.67451 
0 0.623529 0.67451 0 0.623529 0.67451 
0 0.623529 0.67451 0 0.623529 0.67451 
0 0.623529 0.67451 0 0.623529 0.67451 
0 0.623529 0.67451 0 0.623529 0.67451 
0 0.623529 0.67451 0 0.623529 0.67451 
0 0.623529 0.67451 0 0.623529 0.67451 
0 0.623529 0.67451 0 0.623529 0.67451 
0 0.623529 0.67451 0 0.623529 0.67451 
0 0.623529 0.67451 0 0.623529 0.67451 
0 0.623529 0.67451 0 0.623529 0.67451 
0 0.623529 0.67451 0 0.623529 0.67451 
0 0.623529 0.67451 0 0.623529 0.67451 
0 0.623529 0.67451 0 0.623529 0.67451 
0 0.623529 0.67451 0 0.623529 0.67451 
0 0.623529 0.67451 0 0.623529 0.67451 
0 0.623529 0.67451 0 0.623529 0.67451 
0 0.623529 0.67451 0 0.623529 0.67451 
0 0.623529 0.67451 0 0.623529 0.67451 
0 0.623529 0.67451 0 0.623529 0.67451 
0 0.623529 0.67451 0 0.623529 0.67451 
0 0.623529 0.67451 0 0.623529 0.67451 
0 0.623529 0.67451 0 0.623529 0.67451 
0 0.623529 0.67451 0 0.623529 0.67451 
0 0.623529 0.67451 0 0.623529 0.67451 
0 0.623529 0.67451 0 0.623529 0.67451 
0 0.623529 0.67451 0 0.623529 0.67451 
0 0.623529 0.67451 0 0.623529 0.67451 
0 0.623529 0.67451 0 0.623529 0.67451 
0 0.623529 0.67451 0 0.623529 0.67451 
0 0.623529 0.67451 0 0.623529 0.67451 
0 0.623529 0.67451 0 0.623529 0.67451 
0 0.623529 0.67451 0 0.623529 0.67451 
0 0.623529 0.67451 0 0.623529 0.67451 
0 0.623529 0.67451 0 0.623529 0.67451 
0 0.623529 0.67451 0 0.623529 0.67451 
0 0.623529 0.67451 0 0.623529 0.67451 
0 0.623529 0.67451 0 0.623529 0.67451 
0 0.623529 0.67451 0 0.623529 0.67451 
0 0.623529 0.67451 0 0.623529 0.67451 
0 0.623529 0.67451 0 0.623529 0.67451 
0 0.623529 0.67451 0 0.623529 0.67451 
0 0.623529 0.67451 0 0.623529 0.67451 
0 0.623529 0.67451 0 0.623529 0.67451 
0 0.623529 0.67451 0 0.623529 0.67451 
0 0.623529 0.67451 0 0.623529 0.67451 
0 0.623529 0.67451 0 0.623529 0.67451 
0 0.623529 0.67451 0 0.623529 0.67451 
0 0.623529 0.67451 0 0.623529 0.67451 
0 0.623529 0.67451 0 0.623529 0.67451 
0 0.623529 0.67451 0 0.623529 0.67451 
0 0.623529 0.67451 0 0.623529 0.67451 
0 0.623529 0.67451 0 0.623529 0.67451 
0 0.623529 0.67451 0 0.623529 0.67451 
0 0.623529 0.67451 0 0.623529 0.67451 
0 0.623529 0.67451 0 0.623529 0.67451 
0 0.623529 0.67451 0 0.623529 0.67451 
0 0.623529 0.67451 0 0.623529 0.67451 
0 0.623529 0.67451 0 0.623529 0.67451 
0 0.623529 0.67451 0 0.623529 0.67451 
0 0.623529 0.67451 0 0.623529 0.67451 
0 0.623529 0.67451 0 0.623529 0.67451 
0 0.623529 0.67451 0 0.623529 0.67451 
0 0.623529 0.67451 0 0.623529 0.67451 
0 0.623529 0.67451 0 0.623529 0.67451 
0 0.623529 0.67451 0 0.623529 0.67451 
0 0.623529 0.67451 0 0.623529 0.67451 
0 0.623529 0.67451 0 0.623529 0.67451 
0 0.623529 0.67451 0 0.623529 0.67451 
0 0.623529 0.67451 0 0.623529 0.67451 
0 0.623529 0.67451 0 0.623529 0.67451 
0 0.623529 0.67451 0 0.623529 0.67451 
0 0.623529 0.67451 0 0.623529 0.67451 
0 0.623529 0.67451 0 0.623529 0.67451 
0 0.623529 0.67451 0 0.623529 0.67451 
0 0.623529 0.67451 0 0.623529 0.67451 
0 0.623529 0.67451 0 0.623529 0.67451 
0 0.623529 0.67451 0 0.623529 0.67451 
0 0.623529 0.67451 0 0.623529 0.67451 
0 0.623529 0.67451 0 0.623529 0.67451 
0 0.623529 0.67451 0 0.623529 0.67451 
0 0.623529 0.67451 0 0.623529 0.67451 
0 0.623529 0.67451 0 0.623529 0.67451 
0 0.623529 0.67451 0 0.623529 0.67451 
0 0.623529 0.67451 0 0.623529 0.67451 
0 0.623529 0.67451 0 0.623529 0.67451 
0 0.623529 0.67451 0 0.623529 0.67451 
0 0.623529 0.67451 0 0.623529 0.67451 
0 0.623529 0.67451 0 0.623529 0.67451 
0 0.623529 0.67451 0 0.623529 0.67451 
0 0.623529 0.67451 0 0.623529 0.67451 
0 0.623529 0.67451 0 0.623529 0.67451 
0 0.623529 0.67451 0 0.623529 0.67451 
0 0.623529 0.67451 0 0.623529 0.67451 
0 0.623529 0.67451 0 0.623529 0.67451 
0 0.623529 0.67451 0 0.623529 0.67451 
0 0.623529 0.67451 0 0.623529 0.67451 
0 0.623529 0.67451 0 0.623529 0.67451 
0 0.623529 0.67451 0 0.623529 0.67451 
0 0.623529 0.67451 0 0.623529 0.67451 
0 0.623529 0.67451 0 0.623529 0.67451 
0 0.623529 0.67451 0 0.623529 0.67451 
0 0.623529 0.67451 0 0.623529 0.67451 
0 0.623529 0.67451 0 0.623529 0.67451 
0 0.623529 0.67451 0 0.623529 0.67451 
0 0.623529 0.67451 0 0.623529 0.67451 
0 0.623529 0.67451 0 0.623529 0.67451 
0 0.623529 0.67451 0 0.623529 0.67451 
0 0.623529 0.67451 0 0.623529 0.67451 
0 0.623529 0.67451 0 0.623529 0.67451 
0 0.623529 0.67451 0 0.623529 0.67451 
0 0.623529 0.67451 0 0.623529 0.67451 
0 0.623529 0.67451 0 0.623529 0.67451 
0 0.623529 0.67451 0 0.623529 0.67451 
0 0.623529 0.67451 0 0.623529 0.67451 
0 0.623529 0.67451 0 0.623529 0.67451 
0 0.623529 0.67451 0 0.623529 0.67451 
0 0.623529 0.67451 0 0.623529 0.67451 
0 0.623529 0.67451 0 0.623529 0.67451 
0 0.623529 0.67451 0 0.623529 0.67451 
0 0.623529 0.67451 0 0.623529 0.67451 
0 0.623529 0.67451 0 0.623529 0.67451 
0 0.623529 0.67451 0 0.623529 0.67451 
0 0.623529 0.67451 0 0.623529 0.67451 
0 0.623529 0.67451 0 0.623529 0.67451 
0 0.623529 0.67451 0 0.623529 0.67451 
0 0.623529 0.67451 0 0.623529 0.67451 
0 0.623529 0.67451 0 0.623529 0.67451 
0 0.623529 0.67451 0 0.623529 0.67451 
0 0.623529 0.67451 0 0.623529 0.67451 
0 0.623529 0.67451 0 0.623529 0.67451 
0 0.623529 0.67451 0 0.623529 0.67451 
0 0.623529 0.67451 0 0.623529 0.67451 
0 0.623529 0.67451 0 0.623529 0.67451 
0 0.623529 0.67451 0 0.623529 0.67451 
0 0.623529 0.67451 0 0.623529 0.67451 
0 0.623529 0.67451 0 0.623529 0.67451 
0 0.623529 0.67451 0 0.623529 0.67451 
0 0.623529 0.67451 0 0.623529 0.67451 
0 0.623529 0.67451 0 0.623529 0.67451 
0 0.623529 0.67451 0 0.623529 0.67451 
0 0.623529 0.67451 0 0.623529 0.67451 
0 0.623529 0.67451 0 0.623529 0.67451 
0 0.623529 0.67451 0 0.623529 0.67451 
0 0.623529 0.67451 0 0.623529 0.67451 
0 0.623529 0.67451 0 0.623529 0.67451 
0 0.623529 0.67451 0 0.623529 0.67451 
0 0.623529 0.67451 0 0.623529 0.67451 
0 0.623529 0.67451 0 0.623529 0.67451 
0 0.623529 0.67451 0 0.623529 0.67451 
0 0.623529 0.67451 0 0.623529 0.67451 
0 0.623529 0.67451 0 0.623529 0.67451 
0 0.623529 0.67451 0 0.623529 0.67451 
0 0.623529 0.67451 0 0.623529 0.67451 
0 0.623529 0.67451 0 0.623529 0.67451 
0 0.623529 0.67451 0 0.623529 0.67451 
0 0.623529 0.67451 0 0.623529 0.67451 
0 0.623529 0.67451 0 0.623529 0.67451 
0 0.623529 0.67451 0 0.623529 0.67451 
0 0.623529 0.67451 0 0.623529 0.67451 
0 0.623529 0.67451 0 0.623529 0.67451 
0 0.623529 0.67451 0 0.623529 0.67451 
0 0.623529 0.67451 0 0.623529 0.67451 
0 0.623529 0.67451 0 0.623529 0.67451 
0 0.623529 0.67451 0 0.623529 0.67451 
0 0.623529 0.67451 0 0.623529 0.67451 
0 0.623529 0.67451 0 0.623529 0.67451 
0 0.623529 0.67451 0 0.623529 0.67451 
0 0.623529 0.67451 0 0.623529 0.67451 
0 0.623529 0.67451 0 0.623529 0.67451 
0 0.623529 0.67451 0 0.623529 0.67451 
0 0.623529 0.67451 0 0.623529 0.67451 
0 0.623529 0.67451 0 0.623529 0.67451 
0 0.623529 0.67451 0 0.623529 0.67451 
0 0.623529 0.67451 0 0.623529 0.67451 
0 0.623529 0.67451 0 0.623529 0.67451 
0 0.623529 0.67451 0 0.623529 0.67451 
0 0.623529 0.67451 0 0.623529 0.67451 
0 0.623529 0.67451 0 0.623529 0.67451 
0 0.623529 0.67451 0 0.623529 0.67451 
0 0.623529 0.67451 0 0.623529 0.67451 
0 0.623529 0.67451 0 0.623529 0.67451 
0 0.623529 0.67451 0 0.623529 0.67451 
0 0.623529 0.67451 0 0.623529 0.67451 
0 0.623529 0.67451 0 0.623529 0.67451 
0 0.623529 0.67451 0 0.623529 0.67451 
0 0.623529 0.67451 0 0.623529 0.67451 
0 0.623529 0.67451 0 0.623529 0.67451 
0 0.623529 0.67451 0 0.623529 0.67451 
0 0.623529 0.67451 0 0.623529 0.67451 
0 0.623529 0.67451 0 0.623529 0.67451 
0 0.623529 0.67451 0 0.623529 0.67451 
0 0.623529 0.67451 0 0.623529 0.67451 
0 0.623529 0.67451 0 0.623529 0.67451 
0 0.623529 0.67451 0 0.623529 0.67451 
0 0.623529 0.67451 0 0.623529 0.67451 
0 0.623529 0.67451 0 0.623529 0.67451 
0 0.623529 0.67451 0 0.623529 0.67451 
0 0.623529 0.67451 0 0.623529 0.67451 
0 0.623529 0.67451 0 0.623529 0.67451 
0 0.623529 0.67451 0 0.623529 0.67451 
0 0.623529 0.67451 0 0.623529 0.67451 
0 0.623529 0.67451 0 0.623529 0.67451 
0 0.623529 0.67451 0 0.623529 0.67451 
0 0.623529 0.67451 0 0.623529 0.67451 
0 0.623529 0.67451 0 0.623529 0.67451 
0 0.623529 0.67451 0 0.623529 0.67451 
0 0.623529 0.67451 0 0.623529 0.67451 
0 0.623529 0.67451 0 0.623529 0.67451 
0 0.623529 0.67451 0 0.623529 0.67451 
0 0.623529 0.67451 0 0.623529 0.67451 
0 0.623529 0.67451 0 0.623529 0.67451 
0 0.623529 0.67451 0 0.623529 0.67451 
0 0.623529 0.67451 0 0.623529 0.67451 
0 0.623529 0.67451 0 0.623529 0.67451 
0 0.623529 0.67451 0 0.623529 0.67451 
0 0.623529 0.67451 0 0.623529 0.67451 
0 0.623529 0.67451 0 0.623529 0.67451 
0 0.623529 0.67451 0 0.623529 0.67451 
0 0.623529 0.67451 0 0.623529 0.67451 
0 0.623529 0.67451 0 0.623529 0.67451 
0 0.623529 0.67451 0 0.623529 0.67451 
0 0.623529 0.67451 0 0.623529 0.67451 
0 0.623529 0.67451 0 0.623529 0.67451 
0 0.623529 0.67451 0 0.623529 0.67451 
0 0.623529 0.67451 0 0.623529 0.67451 
0 0.623529 0.67451 0 0.623529 0.67451 
0 0.623529 0.67451 0 0.623529 0.67451 
0 0.623529 0.67451 0 0.623529 0.67451 
0 0.623529 0.67451 0 0.623529 0.67451 
0 0.623529 0.67451 0 0.623529 0.67451 
0 0.623529 0.67451 0 0.623529 0.67451 
0 0.623529 0.67451 0 0.623529 0.67451 
0 0.623529 0.67451 0 0.623529 0.67451 
0 0.623529 0.67451 0 0.623529 0.67451 
0 0.623529 0.67451 0 0.623529 0.67451 
0 0.623529 0.67451 0 0.623529 0.67451 
0 0.623529 0.67451 0 0.623529 0.67451 
0 0.623529 0.67451 0 0.623529 0.67451 
0 0.623529 0.67451 0 0.623529 0.67451 
0 0.623529 0.67451 0 0.623529 0.67451 
0 0.623529 0.67451 0 0.623529 0.67451 
0 0.623529 0.67451 0 0.623529 0.67451 
0 0.623529 0.67451 0 0.623529 0.67451 
0 0.623529 0.67451 0 0.623529 0.67451 
0 0.623529 0.67451 0 0.623529 0.67451 
0 0.623529 0.67451 0 0.623529 0.67451 
0 0.623529 0.67451 0 0.623529 0.67451 
0 0.623529 0.67451 0 0.623529 0.67451 
0 0.623529 0.67451 0 0.623529 0.67451 
0 0.623529 0.67451 0 0.623529 0.67451 
0 0.623529 0.67451 0 0.623529 0.67451 
0 0.623529 0.67451 0 0.623529 0.67451 
0 0.623529 0.67451 0 0.623529 0.67451 
0 0.623529 0.67451 0 0.623529 0.67451 
0 0.623529 0.67451 0 0.623529 0.67451 
0 0.623529 0.67451 0 0.623529 0.67451 
0 0.623529 0.67451 0 0.623529 0.67451 
0 0.623529 0.67451 0 0.623529 0.67451 
0 0.623529 0.67451 0 0.623529 0.67451 