# vtk DataFile Version 4.2
vtk output
ASCII
DATASET POLYDATA
POINTS 1974 float
299.843 57.2332 132.763 300.923 57.031 132.792 298.619 57.7951 132.612 
299.586 57.4706 132.609 300.249 57.3022 132.67 300.732 57.1608 132.755 
301.41 56.8852 132.938 295.934 58.7882 132.614 298.836 57.8069 132.538 
299.271 57.6704 132.518 299.528 57.5729 132.663 294.419 59.2598 132.696 
294.165 59.2989 132.747 293.916 59.3709 132.824 295.37 59.0113 132.606 
295.872 58.8664 132.603 296.44 58.6445 132.637 299.066 57.7535 132.485 
294.321 59.2955 132.798 295.006 59.1317 132.697 307.275 55.227 133.604 
307.28 55.197 133.704 303.334 56.0723 133.393 302.905 56.2241 133.449 
304.163 55.9007 133.441 305.209 55.6886 133.517 306.47 55.4907 133.533 
306.436 55.4085 133.554 306.755 55.402 133.553 299.59 56.9809 133.26 
302.393 56.4824 133.156 302.018 56.5331 133.184 303.16 56.2545 133.259 
303.685 56.1287 133.35 304.499 55.9241 133.575 305.573 55.7028 133.604 
297.866 57.9585 132.763 302.207 56.5563 133.201 303.046 56.3146 133.263 
297.208 58.3072 132.693 298.322 57.93 132.755 297.485 58.2564 132.71 
292.485 59.6636 133.251 293.248 59.5014 132.986 296.958 58.4498 132.717 
292.569 59.7837 132.941 292.801 59.6904 132.95 292.991 59.6317 132.971 
293.446 59.4638 133.063 292.639 59.7659 132.927 292.747 59.7248 132.949 
306.931 55.2716 133.627 307.274 55.1265 133.91 301.072 56.2816 133.736 
302.564 56.1134 133.641 307.003 55.3384 133.632 302.103 56.4173 133.445 
302.638 56.3836 133.289 302.684 56.2176 133.855 303.438 56.1837 133.419 
295.389 58.3874 133.658 301.571 56.6745 133.444 294.413 58.8639 133.422 
292.167 59.5841 133.597 291.892 59.5272 133.908 290.926 59.6854 134.429 
291.997 59.5526 133.886 291.022 59.6612 134.399 306.816 54.6794 134.671 
307.177 54.9574 134.26 307.229 55.101 134.117 299.537 56.4997 134.559 
298.782 56.844 134.227 300.981 56.4289 134.48 295.174 57.9122 134.531 
293.62 58.887 133.935 295.127 58.0236 134.552 294.842 58.8421 133.358 
294.076 58.958 133.612 296.663 57.7766 134.205 291.359 59.5367 134.344 
290.917 59.5292 134.764 307.69 53.9651 136.211 307.231 54.6483 135.087 
297.721 56.5135 135.597 299.056 56.3171 135.063 306.92 54.917 135.094 
296.785 57.0244 135.169 298.462 56.7493 134.775 299.121 56.9554 134.162 
298.999 56.3788 135.343 294.337 58.0016 134.974 293.452 58.5823 134.692 
293.617 58.9468 133.967 294.105 58.0834 135.262 290.825 59.2968 135.252 
290.621 59.0983 135.828 304.235 54.3194 136.06 303.91 54.0314 136.863 
303.557 54.6035 136.49 307.854 53.84 136.57 307.783 53.6795 136.614 
308.005 53.5848 137.031 301.896 54.7169 136.476 302.824 54.8265 136.047 
307.923 53.8016 136.914 297.661 56.12 136.253 297.341 55.973 136.702 
303.252 55.6547 135.244 295.692 57.0727 135.797 297.32 56.1537 136.662 
297.081 57.0688 135.101 296.222 57.1608 135.43 292.083 58.2539 136.192 
290.551 58.9121 136.177 291.509 58.6 135.971 290.515 58.8832 136.361 
307.957 53.4325 137.11 308.077 53.2986 137.556 302.352 54.3531 137.065 
303.062 54.3835 136.96 303.039 53.9603 137.376 308.097 53.4791 137.531 
302.486 54.8041 136.693 303.164 55.0918 136.09 303.009 54.5836 137.351 
304.181 54.902 136.395 303.988 54.5875 137.174 307.6 53.9608 137.289 
296.433 56.075 137.142 293.202 57.4769 136.508 295.457 56.7357 136.738 
295.655 57.153 135.863 296.169 56.2402 137.426 291.571 57.9666 136.984 
290.413 58.5827 136.932 291.278 58.3814 136.67 291.724 58.6479 135.917 
291.785 58.0955 136.92 292.377 58.4243 135.897 292.449 58.0991 136.481 
290.469 58.6394 136.935 305.181 53.2166 137.76 308.178 53.0966 138.264 
299.628 54.6161 138.422 308.113 53.3828 138.082 297.775 54.8575 138.628 
298.883 54.8955 138.027 293.79 56.4209 138.398 291.951 56.6951 138.818 
292.948 56.8467 138.048 290.235 58.1619 137.779 290.293 58.2489 137.816 
291.265 58.1441 137.386 308.133 52.8054 138.672 308.104 52.5785 139.192 
303.374 53.1865 138.696 298.337 54.4116 139.229 297.932 54.0499 140.04 
299.116 54.393 139.007 307 53.4989 138.954 308.04 53.342 138.486 
293.923 55.3083 140.08 298.486 54.8266 138.753 299.191 55.0818 138.02 
299.055 54.5667 139.351 300.116 54.8661 138.204 300.168 54.5574 139.014 
291.663 56.3342 139.519 293.13 56.1536 139.202 297.299 55.5301 138.402 
292.583 56.7385 138.776 293.321 56.9548 137.959 293.087 56.4036 139.34 
294.246 56.2459 138.878 289.966 57.834 138.738 289.68 57.5663 139.502 
306.857 52.3856 139.814 306.583 52.0771 140.77 306.293 52.5028 140.319 
308.308 52.5759 139.816 303.982 52.6396 140.338 304.935 52.8132 139.883 
305.673 52.7476 139.572 296.548 54.6033 140.363 297.749 53.611 140.936 
303.247 53.8936 139.559 294.705 54.8707 140.638 295.803 54.9119 139.989 
289.561 57.1412 140.058 289.477 57.279 140.159 290.913 57.448 139.338 
289.621 57.4759 139.866 304.037 51.9267 141.793 305.271 52.2738 141.246 
304.991 51.9103 141.631 306.002 52.2212 141 308.328 52.1774 140.628 
308.419 52.2295 140.693 301.742 52.6075 141.29 304.622 52.7545 140.69 
305.099 53.0074 140.02 305.01 52.4941 141.609 305.912 52.3569 141.325 
305.777 52.8954 139.913 307.833 52.3814 140.996 295.275 54.4363 141.197 
296.022 54.4095 140.954 303.9 53.1363 140.75 295.438 54.8338 140.719 
296.148 55.0536 139.957 296.014 54.5398 141.286 297.077 54.7853 140.088 
297.136 54.4712 140.919 289.24 56.8556 141.022 289.301 57.0469 140.843 
289.51 57.2631 140.441 307.448 51.5908 141.569 307.681 51.4838 141.952 
308.162 51.8529 141.249 307.984 51.6285 141.719 308.104 51.7074 141.733 
302.232 52.2733 141.936 302.101 51.9568 142.713 301.675 52.5065 142.343 
308.242 51.9725 141.323 298.672 52.6439 142.702 299.91 52.6198 142.321 
300.926 52.7004 141.868 307.022 52.2255 141.758 293.637 54.577 142.459 
300.769 53.3268 141.758 301.893 53.1612 141.613 292.712 54.9469 142.149 
289.604 56.1266 142.157 289.006 56.5315 141.815 288.947 56.2878 142.339 
288.794 56.3175 142.503 289.282 56.3348 141.945 288.966 56.5678 141.889 
289.158 56.7385 141.542 307.806 51.4673 142.287 308.025 51.687 142.049 
300.391 52.2842 142.967 301.178 52.3152 142.842 301.086 51.9002 143.308 
296.289 53.1634 142.813 300.666 52.735 142.531 301.35 52.872 142.05 
301.152 52.5461 143.237 302.158 52.7939 142.2 293.438 54.2674 143.142 
293.087 54.3021 143.434 298.954 53.7529 141.996 299.984 53.1446 142.612 
291.827 54.9019 143.021 293.3 54.423 143.358 293.135 55.1195 142.049 
292.326 55.0065 142.799 294.098 54.7891 142.14 288.86 55.9714 143.028 
289.237 55.8785 142.895 288.603 56.0793 143.269 289.027 56.183 142.622 
289.262 56.446 142.011 289.246 56.0385 142.986 289.745 56.5144 141.817 
289.82 56.1174 142.643 303.271 51.1789 143.697 307.704 51.4601 142.736 
307.354 51.2244 143.583 298.212 52.3077 144.03 298.08 51.9771 144.807 
297.635 52.598 144.459 307.511 51.611 142.867 307.874 51.702 142.321 
295.788 52.6129 144.654 296.867 52.7847 144.052 292.467 54.5208 143.6 
291.646 54.6442 144.13 290.082 54.81 144.399 291.006 54.914 143.749 
288.442 55.7572 144.035 291.31 55.5083 142.97 288.489 55.8773 143.992 
305.912 50.5663 144.73 307.161 50.9643 143.979 307.104 50.9609 144.317 
296.345 52.2719 145.245 297.127 52.3569 145.069 297.13 51.8254 145.566 
303.996 51.8633 144.431 296.475 52.836 144.868 297.186 53.1222 144.017 
297.1 52.667 145.529 298.168 52.9155 144.174 298.225 52.6355 145.081 
300.622 52.3964 144.669 290.516 54.382 144.986 291.199 54.4131 144.73 
295.118 53.7539 144.551 288.288 55.3979 144.93 290.683 54.8451 144.572 
291.193 55.0371 143.858 291.198 54.6486 145.031 291.887 54.7755 143.981 
288.279 55.5701 144.918 289.917 55.465 144.374 304.953 50.4283 145.686 
304.301 50.5372 146.238 301.809 50.6036 146.473 302.886 50.8125 145.921 
303.688 50.7486 145.541 295.825 51.5458 146.601 303.463 51.2324 145.712 
304.211 51.2182 145.519 288.003 55.1903 145.977 302.339 50.304 147.252 
303.22 50.3216 147.308 302.894 49.9784 147.729 303.987 50.2793 146.98 
303.86 50.0141 147.381 302.541 50.7922 146.798 303.068 51.031 146.045 
302.928 50.5521 147.718 303.86 50.4 147.288 303.775 50.912 145.866 
304.681 50.8252 146.063 304.568 50.4853 146.901 300.88 51.9049 146.063 
301.722 51.2522 146.978 287.708 54.9349 146.89 287.467 54.8444 147.499 
287.988 55.2472 146.229 305.441 49.9045 147.646 297.141 50.6693 148.685 
298.721 50.5094 148.353 289.78 52.9804 147.89 293.768 53.2967 148.103 
287.791 54.3161 148.083 289.076 53.3027 148.041 287.462 54.5545 148.143 
289.672 54.601 147.635 287.42 54.8578 147.666 287.274 54.734 148.086 
304.861 49.6354 148.354 305.189 49.7537 148.083 304.926 49.7041 148.492 
299.446 50.1566 148.896 299.039 49.928 149.863 298.708 50.501 149.514 
305.253 49.8315 148.04 305.368 50.0025 147.689 296.807 50.4841 149.578 
297.889 50.6395 149.066 303.317 50.2389 148.839 287.658 53.7783 149.311 
287.664 54.1976 148.744 287.166 54.5924 148.517 287.051 54.5172 148.873 
287.338 54.476 148.692 287.693 54.5843 148.281 287.695 54.3468 149.082 
287.291 54.5001 148.768 288.866 54.4358 148.736 289.579 54.3514 148.583 
287.042 54.5228 148.906 287.148 54.5629 148.73 302.122 49.2913 149.57 
297.397 50.2045 150.227 298.188 50.3 150.093 298.14 49.7901 150.58 
297.654 50.7696 149.855 298.376 50.9041 149.278 298.186 50.6404 150.571 
299.328 50.8564 149.353 299.182 50.606 150.221 296.865 51.3616 150.225 
288.154 52.9965 149.909 289.121 52.3405 150.12 287.299 54.2258 149.323 
287.025 54.4443 149.132 287.053 54.2377 149.687 287.433 54.2322 149.814 
287.183 54.3845 149.274 287.053 54.42 149.248 303.701 49.3044 149.969 
304.174 49.5348 149.493 303.781 49.4231 150.137 296.182 49.9534 150.856 
303.93 49.7012 149.587 304.405 49.7128 149.103 296.783 51.1618 151.106 
286.938 53.8886 150.598 286.846 53.8462 151.144 287.098 54.0519 150.54 
303.678 49.2818 150.385 303.605 49.2445 150.578 303.628 49.2976 150.535 
301.332 48.7528 152.23 302.316 49.0176 151.446 303.071 49.1503 150.662 
301.954 49.3608 151.905 303.23 49.4087 150.745 286.772 53.2377 151.871 
286.935 53.8391 151.414 301.648 48.5201 153.509 301.508 48.3929 153.678 
301.725 48.4183 153.742 301.678 48.392 153.756 301.7 48.3776 153.864 
298.07 48.6752 153.677 301.706 48.9036 152.663 302.371 49.1741 151.653 
[...]
POINT_DATA 1974
COLOR_SCALARS scalars 3
0 0.623529 0.67451 0 0.623529 0.67451 0 0.623529 0.67451 
0 0.623529 0.67451 0 0.623529 0.67451 
0 0.623529 0.67451 0 0.623529 0.67451 
0 0.623529 0.67451 0 0.623529 0.67451 
0 0.623529 0.67451 0 0.623529 0.67451 
0 0.623529 0.67451 0 0.623529 0.67451 
0 0.623529 0.67451 0 0.623529 0.67451 
0 0.623529 0.67451 0 0.623529 0.67451 
0 0.623529 0.67451 0 0.623529 0.67451 
0 0.623529 0.67451 0 0.623529 0.67451 
0 0.623529 0.67451 0 0.623529 0.67451 
0 0.623529 0.67451 0 0.623529 0.67451 
0 0.623529 0.67451 0 0.623529 0.67451 
0 0.623529 0.67451 0 0.623529 0.67451 
0 0.623529 0.67451 0 0.623529 0.67451 
0 0.623529 0.67451 0 0.623529 0.67451 
0 0.623529 0.67451 0 0.623529 0.67451 
0 0.623529 0.67451 0 0.623529 0.67451 
0 0.623529 0.67451 0 0.623529 0.67451 
0 0.623529 0.67451 0 0.623529 0.67451 
0 0.623529 0.67451 0 0.623529 0.67451 
0 0.623529 0.67451 0 0.623529 0.67451 
0 0.623529 0.67451 0 0.623529 0.67451 
0 0.623529 0.67451 0 0.623529 0.67451 
0 0.623529 0.67451 0 0.623529 0.67451 
0 0.623529 0.67451 0 0.623529 0.67451 
0 0.623529 0.67451 0 0.623529 0.67451 
0 0.623529 0.67451 0 0.623529 0.67451 
0 0.623529 0.67451 0 0.623529 0.67451 
0 0.623529 0.67451 0 0.623529 0.67451 
0 0.623529 0.67451 0 0.623529 0.67451 
0 0.623529 0.67451 0 0.623529 0.67451 
0 0.623529 0.67451 0 0.623529 0.67451 
0 0.623529 0.67451 0 0.623529 0.67451 
0 0.623529 0.67451 0 0.623529 0.67451 
0 0.623529 0.67451 0 0.623529 0.67451 
0 0.623529 0.67451 0 0.623529 0.67451 
0 0.623529 0.67451 0 0.623529 0.67451 
0 0.623529 0.67451 0 0.623529 0.67451 
0 0.623529 0.67451 0 0.623529 0.67451 
0 0.623529 0.67451 0 0.623529 0.67451 
0 0.623529 0.67451 0 0.623529 0.67451 
0 0.623529 0.67451 0 0.623529 0.67451 
0 0.623529 0.67451 0 0.623529 0.67451 
0 0.623529 0.67451 0 0.623529 0.67451 
0 0.623529 0.67451 0 0.623529 0.67451 
0 0.623529 0.67451 0 0.623529 0.67451 
0 0.623529 0.67451 0 0.623529 0.67451 
0 0.623529 0.67451 0 0.623529 0.67451 
0 0.623529 0.67451 0 0.623529 0.67451 
0 0.623529 0.67451 0 0.623529 0.67451 
0 0.623529 0.67451 0 0.623529 0.67451 
0 0.623529 0.67451 0 0.623529 0.67451 
0 0.623529 0.67451 0 0.623529 0.67451 
0 0.623529 0.67451 0 0.623529 0.67451 
0 0.623529 0.67451 0 0.623529 0.67451 
0 0.623529 0.67451 0 0.623529 0.67451 
0 0.623529 0.67451 0 0.623529 0.67451 
0 0.623529 0.67451 0 0.623529 0.67451 
0 0.623529 0.67451 0 0.623529 0.67451 
0 0.623529 0.67451 0 0.623529 0.67451 
0 0.623529 0.67451 0 0.623529 0.67451 
0 0.623529 0.67451 0 0.623529 0.67451 
0 0.623529 0.67451 0 0.623529 0.67451 
0 0.623529 0.67451 0 0.623529 0.67451 
0 0.623529 0.67451 0 0.623529 0.67451 
0 0.623529 0.67451 0 0.623529 0.67451 
0 0.623529 0.67451 0 0.623529 0.67451 
0 0.623529 0.67451 0 0.623529 0.67451 
0 0.623529 0.67451 0 0.623529 0.67451 
0 0.623529 0.67451 0 0.623529 0.67451 
0 0.623529 0.67451 0 0.623529 0.67451 
0 0.623529 0.67451 0 0.623529 0.67451 
0 0.623529 0.67451 0 0.623529 0.67451 
0 0.623529 0.67451 0 0.623529 0.67451 
0 0.623529 0.67451 0 0.623529 0.67451 
0 0.623529 0.67451 0 0.623529 0.67451 
0 0.623529 0.67451 0 0.623529 0.67451 
0 0.623529 0.67451 0 0.623529 0.67451 
0 0.623529 0.67451 0 0.623529 0.67451 
0 0.623529 0.67451 0 0.623529 0.67451 
0 0.623529 0.67451 0 0.623529 0.67451 
0 0.623529 0.67451 0 0.623529 0.67451 
0 0.623529 0.67451 0 0.623529 0.67451 
0 0.623529 0.67451 0 0.623529 0.67451 
0 0.623529 0.67451 0 0.623529 0.67451 
0 0.623529 0.67451 0 0.623529 0.67451 
0 0.623529 0.67451 0 0.623529 0.67451 
0 0.623529 0.67451 0 0.623529 0.67451 
0 0.623529 0.67451 0 0.623529 0.67451 
0 0.623529 0.67451 0 0.623529 0.67451 
0 0.623529 0.67451 0 0.623529 0.67451 
0 0.623529 0.67451 0 0.623529 0.67451 
0 0.623529 0.67451 0 0.623529 0.67451 
0 0.623529 0.67451 0 0.623529 0.67451 
0 0.623529 0.67451 0 0.623529 0.67451 
0 0.623529 0.67451 0 0.623529 0.67451 
0 0.623529 0.67451 0 0.623529 0.67451 
0 0.623529 0.67451 0 0.623529 0.67451 
0 0.623529 0.67451 0 0.623529 0.67451 
0 0.623529 0.67451 0 0.623529 0.67451 
0 0.623529 0.67451 0 0.623529 0.67451 
0 0.623529 0.67451 0 0.623529 0.67451 
0 0.623529 0.67451 0 0.623529 0.67451 
0 0.623529 0.67451 0 0.623529 0.67451 
0 0.623529 0.67451 0 0.623529 0.67451 
0 0.623529 0.67451 0 0.623529 0.67451 
0 0.623529 0.67451 0 0.623529 0.67451 
0 0.623529 0.67451 0 0.623529 0.67451 
0 0.623529 0.67451 0 0.623529 0.67451 
0 0.623529 0.67451 0 0.623529 0.67451 
0 0.623529 0.67451 0 0.623529 0.67451 
0 0.623529 0.67451 0 0.623529 0.67451 
0 0.623529 0.67451 0 0.623529 0.67451 
0 0.623529 0.67451 0 0.623529 0.67451 
0 0.623529 0.67451 0 0.623529 0.67451 
0 0.623529 0.67451 0 0.623529 0.67451 
0 0.623529 0.67451 0 0.623529 0.67451 
0 0.623529 0.67451 0 0.623529 0.67451 
0 0.623529 0.67451 0 0.623529 0.67451 
0 0.623529 0.67451 0 0.623529 0.67451 
0 0.623529 0.67451 0 0.623529 0.67451 
0 0.623529 0.67451 0 0.623529 0.67451 
0 0.623529 0.67451 0 0.623529 0.67451 
0 0.623529 0.67451 0 0.623529 0.67451 
0 0.623529 0.67451 0 0.623529 0.67451 
0 0.623529 0.67451 0 0.623529 0.67451 
0 0.623529 0.67451 0 0.623529 0.67451 
0 0.623529 0.67451 0 0.623529 0.67451 
0 0.623529 0.67451 0 0.623529 0.67451 
0 0.623529 0.67451 0 0.623529 0.67451 
0 0.623529 0.67451 0 0.623529 0.67451 
0 0.623529 0.67451 0 0.623529 0.67451 
0 0.623529 0.67451 0 0.623529 0.67451 
0 0.623529 0.67451 0 0.623529 0.67451 
0 0.623529 0.67451 0 0.623529 0.67451 
0 0.623529 0.67451 0 0.623529 0.67451 
0 0.623529 0.67451 0 0.623529 0.67451 
0 0.623529 0.67451 0 0.623529 0.67451 
0 0.623529 0.67451 0 0.623529 0.67451 
0 0.623529 0.67451 0 0.623529 0.67451 
0 0.623529 0.67451 0 0.623529 0.67451 
0 0.623529 0.67451 0 0.623529 0.67451 
0 0.623529 0.67451 0 0.623529 0.67451 
0 0.623529 0.67451 0 0.623529 0.67451 
0 0.623529 0.67451 0 0.623529 0.67451 
0 0.623529 0.67451 0 0.623529 0.67451 
0 0.623529 0.67451 0 0.623529 0.67451 
0 0.623529 0.67451 0 0.623529 0.67451 
0 0.623529 0.67451 0 0.623529 0.67451 
0 0.623529 0.67451 0 0.623529 0.67451 
0 0.623529 0.67451 0 0.623529 0.67451 
0 0.623529 0.67451 0 0.623529 0.67451 
0 0.623529 0.67451 0 0.623529 0.67451 
0 0.623529 0.67451 0 0.623529 0.67451 
0 0.623529 0.67451 0 0.623529 0.67451 
0 0.623529 0.67451 0 0.623529 0.67451 
0 0.623529 0.67451 0 0.623529 0.67451 
0 0.623529 0.67451 0 0.623529 0.67451 
0 0.623529 0.67451 0 0.623529 0.67451 
0 0.623529 0.67451 0 0.623529 0.67451 
0 0.623529 0.67451 0 0.623529 0.67451 
0 0.623529 0.67451 0 0.623529 0.67451 
0 0.623529 0.67451 0 0.623529 0.67451 
0 0.623529 0.67451 0 0.623529 0.67451 
0 0.623529 0.67451 0 0.623529 0.67451 
0 0.623529 0.67451 0 0.623529 0.67451 
0 0.623529 0.67451 0 0.623529 0.67451 
0 0.623529 0.67451 0 0.623529 0.67451 
0 0.623529 0.67451 0 0.623529 0.67451 
0 0.623529 0.67451 0 0.623529 0.67451 
0 0.623529 0.67451 0 0.623529 0.67451 
0 0.623529 0.67451 0 0.623529 0.67451 
0 0.623529 0.67451 0 0.623529 0.67451 
0 0.623529 0.67451 0 0.623529 0.67451 
0 0.623529 0.67451 0 0.623529 0.67451 
0 0.623529 0.67451 0 0.623529 0.67451 
0 0.623529 0.67451 0 0.623529 0.67451 
0 0.623529 0.67451 0 0.623529 0.67451 
0 0.623529 0.67451 0 0.623529 0.67451 
0 0.623529 0.67451 0 0.623529 0.67451 
0 0.623529 0.67451 0 0.623529 0.67451 
0 0.623529 0.67451 0 0.623529 0.67451 
0 0.623529 0.67451 0 0.623529 0.67451 
0 0.623529 0.67451 0 0.623529 0.67451 
0 0.623529 0.67451 0 0.623529 0.67451 
0 0.623529 0.67451 0 0.623529 0.67451 
0 0.623529 0.67451 0 0.623529 0.67451 
0 0.623529 0.67451 0 0.623529 0.67451 
0 0.623529 0.67451 0 0.623529 0.67451 
0 0.623529 0.67451 0 0.623529 0.67451 
0 0.623529 0.67451 0 0.623529 0.67451 
0 0.623529 0.67451 0 0.623529 0.67451 
0 0.623529 0.67451 0 0.623529 0.67451 
0 0.623529 0.67451 0 0.623529 0.67451 
0 0.623529 0.67451 0 0.623529 0.67451 
0 0.623529 0.67451 0 0.623529 0.67451 
0 0.623529 0.67451 0 0.623529 0.67451 
0 0.623529 0.67451 0 0.623529 0.67451 
0 0.623529 0.67451 0 0.623529 0.67451 
0 0.623529 0.67451 0 0.623529 0.67451 
0 0.623529 0.67451 0 0.623529 0.67451 
0 0.623529 0.67451 0 0.623529 0.67451 
0 0.623529 0.67451 0 0.623529 0.67451 
0 0.623529 0.67451 0 0.623529 0.67451 
0 0.623529 0.67451 0 0.623529 0.67451 
0 0.623529 0.67451 0 0.623529 0.67451 
0 0.623529 0.67451 0 0.623529 0.67451 
0 0.623529 0.67451 0 0.623529 0.67451 
0 0.623529 0.67451 0 0.623529 0.67451 
0 0.623529 0.67451 0 0.623529 0.67451 
0 0.623529 0.67451 0 0.623529 0.67451 
0 0.623529 0.67451 0 0.623529 0.67451 
0 0.623529 0.67451 0 0.623529 0.67451 
0 0.623529 0.67451 0 0.623529 0.67451 
0 0.623529 0.67451 0 0.623529 0.67451 
0 0.623529 0.67451 0 0.623529 0.67451 
0 0.623529 0.67451 0 0.623529 0.67451 
0 0.623529 0.67451 0 0.623529 0.67451 
0 0.623529 0.67451 0 0.623529 0.67451 
0 0.623529 0.67451 0 0.623529 0.67451 
0 0.623529 0.67451 0 0.623529 0.67451 
0 0.623529 0.67451 0 0.623529 0.67451 
0 0.623529 0.67451 0 0.623529 0.67451 
0 0.623529 0.67451 0 0.623529 0.67451 
0 0.623529 0.67451 0 0.623529 0.67451 
0 0.623529 0.67451 0 0.623529 0.67451 
0 0.623529 0.67451 0 0.623529 0.67451 
0 0.623529 0.67451 0 0.623529 0.67451 
0 0.623529 0.67451 0 0.623529 0.67451 
0 0.623529 0.67451 0 0.623529 0.67451 
0 0.623529 0.67451 0 0.623529 0.67451 
0 0.623529 0.67451 0 0.623529 0.67451 
0 0.623529 0.67451 0 0.623529 0.67451 
0 0.623529 0.67451 0 0.623529 0.67451 
0 0.623529 0.67451 0 0.623529 0.67451 
0 0.623529 0.67451 0 0.623529 0.67451 
0 0.623529 0.67451 0 0.623529 0.67451 
0 0.623529 0.67451 0 0.623529 0.67451 
0 0.623529 0.67451 0 0.623529 0.67451 
0 0.623529 0.67451 0 0.623529 0.67451 
0 0.623529 0.67451 0 0.623529 0.67451 
0 0.623529 0.67451 0 0.623529 0.67451 
0 0.623529 0.67451 0 0.623529 0.67451 
0 0.623529 0.67451 0 0.623529 0.67451 
0 0.623529 0.67451 0 0.623529 0.67451 
0 0.623529 0.67451 0 0.623529 0.67451 
0 0.623529 0.67451 0 0.623529 0.67451 
0 0.623529 0.67451 0 0.623529 0.67451 
0 0.623529 0.67451 0 0.623529 0.67451 
0 0.623529 0.67451 0 0.623529 0.67451 
0 0.623529 0.67451 0 0.623529 0.67451 
0 0.623529 0.67451 0 0.623529 0.67451 
0 0.623529 0.67451 0 0.623529 0.67451 
0 0.623529 0.67451 0 0.623529 0.67451 
0 0.623529 0.67451 0 0.623529 0.67451 
0 0.623529 0.67451 0 0.623529 0.67451 
0 0.623529 0.67451 0 0.623529 0.67451 
0 0.623529 0.67451 0 0.623529 0.67451 
0 0.623529 0.67451 0 0.623529 0.67451 
0 0.623529 0.67451 0 0.623529 0.67451 
0 0.623529 0.67451 0 0.623529 0.67451 
0 0.623529 0.67451 0 0.623529 0.67451 
0 0.623529 0.67451 0 0.623529 0.67451 
0 0.623529 0.67451 0 0.623529 0.67451 
0 0.623529 0.67451 0 0.623529 0.67451 
0 0.623529 0.67451 0 0.623529 0.67451 
0 0.623529 0.67451 0 0.623529 0.67451 
0 0.623529 0.67451 0 0.623529 0.67451 
0 0.623529 0.67451 0 0.623529 0.67451 
0 0.623529 0.67451 0 0.623529 0.67451 
0 0.623529 0.67451 0 0.623529 0.67451 
0 0.623529 0.67451 0 0.623529 0.67451 
0 0.623529 0.67451 0 0.623529 0.67451 
0 0.623529 0.67451 0 0.623529 0.67451 
0 0.623529 0.67451 0 0.623529 0.67451 
0 0.623529 0.67451 0 0.623529 0.67451 
0 0.623529 0.67451 0 0.623529 0.67451 
0 0.623529 0.67451 0 0.623529 0.67451 
0 0.623529 0.67451 0 0.623529 0.67451 
0 0.623529 0.67451 0 0.623529 0.67451 
0 0.623529 0.67451 0 0.623529 0.67451 
0 0.623529 0.67451 0 0.623529 0.67451 
0 0.623529 0.67451 0 0.623529 0.67451 
0 0.623529 0.67451 0 0.623529 0.67451 
0 0.623529 0.67451 0 0.623529 0.67451 
0 0.623529 0.67451 0 0.623529 0.67451 
0 0.623529 0.67451 0 0.623529 0.67451 
0 0.623529 0.67451 0 0.623529 0.67451 
0 0.623529 0.67451 0 0.623529 0.67451 
0 0.623529 0.67451 0 0.623529 0.67451 
0 0.623529 0.67451 0 0.623529 0.67451 
0 0.623529 0.67451 0 0.623529 0.67451 
0 0.623529 0.67451 0 0.623529 0.67451 
0 0.623529 0.67451 0 0.623529 0.67451 
0 0.623529 0.67451 0 0.623529 0.67451 
0 0.623529 0.67451 0 0.623529 0.67451 
0 0.623529 0.67451 0 0.623529 0.67451 
0 0.623529 0.67451 0 0.623529 0.67451 
0 0.623529 0.67451 0 0.623529 0.67451 
0 0.623529 0.67451 0 0.623529 0.67451 
0 0.623529 0.67451 0 0.623529 0.67451 
0 0.623529 0.67451 0 0.623529 0.67451 
0 0.623529 0.67451 0 0.623529 0.67451 
0 0.623529 0.67451 0 0.623529 0.67451 
0 0.623529 0.67451 0 0.623529 0.67451 
0 0.623529 0.67451 0 0.623529 0.67451 
0 0.623529 0.67451 0 0.623529 0.67451 
0 0.623529 0.67451 0 0.623529 0.67451 
0 0.623529 0.67451 0 0.623529 0.67451 
0 0.623529 0.67451 0 0.623529 0.67451 
0 0.623529 0.67451 0 0.623529 0.67451 
0 0.623529 0.67451 0 0.623529 0.67451 
0 0.623529 0.67451 0 0.623529 0.67451 
0 0.623529 0.67451 0 0.623529 0.67451 
0 0.623529 0.67451 0 0.623529 0.67451 
0 0.623529 0.67451 0 0.623529 0.67451 
0 0.623529 0.67451 0 0.623529 0.67451 
0 0.623529 0.67451 0 0.623529 0.67451 
0 0.623529 0.67451 0 0.623529 0.67451 
0 0.623529 0.67451 0 0.623529 0.67451 
0 0.623529 0.67451 0 0.623529 0.67451 
0 0.623529 0.67451 0 0.623529 0.67451 
0 0.623529 0.67451 0 0.623529 0.67451 
0 0.623529 0.67451 0 0.623529 0.67451 
0 0.623529 0.67451 0 0.623529 0.67451 
0 0.623529 0.67451 0 0.623529 0.67451 
0 0.623529 0.67451 0 0.623529 0.67451 
0 0.623529 0.67451 0 0.623529 0.67451 
0 0.623529 0.67451 0 0.623529 0.67451 
0 0.623529 0.67451 0 0.623529 0.67451 
0 0.623529 0.67451 0 0.623529 0.67451 
0 0.623529 0.67451 0 0.623529 0.67451 
0 0.623529 0.67451 0 0.623529 0.67451 
0 0.623529 0.67451 0 0.623529 0.67451 
0 0.623529 0.67451 0 0.623529 0.67451 
0 0.623529 0.67451 0 0.623529 0.67451 
0 0.623529 0.67451 0 0.623529 0.67451 
0 0.623529 0.67451 0 0.623529 0.67451 
0 0.623529 0.67451 0 0.623529 0.67451 
0 0.623529 0.67451 0 0.623529 0.67451 
0 0.623529 0.67451 0 0.623529 0.67451 
0 0.623529 0.67451 0 0.623529 0.67451 
0 0.623529 0.67451 0 0.623529 0.67451 
0 0.623529 0.67451 0 0.623529 0.67451 
0 0.623529 0.67451 0 0.623529 0.67451 
0 0.623529 0.67451 0 0.623529 0.67451 
0 0.623529 0.67451 0 0.623529 0.67451 
0 0.623529 0.67451 0 0.623529 0.67451 
0 0.623529 0.67451 0 0.623529 0.67451 
0 0.623529 0.67451 0 0.623529 0.67451 
0 0.623529 0.67451 0 0.623529 0.67451 
0 0.623529 0.67451 0 0.623529 0.67451 
0 0.623529 0.67451 0 0.623529 0.67451 
0 0.623529 0.67451 0 0.623529 0.67451 
0 0.623529 0.67451 0 0.623529 0.67451 
0 0.623529 0.67451 0 0.623529 0.67451 
0 0.623529 0.67451 0 0.623529 0.67451 
0 0.623529 0.67451 0 0.623529 0.67451 
0 0.623529 0.67451 0 0.623529 0.67451 
0 0.623529 0.67451 0 0.623529 0.67451 
0 0.623529 0.67451 0 0.623529 0.67451 
0 0.623529 0.67451 0 0.623529 0.67451 
0 0.623529 0.67451 0 0.623529 0.67451 
0 0.623529 0.67451 0 0.623529 0.67451 
0 0.623529 0.67451 0 0.623529 0.67451 
0 0.623529 0.67451 0 0.623529 0.67451 
0 0.623529 0.67451 0 0.623529 0.67451 
0 0.623529 0.67451 0 0.623529 0.67451 
0 0.623529 0.67451 0 0.623529 0.67451 
0 0.623529 0.67451 0 0.623529 0.67451 
0 0.623529 0.67451 0 0.623529 0.67451 
0 0.623529 0.67451 0 0.623529 0.67451 
0 0.623529 0.67451 0 0.623529 0.67451 
0 0.623529 0.67451 0 0.623529 0.67451 
0 0.623529 0.67451 0 0.623529 0.67451 
0 0.623529 0.67451 0 0.623529 0.67451 
0 0.623529 0.67451 0 0.623529 0.67451 
0 0.623529 0.67451 0 0.623529 0.67451 
0 0.623529 0.67451 0 0.623529 0.67451 
0 0.623529 0.67451 0 0.623529 0.67451 
0 0.623529 0.67451 0 0.623529 0.67451 
0 0.623529 0.67451 0 0.623529 0.67451 
0 0.623529 0.67451 0 0.623529 0.67451 
0 0.623529 0.67451 0 0.623529 0.67451 
0 0.623529 0.67451 0 0.623529 0.67451 
0 0.623529 0.67451 0 0.623529 0.67451 
0 0.623529 0.67451 0 0.623529 0.67451 
0 0.623529 0.67451 0 0.623529 0.67451 
0 0.623529 0.67451 0 0.623529 0.67451 
0 0.623529 0.67451 0 0.623529 0.67451 
0 0.623529 0.67451 0 0.623529 0.67451 
0 0.623529 0.67451 0 0.623529 0.67451 
0 0.623529 0.67451 0 0.623529 0.67451 
0 0.623529 0.67451 0 0.623529 0.67451 
0 0.623529 0.67451 0 0.623529 0.67451 
0 0.623529 0.67451 0 0.623529 0.67451 
0 0.623529 0.67451 0 0.623529 0.67451 
0 0.623529 0.67451 0 0.623529 0.67451 
0 0.623529 0.67451 0 0.623529 0.67451 
0 0.623529 0.67451 0 0.623529 0.67451 
0 0.623529 0.67451 0 0.623529 0.67451 
0 0.623529 0.67451 0 0.623529 0.67451 
0 0.623529 0.67451 0 0.623529 0.67451 
0 0.623529 0.67451 0 0.623529 0.67451 
0 0.623529 0.67451 0 0.623529 0.67451 
0 0.623529 0.67451 0 0.623529 0.67451 
0 0.623529 0.67451 0 0.623529 0.67451 
0 0.623529 0.67451 0 0.623529 0.67451 
0 0.623529 0.67451 0 0.623529 0.67451 
0 0.623529 0.67451 0 0.623529 0.67451 
0 0.623529 0.67451 0 0.623529 0.67451 
0 0.623529 0.67451 0 0.623529 0.67451 
0 0.623529 0.67451 0 0.623529 0.67451 
0 0.623529 0.67451 0 0.623529 0.67451 
0 0.623529 0.67451 0 0.623529 0.67451 
0 0.623529 0.67451 0 0.623529 0.67451 
0 0.623529 0.67451 0 0.623529 0.67451 
0 0.623529 0.67451 0 0.623529 0.67451 
0 0.623529 0.67451 0 0.623529 0.67451 
0 0.623529 0.67451 0 0.623529 0.67451 
0 0.623529 0.67451 0 0.623529 0.67451 
0 0.623529 0.67451 0 0.623529 0.67451 
0 0.623529 0.67451 0 0.623529 0.67451 
0 0.623529 0.67451 0 0.623529 0.67451 
0 0.623529 0.67451 0 0.623529 0.67451 
0 0.623529 0.67451 0 0.623529 0.67451 
0 0.623529 0.67451 0 0.623529 0.67451 
0 0.623529 0.67451 0 0.623529 0.67451 
0 0.623529 0.67451 0 0.623529 0.67451 
0 0.623529 0.67451 0 0.623529 0.67451 
0 0.623529 0.67451 0 0.623529 0.67451 
0 0.623529 0.67451 0 0.623529 0.67451 
0 0.623529 0.67451 0 0.623529 0.67451 
0 0.623529 0.67451 0 0.623529 0.67451 
0 0.623529 0.67451 0 0.623529 0.67451 
0 0.623529 0.67451 0 0.623529 0.67451 
0 0.623529 0.67451 0 0.623529 0.67451 
0 0.623529 0.67451 0 0.623529 0.67451 
0 0.623529 0.67451 0 0.623529 0.67451 
0 0.623529 0.67451 0 0.623529 0.67451 
0 0.623529 0.67451 0 0.623529 0.67451 
0 0.623529 0.67451 0 0.623529 0.67451 
0 0.623529 0.67451 0 0.623529 0.67451 
0 0.623529 0.67451 0 0.623529 0.67451 
0 0.623529 0.67451 0 0.623529 0.67451 
0 0.623529 0.67451 0 0.623529 0.67451 
0 0.623529 0.67451 0 0.623529 0.67451 
0 0.623529 0.67451 0 0.623529 0.67451 
0 0.623529 0.67451 0 0.623529 0.67451 
0 0.623529 0.67451 0 0.623529 0.67451 
0 0.623529 0.67451 0 0.623529 0.67451 
0 0.623529 0.67451 0 0.623529 0.67451 
0 0.623529 0.67451 0 0.623529 0.67451 
0 0.623529 0.67451 0 0.623529 0.67451 
0 0.623529 0.67451 0 0.623529 0.67451 
0 0.623529 0.67451 0 0.623529 0.67451 
0 0.623529 0.67451 0 0.623529 0.67451 
0 0.623529 0.67451 0 0.623529 0.67451 
0 0.623529 0.67451 0 0.623529 0.67451 
0 0.623529 0.67451 0 0.623529 0.67451 
0 0.623529 0.67451 0 0.623529 0.67451 
0 0.623529 0.67451 0 0.623529 0.67451 
0 0.623529 0.67451 0 0.623529 0.67451 
0 0.623529 0.67451 0 0.623529 0.67451 
0 0.623529 0.67451 0 0.623529 0.67451 
0 0.623529 0.67451 0 0.623529 0.67451 
0 0.623529 0.67451 0 0.623529 0.67451 
0 0.623529 0.67451 0 0.623529 0.67451 
0 0.623529 0.67451 0 0.623529 0.67451 
0 0.623529 0.67451 0 0.623529 0.67451 
0 0.623529 0.67451 0 0.623529 0.67451 
0 0.623529 0.67451 0 0.623529 0.67451 
0 0.623529 0.67451 0 0.623529 0.67451 
0 0.623529 0.67451 0 0.623529 0.67451 
0 0.623529 0.67451 0 0.623529 0.67451 
0 0.623529 0.67451 0 0.623529 0.67451 
0 0.623529 0.67451 0 0.623529 0.67451 
0 0.623529 0.67451 0 0.623529 0.67451 
0 0.623529 0.67451 0 0.623529 0.67451 
0 0.623529 0.67451 0 0.623529 0.67451 
0 0.623529 0.67451 0 0.623529 0.67451 
0 0.623529 0.67451 0 0.623529 0.67451 
0 0.623529 0.67451 0 0.623529 0.67451 
0 0.623529 0.67451 0 0.623529 0.67451 
0 0.623529 0.67451 0 0.623529 0.67451 
0 0.623529 0.67451 0 0.623529 0.67451 
0 0.623529 0.67451 0 0.623529 0.67451 
0 0.623529 0.67451 0 0.623529 0.67451 
0 0.623529 0.67451 0 0.623529 0.67451 
0 0.623529 0.67451 0 0.623529 0.67451 
0 0.623529 0.67451 0 0.623529 0.67451 
0 0.623529 0.67451 0 0.623529 0.67451 
0 0.623529 0.67451 0 0.623529 0.67451 
0 0.623529 0.67451 0 0.623529 0.67451 
0 0.623529 0.67451 0 0.623529 0.67451 
0 0.623529 0.67451 0 0.623529 0.67451 
0 0.623529 0.67451 0 0.623529 0.67451 
0 0.623529 0.67451 0 0.623529 0.67451 
0 0.623529 0.67451 0 0.623529 0.67451 
0 0.623529 0.67451 0 0.623529 0.67451 
0 0.623529 0.67451 0 0.623529 0.67451 
0 0.623529 0.67451 0 0.623529 0.67451 
0 0.623529 0.67451 0 0.623529 0.67451 
0 0.623529 0.67451 0 0.623529 0.67451 
0 0.623529 0.67451 0 0.623529 0.67451 
0 0.623529 0.67451 0 0.623529 0.67451 
0 0.623529 0.67451 0 0.623529 0.67451 
0 0.623529 0.67451 0 0.623529 0.67451 
0 0.623529 0.67451 0 0.623529 0.67451 
0 0.623529 0.67451 0 0.623529 0.67451 