# vtk DataFile Version 4.2
vtk output
ASCII
DATASET POLYDATA
POINTS 1327 float
279.388 155.471 44.1972 279.178 155.046 44.2042 278.395 156.674 43.7069 
276.768 159.634 43.2092 276.384 162.386 42.976 277.162 163.164 43.0349 
278.398 162.491 43.4137 276.166 165.26 42.8231 279.171 163.788 43.8925 
276.887 165.911 42.9534 276.064 167.107 42.7554 278.32 166.126 43.5722 
277.334 170.407 43.1751 271.371 173.273 42.3137 276.493 173.564 42.8584 
278.448 174.621 44.087 275.597 176.637 42.6797 277.172 179.146 43.4071 
272.058 180.627 42.8063 276.248 181.869 43.3722 276.842 181.881 43.5962 
279.559 152.153 45.1922 279.547 152.039 45.2482 279.443 152.123 45.2222 
279.64 152.044 45.3784 279.331 152.436 45.0988 279.227 152.196 45.4073 
278.928 152.609 45.1581 279.594 152.376 45.1359 279.713 152.199 45.3039 
278.3 153.818 44.569 278.919 153.775 44.5517 279.394 153.491 44.7677 
277.15 154.219 44.6669 276.836 154.717 44.4858 280.234 155.855 44.8412 
276.647 157.75 43.4778 273.792 161.607 43.1736 279.518 163.697 44.1952 
268.766 167.619 43.035 278.947 175.132 44.6674 278.494 178.376 44.2736 
278.754 178.781 44.5995 278.425 179.782 44.2851 275.718 182.057 43.295 
279.492 152.033 45.3511 279.544 151.996 45.6695 279.901 152.137 45.715 
276.084 153.921 45.639 275.558 154.548 45.351 274.974 154.597 45.8248 
272.993 156.148 45.4852 267.751 159.543 45.5786 280.505 159.792 45.2813 
279.796 163.504 44.5258 261.541 165.17 45.2125 254.704 173.638 44.8194 
257.106 181.032 44.3867 279.159 184.014 45.8497 277.293 186.325 45.0359 
278.338 187.438 46.2047 276.061 188.101 46.0819 278.016 187.743 46.2856 
280.189 151.882 46.3465 280.237 151.696 46.6502 280.385 151.784 46.6839 
279.758 151.821 46.3423 280.493 152.042 46.5681 275.241 154.09 46.4187 
280.8 153.123 46.4009 280.678 154.173 45.7103 267.799 158.634 46.6679 
261.316 163.127 47.0173 260.832 164.372 46.0619 280.486 163.754 46.0447 
279.518 185.535 46.5244 261.71 187.965 45.2887 264.391 189.328 45.9349 
275.022 188.728 46.8019 279.347 187.357 47.053 280.35 151.685 46.9519 
280.08 151.664 46.8184 279.24 151.752 47.1581 280.728 152.181 46.9557 
275.386 153.816 47.0127 267.62 158.491 47.1934 280.279 167.221 46.2967 
250.136 171.695 46.37 280.08 174.048 46.8499 279.747 186.871 47.6953 
251.236 188.269 46.9534 258.86 188.882 46.1467 278.242 188.139 47.2052 
279.385 187.525 47.8503 259.42 190.106 46.9342 270.578 189.711 47.242 
258.253 191.103 48.0024 264.073 190.534 47.453 260.727 191.004 47.8636 
267.788 158.283 47.6104 266.383 159.062 48.4358 250.341 168.723 48.6965 
280.141 181.045 47.7257 271.823 189.808 48.0044 251.546 190.463 47.9599 
251.721 191.021 48.3124 252.095 191.351 48.5885 259.288 191.55 48.7767 
281.42 151.621 49.801 281.387 151.602 49.8276 280.957 152.167 48.1166 
255.406 165.727 49.7024 238.495 175.127 49.4216 237.724 177.495 48.9594 
239.234 179.996 48.2596 276.795 189.077 48.8312 278.225 188.609 49.0528 
267.421 190.755 49.6189 281.349 151.616 49.9333 281.256 151.671 49.7748 
281.357 151.733 50.131 280.825 151.698 49.7819 281.261 152.04 49.369 
281.43 151.902 49.9625 278.656 151.993 49.2028 281.969 154.401 49.5705 
268.991 157.556 50.0347 247.338 169.47 50.2301 242.434 171.738 50.3064 
238.046 173.585 51.2019 238.922 173.82 50.2343 280.769 172.902 50.0209 
238.472 174.488 49.8677 235.688 176.487 50.0716 247.325 192.844 50.9188 
247.995 192.866 50.7858 250.184 192.736 50.8092 251.698 192.485 50.292 
281.21 151.654 50.0069 281.156 151.767 50.3861 281.441 152.075 50.5559 
280.939 170.217 50.6522 234.039 174.65 52.1927 278.513 188.767 51.752 
278.935 188.65 51.8618 257.015 192.318 51.2381 281.546 152.354 51.3794 
279.429 152.059 51.3049 268.59 158.149 51.9705 281.501 164.852 51.9265 
237.674 173.095 52.8234 235.363 173.921 52.6687 232.295 175.618 52.0922 
229.85 177.486 51.929 230.435 178.125 51.5271 281.057 184.516 51.9412 
279.27 188.488 52.1543 280.194 187.815 52.5971 269.024 190.568 51.718 
236.599 192.236 52.1498 236.774 192.726 52.5741 237.187 193.028 52.897 
242.925 193.407 52.4918 281.932 153.083 52.4043 282.173 153.769 52.5676 
277.226 153.6 53.2394 282.032 161.289 52.4089 282.121 160.606 53.0708 
242.833 171.128 52.8847 236.873 173.301 53.0296 280.85 174.518 52.5944 
225.243 177.973 53.2296 226.485 179.26 52.5198 229.06 186.913 52.0787 
281.079 186.599 52.6956 280.976 186.994 53.3395 228.16 188.825 52.9896 
279.636 188.253 53.4516 229.943 189.802 52.7113 278.97 188.637 52.7265 
229.711 191.013 53.4871 231.121 192.014 53.6056 232.441 192.915 54.1554 
240.956 193.565 53.344 281.456 152.38 52.5694 281.7 152.7 52.9552 
274.086 155.605 53.7125 282.417 158.215 53.7922 282.052 160.558 53.8697 
281.208 165.987 53.8712 237.515 172.872 54.4424 224.384 176.076 54.6912 
227.749 175.117 54.9502 223.15 176.887 54.4078 225.618 176.482 53.9332 
280.626 175.828 53.8342 222.704 178.474 53.9106 281.158 184.193 53.0866 
224.179 184.925 53.45 223.486 185.812 54.0937 223.717 186.906 54.6338 
281.221 186.476 53.9908 280.652 187.504 54.1282 227.214 189.507 54.0452 
229.161 191.415 54.4434 258.644 192.18 53.8421 230.998 192.922 55.0967 
232.627 193.25 54.7913 237.868 193.684 54.2497 241.708 193.736 53.9989 
281.935 152.726 54.863 282.014 152.853 54.9772 280.978 152.563 54.2522 
281.626 152.723 54.0388 282.091 153.382 54.2406 282.305 154.439 54.6026 
282.216 157.853 54.8766 281.386 163.906 54.2375 281.119 165.618 54.4575 
255.664 166.081 54.8755 280.863 166.201 54.7856 224.003 175.168 56.1383 
280.315 174.72 54.6918 280.505 177.592 54.0984 220.442 178.257 54.7319 
218.996 183.183 55.6337 221.665 186.318 56.1991 222.345 186.287 55.374 
222.739 186.933 55.8244 275.101 188.945 55.1477 279.44 188.117 54.783 
228.787 191.74 55.779 248.336 193.321 54.9335 281.76 152.682 54.7996 
281.997 152.974 55.2045 280.56 152.651 54.4774 281.366 152.692 54.8142 
282.037 153.358 55.2735 282.01 153.87 55.4141 282.165 156.38 55.1308 
281.826 158.648 55.4019 281.866 159.737 54.9821 265.179 161.575 55.6367 
281.334 161.648 55.0376 280.84 163.841 55.2328 280.96 165.323 54.8265 
280.826 165.736 54.9835 219.005 176.11 56.3546 220.003 175.391 56.8861 
223.713 174.953 56.7535 227.414 174.652 56.4632 217.181 177.033 56.4671 
279.93 176.875 55.2743 217.352 180.118 55.744 280.144 180.132 55.0995 
216.736 181.213 56.2557 280.694 182.683 55.0037 217.765 183.358 56.7733 
218.537 184.334 57.2772 281.235 186.163 55.3642 220.98 185.938 56.7333 
221.971 186.623 56.4403 223.28 187.603 56.6263 230.245 192.735 56.7108 
230.893 193.065 56.1496 239.293 193.902 55.6622 242.061 193.748 56.3591 
281.855 152.868 55.3073 281.018 152.875 55.1619 279.292 153.663 55.4479 
280.161 153.477 55.5819 281.67 153.614 55.7608 277.798 154.508 55.5348 
281.801 154.399 55.6821 276.743 155.557 56.0524 281.015 154.853 56.1235 
275.506 156.309 56.0563 273.104 157.482 56.2898 274.664 156.815 56.1359 
271.407 158.262 56.2782 281.153 158.524 56.0272 265.586 161.969 56.4191 
278.346 162.255 56.8486 280.262 162.346 55.9715 261.56 164.3 56.6763 
277.112 169.036 56.8658 215.545 176.302 57.8098 279.524 176.123 55.7019 
215.48 178.276 56.8168 278.981 177.24 56.1919 278.507 179.716 56.756 
215.597 181.59 57.2013 215.795 182.255 57.4976 215.921 182.678 57.8181 
216.307 183.098 58.0847 218.895 184.658 57.4824 219.48 185.025 57.5535 
281.021 187.087 56.2752 274.436 188.493 56.5391 277.016 187.988 56.2466 
280.243 187.439 56.1057 269.047 189.701 56.7331 262.779 190.76 57.2839 
264.557 190.533 56.7872 254.43 192.281 56.7651 259.692 191.462 56.6984 
234.817 193.908 56.7232 281.638 152.971 55.4349 281.626 153.296 55.6387 
281.091 154.196 55.9945 278.041 155.646 56.4745 277.011 156.227 56.5939 
273.104 157.828 56.6717 275.827 157.162 56.7404 265.751 162.518 56.9628 
272.685 163.481 57.8509 256.895 166.258 56.8098 246.143 170.935 57.6872 
236.852 173.26 57.7444 215.145 175.98 58.3494 226.205 174.48 58.1846 
213.978 176.716 58.2634 213.209 176.938 58.5307 214.433 177.201 57.7361 
213.526 178.214 57.9197 213.47 179.028 57.9313 212.858 179.264 58.3921 
275.917 178.714 57.5472 219.437 185.065 58.146 219.603 185.132 58.763 
276.202 184.173 58.0388 280.745 185.679 56.4766 281.008 186.263 56.3224 
222.455 187.019 57.8166 281.09 186.685 56.3789 281.133 186.907 56.2762 
280.999 186.873 56.4812 280.845 187.061 56.4567 274.629 187.988 57.0327 
268.424 189.283 57.5834 263.376 190.402 57.7418 262.885 190.618 57.751 
237.202 193.805 58.235 277.346 155.645 56.5037 276.194 156.502 56.6668 
273.415 158.026 56.9049 268.215 162.479 57.6592 259.468 165.92 57.7515 
266.954 164.957 58.1299 260.508 167.136 58.4806 255.642 167.668 57.7991 
253.655 168.653 58.0377 251.9 169.273 58.1881 258.068 170.891 59.2042 
232.824 173.955 58.1733 212.416 176.055 59.6734 211.577 176.253 59.9158 
213.16 175.484 60.0912 215.771 175.012 59.7945 223.238 174.499 59.1604 
212.001 176.687 59.3447 212.278 177.91 58.7222 212.037 180.41 59.8158 
214.039 182.084 59.9604 215.033 182.691 59.4712 216.629 183.577 59.2869 
280.066 185.865 57.037 280.615 186.041 56.7276 279.05 186.29 57.2553 
280.426 186.426 56.8572 270.584 187.117 58.5648 271.968 187.019 58.3296 
275.887 187.061 57.3764 279.526 186.828 56.9192 272.357 187.61 58.0599 
273.013 188.104 57.5686 265.092 189.769 58.0961 266.694 189.138 58.408 
267.852 188.964 58.0673 261.59 190.293 58.3891 263.407 189.957 58.3082 
266.499 189.183 58.4984 253.659 191.686 59.1922 244.065 193.019 59.2681 
232.587 193.344 59.2018 232.85 193.534 58.5989 257.076 167.854 58.3298 
251.275 169.864 58.7288 254.111 169.498 58.7982 253.088 170.005 59.0501 
257.016 169.288 58.9317 242.956 172.522 58.7691 236.956 173.81 59.3953 
220.222 174.522 60.1402 209.657 177.974 60.3751 209.064 178.694 61.0487 
209.253 179.152 61.3185 210.301 179.268 60.5153 213.687 181.94 60.5151 
224.73 187.769 60.3078 265.147 187.299 59.335 269.527 187.569 58.5414 
265.558 188.037 59.1556 266.265 188.676 58.8215 269.152 188.181 58.2997 
264.72 189.447 58.5293 256.397 190.483 59.8451 257.73 190.396 59.5469 
260.673 190.34 58.5862 263.806 189.483 58.6602 250.2 192.051 59.5173 
[...]
POINT_DATA 1327
COLOR_SCALARS scalars 3
0.0666667 0.678431 0.513725 0.0666667 0.678431 0.513725 0.0666667 0.678431 0.513725 
0.0666667 0.678431 0.513725 0.0666667 0.678431 0.513725 
0.0666667 0.678431 0.513725 0.0666667 0.678431 0.513725 
0.0666667 0.678431 0.513725 0.0666667 0.678431 0.513725 
0.0666667 0.678431 0.513725 0.0666667 0.678431 0.513725 
0.0666667 0.678431 0.513725 0.0666667 0.678431 0.513725 
0.0666667 0.678431 0.513725 0.0666667 0.678431 0.513725 
0.0666667 0.678431 0.513725 0.0666667 0.678431 0.513725 
0.0666667 0.678431 0.513725 0.0666667 0.678431 0.513725 
0.0666667 0.678431 0.513725 0.0666667 0.678431 0.513725 
0.0666667 0.678431 0.513725 0.0666667 0.678431 0.513725 
0.0666667 0.678431 0.513725 0.0666667 0.678431 0.513725 
0.0666667 0.678431 0.513725 0.0666667 0.678431 0.513725 
0.0666667 0.678431 0.513725 0.0666667 0.678431 0.513725 
0.0666667 0.678431 0.513725 0.0666667 0.678431 0.513725 
0.0666667 0.678431 0.513725 0.0666667 0.678431 0.513725 
0.0666667 0.678431 0.513725 0.0666667 0.678431 0.513725 
0.0666667 0.678431 0.513725 0.0666667 0.678431 0.513725 
0.0666667 0.678431 0.513725 0.0666667 0.678431 0.513725 
0.0666667 0.678431 0.513725 0.0666667 0.678431 0.513725 
0.0666667 0.678431 0.513725 0.0666667 0.678431 0.513725 
0.0666667 0.678431 0.513725 0.0666667 0.678431 0.513725 
0.0666667 0.678431 0.513725 0.0666667 0.678431 0.513725 
0.0666667 0.678431 0.513725 0.0666667 0.678431 0.513725 
0.0666667 0.678431 0.513725 0.0666667 0.678431 0.513725 
0.0666667 0.678431 0.513725 0.0666667 0.678431 0.513725 
0.0666667 0.678431 0.513725 0.0666667 0.678431 0.513725 
0.0666667 0.678431 0.513725 0.0666667 0.678431 0.513725 
0.0666667 0.678431 0.513725 0.0666667 0.678431 0.513725 
0.0666667 0.678431 0.513725 0.0666667 0.678431 0.513725 
0.0666667 0.678431 0.513725 0.0666667 0.678431 0.513725 
0.0666667 0.678431 0.513725 0.0666667 0.678431 0.513725 
0.0666667 0.678431 0.513725 0.0666667 0.678431 0.513725 
0.0666667 0.678431 0.513725 0.0666667 0.678431 0.513725 
0.0666667 0.678431 0.513725 0.0666667 0.678431 0.513725 
0.0666667 0.678431 0.513725 0.0666667 0.678431 0.513725 
0.0666667 0.678431 0.513725 0.0666667 0.678431 0.513725 
0.0666667 0.678431 0.513725 0.0666667 0.678431 0.513725 
0.0666667 0.678431 0.513725 0.0666667 0.678431 0.513725 
0.0666667 0.678431 0.513725 0.0666667 0.678431 0.513725 
0.0666667 0.678431 0.513725 0.0666667 0.678431 0.513725 
0.0666667 0.678431 0.513725 0.0666667 0.678431 0.513725 
0.0666667 0.678431 0.513725 0.0666667 0.678431 0.513725 
0.0666667 0.678431 0.513725 0.0666667 0.678431 0.513725 
0.0666667 0.678431 0.513725 0.0666667 0.678431 0.513725 
0.0666667 0.678431 0.513725 0.0666667 0.678431 0.513725 
0.0666667 0.678431 0.513725 0.0666667 0.678431 0.513725 
0.0666667 0.678431 0.513725 0.0666667 0.678431 0.513725 
0.0666667 0.678431 0.513725 0.0666667 0.678431 0.513725 
0.0666667 0.678431 0.513725 0.0666667 0.678431 0.513725 
0.0666667 0.678431 0.513725 0.0666667 0.678431 0.513725 
0.0666667 0.678431 0.513725 0.0666667 0.678431 0.513725 
0.0666667 0.678431 0.513725 0.0666667 0.678431 0.513725 
0.0666667 0.678431 0.513725 0.0666667 0.678431 0.513725 
0.0666667 0.678431 0.513725 0.0666667 0.678431 0.513725 
0.0666667 0.678431 0.513725 0.0666667 0.678431 0.513725 
0.0666667 0.678431 0.513725 0.0666667 0.678431 0.513725 
0.0666667 0.678431 0.513725 0.0666667 0.678431 0.513725 
0.0666667 0.678431 0.513725 0.0666667 0.678431 0.513725 
0.0666667 0.678431 0.513725 0.0666667 0.678431 0.513725 
0.0666667 0.678431 0.513725 0.0666667 0.678431 0.513725 
0.0666667 0.678431 0.513725 0.0666667 0.678431 0.513725 
0.0666667 0.678431 0.513725 0.0666667 0.678431 0.513725 
0.0666667 0.678431 0.513725 0.0666667 0.678431 0.513725 
0.0666667 0.678431 0.513725 0.0666667 0.678431 0.513725 
0.0666667 0.678431 0.513725 0.0666667 0.678431 0.513725 
0.0666667 0.678431 0.513725 0.0666667 0.678431 0.513725 
0.0666667 0.678431 0.513725 0.0666667 0.678431 0.513725 
0.0666667 0.678431 0.513725 0.0666667 0.678431 0.513725 
0.0666667 0.678431 0.513725 0.0666667 0.678431 0.513725 
0.0666667 0.678431 0.513725 0.0666667 0.678431 0.513725 
0.0666667 0.678431 0.513725 0.0666667 0.678431 0.513725 
0.0666667 0.678431 0.513725 0.0666667 0.678431 0.513725 
0.0666667 0.678431 0.513725 0.0666667 0.678431 0.513725 
0.0666667 0.678431 0.513725 0.0666667 0.678431 0.513725 
0.0666667 0.678431 0.513725 0.0666667 0.678431 0.513725 
0.0666667 0.678431 0.513725 0.0666667 0.678431 0.513725 
0.0666667 0.678431 0.513725 0.0666667 0.678431 0.513725 
0.0666667 0.678431 0.513725 0.0666667 0.678431 0.513725 
0.0666667 0.678431 0.513725 0.0666667 0.678431 0.513725 
0.0666667 0.678431 0.513725 0.0666667 0.678431 0.513725 
0.0666667 0.678431 0.513725 0.0666667 0.678431 0.513725 
0.0666667 0.678431 0.513725 0.0666667 0.678431 0.513725 
0.0666667 0.678431 0.513725 0.0666667 0.678431 0.513725 
0.0666667 0.678431 0.513725 0.0666667 0.678431 0.513725 
0.0666667 0.678431 0.513725 0.0666667 0.678431 0.513725 
0.0666667 0.678431 0.513725 0.0666667 0.678431 0.513725 
0.0666667 0.678431 0.513725 0.0666667 0.678431 0.513725 
0.0666667 0.678431 0.513725 0.0666667 0.678431 0.513725 
0.0666667 0.678431 0.513725 0.0666667 0.678431 0.513725 
0.0666667 0.678431 0.513725 0.0666667 0.678431 0.513725 
0.0666667 0.678431 0.513725 0.0666667 0.678431 0.513725 
0.0666667 0.678431 0.513725 0.0666667 0.678431 0.513725 
0.0666667 0.678431 0.513725 0.0666667 0.678431 0.513725 
0.0666667 0.678431 0.513725 0.0666667 0.678431 0.513725 
0.0666667 0.678431 0.513725 0.0666667 0.678431 0.513725 
0.0666667 0.678431 0.513725 0.0666667 0.678431 0.513725 
0.0666667 0.678431 0.513725 0.0666667 0.678431 0.513725 
0.0666667 0.678431 0.513725 0.0666667 0.678431 0.513725 
0.0666667 0.678431 0.513725 0.0666667 0.678431 0.513725 
0.0666667 0.678431 0.513725 0.0666667 0.678431 0.513725 
0.0666667 0.678431 0.513725 0.0666667 0.678431 0.513725 
0.0666667 0.678431 0.513725 0.0666667 0.678431 0.513725 
0.0666667 0.678431 0.513725 0.0666667 0.678431 0.513725 
0.0666667 0.678431 0.513725 0.0666667 0.678431 0.513725 
0.0666667 0.678431 0.513725 0.0666667 0.678431 0.513725 
0.0666667 0.678431 0.513725 0.0666667 0.678431 0.513725 
0.0666667 0.678431 0.513725 0.0666667 0.678431 0.513725 
0.0666667 0.678431 0.513725 0.0666667 0.678431 0.513725 
0.0666667 0.678431 0.513725 0.0666667 0.678431 0.513725 
0.0666667 0.678431 0.513725 0.0666667 0.678431 0.513725 
0.0666667 0.678431 0.513725 0.0666667 0.678431 0.513725 
0.0666667 0.678431 0.513725 0.0666667 0.678431 0.513725 
0.0666667 0.678431 0.513725 0.0666667 0.678431 0.513725 
0.0666667 0.678431 0.513725 0.0666667 0.678431 0.513725 
0.0666667 0.678431 0.513725 0.0666667 0.678431 0.513725 
0.0666667 0.678431 0.513725 0.0666667 0.678431 0.513725 
0.0666667 0.678431 0.513725 0.0666667 0.678431 0.513725 
0.0666667 0.678431 0.513725 0.0666667 0.678431 0.513725 
0.0666667 0.678431 0.513725 0.0666667 0.678431 0.513725 
0.0666667 0.678431 0.513725 0.0666667 0.678431 0.513725 
0.0666667 0.678431 0.513725 0.0666667 0.678431 0.513725 
0.0666667 0.678431 0.513725 0.0666667 0.678431 0.513725 
0.0666667 0.678431 0.513725 0.0666667 0.678431 0.513725 
0.0666667 0.678431 0.513725 0.0666667 0.678431 0.513725 
0.0666667 0.678431 0.513725 0.0666667 0.678431 0.513725 
0.0666667 0.678431 0.513725 0.0666667 0.678431 0.513725 
0.0666667 0.678431 0.513725 0.0666667 0.678431 0.513725 
0.0666667 0.678431 0.513725 0.0666667 0.678431 0.513725 
0.0666667 0.678431 0.513725 0.0666667 0.678431 0.513725 
0.0666667 0.678431 0.513725 0.0666667 0.678431 0.513725 
0.0666667 0.678431 0.513725 0.0666667 0.678431 0.513725 
0.0666667 0.678431 0.513725 0.0666667 0.678431 0.513725 
0.0666667 0.678431 0.513725 0.0666667 0.678431 0.513725 
0.0666667 0.678431 0.513725 0.0666667 0.678431 0.513725 
0.0666667 0.678431 0.513725 0.0666667 0.678431 0.513725 
0.0666667 0.678431 0.513725 0.0666667 0.678431 0.513725 
0.0666667 0.678431 0.513725 0.0666667 0.678431 0.513725 
0.0666667 0.678431 0.513725 0.0666667 0.678431 0.513725 
0.0666667 0.678431 0.513725 0.0666667 0.678431 0.513725 
0.0666667 0.678431 0.513725 0.0666667 0.678431 0.513725 
0.0666667 0.678431 0.513725 0.0666667 0.678431 0.513725 
0.0666667 0.678431 0.513725 0.0666667 0.678431 0.513725 
0.0666667 0.678431 0.513725 0.0666667 0.678431 0.513725 
0.0666667 0.678431 0.513725 0.0666667 0.678431 0.513725 
0.0666667 0.678431 0.513725 0.0666667 0.678431 0.513725 
0.0666667 0.678431 0.513725 0.0666667 0.678431 0.513725 
0.0666667 0.678431 0.513725 0.0666667 0.678431 0.513725 
0.0666667 0.678431 0.513725 0.0666667 0.678431 0.513725 
0.0666667 0.678431 0.513725 0.0666667 0.678431 0.513725 
0.0666667 0.678431 0.513725 0.0666667 0.678431 0.513725 
0.0666667 0.678431 0.513725 0.0666667 0.678431 0.513725 
0.0666667 0.678431 0.513725 0.0666667 0.678431 0.513725 
0.0666667 0.678431 0.513725 0.0666667 0.678431 0.513725 
0.0666667 0.678431 0.513725 0.0666667 0.678431 0.513725 
0.0666667 0.678431 0.513725 0.0666667 0.678431 0.513725 
0.0666667 0.678431 0.513725 0.0666667 0.678431 0.513725 
0.0666667 0.678431 0.513725 0.0666667 0.678431 0.513725 
0.0666667 0.678431 0.513725 0.0666667 0.678431 0.513725 
0.0666667 0.678431 0.513725 0.0666667 0.678431 0.513725 
0.0666667 0.678431 0.513725 0.0666667 0.678431 0.513725 
0.0666667 0.678431 0.513725 0.0666667 0.678431 0.513725 
0.0666667 0.678431 0.513725 0.0666667 0.678431 0.513725 
0.0666667 0.678431 0.513725 0.0666667 0.678431 0.513725 
0.0666667 0.678431 0.513725 0.0666667 0.678431 0.513725 
0.0666667 0.678431 0.513725 0.0666667 0.678431 0.513725 
0.0666667 0.678431 0.513725 0.0666667 0.678431 0.513725 
0.0666667 0.678431 0.513725 0.0666667 0.678431 0.513725 
0.0666667 0.678431 0.513725 0.0666667 0.678431 0.513725 
0.0666667 0.678431 0.513725 0.0666667 0.678431 0.513725 
0.0666667 0.678431 0.513725 0.0666667 0.678431 0.513725 
0.0666667 0.678431 0.513725 0.0666667 0.678431 0.513725 
0.0666667 0.678431 0.513725 0.0666667 0.678431 0.513725 
0.0666667 0.678431 0.513725 0.0666667 0.678431 0.513725 
0.0666667 0.678431 0.513725 0.0666667 0.678431 0.513725 
0.0666667 0.678431 0.513725 0.0666667 0.678431 0.513725 
0.0666667 0.678431 0.513725 0.0666667 0.678431 0.513725 
0.0666667 0.678431 0.513725 0.0666667 0.678431 0.513725 
0.0666667 0.678431 0.513725 0.0666667 0.678431 0.513725 
0.0666667 0.678431 0.513725 0.0666667 0.678431 0.513725 
0.0666667 0.678431 0.513725 0.0666667 0.678431 0.513725 
0.0666667 0.678431 0.513725 0.0666667 0.678431 0.513725 
0.0666667 0.678431 0.513725 0.0666667 0.678431 0.513725 
0.0666667 0.678431 0.513725 0.0666667 0.678431 0.513725 
0.0666667 0.678431 0.513725 0.0666667 0.678431 0.513725 
0.0666667 0.678431 0.513725 0.0666667 0.678431 0.513725 
0.0666667 0.678431 0.513725 0.0666667 0.678431 0.513725 
0.0666667 0.678431 0.513725 0.0666667 0.678431 0.513725 
0.0666667 0.678431 0.513725 0.0666667 0.678431 0.513725 
0.0666667 0.678431 0.513725 0.0666667 0.678431 0.513725 
0.0666667 0.678431 0.513725 0.0666667 0.678431 0.513725 
0.0666667 0.678431 0.513725 0.0666667 0.678431 0.513725 
0.0666667 0.678431 0.513725 0.0666667 0.678431 0.513725 
0.0666667 0.678431 0.513725 0.0666667 0.678431 0.513725 
0.0666667 0.678431 0.513725 0.0666667 0.678431 0.513725 
0.0666667 0.678431 0.513725 0.0666667 0.678431 0.513725 
0.0666667 0.678431 0.513725 0.0666667 0.678431 0.513725 
0.0666667 0.678431 0.513725 0.0666667 0.678431 0.513725 
0.0666667 0.678431 0.513725 0.0666667 0.678431 0.513725 
0.0666667 0.678431 0.513725 0.0666667 0.678431 0.513725 
0.0666667 0.678431 0.513725 0.0666667 0.678431 0.513725 
0.0666667 0.678431 0.513725 0.0666667 0.678431 0.513725 
0.0666667 0.678431 0.513725 0.0666667 0.678431 0.513725 
0.0666667 0.678431 0.513725 0.0666667 0.678431 0.513725 
0.0666667 0.678431 0.513725 0.0666667 0.678431 0.513725 
0.0666667 0.678431 0.513725 0.0666667 0.678431 0.513725 
0.0666667 0.678431 0.513725 0.0666667 0.678431 0.513725 
0.0666667 0.678431 0.513725 0.0666667 0.678431 0.513725 
0.0666667 0.678431 0.513725 0.0666667 0.678431 0.513725 
0.0666667 0.678431 0.513725 0.0666667 0.678431 0.513725 
0.0666667 0.678431 0.513725 0.0666667 0.678431 0.513725 
0.0666667 0.678431 0.513725 0.0666667 0.678431 0.513725 
0.0666667 0.678431 0.513725 0.0666667 0.678431 0.513725 
0.0666667 0.678431 0.513725 0.0666667 0.678431 0.513725 
0.0666667 0.678431 0.513725 0.0666667 0.678431 0.513725 
0.0666667 0.678431 0.513725 0.0666667 0.678431 0.513725 
0.0666667 0.678431 0.513725 0.0666667 0.678431 0.513725 
0.0666667 0.678431 0.513725 0.0666667 0.678431 0.513725 
0.0666667 0.678431 0.513725 0.0666667 0.678431 0.513725 
0.0666667 0.678431 0.513725 0.0666667 0.678431 0.513725 
0.0666667 0.678431 0.513725 0.0666667 0.678431 0.513725 
0.0666667 0.678431 0.513725 0.0666667 0.678431 0.513725 
0.0666667 0.678431 0.513725 0.0666667 0.678431 0.513725 
0.0666667 0.678431 0.513725 0.0666667 0.678431 0.513725 
0.0666667 0.678431 0.513725 0.0666667 0.678431 0.513725 
0.0666667 0.678431 0.513725 0.0666667 0.678431 0.513725 
0.0666667 0.678431 0.513725 0.0666667 0.678431 0.513725 
0.0666667 0.678431 0.513725 0.0666667 0.678431 0.513725 
0.0666667 0.678431 0.513725 0.0666667 0.678431 0.513725 
0.0666667 0.678431 0.513725 0.0666667 0.678431 0.513725 
0.0666667 0.678431 0.513725 0.0666667 0.678431 0.513725 
0.0666667 0.678431 0.513725 0.0666667 0.678431 0.513725 
0.0666667 0.678431 0.513725 0.0666667 0.678431 0.513725 
0.0666667 0.678431 0.513725 0.0666667 0.678431 0.513725 
0.0666667 0.678431 0.513725 0.0666667 0.678431 0.513725 
0.0666667 0.678431 0.513725 0.0666667 0.678431 0.513725 
0.0666667 0.678431 0.513725 0.0666667 0.678431 0.513725 
0.0666667 0.678431 0.513725 0.0666667 0.678431 0.513725 
0.0666667 0.678431 0.513725 0.0666667 0.678431 0.513725 
0.0666667 0.678431 0.513725 0.0666667 0.678431 0.513725 
0.0666667 0.678431 0.513725 0.0666667 0.678431 0.513725 
0.0666667 0.678431 0.513725 0.0666667 0.678431 0.513725 
0.0666667 0.678431 0.513725 0.0666667 0.678431 0.513725 
0.0666667 0.678431 0.513725 0.0666667 0.678431 0.513725 
0.0666667 0.678431 0.513725 0.0666667 0.678431 0.513725 
0.0666667 0.678431 0.513725 0.0666667 0.678431 0.513725 
0.0666667 0.678431 0.513725 0.0666667 0.678431 0.513725 
0.0666667 0.678431 0.513725 0.0666667 0.678431 0.513725 
0.0666667 0.678431 0.513725 0.0666667 0.678431 0.513725 
0.0666667 0.678431 0.513725 0.0666667 0.678431 0.513725 
0.0666667 0.678431 0.513725 0.0666667 0.678431 0.513725 
0.0666667 0.678431 0.513725 0.0666667 0.678431 0.513725 
0.0666667 0.678431 0.513725 0.0666667 0.678431 0.513725 
0.0666667 0.678431 0.513725 0.0666667 0.678431 0.513725 
0.0666667 0.678431 0.513725 0.0666667 0.678431 0.513725 
0.0666667 0.678431 0.513725 0.0666667 0.678431 0.513725 
0.0666667 0.678431 0.513725 0.0666667 0.678431 0.513725 
0.0666667 0.678431 0.513725 0.0666667 0.678431 0.513725 
0.0666667 0.678431 0.513725 0.0666667 0.678431 0.513725 
0.0666667 0.678431 0.513725 0.0666667 0.678431 0.513725 
0.0666667 0.678431 0.513725 0.0666667 0.678431 0.513725 
0.0666667 0.678431 0.513725 0.0666667 0.678431 0.513725 
0.0666667 0.678431 0.513725 0.0666667 0.678431 0.513725 
0.0666667 0.678431 0.513725 0.0666667 0.678431 0.513725 
0.0666667 0.678431 0.513725 0.0666667 0.678431 0.513725 
0.0666667 0.678431 0.513725 0.0666667 0.678431 0.513725 
0.0666667 0.678431 0.513725 0.0666667 0.678431 0.513725 
0.0666667 0.678431 0.513725 0.0666667 0.678431 0.513725 
0.0666667 0.678431 0.513725 0.0666667 0.678431 0.513725 
0.0666667 0.678431 0.513725 0.0666667 0.678431 0.513725 
0.0666667 0.678431 0.513725 0.0666667 0.678431 0.513725 
0.0666667 0.678431 0.513725 0.0666667 0.678431 0.513725 
0.0666667 0.678431 0.513725 0.0666667 0.678431 0.513725 
0.0666667 0.678431 0.513725 0.0666667 0.678431 0.513725 
0.0666667 0.678431 0.513725 0.0666667 0.678431 0.513725 
0.0666667 0.678431 0.513725 0.0666667 0.678431 0.513725 
0.0666667 0.678431 0.513725 0.0666667 0.678431 0.513725 
0.0666667 0.678431 0.513725 0.0666667 0.678431 0.513725 
0.0666667 0.678431 0.513725 0.0666667 0.678431 0.513725 
0.0666667 0.678431 0.513725 0.0666667 0.678431 0.513725 
0.0666667 0.678431 0.513725 0.0666667 0.678431 0.513725 
0.0666667 0.678431 0.513725 0.0666667 0.678431 0.513725 
0.0666667 0.678431 0.513725 0.0666667 0.678431 0.513725 
0.0666667 0.678431 0.513725 0.0666667 0.678431 0.513725 
0.0666667 0.678431 0.513725 0.0666667 0.678431 0.513725 
0.0666667 0.678431 0.513725 0.0666667 0.678431 0.513725 
0.0666667 0.678431 0.513725 0.0666667 0.678431 0.513725 
0.0666667 0.678431 0.513725 0.0666667 0.678431 0.513725 
0.0666667 0.678431 0.513725 0.0666667 0.678431 0.513725 
0.0666667 0.678431 0.513725 0.0666667 0.678431 0.513725 
0.0666667 0.678431 0.513725 0.0666667 0.678431 0.513725 
0.0666667 0.678431 0.513725 0.0666667 0.678431 0.513725 
0.0666667 0.678431 0.513725 0.0666667 0.678431 0.513725 
0.0666667 0.678431 0.513725 0.0666667 0.678431 0.513725 
0.0666667 0.678431 0.513725 0.0666667 0.678431 0.513725 
0.0666667 0.678431 0.513725 0.0666667 0.678431 0.513725 
0.0666667 0.678431 0.513725 0.0666667 0.678431 0.513725 
0.0666667 0.678431 0.513725 0.0666667 0.678431 0.513725 
0.0666667 0.678431 0.513725 0.0666667 0.678431 0.513725 
0.0666667 0.678431 0.513725 0.0666667 0.678431 0.513725 
0.0666667 0.678431 0.513725 0.0666667 0.678431 0.513725 
0.0666667 0.678431 0.513725 0.0666667 0.678431 0.513725 
0.0666667 0.678431 0.513725 0.0666667 0.678431 0.513725 
0.0666667 0.678431 0.513725 0.0666667 0.678431 0.513725 
0.0666667 0.678431 0.513725 0.0666667 0.678431 0.513725 
0.0666667 0.678431 0.513725 0.0666667 0.678431 0.513725 
0.0666667 0.678431 0.513725 0.0666667 0.678431 0.513725 
0.0666667 0.678431 0.513725 0.0666667 0.678431 0.513725 
0.0666667 0.678431 0.513725 0.0666667 0.678431 0.513725 
0.0666667 0.678431 0.513725 0.0666667 0.678431 0.513725 
0.0666667 0.678431 0.513725 0.0666667 0.678431 0.513725 
0.0666667 0.678431 0.513725 0.0666667 0.678431 0.513725 
0.0666667 0.678431 0.513725 0.0666667 0.678431 0.513725 
0.0666667 0.678431 0.513725 0.0666667 0.678431 0.513725 
0.0666667 0.678431 0.513725 0.0666667 0.678431 0.513725 
0.0666667 0.678431 0.513725 0.0666667 0.678431 0.513725 
0.0666667 0.678431 0.513725 0.0666667 0.678431 0.513725 
0.0666667 0.678431 0.513725 0.0666667 0.678431 0.513725 
0.0666667 0.678431 0.513725 0.0666667 0.678431 0.513725 
0.0666667 0.678431 0.513725 0.0666667 0.678431 0.513725 
0.0666667 0.678431 0.513725 0.0666667 0.678431 0.513725 
0.0666667 0.678431 0.513725 0.0666667 0.678431 0.513725 
0.0666667 0.678431 0.513725 0.0666667 0.678431 0.513725 
0.0666667 0.678431 0.513725 0.0666667 0.678431 0.513725 
0.0666667 0.678431 0.513725 0.0666667 0.678431 0.513725 
0.0666667 0.678431 0.513725 0.0666667 0.678431 0.513725 
0.0666667 0.678431 0.513725 0.0666667 0.678431 0.513725 
0.0666667 0.678431 0.513725 0.0666667 0.678431 0.513725 
0.0666667 0.678431 0.513725 0.0666667 0.678431 0.513725 
0.0666667 0.678431 0.513725 0.0666667 0.678431 0.513725 
0.0666667 0.678431 0.513725 0.0666667 0.678431 0.513725 
0.0666667 0.678431 0.513725 0.0666667 0.678431 0.513725 
0.0666667 0.678431 0.513725 0.0666667 0.678431 0.513725 
0.0666667 0.678431 0.513725 0.0666667 0.678431 0.513725 
0.0666667 0.678431 0.513725 0.0666667 0.678431 0.513725 
0.0666667 0.678431 0.513725 0.0666667 0.678431 0.513725 
0.0666667 0.678431 0.513725 0.0666667 0.678431 0.513725 
0.0666667 0.678431 0.513725 0.0666667 0.678431 0.513725 
0.0666667 0.678431 0.513725 0.0666667 0.678431 0.513725 
0.0666667 0.678431 0.513725 0.0666667 0.678431 0.513725 
0.0666667 0.678431 0.513725 0.0666667 0.678431 0.513725 
0.0666667 0.678431 0.513725 0.0666667 0.678431 0.513725 
0.0666667 0.678431 0.513725 0.0666667 0.678431 0.513725 
0.0666667 0.678431 0.513725 0.0666667 0.678431 0.513725 
0.0666667 0.678431 0.513725 0.0666667 0.678431 0.513725 
0.0666667 0.678431 0.513725 0.0666667 0.678431 0.513725 
0.0666667 0.678431 0.513725 0.0666667 0.678431 0.513725 
0.0666667 0.678431 0.513725 0.0666667 0.678431 0.513725 
0.0666667 0.678431 0.513725 0.0666667 0.678431 0.513725 