# vtk DataFile Version 4.2
vtk output
ASCII
DATASET POLYDATA
POINTS 1536 float
276.367 149.827 26.3529 276.326 149.701 26.4346 276.219 149.827 26.3591 
276.437 149.705 26.4779 276.184 150.121 26.2548 275.984 149.982 26.3899 
275.574 150.965 26.0625 274.97 151.198 26.1451 276.037 150.67 26.119 
276.578 150.179 26.4517 275.906 151.344 25.9772 273.894 153.788 25.518 
276.658 152.926 26.2584 276.156 155.298 25.7726 275.549 156.663 25.4093 
273.352 159.319 24.9702 276.483 158.91 26.0059 275.324 161.451 25.3032 
274.644 162.734 25.091 273.937 168.014 24.8868 275.197 168.387 25.3192 
276.135 167.561 26.1248 272.235 170.347 24.7372 275.708 169.003 25.6712 
276.092 170.564 26.1014 275.137 173.319 25.3089 276.071 173.537 26.1187 
275.104 175.261 25.3611 276.058 175.502 26.1736 275.036 177.173 25.4618 
276.043 176.476 26.2205 276.363 149.657 26.6104 274.075 151.162 26.6671 
276.847 150.935 26.7152 277.024 153.321 26.6632 270.469 155.156 26.3518 
277.025 155.413 26.5904 276.938 158.617 26.5796 270.111 161.122 25.2903 
276.72 161.195 26.4104 265.599 173.353 25.5209 276.349 172.062 26.6102 
276.345 175.03 26.6681 274.798 181.019 25.9693 275.919 181.878 26.924 
272.269 183.11 25.8603 274.493 150.679 27.0788 275.024 150.324 27.2446 
270.071 154.031 27.6139 277.369 154.309 27.1748 263.929 159.72 27.312 
277.217 158.774 27.1599 277.342 158.337 27.704 276.967 160.718 26.8184 
276.578 166.442 27.2115 276.486 175.476 27.2383 276.491 177.367 27.3195 
276.554 184.306 27.7252 276.336 185.648 27.6354 275.752 186.332 27.4192 
266.596 187.266 26.824 273.955 187.758 27.2863 276.539 149.718 27.1775 
276.715 149.883 27.3783 276.166 149.882 27.6804 275.522 150.093 27.5943 
275.009 150.367 27.7365 270.474 153.469 28.2922 269.48 154.161 28.4451 
267.73 155.401 28.6003 267.226 155.905 28.2636 266.554 156.289 28.5077 
264.485 157.647 28.674 261.677 159.496 28.8809 277.274 159.2 28.0954 
259.577 163.471 27.5823 276.807 163.753 27.6779 276.598 165.749 27.7993 
276.446 171.894 27.7317 276.512 176.792 27.8223 276.765 184.196 28.03 
276.934 184.425 28.4084 276.894 185.67 28.3503 276.575 187.387 28.4064 
276.897 187.062 28.7181 275.927 188.27 28.3252 270.54 189.626 27.6625 
274.288 189.095 28.0861 274.876 189.484 28.6366 276.444 188.789 29.289 
275.107 189.824 29.1279 277.022 149.893 28.5111 277.067 149.987 28.5639 
276.286 150.03 28.2373 276.743 149.957 28.0303 277.066 150.393 28.0864 
272.979 151.745 28.8275 274.207 151.225 28.7707 266.429 156.195 29.1559 
260.824 159.678 29.6177 277.165 158.679 28.7122 277.083 161.148 28.1 
277.059 160.591 28.5384 257.004 162.865 29.2863 256.456 162.973 29.6389 
257.475 162.221 29.6741 276.904 162.13 28.2655 256.857 163.376 28.9284 
276.639 163.909 28.3003 251.818 166.398 29.7482 276.377 166.03 28.4303 
251.275 167.719 29.1991 250.409 168.052 29.3936 251.512 169.344 28.6011 
276.281 171.239 28.2805 248.663 175.398 28.6267 249.492 182.155 28.6986 
276.901 183.93 28.6337 277.104 185.171 29.0852 277.017 187.277 29.2303 
276.699 188.545 29.6059 264.564 191.545 28.5198 272.792 190.941 29.408 
277.01 149.941 28.61 276.903 149.912 28.476 277.029 150.116 28.6664 
276.322 150.219 28.5876 276.647 150.041 28.4907 275.432 150.766 28.7332 
269.761 154.137 29.4799 267.692 155.496 29.8427 267.046 155.794 29.5105 
268.419 154.997 29.5679 265.837 156.614 30.0545 264.007 157.697 29.4231 
263.959 157.779 29.9378 260.634 159.713 30.0206 276.709 161.308 29.0626 
256.235 162.822 30.3722 276.106 165.183 28.9775 249.886 167.049 30.3486 
249.8 166.731 30.8089 275.914 166.958 29.0971 275.438 167.829 29.4785 
274.513 168.507 29.9959 276.074 168.787 28.7536 245.829 170.653 30.0954 
247.32 171.155 29.4142 275.987 170.546 28.7921 275.252 173.9 29.6513 
275.59 174.312 29.4181 275.957 174.452 28.9958 277.006 185.474 29.9035 
277.1 186.664 29.5592 276.856 188.179 29.9857 276.628 188.789 30.1347 
276.3 189.315 30.2737 272.224 191.395 30.1581 273.626 190.91 30.4497 
269.841 192.029 29.8963 256.199 193.771 30.102 269.151 192.278 30.1278 
257.954 194.353 30.4435 260.876 193.874 30.1723 276.902 150.296 28.7662 
276.414 150.95 29.0094 274.402 152.614 29.8932 276.332 151.642 29.2268 
271.164 153.634 29.7707 276.29 153.21 29.5771 275.138 154.599 30.2898 
270.021 154.903 30.3302 275.041 156.316 30.4752 265.428 157.151 30.6299 
261.936 159.01 30.5061 275.536 157.858 30.2907 259.561 160.435 30.549 
259.999 160.148 30.5315 276.483 159.147 29.6221 276.346 160.999 29.4923 
254.902 163.69 31.2997 249.357 166.914 30.9438 250.232 166.358 31.2206 
272.086 166.051 30.8397 245.452 169.179 31.4864 244.024 169.775 31.9588 
243.493 170.209 31.7033 245.127 169.72 31.0744 245.765 169.683 30.6883 
272.871 168.671 30.5428 241.551 171.286 31.8592 243.339 170.78 31.2545 
264.739 170.562 31.5541 240.566 172.338 31.6273 240.315 173.091 31.3616 
273.754 172.72 30.2795 271.768 177.801 30.9189 274.288 178.615 30.3699 
275.568 180.423 29.8496 276.759 185.191 30.3062 276.977 186.988 30.1938 
275.331 190.043 30.9602 275.849 189.726 30.9592 276.189 189.446 30.7737 
271.523 191.631 30.8297 272.789 191.12 31.1401 269.846 192.147 30.9705 
269.689 192.195 30.3992 249.354 193.887 31.0777 266.028 193.242 30.9303 
252.383 194.266 30.8285 252.062 195.255 31.483 255.87 194.967 31.1109 
256.68 195.363 31.7183 258.497 195.118 31.5334 267.198 156.07 30.5145 
267.612 156.041 30.7007 268.189 155.824 30.6584 266.06 156.948 30.8087 
269.16 156.834 31.3045 270.193 157.481 31.3733 262.348 158.841 30.7461 
264.521 158.226 31.1264 261.106 159.552 30.7896 262.347 159.127 31.055 
259.758 160.379 30.811 258.145 161.599 31.0665 259.8 160.581 31.165 
266.712 160.697 31.9988 257.54 162.3 31.562 256.847 162.551 31.2452 
254.406 163.994 31.4422 250.21 166.298 31.7058 247.306 167.937 32.0514 
244.741 169.339 32.3416 240.079 172.09 32.0606 240.734 171.245 32.5577 
237.859 173.226 32.5293 239.214 172.924 31.9402 238.884 173.52 31.8099 
238.598 174.299 31.6534 238.386 175.162 31.5146 259.577 176.688 32.4113 
274.29 184.637 31.7055 275.598 184.577 31.1472 276.57 186.04 30.811 
276.812 186.498 30.5588 274.927 189.943 31.5279 276.044 189.451 31.1772 
271.512 191.292 31.8352 248.494 195.303 31.9826 259.167 195.142 31.7617 
248.906 196.114 32.5953 252.19 195.666 31.9291 256.633 195.696 32.5392 
257.787 195.412 32.193 254.695 195.928 32.3135 267.277 156.902 31.1922 
267.89 156.762 31.2446 266.857 158.349 31.6937 262.45 160.446 31.985 
261.128 160.161 31.5009 260.63 162.908 32.5898 255.777 163.805 32.1987 
256.356 163.353 32.0012 253.672 164.925 32.3691 251.052 166.047 32.3193 
258.527 166.453 32.929 249.867 166.677 32.2761 245.869 168.799 32.6256 
243.635 169.821 33.0571 245.387 169.165 32.8641 241.171 170.883 32.8236 
238.527 172.204 33.1248 234.309 174.488 33.5161 232.119 176.926 33.2048 
231.929 178.619 33.0033 255.403 181.531 33.5774 276.089 185.894 31.1909 
275.765 187.446 31.6742 271.796 188.313 32.8571 274.836 188.103 32.1602 
275.253 188.669 31.9951 276.171 189.102 31.3351 274.243 189.901 31.9022 
275.828 189.347 31.5147 271.312 191.089 32.2459 272.938 190.532 31.9035 
267.866 192.44 32.1461 261.567 194.223 33.1148 259.709 195.048 32.4977 
254.125 196.159 33.6019 256.738 195.723 33.1733 258.135 195.417 32.9682 
248.79 196.482 33.0543 251.592 196.367 33.2848 248.949 196.802 33.5835 
257.29 163.204 32.2491 258.011 163.48 32.5429 255.061 164.818 32.7051 
252.089 165.908 32.7614 253.966 165.498 32.8443 252.991 166.061 33.0319 
255.891 165.235 32.9146 253.335 166.592 33.2204 244.154 169.815 33.367 
246.135 169.217 33.277 241.673 170.676 33.557 238.446 172.088 33.5194 
238.744 171.929 33.7557 240.452 171.307 33.662 230.539 175.353 34.7201 
231.132 175.95 33.9489 270.329 189.449 33.1143 275.955 189.02 31.5944 
270.731 190.046 32.9715 271.502 190.502 32.595 267.229 191.804 33.0645 
267.432 192.26 32.627 258.043 195.344 33.5605 240.046 196.459 34.3434 
255.497 195.886 33.7684 241.227 196.691 34.3965 254.28 164.845 32.6904 
242.856 170.298 33.6443 246.352 169.893 33.7817 241.671 170.904 33.9087 
239.303 171.951 34.3145 238.748 172.011 34.1157 235.357 173.565 34.743 
245.418 174.253 34.8822 225.739 176.472 35.9985 229.735 175.263 35.4266 
258.774 194.681 34.2408 237.601 195.618 34.4445 256.297 195.453 34.3689 
257.651 195.324 33.9146 251.695 196.222 35.1384 252.757 196.086 34.8808 
237.744 196.918 35.1489 248.996 196.977 34.3074 249.822 196.797 34.7754 
238.805 197.609 35.623 239.088 197.373 35.3158 240.081 197.793 35.7988 
242.904 170.625 34.0192 243.633 170.572 34.0981 239.482 172.234 34.688 
240.357 172.373 34.8427 242.17 171.733 34.6002 229.536 175.222 35.934 
222.876 178.248 36.1166 257.791 192.342 35.5136 259.376 192.439 35.0971 
258.452 194.443 34.6389 257.914 194.379 34.8638 254.354 195.343 35.3245 
253.852 195.454 35.424 256.301 194.805 35.0389 235.689 196.402 35.4477 
248.237 196.787 35.7619 248.7 196.489 36.037 249.711 196.346 35.8097 
253.28 195.696 35.3511 234.964 197.435 36.621 236.828 197.771 36.5009 
240.544 197.822 35.9308 238.806 197.831 36.0762 238.818 172.593 34.9225 
233.57 174.311 35.864 235.403 174.448 35.9334 230.159 174.977 36.0268 
230.486 174.945 36.2353 225.824 175.989 37.1458 225.345 176.12 36.8912 
227.468 175.812 36.8886 225.508 191.207 36.7732 253.383 193.637 36.1869 
259.01 193.313 35.0642 252.204 194.326 36.4602 252.97 194.707 36.1284 
252.301 194.639 36.3856 257.415 193.902 35.2213 252.526 195.237 36.0441 
251.842 195.285 36.1699 253.116 195.148 35.9843 253.334 195.286 35.7817 
252.921 195.435 35.8187 246.118 196.761 36.6502 235.187 197.834 37.1602 
235.853 197.979 37.358 239.957 197.983 36.4325 240.619 197.888 37.038 
231.374 175.19 36.6728 232.261 175.382 36.7964 225.616 176.072 37.4732 
229.954 175.415 36.7979 231.603 176.236 37.4 219.863 177.121 38.5276 
222.588 176.756 38.0444 224.322 176.453 37.7698 218.847 177.891 38.1225 
217.039 180.381 38.0601 234.276 179.936 37.7522 246.647 193.361 37.6981 
251.229 194.86 36.523 253.105 195.293 35.921 245.114 195.938 37.7025 
247.15 195.835 37.1287 247.375 196.346 36.698 248.827 195.621 36.8129 
[...]
POINT_DATA 1536
COLOR_SCALARS scalars 3
0.0666667 0.678431 0.513725 0.0666667 0.678431 0.513725 0.0666667 0.678431 0.513725 
0.0666667 0.678431 0.513725 0.0666667 0.678431 0.513725 
0.0666667 0.678431 0.513725 0.0666667 0.678431 0.513725 
0.0666667 0.678431 0.513725 0.0666667 0.678431 0.513725 
0.0666667 0.678431 0.513725 0.0666667 0.678431 0.513725 
0.0666667 0.678431 0.513725 0.0666667 0.678431 0.513725 
0.0666667 0.678431 0.513725 0.0666667 0.678431 0.513725 
0.0666667 0.678431 0.513725 0.0666667 0.678431 0.513725 
0.0666667 0.678431 0.513725 0.0666667 0.678431 0.513725 
0.0666667 0.678431 0.513725 0.0666667 0.678431 0.513725 
0.0666667 0.678431 0.513725 0.0666667 0.678431 0.513725 
0.0666667 0.678431 0.513725 0.0666667 0.678431 0.513725 
0.0666667 0.678431 0.513725 0.0666667 0.678431 0.513725 
0.0666667 0.678431 0.513725 0.0666667 0.678431 0.513725 
0.0666667 0.678431 0.513725 0.0666667 0.678431 0.513725 
0.0666667 0.678431 0.513725 0.0666667 0.678431 0.513725 
0.0666667 0.678431 0.513725 0.0666667 0.678431 0.513725 
0.0666667 0.678431 0.513725 0.0666667 0.678431 0.513725 
0.0666667 0.678431 0.513725 0.0666667 0.678431 0.513725 
0.0666667 0.678431 0.513725 0.0666667 0.678431 0.513725 
0.0666667 0.678431 0.513725 0.0666667 0.678431 0.513725 
0.0666667 0.678431 0.513725 0.0666667 0.678431 0.513725 
0.0666667 0.678431 0.513725 0.0666667 0.678431 0.513725 
0.0666667 0.678431 0.513725 0.0666667 0.678431 0.513725 
0.0666667 0.678431 0.513725 0.0666667 0.678431 0.513725 
0.0666667 0.678431 0.513725 0.0666667 0.678431 0.513725 
0.0666667 0.678431 0.513725 0.0666667 0.678431 0.513725 
0.0666667 0.678431 0.513725 0.0666667 0.678431 0.513725 
0.0666667 0.678431 0.513725 0.0666667 0.678431 0.513725 
0.0666667 0.678431 0.513725 0.0666667 0.678431 0.513725 
0.0666667 0.678431 0.513725 0.0666667 0.678431 0.513725 
0.0666667 0.678431 0.513725 0.0666667 0.678431 0.513725 
0.0666667 0.678431 0.513725 0.0666667 0.678431 0.513725 
0.0666667 0.678431 0.513725 0.0666667 0.678431 0.513725 
0.0666667 0.678431 0.513725 0.0666667 0.678431 0.513725 
0.0666667 0.678431 0.513725 0.0666667 0.678431 0.513725 
0.0666667 0.678431 0.513725 0.0666667 0.678431 0.513725 
0.0666667 0.678431 0.513725 0.0666667 0.678431 0.513725 
0.0666667 0.678431 0.513725 0.0666667 0.678431 0.513725 
0.0666667 0.678431 0.513725 0.0666667 0.678431 0.513725 
0.0666667 0.678431 0.513725 0.0666667 0.678431 0.513725 
0.0666667 0.678431 0.513725 0.0666667 0.678431 0.513725 
0.0666667 0.678431 0.513725 0.0666667 0.678431 0.513725 
0.0666667 0.678431 0.513725 0.0666667 0.678431 0.513725 
0.0666667 0.678431 0.513725 0.0666667 0.678431 0.513725 
0.0666667 0.678431 0.513725 0.0666667 0.678431 0.513725 
0.0666667 0.678431 0.513725 0.0666667 0.678431 0.513725 
0.0666667 0.678431 0.513725 0.0666667 0.678431 0.513725 
0.0666667 0.678431 0.513725 0.0666667 0.678431 0.513725 
0.0666667 0.678431 0.513725 0.0666667 0.678431 0.513725 
0.0666667 0.678431 0.513725 0.0666667 0.678431 0.513725 
0.0666667 0.678431 0.513725 0.0666667 0.678431 0.513725 
0.0666667 0.678431 0.513725 0.0666667 0.678431 0.513725 
0.0666667 0.678431 0.513725 0.0666667 0.678431 0.513725 
0.0666667 0.678431 0.513725 0.0666667 0.678431 0.513725 
0.0666667 0.678431 0.513725 0.0666667 0.678431 0.513725 
0.0666667 0.678431 0.513725 0.0666667 0.678431 0.513725 
0.0666667 0.678431 0.513725 0.0666667 0.678431 0.513725 
0.0666667 0.678431 0.513725 0.0666667 0.678431 0.513725 
0.0666667 0.678431 0.513725 0.0666667 0.678431 0.513725 
0.0666667 0.678431 0.513725 0.0666667 0.678431 0.513725 
0.0666667 0.678431 0.513725 0.0666667 0.678431 0.513725 
0.0666667 0.678431 0.513725 0.0666667 0.678431 0.513725 
0.0666667 0.678431 0.513725 0.0666667 0.678431 0.513725 
0.0666667 0.678431 0.513725 0.0666667 0.678431 0.513725 
0.0666667 0.678431 0.513725 0.0666667 0.678431 0.513725 
0.0666667 0.678431 0.513725 0.0666667 0.678431 0.513725 
0.0666667 0.678431 0.513725 0.0666667 0.678431 0.513725 
0.0666667 0.678431 0.513725 0.0666667 0.678431 0.513725 
0.0666667 0.678431 0.513725 0.0666667 0.678431 0.513725 
0.0666667 0.678431 0.513725 0.0666667 0.678431 0.513725 
0.0666667 0.678431 0.513725 0.0666667 0.678431 0.513725 
0.0666667 0.678431 0.513725 0.0666667 0.678431 0.513725 
0.0666667 0.678431 0.513725 0.0666667 0.678431 0.513725 
0.0666667 0.678431 0.513725 0.0666667 0.678431 0.513725 
0.0666667 0.678431 0.513725 0.0666667 0.678431 0.513725 
0.0666667 0.678431 0.513725 0.0666667 0.678431 0.513725 
0.0666667 0.678431 0.513725 0.0666667 0.678431 0.513725 
0.0666667 0.678431 0.513725 0.0666667 0.678431 0.513725 
0.0666667 0.678431 0.513725 0.0666667 0.678431 0.513725 
0.0666667 0.678431 0.513725 0.0666667 0.678431 0.513725 
0.0666667 0.678431 0.513725 0.0666667 0.678431 0.513725 
0.0666667 0.678431 0.513725 0.0666667 0.678431 0.513725 
0.0666667 0.678431 0.513725 0.0666667 0.678431 0.513725 
0.0666667 0.678431 0.513725 0.0666667 0.678431 0.513725 
0.0666667 0.678431 0.513725 0.0666667 0.678431 0.513725 
0.0666667 0.678431 0.513725 0.0666667 0.678431 0.513725 
0.0666667 0.678431 0.513725 0.0666667 0.678431 0.513725 
0.0666667 0.678431 0.513725 0.0666667 0.678431 0.513725 
0.0666667 0.678431 0.513725 0.0666667 0.678431 0.513725 
0.0666667 0.678431 0.513725 0.0666667 0.678431 0.513725 
0.0666667 0.678431 0.513725 0.0666667 0.678431 0.513725 
0.0666667 0.678431 0.513725 0.0666667 0.678431 0.513725 
0.0666667 0.678431 0.513725 0.0666667 0.678431 0.513725 
0.0666667 0.678431 0.513725 0.0666667 0.678431 0.513725 
0.0666667 0.678431 0.513725 0.0666667 0.678431 0.513725 
0.0666667 0.678431 0.513725 0.0666667 0.678431 0.513725 
0.0666667 0.678431 0.513725 0.0666667 0.678431 0.513725 
0.0666667 0.678431 0.513725 0.0666667 0.678431 0.513725 
0.0666667 0.678431 0.513725 0.0666667 0.678431 0.513725 
0.0666667 0.678431 0.513725 0.0666667 0.678431 0.513725 
0.0666667 0.678431 0.513725 0.0666667 0.678431 0.513725 
0.0666667 0.678431 0.513725 0.0666667 0.678431 0.513725 
0.0666667 0.678431 0.513725 0.0666667 0.678431 0.513725 
0.0666667 0.678431 0.513725 0.0666667 0.678431 0.513725 
0.0666667 0.678431 0.513725 0.0666667 0.678431 0.513725 
0.0666667 0.678431 0.513725 0.0666667 0.678431 0.513725 
0.0666667 0.678431 0.513725 0.0666667 0.678431 0.513725 
0.0666667 0.678431 0.513725 0.0666667 0.678431 0.513725 
0.0666667 0.678431 0.513725 0.0666667 0.678431 0.513725 
0.0666667 0.678431 0.513725 0.0666667 0.678431 0.513725 
0.0666667 0.678431 0.513725 0.0666667 0.678431 0.513725 
0.0666667 0.678431 0.513725 0.0666667 0.678431 0.513725 
0.0666667 0.678431 0.513725 0.0666667 0.678431 0.513725 
0.0666667 0.678431 0.513725 0.0666667 0.678431 0.513725 
0.0666667 0.678431 0.513725 0.0666667 0.678431 0.513725 
0.0666667 0.678431 0.513725 0.0666667 0.678431 0.513725 
0.0666667 0.678431 0.513725 0.0666667 0.678431 0.513725 
0.0666667 0.678431 0.513725 0.0666667 0.678431 0.513725 
0.0666667 0.678431 0.513725 0.0666667 0.678431 0.513725 
0.0666667 0.678431 0.513725 0.0666667 0.678431 0.513725 
0.0666667 0.678431 0.513725 0.0666667 0.678431 0.513725 
0.0666667 0.678431 0.513725 0.0666667 0.678431 0.513725 
0.0666667 0.678431 0.513725 0.0666667 0.678431 0.513725 
0.0666667 0.678431 0.513725 0.0666667 0.678431 0.513725 
0.0666667 0.678431 0.513725 0.0666667 0.678431 0.513725 
0.0666667 0.678431 0.513725 0.0666667 0.678431 0.513725 
0.0666667 0.678431 0.513725 0.0666667 0.678431 0.513725 
0.0666667 0.678431 0.513725 0.0666667 0.678431 0.513725 
0.0666667 0.678431 0.513725 0.0666667 0.678431 0.513725 
0.0666667 0.678431 0.513725 0.0666667 0.678431 0.513725 
0.0666667 0.678431 0.513725 0.0666667 0.678431 0.513725 
0.0666667 0.678431 0.513725 0.0666667 0.678431 0.513725 
0.0666667 0.678431 0.513725 0.0666667 0.678431 0.513725 
0.0666667 0.678431 0.513725 0.0666667 0.678431 0.513725 
0.0666667 0.678431 0.513725 0.0666667 0.678431 0.513725 
0.0666667 0.678431 0.513725 0.0666667 0.678431 0.513725 
0.0666667 0.678431 0.513725 0.0666667 0.678431 0.513725 
0.0666667 0.678431 0.513725 0.0666667 0.678431 0.513725 
0.0666667 0.678431 0.513725 0.0666667 0.678431 0.513725 
0.0666667 0.678431 0.513725 0.0666667 0.678431 0.513725 
0.0666667 0.678431 0.513725 0.0666667 0.678431 0.513725 
0.0666667 0.678431 0.513725 0.0666667 0.678431 0.513725 
0.0666667 0.678431 0.513725 0.0666667 0.678431 0.513725 
0.0666667 0.678431 0.513725 0.0666667 0.678431 0.513725 
0.0666667 0.678431 0.513725 0.0666667 0.678431 0.513725 
0.0666667 0.678431 0.513725 0.0666667 0.678431 0.513725 
0.0666667 0.678431 0.513725 0.0666667 0.678431 0.513725 
0.0666667 0.678431 0.513725 0.0666667 0.678431 0.513725 
0.0666667 0.678431 0.513725 0.0666667 0.678431 0.513725 
0.0666667 0.678431 0.513725 0.0666667 0.678431 0.513725 
0.0666667 0.678431 0.513725 0.0666667 0.678431 0.513725 
0.0666667 0.678431 0.513725 0.0666667 0.678431 0.513725 
0.0666667 0.678431 0.513725 0.0666667 0.678431 0.513725 
0.0666667 0.678431 0.513725 0.0666667 0.678431 0.513725 
0.0666667 0.678431 0.513725 0.0666667 0.678431 0.513725 
0.0666667 0.678431 0.513725 0.0666667 0.678431 0.513725 
0.0666667 0.678431 0.513725 0.0666667 0.678431 0.513725 
0.0666667 0.678431 0.513725 0.0666667 0.678431 0.513725 
0.0666667 0.678431 0.513725 0.0666667 0.678431 0.513725 
0.0666667 0.678431 0.513725 0.0666667 0.678431 0.513725 
0.0666667 0.678431 0.513725 0.0666667 0.678431 0.513725 
0.0666667 0.678431 0.513725 0.0666667 0.678431 0.513725 
0.0666667 0.678431 0.513725 0.0666667 0.678431 0.513725 
0.0666667 0.678431 0.513725 0.0666667 0.678431 0.513725 
0.0666667 0.678431 0.513725 0.0666667 0.678431 0.513725 
0.0666667 0.678431 0.513725 0.0666667 0.678431 0.513725 
0.0666667 0.678431 0.513725 0.0666667 0.678431 0.513725 
0.0666667 0.678431 0.513725 0.0666667 0.678431 0.513725 
0.0666667 0.678431 0.513725 0.0666667 0.678431 0.513725 
0.0666667 0.678431 0.513725 0.0666667 0.678431 0.513725 
0.0666667 0.678431 0.513725 0.0666667 0.678431 0.513725 
0.0666667 0.678431 0.513725 0.0666667 0.678431 0.513725 
0.0666667 0.678431 0.513725 0.0666667 0.678431 0.513725 
0.0666667 0.678431 0.513725 0.0666667 0.678431 0.513725 
0.0666667 0.678431 0.513725 0.0666667 0.678431 0.513725 
0.0666667 0.678431 0.513725 0.0666667 0.678431 0.513725 
0.0666667 0.678431 0.513725 0.0666667 0.678431 0.513725 
0.0666667 0.678431 0.513725 0.0666667 0.678431 0.513725 
0.0666667 0.678431 0.513725 0.0666667 0.678431 0.513725 
0.0666667 0.678431 0.513725 0.0666667 0.678431 0.513725 
0.0666667 0.678431 0.513725 0.0666667 0.678431 0.513725 
0.0666667 0.678431 0.513725 0.0666667 0.678431 0.513725 
0.0666667 0.678431 0.513725 0.0666667 0.678431 0.513725 
0.0666667 0.678431 0.513725 0.0666667 0.678431 0.513725 
0.0666667 0.678431 0.513725 0.0666667 0.678431 0.513725 
0.0666667 0.678431 0.513725 0.0666667 0.678431 0.513725 
0.0666667 0.678431 0.513725 0.0666667 0.678431 0.513725 
0.0666667 0.678431 0.513725 0.0666667 0.678431 0.513725 
0.0666667 0.678431 0.513725 0.0666667 0.678431 0.513725 
0.0666667 0.678431 0.513725 0.0666667 0.678431 0.513725 
0.0666667 0.678431 0.513725 0.0666667 0.678431 0.513725 
0.0666667 0.678431 0.513725 0.0666667 0.678431 0.513725 
0.0666667 0.678431 0.513725 0.0666667 0.678431 0.513725 
0.0666667 0.678431 0.513725 0.0666667 0.678431 0.513725 
0.0666667 0.678431 0.513725 0.0666667 0.678431 0.513725 
0.0666667 0.678431 0.513725 0.0666667 0.678431 0.513725 
0.0666667 0.678431 0.513725 0.0666667 0.678431 0.513725 
0.0666667 0.678431 0.513725 0.0666667 0.678431 0.513725 
0.0666667 0.678431 0.513725 0.0666667 0.678431 0.513725 
0.0666667 0.678431 0.513725 0.0666667 0.678431 0.513725 
0.0666667 0.678431 0.513725 0.0666667 0.678431 0.513725 
0.0666667 0.678431 0.513725 0.0666667 0.678431 0.513725 
0.0666667 0.678431 0.513725 0.0666667 0.678431 0.513725 
0.0666667 0.678431 0.513725 0.0666667 0.678431 0.513725 
0.0666667 0.678431 0.513725 0.0666667 0.678431 0.513725 
0.0666667 0.678431 0.513725 0.0666667 0.678431 0.513725 
0.0666667 0.678431 0.513725 0.0666667 0.678431 0.513725 
0.0666667 0.678431 0.513725 0.0666667 0.678431 0.513725 
0.0666667 0.678431 0.513725 0.0666667 0.678431 0.513725 
0.0666667 0.678431 0.513725 0.0666667 0.678431 0.513725 
0.0666667 0.678431 0.513725 0.0666667 0.678431 0.513725 
0.0666667 0.678431 0.513725 0.0666667 0.678431 0.513725 
0.0666667 0.678431 0.513725 0.0666667 0.678431 0.513725 
0.0666667 0.678431 0.513725 0.0666667 0.678431 0.513725 
0.0666667 0.678431 0.513725 0.0666667 0.678431 0.513725 
0.0666667 0.678431 0.513725 0.0666667 0.678431 0.513725 
0.0666667 0.678431 0.513725 0.0666667 0.678431 0.513725 
0.0666667 0.678431 0.513725 0.0666667 0.678431 0.513725 
0.0666667 0.678431 0.513725 0.0666667 0.678431 0.513725 
0.0666667 0.678431 0.513725 0.0666667 0.678431 0.513725 
0.0666667 0.678431 0.513725 0.0666667 0.678431 0.513725 
0.0666667 0.678431 0.513725 0.0666667 0.678431 0.513725 
0.0666667 0.678431 0.513725 0.0666667 0.678431 0.513725 
0.0666667 0.678431 0.513725 0.0666667 0.678431 0.513725 
0.0666667 0.678431 0.513725 0.0666667 0.678431 0.513725 
0.0666667 0.678431 0.513725 0.0666667 0.678431 0.513725 
0.0666667 0.678431 0.513725 0.0666667 0.678431 0.513725 
0.0666667 0.678431 0.513725 0.0666667 0.678431 0.513725 
0.0666667 0.678431 0.513725 0.0666667 0.678431 0.513725 
0.0666667 0.678431 0.513725 0.0666667 0.678431 0.513725 
0.0666667 0.678431 0.513725 0.0666667 0.678431 0.513725 
0.0666667 0.678431 0.513725 0.0666667 0.678431 0.513725 
0.0666667 0.678431 0.513725 0.0666667 0.678431 0.513725 
0.0666667 0.678431 0.513725 0.0666667 0.678431 0.513725 
0.0666667 0.678431 0.513725 0.0666667 0.678431 0.513725 
0.0666667 0.678431 0.513725 0.0666667 0.678431 0.513725 
0.0666667 0.678431 0.513725 0.0666667 0.678431 0.513725 
0.0666667 0.678431 0.513725 0.0666667 0.678431 0.513725 
0.0666667 0.678431 0.513725 0.0666667 0.678431 0.513725 
0.0666667 0.678431 0.513725 0.0666667 0.678431 0.513725 
0.0666667 0.678431 0.513725 0.0666667 0.678431 0.513725 
0.0666667 0.678431 0.513725 0.0666667 0.678431 0.513725 
0.0666667 0.678431 0.513725 0.0666667 0.678431 0.513725 
0.0666667 0.678431 0.513725 0.0666667 0.678431 0.513725 
0.0666667 0.678431 0.513725 0.0666667 0.678431 0.513725 
0.0666667 0.678431 0.513725 0.0666667 0.678431 0.513725 
0.0666667 0.678431 0.513725 0.0666667 0.678431 0.513725 
0.0666667 0.678431 0.513725 0.0666667 0.678431 0.513725 
0.0666667 0.678431 0.513725 0.0666667 0.678431 0.513725 
0.0666667 0.678431 0.513725 0.0666667 0.678431 0.513725 
0.0666667 0.678431 0.513725 0.0666667 0.678431 0.513725 
0.0666667 0.678431 0.513725 0.0666667 0.678431 0.513725 
0.0666667 0.678431 0.513725 0.0666667 0.678431 0.513725 
0.0666667 0.678431 0.513725 0.0666667 0.678431 0.513725 
0.0666667 0.678431 0.513725 0.0666667 0.678431 0.513725 
0.0666667 0.678431 0.513725 0.0666667 0.678431 0.513725 
0.0666667 0.678431 0.513725 0.0666667 0.678431 0.513725 
0.0666667 0.678431 0.513725 0.0666667 0.678431 0.513725 
0.0666667 0.678431 0.513725 0.0666667 0.678431 0.513725 
0.0666667 0.678431 0.513725 0.0666667 0.678431 0.513725 
0.0666667 0.678431 0.513725 0.0666667 0.678431 0.513725 
0.0666667 0.678431 0.513725 0.0666667 0.678431 0.513725 
0.0666667 0.678431 0.513725 0.0666667 0.678431 0.513725 
0.0666667 0.678431 0.513725 0.0666667 0.678431 0.513725 
0.0666667 0.678431 0.513725 0.0666667 0.678431 0.513725 
0.0666667 0.678431 0.513725 0.0666667 0.678431 0.513725 
0.0666667 0.678431 0.513725 0.0666667 0.678431 0.513725 
0.0666667 0.678431 0.513725 0.0666667 0.678431 0.513725 
0.0666667 0.678431 0.513725 0.0666667 0.678431 0.513725 
0.0666667 0.678431 0.513725 0.0666667 0.678431 0.513725 
0.0666667 0.678431 0.513725 0.0666667 0.678431 0.513725 
0.0666667 0.678431 0.513725 0.0666667 0.678431 0.513725 
0.0666667 0.678431 0.513725 0.0666667 0.678431 0.513725 
0.0666667 0.678431 0.513725 0.0666667 0.678431 0.513725 
0.0666667 0.678431 0.513725 0.0666667 0.678431 0.513725 
0.0666667 0.678431 0.513725 0.0666667 0.678431 0.513725 
0.0666667 0.678431 0.513725 0.0666667 0.678431 0.513725 
0.0666667 0.678431 0.513725 0.0666667 0.678431 0.513725 
0.0666667 0.678431 0.513725 0.0666667 0.678431 0.513725 
0.0666667 0.678431 0.513725 0.0666667 0.678431 0.513725 
0.0666667 0.678431 0.513725 0.0666667 0.678431 0.513725 
0.0666667 0.678431 0.513725 0.0666667 0.678431 0.513725 
0.0666667 0.678431 0.513725 0.0666667 0.678431 0.513725 
0.0666667 0.678431 0.513725 0.0666667 0.678431 0.513725 
0.0666667 0.678431 0.513725 0.0666667 0.678431 0.513725 
0.0666667 0.678431 0.513725 0.0666667 0.678431 0.513725 
0.0666667 0.678431 0.513725 0.0666667 0.678431 0.513725 
0.0666667 0.678431 0.513725 0.0666667 0.678431 0.513725 
0.0666667 0.678431 0.513725 0.0666667 0.678431 0.513725 
0.0666667 0.678431 0.513725 0.0666667 0.678431 0.513725 
0.0666667 0.678431 0.513725 0.0666667 0.678431 0.513725 
0.0666667 0.678431 0.513725 0.0666667 0.678431 0.513725 
0.0666667 0.678431 0.513725 0.0666667 0.678431 0.513725 
0.0666667 0.678431 0.513725 0.0666667 0.678431 0.513725 
0.0666667 0.678431 0.513725 0.0666667 0.678431 0.513725 
0.0666667 0.678431 0.513725 0.0666667 0.678431 0.513725 
0.0666667 0.678431 0.513725 0.0666667 0.678431 0.513725 
0.0666667 0.678431 0.513725 0.0666667 0.678431 0.513725 
0.0666667 0.678431 0.513725 0.0666667 0.678431 0.513725 
0.0666667 0.678431 0.513725 0.0666667 0.678431 0.513725 
0.0666667 0.678431 0.513725 0.0666667 0.678431 0.513725 
0.0666667 0.678431 0.513725 0.0666667 0.678431 0.513725 
0.0666667 0.678431 0.513725 0.0666667 0.678431 0.513725 
0.0666667 0.678431 0.513725 0.0666667 0.678431 0.513725 
0.0666667 0.678431 0.513725 0.0666667 0.678431 0.513725 
0.0666667 0.678431 0.513725 0.0666667 0.678431 0.513725 
0.0666667 0.678431 0.513725 0.0666667 0.678431 0.513725 
0.0666667 0.678431 0.513725 0.0666667 0.678431 0.513725 
0.0666667 0.678431 0.513725 0.0666667 0.678431 0.513725 
0.0666667 0.678431 0.513725 0.0666667 0.678431 0.513725 
0.0666667 0.678431 0.513725 0.0666667 0.678431 0.513725 
0.0666667 0.678431 0.513725 0.0666667 0.678431 0.513725 
0.0666667 0.678431 0.513725 0.0666667 0.678431 0.513725 
0.0666667 0.678431 0.513725 0.0666667 0.678431 0.513725 
0.0666667 0.678431 0.513725 0.0666667 0.678431 0.513725 
0.0666667 0.678431 0.513725 0.0666667 0.678431 0.513725 
0.0666667 0.678431 0.513725 0.0666667 0.678431 0.513725 
0.0666667 0.678431 0.513725 0.0666667 0.678431 0.513725 
0.0666667 0.678431 0.513725 0.0666667 0.678431 0.513725 
0.0666667 0.678431 0.513725 0.0666667 0.678431 0.513725 
0.0666667 0.678431 0.513725 0.0666667 0.678431 0.513725 
0.0666667 0.678431 0.513725 0.0666667 0.678431 0.513725 
0.0666667 0.678431 0.513725 0.0666667 0.678431 0.513725 
0.0666667 0.678431 0.513725 0.0666667 0.678431 0.513725 
0.0666667 0.678431 0.513725 0.0666667 0.678431 0.513725 
0.0666667 0.678431 0.513725 0.0666667 0.678431 0.513725 
0.0666667 0.678431 0.513725 0.0666667 0.678431 0.513725 
0.0666667 0.678431 0.513725 0.0666667 0.678431 0.513725 
0.0666667 0.678431 0.513725 0.0666667 0.678431 0.513725 
0.0666667 0.678431 0.513725 0.0666667 0.678431 0.513725 
0.0666667 0.678431 0.513725 0.0666667 0.678431 0.513725 
0.0666667 0.678431 0.513725 0.0666667 0.678431 0.513725 
0.0666667 0.678431 0.513725 0.0666667 0.678431 0.513725 
0.0666667 0.678431 0.513725 0.0666667 0.678431 0.513725 
0.0666667 0.678431 0.513725 0.0666667 0.678431 0.513725 
0.0666667 0.678431 0.513725 0.0666667 0.678431 0.513725 
0.0666667 0.678431 0.513725 0.0666667 0.678431 0.513725 
0.0666667 0.678431 0.513725 0.0666667 0.678431 0.513725 
0.0666667 0.678431 0.513725 0.0666667 0.678431 0.513725 
0.0666667 0.678431 0.513725 0.0666667 0.678431 0.513725 
0.0666667 0.678431 0.513725 0.0666667 0.678431 0.513725 
0.0666667 0.678431 0.513725 0.0666667 0.678431 0.513725 
0.0666667 0.678431 0.513725 0.0666667 0.678431 0.513725 
0.0666667 0.678431 0.513725 0.0666667 0.678431 0.513725 
0.0666667 0.678431 0.513725 0.0666667 0.678431 0.513725 
0.0666667 0.678431 0.513725 0.0666667 0.678431 0.513725 
0.0666667 0.678431 0.513725 0.0666667 0.678431 0.513725 
0.0666667 0.678431 0.513725 0.0666667 0.678431 0.513725 