# vtk DataFile Version 4.2
vtk output
ASCII
DATASET POLYDATA
POINTS 890 float
348.132 71.6642 57.4604 348.011 71.6448 57.5073 348.197 71.8417 57.5177 
350.227 72.7281 57.2699 352.117 73.1964 57.1982 353.804 73.8947 57.1503 
355.99 74.9001 57.1122 357.909 75.964 57.0872 358.406 75.9203 57.1168 
359.976 77.1064 56.9616 359.864 77.8566 56.9846 361.118 77.1219 57.0177 
361.033 77.526 56.9618 363.14 78.9876 57.0782 365.047 79.9069 57.1093 
365.025 80.0476 57.1079 346.335 70.1114 58.7697 346.555 70.8948 58.3707 
348.381 71.1899 57.6535 347.122 71.525 57.9677 347.72 71.5193 57.7087 
351.689 71.8953 57.4938 352.952 73.1715 57.2482 351.102 73.7689 57.3376 
354.244 74.7635 57.2275 357.054 75.1889 57.1811 361.786 76.8488 57.2346 
362.991 78.2903 57.1366 358.246 78.4095 57.4703 364.799 78.744 57.3034 
361.968 79.6993 57.3203 365.869 80.3867 57.2893 367.123 80.2917 57.4396 
365.268 80.9835 57.3703 365.345 81.9568 57.7288 375.041 84.5656 57.987 
375.452 86.0946 58.2844 380.199 86.8747 58.4111 379.992 86.946 58.4261 
380.848 87.5164 58.6411 380.873 87.6526 58.6861 346.737 69.154 58.937 
347.112 69.124 58.8504 346.035 70.2226 59.0648 346.315 71.0432 58.595 
351.753 70.8696 58.055 357.401 73.6285 57.844 361.48 75.5779 57.8101 
362.907 81.6632 58.0706 377.029 85.0573 58.2333 376.57 84.4351 58.2469 
377.55 85.6747 58.2203 379.593 86.2675 58.419 377.787 87.0153 58.4847 
380.839 87.1745 58.6584 375.678 86.9555 58.6225 378.486 87.6895 58.7513 
378.965 87.2985 58.5582 379.959 87.3757 58.5967 381.362 87.5574 58.8963 
382.131 87.1182 59.1169 382.789 87.2731 59.6418 382.743 87.6335 59.7711 
345.773 69.2307 59.7349 345.694 69.9166 59.6754 359.708 73.368 58.7249 
348.276 75.4668 59.2584 357.6 79.8682 58.5607 382.387 86.8751 59.2635 
382.701 86.9699 59.5002 379.632 89.0268 59.6142 381.942 88.4794 59.7517 
346.633 67.0044 60.7457 345.892 67.8099 60.4758 348.316 67.3601 60.2013 
346.072 74.8303 60.4728 379.632 82.7137 60.0599 383.362 86.29 60.3543 
383.331 87.5998 60.6004 378.293 89.809 60.392 346.365 66.5908 61.2495 
346.206 66.2567 61.6978 357.227 69.9545 60.7511 344.587 73.3511 61.8995 
345.125 74.784 61.4543 384.65 85.4631 62.0052 384.611 86.0343 61.7 
384.526 86.4951 61.8466 370.896 87.946 60.6855 345.938 66.1029 62.1814 
347.182 65.4471 62.4681 345.262 75.7153 61.8488 384.69 85.9234 61.8791 
384.811 86.0867 62.2992 385.03 85.4287 62.6951 346.318 65.0919 63.1847 
346.096 65.0997 63.3322 346.078 65.2402 63.1065 346.252 65.0194 63.4859 
346.281 65.3252 62.8244 347.508 65.1053 63.2286 345.625 66.1684 62.6997 
350.762 66.0213 63.4418 359.481 69.4101 62.7838 361.914 70.4703 63.0556 
344.72 76.1864 63.1873 382.528 81.142 62.9792 385.375 85.2942 63.5061 
382.724 90.0314 63.5011 346.066 65.0923 63.5068 346.168 65.0531 63.6327 
345.709 65.7801 63.1814 346.419 65.0999 63.8088 345.477 66.2583 63.2404 
358.996 68.9907 63.3977 360.893 69.8248 63.4505 362.712 70.6413 63.8342 
363.282 70.916 63.9487 346.049 65.2317 63.6935 346.449 65.2701 64.2137 
346.27 65.4847 64.3956 346.887 65.2084 64.1847 347.335 65.4541 64.6722 
345.211 67.0039 64.0338 351.157 66.4181 64.9082 360.198 69.573 64.4394 
344.159 69.6177 65.1594 360.562 69.8691 64.9725 343.381 75.6832 65.8284 
377.381 76.9063 65.1243 379.133 77.6894 65.21 379.746 78.2216 64.6616 
386.174 82.3053 64.9902 386.64 82.6604 65.7907 386.461 83.4702 65.4727 
385.869 85.5727 65.5763 350.256 66.7473 65.9559 356.493 69.1271 66.4215 
358.622 69.3818 65.6798 360.55 70.3472 66.0316 369.402 73.883 65.844 
382.956 79.7065 65.6454 386.451 81.9896 66.1946 386.61 82.3225 66.1222 
386.718 83.061 66.3081 345.665 67.1623 65.6921 345.858 67.5359 66.5205 
347.494 67.018 66.7381 354.63 69.2006 67.2748 361.288 71.7901 67.5654 
373.532 75.9781 67.0145 379.87 78.0097 66.199 386.18 81.7344 66.3954 
386.662 82.5112 66.5475 377.232 94.9333 67.279 342.885 75.0277 67.9795 
386.292 81.8646 66.7768 386.191 81.8919 67.0589 344.234 81.1477 67.8536 
386.392 82.0611 66.9353 386.505 82.366 66.9421 386.19 84.0897 67.8209 
373.242 95.8884 68.2115 377.292 95.4148 68.1146 343.534 72.0074 68.8984 
383.823 81.1621 68.5557 385.548 82.4462 68.3755 386.161 83.7387 68.0448 
386.041 83.6221 68.2948 376.51 96.5123 69.8351 348.149 69.9299 69.8289 
342.722 76.0094 69.8444 380.585 80.974 70.1799 385.55 84.2151 69.3686 
346.275 84.8439 69.4186 378.756 95.0722 70.0326 373.587 97.5353 70.2968 
342.289 81.0711 71.7853 385.029 84.9875 70.0377 384.596 85.8364 70.725 
384.287 86.892 70.8561 374.644 97.5891 70.7316 375.467 97.7055 71.6515 
345.659 71.9732 71.743 342.153 79.11 72.172 383.321 84.4067 71.5826 
384.176 84.3162 70.8813 384.636 85.0694 70.6631 384.229 86.548 71.1514 
383.961 86.3894 71.5575 376.023 97.5095 71.9978 374.434 98.7081 72.8034 
346.804 73.1489 73.097 342.039 78.8269 72.9034 342.046 78.4957 73.2904 
383.496 87.3379 72.1285 382.415 89.8128 72.6925 382.534 89.2672 72.9897 
376.811 97.2165 73.3012 374.995 98.5027 73.1004 373.139 99.5116 73.2958 
342.899 76.0447 73.0269 349.423 74.6492 73.9804 380.204 85.3917 74.0702 
382.366 86.0313 73.189 383.127 87.1668 72.724 382.859 88.1955 72.9705 
382.56 88.7013 73.2928 373.99 99.5374 74.2009 374.669 99.181 74.5391 
372.277 100.818 74.8527 344.044 75.5026 74.591 342.538 77.1499 74.4226 
382.163 87.6965 73.9716 351.176 93.7891 75.1122 368.933 101.472 75.1503 
370.497 101.271 74.9133 344.147 75.9069 75.2879 342.935 76.9719 75.2654 
356.894 79.5207 76.3443 379.735 87.5101 75.7575 380.764 88.0494 75.3264 
380.915 88.4346 75.3396 381.122 88.6658 75.1761 381.359 89.1377 74.8849 
344.593 90.2061 75.598 362.647 100.253 75.9013 344.022 76.2894 75.6996 
344.749 77.1391 76.9931 341.962 88.4985 76.8902 379.579 92.8347 76.8803 
358.405 99.1381 76.9189 375.116 99.2702 77.1478 361.594 100.478 76.7019 
372.532 101.68 77.2137 368.343 103.588 77.9491 344.827 78.0639 77.8616 
377.579 88.8834 77.8879 379.508 89.3331 76.8842 341.578 89.0657 78.1826 
379.928 90.1872 76.743 346.908 93.3837 77.6248 379.401 93.0664 77.1553 
379.421 92.6616 77.3478 347.923 93.9143 77.479 378.707 93.9381 77.8192 
352.18 96.7482 77.938 376.342 97.7314 78.0182 355.921 98.5948 78.3271 
357.665 99.3663 78.07 360.762 100.66 77.4864 373.04 101.547 78.2402 
365.891 103.22 78.0813 342.849 79.0135 77.6406 343.811 78.9726 78.3898 
378.314 90.8163 78.5159 378.807 91.6475 78.2907 379.154 92.2912 77.8834 
342.894 91.3688 79.0951 345.387 92.888 78.413 378.775 92.9198 78.4131 
345.177 93.2724 79.6974 348.213 94.9311 79.1214 348.955 95.4278 79.312 
350.157 96.0551 79.647 351.859 96.8952 79.1534 357.291 99.4961 79.5266 
358.656 100.164 79.1533 373.729 100.946 78.9814 360.939 101.349 79.3974 
363.805 103.075 79.799 366.576 104.163 79.5861 342.007 80.7132 79.2122 
342.844 79.699 78.5287 341.36 82.0716 79.0685 341.079 89.4174 80.6337 
341.86 90.6665 79.821 378.407 92.8599 78.9331 377.798 94.1618 79.4552 
346.062 93.7578 80.1724 377.709 94.799 79.3174 348.117 95.008 79.8183 
348.226 95.049 80.0844 352.318 97.081 79.7421 357.559 99.5653 80.0507 
365.692 103.943 80.168 368.953 104.391 79.5241 367.79 104.625 80.2193 
367.81 104.726 80.7103 344.215 80.4618 80.0411 343.717 81.0864 80.5847 
341.27 90.5028 81.3241 341.441 90.7575 81.2825 374.769 91.4023 81.0504 
343.552 92.2147 81.0041 377.048 92.8875 80.4367 345.175 93.2827 80.6693 
345.374 93.2945 81.0078 377.395 94.193 80.1586 348.356 94.9557 80.5213 
349.062 95.1502 80.9135 363.988 102.949 81.0915 366.192 104.146 80.8991 
367.519 104.53 81.4474 367.799 104.718 81.1041 342.533 82.261 81.2883 
344.195 81.4761 81.1054 345.366 82.5079 82.0242 340.812 88.1953 82.3006 
341.351 90.5604 81.5922 341.635 90.9562 81.3387 376.446 93.0661 81.0973 
376.937 93.6084 80.8036 377.061 94.0397 80.6777 375.649 97.7745 81.5298 
358.11 98.8591 82.0191 362.744 101.766 81.9045 365.509 103.604 81.6198 
368.652 104.75 81.3684 341.207 84.9903 81.8795 340.84 87.978 83.4118 
340.844 88.278 82.9863 343.713 90.9109 83.4959 341.721 90.9408 81.6035 
349.491 93.1569 83.6675 355.875 96.6421 83.1631 374.615 99.3665 82.428 
372.063 102.811 82.4072 368.594 104.275 82.7522 370.15 104.141 82.298 
342.016 84.1761 82.5247 342.233 84.5742 83.1608 340.871 86.666 83.2987 
340.822 87.2361 83.7363 340.956 88.416 83.3171 341.158 88.6884 83.4656 
347.231 91.913 83.9838 374.928 97.5468 83.6257 362.391 100.016 83.8061 
365.065 102.074 83.5562 368.465 103.633 83.881 369.135 104.206 83.0425 
370.591 103.778 83.2971 369.583 104.181 83.0136 341.471 85.938 83.9804 
341.175 86.262 84.0104 342.122 85.6389 84.254 342.668 85.4277 84.3656 
341.076 86.6193 84.0956 344.627 86.1419 84.8942 347.05 85.9777 84.4539 
343.334 89.0074 84.8757 349.427 88.1052 85.0874 356.575 89.9988 84.902 
347.582 90.88 84.7853 353.082 93.0607 84.8845 373.83 95.9559 84.5374 
374.891 96.9966 83.7721 363.212 99.5645 84.779 370.151 103.654 84.1474 
369.66 103.788 83.9689 341.742 86.1182 84.461 341.962 86.3336 84.7328 
342.64 85.8283 84.6494 341.277 86.8134 84.4399 343.497 86.3117 84.9977 
343.273 86.6432 85.081 346.042 87.457 85.2306 341.304 87.5812 84.6022 
341.465 87.7157 84.7132 347.472 87.7868 85.2276 348.097 87.9524 85.221 
347.874 88.2847 85.2888 341.587 88.0104 84.6378 342.027 88.1679 84.7725 
348.145 90.4602 85.058 353.598 90.4772 85.2977 354.638 90.6274 85.2787 
351.849 91.7773 85.1291 374.535 96.8903 84.238 370.049 103.032 85.2371 
371.031 103.054 85.0615 370.92 103.068 85.2353 341.932 87.3322 84.9098 
342.547 87.2864 85.0408 341.771 87.7384 84.8303 343.971 88.1322 85.1523 
347.56 89.6695 85.1952 352.967 91.06 85.3137 355.716 93.0101 85.3148 
361.33 95.092 85.8902 365.996 95.2 86.292 363.377 95.5909 86.2415 
366.523 96.116 86.7179 364.337 98.1607 86.2572 365.123 99.4714 86.0026 
373.098 99.897 86.0794 364.925 96.3886 86.5984 364.085 96.7365 86.4481 
365.429 98.1213 86.7292 368.697 97.6902 87.2387 366.192 98.7577 86.8392 
370.067 98.4339 87.313 372.525 99.2276 86.8653 367.781 99.7317 86.9696 
372.834 99.7728 86.5283 368.631 100.915 86.8028 372.505 100.731 86.6702 
370.163 101.723 86.9194 366.33 97.5884 86.9966 366.765 98.7483 86.9902 
[...]
POINT_DATA 890
COLOR_SCALARS scalars 3
0.0313725 0.521569 0.54902 0.0313725 0.521569 0.54902 0.0313725 0.521569 0.54902 
0.0313725 0.521569 0.54902 0.0313725 0.521569 0.54902 
0.0313725 0.521569 0.54902 0.0313725 0.521569 0.54902 
0.0313725 0.521569 0.54902 0.0313725 0.521569 0.54902 
0.0313725 0.521569 0.54902 0.0313725 0.521569 0.54902 
0.0313725 0.521569 0.54902 0.0313725 0.521569 0.54902 
0.0313725 0.521569 0.54902 0.0313725 0.521569 0.54902 
0.0313725 0.521569 0.54902 0.0313725 0.521569 0.54902 
0.0313725 0.521569 0.54902 0.0313725 0.521569 0.54902 
0.0313725 0.521569 0.54902 0.0313725 0.521569 0.54902 
0.0313725 0.521569 0.54902 0.0313725 0.521569 0.54902 
0.0313725 0.521569 0.54902 0.0313725 0.521569 0.54902 
0.0313725 0.521569 0.54902 0.0313725 0.521569 0.54902 
0.0313725 0.521569 0.54902 0.0313725 0.521569 0.54902 
0.0313725 0.521569 0.54902 0.0313725 0.521569 0.54902 
0.0313725 0.521569 0.54902 0.0313725 0.521569 0.54902 
0.0313725 0.521569 0.54902 0.0313725 0.521569 0.54902 
0.0313725 0.521569 0.54902 0.0313725 0.521569 0.54902 
0.0313725 0.521569 0.54902 0.0313725 0.521569 0.54902 
0.0313725 0.521569 0.54902 0.0313725 0.521569 0.54902 
0.0313725 0.521569 0.54902 0.0313725 0.521569 0.54902 
0.0313725 0.521569 0.54902 0.0313725 0.521569 0.54902 
0.0313725 0.521569 0.54902 0.0313725 0.521569 0.54902 
0.0313725 0.521569 0.54902 0.0313725 0.521569 0.54902 
0.0313725 0.521569 0.54902 0.0313725 0.521569 0.54902 
0.0313725 0.521569 0.54902 0.0313725 0.521569 0.54902 
0.0313725 0.521569 0.54902 0.0313725 0.521569 0.54902 
0.0313725 0.521569 0.54902 0.0313725 0.521569 0.54902 
0.0313725 0.521569 0.54902 0.0313725 0.521569 0.54902 
0.0313725 0.521569 0.54902 0.0313725 0.521569 0.54902 
0.0313725 0.521569 0.54902 0.0313725 0.521569 0.54902 
0.0313725 0.521569 0.54902 0.0313725 0.521569 0.54902 
0.0313725 0.521569 0.54902 0.0313725 0.521569 0.54902 
0.0313725 0.521569 0.54902 0.0313725 0.521569 0.54902 
0.0313725 0.521569 0.54902 0.0313725 0.521569 0.54902 
0.0313725 0.521569 0.54902 0.0313725 0.521569 0.54902 
0.0313725 0.521569 0.54902 0.0313725 0.521569 0.54902 
0.0313725 0.521569 0.54902 0.0313725 0.521569 0.54902 
0.0313725 0.521569 0.54902 0.0313725 0.521569 0.54902 
0.0313725 0.521569 0.54902 0.0313725 0.521569 0.54902 
0.0313725 0.521569 0.54902 0.0313725 0.521569 0.54902 
0.0313725 0.521569 0.54902 0.0313725 0.521569 0.54902 
0.0313725 0.521569 0.54902 0.0313725 0.521569 0.54902 
0.0313725 0.521569 0.54902 0.0313725 0.521569 0.54902 
0.0313725 0.521569 0.54902 0.0313725 0.521569 0.54902 
0.0313725 0.521569 0.54902 0.0313725 0.521569 0.54902 
0.0313725 0.521569 0.54902 0.0313725 0.521569 0.54902 
0.0313725 0.521569 0.54902 0.0313725 0.521569 0.54902 
0.0313725 0.521569 0.54902 0.0313725 0.521569 0.54902 
0.0313725 0.521569 0.54902 0.0313725 0.521569 0.54902 
0.0313725 0.521569 0.54902 0.0313725 0.521569 0.54902 
0.0313725 0.521569 0.54902 0.0313725 0.521569 0.54902 
0.0313725 0.521569 0.54902 0.0313725 0.521569 0.54902 
0.0313725 0.521569 0.54902 0.0313725 0.521569 0.54902 
0.0313725 0.521569 0.54902 0.0313725 0.521569 0.54902 
0.0313725 0.521569 0.54902 0.0313725 0.521569 0.54902 
0.0313725 0.521569 0.54902 0.0313725 0.521569 0.54902 
0.0313725 0.521569 0.54902 0.0313725 0.521569 0.54902 
0.0313725 0.521569 0.54902 0.0313725 0.521569 0.54902 
0.0313725 0.521569 0.54902 0.0313725 0.521569 0.54902 
0.0313725 0.521569 0.54902 0.0313725 0.521569 0.54902 
0.0313725 0.521569 0.54902 0.0313725 0.521569 0.54902 
0.0313725 0.521569 0.54902 0.0313725 0.521569 0.54902 
0.0313725 0.521569 0.54902 0.0313725 0.521569 0.54902 
0.0313725 0.521569 0.54902 0.0313725 0.521569 0.54902 
0.0313725 0.521569 0.54902 0.0313725 0.521569 0.54902 
0.0313725 0.521569 0.54902 0.0313725 0.521569 0.54902 
0.0313725 0.521569 0.54902 0.0313725 0.521569 0.54902 
0.0313725 0.521569 0.54902 0.0313725 0.521569 0.54902 
0.0313725 0.521569 0.54902 0.0313725 0.521569 0.54902 
0.0313725 0.521569 0.54902 0.0313725 0.521569 0.54902 
0.0313725 0.521569 0.54902 0.0313725 0.521569 0.54902 
0.0313725 0.521569 0.54902 0.0313725 0.521569 0.54902 
0.0313725 0.521569 0.54902 0.0313725 0.521569 0.54902 
0.0313725 0.521569 0.54902 0.0313725 0.521569 0.54902 
0.0313725 0.521569 0.54902 0.0313725 0.521569 0.54902 
0.0313725 0.521569 0.54902 0.0313725 0.521569 0.54902 
0.0313725 0.521569 0.54902 0.0313725 0.521569 0.54902 
0.0313725 0.521569 0.54902 0.0313725 0.521569 0.54902 
0.0313725 0.521569 0.54902 0.0313725 0.521569 0.54902 
0.0313725 0.521569 0.54902 0.0313725 0.521569 0.54902 
0.0313725 0.521569 0.54902 0.0313725 0.521569 0.54902 
0.0313725 0.521569 0.54902 0.0313725 0.521569 0.54902 
0.0313725 0.521569 0.54902 0.0313725 0.521569 0.54902 
0.0313725 0.521569 0.54902 0.0313725 0.521569 0.54902 
0.0313725 0.521569 0.54902 0.0313725 0.521569 0.54902 
0.0313725 0.521569 0.54902 0.0313725 0.521569 0.54902 
0.0313725 0.521569 0.54902 0.0313725 0.521569 0.54902 
0.0313725 0.521569 0.54902 0.0313725 0.521569 0.54902 
0.0313725 0.521569 0.54902 0.0313725 0.521569 0.54902 
0.0313725 0.521569 0.54902 0.0313725 0.521569 0.54902 
0.0313725 0.521569 0.54902 0.0313725 0.521569 0.54902 
0.0313725 0.521569 0.54902 0.0313725 0.521569 0.54902 
0.0313725 0.521569 0.54902 0.0313725 0.521569 0.54902 
0.0313725 0.521569 0.54902 0.0313725 0.521569 0.54902 
0.0313725 0.521569 0.54902 0.0313725 0.521569 0.54902 
0.0313725 0.521569 0.54902 0.0313725 0.521569 0.54902 
0.0313725 0.521569 0.54902 0.0313725 0.521569 0.54902 
0.0313725 0.521569 0.54902 0.0313725 0.521569 0.54902 
0.0313725 0.521569 0.54902 0.0313725 0.521569 0.54902 
0.0313725 0.521569 0.54902 0.0313725 0.521569 0.54902 
0.0313725 0.521569 0.54902 0.0313725 0.521569 0.54902 
0.0313725 0.521569 0.54902 0.0313725 0.521569 0.54902 
0.0313725 0.521569 0.54902 0.0313725 0.521569 0.54902 
0.0313725 0.521569 0.54902 0.0313725 0.521569 0.54902 
0.0313725 0.521569 0.54902 0.0313725 0.521569 0.54902 
0.0313725 0.521569 0.54902 0.0313725 0.521569 0.54902 
0.0313725 0.521569 0.54902 0.0313725 0.521569 0.54902 
0.0313725 0.521569 0.54902 0.0313725 0.521569 0.54902 
0.0313725 0.521569 0.54902 0.0313725 0.521569 0.54902 
0.0313725 0.521569 0.54902 0.0313725 0.521569 0.54902 
0.0313725 0.521569 0.54902 0.0313725 0.521569 0.54902 
0.0313725 0.521569 0.54902 0.0313725 0.521569 0.54902 
0.0313725 0.521569 0.54902 0.0313725 0.521569 0.54902 
0.0313725 0.521569 0.54902 0.0313725 0.521569 0.54902 
0.0313725 0.521569 0.54902 0.0313725 0.521569 0.54902 
0.0313725 0.521569 0.54902 0.0313725 0.521569 0.54902 
0.0313725 0.521569 0.54902 0.0313725 0.521569 0.54902 
0.0313725 0.521569 0.54902 0.0313725 0.521569 0.54902 
0.0313725 0.521569 0.54902 0.0313725 0.521569 0.54902 
0.0313725 0.521569 0.54902 0.0313725 0.521569 0.54902 
0.0313725 0.521569 0.54902 0.0313725 0.521569 0.54902 
0.0313725 0.521569 0.54902 0.0313725 0.521569 0.54902 
0.0313725 0.521569 0.54902 0.0313725 0.521569 0.54902 
0.0313725 0.521569 0.54902 0.0313725 0.521569 0.54902 
0.0313725 0.521569 0.54902 0.0313725 0.521569 0.54902 
0.0313725 0.521569 0.54902 0.0313725 0.521569 0.54902 
0.0313725 0.521569 0.54902 0.0313725 0.521569 0.54902 
0.0313725 0.521569 0.54902 0.0313725 0.521569 0.54902 
0.0313725 0.521569 0.54902 0.0313725 0.521569 0.54902 
0.0313725 0.521569 0.54902 0.0313725 0.521569 0.54902 
0.0313725 0.521569 0.54902 0.0313725 0.521569 0.54902 
0.0313725 0.521569 0.54902 0.0313725 0.521569 0.54902 
0.0313725 0.521569 0.54902 0.0313725 0.521569 0.54902 
0.0313725 0.521569 0.54902 0.0313725 0.521569 0.54902 
0.0313725 0.521569 0.54902 0.0313725 0.521569 0.54902 
0.0313725 0.521569 0.54902 0.0313725 0.521569 0.54902 
0.0313725 0.521569 0.54902 0.0313725 0.521569 0.54902 
0.0313725 0.521569 0.54902 0.0313725 0.521569 0.54902 
0.0313725 0.521569 0.54902 0.0313725 0.521569 0.54902 
0.0313725 0.521569 0.54902 0.0313725 0.521569 0.54902 
0.0313725 0.521569 0.54902 0.0313725 0.521569 0.54902 
0.0313725 0.521569 0.54902 0.0313725 0.521569 0.54902 
0.0313725 0.521569 0.54902 0.0313725 0.521569 0.54902 
0.0313725 0.521569 0.54902 0.0313725 0.521569 0.54902 
0.0313725 0.521569 0.54902 0.0313725 0.521569 0.54902 
0.0313725 0.521569 0.54902 0.0313725 0.521569 0.54902 
0.0313725 0.521569 0.54902 0.0313725 0.521569 0.54902 
0.0313725 0.521569 0.54902 0.0313725 0.521569 0.54902 
0.0313725 0.521569 0.54902 0.0313725 0.521569 0.54902 
0.0313725 0.521569 0.54902 0.0313725 0.521569 0.54902 
0.0313725 0.521569 0.54902 0.0313725 0.521569 0.54902 
0.0313725 0.521569 0.54902 0.0313725 0.521569 0.54902 
0.0313725 0.521569 0.54902 0.0313725 0.521569 0.54902 
0.0313725 0.521569 0.54902 0.0313725 0.521569 0.54902 
0.0313725 0.521569 0.54902 0.0313725 0.521569 0.54902 
0.0313725 0.521569 0.54902 0.0313725 0.521569 0.54902 
0.0313725 0.521569 0.54902 0.0313725 0.521569 0.54902 
0.0313725 0.521569 0.54902 0.0313725 0.521569 0.54902 
0.0313725 0.521569 0.54902 0.0313725 0.521569 0.54902 
0.0313725 0.521569 0.54902 0.0313725 0.521569 0.54902 
0.0313725 0.521569 0.54902 0.0313725 0.521569 0.54902 
0.0313725 0.521569 0.54902 0.0313725 0.521569 0.54902 
0.0313725 0.521569 0.54902 0.0313725 0.521569 0.54902 
0.0313725 0.521569 0.54902 0.0313725 0.521569 0.54902 
0.0313725 0.521569 0.54902 0.0313725 0.521569 0.54902 
0.0313725 0.521569 0.54902 0.0313725 0.521569 0.54902 
0.0313725 0.521569 0.54902 0.0313725 0.521569 0.54902 
0.0313725 0.521569 0.54902 0.0313725 0.521569 0.54902 
0.0313725 0.521569 0.54902 0.0313725 0.521569 0.54902 
0.0313725 0.521569 0.54902 0.0313725 0.521569 0.54902 
0.0313725 0.521569 0.54902 0.0313725 0.521569 0.54902 
0.0313725 0.521569 0.54902 0.0313725 0.521569 0.54902 
0.0313725 0.521569 0.54902 0.0313725 0.521569 0.54902 
0.0313725 0.521569 0.54902 0.0313725 0.521569 0.54902 
0.0313725 0.521569 0.54902 0.0313725 0.521569 0.54902 
0.0313725 0.521569 0.54902 0.0313725 0.521569 0.54902 
0.0313725 0.521569 0.54902 0.0313725 0.521569 0.54902 
0.0313725 0.521569 0.54902 0.0313725 0.521569 0.54902 
0.0313725 0.521569 0.54902 0.0313725 0.521569 0.54902 
0.0313725 0.521569 0.54902 0.0313725 0.521569 0.54902 
0.0313725 0.521569 0.54902 0.0313725 0.521569 0.54902 
0.0313725 0.521569 0.54902 0.0313725 0.521569 0.54902 
0.0313725 0.521569 0.54902 0.0313725 0.521569 0.54902 
0.0313725 0.521569 0.54902 0.0313725 0.521569 0.54902 
0.0313725 0.521569 0.54902 0.0313725 0.521569 0.54902 
0.0313725 0.521569 0.54902 0.0313725 0.521569 0.54902 
0.0313725 0.521569 0.54902 0.0313725 0.521569 0.54902 
0.0313725 0.521569 0.54902 0.0313725 0.521569 0.54902 
0.0313725 0.521569 0.54902 0.0313725 0.521569 0.54902 
0.0313725 0.521569 0.54902 0.0313725 0.521569 0.54902 
0.0313725 0.521569 0.54902 0.0313725 0.521569 0.54902 
0.0313725 0.521569 0.54902 0.0313725 0.521569 0.54902 
0.0313725 0.521569 0.54902 0.0313725 0.521569 0.54902 
0.0313725 0.521569 0.54902 0.0313725 0.521569 0.54902 
0.0313725 0.521569 0.54902 0.0313725 0.521569 0.54902 
0.0313725 0.521569 0.54902 0.0313725 0.521569 0.54902 
0.0313725 0.521569 0.54902 0.0313725 0.521569 0.54902 
0.0313725 0.521569 0.54902 0.0313725 0.521569 0.54902 
0.0313725 0.521569 0.54902 0.0313725 0.521569 0.54902 
0.0313725 0.521569 0.54902 0.0313725 0.521569 0.54902 
0.0313725 0.521569 0.54902 0.0313725 0.521569 0.54902 
0.0313725 0.521569 0.54902 0.0313725 0.521569 0.54902 
0.0313725 0.521569 0.54902 0.0313725 0.521569 0.54902 
0.0313725 0.521569 0.54902 0.0313725 0.521569 0.54902 
0.0313725 0.521569 0.54902 0.0313725 0.521569 0.54902 
0.0313725 0.521569 0.54902 0.0313725 0.521569 0.54902 
0.0313725 0.521569 0.54902 0.0313725 0.521569 0.54902 
0.0313725 0.521569 0.54902 0.0313725 0.521569 0.54902 
0.0313725 0.521569 0.54902 0.0313725 0.521569 0.54902 
0.0313725 0.521569 0.54902 0.0313725 0.521569 0.54902 
0.0313725 0.521569 0.54902 0.0313725 0.521569 0.54902 
0.0313725 0.521569 0.54902 0.0313725 0.521569 0.54902 
0.0313725 0.521569 0.54902 0.0313725 0.521569 0.54902 
0.0313725 0.521569 0.54902 0.0313725 0.521569 0.54902 
0.0313725 0.521569 0.54902 0.0313725 0.521569 0.54902 
0.0313725 0.521569 0.54902 0.0313725 0.521569 0.54902 
0.0313725 0.521569 0.54902 0.0313725 0.521569 0.54902 
0.0313725 0.521569 0.54902 0.0313725 0.521569 0.54902 
0.0313725 0.521569 0.54902 0.0313725 0.521569 0.54902 
0.0313725 0.521569 0.54902 0.0313725 0.521569 0.54902 
0.0313725 0.521569 0.54902 0.0313725 0.521569 0.54902 
0.0313725 0.521569 0.54902 0.0313725 0.521569 0.54902 
0.0313725 0.521569 0.54902 0.0313725 0.521569 0.54902 
0.0313725 0.521569 0.54902 0.0313725 0.521569 0.54902 
0.0313725 0.521569 0.54902 0.0313725 0.521569 0.54902 
0.0313725 0.521569 0.54902 0.0313725 0.521569 0.54902 
0.0313725 0.521569 0.54902 0.0313725 0.521569 0.54902 
0.0313725 0.521569 0.54902 0.0313725 0.521569 0.54902 
0.0313725 0.521569 0.54902 0.0313725 0.521569 0.54902 
0.0313725 0.521569 0.54902 0.0313725 0.521569 0.54902 
0.0313725 0.521569 0.54902 0.0313725 0.521569 0.54902 
0.0313725 0.521569 0.54902 0.0313725 0.521569 0.54902 
0.0313725 0.521569 0.54902 0.0313725 0.521569 0.54902 
0.0313725 0.521569 0.54902 0.0313725 0.521569 0.54902 
0.0313725 0.521569 0.54902 0.0313725 0.521569 0.54902 
0.0313725 0.521569 0.54902 0.0313725 0.521569 0.54902 
0.0313725 0.521569 0.54902 0.0313725 0.521569 0.54902 
0.0313725 0.521569 0.54902 0.0313725 0.521569 0.54902 
0.0313725 0.521569 0.54902 0.0313725 0.521569 0.54902 
0.0313725 0.521569 0.54902 0.0313725 0.521569 0.54902 
0.0313725 0.521569 0.54902 0.0313725 0.521569 0.54902 
0.0313725 0.521569 0.54902 0.0313725 0.521569 0.54902 
0.0313725 0.521569 0.54902 0.0313725 0.521569 0.54902 
0.0313725 0.521569 0.54902 0.0313725 0.521569 0.54902 
0.0313725 0.521569 0.54902 0.0313725 0.521569 0.54902 
0.0313725 0.521569 0.54902 0.0313725 0.521569 0.54902 
0.0313725 0.521569 0.54902 0.0313725 0.521569 0.54902 
0.0313725 0.521569 0.54902 0.0313725 0.521569 0.54902 
0.0313725 0.521569 0.54902 0.0313725 0.521569 0.54902 
0.0313725 0.521569 0.54902 0.0313725 0.521569 0.54902 
0.0313725 0.521569 0.54902 0.0313725 0.521569 0.54902 
0.0313725 0.521569 0.54902 0.0313725 0.521569 0.54902 
0.0313725 0.521569 0.54902 0.0313725 0.521569 0.54902 
0.0313725 0.521569 0.54902 0.0313725 0.521569 0.54902 
0.0313725 0.521569 0.54902 0.0313725 0.521569 0.54902 
0.0313725 0.521569 0.54902 0.0313725 0.521569 0.54902 
0.0313725 0.521569 0.54902 0.0313725 0.521569 0.54902 
0.0313725 0.521569 0.54902 0.0313725 0.521569 0.54902 
0.0313725 0.521569 0.54902 0.0313725 0.521569 0.54902 
0.0313725 0.521569 0.54902 0.0313725 0.521569 0.54902 
0.0313725 0.521569 0.54902 0.0313725 0.521569 0.54902 
0.0313725 0.521569 0.54902 0.0313725 0.521569 0.54902 
0.0313725 0.521569 0.54902 0.0313725 0.521569 0.54902 
0.0313725 0.521569 0.54902 0.0313725 0.521569 0.54902 
0.0313725 0.521569 0.54902 0.0313725 0.521569 0.54902 
0.0313725 0.521569 0.54902 0.0313725 0.521569 0.54902 
0.0313725 0.521569 0.54902 0.0313725 0.521569 0.54902 
0.0313725 0.521569 0.54902 0.0313725 0.521569 0.54902 
0.0313725 0.521569 0.54902 0.0313725 0.521569 0.54902 
0.0313725 0.521569 0.54902 0.0313725 0.521569 0.54902 
0.0313725 0.521569 0.54902 0.0313725 0.521569 0.54902 
0.0313725 0.521569 0.54902 0.0313725 0.521569 0.54902 
0.0313725 0.521569 0.54902 0.0313725 0.521569 0.54902 
0.0313725 0.521569 0.54902 0.0313725 0.521569 0.54902 
0.0313725 0.521569 0.54902 0.0313725 0.521569 0.54902 
0.0313725 0.521569 0.54902 0.0313725 0.521569 0.54902 
0.0313725 0.521569 0.54902 0.0313725 0.521569 0.54902 
0.0313725 0.521569 0.54902 0.0313725 0.521569 0.54902 
0.0313725 0.521569 0.54902 0.0313725 0.521569 0.54902 
0.0313725 0.521569 0.54902 0.0313725 0.521569 0.54902 
0.0313725 0.521569 0.54902 0.0313725 0.521569 0.54902 
0.0313725 0.521569 0.54902 0.0313725 0.521569 0.54902 
0.0313725 0.521569 0.54902 0.0313725 0.521569 0.54902 
0.0313725 0.521569 0.54902 0.0313725 0.521569 0.54902 
0.0313725 0.521569 0.54902 0.0313725 0.521569 0.54902 
0.0313725 0.521569 0.54902 0.0313725 0.521569 0.54902 
0.0313725 0.521569 0.54902 0.0313725 0.521569 0.54902 
0.0313725 0.521569 0.54902 0.0313725 0.521569 0.54902 
0.0313725 0.521569 0.54902 0.0313725 0.521569 0.54902 
0.0313725 0.521569 0.54902 0.0313725 0.521569 0.54902 
0.0313725 0.521569 0.54902 0.0313725 0.521569 0.54902 
0.0313725 0.521569 0.54902 0.0313725 0.521569 0.54902 
0.0313725 0.521569 0.54902 0.0313725 0.521569 0.54902 
0.0313725 0.521569 0.54902 0.0313725 0.521569 0.54902 
0.0313725 0.521569 0.54902 0.0313725 0.521569 0.54902 
0.0313725 0.521569 0.54902 0.0313725 0.521569 0.54902 
0.0313725 0.521569 0.54902 0.0313725 0.521569 0.54902 
0.0313725 0.521569 0.54902 0.0313725 0.521569 0.54902 
0.0313725 0.521569 0.54902 0.0313725 0.521569 0.54902 
0.0313725 0.521569 0.54902 0.0313725 0.521569 0.54902 
0.0313725 0.521569 0.54902 0.0313725 0.521569 0.54902 
0.0313725 0.521569 0.54902 0.0313725 0.521569 0.54902 
0.0313725 0.521569 0.54902 0.0313725 0.521569 0.54902 
0.0313725 0.521569 0.54902 0.0313725 0.521569 0.54902 
0.0313725 0.521569 0.54902 0.0313725 0.521569 0.54902 
0.0313725 0.521569 0.54902 0.0313725 0.521569 0.54902 
0.0313725 0.521569 0.54902 0.0313725 0.521569 0.54902 
0.0313725 0.521569 0.54902 0.0313725 0.521569 0.54902 
0.0313725 0.521569 0.54902 0.0313725 0.521569 0.54902 
0.0313725 0.521569 0.54902 0.0313725 0.521569 0.54902 
0.0313725 0.521569 0.54902 0.0313725 0.521569 0.54902 
0.0313725 0.521569 0.54902 0.0313725 0.521569 0.54902 
0.0313725 0.521569 0.54902 0.0313725 0.521569 0.54902 
0.0313725 0.521569 0.54902 0.0313725 0.521569 0.54902 
0.0313725 0.521569 0.54902 0.0313725 0.521569 0.54902 
0.0313725 0.521569 0.54902 0.0313725 0.521569 0.54902 
0.0313725 0.521569 0.54902 0.0313725 0.521569 0.54902 
0.0313725 0.521569 0.54902 0.0313725 0.521569 0.54902 
0.0313725 0.521569 0.54902 0.0313725 0.521569 0.54902 
0.0313725 0.521569 0.54902 0.0313725 0.521569 0.54902 
0.0313725 0.521569 0.54902 0.0313725 0.521569 0.54902 
0.0313725 0.521569 0.54902 0.0313725 0.521569 0.54902 
0.0313725 0.521569 0.54902 0.0313725 0.521569 0.54902 
0.0313725 0.521569 0.54902 0.0313725 0.521569 0.54902 
0.0313725 0.521569 0.54902 0.0313725 0.521569 0.54902 
0.0313725 0.521569 0.54902 0.0313725 0.521569 0.54902 
0.0313725 0.521569 0.54902 0.0313725 0.521569 0.54902 
0.0313725 0.521569 0.54902 0.0313725 0.521569 0.54902 
0.0313725 0.521569 0.54902 0.0313725 0.521569 0.54902 
0.0313725 0.521569 0.54902 0.0313725 0.521569 0.54902 
0.0313725 0.521569 0.54902 0.0313725 0.521569 0.54902 
0.0313725 0.521569 0.54902 0.0313725 0.521569 0.54902 
0.0313725 0.521569 0.54902 0.0313725 0.521569 0.54902 
0.0313725 0.521569 0.54902 0.0313725 0.521569 0.54902 
0.0313725 0.521569 0.54902 0.0313725 0.521569 0.54902 
0.0313725 0.521569 0.54902 0.0313725 0.521569 0.54902 
0.0313725 0.521569 0.54902 0.0313725 0.521569 0.54902 
0.0313725 0.521569 0.54902 0.0313725 0.521569 0.54902 
0.0313725 0.521569 0.54902 0.0313725 0.521569 0.54902 
0.0313725 0.521569 0.54902 0.0313725 0.521569 0.54902 
0.0313725 0.521569 0.54902 0.0313725 0.521569 0.54902 
0.0313725 0.521569 0.54902 0.0313725 0.521569 0.54902 
0.0313725 0.521569 0.54902 0.0313725 0.521569 0.54902 
0.0313725 0.521569 0.54902 0.0313725 0.521569 0.54902 
0.0313725 0.521569 0.54902 0.0313725 0.521569 0.54902 
0.0313725 0.521569 0.54902 0.0313725 0.521569 0.54902 
0.0313725 0.521569 0.54902 0.0313725 0.521569 0.54902 
0.0313725 0.521569 0.54902 0.0313725 0.521569 0.54902 
0.0313725 0.521569 0.54902 0.0313725 0.521569 0.54902 
0.0313725 0.521569 0.54902 0.0313725 0.521569 0.54902 
0.0313725 0.521569 0.54902 0.0313725 0.521569 0.54902 
0.0313725 0.521569 0.54902 0.0313725 0.521569 0.54902 
0.0313725 0.521569 0.54902 0.0313725 0.521569 0.54902 
0.0313725 0.521569 0.54902 0.0313725 0.521569 0.54902 
0.0313725 0.521569 0.54902 0.0313725 0.521569 0.54902 
0.0313725 0.521569 0.54902 0.0313725 0.521569 0.54902 
0.0313725 0.521569 0.54902 0.0313725 0.521569 0.54902 
0.0313725 0.521569 0.54902 0.0313725 0.521569 0.54902 
0.0313725 0.521569 0.54902 0.0313725 0.521569 0.54902 
0.0313725 0.521569 0.54902 0.0313725 0.521569 0.54902 
0.0313725 0.521569 0.54902 0.0313725 0.521569 0.54902 