# vtk DataFile Version 4.2
vtk output
ASCII
DATASET POLYDATA
POINTS 715 float
357.461 79.6614 60.196 357.635 79.9687 60.1913 359.401 80.7156 60.1183 
359.891 80.5434 60.1262 359.586 81.3431 60.1708 366.931 83.874 60.2506 
368.985 84.7348 60.3753 368.608 84.711 60.3932 369.25 84.7275 60.4263 
347.307 74.8971 61.3802 347.667 75.837 61.2612 349.006 75.3603 60.9803 
349.611 75.9961 60.8946 350.074 75.8879 60.8955 349.445 76.3921 60.9696 
352.35 77.2724 60.7234 353.445 76.8788 60.7602 351.753 77.4906 60.8192 
353.871 77.3138 60.6895 354.826 78.743 60.5977 357.521 78.8908 60.3533 
359.315 79.6111 60.3311 361.488 80.858 60.1767 358.769 81.3663 60.4044 
368.175 83.7552 60.4585 367.174 84.7516 60.4469 369.764 85.0694 60.5558 
367.316 85.7318 60.83 373.481 87.0674 60.761 374.188 86.7673 60.8364 
373.445 87.614 60.8809 373.762 87.4485 60.8266 378.935 89.6844 61.5182 
378.897 89.8311 61.5354 379.137 89.8614 61.6492 346.517 74.0644 61.7186 
347.249 73.5959 61.672 345.583 74.7088 62.0743 348.883 74.5474 61.2246 
354.409 76.2629 61.0467 347.72 76.6111 61.4676 349.18 76.974 61.1949 
355.114 76.2137 61.1678 352.87 79.6203 61.4223 353.661 79.7045 61.1861 
364.09 80.8801 60.6773 366.823 85.7633 60.9355 372.817 86.2537 60.8158 
368.684 87.007 61.3547 370.986 87.5669 61.2262 373.171 88.4052 61.3121 
373.885 88.5907 61.2972 378.906 89.2721 61.5586 378.224 89.6784 61.5364 
380.368 89.1694 62.0282 379.922 90.4147 62.2305 380.651 90.1135 62.3584 
345.836 72.7376 62.5599 345.245 72.4902 63.1522 346.707 72.376 62.4655 
344.966 73.0525 63.0646 351.566 73.5266 62.07 352.954 74.4506 61.7692 
345.439 75.768 62.5202 346.025 75.7489 61.9985 357.385 75.8341 61.8903 
347.479 77.25 62.0123 352.386 79.8136 61.8272 355.822 81.676 61.7553 
357.98 83.0789 61.9781 373.495 83.5239 62.0013 379.464 87.7442 61.9915 
373.732 89.8087 62.373 380.863 90.2218 62.6004 379.019 91.0675 62.7427 
348.264 71.4456 63.0552 344.53 73.6843 63.4957 344.471 73.2362 63.7033 
345.666 76.8268 63.1049 350.991 79.7364 62.6897 356.612 83.0997 63.2185 
357.472 83.5939 63.5582 361.667 85.3556 63.1927 381.844 88.6236 63.3468 
369.522 88.7317 63.3424 371.265 89.2924 63.0072 381.886 89.6709 63.5635 
372.849 90.1091 63.6064 381.53 90.2011 63.5278 376.696 91.398 63.5165 
380.174 91.1882 63.2941 380.521 91.3308 63.8109 345.846 70.2723 64.4441 
345.45 70.7143 64.3813 346.736 70.1011 64.2946 350.87 71.4294 63.5527 
344.52 76.2647 64.5297 346.929 78.3529 64.3689 348.253 79.0592 64.5737 
348.91 79.3547 64.3587 352.57 81.0575 64.4295 353.862 81.6288 63.9796 
355.738 82.7187 64.149 360.228 84.8995 63.4825 383.162 88.1534 65.0194 
369.617 88.9086 63.8287 369.511 88.8717 64.1733 370.214 89.1071 63.6702 
372.409 89.9998 63.9181 381.876 90.2733 64.2836 375.205 91.1101 64.5648 
377.878 92.0089 64.3537 346.363 68.8743 65.6381 353.925 70.9035 65.479 
344.333 72.3531 64.6706 344.196 74.9882 65.506 344.253 76.08 65.3268 
365.203 75.932 64.7521 344.359 76.3904 65.1434 344.525 76.5496 64.8208 
344.883 76.9809 64.8236 345.922 77.8404 64.8967 346.746 78.3045 64.9241 
351.143 80.2937 64.9072 353.06 81.1867 64.9632 353.457 81.4347 64.617 
356.436 83.1557 64.2064 357.32 83.4227 64.6574 366.323 87.1525 65.0228 
383.222 88.7861 65.5851 372.996 90.2226 64.6231 373.761 90.4202 65.215 
374.397 90.7205 64.9612 379.023 92.3105 64.7053 379.428 92.2365 64.7248 
378.85 92.4359 65.2258 379.359 92.4752 65.173 346.953 68.3559 66.4934 
347.917 68.7255 66.0169 345.008 69.5012 65.9097 344.972 69.3371 66.2342 
351.868 69.7966 66.2712 344.484 70.4571 66.0983 354.13 70.6397 66.1686 
356.139 71.3738 66.1488 357.852 71.8548 66.1253 364.381 74.8143 65.7126 
344.283 76.0053 65.6672 344.596 76.6938 65.4631 344.743 76.9144 65.2407 
346.334 77.8287 65.7013 347.218 78.3919 65.5046 374.914 79.601 65.9645 
354.203 81.5255 65.3527 359.849 83.9642 65.739 383.582 85.9794 65.9809 
384.155 86.6084 66.8391 368.625 87.5721 66.1388 382.191 90.403 65.9016 
375.739 91.246 65.319 376.502 91.3439 65.838 379.079 92.4772 65.351 
379.204 92.3959 65.5221 379.529 92.3936 65.3079 379.306 92.4722 65.3471 
345.481 68.8095 66.5545 346.322 68.4147 66.845 347.545 68.359 66.6926 
347.38 68.3282 66.8566 345.119 69.0858 66.4562 345.156 68.9879 66.7819 
344.881 69.3644 66.6583 349.123 68.9355 66.4135 349.678 69.0638 67.0675 
353.209 70.0965 66.5929 354.695 70.7754 66.5672 357.675 71.533 66.651 
357.634 71.4511 66.7595 357.04 71.4446 66.7134 357.936 71.6337 66.8666 
358.085 71.7333 66.6078 358.413 71.8927 66.7828 359.194 72.3118 66.9405 
364.306 74.1924 67.0335 344.159 74.0406 67.2232 344.713 76.4676 65.8946 
374.175 78.6414 66.9845 354.255 80.8571 66.4155 384.287 84.5904 67.5117 
384.501 84.9096 67.5744 384.541 85.18 67.5366 384.331 86.7766 67.3598 
373.509 89.2908 66.9031 383.176 89.168 66.8826 380.351 91.5531 66.5117 
345.388 68.8005 66.9979 345.94 68.5775 67.4652 347.42 68.4023 67.1874 
347.037 68.5059 67.7557 347.269 68.6155 67.9034 344.539 70.0826 67.2496 
353.071 70.099 67.1099 353.132 70.2508 67.6071 352.981 70.3224 67.9348 
353.631 70.6866 68.0901 355.863 71.3158 67.6943 357.622 71.6437 67.212 
359.176 72.5263 68.0517 359.999 72.6699 67.4125 344.097 73.2702 67.9244 
344.057 73.5799 67.9161 344.089 73.7132 67.9041 344.885 75.2512 67.484 
370.566 77.0328 67.8771 346.642 76.877 67.3118 374.948 78.8017 67.721 
376.419 79.4332 67.9986 359.816 82.1361 67.6633 381.647 82.2116 67.4779 
384.737 84.9522 68.2567 384.475 86.6929 67.9358 383.324 88.8652 67.7073 
382.361 89.8793 67.8175 345.433 69.2552 68.2954 344.566 70.2451 67.7831 
345.781 69.3591 68.5545 347.614 69.3574 68.8238 349.624 69.5521 68.3913 
344.233 71.5153 68.3688 344.203 71.7548 68.774 344.195 72.1141 68.8676 
358.37 73.0337 69.2424 359.434 73.0784 68.8762 361.58 73.5839 68.3395 
344.246 72.9844 68.547 344.373 73.5411 68.3438 361.196 74.0268 69.2836 
368.423 76.4 68.6198 370.093 77.072 68.7443 373.829 78.4205 68.3563 
374.825 78.7901 68.2041 379.069 80.3471 68.926 379.481 80.633 68.9117 
381.788 82.0585 68.1452 382.235 82.2535 68.8168 384.236 83.998 68.3009 
384.34 83.9287 68.7593 384.767 84.5561 68.9142 384.505 86.743 68.4682 
384.283 87.1632 68.6682 384.723 85.9868 69.1181 380.17 90.352 68.526 
380.705 91 67.4633 345.233 69.5386 68.3252 345.359 69.8595 68.7509 
346.823 70.0583 69.373 348.877 70.1754 69.3541 344.493 72.5295 69.276 
345.068 73.282 69.2807 346.44 73.8318 69.6038 360.541 74.2669 69.7212 
349.676 74.5319 69.9514 364.091 75.5628 69.6569 368.729 77.1079 69.5562 
357.124 78.0022 69.7836 368.411 77.4304 69.983 370.399 78.0788 70.0021 
372.914 78.7446 69.7835 374.649 79.1858 69.6488 378.407 80.5998 69.7822 
381.118 81.7298 69.2771 381.147 82.2808 70.4046 383.95 83.675 69.3891 
384.639 84.2204 69.2505 384.812 84.4342 69.3236 384.831 84.5001 69.4811 
378.789 88.9679 69.7601 379.732 89.7036 69.3285 381.661 89.5148 69.2246 
345.608 70.6414 69.4219 344.79 71.6134 69.5814 344.524 71.7746 69.4418 
347.163 71.0646 69.9363 349.164 71.2891 69.9644 344.541 72.0171 69.5512 
344.587 72.287 69.5272 344.737 72.095 69.6846 344.761 72.3287 69.6536 
345.365 72.6591 69.7656 346.754 72.7251 70.0474 348.271 72.9409 70.241 
354.626 74.0071 70.3263 357.189 76.4703 70.4835 358.338 77.3397 70.3401 
361.722 77.7288 70.6526 367.82 77.7434 70.3426 363.429 79.2615 70.5077 
363.789 78.8238 70.7169 373.785 79.2905 70.1445 373.039 79.686 70.725 
369.829 82.018 70.9517 379.065 81.7783 70.8341 379.97 81.9551 70.6758 
380.335 82.4305 70.9884 384.396 84.4009 70.0071 384.215 84.4345 70.3891 
384.598 85.0869 69.9984 384.341 85.7699 70.5147 383.945 86.6425 70.5121 
382.85 87.7629 70.4921 380.715 89.4184 69.6097 382.134 88.566 70.1686 
344.692 71.8573 69.64 345.065 71.8555 69.756 346.401 71.6205 70.0088 
345.532 72.2182 69.885 348.16 72.3447 70.2244 349.92 73.0266 70.2755 
356.859 75.3343 70.6511 357.622 75.7107 70.6977 362.291 76.7113 70.6331 
362.264 77.1664 70.7213 363.845 77.5282 70.6999 364.415 78.7392 70.7957 
365.163 78.713 70.82 368.86 79.949 71.1315 370.63 80.6912 71.1824 
371.568 80.5974 71.2081 372.443 80.576 71.2082 378.746 82.6039 71.5173 
379.917 82.7553 71.3397 381.84 83.1719 70.9685 383.512 84.3375 70.9344 
383.256 84.515 71.181 384.369 85.1163 70.5021 378.446 86.192 71.5478 
380.438 87.0483 71.5657 383.964 86.3229 70.7657 383.584 86.6216 70.9077 
383.768 86.1364 71.0337 363.911 78.2125 70.8513 370.606 81.3736 71.213 
371.182 81.8419 71.2457 372.948 81.6822 71.4416 377.381 83.4586 72.0368 
375.948 83.4666 71.9308 380.981 84.2945 71.763 377.401 84.2223 71.9655 
381.519 85.3064 71.9285 383.806 85.1532 71.0564 379.517 85.8848 71.8775 
383.221 85.6385 71.467 383.692 85.6404 71.1579 381.85 86.5084 71.7876 
383.068 86.6664 71.3009 382.169 86.7488 71.6582 382.775 87.0304 71.2685 
376.946 83.4545 72.0359 377.326 83.7636 72.0527 377.784 83.8177 383.33 
377.599 83.7856 383.354 378.014 83.7827 383.368 377.815 84.0335 383.375 
380.039 84.9544 383.216 382.175 85.9137 383.345 381.871 86.0226 383.378 
382.662 86.1225 383.519 383.311 86.4499 383.809 383.326 86.5758 383.837 
383.466 86.5185 383.992 383.276 86.7127 383.936 372.112 81.5818 383.959 
377.137 82.2945 383.761 377.093 83.6215 383.483 378.689 84.0754 383.408 
377.61 84.884 383.536 380.664 85.0418 383.349 381.837 84.5368 383.634 
383.787 85.0772 384.247 381.252 85.7659 383.398 383.199 86.0864 383.806 
383.899 85.4055 384.261 379.996 86.3653 383.616 382.601 86.5011 383.68 
383.839 86.2249 384.358 383.665 86.6026 384.264 381.937 87.3352 384.061 
382.894 86.9523 384.022 345.518 71.0667 385.555 345.39 70.8995 385.689 
345.664 70.7816 385.632 347.318 72.0337 385.114 347.648 72.0197 385.036 
347.82 71.8263 385.076 352.39 72.9319 385.13 353.502 73.6311 385.044 
358.257 75.3517 384.903 358.603 75.7794 384.851 363.392 77.4564 384.74 
365.264 78.2367 384.685 364.258 78.7856 384.673 366.817 78.434 384.74 
366.184 79.7239 384.625 370.709 79.6375 384.471 372.824 80.2427 384.251 
375.288 81.004 384.178 378.183 82.1113 384.045 372.609 82.8835 384.039 
383.129 83.979 384.425 384.316 84.7072 384.851 384.586 84.8287 385.201 
[...]
POINT_DATA 715
COLOR_SCALARS scalars 3
0.0313725 0.521569 0.54902 0.0313725 0.521569 0.54902 0.0313725 0.521569 0.54902 
0.0313725 0.521569 0.54902 0.0313725 0.521569 0.54902 
0.0313725 0.521569 0.54902 0.0313725 0.521569 0.54902 
0.0313725 0.521569 0.54902 0.0313725 0.521569 0.54902 
0.0313725 0.521569 0.54902 0.0313725 0.521569 0.54902 
0.0313725 0.521569 0.54902 0.0313725 0.521569 0.54902 
0.0313725 0.521569 0.54902 0.0313725 0.521569 0.54902 
0.0313725 0.521569 0.54902 0.0313725 0.521569 0.54902 
0.0313725 0.521569 0.54902 0.0313725 0.521569 0.54902 
0.0313725 0.521569 0.54902 0.0313725 0.521569 0.54902 
0.0313725 0.521569 0.54902 0.0313725 0.521569 0.54902 
0.0313725 0.521569 0.54902 0.0313725 0.521569 0.54902 
0.0313725 0.521569 0.54902 0.0313725 0.521569 0.54902 
0.0313725 0.521569 0.54902 0.0313725 0.521569 0.54902 
0.0313725 0.521569 0.54902 0.0313725 0.521569 0.54902 
0.0313725 0.521569 0.54902 0.0313725 0.521569 0.54902 
0.0313725 0.521569 0.54902 0.0313725 0.521569 0.54902 
0.0313725 0.521569 0.54902 0.0313725 0.521569 0.54902 
0.0313725 0.521569 0.54902 0.0313725 0.521569 0.54902 
0.0313725 0.521569 0.54902 0.0313725 0.521569 0.54902 
0.0313725 0.521569 0.54902 0.0313725 0.521569 0.54902 
0.0313725 0.521569 0.54902 0.0313725 0.521569 0.54902 
0.0313725 0.521569 0.54902 0.0313725 0.521569 0.54902 
0.0313725 0.521569 0.54902 0.0313725 0.521569 0.54902 
0.0313725 0.521569 0.54902 0.0313725 0.521569 0.54902 
0.0313725 0.521569 0.54902 0.0313725 0.521569 0.54902 
0.0313725 0.521569 0.54902 0.0313725 0.521569 0.54902 
0.0313725 0.521569 0.54902 0.0313725 0.521569 0.54902 
0.0313725 0.521569 0.54902 0.0313725 0.521569 0.54902 
0.0313725 0.521569 0.54902 0.0313725 0.521569 0.54902 
0.0313725 0.521569 0.54902 0.0313725 0.521569 0.54902 
0.0313725 0.521569 0.54902 0.0313725 0.521569 0.54902 
0.0313725 0.521569 0.54902 0.0313725 0.521569 0.54902 
0.0313725 0.521569 0.54902 0.0313725 0.521569 0.54902 
0.0313725 0.521569 0.54902 0.0313725 0.521569 0.54902 
0.0313725 0.521569 0.54902 0.0313725 0.521569 0.54902 
0.0313725 0.521569 0.54902 0.0313725 0.521569 0.54902 
0.0313725 0.521569 0.54902 0.0313725 0.521569 0.54902 
0.0313725 0.521569 0.54902 0.0313725 0.521569 0.54902 
0.0313725 0.521569 0.54902 0.0313725 0.521569 0.54902 
0.0313725 0.521569 0.54902 0.0313725 0.521569 0.54902 
0.0313725 0.521569 0.54902 0.0313725 0.521569 0.54902 
0.0313725 0.521569 0.54902 0.0313725 0.521569 0.54902 
0.0313725 0.521569 0.54902 0.0313725 0.521569 0.54902 
0.0313725 0.521569 0.54902 0.0313725 0.521569 0.54902 
0.0313725 0.521569 0.54902 0.0313725 0.521569 0.54902 
0.0313725 0.521569 0.54902 0.0313725 0.521569 0.54902 
0.0313725 0.521569 0.54902 0.0313725 0.521569 0.54902 
0.0313725 0.521569 0.54902 0.0313725 0.521569 0.54902 
0.0313725 0.521569 0.54902 0.0313725 0.521569 0.54902 
0.0313725 0.521569 0.54902 0.0313725 0.521569 0.54902 
0.0313725 0.521569 0.54902 0.0313725 0.521569 0.54902 
0.0313725 0.521569 0.54902 0.0313725 0.521569 0.54902 
0.0313725 0.521569 0.54902 0.0313725 0.521569 0.54902 
0.0313725 0.521569 0.54902 0.0313725 0.521569 0.54902 
0.0313725 0.521569 0.54902 0.0313725 0.521569 0.54902 
0.0313725 0.521569 0.54902 0.0313725 0.521569 0.54902 
0.0313725 0.521569 0.54902 0.0313725 0.521569 0.54902 
0.0313725 0.521569 0.54902 0.0313725 0.521569 0.54902 
0.0313725 0.521569 0.54902 0.0313725 0.521569 0.54902 
0.0313725 0.521569 0.54902 0.0313725 0.521569 0.54902 
0.0313725 0.521569 0.54902 0.0313725 0.521569 0.54902 
0.0313725 0.521569 0.54902 0.0313725 0.521569 0.54902 
0.0313725 0.521569 0.54902 0.0313725 0.521569 0.54902 
0.0313725 0.521569 0.54902 0.0313725 0.521569 0.54902 
0.0313725 0.521569 0.54902 0.0313725 0.521569 0.54902 
0.0313725 0.521569 0.54902 0.0313725 0.521569 0.54902 
0.0313725 0.521569 0.54902 0.0313725 0.521569 0.54902 
0.0313725 0.521569 0.54902 0.0313725 0.521569 0.54902 
0.0313725 0.521569 0.54902 0.0313725 0.521569 0.54902 
0.0313725 0.521569 0.54902 0.0313725 0.521569 0.54902 
0.0313725 0.521569 0.54902 0.0313725 0.521569 0.54902 
0.0313725 0.521569 0.54902 0.0313725 0.521569 0.54902 
0.0313725 0.521569 0.54902 0.0313725 0.521569 0.54902 
0.0313725 0.521569 0.54902 0.0313725 0.521569 0.54902 
0.0313725 0.521569 0.54902 0.0313725 0.521569 0.54902 
0.0313725 0.521569 0.54902 0.0313725 0.521569 0.54902 
0.0313725 0.521569 0.54902 0.0313725 0.521569 0.54902 
0.0313725 0.521569 0.54902 0.0313725 0.521569 0.54902 
0.0313725 0.521569 0.54902 0.0313725 0.521569 0.54902 
0.0313725 0.521569 0.54902 0.0313725 0.521569 0.54902 
0.0313725 0.521569 0.54902 0.0313725 0.521569 0.54902 
0.0313725 0.521569 0.54902 0.0313725 0.521569 0.54902 
0.0313725 0.521569 0.54902 0.0313725 0.521569 0.54902 
0.0313725 0.521569 0.54902 0.0313725 0.521569 0.54902 
0.0313725 0.521569 0.54902 0.0313725 0.521569 0.54902 
0.0313725 0.521569 0.54902 0.0313725 0.521569 0.54902 
0.0313725 0.521569 0.54902 0.0313725 0.521569 0.54902 
0.0313725 0.521569 0.54902 0.0313725 0.521569 0.54902 
0.0313725 0.521569 0.54902 0.0313725 0.521569 0.54902 
0.0313725 0.521569 0.54902 0.0313725 0.521569 0.54902 
0.0313725 0.521569 0.54902 0.0313725 0.521569 0.54902 
0.0313725 0.521569 0.54902 0.0313725 0.521569 0.54902 
0.0313725 0.521569 0.54902 0.0313725 0.521569 0.54902 
0.0313725 0.521569 0.54902 0.0313725 0.521569 0.54902 
0.0313725 0.521569 0.54902 0.0313725 0.521569 0.54902 
0.0313725 0.521569 0.54902 0.0313725 0.521569 0.54902 
0.0313725 0.521569 0.54902 0.0313725 0.521569 0.54902 
0.0313725 0.521569 0.54902 0.0313725 0.521569 0.54902 
0.0313725 0.521569 0.54902 0.0313725 0.521569 0.54902 
0.0313725 0.521569 0.54902 0.0313725 0.521569 0.54902 
0.0313725 0.521569 0.54902 0.0313725 0.521569 0.54902 
0.0313725 0.521569 0.54902 0.0313725 0.521569 0.54902 
0.0313725 0.521569 0.54902 0.0313725 0.521569 0.54902 
0.0313725 0.521569 0.54902 0.0313725 0.521569 0.54902 
0.0313725 0.521569 0.54902 0.0313725 0.521569 0.54902 
0.0313725 0.521569 0.54902 0.0313725 0.521569 0.54902 
0.0313725 0.521569 0.54902 0.0313725 0.521569 0.54902 
0.0313725 0.521569 0.54902 0.0313725 0.521569 0.54902 
0.0313725 0.521569 0.54902 0.0313725 0.521569 0.54902 
0.0313725 0.521569 0.54902 0.0313725 0.521569 0.54902 
0.0313725 0.521569 0.54902 0.0313725 0.521569 0.54902 
0.0313725 0.521569 0.54902 0.0313725 0.521569 0.54902 
0.0313725 0.521569 0.54902 0.0313725 0.521569 0.54902 
0.0313725 0.521569 0.54902 0.0313725 0.521569 0.54902 
0.0313725 0.521569 0.54902 0.0313725 0.521569 0.54902 
0.0313725 0.521569 0.54902 0.0313725 0.521569 0.54902 
0.0313725 0.521569 0.54902 0.0313725 0.521569 0.54902 
0.0313725 0.521569 0.54902 0.0313725 0.521569 0.54902 
0.0313725 0.521569 0.54902 0.0313725 0.521569 0.54902 
0.0313725 0.521569 0.54902 0.0313725 0.521569 0.54902 
0.0313725 0.521569 0.54902 0.0313725 0.521569 0.54902 
0.0313725 0.521569 0.54902 0.0313725 0.521569 0.54902 
0.0313725 0.521569 0.54902 0.0313725 0.521569 0.54902 
0.0313725 0.521569 0.54902 0.0313725 0.521569 0.54902 
0.0313725 0.521569 0.54902 0.0313725 0.521569 0.54902 
0.0313725 0.521569 0.54902 0.0313725 0.521569 0.54902 
0.0313725 0.521569 0.54902 0.0313725 0.521569 0.54902 
0.0313725 0.521569 0.54902 0.0313725 0.521569 0.54902 
0.0313725 0.521569 0.54902 0.0313725 0.521569 0.54902 
0.0313725 0.521569 0.54902 0.0313725 0.521569 0.54902 
0.0313725 0.521569 0.54902 0.0313725 0.521569 0.54902 
0.0313725 0.521569 0.54902 0.0313725 0.521569 0.54902 
0.0313725 0.521569 0.54902 0.0313725 0.521569 0.54902 
0.0313725 0.521569 0.54902 0.0313725 0.521569 0.54902 
0.0313725 0.521569 0.54902 0.0313725 0.521569 0.54902 
0.0313725 0.521569 0.54902 0.0313725 0.521569 0.54902 
0.0313725 0.521569 0.54902 0.0313725 0.521569 0.54902 
0.0313725 0.521569 0.54902 0.0313725 0.521569 0.54902 
0.0313725 0.521569 0.54902 0.0313725 0.521569 0.54902 
0.0313725 0.521569 0.54902 0.0313725 0.521569 0.54902 
0.0313725 0.521569 0.54902 0.0313725 0.521569 0.54902 
0.0313725 0.521569 0.54902 0.0313725 0.521569 0.54902 
0.0313725 0.521569 0.54902 0.0313725 0.521569 0.54902 
0.0313725 0.521569 0.54902 0.0313725 0.521569 0.54902 
0.0313725 0.521569 0.54902 0.0313725 0.521569 0.54902 
0.0313725 0.521569 0.54902 0.0313725 0.521569 0.54902 
0.0313725 0.521569 0.54902 0.0313725 0.521569 0.54902 
0.0313725 0.521569 0.54902 0.0313725 0.521569 0.54902 
0.0313725 0.521569 0.54902 0.0313725 0.521569 0.54902 
0.0313725 0.521569 0.54902 0.0313725 0.521569 0.54902 
0.0313725 0.521569 0.54902 0.0313725 0.521569 0.54902 
0.0313725 0.521569 0.54902 0.0313725 0.521569 0.54902 
0.0313725 0.521569 0.54902 0.0313725 0.521569 0.54902 
0.0313725 0.521569 0.54902 0.0313725 0.521569 0.54902 
0.0313725 0.521569 0.54902 0.0313725 0.521569 0.54902 
0.0313725 0.521569 0.54902 0.0313725 0.521569 0.54902 
0.0313725 0.521569 0.54902 0.0313725 0.521569 0.54902 
0.0313725 0.521569 0.54902 0.0313725 0.521569 0.54902 
0.0313725 0.521569 0.54902 0.0313725 0.521569 0.54902 
0.0313725 0.521569 0.54902 0.0313725 0.521569 0.54902 
0.0313725 0.521569 0.54902 0.0313725 0.521569 0.54902 
0.0313725 0.521569 0.54902 0.0313725 0.521569 0.54902 
0.0313725 0.521569 0.54902 0.0313725 0.521569 0.54902 
0.0313725 0.521569 0.54902 0.0313725 0.521569 0.54902 
0.0313725 0.521569 0.54902 0.0313725 0.521569 0.54902 
0.0313725 0.521569 0.54902 0.0313725 0.521569 0.54902 
0.0313725 0.521569 0.54902 0.0313725 0.521569 0.54902 
0.0313725 0.521569 0.54902 0.0313725 0.521569 0.54902 
0.0313725 0.521569 0.54902 0.0313725 0.521569 0.54902 
0.0313725 0.521569 0.54902 0.0313725 0.521569 0.54902 
0.0313725 0.521569 0.54902 0.0313725 0.521569 0.54902 
0.0313725 0.521569 0.54902 0.0313725 0.521569 0.54902 
0.0313725 0.521569 0.54902 0.0313725 0.521569 0.54902 
0.0313725 0.521569 0.54902 0.0313725 0.521569 0.54902 
0.0313725 0.521569 0.54902 0.0313725 0.521569 0.54902 
0.0313725 0.521569 0.54902 0.0313725 0.521569 0.54902 
0.0313725 0.521569 0.54902 0.0313725 0.521569 0.54902 
0.0313725 0.521569 0.54902 0.0313725 0.521569 0.54902 
0.0313725 0.521569 0.54902 0.0313725 0.521569 0.54902 
0.0313725 0.521569 0.54902 0.0313725 0.521569 0.54902 
0.0313725 0.521569 0.54902 0.0313725 0.521569 0.54902 
0.0313725 0.521569 0.54902 0.0313725 0.521569 0.54902 
0.0313725 0.521569 0.54902 0.0313725 0.521569 0.54902 
0.0313725 0.521569 0.54902 0.0313725 0.521569 0.54902 
0.0313725 0.521569 0.54902 0.0313725 0.521569 0.54902 
0.0313725 0.521569 0.54902 0.0313725 0.521569 0.54902 
0.0313725 0.521569 0.54902 0.0313725 0.521569 0.54902 
0.0313725 0.521569 0.54902 0.0313725 0.521569 0.54902 
0.0313725 0.521569 0.54902 0.0313725 0.521569 0.54902 
0.0313725 0.521569 0.54902 0.0313725 0.521569 0.54902 
0.0313725 0.521569 0.54902 0.0313725 0.521569 0.54902 
0.0313725 0.521569 0.54902 0.0313725 0.521569 0.54902 
0.0313725 0.521569 0.54902 0.0313725 0.521569 0.54902 
0.0313725 0.521569 0.54902 0.0313725 0.521569 0.54902 
0.0313725 0.521569 0.54902 0.0313725 0.521569 0.54902 
0.0313725 0.521569 0.54902 0.0313725 0.521569 0.54902 
0.0313725 0.521569 0.54902 0.0313725 0.521569 0.54902 
0.0313725 0.521569 0.54902 0.0313725 0.521569 0.54902 
0.0313725 0.521569 0.54902 0.0313725 0.521569 0.54902 
0.0313725 0.521569 0.54902 0.0313725 0.521569 0.54902 
0.0313725 0.521569 0.54902 0.0313725 0.521569 0.54902 
0.0313725 0.521569 0.54902 0.0313725 0.521569 0.54902 
0.0313725 0.521569 0.54902 0.0313725 0.521569 0.54902 
0.0313725 0.521569 0.54902 0.0313725 0.521569 0.54902 
0.0313725 0.521569 0.54902 0.0313725 0.521569 0.54902 
0.0313725 0.521569 0.54902 0.0313725 0.521569 0.54902 
0.0313725 0.521569 0.54902 0.0313725 0.521569 0.54902 
0.0313725 0.521569 0.54902 0.0313725 0.521569 0.54902 
0.0313725 0.521569 0.54902 0.0313725 0.521569 0.54902 
0.0313725 0.521569 0.54902 0.0313725 0.521569 0.54902 
0.0313725 0.521569 0.54902 0.0313725 0.521569 0.54902 
0.0313725 0.521569 0.54902 0.0313725 0.521569 0.54902 
0.0313725 0.521569 0.54902 0.0313725 0.521569 0.54902 
0.0313725 0.521569 0.54902 0.0313725 0.521569 0.54902 
0.0313725 0.521569 0.54902 0.0313725 0.521569 0.54902 
0.0313725 0.521569 0.54902 0.0313725 0.521569 0.54902 
0.0313725 0.521569 0.54902 0.0313725 0.521569 0.54902 
0.0313725 0.521569 0.54902 0.0313725 0.521569 0.54902 
0.0313725 0.521569 0.54902 0.0313725 0.521569 0.54902 
0.0313725 0.521569 0.54902 0.0313725 0.521569 0.54902 
0.0313725 0.521569 0.54902 0.0313725 0.521569 0.54902 
0.0313725 0.521569 0.54902 0.0313725 0.521569 0.54902 
0.0313725 0.521569 0.54902 0.0313725 0.521569 0.54902 
0.0313725 0.521569 0.54902 0.0313725 0.521569 0.54902 
0.0313725 0.521569 0.54902 0.0313725 0.521569 0.54902 
0.0313725 0.521569 0.54902 0.0313725 0.521569 0.54902 
0.0313725 0.521569 0.54902 0.0313725 0.521569 0.54902 
0.0313725 0.521569 0.54902 0.0313725 0.521569 0.54902 
0.0313725 0.521569 0.54902 0.0313725 0.521569 0.54902 
0.0313725 0.521569 0.54902 0.0313725 0.521569 0.54902 
0.0313725 0.521569 0.54902 0.0313725 0.521569 0.54902 
0.0313725 0.521569 0.54902 0.0313725 0.521569 0.54902 
0.0313725 0.521569 0.54902 0.0313725 0.521569 0.54902 
0.0313725 0.521569 0.54902 0.0313725 0.521569 0.54902 
0.0313725 0.521569 0.54902 0.0313725 0.521569 0.54902 
0.0313725 0.521569 0.54902 0.0313725 0.521569 0.54902 
0.0313725 0.521569 0.54902 0.0313725 0.521569 0.54902 
0.0313725 0.521569 0.54902 0.0313725 0.521569 0.54902 
0.0313725 0.521569 0.54902 0.0313725 0.521569 0.54902 
0.0313725 0.521569 0.54902 0.0313725 0.521569 0.54902 
0.0313725 0.521569 0.54902 0.0313725 0.521569 0.54902 
0.0313725 0.521569 0.54902 0.0313725 0.521569 0.54902 
0.0313725 0.521569 0.54902 0.0313725 0.521569 0.54902 
0.0313725 0.521569 0.54902 0.0313725 0.521569 0.54902 
0.0313725 0.521569 0.54902 0.0313725 0.521569 0.54902 
0.0313725 0.521569 0.54902 0.0313725 0.521569 0.54902 
0.0313725 0.521569 0.54902 0.0313725 0.521569 0.54902 
0.0313725 0.521569 0.54902 0.0313725 0.521569 0.54902 
0.0313725 0.521569 0.54902 0.0313725 0.521569 0.54902 
0.0313725 0.521569 0.54902 0.0313725 0.521569 0.54902 
0.0313725 0.521569 0.54902 0.0313725 0.521569 0.54902 
0.0313725 0.521569 0.54902 0.0313725 0.521569 0.54902 
0.0313725 0.521569 0.54902 0.0313725 0.521569 0.54902 
0.0313725 0.521569 0.54902 0.0313725 0.521569 0.54902 
0.0313725 0.521569 0.54902 0.0313725 0.521569 0.54902 
0.0313725 0.521569 0.54902 0.0313725 0.521569 0.54902 
0.0313725 0.521569 0.54902 0.0313725 0.521569 0.54902 
0.0313725 0.521569 0.54902 0.0313725 0.521569 0.54902 
0.0313725 0.521569 0.54902 0.0313725 0.521569 0.54902 
0.0313725 0.521569 0.54902 0.0313725 0.521569 0.54902 
0.0313725 0.521569 0.54902 0.0313725 0.521569 0.54902 
0.0313725 0.521569 0.54902 0.0313725 0.521569 0.54902 
0.0313725 0.521569 0.54902 0.0313725 0.521569 0.54902 
0.0313725 0.521569 0.54902 0.0313725 0.521569 0.54902 
0.0313725 0.521569 0.54902 0.0313725 0.521569 0.54902 
0.0313725 0.521569 0.54902 0.0313725 0.521569 0.54902 
0.0313725 0.521569 0.54902 0.0313725 0.521569 0.54902 
0.0313725 0.521569 0.54902 0.0313725 0.521569 0.54902 
0.0313725 0.521569 0.54902 0.0313725 0.521569 0.54902 
0.0313725 0.521569 0.54902 0.0313725 0.521569 0.54902 
0.0313725 0.521569 0.54902 0.0313725 0.521569 0.54902 
0.0313725 0.521569 0.54902 0.0313725 0.521569 0.54902 
0.0313725 0.521569 0.54902 0.0313725 0.521569 0.54902 
0.0313725 0.521569 0.54902 0.0313725 0.521569 0.54902 
0.0313725 0.521569 0.54902 0.0313725 0.521569 0.54902 
0.0313725 0.521569 0.54902 0.0313725 0.521569 0.54902 
0.0313725 0.521569 0.54902 0.0313725 0.521569 0.54902 
0.0313725 0.521569 0.54902 0.0313725 0.521569 0.54902 
0.0313725 0.521569 0.54902 0.0313725 0.521569 0.54902 
0.0313725 0.521569 0.54902 0.0313725 0.521569 0.54902 
0.0313725 0.521569 0.54902 0.0313725 0.521569 0.54902 
0.0313725 0.521569 0.54902 0.0313725 0.521569 0.54902 
0.0313725 0.521569 0.54902 0.0313725 0.521569 0.54902 
0.0313725 0.521569 0.54902 0.0313725 0.521569 0.54902 
0.0313725 0.521569 0.54902 0.0313725 0.521569 0.54902 
0.0313725 0.521569 0.54902 0.0313725 0.521569 0.54902 
0.0313725 0.521569 0.54902 0.0313725 0.521569 0.54902 
0.0313725 0.521569 0.54902 0.0313725 0.521569 0.54902 
0.0313725 0.521569 0.54902 0.0313725 0.521569 0.54902 
0.0313725 0.521569 0.54902 0.0313725 0.521569 0.54902 
0.0313725 0.521569 0.54902 0.0313725 0.521569 0.54902 
0.0313725 0.521569 0.54902 0.0313725 0.521569 0.54902 
0.0313725 0.521569 0.54902 0.0313725 0.521569 0.54902 
0.0313725 0.521569 0.54902 0.0313725 0.521569 0.54902 
0.0313725 0.521569 0.54902 0.0313725 0.521569 0.54902 
0.0313725 0.521569 0.54902 0.0313725 0.521569 0.54902 
0.0313725 0.521569 0.54902 0.0313725 0.521569 0.54902 
0.0313725 0.521569 0.54902 0.0313725 0.521569 0.54902 
0.0313725 0.521569 0.54902 0.0313725 0.521569 0.54902 
0.0313725 0.521569 0.54902 0.0313725 0.521569 0.54902 
0.0313725 0.521569 0.54902 0.0313725 0.521569 0.54902 
0.0313725 0.521569 0.54902 0.0313725 0.521569 0.54902 
0.0313725 0.521569 0.54902 0.0313725 0.521569 0.54902 
0.0313725 0.521569 0.54902 0.0313725 0.521569 0.54902 
0.0313725 0.521569 0.54902 0.0313725 0.521569 0.54902 
0.0313725 0.521569 0.54902 0.0313725 0.521569 0.54902 
0.0313725 0.521569 0.54902 0.0313725 0.521569 0.54902 
0.0313725 0.521569 0.54902 0.0313725 0.521569 0.54902 
0.0313725 0.521569 0.54902 0.0313725 0.521569 0.54902 
0.0313725 0.521569 0.54902 0.0313725 0.521569 0.54902 
0.0313725 0.521569 0.54902 0.0313725 0.521569 0.54902 
0.0313725 0.521569 0.54902 0.0313725 0.521569 0.54902 
0.0313725 0.521569 0.54902 0.0313725 0.521569 0.54902 
0.0313725 0.521569 0.54902 0.0313725 0.521569 0.54902 
0.0313725 0.521569 0.54902 0.0313725 0.521569 0.54902 
0.0313725 0.521569 0.54902 0.0313725 0.521569 0.54902 
0.0313725 0.521569 0.54902 0.0313725 0.521569 0.54902 
0.0313725 0.521569 0.54902 0.0313725 0.521569 0.54902 
0.0313725 0.521569 0.54902 0.0313725 0.521569 0.54902 
0.0313725 0.521569 0.54902 0.0313725 0.521569 0.54902 
0.0313725 0.521569 0.54902 0.0313725 0.521569 0.54902 
0.0313725 0.521569 0.54902 0.0313725 0.521569 0.54902 
0.0313725 0.521569 0.54902 0.0313725 0.521569 0.54902 
0.0313725 0.521569 0.54902 0.0313725 0.521569 0.54902 
0.0313725 0.521569 0.54902 0.0313725 0.521569 0.54902 
0.0313725 0.521569 0.54902 0.0313725 0.521569 0.54902 
0.0313725 0.521569 0.54902 0.0313725 0.521569 0.54902 
0.0313725 0.521569 0.54902 0.0313725 0.521569 0.54902 
0.0313725 0.521569 0.54902 0.0313725 0.521569 0.54902 
0.0313725 0.521569 0.54902 0.0313725 0.521569 0.54902 
0.0313725 0.521569 0.54902 0.0313725 0.521569 0.54902 
0.0313725 0.521569 0.54902 0.0313725 0.521569 0.54902 
0.0313725 0.521569 0.54902 0.0313725 0.521569 0.54902 
0.0313725 0.521569 0.54902 0.0313725 0.521569 0.54902 
0.0313725 0.521569 0.54902 0.0313725 0.521569 0.54902 
0.0313725 0.521569 0.54902 0.0313725 0.521569 0.54902 
0.0313725 0.521569 0.54902 0.0313725 0.521569 0.54902 
0.0313725 0.521569 0.54902 0.0313725 0.521569 0.54902 
0.0313725 0.521569 0.54902 0.0313725 0.521569 0.54902 
0.0313725 0.521569 0.54902 0.0313725 0.521569 0.54902 
0.0313725 0.521569 0.54902 0.0313725 0.521569 0.54902 
0.0313725 0.521569 0.54902 0.0313725 0.521569 0.54902 
0.0313725 0.521569 0.54902 0.0313725 0.521569 0.54902 
0.0313725 0.521569 0.54902 0.0313725 0.521569 0.54902 
0.0313725 0.521569 0.54902 0.0313725 0.521569 0.54902 
0.0313725 0.521569 0.54902 0.0313725 0.521569 0.54902 
0.0313725 0.521569 0.54902 0.0313725 0.521569 0.54902 
0.0313725 0.521569 0.54902 0.0313725 0.521569 0.54902 
0.0313725 0.521569 0.54902 0.0313725 0.521569 0.54902 
0.0313725 0.521569 0.54902 0.0313725 0.521569 0.54902 
0.0313725 0.521569 0.54902 0.0313725 0.521569 0.54902 
0.0313725 0.521569 0.54902 0.0313725 0.521569 0.54902 
0.0313725 0.521569 0.54902 0.0313725 0.521569 0.54902 
0.0313725 0.521569 0.54902 0.0313725 0.521569 0.54902 
0.0313725 0.521569 0.54902 0.0313725 0.521569 0.54902 
0.0313725 0.521569 0.54902 0.0313725 0.521569 0.54902 

NORMALS Normals float
0.00670717 -0.0991895 -0.995046 -0.136886 0.189387 -0.972314 -0.0795168 0.0249284 -0.996522 
0.189738 -0.22111 -0.956614 -0.0572351 0.286149 -0.956474 -0.067628 0.164707 -0.984021 
0.0659162 0.109947 -0.991749 -0.0595654 0.270544 -0.960863 0.335926 -0.282188 -0.898624 