# vtk DataFile Version 4.2
vtk output
ASCII
DATASET POLYDATA
POINTS 953 float
350.026 95.3468 80.4583 350.362 95.6241 80.3704 350.065 95.6039 80.3811 
350.499 95.8902 80.3678 350.909 96.0408 80.2825 351.616 96.5194 80.241 
351.619 96.473 80.2087 352.378 96.787 80.1913 354.458 97.4464 80.4375 
352.026 96.7135 80.1935 352.618 96.9532 80.2268 353.144 97.2065 80.1808 
353.058 97.1321 80.1692 353.477 97.3046 80.1908 354.056 97.44 80.3396 
356.176 98.4086 80.4381 356.722 98.6795 80.3943 357.4 98.9085 80.4243 
353.267 97.2694 80.1492 356.689 98.7454 80.3942 357.077 98.9905 80.3858 
357.224 99.0078 80.3595 358.05 99.3444 80.3908 358.957 99.5381 80.4382 
358.246 99.5728 80.4883 358.792 99.8923 80.5616 359.679 99.7071 80.4887 
359.838 100.088 80.4473 359.941 100.562 80.5878 359.791 100.374 80.474 
361.292 100.902 80.5923 362.044 100.928 80.8008 360.307 100.708 80.5466 
361.004 101.031 80.6595 362.326 101.609 80.7801 363.648 102.553 80.8401 
364.131 102.926 80.8118 363.998 102.895 80.8341 364.529 103.115 80.8766 
365.098 103.374 81.0427 364.382 103.111 80.8762 364.699 103.252 80.9376 
344.643 92.5992 81.3794 344.056 92.271 81.5144 344.254 92.4764 81.4707 
345.394 92.679 81.3573 344.688 92.7109 81.4159 345.154 92.9195 81.2842 
345.888 93.2097 81.1746 346.965 93.7405 81.022 348.134 94.114 81.0817 
345.586 93.1714 81.2548 346.325 93.5047 81.1514 347.197 93.9302 81.0184 
347.938 94.3664 80.8337 347.919 94.3395 80.7855 348.604 94.446 80.8922 
349.601 94.9755 80.6353 349.185 94.5571 80.9076 348.319 94.6395 80.658 
348.383 94.6803 80.6749 352.724 96.0948 81.0057 348.678 94.8623 80.578 
349.259 95.1618 80.5123 353.072 96.3935 80.8137 353.96 96.5634 80.973 
355.522 97.9235 80.5378 356.819 98.1107 81.0393 353.455 97.3134 80.2058 
354.554 97.4841 80.6274 355.705 98.0845 80.5847 357.281 98.4267 80.8788 
358.229 98.4689 81.0188 357.254 99.0742 80.4534 360.273 99.184 81.0006 
357.723 99.2841 80.5545 358.978 100.001 80.6706 361.941 101.563 80.9666 
363.759 102.736 80.9289 366.015 103.646 81.4356 364.876 103.3 81.1272 
365.661 103.685 81.1906 366.399 103.878 81.4657 366.492 104.006 81.409 
367.028 103.974 81.7191 366.094 103.885 81.3086 366.65 104.087 81.5157 
367.089 104.323 81.5487 367.5 104.477 81.6473 367.47 104.507 81.6889 
367.749 104.586 81.7758 342.334 91.6825 81.7471 343.15 91.5776 81.9252 
342.139 91.7401 81.6691 342.577 91.7994 81.6661 343.256 91.9542 81.6437 
342.307 91.7852 81.6593 342.683 91.8693 81.6656 343.14 91.9929 81.6834 
343.766 92.231 81.6158 344.316 92.5111 81.5499 348.531 93.956 81.3064 
349.343 94.0876 81.3643 347.601 93.9355 81.2105 348.303 94.0171 81.3237 
348.94 94.6676 80.9277 348.959 94.3374 81.2065 353.196 95.9364 81.3055 
353.817 96.0431 81.4034 353.03 95.9877 81.3645 353.37 96.5842 80.9159 
353.59 96.2916 81.2482 357.464 97.4977 81.6266 357.254 97.8975 81.3471 
357.911 97.9295 81.4392 357.106 98.0031 81.418 357.515 98.6509 81.0368 
357.688 98.3014 81.3578 358.231 98.8206 81.4977 364.838 102.184 81.7006 
366.366 103.573 81.6886 366.857 103.632 81.8861 365.65 103.521 81.4726 
366.06 103.814 81.3722 366.243 103.638 81.7307 366.357 103.892 81.4703 
366.696 103.88 81.7464 367.923 104.58 81.8669 368.1 104.5 82.0821 
367.985 104.582 81.9967 342.306 91.6917 81.7629 342.16 91.7124 81.7045 
342.591 91.6425 81.8594 343.053 91.5196 82.0475 343.618 91.292 82.306 
342.116 91.7379 81.6846 346.426 91.6465 82.5475 347.65 92.3147 82.6479 
342.166 91.7632 81.6696 342.372 91.8049 81.6855 343.462 92.0116 81.8309 
348.104 92.836 82.2305 349.033 93.033 82.3201 345.555 92.867 81.7483 
347.539 93.3672 81.8397 351.481 94.3946 81.8556 352.494 94.3771 82.5665 
350.617 94.6142 81.8759 352.895 94.7445 82.2954 355.447 96.3264 81.8398 
356.478 96.3199 82.5777 354.008 96.3616 81.5126 356.872 96.6688 82.3218 
357.849 96.7062 82.5297 358.037 98.4297 81.7302 363.057 99.9703 82.027 
365.672 102.227 82.612 366.046 102.553 82.4442 366.89 102.596 82.8376 
368.227 104.456 82.3514 368.037 104.554 82.1659 344.069 89.5089 83.9678 
342.3 89.1144 84.1868 343.606 89.9042 83.6134 342.457 89.2541 84.0943 
342.782 89.457 83.9704 342.974 91.6268 82.0148 343.319 89.8407 83.7301 
343.57 91.351 82.4293 343.86 90.5919 83.1318 348.118 91.2423 83.6371 
348.241 91.9486 83.1555 348.979 92.0317 83.2857 347.038 92.175 82.8489 
347.918 92.0193 83.1601 348.191 93.014 82.275 348.711 92.0776 83.3196 
348.999 93.0694 82.4843 349.371 92.5624 83.0346 353.012 94.1484 82.9515 
353.676 94.2615 83.054 352.793 94.2038 82.9831 353.072 94.8842 82.4645 
353.379 94.5186 82.8649 357.487 95.3938 83.6535 356.987 96.0701 82.9767 
357.631 96.1241 83.0766 355.915 96.1538 82.6884 356.296 96.8361 82.2182 
356.78 96.1544 83.0231 357.063 96.8602 82.5395 357.361 96.4636 82.9432 
366.135 101.976 83.089 366.725 102.013 83.3264 365.149 102.138 82.7454 
365.522 102.723 82.3155 365.948 102.096 83.1574 366.201 102.727 82.6853 
366.476 102.364 83.1468 368.496 104.217 82.787 368.535 104.032 82.8512 
368.759 103.939 83.2591 368.329 104.274 82.7725 368.186 104.478 82.391 
368.662 104.09 83.1597 342.038 88.501 84.7178 342.363 88.9006 84.3977 
342.868 89.1183 84.2757 343.36 89.1653 84.2868 341.987 88.7491 84.4747 
342.146 88.9502 84.3201 347.357 90.5944 84.1856 342.304 89.1308 84.1884 
347.783 90.8812 83.9627 349.917 91.5252 83.9358 347.193 91.4656 83.6164 
351.953 92.6914 83.7855 352.185 92.6076 84.1191 350.202 92.6797 83.4845 
352.633 92.9579 83.8963 356.172 94.5531 84.1103 356.601 94.8874 83.899 
357.728 96.5458 83.3274 363.964 98.8358 83.9495 365.197 100.447 83.6737 
365.473 100.383 84.2856 365.856 100.714 84.0669 366.747 100.78 84.5022 
368.717 103.872 83.6537 368.896 103.834 83.6346 368.691 104.015 83.3846 
341.7 88.2318 84.9167 342.254 88.272 84.9623 342.709 88.3042 85.0074 
342.304 88.9151 84.398 342.434 88.2813 85.004 342.731 89.1304 84.2922 
342.966 88.4642 84.9376 343.26 89.2003 84.3525 343.509 88.8913 84.6427 
346.384 89.8882 84.2835 348.18 90.2869 84.6092 348.438 90.2035 84.7718 
343.748 89.2056 84.5524 347.897 90.4657 84.4347 346.699 90.4944 84.299 
347.501 90.474 84.4507 347.916 91.0238 84.0952 348.168 90.7456 84.352 
352.485 92.0217 84.6714 352.649 92.4874 84.3919 351.063 92.8304 83.7044 
352.347 92.4899 84.3859 352.738 93.0691 84.033 352.969 92.7991 84.3062 
356.611 94.415 84.3981 357.212 94.569 84.4631 356.337 94.4235 84.389 
356.73 95.0224 84.0715 356.939 94.7265 84.3387 361.176 96.3034 84.7524 
365.403 99.7211 84.5557 366.148 99.7707 85.0991 365.938 100.133 84.774 
366.522 100.203 84.9956 364.913 100.332 84.4548 365.269 100.969 84.0078 
365.733 100.248 84.8351 366.003 100.919 84.3816 366.279 100.523 84.8209 
366.727 100.996 85.0086 367.719 102.582 84.4002 369.466 102.98 84.8668 
341.705 87.937 85.186 341.708 87.9946 85.1313 341.801 87.9495 85.1946 
341.662 88.0558 85.0743 342.069 88.0172 85.1781 342.6 88.1312 85.1718 
343.536 88.3583 85.1148 343.187 88.2638 85.1594 343.958 88.5021 85.095 
343.677 88.399 85.1436 344.068 88.5657 85.1081 341.654 88.0915 85.0475 
344.587 88.7773 85.016 345.529 89.1261 84.904 346.279 89.3575 84.9075 
346.781 89.5432 84.9308 343.277 88.6226 84.9187 347.433 89.8137 84.865 
348.924 90.3284 84.8311 348.448 90.1576 84.8729 349.27 90.4424 84.8598 
349.084 90.3601 84.8991 349.572 90.5953 84.8751 344.895 89.8211 84.4499 
350.342 90.9706 84.8014 351.61 91.5009 84.8527 348.57 90.8429 84.5442 
353.295 92.2938 84.7904 352.956 92.1337 84.8039 353.56 92.4358 84.8155 
351.29 92.0018 84.5351 354.354 92.867 84.7623 355.599 93.4199 84.8425 
353.456 92.8727 84.576 356.161 93.721 84.7985 357.192 94.1801 84.8147 
356.879 94.0337 84.8237 357.426 94.2998 84.8557 358.088 94.6603 84.81 
359.173 95.192 84.9003 357.46 94.8172 84.6836 360.515 95.8841 85.0318 
362.096 96.6862 85.1831 365.153 98.7394 85.682 365.533 99.0108 85.5302 
366.321 99.192 85.8679 366.3 100.153 85.4825 368.602 102.229 85.5528 
369.933 102.738 85.6718 370.201 102.536 86.0573 369.533 102.917 85.3611 
370.014 102.79 85.8271 370.195 102.669 86.0637 370.155 102.754 86.0001 
341.713 87.9693 85.1639 344.46 88.8403 85.0352 345.421 89.1485 84.9883 
346.256 89.3908 84.9612 346.278 89.5563 84.9363 347.179 89.7889 84.9306 
349.107 90.444 84.9136 350.079 90.9256 84.8768 351.073 91.3048 84.8676 
351.113 91.5196 84.8152 352.051 91.8068 84.844 353.014 92.2077 84.8392 
354.076 92.7811 84.8203 356.031 93.7162 84.8503 356.937 94.0983 84.8765 
357.908 94.6142 84.9133 358.586 94.8903 84.9247 358.132 94.9737 84.8711 
358.939 95.1881 84.9998 359.88 95.5995 85.0977 360.145 95.7944 85.2041 
360.485 96.3036 85.1835 361.774 96.6367 85.4044 365.228 98.2125 86.1102 
365.729 98.4081 86.3373 363.71 97.8682 85.9275 365.504 98.6293 86.0036 
366.015 98.7871 86.1542 364.701 98.6992 85.7926 365.026 99.2063 85.5391 
365.311 98.7017 85.9709 365.646 99.194 85.7796 365.804 98.9181 86.0486 
369.262 101.013 86.2519 370.371 102.458 86.369 370.202 102.569 86.2624 
370.192 102.709 86.0879 370.48 102.352 86.6395 361.939 96.9449 85.5094 
363.072 97.1737 85.7033 363.571 97.5238 85.9034 365.203 98.1536 86.2349 
365.767 98.4271 86.4274 366.237 98.6796 86.4846 366.643 98.9262 86.4718 
365.302 98.6145 86.1539 368.167 100.013 86.6052 368.176 100.611 86.5977 
370.608 101.955 86.9911 370.261 102.336 86.6404 370.424 102.177 86.9264 
370.598 102.151 86.9315 370.467 102.294 86.7772 364.882 98.1587 86.2618 
365.372 98.2914 86.3592 366.167 98.7442 86.5013 366.795 99.0595 86.563 
366.988 99.3861 86.5642 367.468 99.5377 86.6079 367.991 100.073 86.7037 
369.896 101.128 87.1087 370.693 101.664 87.3495 370.592 101.586 87.3493 
370.706 101.664 87.4007 370.066 101.845 87.0425 370.691 101.756 87.2972 
370.638 101.918 87.2112 370.567 102.113 87.0387 369.497 100.898 87.0902 
369.842 101.226 87.2224 370.351 101.45 87.3622 370.626 101.675 87.3963 
370.51 101.609 87.4418 370.369 101.631 87.3798 370.534 101.774 87.3448 
373.004 102.013 90.0087 373.004 102.013 90.0087 373.004 102.013 90.0087 
373.004 102.013 90.0088 373.004 102.013 90.0088 370.412 101.538 87.4419 
373.004 102.013 90.0088 370.043 100.991 367.848 370.007 100.899 367.908 
[...]
POINT_DATA 953
COLOR_SCALARS scalars 3
0.0313725 0.521569 0.54902 0.0313725 0.521569 0.54902 0.0313725 0.521569 0.54902 
0.0313725 0.521569 0.54902 0.0313725 0.521569 0.54902 
0.0313725 0.521569 0.54902 0.0313725 0.521569 0.54902 
0.0313725 0.521569 0.54902 0.0313725 0.521569 0.54902 
0.0313725 0.521569 0.54902 0.0313725 0.521569 0.54902 
0.0313725 0.521569 0.54902 0.0313725 0.521569 0.54902 
0.0313725 0.521569 0.54902 0.0313725 0.521569 0.54902 
0.0313725 0.521569 0.54902 0.0313725 0.521569 0.54902 
0.0313725 0.521569 0.54902 0.0313725 0.521569 0.54902 
0.0313725 0.521569 0.54902 0.0313725 0.521569 0.54902 
0.0313725 0.521569 0.54902 0.0313725 0.521569 0.54902 
0.0313725 0.521569 0.54902 0.0313725 0.521569 0.54902 
0.0313725 0.521569 0.54902 0.0313725 0.521569 0.54902 
0.0313725 0.521569 0.54902 0.0313725 0.521569 0.54902 
0.0313725 0.521569 0.54902 0.0313725 0.521569 0.54902 
0.0313725 0.521569 0.54902 0.0313725 0.521569 0.54902 
0.0313725 0.521569 0.54902 0.0313725 0.521569 0.54902 
0.0313725 0.521569 0.54902 0.0313725 0.521569 0.54902 
0.0313725 0.521569 0.54902 0.0313725 0.521569 0.54902 
0.0313725 0.521569 0.54902 0.0313725 0.521569 0.54902 
0.0313725 0.521569 0.54902 0.0313725 0.521569 0.54902 
0.0313725 0.521569 0.54902 0.0313725 0.521569 0.54902 
0.0313725 0.521569 0.54902 0.0313725 0.521569 0.54902 
0.0313725 0.521569 0.54902 0.0313725 0.521569 0.54902 
0.0313725 0.521569 0.54902 0.0313725 0.521569 0.54902 
0.0313725 0.521569 0.54902 0.0313725 0.521569 0.54902 
0.0313725 0.521569 0.54902 0.0313725 0.521569 0.54902 
0.0313725 0.521569 0.54902 0.0313725 0.521569 0.54902 
0.0313725 0.521569 0.54902 0.0313725 0.521569 0.54902 
0.0313725 0.521569 0.54902 0.0313725 0.521569 0.54902 
0.0313725 0.521569 0.54902 0.0313725 0.521569 0.54902 
0.0313725 0.521569 0.54902 0.0313725 0.521569 0.54902 
0.0313725 0.521569 0.54902 0.0313725 0.521569 0.54902 
0.0313725 0.521569 0.54902 0.0313725 0.521569 0.54902 
0.0313725 0.521569 0.54902 0.0313725 0.521569 0.54902 
0.0313725 0.521569 0.54902 0.0313725 0.521569 0.54902 
0.0313725 0.521569 0.54902 0.0313725 0.521569 0.54902 
0.0313725 0.521569 0.54902 0.0313725 0.521569 0.54902 
0.0313725 0.521569 0.54902 0.0313725 0.521569 0.54902 
0.0313725 0.521569 0.54902 0.0313725 0.521569 0.54902 
0.0313725 0.521569 0.54902 0.0313725 0.521569 0.54902 
0.0313725 0.521569 0.54902 0.0313725 0.521569 0.54902 
0.0313725 0.521569 0.54902 0.0313725 0.521569 0.54902 
0.0313725 0.521569 0.54902 0.0313725 0.521569 0.54902 
0.0313725 0.521569 0.54902 0.0313725 0.521569 0.54902 
0.0313725 0.521569 0.54902 0.0313725 0.521569 0.54902 
0.0313725 0.521569 0.54902 0.0313725 0.521569 0.54902 
0.0313725 0.521569 0.54902 0.0313725 0.521569 0.54902 
0.0313725 0.521569 0.54902 0.0313725 0.521569 0.54902 
0.0313725 0.521569 0.54902 0.0313725 0.521569 0.54902 
0.0313725 0.521569 0.54902 0.0313725 0.521569 0.54902 
0.0313725 0.521569 0.54902 0.0313725 0.521569 0.54902 
0.0313725 0.521569 0.54902 0.0313725 0.521569 0.54902 
0.0313725 0.521569 0.54902 0.0313725 0.521569 0.54902 
0.0313725 0.521569 0.54902 0.0313725 0.521569 0.54902 
0.0313725 0.521569 0.54902 0.0313725 0.521569 0.54902 
0.0313725 0.521569 0.54902 0.0313725 0.521569 0.54902 
0.0313725 0.521569 0.54902 0.0313725 0.521569 0.54902 
0.0313725 0.521569 0.54902 0.0313725 0.521569 0.54902 
0.0313725 0.521569 0.54902 0.0313725 0.521569 0.54902 
0.0313725 0.521569 0.54902 0.0313725 0.521569 0.54902 
0.0313725 0.521569 0.54902 0.0313725 0.521569 0.54902 
0.0313725 0.521569 0.54902 0.0313725 0.521569 0.54902 
0.0313725 0.521569 0.54902 0.0313725 0.521569 0.54902 
0.0313725 0.521569 0.54902 0.0313725 0.521569 0.54902 
0.0313725 0.521569 0.54902 0.0313725 0.521569 0.54902 
0.0313725 0.521569 0.54902 0.0313725 0.521569 0.54902 
0.0313725 0.521569 0.54902 0.0313725 0.521569 0.54902 
0.0313725 0.521569 0.54902 0.0313725 0.521569 0.54902 
0.0313725 0.521569 0.54902 0.0313725 0.521569 0.54902 
0.0313725 0.521569 0.54902 0.0313725 0.521569 0.54902 
0.0313725 0.521569 0.54902 0.0313725 0.521569 0.54902 
0.0313725 0.521569 0.54902 0.0313725 0.521569 0.54902 
0.0313725 0.521569 0.54902 0.0313725 0.521569 0.54902 
0.0313725 0.521569 0.54902 0.0313725 0.521569 0.54902 
0.0313725 0.521569 0.54902 0.0313725 0.521569 0.54902 
0.0313725 0.521569 0.54902 0.0313725 0.521569 0.54902 
0.0313725 0.521569 0.54902 0.0313725 0.521569 0.54902 
0.0313725 0.521569 0.54902 0.0313725 0.521569 0.54902 
0.0313725 0.521569 0.54902 0.0313725 0.521569 0.54902 
0.0313725 0.521569 0.54902 0.0313725 0.521569 0.54902 
0.0313725 0.521569 0.54902 0.0313725 0.521569 0.54902 
0.0313725 0.521569 0.54902 0.0313725 0.521569 0.54902 
0.0313725 0.521569 0.54902 0.0313725 0.521569 0.54902 
0.0313725 0.521569 0.54902 0.0313725 0.521569 0.54902 
0.0313725 0.521569 0.54902 0.0313725 0.521569 0.54902 
0.0313725 0.521569 0.54902 0.0313725 0.521569 0.54902 
0.0313725 0.521569 0.54902 0.0313725 0.521569 0.54902 
0.0313725 0.521569 0.54902 0.0313725 0.521569 0.54902 
0.0313725 0.521569 0.54902 0.0313725 0.521569 0.54902 
0.0313725 0.521569 0.54902 0.0313725 0.521569 0.54902 
0.0313725 0.521569 0.54902 0.0313725 0.521569 0.54902 
0.0313725 0.521569 0.54902 0.0313725 0.521569 0.54902 
0.0313725 0.521569 0.54902 0.0313725 0.521569 0.54902 
0.0313725 0.521569 0.54902 0.0313725 0.521569 0.54902 
0.0313725 0.521569 0.54902 0.0313725 0.521569 0.54902 
0.0313725 0.521569 0.54902 0.0313725 0.521569 0.54902 
0.0313725 0.521569 0.54902 0.0313725 0.521569 0.54902 
0.0313725 0.521569 0.54902 0.0313725 0.521569 0.54902 
0.0313725 0.521569 0.54902 0.0313725 0.521569 0.54902 
0.0313725 0.521569 0.54902 0.0313725 0.521569 0.54902 
0.0313725 0.521569 0.54902 0.0313725 0.521569 0.54902 
0.0313725 0.521569 0.54902 0.0313725 0.521569 0.54902 
0.0313725 0.521569 0.54902 0.0313725 0.521569 0.54902 
0.0313725 0.521569 0.54902 0.0313725 0.521569 0.54902 
0.0313725 0.521569 0.54902 0.0313725 0.521569 0.54902 
0.0313725 0.521569 0.54902 0.0313725 0.521569 0.54902 
0.0313725 0.521569 0.54902 0.0313725 0.521569 0.54902 
0.0313725 0.521569 0.54902 0.0313725 0.521569 0.54902 
0.0313725 0.521569 0.54902 0.0313725 0.521569 0.54902 
0.0313725 0.521569 0.54902 0.0313725 0.521569 0.54902 
0.0313725 0.521569 0.54902 0.0313725 0.521569 0.54902 
0.0313725 0.521569 0.54902 0.0313725 0.521569 0.54902 
0.0313725 0.521569 0.54902 0.0313725 0.521569 0.54902 
0.0313725 0.521569 0.54902 0.0313725 0.521569 0.54902 
0.0313725 0.521569 0.54902 0.0313725 0.521569 0.54902 
0.0313725 0.521569 0.54902 0.0313725 0.521569 0.54902 
0.0313725 0.521569 0.54902 0.0313725 0.521569 0.54902 
0.0313725 0.521569 0.54902 0.0313725 0.521569 0.54902 
0.0313725 0.521569 0.54902 0.0313725 0.521569 0.54902 
0.0313725 0.521569 0.54902 0.0313725 0.521569 0.54902 
0.0313725 0.521569 0.54902 0.0313725 0.521569 0.54902 
0.0313725 0.521569 0.54902 0.0313725 0.521569 0.54902 
0.0313725 0.521569 0.54902 0.0313725 0.521569 0.54902 
0.0313725 0.521569 0.54902 0.0313725 0.521569 0.54902 
0.0313725 0.521569 0.54902 0.0313725 0.521569 0.54902 
0.0313725 0.521569 0.54902 0.0313725 0.521569 0.54902 
0.0313725 0.521569 0.54902 0.0313725 0.521569 0.54902 
0.0313725 0.521569 0.54902 0.0313725 0.521569 0.54902 
0.0313725 0.521569 0.54902 0.0313725 0.521569 0.54902 
0.0313725 0.521569 0.54902 0.0313725 0.521569 0.54902 
0.0313725 0.521569 0.54902 0.0313725 0.521569 0.54902 
0.0313725 0.521569 0.54902 0.0313725 0.521569 0.54902 
0.0313725 0.521569 0.54902 0.0313725 0.521569 0.54902 
0.0313725 0.521569 0.54902 0.0313725 0.521569 0.54902 
0.0313725 0.521569 0.54902 0.0313725 0.521569 0.54902 
0.0313725 0.521569 0.54902 0.0313725 0.521569 0.54902 
0.0313725 0.521569 0.54902 0.0313725 0.521569 0.54902 
0.0313725 0.521569 0.54902 0.0313725 0.521569 0.54902 
0.0313725 0.521569 0.54902 0.0313725 0.521569 0.54902 
0.0313725 0.521569 0.54902 0.0313725 0.521569 0.54902 
0.0313725 0.521569 0.54902 0.0313725 0.521569 0.54902 
0.0313725 0.521569 0.54902 0.0313725 0.521569 0.54902 
0.0313725 0.521569 0.54902 0.0313725 0.521569 0.54902 
0.0313725 0.521569 0.54902 0.0313725 0.521569 0.54902 
0.0313725 0.521569 0.54902 0.0313725 0.521569 0.54902 
0.0313725 0.521569 0.54902 0.0313725 0.521569 0.54902 
0.0313725 0.521569 0.54902 0.0313725 0.521569 0.54902 
0.0313725 0.521569 0.54902 0.0313725 0.521569 0.54902 
0.0313725 0.521569 0.54902 0.0313725 0.521569 0.54902 
0.0313725 0.521569 0.54902 0.0313725 0.521569 0.54902 
0.0313725 0.521569 0.54902 0.0313725 0.521569 0.54902 
0.0313725 0.521569 0.54902 0.0313725 0.521569 0.54902 
0.0313725 0.521569 0.54902 0.0313725 0.521569 0.54902 
0.0313725 0.521569 0.54902 0.0313725 0.521569 0.54902 
0.0313725 0.521569 0.54902 0.0313725 0.521569 0.54902 
0.0313725 0.521569 0.54902 0.0313725 0.521569 0.54902 
0.0313725 0.521569 0.54902 0.0313725 0.521569 0.54902 
0.0313725 0.521569 0.54902 0.0313725 0.521569 0.54902 
0.0313725 0.521569 0.54902 0.0313725 0.521569 0.54902 
0.0313725 0.521569 0.54902 0.0313725 0.521569 0.54902 
0.0313725 0.521569 0.54902 0.0313725 0.521569 0.54902 
0.0313725 0.521569 0.54902 0.0313725 0.521569 0.54902 
0.0313725 0.521569 0.54902 0.0313725 0.521569 0.54902 
0.0313725 0.521569 0.54902 0.0313725 0.521569 0.54902 
0.0313725 0.521569 0.54902 0.0313725 0.521569 0.54902 
0.0313725 0.521569 0.54902 0.0313725 0.521569 0.54902 
0.0313725 0.521569 0.54902 0.0313725 0.521569 0.54902 
0.0313725 0.521569 0.54902 0.0313725 0.521569 0.54902 
0.0313725 0.521569 0.54902 0.0313725 0.521569 0.54902 
0.0313725 0.521569 0.54902 0.0313725 0.521569 0.54902 
0.0313725 0.521569 0.54902 0.0313725 0.521569 0.54902 
0.0313725 0.521569 0.54902 0.0313725 0.521569 0.54902 
0.0313725 0.521569 0.54902 0.0313725 0.521569 0.54902 
0.0313725 0.521569 0.54902 0.0313725 0.521569 0.54902 
0.0313725 0.521569 0.54902 0.0313725 0.521569 0.54902 
0.0313725 0.521569 0.54902 0.0313725 0.521569 0.54902 
0.0313725 0.521569 0.54902 0.0313725 0.521569 0.54902 
0.0313725 0.521569 0.54902 0.0313725 0.521569 0.54902 
0.0313725 0.521569 0.54902 0.0313725 0.521569 0.54902 
0.0313725 0.521569 0.54902 0.0313725 0.521569 0.54902 
0.0313725 0.521569 0.54902 0.0313725 0.521569 0.54902 
0.0313725 0.521569 0.54902 0.0313725 0.521569 0.54902 
0.0313725 0.521569 0.54902 0.0313725 0.521569 0.54902 
0.0313725 0.521569 0.54902 0.0313725 0.521569 0.54902 
0.0313725 0.521569 0.54902 0.0313725 0.521569 0.54902 
0.0313725 0.521569 0.54902 0.0313725 0.521569 0.54902 
0.0313725 0.521569 0.54902 0.0313725 0.521569 0.54902 
0.0313725 0.521569 0.54902 0.0313725 0.521569 0.54902 
0.0313725 0.521569 0.54902 0.0313725 0.521569 0.54902 
0.0313725 0.521569 0.54902 0.0313725 0.521569 0.54902 
0.0313725 0.521569 0.54902 0.0313725 0.521569 0.54902 
0.0313725 0.521569 0.54902 0.0313725 0.521569 0.54902 
0.0313725 0.521569 0.54902 0.0313725 0.521569 0.54902 
0.0313725 0.521569 0.54902 0.0313725 0.521569 0.54902 
0.0313725 0.521569 0.54902 0.0313725 0.521569 0.54902 
0.0313725 0.521569 0.54902 0.0313725 0.521569 0.54902 
0.0313725 0.521569 0.54902 0.0313725 0.521569 0.54902 
0.0313725 0.521569 0.54902 0.0313725 0.521569 0.54902 
0.0313725 0.521569 0.54902 0.0313725 0.521569 0.54902 
0.0313725 0.521569 0.54902 0.0313725 0.521569 0.54902 
0.0313725 0.521569 0.54902 0.0313725 0.521569 0.54902 
0.0313725 0.521569 0.54902 0.0313725 0.521569 0.54902 
0.0313725 0.521569 0.54902 0.0313725 0.521569 0.54902 
0.0313725 0.521569 0.54902 0.0313725 0.521569 0.54902 
0.0313725 0.521569 0.54902 0.0313725 0.521569 0.54902 
0.0313725 0.521569 0.54902 0.0313725 0.521569 0.54902 
0.0313725 0.521569 0.54902 0.0313725 0.521569 0.54902 
0.0313725 0.521569 0.54902 0.0313725 0.521569 0.54902 
0.0313725 0.521569 0.54902 0.0313725 0.521569 0.54902 
0.0313725 0.521569 0.54902 0.0313725 0.521569 0.54902 
0.0313725 0.521569 0.54902 0.0313725 0.521569 0.54902 
0.0313725 0.521569 0.54902 0.0313725 0.521569 0.54902 
0.0313725 0.521569 0.54902 0.0313725 0.521569 0.54902 
0.0313725 0.521569 0.54902 0.0313725 0.521569 0.54902 
0.0313725 0.521569 0.54902 0.0313725 0.521569 0.54902 
0.0313725 0.521569 0.54902 0.0313725 0.521569 0.54902 
0.0313725 0.521569 0.54902 0.0313725 0.521569 0.54902 
0.0313725 0.521569 0.54902 0.0313725 0.521569 0.54902 
0.0313725 0.521569 0.54902 0.0313725 0.521569 0.54902 
0.0313725 0.521569 0.54902 0.0313725 0.521569 0.54902 
0.0313725 0.521569 0.54902 0.0313725 0.521569 0.54902 
0.0313725 0.521569 0.54902 0.0313725 0.521569 0.54902 
0.0313725 0.521569 0.54902 0.0313725 0.521569 0.54902 
0.0313725 0.521569 0.54902 0.0313725 0.521569 0.54902 
0.0313725 0.521569 0.54902 0.0313725 0.521569 0.54902 
0.0313725 0.521569 0.54902 0.0313725 0.521569 0.54902 
0.0313725 0.521569 0.54902 0.0313725 0.521569 0.54902 
0.0313725 0.521569 0.54902 0.0313725 0.521569 0.54902 
0.0313725 0.521569 0.54902 0.0313725 0.521569 0.54902 
0.0313725 0.521569 0.54902 0.0313725 0.521569 0.54902 
0.0313725 0.521569 0.54902 0.0313725 0.521569 0.54902 
0.0313725 0.521569 0.54902 0.0313725 0.521569 0.54902 
0.0313725 0.521569 0.54902 0.0313725 0.521569 0.54902 
0.0313725 0.521569 0.54902 0.0313725 0.521569 0.54902 
0.0313725 0.521569 0.54902 0.0313725 0.521569 0.54902 
0.0313725 0.521569 0.54902 0.0313725 0.521569 0.54902 
0.0313725 0.521569 0.54902 0.0313725 0.521569 0.54902 
0.0313725 0.521569 0.54902 0.0313725 0.521569 0.54902 
0.0313725 0.521569 0.54902 0.0313725 0.521569 0.54902 
0.0313725 0.521569 0.54902 0.0313725 0.521569 0.54902 
0.0313725 0.521569 0.54902 0.0313725 0.521569 0.54902 
0.0313725 0.521569 0.54902 0.0313725 0.521569 0.54902 
0.0313725 0.521569 0.54902 0.0313725 0.521569 0.54902 
0.0313725 0.521569 0.54902 0.0313725 0.521569 0.54902 
0.0313725 0.521569 0.54902 0.0313725 0.521569 0.54902 
0.0313725 0.521569 0.54902 0.0313725 0.521569 0.54902 
0.0313725 0.521569 0.54902 0.0313725 0.521569 0.54902 
0.0313725 0.521569 0.54902 0.0313725 0.521569 0.54902 
0.0313725 0.521569 0.54902 0.0313725 0.521569 0.54902 
0.0313725 0.521569 0.54902 0.0313725 0.521569 0.54902 
0.0313725 0.521569 0.54902 0.0313725 0.521569 0.54902 
0.0313725 0.521569 0.54902 0.0313725 0.521569 0.54902 
0.0313725 0.521569 0.54902 0.0313725 0.521569 0.54902 
0.0313725 0.521569 0.54902 0.0313725 0.521569 0.54902 
0.0313725 0.521569 0.54902 0.0313725 0.521569 0.54902 
0.0313725 0.521569 0.54902 0.0313725 0.521569 0.54902 
0.0313725 0.521569 0.54902 0.0313725 0.521569 0.54902 
0.0313725 0.521569 0.54902 0.0313725 0.521569 0.54902 
0.0313725 0.521569 0.54902 0.0313725 0.521569 0.54902 
0.0313725 0.521569 0.54902 0.0313725 0.521569 0.54902 
0.0313725 0.521569 0.54902 0.0313725 0.521569 0.54902 
0.0313725 0.521569 0.54902 0.0313725 0.521569 0.54902 
0.0313725 0.521569 0.54902 0.0313725 0.521569 0.54902 
0.0313725 0.521569 0.54902 0.0313725 0.521569 0.54902 
0.0313725 0.521569 0.54902 0.0313725 0.521569 0.54902 
0.0313725 0.521569 0.54902 0.0313725 0.521569 0.54902 
0.0313725 0.521569 0.54902 0.0313725 0.521569 0.54902 
0.0313725 0.521569 0.54902 0.0313725 0.521569 0.54902 
0.0313725 0.521569 0.54902 0.0313725 0.521569 0.54902 
0.0313725 0.521569 0.54902 0.0313725 0.521569 0.54902 
0.0313725 0.521569 0.54902 0.0313725 0.521569 0.54902 
0.0313725 0.521569 0.54902 0.0313725 0.521569 0.54902 
0.0313725 0.521569 0.54902 0.0313725 0.521569 0.54902 
0.0313725 0.521569 0.54902 0.0313725 0.521569 0.54902 
0.0313725 0.521569 0.54902 0.0313725 0.521569 0.54902 
0.0313725 0.521569 0.54902 0.0313725 0.521569 0.54902 
0.0313725 0.521569 0.54902 0.0313725 0.521569 0.54902 
0.0313725 0.521569 0.54902 0.0313725 0.521569 0.54902 
0.0313725 0.521569 0.54902 0.0313725 0.521569 0.54902 
0.0313725 0.521569 0.54902 0.0313725 0.521569 0.54902 
0.0313725 0.521569 0.54902 0.0313725 0.521569 0.54902 
0.0313725 0.521569 0.54902 0.0313725 0.521569 0.54902 
0.0313725 0.521569 0.54902 0.0313725 0.521569 0.54902 
0.0313725 0.521569 0.54902 0.0313725 0.521569 0.54902 
0.0313725 0.521569 0.54902 0.0313725 0.521569 0.54902 
0.0313725 0.521569 0.54902 0.0313725 0.521569 0.54902 
0.0313725 0.521569 0.54902 0.0313725 0.521569 0.54902 
0.0313725 0.521569 0.54902 0.0313725 0.521569 0.54902 
0.0313725 0.521569 0.54902 0.0313725 0.521569 0.54902 
0.0313725 0.521569 0.54902 0.0313725 0.521569 0.54902 
0.0313725 0.521569 0.54902 0.0313725 0.521569 0.54902 
0.0313725 0.521569 0.54902 0.0313725 0.521569 0.54902 
0.0313725 0.521569 0.54902 0.0313725 0.521569 0.54902 
0.0313725 0.521569 0.54902 0.0313725 0.521569 0.54902 
0.0313725 0.521569 0.54902 0.0313725 0.521569 0.54902 
0.0313725 0.521569 0.54902 0.0313725 0.521569 0.54902 
0.0313725 0.521569 0.54902 0.0313725 0.521569 0.54902 
0.0313725 0.521569 0.54902 0.0313725 0.521569 0.54902 
0.0313725 0.521569 0.54902 0.0313725 0.521569 0.54902 
0.0313725 0.521569 0.54902 0.0313725 0.521569 0.54902 
0.0313725 0.521569 0.54902 0.0313725 0.521569 0.54902 
0.0313725 0.521569 0.54902 0.0313725 0.521569 0.54902 
0.0313725 0.521569 0.54902 0.0313725 0.521569 0.54902 
0.0313725 0.521569 0.54902 0.0313725 0.521569 0.54902 
0.0313725 0.521569 0.54902 0.0313725 0.521569 0.54902 
0.0313725 0.521569 0.54902 0.0313725 0.521569 0.54902 
0.0313725 0.521569 0.54902 0.0313725 0.521569 0.54902 
0.0313725 0.521569 0.54902 0.0313725 0.521569 0.54902 
0.0313725 0.521569 0.54902 0.0313725 0.521569 0.54902 
0.0313725 0.521569 0.54902 0.0313725 0.521569 0.54902 
0.0313725 0.521569 0.54902 0.0313725 0.521569 0.54902 
0.0313725 0.521569 0.54902 0.0313725 0.521569 0.54902 
0.0313725 0.521569 0.54902 0.0313725 0.521569 0.54902 
0.0313725 0.521569 0.54902 0.0313725 0.521569 0.54902 
0.0313725 0.521569 0.54902 0.0313725 0.521569 0.54902 
0.0313725 0.521569 0.54902 0.0313725 0.521569 0.54902 
0.0313725 0.521569 0.54902 0.0313725 0.521569 0.54902 
0.0313725 0.521569 0.54902 0.0313725 0.521569 0.54902 
0.0313725 0.521569 0.54902 0.0313725 0.521569 0.54902 
0.0313725 0.521569 0.54902 0.0313725 0.521569 0.54902 
0.0313725 0.521569 0.54902 0.0313725 0.521569 0.54902 
0.0313725 0.521569 0.54902 0.0313725 0.521569 0.54902 
0.0313725 0.521569 0.54902 0.0313725 0.521569 0.54902 
0.0313725 0.521569 0.54902 0.0313725 0.521569 0.54902 
0.0313725 0.521569 0.54902 0.0313725 0.521569 0.54902 
0.0313725 0.521569 0.54902 0.0313725 0.521569 0.54902 
0.0313725 0.521569 0.54902 0.0313725 0.521569 0.54902 
0.0313725 0.521569 0.54902 0.0313725 0.521569 0.54902 
0.0313725 0.521569 0.54902 0.0313725 0.521569 0.54902 
0.0313725 0.521569 0.54902 0.0313725 0.521569 0.54902 
0.0313725 0.521569 0.54902 0.0313725 0.521569 0.54902 
0.0313725 0.521569 0.54902 0.0313725 0.521569 0.54902 
0.0313725 0.521569 0.54902 0.0313725 0.521569 0.54902 
0.0313725 0.521569 0.54902 0.0313725 0.521569 0.54902 
0.0313725 0.521569 0.54902 0.0313725 0.521569 0.54902 
0.0313725 0.521569 0.54902 0.0313725 0.521569 0.54902 
0.0313725 0.521569 0.54902 0.0313725 0.521569 0.54902 
0.0313725 0.521569 0.54902 0.0313725 0.521569 0.54902 
0.0313725 0.521569 0.54902 0.0313725 0.521569 0.54902 
0.0313725 0.521569 0.54902 0.0313725 0.521569 0.54902 
0.0313725 0.521569 0.54902 0.0313725 0.521569 0.54902 
0.0313725 0.521569 0.54902 0.0313725 0.521569 0.54902 
0.0313725 0.521569 0.54902 0.0313725 0.521569 0.54902 
0.0313725 0.521569 0.54902 0.0313725 0.521569 0.54902 
0.0313725 0.521569 0.54902 0.0313725 0.521569 0.54902 
0.0313725 0.521569 0.54902 0.0313725 0.521569 0.54902 
0.0313725 0.521569 0.54902 0.0313725 0.521569 0.54902 
0.0313725 0.521569 0.54902 0.0313725 0.521569 0.54902 
0.0313725 0.521569 0.54902 0.0313725 0.521569 0.54902 
0.0313725 0.521569 0.54902 0.0313725 0.521569 0.54902 
0.0313725 0.521569 0.54902 0.0313725 0.521569 0.54902 
0.0313725 0.521569 0.54902 0.0313725 0.521569 0.54902 
0.0313725 0.521569 0.54902 0.0313725 0.521569 0.54902 
0.0313725 0.521569 0.54902 0.0313725 0.521569 0.54902 
0.0313725 0.521569 0.54902 0.0313725 0.521569 0.54902 
0.0313725 0.521569 0.54902 0.0313725 0.521569 0.54902 
0.0313725 0.521569 0.54902 0.0313725 0.521569 0.54902 
0.0313725 0.521569 0.54902 0.0313725 0.521569 0.54902 
0.0313725 0.521569 0.54902 0.0313725 0.521569 0.54902 
0.0313725 0.521569 0.54902 0.0313725 0.521569 0.54902 
0.0313725 0.521569 0.54902 0.0313725 0.521569 0.54902 