# vtk DataFile Version 4.2
vtk output
ASCII
DATASET POLYDATA
POINTS 850 float
344.123 81.8738 83.5199 343.971 81.8369 83.5668 344.152 82.0581 83.5829 
348.455 82.8639 83.2454 348.32 82.5866 83.3601 348.213 82.9513 83.2742 
348.591 83.0718 83.234 349.465 83.5127 83.1437 350.951 84.2531 83.2205 
354.356 84.8855 83.3927 354.621 84.8461 83.4486 354.484 85.0899 83.3993 
356.582 85.9529 83.4335 356.335 86.0299 83.4328 342.39 80.4256 84.324 
341.992 81.3429 84.3497 341.641 81.4011 84.5651 343.603 81.6671 83.7722 
347.888 82.1514 83.5293 343.949 82.7817 83.7905 349.263 83.155 83.2601 
345.161 83.4793 83.712 345.863 83.4419 83.5904 348.335 83.5375 83.3051 
353.774 84.1776 83.5987 355.956 85.2599 83.5826 354.243 85.6131 83.4355 
358.663 86.4035 83.7611 356.331 86.547 83.496 359.512 87.0708 83.764 
363.063 87.6678 84.1496 359.867 88.6395 83.7231 360.814 88.5441 83.7326 
362.586 89.7688 83.8123 367.553 90.5419 84.1633 367.285 90.8006 84.1371 
368.092 90.8636 84.1666 369.999 92.0151 84.3172 370.263 92.4024 84.3767 
341.276 81.1069 84.866 341.426 81.6489 84.8216 341.76 82.5161 84.8433 
344.043 83.9894 84.4307 352.524 86.7283 83.8595 352.828 87.1982 84.0786 
364.818 87.6029 84.6739 357.458 88.7363 84.0501 357.833 89.2324 84.2837 
366.04 88.7759 84.4226 370.942 91.6857 84.6168 373.505 93.6068 84.9083 
374.12 93.338 85.0534 372.234 94.1423 84.8539 373.945 94.1598 85.0977 
374.503 94.0014 85.1967 376.169 94.6004 85.8258 376.29 94.6931 85.9721 
340.847 80.348 85.4206 340.73 80.9648 85.6052 356.416 83.0319 85.0515 
341.804 83.2617 85.5827 342.701 84.0076 85.468 345.264 84.7543 84.607 
343.53 84.583 85.6691 344.29 84.8899 85.437 344.746 85.1868 85.6431 
347.156 85.6513 84.6863 347.348 86.1296 85.2088 348.13 86.6153 85.5642 
367.933 88.9231 85.0184 371.965 91.2285 85.0953 374.387 92.398 85.4041 
362.424 92.0725 85.4695 364.182 92.5606 85.1764 367.113 92.9595 84.7735 
376.401 93.529 86.0935 376.538 94.1099 86.1038 371.613 94.5816 85.0331 
373.801 95.382 85.562 374.118 95.5989 85.7401 375.814 95.5657 86.3457 
340.988 78.0063 86.7201 340.768 78.6099 86.4986 341.794 77.6575 86.5267 
340.773 82.0718 86.7258 343.745 84.8644 86.1473 344.171 85.0898 86.2777 
346.07 85.8232 86.1748 346.765 86.1346 85.9351 347.193 86.3507 86.1176 
348.41 86.8354 85.9412 348.943 87.0288 86.0892 353.385 88.7078 86.4892 
353.29 88.6172 86.0299 355.141 89.1985 85.7984 357.685 90.3394 86.1964 
373.975 91.213 85.8853 361.49 92.2536 86.9663 362.759 92.7643 86.549 
365.953 93.7088 85.7413 376.924 94.2904 86.4643 364.608 93.7332 86.8589 
376.751 95.3741 86.9262 340.561 77.7532 87.4516 341.098 82.7418 87.4987 
342.551 84.1927 86.7687 343.219 84.4697 87.1961 344.327 85.1242 86.6932 
347.348 86.3769 86.5847 348.227 86.693 86.7668 349.142 86.7834 87.6362 
353.183 88.5625 86.9975 358.223 90.6253 87.4506 378.018 93.2242 87.7394 
362.065 92.5562 87.4113 364.965 94.1137 87.5227 367.761 95.7703 87.8845 
371.131 97.0602 87.3422 373.022 97.3854 87.272 340.343 76.2875 88.8285 
339.801 77.2332 88.8726 340.424 81.5559 87.9924 341.36 83.0785 87.6491 
341.478 83.0818 88.0045 346.743 85.6552 88.0639 376.848 90.9925 87.7666 
377.486 91.748 87.7934 362.14 92.4527 88.3874 377.94 92.7056 87.8107 
363.897 93.4982 88.1188 378.334 93.7875 88.327 368.082 96.1224 88.4746 
375.672 97.0963 88.1596 373.241 98.2256 88.5532 373.566 98.2595 88.696 
339.75 76.1255 89.6716 339.774 77.8898 88.5882 339.721 79.3372 88.7956 
339.684 79.4278 89.7356 340.097 80.7778 88.615 357.871 89.7389 89.3085 
378.466 92.2936 88.6285 368.1 96.0662 89.3978 368.813 96.5833 89.2897 
370.177 97.2788 89.176 372.831 98.227 88.6512 374.364 98.133 89.1301 
372.112 98.2184 89.3142 372.494 98.3686 89.2642 373.562 98.4524 89.3347 
340.306 73.8163 91.0933 339.436 78.5021 90.5202 340.039 80.1078 90.3334 
340.197 80.8301 89.4444 361.079 91.136 89.9781 377.022 96.7722 90.0589 
372.295 98.1929 89.9578 374.623 98.188 89.9251 373.116 98.5296 89.6139 
340.551 73.3664 91.425 339.328 75.0749 91.4127 352.503 76.7828 90.4014 
339.475 78.4811 91.4257 340.646 81.2328 90.0645 376.445 87.8226 90.3929 
371.272 97.3176 90.7745 372.412 98.0266 90.4054 373.638 98.4225 89.9657 
340.221 72.2707 92.8191 339.02 75.1587 92.2435 339.063 76.8974 92.1971 
340.027 79.0473 92.4135 340.707 79.9976 92.0419 379.847 88.9635 91.7742 
381.152 90.3115 92.6282 380.628 92.664 92.7072 373.458 97.5889 91.664 
339.504 72.6938 93.2796 339.44 77.6991 93.1569 381.795 89.0271 93.7061 
378.789 95.2176 92.9153 377.323 96.5266 91.9633 374.972 96.9588 92.8756 
339.605 71.7756 94.2113 342.758 71.0388 94.2164 341.348 79.0997 94.0023 
353.945 84.3502 93.9071 379.967 86.9326 93.6501 380.614 93.0738 93.6901 
372.407 95.8436 93.5569 355.28 75.0639 94.3938 339.183 76.3044 95.1409 
339.404 76.9948 94.7069 339.368 76.9201 94.9048 340.211 77.8836 94.5532 
340.671 78.0439 94.8508 340.96 77.9109 95.2902 362.498 77.8369 94.9969 
382.501 89.682 95.3231 382.367 90.226 95.4849 375.661 95.7501 94.616 
378.134 95.5654 93.7431 376.87 96.258 93.5887 378.083 95.4114 94.2769 
340.951 69.4117 96.6214 338.241 71.9958 96.5561 339.436 76.8476 95.0648 
368.246 80.0668 95.9267 377.377 84.0996 96.0778 379.678 85.4536 95.513 
382.507 87.5682 95.6546 382.786 88.0164 96.2984 382.693 89.159 95.9089 
380.122 93.5129 95.4815 376.683 95.2206 95.2565 379.05 94.3747 95.4141 
339.004 68.9553 98.0315 338.832 69.2808 97.6969 338.953 69.4778 97.3029 
338.617 69.761 97.4777 339.635 69.0566 97.4321 338.315 70.467 97.3975 
338.023 72.1316 97.4256 350.807 72.4269 96.6141 351.068 72.4154 97.0959 
356.013 74.3648 96.8521 338.502 74.4718 97.4802 363.342 77.6431 96.4442 
364.655 78.2902 96.3961 364.855 78.3069 96.8149 376.447 83.4653 96.5811 
378.724 84.594 96.5439 379.012 84.6232 96.9957 381.319 85.8256 96.763 
381.801 86.0109 96.8751 382.445 86.9568 96.3508 382.837 87.8585 96.9441 
382.103 90.7496 96.5676 381.24 91.869 97.1503 380.187 92.9161 96.9341 
378.426 94.0706 96.4637 338.868 68.8091 98.5498 340.321 68.6687 98.0451 
340.855 68.7963 97.9135 346.181 70.3703 97.748 348.309 71.2423 97.6268 
349.766 71.7595 97.6113 351.579 72.6137 97.848 338.412 73.9895 98.3507 
356.884 74.675 97.4481 338.451 74.3952 97.95 338.486 74.4731 97.9992 
338.594 74.6082 97.8332 338.851 74.7578 97.9817 363.008 77.4868 97.2863 
363.959 77.8389 96.953 365.213 78.5241 97.5792 354.004 81.2834 97.8813 
375.911 83.0997 97.4609 379.436 84.8135 97.2563 379.56 84.8847 97.6661 
381.979 86.0693 97.0463 382.658 86.7954 96.9862 382.768 86.7597 97.2225 
382.705 86.6654 97.2331 382.759 86.7333 97.3053 382.728 86.9277 97.2888 
382.816 88.559 97.2431 382.65 88.4396 97.7152 381.062 91.7721 97.8827 
380.24 92.5493 97.7111 339.58 68.3929 98.9737 339.917 68.333 99.0052 
339.826 68.3087 99.3493 341.322 68.6588 98.9022 337.981 69.9294 98.7324 
345.028 69.8959 98.4066 347.373 70.8306 98.4234 350.081 71.9793 98.3011 
351.274 72.5008 98.0656 338.116 73.0685 99.1176 355.175 74.0261 97.7822 
338.193 73.4384 99.1 338.252 73.5734 99.0808 355.861 74.4313 98.2394 
357.088 74.8395 97.8587 358.289 75.6424 98.5577 362.513 77.5039 98.3609 
363.069 78.0103 98.915 364.575 78.2885 97.8551 379.248 84.9111 98.3688 
380.735 85.6124 97.9479 381.426 85.97 97.9095 381.557 86.2251 98.2483 
381.798 86.5291 98.3397 382.616 86.6619 97.3988 382.126 86.7547 98.1813 
382.251 89.6125 98.0017 377.718 92.4068 98.8328 378.609 92.4026 98.8148 
379.552 92.5576 98.3548 338.469 68.5589 100.169 338.163 68.8265 100.007 
338.838 68.4053 100.155 339.152 68.355 99.9449 338.176 68.9323 99.5916 
341.699 68.8779 99.6 344.832 70.172 99.6389 337.631 71.0403 100.078 
350.024 72.1737 98.8069 353.103 73.763 99.1469 338.178 72.6425 100.083 
338.431 73.2216 99.7355 353.212 74.1044 99.5282 354.753 74.4349 99.0903 
355.063 74.985 99.5847 356.711 75.2958 99.1084 345.346 75.8565 100.014 
357.532 76.3273 99.7383 360.27 77.1327 99.3113 361.219 77.893 99.6772 
364.694 79.1152 99.3436 356.365 80.8366 99.5608 358.488 81.7297 99.8166 
371.651 81.9853 99.6104 375.243 82.967 98.6134 379.59 85.4102 98.8485 
379.293 86.2172 99.9386 381.253 86.3779 98.6282 380.608 86.8642 99.5178 
380.927 87.3115 99.5453 381.525 90.0027 98.8756 376.204 91.0902 99.9077 
381.046 90.7277 99.0772 380.278 91.599 99.1807 338.431 68.595 100.629 
339.194 68.4292 100.468 339.534 68.5685 100.81 340.385 68.5261 100.077 
339.934 68.7007 100.849 337.836 69.6093 100.387 340.89 69.505 101.23 
341.598 69.3228 100.682 342.981 69.7616 100.353 337.715 70.0426 99.9654 
341.415 69.5027 101.008 343.744 70.2587 100.529 343.403 70.3247 100.827 
340.023 73.8248 100.409 354.891 75.3821 99.9324 354.694 76.062 100.311 
356.851 76.293 99.9302 355.643 76.8439 100.444 356.63 76.9008 100.278 
356.344 77.5 100.524 360.867 79.7984 100.618 362.726 79.8846 100.445 
367.545 81.7367 100.666 373.826 83.6283 100.366 375.63 83.7146 99.6195 
372.28 83.9954 101.125 363.581 84.6051 100.125 367.559 86.888 100.485 
369.287 87.9018 100.419 380.956 87.8903 99.7054 379.923 88.6191 100.645 
380.762 88.7869 99.9633 380.033 91.4239 99.5393 338.25 68.7914 100.786 
338.421 68.6868 100.909 338.737 68.5749 100.856 338.87 68.7592 101.217 
338.297 68.8935 101.007 339.161 68.812 101.29 338.996 68.9144 101.401 
337.897 69.7778 100.838 340.875 70.0618 101.538 342.146 70.2491 101.243 
344.682 72.2667 101.311 338.796 72.6345 100.971 342.069 73.9343 100.875 
349.33 75.2565 100.801 348.449 75.6572 100.765 348.908 75.6025 100.818 
354.624 77.1844 100.58 353.46 77.9278 100.332 358.083 80.0527 100.557 
361.13 81.851 100.616 360.467 82.008 100.432 366.723 83.2866 101.319 
367.788 83.0584 101.254 370.621 83.7812 101.268 374.36 84.6853 101.057 
374.122 85.6383 101.523 376.957 86.7959 101.219 378.222 87.753 101.137 
375.195 89.1575 101.085 376.771 89.9798 100.775 377.702 89.5403 101.024 
379.897 89.8984 100.577 379.65 90.4059 100.512 380.023 90.3545 100.502 
380.192 90.2968 100.452 380.424 90.2159 100.201 380.271 90.4742 100.333 
338.545 68.821 101.142 338.505 69.5408 101.606 339.038 70.2604 102.087 
338.235 71.2229 101.839 338.282 71.5766 101.622 338.419 71.442 101.89 
[...]
POINT_DATA 850
COLOR_SCALARS scalars 3
0.0313725 0.521569 0.54902 0.0313725 0.521569 0.54902 0.0313725 0.521569 0.54902 
0.0313725 0.521569 0.54902 0.0313725 0.521569 0.54902 
0.0313725 0.521569 0.54902 0.0313725 0.521569 0.54902 
0.0313725 0.521569 0.54902 0.0313725 0.521569 0.54902 
0.0313725 0.521569 0.54902 0.0313725 0.521569 0.54902 
0.0313725 0.521569 0.54902 0.0313725 0.521569 0.54902 
0.0313725 0.521569 0.54902 0.0313725 0.521569 0.54902 
0.0313725 0.521569 0.54902 0.0313725 0.521569 0.54902 
0.0313725 0.521569 0.54902 0.0313725 0.521569 0.54902 
0.0313725 0.521569 0.54902 0.0313725 0.521569 0.54902 
0.0313725 0.521569 0.54902 0.0313725 0.521569 0.54902 
0.0313725 0.521569 0.54902 0.0313725 0.521569 0.54902 
0.0313725 0.521569 0.54902 0.0313725 0.521569 0.54902 
0.0313725 0.521569 0.54902 0.0313725 0.521569 0.54902 
0.0313725 0.521569 0.54902 0.0313725 0.521569 0.54902 
0.0313725 0.521569 0.54902 0.0313725 0.521569 0.54902 
0.0313725 0.521569 0.54902 0.0313725 0.521569 0.54902 
0.0313725 0.521569 0.54902 0.0313725 0.521569 0.54902 
0.0313725 0.521569 0.54902 0.0313725 0.521569 0.54902 
0.0313725 0.521569 0.54902 0.0313725 0.521569 0.54902 
0.0313725 0.521569 0.54902 0.0313725 0.521569 0.54902 
0.0313725 0.521569 0.54902 0.0313725 0.521569 0.54902 
0.0313725 0.521569 0.54902 0.0313725 0.521569 0.54902 
0.0313725 0.521569 0.54902 0.0313725 0.521569 0.54902 
0.0313725 0.521569 0.54902 0.0313725 0.521569 0.54902 
0.0313725 0.521569 0.54902 0.0313725 0.521569 0.54902 
0.0313725 0.521569 0.54902 0.0313725 0.521569 0.54902 
0.0313725 0.521569 0.54902 0.0313725 0.521569 0.54902 
0.0313725 0.521569 0.54902 0.0313725 0.521569 0.54902 
0.0313725 0.521569 0.54902 0.0313725 0.521569 0.54902 
0.0313725 0.521569 0.54902 0.0313725 0.521569 0.54902 
0.0313725 0.521569 0.54902 0.0313725 0.521569 0.54902 
0.0313725 0.521569 0.54902 0.0313725 0.521569 0.54902 
0.0313725 0.521569 0.54902 0.0313725 0.521569 0.54902 
0.0313725 0.521569 0.54902 0.0313725 0.521569 0.54902 
0.0313725 0.521569 0.54902 0.0313725 0.521569 0.54902 
0.0313725 0.521569 0.54902 0.0313725 0.521569 0.54902 
0.0313725 0.521569 0.54902 0.0313725 0.521569 0.54902 
0.0313725 0.521569 0.54902 0.0313725 0.521569 0.54902 
0.0313725 0.521569 0.54902 0.0313725 0.521569 0.54902 
0.0313725 0.521569 0.54902 0.0313725 0.521569 0.54902 
0.0313725 0.521569 0.54902 0.0313725 0.521569 0.54902 
0.0313725 0.521569 0.54902 0.0313725 0.521569 0.54902 
0.0313725 0.521569 0.54902 0.0313725 0.521569 0.54902 
0.0313725 0.521569 0.54902 0.0313725 0.521569 0.54902 
0.0313725 0.521569 0.54902 0.0313725 0.521569 0.54902 
0.0313725 0.521569 0.54902 0.0313725 0.521569 0.54902 
0.0313725 0.521569 0.54902 0.0313725 0.521569 0.54902 
0.0313725 0.521569 0.54902 0.0313725 0.521569 0.54902 
0.0313725 0.521569 0.54902 0.0313725 0.521569 0.54902 
0.0313725 0.521569 0.54902 0.0313725 0.521569 0.54902 
0.0313725 0.521569 0.54902 0.0313725 0.521569 0.54902 
0.0313725 0.521569 0.54902 0.0313725 0.521569 0.54902 
0.0313725 0.521569 0.54902 0.0313725 0.521569 0.54902 
0.0313725 0.521569 0.54902 0.0313725 0.521569 0.54902 
0.0313725 0.521569 0.54902 0.0313725 0.521569 0.54902 
0.0313725 0.521569 0.54902 0.0313725 0.521569 0.54902 
0.0313725 0.521569 0.54902 0.0313725 0.521569 0.54902 
0.0313725 0.521569 0.54902 0.0313725 0.521569 0.54902 
0.0313725 0.521569 0.54902 0.0313725 0.521569 0.54902 
0.0313725 0.521569 0.54902 0.0313725 0.521569 0.54902 
0.0313725 0.521569 0.54902 0.0313725 0.521569 0.54902 
0.0313725 0.521569 0.54902 0.0313725 0.521569 0.54902 
0.0313725 0.521569 0.54902 0.0313725 0.521569 0.54902 
0.0313725 0.521569 0.54902 0.0313725 0.521569 0.54902 
0.0313725 0.521569 0.54902 0.0313725 0.521569 0.54902 
0.0313725 0.521569 0.54902 0.0313725 0.521569 0.54902 
0.0313725 0.521569 0.54902 0.0313725 0.521569 0.54902 
0.0313725 0.521569 0.54902 0.0313725 0.521569 0.54902 
0.0313725 0.521569 0.54902 0.0313725 0.521569 0.54902 
0.0313725 0.521569 0.54902 0.0313725 0.521569 0.54902 
0.0313725 0.521569 0.54902 0.0313725 0.521569 0.54902 
0.0313725 0.521569 0.54902 0.0313725 0.521569 0.54902 
0.0313725 0.521569 0.54902 0.0313725 0.521569 0.54902 
0.0313725 0.521569 0.54902 0.0313725 0.521569 0.54902 
0.0313725 0.521569 0.54902 0.0313725 0.521569 0.54902 
0.0313725 0.521569 0.54902 0.0313725 0.521569 0.54902 
0.0313725 0.521569 0.54902 0.0313725 0.521569 0.54902 
0.0313725 0.521569 0.54902 0.0313725 0.521569 0.54902 
0.0313725 0.521569 0.54902 0.0313725 0.521569 0.54902 
0.0313725 0.521569 0.54902 0.0313725 0.521569 0.54902 
0.0313725 0.521569 0.54902 0.0313725 0.521569 0.54902 
0.0313725 0.521569 0.54902 0.0313725 0.521569 0.54902 
0.0313725 0.521569 0.54902 0.0313725 0.521569 0.54902 
0.0313725 0.521569 0.54902 0.0313725 0.521569 0.54902 
0.0313725 0.521569 0.54902 0.0313725 0.521569 0.54902 
0.0313725 0.521569 0.54902 0.0313725 0.521569 0.54902 
0.0313725 0.521569 0.54902 0.0313725 0.521569 0.54902 
0.0313725 0.521569 0.54902 0.0313725 0.521569 0.54902 
0.0313725 0.521569 0.54902 0.0313725 0.521569 0.54902 
0.0313725 0.521569 0.54902 0.0313725 0.521569 0.54902 
0.0313725 0.521569 0.54902 0.0313725 0.521569 0.54902 
0.0313725 0.521569 0.54902 0.0313725 0.521569 0.54902 
0.0313725 0.521569 0.54902 0.0313725 0.521569 0.54902 
0.0313725 0.521569 0.54902 0.0313725 0.521569 0.54902 
0.0313725 0.521569 0.54902 0.0313725 0.521569 0.54902 
0.0313725 0.521569 0.54902 0.0313725 0.521569 0.54902 
0.0313725 0.521569 0.54902 0.0313725 0.521569 0.54902 
0.0313725 0.521569 0.54902 0.0313725 0.521569 0.54902 
0.0313725 0.521569 0.54902 0.0313725 0.521569 0.54902 
0.0313725 0.521569 0.54902 0.0313725 0.521569 0.54902 
0.0313725 0.521569 0.54902 0.0313725 0.521569 0.54902 
0.0313725 0.521569 0.54902 0.0313725 0.521569 0.54902 
0.0313725 0.521569 0.54902 0.0313725 0.521569 0.54902 
0.0313725 0.521569 0.54902 0.0313725 0.521569 0.54902 
0.0313725 0.521569 0.54902 0.0313725 0.521569 0.54902 
0.0313725 0.521569 0.54902 0.0313725 0.521569 0.54902 
0.0313725 0.521569 0.54902 0.0313725 0.521569 0.54902 
0.0313725 0.521569 0.54902 0.0313725 0.521569 0.54902 
0.0313725 0.521569 0.54902 0.0313725 0.521569 0.54902 
0.0313725 0.521569 0.54902 0.0313725 0.521569 0.54902 
0.0313725 0.521569 0.54902 0.0313725 0.521569 0.54902 
0.0313725 0.521569 0.54902 0.0313725 0.521569 0.54902 
0.0313725 0.521569 0.54902 0.0313725 0.521569 0.54902 
0.0313725 0.521569 0.54902 0.0313725 0.521569 0.54902 
0.0313725 0.521569 0.54902 0.0313725 0.521569 0.54902 
0.0313725 0.521569 0.54902 0.0313725 0.521569 0.54902 
0.0313725 0.521569 0.54902 0.0313725 0.521569 0.54902 
0.0313725 0.521569 0.54902 0.0313725 0.521569 0.54902 
0.0313725 0.521569 0.54902 0.0313725 0.521569 0.54902 
0.0313725 0.521569 0.54902 0.0313725 0.521569 0.54902 
0.0313725 0.521569 0.54902 0.0313725 0.521569 0.54902 
0.0313725 0.521569 0.54902 0.0313725 0.521569 0.54902 
0.0313725 0.521569 0.54902 0.0313725 0.521569 0.54902 
0.0313725 0.521569 0.54902 0.0313725 0.521569 0.54902 
0.0313725 0.521569 0.54902 0.0313725 0.521569 0.54902 
0.0313725 0.521569 0.54902 0.0313725 0.521569 0.54902 
0.0313725 0.521569 0.54902 0.0313725 0.521569 0.54902 
0.0313725 0.521569 0.54902 0.0313725 0.521569 0.54902 
0.0313725 0.521569 0.54902 0.0313725 0.521569 0.54902 
0.0313725 0.521569 0.54902 0.0313725 0.521569 0.54902 
0.0313725 0.521569 0.54902 0.0313725 0.521569 0.54902 
0.0313725 0.521569 0.54902 0.0313725 0.521569 0.54902 
0.0313725 0.521569 0.54902 0.0313725 0.521569 0.54902 
0.0313725 0.521569 0.54902 0.0313725 0.521569 0.54902 
0.0313725 0.521569 0.54902 0.0313725 0.521569 0.54902 
0.0313725 0.521569 0.54902 0.0313725 0.521569 0.54902 
0.0313725 0.521569 0.54902 0.0313725 0.521569 0.54902 
0.0313725 0.521569 0.54902 0.0313725 0.521569 0.54902 
0.0313725 0.521569 0.54902 0.0313725 0.521569 0.54902 
0.0313725 0.521569 0.54902 0.0313725 0.521569 0.54902 
0.0313725 0.521569 0.54902 0.0313725 0.521569 0.54902 
0.0313725 0.521569 0.54902 0.0313725 0.521569 0.54902 
0.0313725 0.521569 0.54902 0.0313725 0.521569 0.54902 
0.0313725 0.521569 0.54902 0.0313725 0.521569 0.54902 
0.0313725 0.521569 0.54902 0.0313725 0.521569 0.54902 
0.0313725 0.521569 0.54902 0.0313725 0.521569 0.54902 
0.0313725 0.521569 0.54902 0.0313725 0.521569 0.54902 
0.0313725 0.521569 0.54902 0.0313725 0.521569 0.54902 
0.0313725 0.521569 0.54902 0.0313725 0.521569 0.54902 
0.0313725 0.521569 0.54902 0.0313725 0.521569 0.54902 
0.0313725 0.521569 0.54902 0.0313725 0.521569 0.54902 
0.0313725 0.521569 0.54902 0.0313725 0.521569 0.54902 
0.0313725 0.521569 0.54902 0.0313725 0.521569 0.54902 
0.0313725 0.521569 0.54902 0.0313725 0.521569 0.54902 
0.0313725 0.521569 0.54902 0.0313725 0.521569 0.54902 
0.0313725 0.521569 0.54902 0.0313725 0.521569 0.54902 
0.0313725 0.521569 0.54902 0.0313725 0.521569 0.54902 
0.0313725 0.521569 0.54902 0.0313725 0.521569 0.54902 
0.0313725 0.521569 0.54902 0.0313725 0.521569 0.54902 
0.0313725 0.521569 0.54902 0.0313725 0.521569 0.54902 
0.0313725 0.521569 0.54902 0.0313725 0.521569 0.54902 
0.0313725 0.521569 0.54902 0.0313725 0.521569 0.54902 
0.0313725 0.521569 0.54902 0.0313725 0.521569 0.54902 
0.0313725 0.521569 0.54902 0.0313725 0.521569 0.54902 
0.0313725 0.521569 0.54902 0.0313725 0.521569 0.54902 
0.0313725 0.521569 0.54902 0.0313725 0.521569 0.54902 
0.0313725 0.521569 0.54902 0.0313725 0.521569 0.54902 
0.0313725 0.521569 0.54902 0.0313725 0.521569 0.54902 
0.0313725 0.521569 0.54902 0.0313725 0.521569 0.54902 
0.0313725 0.521569 0.54902 0.0313725 0.521569 0.54902 
0.0313725 0.521569 0.54902 0.0313725 0.521569 0.54902 
0.0313725 0.521569 0.54902 0.0313725 0.521569 0.54902 
0.0313725 0.521569 0.54902 0.0313725 0.521569 0.54902 
0.0313725 0.521569 0.54902 0.0313725 0.521569 0.54902 
0.0313725 0.521569 0.54902 0.0313725 0.521569 0.54902 
0.0313725 0.521569 0.54902 0.0313725 0.521569 0.54902 
0.0313725 0.521569 0.54902 0.0313725 0.521569 0.54902 
0.0313725 0.521569 0.54902 0.0313725 0.521569 0.54902 
0.0313725 0.521569 0.54902 0.0313725 0.521569 0.54902 
0.0313725 0.521569 0.54902 0.0313725 0.521569 0.54902 
0.0313725 0.521569 0.54902 0.0313725 0.521569 0.54902 
0.0313725 0.521569 0.54902 0.0313725 0.521569 0.54902 
0.0313725 0.521569 0.54902 0.0313725 0.521569 0.54902 
0.0313725 0.521569 0.54902 0.0313725 0.521569 0.54902 
0.0313725 0.521569 0.54902 0.0313725 0.521569 0.54902 
0.0313725 0.521569 0.54902 0.0313725 0.521569 0.54902 
0.0313725 0.521569 0.54902 0.0313725 0.521569 0.54902 
0.0313725 0.521569 0.54902 0.0313725 0.521569 0.54902 
0.0313725 0.521569 0.54902 0.0313725 0.521569 0.54902 
0.0313725 0.521569 0.54902 0.0313725 0.521569 0.54902 
0.0313725 0.521569 0.54902 0.0313725 0.521569 0.54902 
0.0313725 0.521569 0.54902 0.0313725 0.521569 0.54902 
0.0313725 0.521569 0.54902 0.0313725 0.521569 0.54902 
0.0313725 0.521569 0.54902 0.0313725 0.521569 0.54902 
0.0313725 0.521569 0.54902 0.0313725 0.521569 0.54902 
0.0313725 0.521569 0.54902 0.0313725 0.521569 0.54902 
0.0313725 0.521569 0.54902 0.0313725 0.521569 0.54902 
0.0313725 0.521569 0.54902 0.0313725 0.521569 0.54902 
0.0313725 0.521569 0.54902 0.0313725 0.521569 0.54902 
0.0313725 0.521569 0.54902 0.0313725 0.521569 0.54902 
0.0313725 0.521569 0.54902 0.0313725 0.521569 0.54902 
0.0313725 0.521569 0.54902 0.0313725 0.521569 0.54902 
0.0313725 0.521569 0.54902 0.0313725 0.521569 0.54902 
0.0313725 0.521569 0.54902 0.0313725 0.521569 0.54902 
0.0313725 0.521569 0.54902 0.0313725 0.521569 0.54902 
0.0313725 0.521569 0.54902 0.0313725 0.521569 0.54902 
0.0313725 0.521569 0.54902 0.0313725 0.521569 0.54902 
0.0313725 0.521569 0.54902 0.0313725 0.521569 0.54902 
0.0313725 0.521569 0.54902 0.0313725 0.521569 0.54902 
0.0313725 0.521569 0.54902 0.0313725 0.521569 0.54902 
0.0313725 0.521569 0.54902 0.0313725 0.521569 0.54902 
0.0313725 0.521569 0.54902 0.0313725 0.521569 0.54902 
0.0313725 0.521569 0.54902 0.0313725 0.521569 0.54902 
0.0313725 0.521569 0.54902 0.0313725 0.521569 0.54902 
0.0313725 0.521569 0.54902 0.0313725 0.521569 0.54902 
0.0313725 0.521569 0.54902 0.0313725 0.521569 0.54902 
0.0313725 0.521569 0.54902 0.0313725 0.521569 0.54902 
0.0313725 0.521569 0.54902 0.0313725 0.521569 0.54902 
0.0313725 0.521569 0.54902 0.0313725 0.521569 0.54902 
0.0313725 0.521569 0.54902 0.0313725 0.521569 0.54902 
0.0313725 0.521569 0.54902 0.0313725 0.521569 0.54902 
0.0313725 0.521569 0.54902 0.0313725 0.521569 0.54902 
0.0313725 0.521569 0.54902 0.0313725 0.521569 0.54902 
0.0313725 0.521569 0.54902 0.0313725 0.521569 0.54902 
0.0313725 0.521569 0.54902 0.0313725 0.521569 0.54902 
0.0313725 0.521569 0.54902 0.0313725 0.521569 0.54902 
0.0313725 0.521569 0.54902 0.0313725 0.521569 0.54902 
0.0313725 0.521569 0.54902 0.0313725 0.521569 0.54902 
0.0313725 0.521569 0.54902 0.0313725 0.521569 0.54902 
0.0313725 0.521569 0.54902 0.0313725 0.521569 0.54902 
0.0313725 0.521569 0.54902 0.0313725 0.521569 0.54902 
0.0313725 0.521569 0.54902 0.0313725 0.521569 0.54902 
0.0313725 0.521569 0.54902 0.0313725 0.521569 0.54902 
0.0313725 0.521569 0.54902 0.0313725 0.521569 0.54902 
0.0313725 0.521569 0.54902 0.0313725 0.521569 0.54902 
0.0313725 0.521569 0.54902 0.0313725 0.521569 0.54902 
0.0313725 0.521569 0.54902 0.0313725 0.521569 0.54902 
0.0313725 0.521569 0.54902 0.0313725 0.521569 0.54902 
0.0313725 0.521569 0.54902 0.0313725 0.521569 0.54902 
0.0313725 0.521569 0.54902 0.0313725 0.521569 0.54902 
0.0313725 0.521569 0.54902 0.0313725 0.521569 0.54902 
0.0313725 0.521569 0.54902 0.0313725 0.521569 0.54902 
0.0313725 0.521569 0.54902 0.0313725 0.521569 0.54902 
0.0313725 0.521569 0.54902 0.0313725 0.521569 0.54902 
0.0313725 0.521569 0.54902 0.0313725 0.521569 0.54902 
0.0313725 0.521569 0.54902 0.0313725 0.521569 0.54902 
0.0313725 0.521569 0.54902 0.0313725 0.521569 0.54902 
0.0313725 0.521569 0.54902 0.0313725 0.521569 0.54902 
0.0313725 0.521569 0.54902 0.0313725 0.521569 0.54902 
0.0313725 0.521569 0.54902 0.0313725 0.521569 0.54902 
0.0313725 0.521569 0.54902 0.0313725 0.521569 0.54902 
0.0313725 0.521569 0.54902 0.0313725 0.521569 0.54902 
0.0313725 0.521569 0.54902 0.0313725 0.521569 0.54902 
0.0313725 0.521569 0.54902 0.0313725 0.521569 0.54902 
0.0313725 0.521569 0.54902 0.0313725 0.521569 0.54902 
0.0313725 0.521569 0.54902 0.0313725 0.521569 0.54902 
0.0313725 0.521569 0.54902 0.0313725 0.521569 0.54902 
0.0313725 0.521569 0.54902 0.0313725 0.521569 0.54902 
0.0313725 0.521569 0.54902 0.0313725 0.521569 0.54902 
0.0313725 0.521569 0.54902 0.0313725 0.521569 0.54902 
0.0313725 0.521569 0.54902 0.0313725 0.521569 0.54902 
0.0313725 0.521569 0.54902 0.0313725 0.521569 0.54902 
0.0313725 0.521569 0.54902 0.0313725 0.521569 0.54902 
0.0313725 0.521569 0.54902 0.0313725 0.521569 0.54902 
0.0313725 0.521569 0.54902 0.0313725 0.521569 0.54902 
0.0313725 0.521569 0.54902 0.0313725 0.521569 0.54902 
0.0313725 0.521569 0.54902 0.0313725 0.521569 0.54902 
0.0313725 0.521569 0.54902 0.0313725 0.521569 0.54902 
0.0313725 0.521569 0.54902 0.0313725 0.521569 0.54902 
0.0313725 0.521569 0.54902 0.0313725 0.521569 0.54902 
0.0313725 0.521569 0.54902 0.0313725 0.521569 0.54902 
0.0313725 0.521569 0.54902 0.0313725 0.521569 0.54902 
0.0313725 0.521569 0.54902 0.0313725 0.521569 0.54902 
0.0313725 0.521569 0.54902 0.0313725 0.521569 0.54902 
0.0313725 0.521569 0.54902 0.0313725 0.521569 0.54902 
0.0313725 0.521569 0.54902 0.0313725 0.521569 0.54902 
0.0313725 0.521569 0.54902 0.0313725 0.521569 0.54902 
0.0313725 0.521569 0.54902 0.0313725 0.521569 0.54902 
0.0313725 0.521569 0.54902 0.0313725 0.521569 0.54902 
0.0313725 0.521569 0.54902 0.0313725 0.521569 0.54902 
0.0313725 0.521569 0.54902 0.0313725 0.521569 0.54902 
0.0313725 0.521569 0.54902 0.0313725 0.521569 0.54902 
0.0313725 0.521569 0.54902 0.0313725 0.521569 0.54902 
0.0313725 0.521569 0.54902 0.0313725 0.521569 0.54902 
0.0313725 0.521569 0.54902 0.0313725 0.521569 0.54902 
0.0313725 0.521569 0.54902 0.0313725 0.521569 0.54902 
0.0313725 0.521569 0.54902 0.0313725 0.521569 0.54902 
0.0313725 0.521569 0.54902 0.0313725 0.521569 0.54902 
0.0313725 0.521569 0.54902 0.0313725 0.521569 0.54902 
0.0313725 0.521569 0.54902 0.0313725 0.521569 0.54902 
0.0313725 0.521569 0.54902 0.0313725 0.521569 0.54902 
0.0313725 0.521569 0.54902 0.0313725 0.521569 0.54902 
0.0313725 0.521569 0.54902 0.0313725 0.521569 0.54902 
0.0313725 0.521569 0.54902 0.0313725 0.521569 0.54902 
0.0313725 0.521569 0.54902 0.0313725 0.521569 0.54902 
0.0313725 0.521569 0.54902 0.0313725 0.521569 0.54902 
0.0313725 0.521569 0.54902 0.0313725 0.521569 0.54902 
0.0313725 0.521569 0.54902 0.0313725 0.521569 0.54902 
0.0313725 0.521569 0.54902 0.0313725 0.521569 0.54902 
0.0313725 0.521569 0.54902 0.0313725 0.521569 0.54902 
0.0313725 0.521569 0.54902 0.0313725 0.521569 0.54902 
0.0313725 0.521569 0.54902 0.0313725 0.521569 0.54902 
0.0313725 0.521569 0.54902 0.0313725 0.521569 0.54902 
0.0313725 0.521569 0.54902 0.0313725 0.521569 0.54902 
0.0313725 0.521569 0.54902 0.0313725 0.521569 0.54902 
0.0313725 0.521569 0.54902 0.0313725 0.521569 0.54902 
0.0313725 0.521569 0.54902 0.0313725 0.521569 0.54902 
0.0313725 0.521569 0.54902 0.0313725 0.521569 0.54902 
0.0313725 0.521569 0.54902 0.0313725 0.521569 0.54902 
0.0313725 0.521569 0.54902 0.0313725 0.521569 0.54902 
0.0313725 0.521569 0.54902 0.0313725 0.521569 0.54902 
0.0313725 0.521569 0.54902 0.0313725 0.521569 0.54902 
0.0313725 0.521569 0.54902 0.0313725 0.521569 0.54902 
0.0313725 0.521569 0.54902 0.0313725 0.521569 0.54902 
0.0313725 0.521569 0.54902 0.0313725 0.521569 0.54902 
0.0313725 0.521569 0.54902 0.0313725 0.521569 0.54902 
0.0313725 0.521569 0.54902 0.0313725 0.521569 0.54902 
0.0313725 0.521569 0.54902 0.0313725 0.521569 0.54902 
0.0313725 0.521569 0.54902 0.0313725 0.521569 0.54902 
0.0313725 0.521569 0.54902 0.0313725 0.521569 0.54902 
0.0313725 0.521569 0.54902 0.0313725 0.521569 0.54902 
0.0313725 0.521569 0.54902 0.0313725 0.521569 0.54902 
0.0313725 0.521569 0.54902 0.0313725 0.521569 0.54902 
0.0313725 0.521569 0.54902 0.0313725 0.521569 0.54902 
0.0313725 0.521569 0.54902 0.0313725 0.521569 0.54902 
0.0313725 0.521569 0.54902 0.0313725 0.521569 0.54902 
0.0313725 0.521569 0.54902 0.0313725 0.521569 0.54902 
0.0313725 0.521569 0.54902 0.0313725 0.521569 0.54902 
0.0313725 0.521569 0.54902 0.0313725 0.521569 0.54902 
0.0313725 0.521569 0.54902 0.0313725 0.521569 0.54902 
0.0313725 0.521569 0.54902 0.0313725 0.521569 0.54902 
0.0313725 0.521569 0.54902 0.0313725 0.521569 0.54902 
0.0313725 0.521569 0.54902 0.0313725 0.521569 0.54902 
0.0313725 0.521569 0.54902 0.0313725 0.521569 0.54902 
0.0313725 0.521569 0.54902 0.0313725 0.521569 0.54902 
0.0313725 0.521569 0.54902 0.0313725 0.521569 0.54902 
0.0313725 0.521569 0.54902 0.0313725 0.521569 0.54902 
0.0313725 0.521569 0.54902 0.0313725 0.521569 0.54902 
0.0313725 0.521569 0.54902 0.0313725 0.521569 0.54902 
0.0313725 0.521569 0.54902 0.0313725 0.521569 0.54902 
0.0313725 0.521569 0.54902 0.0313725 0.521569 0.54902 
0.0313725 0.521569 0.54902 0.0313725 0.521569 0.54902 
0.0313725 0.521569 0.54902 0.0313725 0.521569 0.54902 
0.0313725 0.521569 0.54902 0.0313725 0.521569 0.54902 
0.0313725 0.521569 0.54902 0.0313725 0.521569 0.54902 
0.0313725 0.521569 0.54902 0.0313725 0.521569 0.54902 
0.0313725 0.521569 0.54902 0.0313725 0.521569 0.54902 
0.0313725 0.521569 0.54902 0.0313725 0.521569 0.54902 
0.0313725 0.521569 0.54902 0.0313725 0.521569 0.54902 
0.0313725 0.521569 0.54902 0.0313725 0.521569 0.54902 
0.0313725 0.521569 0.54902 0.0313725 0.521569 0.54902 
0.0313725 0.521569 0.54902 0.0313725 0.521569 0.54902 
0.0313725 0.521569 0.54902 0.0313725 0.521569 0.54902 
0.0313725 0.521569 0.54902 0.0313725 0.521569 0.54902 
0.0313725 0.521569 0.54902 0.0313725 0.521569 0.54902 
0.0313725 0.521569 0.54902 0.0313725 0.521569 0.54902 
0.0313725 0.521569 0.54902 0.0313725 0.521569 0.54902 
0.0313725 0.521569 0.54902 0.0313725 0.521569 0.54902 
0.0313725 0.521569 0.54902 0.0313725 0.521569 0.54902 
0.0313725 0.521569 0.54902 0.0313725 0.521569 0.54902 
0.0313725 0.521569 0.54902 0.0313725 0.521569 0.54902 