# vtk DataFile Version 4.2
vtk output
ASCII
DATASET POLYDATA
POINTS 1129 float
312.308 20.346 132.976 312.309 20.2141 133.096 312.186 20.4221 133.156 
312.424 20.3905 132.926 312.475 20.2131 133.024 312.685 20.353 133.012 
312.308 20.5326 132.97 312.485 20.5423 132.94 312.459 19.846 133.625 
312.797 20.0302 133.205 313.123 20.0016 133.285 313.17 19.7842 133.518 
312.106 20.3274 133.466 312.984 20.1949 133.149 312.061 20.6923 133.477 
312.419 20.7617 133.018 312.151 20.9959 133.336 312.331 21.0238 133.176 
312.629 21.0121 133.16 312.272 21.2814 133.419 312.492 21.2598 133.292 
312.422 19.7023 134.121 313.734 19.6341 133.9 311.959 20.7837 133.995 
313.692 20.9883 133.611 311.961 21.1524 134.174 314.014 21.2727 133.898 
312.434 21.9882 134.071 312.61 22.0504 134.057 312.76 19.3337 134.587 
313.836 19.2009 134.482 315.868 19.6603 134.915 311.987 20.4044 134.427 
315.55 20.2639 134.567 314.896 20.7987 134.216 311.983 21.2968 134.628 
312.197 21.7268 134.796 313.764 21.8142 134.191 312.588 22.0865 134.317 
313.557 22.1317 134.808 312.15 19.9456 134.936 316.454 19.7881 135.222 
316.04 20.4 134.904 317.317 20.1688 135.682 311.947 20.9857 135.031 
316.436 20.7954 135.27 315.082 21.3869 134.62 316.043 21.3194 135.251 
312.234 21.7077 135.424 315.923 21.6272 135.428 316.313 21.4913 135.612 
312.871 22.1315 135.226 316.083 18.5438 135.874 317.689 20.2834 135.97 
318.224 19.8465 136.283 317.376 21.0226 136.151 316.563 21.54 135.991 
312.43 21.8917 135.644 313.27 22.1371 135.829 313.941 22.1821 135.888 
314.69 22.1187 135.926 313.224 18.1816 137.467 318.9 19.4544 136.728 
319.35 19.8372 137.072 319.358 20.2345 137.243 312.631 21.0279 137.447 
312.582 21.8517 136.019 313.622 21.9091 137.192 313.488 17.7752 138.709 
314.162 17.5616 137.906 314.87 17.3813 137.821 319.95 17.8151 138.08 
312.45 19.8598 138.114 320.509 19.8479 137.994 319.668 20.4067 137.679 
321.075 20.0775 138.609 312.861 20.8677 138.433 312.786 20.3872 138.973 
322.662 19.8059 139.628 317.359 21.642 139.539 320.078 20.9304 138.896 
321.938 20.342 139.723 313.219 21.128 138.742 323.292 17.244 140.254 
324.226 17.4034 140.613 323.853 18.3231 140.044 324.761 17.9523 140.644 
324.334 18.5814 140.338 323.556 19.1881 139.967 313.47 20.7261 139.926 
313.567 21.1155 139.326 321.023 20.904 140.357 322.9 20.171 140.427 
313.994 17.1467 141.185 324.021 19.3467 140.405 315.009 16.3898 141.636 
324.057 16.2475 141.615 325.009 16.4633 141.787 325.837 16.0822 142.529 
326.795 16.272 142.743 313.551 17.8158 141.732 313.913 19.8892 142.055 
315.14 20.8898 141.623 321.559 20.8571 141.824 327.687 15.8795 143.5 
328.79 16.9334 143.303 329.442 16.4988 143.836 313.654 18.3101 142.848 
313.661 18.8415 142.652 327.774 18.6955 142.847 314.392 20.2479 142.196 
317.368 20.987 142.48 327.757 19.3376 143.597 315.434 15.8913 143.893 
316.111 15.5498 143.815 317.584 14.9657 144.483 320.579 14.8945 143.601 
326.28 14.8712 144.513 327.369 15.382 143.967 328.642 15.701 144.09 
330.987 16.4694 144.693 314.234 17.3367 143.92 330.621 17.1238 144.287 
314.114 17.8692 143.946 313.886 18.7269 143.344 316.119 20.2745 143.702 
314.945 16.322 144.676 330.282 15.6534 144.934 332.325 16.0404 145.609 
333.764 16.1325 146.171 333.742 15.7907 146.368 331.688 16.5293 145.086 
334.189 16.3802 146.332 332.409 17.7053 145.61 314.555 18.3349 144.643 
330.664 18.3252 144.802 330.758 18.7053 145.342 315.218 19.6008 144.161 
332.897 15.142 146.625 335.042 15.8728 147.03 315.253 16.361 146.13 
334.656 16.2932 146.601 315.118 17.3801 146.141 315.11 18.6601 145.17 
316.667 19.6894 145.204 330.033 19.1454 145.624 316.135 15.4401 147.282 
317.217 14.7156 146.963 331.802 14.5189 147.076 335.475 17.0358 147.29 
315.986 18.0164 147.365 329.954 19.3125 147.099 316.537 18.4416 147.553 
317.984 19.074 147.712 319.406 13.8148 148.369 315.981 16.3334 148.647 
316.12 16.4863 149.136 338.478 17.4692 149.864 341.332 15.771 150.666 
341.327 15.2943 150.842 341.462 16.1122 150.704 316.252 16.8723 149.337 
340.781 16.6105 150.46 316.649 16.9635 150.134 316.991 17.5677 149.915 
317.522 14.5173 151.261 339.149 14.1654 150.744 317.124 15.1593 151.375 
342.486 15.7154 151.314 343.182 15.3578 151.78 316.853 15.6533 151.107 
342.028 16.2507 151.062 316.691 16.4699 150.659 316.896 16.8505 150.87 
342.573 16.9795 151.743 320.446 12.8867 152.384 340.853 13.7349 152.086 
342.055 14.4109 151.846 344.165 15.7532 152.193 317.176 16.1769 151.916 
344.369 16.4001 152.368 318.295 14.0342 153.152 318.854 13.5966 153.441 
340.858 13.293 152.83 344.079 14.5826 152.764 317.556 15.231 152.805 
317.403 15.7076 152.517 345.252 16.1737 152.917 347.119 15.9129 153.966 
346.224 16.5325 153.602 344.126 16.958 152.735 343.113 17.5866 153.331 
319.03 13.5941 154.393 320.298 12.7695 154.111 341.204 12.7989 154.195 
318.28 14.5037 154.018 343.823 13.4674 153.881 318.151 16.0222 153.861 
318.065 16.7628 153.117 346.708 17.0483 154.334 347.293 16.8447 154.474 
342.825 17.8163 154.045 344.176 12.9022 155.207 318.863 14.711 155.56 
318.735 15.251 155.287 318.656 16.1356 154.582 343.297 17.8926 155.577 
347.845 16.9713 154.94 347.078 17.4687 155.357 351.843 14.9502 156.761 
350.813 16.2569 156.12 346.971 17.6813 155.967 320.403 12.7047 157.429 
319.612 13.6714 156.854 348.136 12.9611 157.113 350.312 13.5876 157.128 
319.743 15.3817 157.108 321.067 16.8451 156.527 320.027 13.9294 158.504 
351.982 17.5274 158.16 321.476 11.9557 158.835 322.843 11.2973 159.587 
320.554 12.8674 158.976 320.187 14.4265 158.921 357.864 15.5888 159.982 
357.823 15.231 160.129 357.616 15.8631 159.796 358.32 15.848 160.224 
321.62 16.0733 159.048 355.104 17.2968 159.432 320.873 13.0735 160.444 
357.131 14.5132 160.198 357.863 14.7149 160.528 359.213 15.424 160.961 
320.777 14.8512 159.973 358.811 15.8062 160.52 357.588 16.8596 160.27 
358.354 16.6707 160.55 321.547 12.1866 160.829 322.739 11.3683 161.342 
321.058 14.152 161.124 323.106 16.1233 160.83 359.676 16.5864 161.273 
360.321 16.4374 161.591 359.698 16.895 161.507 359.311 17.1984 161.69 
322.215 11.94 162.27 324.263 10.7108 162.093 326.039 10.3373 162.003 
321.442 12.7898 161.708 321.327 13.3045 161.806 321.657 14.796 161.887 
321.85 15.1085 161.681 360.918 17.1051 162.424 323.474 11.1163 163.081 
321.671 13.9972 162.494 321.93 13.6099 163.051 362.64 15.3994 163.511 
363.739 16.0256 163.724 321.813 14.6557 162.356 364.227 16.2444 163.937 
324.618 16.0199 162.532 363.366 16.7634 163.487 361.31 17.6288 163.522 
323.54 11.2291 164.075 358.177 13.0703 163.626 364.94 16.0865 164.434 
365.882 17.0172 164.932 323.867 11.1132 164.923 356.834 12.5415 164.859 
322.762 13.7808 164.427 323.038 13.3662 165.049 325.054 15.2326 164.922 
366.837 17.3728 165.659 367.513 17.4049 165.986 361.003 18.1082 165.08 
324.936 10.4648 165.38 326.451 9.94604 165.257 323.594 11.767 165.583 
323.627 13.9402 165.739 367.227 15.5242 166.736 323.78 14.2689 165.518 
368.754 16.8075 166.714 369.162 16.4667 167.259 368.558 17.2599 166.504 
361.307 18.2134 166.497 367.108 18.0824 166.572 368.825 18.012 166.968 
369.544 17.99 167.19 332.874 9.50869 166.689 323.827 11.9632 166.257 
323.8 13.4849 166.346 325.011 14.4697 166.435 364.842 14.5267 166.971 
370.232 17.9507 167.471 371.551 18.2388 168.143 371.911 18.161 168.306 
370.208 18.5778 167.959 370.796 18.5988 168.11 330.398 9.5474 168.005 
332.143 9.50034 168.017 332.812 9.46479 167.432 336.767 9.68931 167.748 
324.745 12.4006 167.898 352.946 11.7496 167.8 368.062 15.2961 168.403 
369.952 16.3221 168.196 372.474 17.8529 168.751 372.238 17.5954 168.804 
372.764 17.8622 169.006 357.767 17.5424 167.865 367.787 18.6503 167.944 
372.037 18.7157 168.591 369.341 18.9058 168.536 370.991 18.8732 168.547 
371.835 18.9433 168.778 326.453 10.4921 168.696 325.946 10.5983 168.322 
326.971 10.2594 168.644 333.036 9.636 168.511 335.976 9.63794 168.425 
325.617 11.0015 168.371 325.35 11.9273 168.562 353.372 11.8034 169.263 
324.845 12.82 167.939 360.441 12.9966 169.068 325.306 12.9748 168.385 
374.159 18.5436 169.897 366.776 18.7185 168.828 372.399 19.5248 169.847 
326.553 10.7078 169.013 327.631 10.3517 169.056 331.952 9.91372 169.1 
335.702 9.9123 169.252 325.893 11.2273 168.826 353.658 11.9096 169.94 
325.596 12.6514 168.77 325.619 13.197 168.574 334.305 14.2151 169.252 
367.418 14.9577 169.344 375.067 18.5111 170.883 365.702 18.5495 169.733 
375.8 19.0722 171.057 375.725 19.4328 170.842 369.839 19.2564 169.963 
375.516 20.0032 170.902 332.707 10.2425 169.578 327.485 11.1583 169.567 
330.816 10.7768 169.837 343.569 10.6408 170.421 328.07 11.5209 169.787 
331.634 11.2504 170.107 346.687 11.0235 170.172 351.872 11.6017 170.269 
332.422 11.9353 170.294 353.693 12.0408 170.561 332.826 12.493 170.327 
333.28 12.7426 170.3 335.033 12.2441 170.505 325.856 13.1256 168.802 
331.536 12.9946 170.037 362.677 13.6682 170.385 334.934 13.7968 169.754 
341.564 14.7467 170.096 343.105 14.8456 170.205 349.735 15.77 170.353 
350.191 15.6026 170.775 369.708 15.7254 170.534 357.4 16.8054 170.555 
372.579 16.938 170.7 373.959 17.5979 171.146 367.455 18.7676 170.458 
377.811 19.8355 172.097 378.204 20.1692 172.14 378.259 20.6547 172.037 
378.512 20.6181 172.168 378.148 21.0863 172.284 341.53 10.6761 170.731 
340.711 11.5603 171.22 342.989 11.3661 171.261 345.528 11.1866 170.808 
349.447 11.5783 170.885 352.03 12.1096 171.449 341.764 12.2125 171.454 
342.468 11.9086 171.46 352.757 12.1377 171.301 354.379 12.3647 171.199 
329.595 12.7599 170.004 337.608 12.5826 170.693 340.233 12.3805 171.185 
332.703 13.354 169.954 334.583 13.2104 170.144 338.546 13.0195 170.704 
363.463 14.1974 171.693 340.188 13.8119 170.648 341.045 13.9657 170.716 
342.897 14.0994 170.943 343.204 14.4562 170.703 343.539 14.203 170.961 
351.983 15.4182 171.563 361.312 17.3331 171.296 366.353 18.3285 171.298 
369.951 19.1936 171.681 378.909 20.7232 172.459 379.171 21.054 172.617 
379.04 21.2292 172.611 377.422 21.1636 172.573 378.147 21.2945 172.613 
379.367 21.5422 172.951 344.479 11.3323 171.159 340.993 11.8131 171.336 
[...]
POINT_DATA 1129
COLOR_SCALARS scalars 3
0.0313725 0.521569 0.54902 0.0313725 0.521569 0.54902 0.0313725 0.521569 0.54902 
0.0313725 0.521569 0.54902 0.0313725 0.521569 0.54902 
0.0313725 0.521569 0.54902 0.0313725 0.521569 0.54902 
0.0313725 0.521569 0.54902 0.0313725 0.521569 0.54902 
0.0313725 0.521569 0.54902 0.0313725 0.521569 0.54902 
0.0313725 0.521569 0.54902 0.0313725 0.521569 0.54902 
0.0313725 0.521569 0.54902 0.0313725 0.521569 0.54902 
0.0313725 0.521569 0.54902 0.0313725 0.521569 0.54902 
0.0313725 0.521569 0.54902 0.0313725 0.521569 0.54902 
0.0313725 0.521569 0.54902 0.0313725 0.521569 0.54902 
0.0313725 0.521569 0.54902 0.0313725 0.521569 0.54902 
0.0313725 0.521569 0.54902 0.0313725 0.521569 0.54902 
0.0313725 0.521569 0.54902 0.0313725 0.521569 0.54902 
0.0313725 0.521569 0.54902 0.0313725 0.521569 0.54902 
0.0313725 0.521569 0.54902 0.0313725 0.521569 0.54902 
0.0313725 0.521569 0.54902 0.0313725 0.521569 0.54902 
0.0313725 0.521569 0.54902 0.0313725 0.521569 0.54902 
0.0313725 0.521569 0.54902 0.0313725 0.521569 0.54902 
0.0313725 0.521569 0.54902 0.0313725 0.521569 0.54902 
0.0313725 0.521569 0.54902 0.0313725 0.521569 0.54902 
0.0313725 0.521569 0.54902 0.0313725 0.521569 0.54902 
0.0313725 0.521569 0.54902 0.0313725 0.521569 0.54902 
0.0313725 0.521569 0.54902 0.0313725 0.521569 0.54902 
0.0313725 0.521569 0.54902 0.0313725 0.521569 0.54902 
0.0313725 0.521569 0.54902 0.0313725 0.521569 0.54902 
0.0313725 0.521569 0.54902 0.0313725 0.521569 0.54902 
0.0313725 0.521569 0.54902 0.0313725 0.521569 0.54902 
0.0313725 0.521569 0.54902 0.0313725 0.521569 0.54902 
0.0313725 0.521569 0.54902 0.0313725 0.521569 0.54902 
0.0313725 0.521569 0.54902 0.0313725 0.521569 0.54902 
0.0313725 0.521569 0.54902 0.0313725 0.521569 0.54902 
0.0313725 0.521569 0.54902 0.0313725 0.521569 0.54902 
0.0313725 0.521569 0.54902 0.0313725 0.521569 0.54902 
0.0313725 0.521569 0.54902 0.0313725 0.521569 0.54902 
0.0313725 0.521569 0.54902 0.0313725 0.521569 0.54902 
0.0313725 0.521569 0.54902 0.0313725 0.521569 0.54902 
0.0313725 0.521569 0.54902 0.0313725 0.521569 0.54902 
0.0313725 0.521569 0.54902 0.0313725 0.521569 0.54902 
0.0313725 0.521569 0.54902 0.0313725 0.521569 0.54902 
0.0313725 0.521569 0.54902 0.0313725 0.521569 0.54902 
0.0313725 0.521569 0.54902 0.0313725 0.521569 0.54902 
0.0313725 0.521569 0.54902 0.0313725 0.521569 0.54902 
0.0313725 0.521569 0.54902 0.0313725 0.521569 0.54902 
0.0313725 0.521569 0.54902 0.0313725 0.521569 0.54902 
0.0313725 0.521569 0.54902 0.0313725 0.521569 0.54902 
0.0313725 0.521569 0.54902 0.0313725 0.521569 0.54902 
0.0313725 0.521569 0.54902 0.0313725 0.521569 0.54902 
0.0313725 0.521569 0.54902 0.0313725 0.521569 0.54902 
0.0313725 0.521569 0.54902 0.0313725 0.521569 0.54902 
0.0313725 0.521569 0.54902 0.0313725 0.521569 0.54902 
0.0313725 0.521569 0.54902 0.0313725 0.521569 0.54902 
0.0313725 0.521569 0.54902 0.0313725 0.521569 0.54902 
0.0313725 0.521569 0.54902 0.0313725 0.521569 0.54902 
0.0313725 0.521569 0.54902 0.0313725 0.521569 0.54902 
0.0313725 0.521569 0.54902 0.0313725 0.521569 0.54902 
0.0313725 0.521569 0.54902 0.0313725 0.521569 0.54902 
0.0313725 0.521569 0.54902 0.0313725 0.521569 0.54902 
0.0313725 0.521569 0.54902 0.0313725 0.521569 0.54902 
0.0313725 0.521569 0.54902 0.0313725 0.521569 0.54902 
0.0313725 0.521569 0.54902 0.0313725 0.521569 0.54902 
0.0313725 0.521569 0.54902 0.0313725 0.521569 0.54902 
0.0313725 0.521569 0.54902 0.0313725 0.521569 0.54902 
0.0313725 0.521569 0.54902 0.0313725 0.521569 0.54902 
0.0313725 0.521569 0.54902 0.0313725 0.521569 0.54902 
0.0313725 0.521569 0.54902 0.0313725 0.521569 0.54902 
0.0313725 0.521569 0.54902 0.0313725 0.521569 0.54902 
0.0313725 0.521569 0.54902 0.0313725 0.521569 0.54902 
0.0313725 0.521569 0.54902 0.0313725 0.521569 0.54902 
0.0313725 0.521569 0.54902 0.0313725 0.521569 0.54902 
0.0313725 0.521569 0.54902 0.0313725 0.521569 0.54902 
0.0313725 0.521569 0.54902 0.0313725 0.521569 0.54902 
0.0313725 0.521569 0.54902 0.0313725 0.521569 0.54902 
0.0313725 0.521569 0.54902 0.0313725 0.521569 0.54902 
0.0313725 0.521569 0.54902 0.0313725 0.521569 0.54902 
0.0313725 0.521569 0.54902 0.0313725 0.521569 0.54902 
0.0313725 0.521569 0.54902 0.0313725 0.521569 0.54902 
0.0313725 0.521569 0.54902 0.0313725 0.521569 0.54902 
0.0313725 0.521569 0.54902 0.0313725 0.521569 0.54902 
0.0313725 0.521569 0.54902 0.0313725 0.521569 0.54902 
0.0313725 0.521569 0.54902 0.0313725 0.521569 0.54902 
0.0313725 0.521569 0.54902 0.0313725 0.521569 0.54902 
0.0313725 0.521569 0.54902 0.0313725 0.521569 0.54902 
0.0313725 0.521569 0.54902 0.0313725 0.521569 0.54902 
0.0313725 0.521569 0.54902 0.0313725 0.521569 0.54902 
0.0313725 0.521569 0.54902 0.0313725 0.521569 0.54902 
0.0313725 0.521569 0.54902 0.0313725 0.521569 0.54902 
0.0313725 0.521569 0.54902 0.0313725 0.521569 0.54902 
0.0313725 0.521569 0.54902 0.0313725 0.521569 0.54902 
0.0313725 0.521569 0.54902 0.0313725 0.521569 0.54902 
0.0313725 0.521569 0.54902 0.0313725 0.521569 0.54902 
0.0313725 0.521569 0.54902 0.0313725 0.521569 0.54902 
0.0313725 0.521569 0.54902 0.0313725 0.521569 0.54902 
0.0313725 0.521569 0.54902 0.0313725 0.521569 0.54902 
0.0313725 0.521569 0.54902 0.0313725 0.521569 0.54902 
0.0313725 0.521569 0.54902 0.0313725 0.521569 0.54902 
0.0313725 0.521569 0.54902 0.0313725 0.521569 0.54902 
0.0313725 0.521569 0.54902 0.0313725 0.521569 0.54902 
0.0313725 0.521569 0.54902 0.0313725 0.521569 0.54902 
0.0313725 0.521569 0.54902 0.0313725 0.521569 0.54902 
0.0313725 0.521569 0.54902 0.0313725 0.521569 0.54902 
0.0313725 0.521569 0.54902 0.0313725 0.521569 0.54902 
0.0313725 0.521569 0.54902 0.0313725 0.521569 0.54902 
0.0313725 0.521569 0.54902 0.0313725 0.521569 0.54902 
0.0313725 0.521569 0.54902 0.0313725 0.521569 0.54902 
0.0313725 0.521569 0.54902 0.0313725 0.521569 0.54902 
0.0313725 0.521569 0.54902 0.0313725 0.521569 0.54902 
0.0313725 0.521569 0.54902 0.0313725 0.521569 0.54902 
0.0313725 0.521569 0.54902 0.0313725 0.521569 0.54902 
0.0313725 0.521569 0.54902 0.0313725 0.521569 0.54902 
0.0313725 0.521569 0.54902 0.0313725 0.521569 0.54902 
0.0313725 0.521569 0.54902 0.0313725 0.521569 0.54902 
0.0313725 0.521569 0.54902 0.0313725 0.521569 0.54902 
0.0313725 0.521569 0.54902 0.0313725 0.521569 0.54902 
0.0313725 0.521569 0.54902 0.0313725 0.521569 0.54902 
0.0313725 0.521569 0.54902 0.0313725 0.521569 0.54902 
0.0313725 0.521569 0.54902 0.0313725 0.521569 0.54902 
0.0313725 0.521569 0.54902 0.0313725 0.521569 0.54902 
0.0313725 0.521569 0.54902 0.0313725 0.521569 0.54902 
0.0313725 0.521569 0.54902 0.0313725 0.521569 0.54902 
0.0313725 0.521569 0.54902 0.0313725 0.521569 0.54902 
0.0313725 0.521569 0.54902 0.0313725 0.521569 0.54902 
0.0313725 0.521569 0.54902 0.0313725 0.521569 0.54902 
0.0313725 0.521569 0.54902 0.0313725 0.521569 0.54902 
0.0313725 0.521569 0.54902 0.0313725 0.521569 0.54902 
0.0313725 0.521569 0.54902 0.0313725 0.521569 0.54902 
0.0313725 0.521569 0.54902 0.0313725 0.521569 0.54902 
0.0313725 0.521569 0.54902 0.0313725 0.521569 0.54902 
0.0313725 0.521569 0.54902 0.0313725 0.521569 0.54902 
0.0313725 0.521569 0.54902 0.0313725 0.521569 0.54902 
0.0313725 0.521569 0.54902 0.0313725 0.521569 0.54902 
0.0313725 0.521569 0.54902 0.0313725 0.521569 0.54902 
0.0313725 0.521569 0.54902 0.0313725 0.521569 0.54902 
0.0313725 0.521569 0.54902 0.0313725 0.521569 0.54902 
0.0313725 0.521569 0.54902 0.0313725 0.521569 0.54902 
0.0313725 0.521569 0.54902 0.0313725 0.521569 0.54902 
0.0313725 0.521569 0.54902 0.0313725 0.521569 0.54902 
0.0313725 0.521569 0.54902 0.0313725 0.521569 0.54902 
0.0313725 0.521569 0.54902 0.0313725 0.521569 0.54902 
0.0313725 0.521569 0.54902 0.0313725 0.521569 0.54902 
0.0313725 0.521569 0.54902 0.0313725 0.521569 0.54902 
0.0313725 0.521569 0.54902 0.0313725 0.521569 0.54902 
0.0313725 0.521569 0.54902 0.0313725 0.521569 0.54902 
0.0313725 0.521569 0.54902 0.0313725 0.521569 0.54902 
0.0313725 0.521569 0.54902 0.0313725 0.521569 0.54902 
0.0313725 0.521569 0.54902 0.0313725 0.521569 0.54902 
0.0313725 0.521569 0.54902 0.0313725 0.521569 0.54902 
0.0313725 0.521569 0.54902 0.0313725 0.521569 0.54902 
0.0313725 0.521569 0.54902 0.0313725 0.521569 0.54902 
0.0313725 0.521569 0.54902 0.0313725 0.521569 0.54902 
0.0313725 0.521569 0.54902 0.0313725 0.521569 0.54902 
0.0313725 0.521569 0.54902 0.0313725 0.521569 0.54902 
0.0313725 0.521569 0.54902 0.0313725 0.521569 0.54902 
0.0313725 0.521569 0.54902 0.0313725 0.521569 0.54902 
0.0313725 0.521569 0.54902 0.0313725 0.521569 0.54902 
0.0313725 0.521569 0.54902 0.0313725 0.521569 0.54902 
0.0313725 0.521569 0.54902 0.0313725 0.521569 0.54902 
0.0313725 0.521569 0.54902 0.0313725 0.521569 0.54902 
0.0313725 0.521569 0.54902 0.0313725 0.521569 0.54902 
0.0313725 0.521569 0.54902 0.0313725 0.521569 0.54902 
0.0313725 0.521569 0.54902 0.0313725 0.521569 0.54902 
0.0313725 0.521569 0.54902 0.0313725 0.521569 0.54902 
0.0313725 0.521569 0.54902 0.0313725 0.521569 0.54902 
0.0313725 0.521569 0.54902 0.0313725 0.521569 0.54902 
0.0313725 0.521569 0.54902 0.0313725 0.521569 0.54902 
0.0313725 0.521569 0.54902 0.0313725 0.521569 0.54902 
0.0313725 0.521569 0.54902 0.0313725 0.521569 0.54902 
0.0313725 0.521569 0.54902 0.0313725 0.521569 0.54902 
0.0313725 0.521569 0.54902 0.0313725 0.521569 0.54902 
0.0313725 0.521569 0.54902 0.0313725 0.521569 0.54902 
0.0313725 0.521569 0.54902 0.0313725 0.521569 0.54902 
0.0313725 0.521569 0.54902 0.0313725 0.521569 0.54902 
0.0313725 0.521569 0.54902 0.0313725 0.521569 0.54902 
0.0313725 0.521569 0.54902 0.0313725 0.521569 0.54902 
0.0313725 0.521569 0.54902 0.0313725 0.521569 0.54902 
0.0313725 0.521569 0.54902 0.0313725 0.521569 0.54902 
0.0313725 0.521569 0.54902 0.0313725 0.521569 0.54902 
0.0313725 0.521569 0.54902 0.0313725 0.521569 0.54902 
0.0313725 0.521569 0.54902 0.0313725 0.521569 0.54902 
0.0313725 0.521569 0.54902 0.0313725 0.521569 0.54902 
0.0313725 0.521569 0.54902 0.0313725 0.521569 0.54902 
0.0313725 0.521569 0.54902 0.0313725 0.521569 0.54902 
0.0313725 0.521569 0.54902 0.0313725 0.521569 0.54902 
0.0313725 0.521569 0.54902 0.0313725 0.521569 0.54902 
0.0313725 0.521569 0.54902 0.0313725 0.521569 0.54902 
0.0313725 0.521569 0.54902 0.0313725 0.521569 0.54902 
0.0313725 0.521569 0.54902 0.0313725 0.521569 0.54902 
0.0313725 0.521569 0.54902 0.0313725 0.521569 0.54902 
0.0313725 0.521569 0.54902 0.0313725 0.521569 0.54902 
0.0313725 0.521569 0.54902 0.0313725 0.521569 0.54902 
0.0313725 0.521569 0.54902 0.0313725 0.521569 0.54902 
0.0313725 0.521569 0.54902 0.0313725 0.521569 0.54902 
0.0313725 0.521569 0.54902 0.0313725 0.521569 0.54902 
0.0313725 0.521569 0.54902 0.0313725 0.521569 0.54902 
0.0313725 0.521569 0.54902 0.0313725 0.521569 0.54902 
0.0313725 0.521569 0.54902 0.0313725 0.521569 0.54902 
0.0313725 0.521569 0.54902 0.0313725 0.521569 0.54902 
0.0313725 0.521569 0.54902 0.0313725 0.521569 0.54902 
0.0313725 0.521569 0.54902 0.0313725 0.521569 0.54902 
0.0313725 0.521569 0.54902 0.0313725 0.521569 0.54902 
0.0313725 0.521569 0.54902 0.0313725 0.521569 0.54902 
0.0313725 0.521569 0.54902 0.0313725 0.521569 0.54902 
0.0313725 0.521569 0.54902 0.0313725 0.521569 0.54902 
0.0313725 0.521569 0.54902 0.0313725 0.521569 0.54902 
0.0313725 0.521569 0.54902 0.0313725 0.521569 0.54902 
0.0313725 0.521569 0.54902 0.0313725 0.521569 0.54902 
0.0313725 0.521569 0.54902 0.0313725 0.521569 0.54902 
0.0313725 0.521569 0.54902 0.0313725 0.521569 0.54902 
0.0313725 0.521569 0.54902 0.0313725 0.521569 0.54902 
0.0313725 0.521569 0.54902 0.0313725 0.521569 0.54902 
0.0313725 0.521569 0.54902 0.0313725 0.521569 0.54902 
0.0313725 0.521569 0.54902 0.0313725 0.521569 0.54902 
0.0313725 0.521569 0.54902 0.0313725 0.521569 0.54902 
0.0313725 0.521569 0.54902 0.0313725 0.521569 0.54902 
0.0313725 0.521569 0.54902 0.0313725 0.521569 0.54902 
0.0313725 0.521569 0.54902 0.0313725 0.521569 0.54902 
0.0313725 0.521569 0.54902 0.0313725 0.521569 0.54902 
0.0313725 0.521569 0.54902 0.0313725 0.521569 0.54902 
0.0313725 0.521569 0.54902 0.0313725 0.521569 0.54902 
0.0313725 0.521569 0.54902 0.0313725 0.521569 0.54902 
0.0313725 0.521569 0.54902 0.0313725 0.521569 0.54902 
0.0313725 0.521569 0.54902 0.0313725 0.521569 0.54902 
0.0313725 0.521569 0.54902 0.0313725 0.521569 0.54902 
0.0313725 0.521569 0.54902 0.0313725 0.521569 0.54902 
0.0313725 0.521569 0.54902 0.0313725 0.521569 0.54902 
0.0313725 0.521569 0.54902 0.0313725 0.521569 0.54902 
0.0313725 0.521569 0.54902 0.0313725 0.521569 0.54902 
0.0313725 0.521569 0.54902 0.0313725 0.521569 0.54902 
0.0313725 0.521569 0.54902 0.0313725 0.521569 0.54902 
0.0313725 0.521569 0.54902 0.0313725 0.521569 0.54902 
0.0313725 0.521569 0.54902 0.0313725 0.521569 0.54902 
0.0313725 0.521569 0.54902 0.0313725 0.521569 0.54902 
0.0313725 0.521569 0.54902 0.0313725 0.521569 0.54902 
0.0313725 0.521569 0.54902 0.0313725 0.521569 0.54902 
0.0313725 0.521569 0.54902 0.0313725 0.521569 0.54902 
0.0313725 0.521569 0.54902 0.0313725 0.521569 0.54902 
0.0313725 0.521569 0.54902 0.0313725 0.521569 0.54902 
0.0313725 0.521569 0.54902 0.0313725 0.521569 0.54902 
0.0313725 0.521569 0.54902 0.0313725 0.521569 0.54902 
0.0313725 0.521569 0.54902 0.0313725 0.521569 0.54902 
0.0313725 0.521569 0.54902 0.0313725 0.521569 0.54902 
0.0313725 0.521569 0.54902 0.0313725 0.521569 0.54902 
0.0313725 0.521569 0.54902 0.0313725 0.521569 0.54902 
0.0313725 0.521569 0.54902 0.0313725 0.521569 0.54902 
0.0313725 0.521569 0.54902 0.0313725 0.521569 0.54902 
0.0313725 0.521569 0.54902 0.0313725 0.521569 0.54902 
0.0313725 0.521569 0.54902 0.0313725 0.521569 0.54902 
0.0313725 0.521569 0.54902 0.0313725 0.521569 0.54902 
0.0313725 0.521569 0.54902 0.0313725 0.521569 0.54902 
0.0313725 0.521569 0.54902 0.0313725 0.521569 0.54902 
0.0313725 0.521569 0.54902 0.0313725 0.521569 0.54902 
0.0313725 0.521569 0.54902 0.0313725 0.521569 0.54902 
0.0313725 0.521569 0.54902 0.0313725 0.521569 0.54902 
0.0313725 0.521569 0.54902 0.0313725 0.521569 0.54902 
0.0313725 0.521569 0.54902 0.0313725 0.521569 0.54902 
0.0313725 0.521569 0.54902 0.0313725 0.521569 0.54902 
0.0313725 0.521569 0.54902 0.0313725 0.521569 0.54902 
0.0313725 0.521569 0.54902 0.0313725 0.521569 0.54902 
0.0313725 0.521569 0.54902 0.0313725 0.521569 0.54902 
0.0313725 0.521569 0.54902 0.0313725 0.521569 0.54902 
0.0313725 0.521569 0.54902 0.0313725 0.521569 0.54902 
0.0313725 0.521569 0.54902 0.0313725 0.521569 0.54902 
0.0313725 0.521569 0.54902 0.0313725 0.521569 0.54902 
0.0313725 0.521569 0.54902 0.0313725 0.521569 0.54902 
0.0313725 0.521569 0.54902 0.0313725 0.521569 0.54902 
0.0313725 0.521569 0.54902 0.0313725 0.521569 0.54902 
0.0313725 0.521569 0.54902 0.0313725 0.521569 0.54902 
0.0313725 0.521569 0.54902 0.0313725 0.521569 0.54902 
0.0313725 0.521569 0.54902 0.0313725 0.521569 0.54902 
0.0313725 0.521569 0.54902 0.0313725 0.521569 0.54902 
0.0313725 0.521569 0.54902 0.0313725 0.521569 0.54902 
0.0313725 0.521569 0.54902 0.0313725 0.521569 0.54902 
0.0313725 0.521569 0.54902 0.0313725 0.521569 0.54902 
0.0313725 0.521569 0.54902 0.0313725 0.521569 0.54902 
0.0313725 0.521569 0.54902 0.0313725 0.521569 0.54902 
0.0313725 0.521569 0.54902 0.0313725 0.521569 0.54902 
0.0313725 0.521569 0.54902 0.0313725 0.521569 0.54902 
0.0313725 0.521569 0.54902 0.0313725 0.521569 0.54902 
0.0313725 0.521569 0.54902 0.0313725 0.521569 0.54902 
0.0313725 0.521569 0.54902 0.0313725 0.521569 0.54902 
0.0313725 0.521569 0.54902 0.0313725 0.521569 0.54902 
0.0313725 0.521569 0.54902 0.0313725 0.521569 0.54902 
0.0313725 0.521569 0.54902 0.0313725 0.521569 0.54902 
0.0313725 0.521569 0.54902 0.0313725 0.521569 0.54902 
0.0313725 0.521569 0.54902 0.0313725 0.521569 0.54902 
0.0313725 0.521569 0.54902 0.0313725 0.521569 0.54902 
0.0313725 0.521569 0.54902 0.0313725 0.521569 0.54902 
0.0313725 0.521569 0.54902 0.0313725 0.521569 0.54902 
0.0313725 0.521569 0.54902 0.0313725 0.521569 0.54902 
0.0313725 0.521569 0.54902 0.0313725 0.521569 0.54902 
0.0313725 0.521569 0.54902 0.0313725 0.521569 0.54902 
0.0313725 0.521569 0.54902 0.0313725 0.521569 0.54902 
0.0313725 0.521569 0.54902 0.0313725 0.521569 0.54902 
0.0313725 0.521569 0.54902 0.0313725 0.521569 0.54902 
0.0313725 0.521569 0.54902 0.0313725 0.521569 0.54902 
0.0313725 0.521569 0.54902 0.0313725 0.521569 0.54902 
0.0313725 0.521569 0.54902 0.0313725 0.521569 0.54902 
0.0313725 0.521569 0.54902 0.0313725 0.521569 0.54902 
0.0313725 0.521569 0.54902 0.0313725 0.521569 0.54902 
0.0313725 0.521569 0.54902 0.0313725 0.521569 0.54902 
0.0313725 0.521569 0.54902 0.0313725 0.521569 0.54902 
0.0313725 0.521569 0.54902 0.0313725 0.521569 0.54902 
0.0313725 0.521569 0.54902 0.0313725 0.521569 0.54902 
0.0313725 0.521569 0.54902 0.0313725 0.521569 0.54902 
0.0313725 0.521569 0.54902 0.0313725 0.521569 0.54902 
0.0313725 0.521569 0.54902 0.0313725 0.521569 0.54902 
0.0313725 0.521569 0.54902 0.0313725 0.521569 0.54902 
0.0313725 0.521569 0.54902 0.0313725 0.521569 0.54902 
0.0313725 0.521569 0.54902 0.0313725 0.521569 0.54902 
0.0313725 0.521569 0.54902 0.0313725 0.521569 0.54902 
0.0313725 0.521569 0.54902 0.0313725 0.521569 0.54902 
0.0313725 0.521569 0.54902 0.0313725 0.521569 0.54902 
0.0313725 0.521569 0.54902 0.0313725 0.521569 0.54902 
0.0313725 0.521569 0.54902 0.0313725 0.521569 0.54902 
0.0313725 0.521569 0.54902 0.0313725 0.521569 0.54902 
0.0313725 0.521569 0.54902 0.0313725 0.521569 0.54902 
0.0313725 0.521569 0.54902 0.0313725 0.521569 0.54902 
0.0313725 0.521569 0.54902 0.0313725 0.521569 0.54902 
0.0313725 0.521569 0.54902 0.0313725 0.521569 0.54902 
0.0313725 0.521569 0.54902 0.0313725 0.521569 0.54902 
0.0313725 0.521569 0.54902 0.0313725 0.521569 0.54902 
0.0313725 0.521569 0.54902 0.0313725 0.521569 0.54902 
0.0313725 0.521569 0.54902 0.0313725 0.521569 0.54902 
0.0313725 0.521569 0.54902 0.0313725 0.521569 0.54902 
0.0313725 0.521569 0.54902 0.0313725 0.521569 0.54902 
0.0313725 0.521569 0.54902 0.0313725 0.521569 0.54902 
0.0313725 0.521569 0.54902 0.0313725 0.521569 0.54902 
0.0313725 0.521569 0.54902 0.0313725 0.521569 0.54902 
0.0313725 0.521569 0.54902 0.0313725 0.521569 0.54902 
0.0313725 0.521569 0.54902 0.0313725 0.521569 0.54902 
0.0313725 0.521569 0.54902 0.0313725 0.521569 0.54902 
0.0313725 0.521569 0.54902 0.0313725 0.521569 0.54902 
0.0313725 0.521569 0.54902 0.0313725 0.521569 0.54902 
0.0313725 0.521569 0.54902 0.0313725 0.521569 0.54902 
0.0313725 0.521569 0.54902 0.0313725 0.521569 0.54902 
0.0313725 0.521569 0.54902 0.0313725 0.521569 0.54902 
0.0313725 0.521569 0.54902 0.0313725 0.521569 0.54902 
0.0313725 0.521569 0.54902 0.0313725 0.521569 0.54902 
0.0313725 0.521569 0.54902 0.0313725 0.521569 0.54902 
0.0313725 0.521569 0.54902 0.0313725 0.521569 0.54902 
0.0313725 0.521569 0.54902 0.0313725 0.521569 0.54902 
0.0313725 0.521569 0.54902 0.0313725 0.521569 0.54902 
0.0313725 0.521569 0.54902 0.0313725 0.521569 0.54902 
0.0313725 0.521569 0.54902 0.0313725 0.521569 0.54902 
0.0313725 0.521569 0.54902 0.0313725 0.521569 0.54902 
0.0313725 0.521569 0.54902 0.0313725 0.521569 0.54902 
0.0313725 0.521569 0.54902 0.0313725 0.521569 0.54902 
0.0313725 0.521569 0.54902 0.0313725 0.521569 0.54902 
0.0313725 0.521569 0.54902 0.0313725 0.521569 0.54902 
0.0313725 0.521569 0.54902 0.0313725 0.521569 0.54902 
0.0313725 0.521569 0.54902 0.0313725 0.521569 0.54902 
0.0313725 0.521569 0.54902 0.0313725 0.521569 0.54902 
0.0313725 0.521569 0.54902 0.0313725 0.521569 0.54902 
0.0313725 0.521569 0.54902 0.0313725 0.521569 0.54902 
0.0313725 0.521569 0.54902 0.0313725 0.521569 0.54902 
0.0313725 0.521569 0.54902 0.0313725 0.521569 0.54902 
0.0313725 0.521569 0.54902 0.0313725 0.521569 0.54902 
0.0313725 0.521569 0.54902 0.0313725 0.521569 0.54902 
0.0313725 0.521569 0.54902 0.0313725 0.521569 0.54902 
0.0313725 0.521569 0.54902 0.0313725 0.521569 0.54902 
0.0313725 0.521569 0.54902 0.0313725 0.521569 0.54902 
0.0313725 0.521569 0.54902 0.0313725 0.521569 0.54902 
0.0313725 0.521569 0.54902 0.0313725 0.521569 0.54902 