# vtk DataFile Version 4.2
vtk output
ASCII
DATASET POLYDATA
POINTS 2665 float
359.849 53.8658 86.3926 359.941 54.112 86.3558 363.408 54.8822 86.4509 
366.059 56.1753 86.299 366.086 55.854 86.4277 368.25 57.0884 86.1922 
368.618 57.0284 86.2826 368.004 57.3205 86.1645 370.534 57.993 86.282 
369.637 58.3436 86.1426 373.103 59.0444 86.2993 373.608 60.9236 86.0279 
374.989 60.9557 86.1682 374.885 61.5503 86.121 376.486 61.8158 86.3248 
352.382 51.114 87.3406 353.161 51.1275 87.2734 355.652 52.5287 86.9349 
356.236 53.2146 86.8206 356.625 52.8779 86.7963 358.197 52.5626 86.8897 
360.058 53.1845 86.6989 357.831 53.6533 86.6544 362.423 54.3652 86.5893 
365.626 54.997 86.8222 364.699 56.009 86.372 362.182 56.1699 86.4742 
366.325 57.6538 86.2832 367.358 57.6595 86.2183 369.989 59.6455 86.2336 
372.418 60.9731 86.1084 377.387 61.3815 86.5485 374.046 61.8989 86.1935 
377.145 62.5414 86.4336 380.279 63.0258 86.8678 381.09 62.6104 87.1809 
379.642 63.5771 86.7443 380.775 64.0793 86.8666 382.355 63.6773 87.1958 
384.533 65.1128 87.3049 384.405 64.8025 87.3973 384.651 65.3528 87.3082 
385.258 66.2288 87.2753 349.364 49.0496 88.1816 350.069 49.1417 88.1253 
347.143 49.5583 88.1782 350.464 49.4681 87.9619 352.039 49.7306 87.8969 
351.061 51.5061 87.5139 352.186 51.6708 87.3655 359.251 52.0987 87.2491 
351.408 52.3352 87.5615 353.353 52.8268 87.2575 354.442 54.6673 87.5322 
357.384 55.8847 87.325 359.938 55.7781 86.6924 363.064 57.9798 86.9753 
373.266 57.977 87.01 368.388 59.3039 86.412 365.519 59.9089 87.4412 
376.943 59.9392 87.0438 371.237 61.0556 86.3673 373.031 62.0621 86.4127 
375.96 63.1144 86.5472 372.083 63.0109 87.2877 378.151 63.9878 86.7845 
376.062 64.4141 87.215 383.566 64.9247 87.2676 385.396 65.627 87.4511 
380.405 65.782 87.3325 384.255 65.7272 87.2972 386.396 66.2706 87.5508 
382.375 66.311 87.455 388.308 66.8886 87.8859 389.645 66.7549 88.3652 
387.325 67.6986 87.6154 389.635 68.3654 87.9495 392.218 69.1916 88.3534 
392.421 68.9769 88.5173 392.11 69.4833 88.2903 344.596 48.4966 88.8611 
345.379 47.906 88.9459 345.643 49.49 88.5088 354.612 49.7224 88.2996 
346.626 50.6239 88.3676 349.445 51.3143 87.7461 350.443 52.1339 87.7046 
351.424 53.1207 87.7815 350.881 53.2768 88.0275 363.894 52.9789 87.817 
351.733 54.0084 88.1412 354.789 55.6091 88.0163 356.135 55.8172 87.6986 
356.7 56.404 87.9275 359.84 57.5994 87.7428 374.481 57.5882 87.848 
363.016 59.2877 87.9704 364.46 59.7691 87.7564 364.925 60.2111 88.008 
378.447 59.6721 87.918 369.997 62.5127 87.7465 383.368 62.9581 87.8799 
376.267 65.4874 88.0556 388.415 65.814 88.2584 383.074 67.1566 87.7215 
384.19 67.2067 87.5927 390.506 66.7667 88.7737 386 68.0781 87.7287 
387.928 68.6767 87.8096 387.163 69.4475 88.1554 394.973 69.7701 89.4504 
393.218 71.0188 88.6421 394.177 70.8746 88.8628 392.491 71.4467 88.6266 
394.797 71.5159 88.9588 397.278 72.7247 89.4295 397.516 72.7665 89.5277 
397.282 72.9206 89.4396 398.085 73.4773 89.6917 398.239 73.6718 89.7288 
398.133 73.8462 89.7662 339.518 46.2265 90.2367 340.878 47.0035 89.8542 
342.86 47.4071 89.5065 342.219 46.8242 89.7869 343.726 47.2925 89.4481 
345.591 47.3583 89.2448 341.039 47.9905 89.7144 342.413 48.1561 89.4285 
343.227 49.0083 89.2131 343.159 49.6684 89.2958 344.139 50.5603 89.2425 
346.889 52.1705 88.9626 349 53.575 89.0012 350.922 53.8331 88.3702 
350.601 54.7269 89.382 354.375 56.2849 88.9846 356.191 56.9368 88.7379 
355.706 57.2752 89.7063 356.476 57.5595 89.7225 358.694 58.4192 89.4588 
361.198 58.8409 88.4803 362.912 60.3276 89.8457 365.105 61.115 89.4272 
368.325 62.1418 88.3704 367.287 62.1334 89.4517 368.016 62.6159 89.9225 
369.484 63.2211 89.4323 370.637 64.0067 90.1232 373.31 64.6319 88.5232 
389.736 64.8316 89.6995 373.037 65.0714 89.753 378.063 66.6883 88.8516 
378.739 67.394 89.5538 382.039 67.9701 88.5406 381.576 68.5079 89.4507 
394.183 68.8835 89.4902 386.092 70.3448 89.1873 386.716 70.3875 88.9741 
393.927 72.6979 89.0136 397.693 73.1189 89.6025 393.711 73.3884 89.2919 
396.944 73.2558 89.4631 398.417 73.7757 89.8617 397.502 74.4087 89.9368 
341.489 49.7871 89.9494 344.869 51.777 89.632 344.09 52.1672 90.3613 
350.679 55.4063 90.8142 353.901 56.7832 90.4335 354.993 57.0425 89.8503 
377.478 57.6839 89.3532 354.841 57.1605 90.4795 357.799 58.2467 90.1605 
365.237 61.446 90.441 367.448 62.4191 90.6541 371.033 64.2325 90.379 
373.26 65.2512 90.5817 375.447 66.1357 90.0799 379.811 68.1666 90.8105 
380.294 68.2271 90.0892 384.807 70.5208 90.6099 400.072 73.3001 91.1847 
392.739 73.6956 89.6426 391.689 73.9842 90.6736 399.192 74.6069 90.8167 
393.513 74.7992 90.4953 396.604 75.4586 90.6445 336.217 45.4772 91.5794 
335.578 45.7653 91.8739 336.294 44.6115 91.9573 342.592 45.2851 90.8821 
344.277 45.8052 90.4612 336.774 48.0413 91.5403 339.864 50.7683 91.351 
364.514 50.9389 90.2734 346.195 53.8023 91.3953 349.583 55.1404 91.5884 
350.747 55.5541 91.5729 352.709 56.2252 91.1874 358.34 58.5284 90.8813 
358.581 58.5453 91.485 360.545 59.317 91.6742 361.232 59.6014 91.6503 
368.457 62.8529 91.1172 369.963 63.6535 90.9619 370.147 63.6364 91.4184 
372.36 64.7774 91.1237 374.129 65.5241 91.2505 376.747 66.7237 91.0382 
399.162 72.2775 90.7471 387.898 72.1535 91.3095 389.509 72.756 90.5141 
401.114 73.0078 92.1849 400.559 74.1209 91.5809 401.254 73.5021 92.1747 
392.882 75.0816 92.0628 394.866 75.4042 90.7304 399.256 75.3011 91.4027 
393.867 75.5614 91.7681 395.195 76.2369 91.9187 333.794 44.32 93.1056 
347.746 44.8308 92.2211 335.699 46.9192 91.8315 335.838 48.6834 92.4193 
359.76 48.1572 91.7429 336.533 49.4313 92.4623 343.171 52.6557 91.6971 
343.473 53.0832 92.7677 347.167 54.3042 92.4916 365.284 61.2208 92.0091 
373.738 65.0218 92.3203 383.175 69.6685 92.1787 385.162 70.6977 92.1952 
388.732 72.6319 92.2638 391.979 74.5512 92.1817 393.247 75.2951 92.3359 
401.256 74.9806 92.6111 397.884 76.3316 92.2595 395.208 76.3863 92.1997 
395.14 76.392 92.35 396.196 76.455 92.1869 395.304 76.4532 92.3211 
333.497 43.033 94.0927 334.149 45.2742 92.7057 334.333 46.5261 92.6491 
337.349 50.6482 93.565 339.311 51.2337 92.6374 341.162 52.2708 93.2524 
351.737 55.7638 92.7049 352.13 55.6864 93.4196 379.213 55.2328 93.3037 
358.393 58.0503 92.9627 360.897 58.9677 93.1158 371.702 63.9248 92.6277 
378.283 67.0557 92.6268 387.69 71.8446 92.9363 401.853 72.2171 93.3019 
390.765 73.6497 92.901 402.254 74.5419 93.363 393.686 75.4511 92.9276 
395.967 76.4475 93.3672 397.031 76.7571 93.6007 398.24 76.834 93.548 
397.938 76.9027 93.6439 331.935 43.5695 94.5406 332.337 42.5999 94.8677 
331.818 44.013 94.4781 332.7 45.1597 93.6933 335.617 49.6054 93.6202 
335.311 49.8392 94.5179 337.695 50.999 94.4666 342.659 52.7176 94.0853 
346.339 53.7669 93.9668 350.939 55.1914 93.7901 360.846 58.5106 94.0385 
403.627 73.6147 95.1092 402.079 75.1462 93.702 401.592 75.7854 94.3301 
398.879 76.8675 94.778 330.126 42.2718 95.9599 329.642 42.4436 96.1579 
330.472 41.8572 96.0677 331.312 41.7865 95.8372 334.219 41.5277 95.3998 
337.545 41.6455 95.0997 330.398 42.8819 95.6102 331.604 45.8777 94.9082 
331.665 46.4695 95.1286 332.656 47.8626 95.2434 333.473 48.3347 94.6773 
334.277 49.3086 95.1081 335.819 50.2093 95.2072 338.253 51.2127 94.6844 
380.803 66.8877 95.2655 387.942 71.0903 94.7013 397.874 76.5826 95.2539 
400.232 76.5997 94.8628 397.663 76.8799 94.1601 399.15 76.9024 95.4906 
328.793 41.6128 97.012 330.078 41.411 96.5354 331.389 40.7938 96.7253 
329.715 44.3811 96.1989 332.502 48.3209 96.4452 369.923 49.0124 95.6126 
334.094 49.3519 96.3153 336.891 50.5705 95.7888 391.52 60.917 95.3712 
404.754 74.3385 96.7762 404.714 74.5129 96.7763 398.016 76.2543 96.0818 
399.078 76.7935 95.8542 399.159 76.8698 95.686 335.437 40.758 96.4254 
328.08 42.6995 97.3682 329.525 45.6662 97.0313 330.662 46.8531 96.9701 
331.642 47.8366 97.3242 333.691 49.0702 97.1779 335.001 49.5991 97.2687 
338.061 50.4634 97.1607 403.815 75.3882 96.8368 399.264 76.8255 95.882 
399.954 76.6945 96.3254 329.308 46.165 97.99 330.725 47.2855 97.8543 
332.839 48.5832 97.9393 335.642 49.7309 97.4505 338.748 50.0491 98.4082 
396.823 63.0497 97.3897 405.542 73.1451 98.087 405.867 73.6309 98.9035 
405.247 74.4039 98.0742 326.922 39.4886 99.6456 330.38 39.085 99.0362 
342.8 40.037 98.839 329.385 46.5509 98.5605 329.243 46.5894 99.0473 
330.178 47.2083 99.1053 403.159 68.1932 98.4022 405.686 71.9114 98.7254 
404.354 75.4696 98.861 404.981 75.1262 99.3862 324.534 39.2905 100.919 
325.427 38.6774 100.877 336.758 38.9999 99.6279 328.351 46.2096 100.423 
330.679 47.4255 99.9324 331.964 47.8561 99.8237 343.322 50.2911 99.6643 
403.027 75.9165 100.132 323.117 38.763 102.072 329.665 37.6914 101.252 
323.996 40.3536 101.081 324.191 41.6216 101.03 326.408 44.8746 100.969 
386.167 53.1806 101.237 406.997 73.3731 101.578 400.856 75.2385 100.603 
406.701 74.3213 101.977 404.47 75.5799 100.542 405.088 75.3831 101.151 
402.387 75.7484 100.716 403.863 75.7362 100.817 323.436 37.7674 102.609 
325.93 37.3592 102.175 323.002 40.6962 101.956 324.199 43.0351 101.844 
325.7 44.8817 102.56 326.965 45.503 102.113 327.711 45.8535 102.395 
357.728 52.695 102.089 378.598 61.0844 101.992 396.141 70.2276 102.245 
406.793 71.163 101.36 407.303 72.6698 102.041 407.526 72.5267 102.711 
405.547 75.2979 102.153 403.994 75.6377 101.814 322.475 37.0109 103.877 
322.126 39.0662 102.918 352.054 39.2419 103.038 321.924 41.0476 103.255 
322.537 42.3096 103.378 361.426 41.7633 102.368 323.559 43.3207 103.102 
323.77 43.7413 103.436 324.124 44.05 103.552 328.116 45.9158 103.024 
393.585 67.4159 103.631 406.571 74.9091 102.976 407.098 74.5057 103.294 
404.834 75.5249 102.532 407.591 74.0273 103.651 403.507 75.3493 103.369 
321.025 37.5118 104.32 322.971 36.4685 104.25 320.581 39.3592 104.398 
321.851 42.1406 104.091 323.764 43.8964 103.853 329.678 45.9363 104.321 
378.939 47.6138 103.887 368.514 55.2848 104.253 391.76 54.6117 103.84 
407.628 71.2293 103.389 407.995 71.7556 104.341 401.578 74.2566 103.364 
403.232 74.9226 104.706 406.413 75.2456 104.088 319.116 36.3329 106.272 
[...]
POINT_DATA 2665
COLOR_SCALARS scalars 3
0.0313725 0.521569 0.54902 0.0313725 0.521569 0.54902 0.0313725 0.521569 0.54902 
0.0313725 0.521569 0.54902 0.0313725 0.521569 0.54902 
0.0313725 0.521569 0.54902 0.0313725 0.521569 0.54902 
0.0313725 0.521569 0.54902 0.0313725 0.521569 0.54902 
0.0313725 0.521569 0.54902 0.0313725 0.521569 0.54902 
0.0313725 0.521569 0.54902 0.0313725 0.521569 0.54902 
0.0313725 0.521569 0.54902 0.0313725 0.521569 0.54902 
0.0313725 0.521569 0.54902 0.0313725 0.521569 0.54902 
0.0313725 0.521569 0.54902 0.0313725 0.521569 0.54902 
0.0313725 0.521569 0.54902 0.0313725 0.521569 0.54902 
0.0313725 0.521569 0.54902 0.0313725 0.521569 0.54902 
0.0313725 0.521569 0.54902 0.0313725 0.521569 0.54902 
0.0313725 0.521569 0.54902 0.0313725 0.521569 0.54902 
0.0313725 0.521569 0.54902 0.0313725 0.521569 0.54902 
0.0313725 0.521569 0.54902 0.0313725 0.521569 0.54902 
0.0313725 0.521569 0.54902 0.0313725 0.521569 0.54902 
0.0313725 0.521569 0.54902 0.0313725 0.521569 0.54902 
0.0313725 0.521569 0.54902 0.0313725 0.521569 0.54902 
0.0313725 0.521569 0.54902 0.0313725 0.521569 0.54902 
0.0313725 0.521569 0.54902 0.0313725 0.521569 0.54902 
0.0313725 0.521569 0.54902 0.0313725 0.521569 0.54902 
0.0313725 0.521569 0.54902 0.0313725 0.521569 0.54902 
0.0313725 0.521569 0.54902 0.0313725 0.521569 0.54902 
0.0313725 0.521569 0.54902 0.0313725 0.521569 0.54902 
0.0313725 0.521569 0.54902 0.0313725 0.521569 0.54902 
0.0313725 0.521569 0.54902 0.0313725 0.521569 0.54902 
0.0313725 0.521569 0.54902 0.0313725 0.521569 0.54902 
0.0313725 0.521569 0.54902 0.0313725 0.521569 0.54902 
0.0313725 0.521569 0.54902 0.0313725 0.521569 0.54902 
0.0313725 0.521569 0.54902 0.0313725 0.521569 0.54902 
0.0313725 0.521569 0.54902 0.0313725 0.521569 0.54902 
0.0313725 0.521569 0.54902 0.0313725 0.521569 0.54902 
0.0313725 0.521569 0.54902 0.0313725 0.521569 0.54902 
0.0313725 0.521569 0.54902 0.0313725 0.521569 0.54902 
0.0313725 0.521569 0.54902 0.0313725 0.521569 0.54902 
0.0313725 0.521569 0.54902 0.0313725 0.521569 0.54902 
0.0313725 0.521569 0.54902 0.0313725 0.521569 0.54902 
0.0313725 0.521569 0.54902 0.0313725 0.521569 0.54902 
0.0313725 0.521569 0.54902 0.0313725 0.521569 0.54902 
0.0313725 0.521569 0.54902 0.0313725 0.521569 0.54902 
0.0313725 0.521569 0.54902 0.0313725 0.521569 0.54902 
0.0313725 0.521569 0.54902 0.0313725 0.521569 0.54902 
0.0313725 0.521569 0.54902 0.0313725 0.521569 0.54902 
0.0313725 0.521569 0.54902 0.0313725 0.521569 0.54902 
0.0313725 0.521569 0.54902 0.0313725 0.521569 0.54902 
0.0313725 0.521569 0.54902 0.0313725 0.521569 0.54902 
0.0313725 0.521569 0.54902 0.0313725 0.521569 0.54902 
0.0313725 0.521569 0.54902 0.0313725 0.521569 0.54902 
0.0313725 0.521569 0.54902 0.0313725 0.521569 0.54902 
0.0313725 0.521569 0.54902 0.0313725 0.521569 0.54902 
0.0313725 0.521569 0.54902 0.0313725 0.521569 0.54902 
0.0313725 0.521569 0.54902 0.0313725 0.521569 0.54902 
0.0313725 0.521569 0.54902 0.0313725 0.521569 0.54902 
0.0313725 0.521569 0.54902 0.0313725 0.521569 0.54902 
0.0313725 0.521569 0.54902 0.0313725 0.521569 0.54902 
0.0313725 0.521569 0.54902 0.0313725 0.521569 0.54902 
0.0313725 0.521569 0.54902 0.0313725 0.521569 0.54902 
0.0313725 0.521569 0.54902 0.0313725 0.521569 0.54902 
0.0313725 0.521569 0.54902 0.0313725 0.521569 0.54902 
0.0313725 0.521569 0.54902 0.0313725 0.521569 0.54902 
0.0313725 0.521569 0.54902 0.0313725 0.521569 0.54902 
0.0313725 0.521569 0.54902 0.0313725 0.521569 0.54902 
0.0313725 0.521569 0.54902 0.0313725 0.521569 0.54902 
0.0313725 0.521569 0.54902 0.0313725 0.521569 0.54902 
0.0313725 0.521569 0.54902 0.0313725 0.521569 0.54902 
0.0313725 0.521569 0.54902 0.0313725 0.521569 0.54902 
0.0313725 0.521569 0.54902 0.0313725 0.521569 0.54902 
0.0313725 0.521569 0.54902 0.0313725 0.521569 0.54902 
0.0313725 0.521569 0.54902 0.0313725 0.521569 0.54902 
0.0313725 0.521569 0.54902 0.0313725 0.521569 0.54902 
0.0313725 0.521569 0.54902 0.0313725 0.521569 0.54902 
0.0313725 0.521569 0.54902 0.0313725 0.521569 0.54902 
0.0313725 0.521569 0.54902 0.0313725 0.521569 0.54902 
0.0313725 0.521569 0.54902 0.0313725 0.521569 0.54902 
0.0313725 0.521569 0.54902 0.0313725 0.521569 0.54902 
0.0313725 0.521569 0.54902 0.0313725 0.521569 0.54902 
0.0313725 0.521569 0.54902 0.0313725 0.521569 0.54902 
0.0313725 0.521569 0.54902 0.0313725 0.521569 0.54902 
0.0313725 0.521569 0.54902 0.0313725 0.521569 0.54902 
0.0313725 0.521569 0.54902 0.0313725 0.521569 0.54902 
0.0313725 0.521569 0.54902 0.0313725 0.521569 0.54902 
0.0313725 0.521569 0.54902 0.0313725 0.521569 0.54902 
0.0313725 0.521569 0.54902 0.0313725 0.521569 0.54902 
0.0313725 0.521569 0.54902 0.0313725 0.521569 0.54902 
0.0313725 0.521569 0.54902 0.0313725 0.521569 0.54902 
0.0313725 0.521569 0.54902 0.0313725 0.521569 0.54902 
0.0313725 0.521569 0.54902 0.0313725 0.521569 0.54902 
0.0313725 0.521569 0.54902 0.0313725 0.521569 0.54902 
0.0313725 0.521569 0.54902 0.0313725 0.521569 0.54902 
0.0313725 0.521569 0.54902 0.0313725 0.521569 0.54902 
0.0313725 0.521569 0.54902 0.0313725 0.521569 0.54902 
0.0313725 0.521569 0.54902 0.0313725 0.521569 0.54902 
0.0313725 0.521569 0.54902 0.0313725 0.521569 0.54902 
0.0313725 0.521569 0.54902 0.0313725 0.521569 0.54902 
0.0313725 0.521569 0.54902 0.0313725 0.521569 0.54902 
0.0313725 0.521569 0.54902 0.0313725 0.521569 0.54902 
0.0313725 0.521569 0.54902 0.0313725 0.521569 0.54902 
0.0313725 0.521569 0.54902 0.0313725 0.521569 0.54902 
0.0313725 0.521569 0.54902 0.0313725 0.521569 0.54902 
0.0313725 0.521569 0.54902 0.0313725 0.521569 0.54902 
0.0313725 0.521569 0.54902 0.0313725 0.521569 0.54902 
0.0313725 0.521569 0.54902 0.0313725 0.521569 0.54902 
0.0313725 0.521569 0.54902 0.0313725 0.521569 0.54902 
0.0313725 0.521569 0.54902 0.0313725 0.521569 0.54902 
0.0313725 0.521569 0.54902 0.0313725 0.521569 0.54902 
0.0313725 0.521569 0.54902 0.0313725 0.521569 0.54902 
0.0313725 0.521569 0.54902 0.0313725 0.521569 0.54902 
0.0313725 0.521569 0.54902 0.0313725 0.521569 0.54902 
0.0313725 0.521569 0.54902 0.0313725 0.521569 0.54902 
0.0313725 0.521569 0.54902 0.0313725 0.521569 0.54902 
0.0313725 0.521569 0.54902 0.0313725 0.521569 0.54902 
0.0313725 0.521569 0.54902 0.0313725 0.521569 0.54902 
0.0313725 0.521569 0.54902 0.0313725 0.521569 0.54902 
0.0313725 0.521569 0.54902 0.0313725 0.521569 0.54902 
0.0313725 0.521569 0.54902 0.0313725 0.521569 0.54902 
0.0313725 0.521569 0.54902 0.0313725 0.521569 0.54902 
0.0313725 0.521569 0.54902 0.0313725 0.521569 0.54902 
0.0313725 0.521569 0.54902 0.0313725 0.521569 0.54902 
0.0313725 0.521569 0.54902 0.0313725 0.521569 0.54902 
0.0313725 0.521569 0.54902 0.0313725 0.521569 0.54902 
0.0313725 0.521569 0.54902 0.0313725 0.521569 0.54902 
0.0313725 0.521569 0.54902 0.0313725 0.521569 0.54902 
0.0313725 0.521569 0.54902 0.0313725 0.521569 0.54902 
0.0313725 0.521569 0.54902 0.0313725 0.521569 0.54902 
0.0313725 0.521569 0.54902 0.0313725 0.521569 0.54902 
0.0313725 0.521569 0.54902 0.0313725 0.521569 0.54902 
0.0313725 0.521569 0.54902 0.0313725 0.521569 0.54902 
0.0313725 0.521569 0.54902 0.0313725 0.521569 0.54902 
0.0313725 0.521569 0.54902 0.0313725 0.521569 0.54902 
0.0313725 0.521569 0.54902 0.0313725 0.521569 0.54902 
0.0313725 0.521569 0.54902 0.0313725 0.521569 0.54902 
0.0313725 0.521569 0.54902 0.0313725 0.521569 0.54902 
0.0313725 0.521569 0.54902 0.0313725 0.521569 0.54902 
0.0313725 0.521569 0.54902 0.0313725 0.521569 0.54902 
0.0313725 0.521569 0.54902 0.0313725 0.521569 0.54902 
0.0313725 0.521569 0.54902 0.0313725 0.521569 0.54902 
0.0313725 0.521569 0.54902 0.0313725 0.521569 0.54902 
0.0313725 0.521569 0.54902 0.0313725 0.521569 0.54902 
0.0313725 0.521569 0.54902 0.0313725 0.521569 0.54902 
0.0313725 0.521569 0.54902 0.0313725 0.521569 0.54902 
0.0313725 0.521569 0.54902 0.0313725 0.521569 0.54902 
0.0313725 0.521569 0.54902 0.0313725 0.521569 0.54902 
0.0313725 0.521569 0.54902 0.0313725 0.521569 0.54902 
0.0313725 0.521569 0.54902 0.0313725 0.521569 0.54902 
0.0313725 0.521569 0.54902 0.0313725 0.521569 0.54902 
0.0313725 0.521569 0.54902 0.0313725 0.521569 0.54902 
0.0313725 0.521569 0.54902 0.0313725 0.521569 0.54902 
0.0313725 0.521569 0.54902 0.0313725 0.521569 0.54902 
0.0313725 0.521569 0.54902 0.0313725 0.521569 0.54902 
0.0313725 0.521569 0.54902 0.0313725 0.521569 0.54902 
0.0313725 0.521569 0.54902 0.0313725 0.521569 0.54902 
0.0313725 0.521569 0.54902 0.0313725 0.521569 0.54902 
0.0313725 0.521569 0.54902 0.0313725 0.521569 0.54902 
0.0313725 0.521569 0.54902 0.0313725 0.521569 0.54902 
0.0313725 0.521569 0.54902 0.0313725 0.521569 0.54902 
0.0313725 0.521569 0.54902 0.0313725 0.521569 0.54902 
0.0313725 0.521569 0.54902 0.0313725 0.521569 0.54902 
0.0313725 0.521569 0.54902 0.0313725 0.521569 0.54902 
0.0313725 0.521569 0.54902 0.0313725 0.521569 0.54902 
0.0313725 0.521569 0.54902 0.0313725 0.521569 0.54902 
0.0313725 0.521569 0.54902 0.0313725 0.521569 0.54902 
0.0313725 0.521569 0.54902 0.0313725 0.521569 0.54902 
0.0313725 0.521569 0.54902 0.0313725 0.521569 0.54902 
0.0313725 0.521569 0.54902 0.0313725 0.521569 0.54902 
0.0313725 0.521569 0.54902 0.0313725 0.521569 0.54902 
0.0313725 0.521569 0.54902 0.0313725 0.521569 0.54902 
0.0313725 0.521569 0.54902 0.0313725 0.521569 0.54902 
0.0313725 0.521569 0.54902 0.0313725 0.521569 0.54902 
0.0313725 0.521569 0.54902 0.0313725 0.521569 0.54902 
0.0313725 0.521569 0.54902 0.0313725 0.521569 0.54902 
0.0313725 0.521569 0.54902 0.0313725 0.521569 0.54902 
0.0313725 0.521569 0.54902 0.0313725 0.521569 0.54902 
0.0313725 0.521569 0.54902 0.0313725 0.521569 0.54902 
0.0313725 0.521569 0.54902 0.0313725 0.521569 0.54902 
0.0313725 0.521569 0.54902 0.0313725 0.521569 0.54902 
0.0313725 0.521569 0.54902 0.0313725 0.521569 0.54902 
0.0313725 0.521569 0.54902 0.0313725 0.521569 0.54902 
0.0313725 0.521569 0.54902 0.0313725 0.521569 0.54902 
0.0313725 0.521569 0.54902 0.0313725 0.521569 0.54902 
0.0313725 0.521569 0.54902 0.0313725 0.521569 0.54902 
0.0313725 0.521569 0.54902 0.0313725 0.521569 0.54902 
0.0313725 0.521569 0.54902 0.0313725 0.521569 0.54902 
0.0313725 0.521569 0.54902 0.0313725 0.521569 0.54902 
0.0313725 0.521569 0.54902 0.0313725 0.521569 0.54902 
0.0313725 0.521569 0.54902 0.0313725 0.521569 0.54902 
0.0313725 0.521569 0.54902 0.0313725 0.521569 0.54902 
0.0313725 0.521569 0.54902 0.0313725 0.521569 0.54902 
0.0313725 0.521569 0.54902 0.0313725 0.521569 0.54902 
0.0313725 0.521569 0.54902 0.0313725 0.521569 0.54902 
0.0313725 0.521569 0.54902 0.0313725 0.521569 0.54902 
0.0313725 0.521569 0.54902 0.0313725 0.521569 0.54902 
0.0313725 0.521569 0.54902 0.0313725 0.521569 0.54902 
0.0313725 0.521569 0.54902 0.0313725 0.521569 0.54902 
0.0313725 0.521569 0.54902 0.0313725 0.521569 0.54902 
0.0313725 0.521569 0.54902 0.0313725 0.521569 0.54902 
0.0313725 0.521569 0.54902 0.0313725 0.521569 0.54902 
0.0313725 0.521569 0.54902 0.0313725 0.521569 0.54902 
0.0313725 0.521569 0.54902 0.0313725 0.521569 0.54902 
0.0313725 0.521569 0.54902 0.0313725 0.521569 0.54902 
0.0313725 0.521569 0.54902 0.0313725 0.521569 0.54902 
0.0313725 0.521569 0.54902 0.0313725 0.521569 0.54902 
0.0313725 0.521569 0.54902 0.0313725 0.521569 0.54902 
0.0313725 0.521569 0.54902 0.0313725 0.521569 0.54902 
0.0313725 0.521569 0.54902 0.0313725 0.521569 0.54902 
0.0313725 0.521569 0.54902 0.0313725 0.521569 0.54902 
0.0313725 0.521569 0.54902 0.0313725 0.521569 0.54902 
0.0313725 0.521569 0.54902 0.0313725 0.521569 0.54902 
0.0313725 0.521569 0.54902 0.0313725 0.521569 0.54902 
0.0313725 0.521569 0.54902 0.0313725 0.521569 0.54902 
0.0313725 0.521569 0.54902 0.0313725 0.521569 0.54902 
0.0313725 0.521569 0.54902 0.0313725 0.521569 0.54902 
0.0313725 0.521569 0.54902 0.0313725 0.521569 0.54902 
0.0313725 0.521569 0.54902 0.0313725 0.521569 0.54902 
0.0313725 0.521569 0.54902 0.0313725 0.521569 0.54902 
0.0313725 0.521569 0.54902 0.0313725 0.521569 0.54902 
0.0313725 0.521569 0.54902 0.0313725 0.521569 0.54902 
0.0313725 0.521569 0.54902 0.0313725 0.521569 0.54902 
0.0313725 0.521569 0.54902 0.0313725 0.521569 0.54902 
0.0313725 0.521569 0.54902 0.0313725 0.521569 0.54902 
0.0313725 0.521569 0.54902 0.0313725 0.521569 0.54902 
0.0313725 0.521569 0.54902 0.0313725 0.521569 0.54902 
0.0313725 0.521569 0.54902 0.0313725 0.521569 0.54902 
0.0313725 0.521569 0.54902 0.0313725 0.521569 0.54902 
0.0313725 0.521569 0.54902 0.0313725 0.521569 0.54902 
0.0313725 0.521569 0.54902 0.0313725 0.521569 0.54902 
0.0313725 0.521569 0.54902 0.0313725 0.521569 0.54902 
0.0313725 0.521569 0.54902 0.0313725 0.521569 0.54902 
0.0313725 0.521569 0.54902 0.0313725 0.521569 0.54902 
0.0313725 0.521569 0.54902 0.0313725 0.521569 0.54902 
0.0313725 0.521569 0.54902 0.0313725 0.521569 0.54902 
0.0313725 0.521569 0.54902 0.0313725 0.521569 0.54902 
0.0313725 0.521569 0.54902 0.0313725 0.521569 0.54902 
0.0313725 0.521569 0.54902 0.0313725 0.521569 0.54902 
0.0313725 0.521569 0.54902 0.0313725 0.521569 0.54902 
0.0313725 0.521569 0.54902 0.0313725 0.521569 0.54902 
0.0313725 0.521569 0.54902 0.0313725 0.521569 0.54902 
0.0313725 0.521569 0.54902 0.0313725 0.521569 0.54902 
0.0313725 0.521569 0.54902 0.0313725 0.521569 0.54902 
0.0313725 0.521569 0.54902 0.0313725 0.521569 0.54902 
0.0313725 0.521569 0.54902 0.0313725 0.521569 0.54902 
0.0313725 0.521569 0.54902 0.0313725 0.521569 0.54902 
0.0313725 0.521569 0.54902 0.0313725 0.521569 0.54902 
0.0313725 0.521569 0.54902 0.0313725 0.521569 0.54902 
0.0313725 0.521569 0.54902 0.0313725 0.521569 0.54902 
0.0313725 0.521569 0.54902 0.0313725 0.521569 0.54902 
0.0313725 0.521569 0.54902 0.0313725 0.521569 0.54902 
0.0313725 0.521569 0.54902 0.0313725 0.521569 0.54902 
0.0313725 0.521569 0.54902 0.0313725 0.521569 0.54902 
0.0313725 0.521569 0.54902 0.0313725 0.521569 0.54902 
0.0313725 0.521569 0.54902 0.0313725 0.521569 0.54902 
0.0313725 0.521569 0.54902 0.0313725 0.521569 0.54902 
0.0313725 0.521569 0.54902 0.0313725 0.521569 0.54902 
0.0313725 0.521569 0.54902 0.0313725 0.521569 0.54902 
0.0313725 0.521569 0.54902 0.0313725 0.521569 0.54902 
0.0313725 0.521569 0.54902 0.0313725 0.521569 0.54902 
0.0313725 0.521569 0.54902 0.0313725 0.521569 0.54902 
0.0313725 0.521569 0.54902 0.0313725 0.521569 0.54902 
0.0313725 0.521569 0.54902 0.0313725 0.521569 0.54902 
0.0313725 0.521569 0.54902 0.0313725 0.521569 0.54902 
0.0313725 0.521569 0.54902 0.0313725 0.521569 0.54902 
0.0313725 0.521569 0.54902 0.0313725 0.521569 0.54902 
0.0313725 0.521569 0.54902 0.0313725 0.521569 0.54902 
0.0313725 0.521569 0.54902 0.0313725 0.521569 0.54902 
0.0313725 0.521569 0.54902 0.0313725 0.521569 0.54902 
0.0313725 0.521569 0.54902 0.0313725 0.521569 0.54902 
0.0313725 0.521569 0.54902 0.0313725 0.521569 0.54902 
0.0313725 0.521569 0.54902 0.0313725 0.521569 0.54902 
0.0313725 0.521569 0.54902 0.0313725 0.521569 0.54902 
0.0313725 0.521569 0.54902 0.0313725 0.521569 0.54902 
0.0313725 0.521569 0.54902 0.0313725 0.521569 0.54902 
0.0313725 0.521569 0.54902 0.0313725 0.521569 0.54902 
0.0313725 0.521569 0.54902 0.0313725 0.521569 0.54902 
0.0313725 0.521569 0.54902 0.0313725 0.521569 0.54902 
0.0313725 0.521569 0.54902 0.0313725 0.521569 0.54902 
0.0313725 0.521569 0.54902 0.0313725 0.521569 0.54902 
0.0313725 0.521569 0.54902 0.0313725 0.521569 0.54902 
0.0313725 0.521569 0.54902 0.0313725 0.521569 0.54902 
0.0313725 0.521569 0.54902 0.0313725 0.521569 0.54902 
0.0313725 0.521569 0.54902 0.0313725 0.521569 0.54902 
0.0313725 0.521569 0.54902 0.0313725 0.521569 0.54902 
0.0313725 0.521569 0.54902 0.0313725 0.521569 0.54902 
0.0313725 0.521569 0.54902 0.0313725 0.521569 0.54902 
0.0313725 0.521569 0.54902 0.0313725 0.521569 0.54902 
0.0313725 0.521569 0.54902 0.0313725 0.521569 0.54902 
0.0313725 0.521569 0.54902 0.0313725 0.521569 0.54902 
0.0313725 0.521569 0.54902 0.0313725 0.521569 0.54902 
0.0313725 0.521569 0.54902 0.0313725 0.521569 0.54902 
0.0313725 0.521569 0.54902 0.0313725 0.521569 0.54902 
0.0313725 0.521569 0.54902 0.0313725 0.521569 0.54902 
0.0313725 0.521569 0.54902 0.0313725 0.521569 0.54902 
0.0313725 0.521569 0.54902 0.0313725 0.521569 0.54902 
0.0313725 0.521569 0.54902 0.0313725 0.521569 0.54902 
0.0313725 0.521569 0.54902 0.0313725 0.521569 0.54902 
0.0313725 0.521569 0.54902 0.0313725 0.521569 0.54902 
0.0313725 0.521569 0.54902 0.0313725 0.521569 0.54902 
0.0313725 0.521569 0.54902 0.0313725 0.521569 0.54902 
0.0313725 0.521569 0.54902 0.0313725 0.521569 0.54902 
0.0313725 0.521569 0.54902 0.0313725 0.521569 0.54902 
0.0313725 0.521569 0.54902 0.0313725 0.521569 0.54902 
0.0313725 0.521569 0.54902 0.0313725 0.521569 0.54902 
0.0313725 0.521569 0.54902 0.0313725 0.521569 0.54902 
0.0313725 0.521569 0.54902 0.0313725 0.521569 0.54902 
0.0313725 0.521569 0.54902 0.0313725 0.521569 0.54902 
0.0313725 0.521569 0.54902 0.0313725 0.521569 0.54902 
0.0313725 0.521569 0.54902 0.0313725 0.521569 0.54902 
0.0313725 0.521569 0.54902 0.0313725 0.521569 0.54902 
0.0313725 0.521569 0.54902 0.0313725 0.521569 0.54902 
0.0313725 0.521569 0.54902 0.0313725 0.521569 0.54902 
0.0313725 0.521569 0.54902 0.0313725 0.521569 0.54902 
0.0313725 0.521569 0.54902 0.0313725 0.521569 0.54902 
0.0313725 0.521569 0.54902 0.0313725 0.521569 0.54902 
0.0313725 0.521569 0.54902 0.0313725 0.521569 0.54902 
0.0313725 0.521569 0.54902 0.0313725 0.521569 0.54902 
0.0313725 0.521569 0.54902 0.0313725 0.521569 0.54902 
0.0313725 0.521569 0.54902 0.0313725 0.521569 0.54902 
0.0313725 0.521569 0.54902 0.0313725 0.521569 0.54902 
0.0313725 0.521569 0.54902 0.0313725 0.521569 0.54902 
0.0313725 0.521569 0.54902 0.0313725 0.521569 0.54902 
0.0313725 0.521569 0.54902 0.0313725 0.521569 0.54902 
0.0313725 0.521569 0.54902 0.0313725 0.521569 0.54902 
0.0313725 0.521569 0.54902 0.0313725 0.521569 0.54902 
0.0313725 0.521569 0.54902 0.0313725 0.521569 0.54902 
0.0313725 0.521569 0.54902 0.0313725 0.521569 0.54902 
0.0313725 0.521569 0.54902 0.0313725 0.521569 0.54902 
0.0313725 0.521569 0.54902 0.0313725 0.521569 0.54902 
0.0313725 0.521569 0.54902 0.0313725 0.521569 0.54902 
0.0313725 0.521569 0.54902 0.0313725 0.521569 0.54902 
0.0313725 0.521569 0.54902 0.0313725 0.521569 0.54902 
0.0313725 0.521569 0.54902 0.0313725 0.521569 0.54902 
0.0313725 0.521569 0.54902 0.0313725 0.521569 0.54902 
0.0313725 0.521569 0.54902 0.0313725 0.521569 0.54902 
0.0313725 0.521569 0.54902 0.0313725 0.521569 0.54902 
0.0313725 0.521569 0.54902 0.0313725 0.521569 0.54902 
0.0313725 0.521569 0.54902 0.0313725 0.521569 0.54902 
0.0313725 0.521569 0.54902 0.0313725 0.521569 0.54902 
0.0313725 0.521569 0.54902 0.0313725 0.521569 0.54902 
0.0313725 0.521569 0.54902 0.0313725 0.521569 0.54902 
0.0313725 0.521569 0.54902 0.0313725 0.521569 0.54902 
0.0313725 0.521569 0.54902 0.0313725 0.521569 0.54902 
0.0313725 0.521569 0.54902 0.0313725 0.521569 0.54902 
0.0313725 0.521569 0.54902 0.0313725 0.521569 0.54902 
0.0313725 0.521569 0.54902 0.0313725 0.521569 0.54902 
0.0313725 0.521569 0.54902 0.0313725 0.521569 0.54902 
0.0313725 0.521569 0.54902 0.0313725 0.521569 0.54902 
0.0313725 0.521569 0.54902 0.0313725 0.521569 0.54902 
0.0313725 0.521569 0.54902 0.0313725 0.521569 0.54902 
0.0313725 0.521569 0.54902 0.0313725 0.521569 0.54902 
0.0313725 0.521569 0.54902 0.0313725 0.521569 0.54902 
0.0313725 0.521569 0.54902 0.0313725 0.521569 0.54902 
0.0313725 0.521569 0.54902 0.0313725 0.521569 0.54902 
0.0313725 0.521569 0.54902 0.0313725 0.521569 0.54902 
0.0313725 0.521569 0.54902 0.0313725 0.521569 0.54902 
0.0313725 0.521569 0.54902 0.0313725 0.521569 0.54902 
0.0313725 0.521569 0.54902 0.0313725 0.521569 0.54902 
0.0313725 0.521569 0.54902 0.0313725 0.521569 0.54902 
0.0313725 0.521569 0.54902 0.0313725 0.521569 0.54902 
0.0313725 0.521569 0.54902 0.0313725 0.521569 0.54902 
0.0313725 0.521569 0.54902 0.0313725 0.521569 0.54902 
0.0313725 0.521569 0.54902 0.0313725 0.521569 0.54902 
0.0313725 0.521569 0.54902 0.0313725 0.521569 0.54902 
0.0313725 0.521569 0.54902 0.0313725 0.521569 0.54902 
0.0313725 0.521569 0.54902 0.0313725 0.521569 0.54902 