# vtk DataFile Version 4.2
vtk output
ASCII
DATASET POLYDATA
POINTS 903 float
383.504 106.004 87.0174 383.504 106.004 87.0175 383.504 106.004 87.0174 
383.505 106.004 87.0174 383.505 106.004 87.0175 383.505 106.004 87.0175 
383.504 106.004 87.0174 383.505 106.004 87.0175 384.504 105.004 88.0174 
384.504 105.004 88.0175 384.504 105.004 88.0174 384.505 105.004 88.0174 
384.505 105.004 88.0175 384.505 105.004 88.0175 383.504 106.004 87.0175 
383.505 106.004 87.0175 384.504 105.004 88.0174 384.505 105.004 88.0175 
383.797 102.121 90.4646 383.888 102.337 90.3075 384.454 102.537 90.137 
384.018 102.503 90.1566 383.949 102.426 90.2593 384.163 102.599 90.0619 
384.426 102.702 89.9727 384.381 102.728 89.9469 384.422 102.759 89.9235 
384.081 102.573 90.1109 384.182 102.634 90.0593 384.504 105.004 88.0175 
384.301 102.695 89.991 384.505 105.004 88.0175 384.396 102.746 89.9409 
383.389 101.713 90.8309 382.941 101.418 91.1379 384.689 101.87 90.771 
383.165 101.616 91.0495 383.684 102.071 90.6073 384.548 102.318 90.339 
384.563 102.383 90.2931 384.429 102.714 89.9712 386.217 100.97 91.8311 
382.562 101.069 91.4286 385.221 101.408 91.2412 385.653 101.265 91.4555 
386.13 101.122 91.6548 385.989 101.196 91.5724 386.121 101.174 91.6136 
382.674 101.257 91.391 384.584 101.775 91.0378 385.233 101.469 91.3069 
384.582 102.255 90.4226 385.783 101.261 91.5367 386.047 101.193 91.6064 
379.484 99.6871 92.9104 379.359 99.6365 92.9671 379.354 99.6863 92.9275 
379.898 99.7668 92.8187 386.301 100.43 92.3561 379.941 99.8538 92.8114 
380.328 100.003 92.705 380.419 100.01 92.6076 381.349 100.331 92.2345 
386.526 100.855 91.977 386.446 100.77 92.0333 386.637 100.838 92.0107 
386.64 100.822 92.0145 386.689 100.823 92.024 380.728 100.162 92.5236 
381.778 100.607 92.1896 386.42 100.841 92.0145 386.142 101.131 91.6704 
386.625 100.811 92.0393 379.545 99.3709 93.2895 381.971 99.528 92.923 
379.389 99.5663 93.0568 379.321 99.6402 92.9842 386.585 100.118 92.7055 
386.71 100.03 92.8081 386.675 100.023 92.7915 386.71 99.9924 92.843 
382.653 100.611 92.4555 386.48 100.726 92.1151 386.628 100.796 92.043 
380.308 98.5458 94.2165 381.979 98.4319 94.5776 379.626 99.0713 93.629 
379.488 99.145 93.5504 379.9 98.9246 93.7733 382.265 99.1231 93.6784 
383.113 99.518 93.2176 383.941 99.6965 92.9972 384.711 99.7859 92.8879 
385.915 99.8599 92.8255 386.47 99.9471 92.7916 386.272 99.8962 92.8111 
386.462 99.9074 92.8614 379.451 99.5883 93.0744 386.61 99.9643 92.835 
386.627 99.9765 92.864 380.609 98.0877 94.742 380.525 98.1755 94.7197 
382.684 97.7299 95.4615 383.58 97.3721 95.9412 385.258 97.2282 96.3212 
385.913 97.2337 96.3943 386.654 97.2762 96.4465 386.761 97.2826 96.4678 
379.587 99.1183 93.6051 379.954 98.9365 93.8537 380.421 98.5077 94.4001 
382.369 97.9148 95.3681 382.176 99.2027 93.8014 383.206 97.577 95.8574 
382.9 99.5681 93.3837 384.08 97.3975 96.1674 383.721 99.7404 93.1359 
384.905 97.3247 96.34 385.204 99.8715 92.9245 386.206 97.3018 96.4558 
386.625 97.3083 96.4563 386.224 99.8876 92.8811 384.285 99.9789 92.9985 
386.469 99.9368 92.8821 381.204 97.3787 95.659 381.144 97.4555 95.5513 
380.974 97.625 95.3483 380.717 97.8786 95.0454 381.702 97.1956 95.9784 
382.502 96.815 96.4458 385.952 96.9051 96.6546 386.822 97.047 96.8838 
386.816 97.3061 96.4775 386.836 97.2426 96.5597 386.861 97.2912 96.5208 
383.738 97.4177 96.3011 382.892 95.3387 98.4485 382.751 95.6001 98.1439 
381.264 97.433 95.666 382.725 95.9285 97.746 382.703 95.7057 98.1466 
383.017 96.1062 97.3513 380.932 97.719 95.3152 382.701 96.0051 97.8451 
381.909 97.2455 96.1493 382.541 96.5419 97.0872 386.977 96.7778 97.3649 
386.689 97.1964 96.7587 386.918 96.8778 97.2782 386.839 97.2342 96.626 
382.913 95.165 98.7846 382.771 95.4188 98.4711 383.575 95.0836 98.7453 
382.785 95.5098 98.5268 386.794 96.2829 97.9722 386.974 96.1762 98.4482 
386.972 96.7144 97.5509 383.499 94.2 100.243 383.261 94.5215 99.8647 
383.032 94.9535 99.1787 382.876 95.2188 98.8674 387.119 95.9029 98.9437 
387.159 95.7355 99.2406 386.826 96.1005 98.9077 387.106 95.8687 99.1487 
386.949 96.5473 97.8797 383.403 94.0243 100.591 384.146 94.4752 99.9666 
384.953 94.479 100.695 383.105 94.9663 99.4049 383.414 94.5578 100.176 
385.094 94.811 100.014 385.689 94.9369 99.9943 386.288 94.9437 100.16 
387.04 95.2974 99.8188 383.737 95.2707 99.5315 385.242 95.7032 99.4429 
385.679 95.2592 100.07 387.092 95.53 99.458 387.192 95.5505 99.6999 
383.463 93.7253 101.166 383.542 93.7995 101.283 385.504 94.2693 101.239 
385.978 94.3877 101.194 386.339 94.6054 100.884 384.635 94.4404 100.981 
385.299 94.3017 101.363 385.141 94.9503 100.179 385.819 94.3907 101.353 
385.542 94.9461 100.197 386.067 94.7831 100.717 387.156 95.3409 99.9144 
387.21 95.4176 100.157 387.092 95.5233 100.095 383.534 93.3695 101.742 
383.503 93.4664 101.572 383.686 93.3286 101.928 387.022 94.8441 100.925 
387.215 95.1293 100.688 387.131 95.1459 100.766 387.195 95.3233 100.445 
383.555 93.3967 101.76 384.677 92.8839 103.503 385.121 92.717 104.01 
384.103 93.2223 102.456 384.013 93.3498 102.327 386.521 93.983 102.191 
386.709 94.1433 102.224 386.579 94.2296 102.203 386.94 94.6501 101.461 
387.169 94.855 101.23 387.227 95.0112 100.987 385.156 92.2671 105.138 
385.001 92.4828 104.609 385.461 92.5729 104.754 384.469 93.1554 103.028 
384.928 92.7369 104.147 385.7 93.052 103.766 386.136 93.5739 103.564 
386.575 93.7994 102.765 386.627 93.8446 102.955 387.225 94.9278 101.134 
385.242 92.0308 105.765 385.174 92.1679 105.437 385.442 92.2298 105.483 
385.458 92.033 105.952 385.293 92.4473 105.029 385.447 92.9185 104.212 
385.439 92.1841 105.642 385.827 93.0835 104.062 386.235 93.2968 103.831 
386.275 93.3317 104.024 386.579 93.6494 103.207 386.462 93.482 103.504 
386.617 93.5909 103.539 386.613 93.6741 103.507 385.4 91.6561 106.782 
385.474 91.5814 106.991 385.329 91.8248 106.342 385.266 91.9618 105.984 
385.514 91.8552 106.478 385.282 91.999 105.967 385.451 91.993 106.164 
386.663 93.5099 103.936 386.613 93.4791 104.065 385.473 91.2786 107.809 
385.443 91.4313 107.402 385.503 91.553 107.106 385.546 91.4595 107.441 
385.342 91.8107 106.441 385.428 91.5505 107.157 385.508 91.7445 106.845 
386.647 93.3874 104.256 385.573 91.6958 106.994 386.724 93.4006 104.307 
386.712 93.4402 104.204 385.452 90.9504 108.681 385.462 91.1873 108.105 
385.643 91.4728 107.653 385.62 91.5053 107.576 386.736 93.4115 104.295 
385.364 90.6167 109.473 385.288 90.389 110 385.342 90.5597 109.634 
385.418 90.8063 109.075 385.597 91.1028 108.546 385.579 91.1548 108.414 
385.627 91.2895 108.117 385.662 91.3035 108.132 385.666 91.1991 108.439 
385.67 91.2857 108.214 385.664 91.3079 108.156 385.233 90.2371 110.374 
385.261 90.3333 110.139 385.633 91.1095 108.621 385.617 90.9892 108.944 
385.684 91.1812 108.525 385.677 91.1529 108.593 385.063 89.7962 111.448 
385.088 89.8592 111.294 385.161 90.0238 110.936 385.563 90.8274 109.291 
385.423 90.4905 110.024 385.475 90.6498 109.673 385.657 91.0504 108.836 
385.053 89.7141 111.769 385.05 89.7489 111.603 385.306 90.2157 110.658 
385.241 90.0982 110.942 385.364 90.3643 110.325 385.054 89.7334 111.705 
385.053 89.6747 111.977 385.209 89.9947 111.2 385.129 89.7982 111.755 
385.04 89.5625 112.454 385.058 89.5829 112.439 385.027 89.469 112.851 
385.024 89.4657 112.852 385.027 89.4694 112.852 385.024 89.466 112.853 
385.017 89.4203 113.045 385.016 89.4198 113.043 385.016 89.42 113.044 
385.015 89.4195 113.042 385.013 89.4045 113.107 384 88.0087 339.017 
384 88.0087 339.017 384 88.0088 339.017 384 88.0088 339.017 
384 88.0088 339.017 385.01 89.3946 342.067 385.01 89.3955 342.07 
385.007 89.3805 342.003 385.009 89.3941 342.069 385.009 89.395 342.072 
384 88.0087 339.018 385.017 89.4369 342.263 385.02 89.4411 342.267 
385.016 89.4356 342.264 385.02 89.4398 342.268 385.025 89.5063 342.595 
385.045 89.5277 342.617 385.029 89.5795 342.967 385.056 89.6197 343.058 
385.077 89.6281 342.976 385.089 89.6913 343.214 385.093 89.6732 343.146 
385.135 89.7739 343.427 385.022 89.6126 343.155 385.022 89.6477 343.321 
385.165 89.8354 343.608 385.22 89.9689 343.979 385.226 89.9806 343.988 
385.028 89.6776 343.439 385.119 89.9005 344.017 385.353 90.2712 344.718 
385.521 90.6248 345.502 385.575 90.7365 345.774 385.663 90.8713 346.02 
385.687 90.9538 346.194 385.739 91.0508 346.422 385.748 91.1229 346.583 
385.391 90.4723 345.301 385.269 90.2567 344.9 385.249 90.2204 344.821 
385.57 90.8737 346.183 385.565 90.9406 346.341 385.744 91.1577 346.747 
385.763 91.1935 346.785 385.738 91.2711 347 385.191 90.1373 344.694 
385.219 90.1764 344.758 385.594 91.2467 347.168 385.59 91.3633 347.443 
385.613 91.201 346.973 385.734 91.3323 347.226 385.704 91.4166 347.459 
385.548 91.4783 347.876 385.517 91.5276 347.993 385.645 91.4366 347.691 
385.672 91.481 347.707 385.62 91.5493 347.92 385.464 91.6933 348.562 
385.355 91.8204 348.93 385.453 91.7618 348.72 385.4 91.8021 348.819 
385.475 91.7355 348.593 386.71 93.3497 351.315 386.663 93.3412 351.37 
386.731 93.3647 351.324 386.723 93.3515 351.333 386.712 93.3807 351.41 
386.667 93.372 351.375 385.386 91.7794 348.837 385.211 92.0398 349.618 
385.185 92.0848 349.752 385.119 92.2115 350.098 385.343 91.8955 349.179 
385.368 91.8718 349.082 385.221 92.0658 349.66 385.321 91.9397 349.276 
386.494 93.3341 351.532 386.392 93.3493 351.598 386.646 93.4091 351.592 
386.662 93.4382 351.566 385.018 92.3609 350.539 384.966 92.4896 350.83 
385.163 92.153 349.958 385.25 92.0362 349.605 385.163 92.1784 350.028 
385.175 92.2072 350.057 386.174 93.3673 351.776 386.105 93.3082 351.832 
385.766 93.3169 351.985 386.044 93.4731 352.004 386.564 93.498 351.846 
386.493 93.5814 352.015 384.864 92.6249 351.225 385.1 92.3453 350.458 
385.072 92.7286 351.317 384.666 92.9641 352.015 385.251 93.1386 351.972 
385.498 93.1837 352.063 386.424 93.6151 352.227 383.898 93.4099 353.381 
383.75 93.4601 353.574 383.727 93.5247 353.663 384.783 92.8677 351.82 
384.287 93.3077 353.024 384.198 93.3691 353.056 386.067 93.5889 352.634 
386.253 93.6865 352.591 386.308 93.7305 352.547 386.201 93.8235 352.742 
[...]
POINT_DATA 903
COLOR_SCALARS scalars 3
0.0313725 0.521569 0.54902 0.0313725 0.521569 0.54902 0.0313725 0.521569 0.54902 
0.0313725 0.521569 0.54902 0.0313725 0.521569 0.54902 
0.0313725 0.521569 0.54902 0.0313725 0.521569 0.54902 
0.0313725 0.521569 0.54902 0.0313725 0.521569 0.54902 
0.0313725 0.521569 0.54902 0.0313725 0.521569 0.54902 
0.0313725 0.521569 0.54902 0.0313725 0.521569 0.54902 
0.0313725 0.521569 0.54902 0.0313725 0.521569 0.54902 
0.0313725 0.521569 0.54902 0.0313725 0.521569 0.54902 
0.0313725 0.521569 0.54902 0.0313725 0.521569 0.54902 
0.0313725 0.521569 0.54902 0.0313725 0.521569 0.54902 
0.0313725 0.521569 0.54902 0.0313725 0.521569 0.54902 
0.0313725 0.521569 0.54902 0.0313725 0.521569 0.54902 
0.0313725 0.521569 0.54902 0.0313725 0.521569 0.54902 
0.0313725 0.521569 0.54902 0.0313725 0.521569 0.54902 
0.0313725 0.521569 0.54902 0.0313725 0.521569 0.54902 
0.0313725 0.521569 0.54902 0.0313725 0.521569 0.54902 
0.0313725 0.521569 0.54902 0.0313725 0.521569 0.54902 
0.0313725 0.521569 0.54902 0.0313725 0.521569 0.54902 
0.0313725 0.521569 0.54902 0.0313725 0.521569 0.54902 
0.0313725 0.521569 0.54902 0.0313725 0.521569 0.54902 
0.0313725 0.521569 0.54902 0.0313725 0.521569 0.54902 
0.0313725 0.521569 0.54902 0.0313725 0.521569 0.54902 
0.0313725 0.521569 0.54902 0.0313725 0.521569 0.54902 
0.0313725 0.521569 0.54902 0.0313725 0.521569 0.54902 
0.0313725 0.521569 0.54902 0.0313725 0.521569 0.54902 
0.0313725 0.521569 0.54902 0.0313725 0.521569 0.54902 
0.0313725 0.521569 0.54902 0.0313725 0.521569 0.54902 
0.0313725 0.521569 0.54902 0.0313725 0.521569 0.54902 
0.0313725 0.521569 0.54902 0.0313725 0.521569 0.54902 
0.0313725 0.521569 0.54902 0.0313725 0.521569 0.54902 
0.0313725 0.521569 0.54902 0.0313725 0.521569 0.54902 
0.0313725 0.521569 0.54902 0.0313725 0.521569 0.54902 
0.0313725 0.521569 0.54902 0.0313725 0.521569 0.54902 
0.0313725 0.521569 0.54902 0.0313725 0.521569 0.54902 
0.0313725 0.521569 0.54902 0.0313725 0.521569 0.54902 
0.0313725 0.521569 0.54902 0.0313725 0.521569 0.54902 
0.0313725 0.521569 0.54902 0.0313725 0.521569 0.54902 
0.0313725 0.521569 0.54902 0.0313725 0.521569 0.54902 
0.0313725 0.521569 0.54902 0.0313725 0.521569 0.54902 
0.0313725 0.521569 0.54902 0.0313725 0.521569 0.54902 
0.0313725 0.521569 0.54902 0.0313725 0.521569 0.54902 
0.0313725 0.521569 0.54902 0.0313725 0.521569 0.54902 
0.0313725 0.521569 0.54902 0.0313725 0.521569 0.54902 
0.0313725 0.521569 0.54902 0.0313725 0.521569 0.54902 
0.0313725 0.521569 0.54902 0.0313725 0.521569 0.54902 
0.0313725 0.521569 0.54902 0.0313725 0.521569 0.54902 
0.0313725 0.521569 0.54902 0.0313725 0.521569 0.54902 
0.0313725 0.521569 0.54902 0.0313725 0.521569 0.54902 
0.0313725 0.521569 0.54902 0.0313725 0.521569 0.54902 
0.0313725 0.521569 0.54902 0.0313725 0.521569 0.54902 
0.0313725 0.521569 0.54902 0.0313725 0.521569 0.54902 
0.0313725 0.521569 0.54902 0.0313725 0.521569 0.54902 
0.0313725 0.521569 0.54902 0.0313725 0.521569 0.54902 
0.0313725 0.521569 0.54902 0.0313725 0.521569 0.54902 
0.0313725 0.521569 0.54902 0.0313725 0.521569 0.54902 
0.0313725 0.521569 0.54902 0.0313725 0.521569 0.54902 
0.0313725 0.521569 0.54902 0.0313725 0.521569 0.54902 
0.0313725 0.521569 0.54902 0.0313725 0.521569 0.54902 
0.0313725 0.521569 0.54902 0.0313725 0.521569 0.54902 
0.0313725 0.521569 0.54902 0.0313725 0.521569 0.54902 
0.0313725 0.521569 0.54902 0.0313725 0.521569 0.54902 
0.0313725 0.521569 0.54902 0.0313725 0.521569 0.54902 
0.0313725 0.521569 0.54902 0.0313725 0.521569 0.54902 
0.0313725 0.521569 0.54902 0.0313725 0.521569 0.54902 
0.0313725 0.521569 0.54902 0.0313725 0.521569 0.54902 
0.0313725 0.521569 0.54902 0.0313725 0.521569 0.54902 
0.0313725 0.521569 0.54902 0.0313725 0.521569 0.54902 
0.0313725 0.521569 0.54902 0.0313725 0.521569 0.54902 
0.0313725 0.521569 0.54902 0.0313725 0.521569 0.54902 
0.0313725 0.521569 0.54902 0.0313725 0.521569 0.54902 
0.0313725 0.521569 0.54902 0.0313725 0.521569 0.54902 
0.0313725 0.521569 0.54902 0.0313725 0.521569 0.54902 
0.0313725 0.521569 0.54902 0.0313725 0.521569 0.54902 
0.0313725 0.521569 0.54902 0.0313725 0.521569 0.54902 
0.0313725 0.521569 0.54902 0.0313725 0.521569 0.54902 
0.0313725 0.521569 0.54902 0.0313725 0.521569 0.54902 
0.0313725 0.521569 0.54902 0.0313725 0.521569 0.54902 
0.0313725 0.521569 0.54902 0.0313725 0.521569 0.54902 
0.0313725 0.521569 0.54902 0.0313725 0.521569 0.54902 
0.0313725 0.521569 0.54902 0.0313725 0.521569 0.54902 
0.0313725 0.521569 0.54902 0.0313725 0.521569 0.54902 
0.0313725 0.521569 0.54902 0.0313725 0.521569 0.54902 
0.0313725 0.521569 0.54902 0.0313725 0.521569 0.54902 
0.0313725 0.521569 0.54902 0.0313725 0.521569 0.54902 
0.0313725 0.521569 0.54902 0.0313725 0.521569 0.54902 
0.0313725 0.521569 0.54902 0.0313725 0.521569 0.54902 
0.0313725 0.521569 0.54902 0.0313725 0.521569 0.54902 
0.0313725 0.521569 0.54902 0.0313725 0.521569 0.54902 
0.0313725 0.521569 0.54902 0.0313725 0.521569 0.54902 
0.0313725 0.521569 0.54902 0.0313725 0.521569 0.54902 
0.0313725 0.521569 0.54902 0.0313725 0.521569 0.54902 
0.0313725 0.521569 0.54902 0.0313725 0.521569 0.54902 
0.0313725 0.521569 0.54902 0.0313725 0.521569 0.54902 
0.0313725 0.521569 0.54902 0.0313725 0.521569 0.54902 
0.0313725 0.521569 0.54902 0.0313725 0.521569 0.54902 
0.0313725 0.521569 0.54902 0.0313725 0.521569 0.54902 
0.0313725 0.521569 0.54902 0.0313725 0.521569 0.54902 
0.0313725 0.521569 0.54902 0.0313725 0.521569 0.54902 
0.0313725 0.521569 0.54902 0.0313725 0.521569 0.54902 
0.0313725 0.521569 0.54902 0.0313725 0.521569 0.54902 
0.0313725 0.521569 0.54902 0.0313725 0.521569 0.54902 
0.0313725 0.521569 0.54902 0.0313725 0.521569 0.54902 
0.0313725 0.521569 0.54902 0.0313725 0.521569 0.54902 
0.0313725 0.521569 0.54902 0.0313725 0.521569 0.54902 
0.0313725 0.521569 0.54902 0.0313725 0.521569 0.54902 
0.0313725 0.521569 0.54902 0.0313725 0.521569 0.54902 
0.0313725 0.521569 0.54902 0.0313725 0.521569 0.54902 
0.0313725 0.521569 0.54902 0.0313725 0.521569 0.54902 
0.0313725 0.521569 0.54902 0.0313725 0.521569 0.54902 
0.0313725 0.521569 0.54902 0.0313725 0.521569 0.54902 
0.0313725 0.521569 0.54902 0.0313725 0.521569 0.54902 
0.0313725 0.521569 0.54902 0.0313725 0.521569 0.54902 
0.0313725 0.521569 0.54902 0.0313725 0.521569 0.54902 
0.0313725 0.521569 0.54902 0.0313725 0.521569 0.54902 
0.0313725 0.521569 0.54902 0.0313725 0.521569 0.54902 
0.0313725 0.521569 0.54902 0.0313725 0.521569 0.54902 
0.0313725 0.521569 0.54902 0.0313725 0.521569 0.54902 
0.0313725 0.521569 0.54902 0.0313725 0.521569 0.54902 
0.0313725 0.521569 0.54902 0.0313725 0.521569 0.54902 
0.0313725 0.521569 0.54902 0.0313725 0.521569 0.54902 
0.0313725 0.521569 0.54902 0.0313725 0.521569 0.54902 
0.0313725 0.521569 0.54902 0.0313725 0.521569 0.54902 
0.0313725 0.521569 0.54902 0.0313725 0.521569 0.54902 
0.0313725 0.521569 0.54902 0.0313725 0.521569 0.54902 
0.0313725 0.521569 0.54902 0.0313725 0.521569 0.54902 
0.0313725 0.521569 0.54902 0.0313725 0.521569 0.54902 
0.0313725 0.521569 0.54902 0.0313725 0.521569 0.54902 
0.0313725 0.521569 0.54902 0.0313725 0.521569 0.54902 
0.0313725 0.521569 0.54902 0.0313725 0.521569 0.54902 
0.0313725 0.521569 0.54902 0.0313725 0.521569 0.54902 
0.0313725 0.521569 0.54902 0.0313725 0.521569 0.54902 
0.0313725 0.521569 0.54902 0.0313725 0.521569 0.54902 
0.0313725 0.521569 0.54902 0.0313725 0.521569 0.54902 
0.0313725 0.521569 0.54902 0.0313725 0.521569 0.54902 
0.0313725 0.521569 0.54902 0.0313725 0.521569 0.54902 
0.0313725 0.521569 0.54902 0.0313725 0.521569 0.54902 
0.0313725 0.521569 0.54902 0.0313725 0.521569 0.54902 
0.0313725 0.521569 0.54902 0.0313725 0.521569 0.54902 
0.0313725 0.521569 0.54902 0.0313725 0.521569 0.54902 
0.0313725 0.521569 0.54902 0.0313725 0.521569 0.54902 
0.0313725 0.521569 0.54902 0.0313725 0.521569 0.54902 
0.0313725 0.521569 0.54902 0.0313725 0.521569 0.54902 
0.0313725 0.521569 0.54902 0.0313725 0.521569 0.54902 
0.0313725 0.521569 0.54902 0.0313725 0.521569 0.54902 
0.0313725 0.521569 0.54902 0.0313725 0.521569 0.54902 
0.0313725 0.521569 0.54902 0.0313725 0.521569 0.54902 
0.0313725 0.521569 0.54902 0.0313725 0.521569 0.54902 
0.0313725 0.521569 0.54902 0.0313725 0.521569 0.54902 
0.0313725 0.521569 0.54902 0.0313725 0.521569 0.54902 
0.0313725 0.521569 0.54902 0.0313725 0.521569 0.54902 
0.0313725 0.521569 0.54902 0.0313725 0.521569 0.54902 
0.0313725 0.521569 0.54902 0.0313725 0.521569 0.54902 
0.0313725 0.521569 0.54902 0.0313725 0.521569 0.54902 
0.0313725 0.521569 0.54902 0.0313725 0.521569 0.54902 
0.0313725 0.521569 0.54902 0.0313725 0.521569 0.54902 
0.0313725 0.521569 0.54902 0.0313725 0.521569 0.54902 
0.0313725 0.521569 0.54902 0.0313725 0.521569 0.54902 
0.0313725 0.521569 0.54902 0.0313725 0.521569 0.54902 
0.0313725 0.521569 0.54902 0.0313725 0.521569 0.54902 
0.0313725 0.521569 0.54902 0.0313725 0.521569 0.54902 
0.0313725 0.521569 0.54902 0.0313725 0.521569 0.54902 
0.0313725 0.521569 0.54902 0.0313725 0.521569 0.54902 
0.0313725 0.521569 0.54902 0.0313725 0.521569 0.54902 
0.0313725 0.521569 0.54902 0.0313725 0.521569 0.54902 
0.0313725 0.521569 0.54902 0.0313725 0.521569 0.54902 
0.0313725 0.521569 0.54902 0.0313725 0.521569 0.54902 
0.0313725 0.521569 0.54902 0.0313725 0.521569 0.54902 
0.0313725 0.521569 0.54902 0.0313725 0.521569 0.54902 
0.0313725 0.521569 0.54902 0.0313725 0.521569 0.54902 
0.0313725 0.521569 0.54902 0.0313725 0.521569 0.54902 
0.0313725 0.521569 0.54902 0.0313725 0.521569 0.54902 
0.0313725 0.521569 0.54902 0.0313725 0.521569 0.54902 
0.0313725 0.521569 0.54902 0.0313725 0.521569 0.54902 
0.0313725 0.521569 0.54902 0.0313725 0.521569 0.54902 
0.0313725 0.521569 0.54902 0.0313725 0.521569 0.54902 
0.0313725 0.521569 0.54902 0.0313725 0.521569 0.54902 
0.0313725 0.521569 0.54902 0.0313725 0.521569 0.54902 
0.0313725 0.521569 0.54902 0.0313725 0.521569 0.54902 
0.0313725 0.521569 0.54902 0.0313725 0.521569 0.54902 
0.0313725 0.521569 0.54902 0.0313725 0.521569 0.54902 
0.0313725 0.521569 0.54902 0.0313725 0.521569 0.54902 
0.0313725 0.521569 0.54902 0.0313725 0.521569 0.54902 
0.0313725 0.521569 0.54902 0.0313725 0.521569 0.54902 
0.0313725 0.521569 0.54902 0.0313725 0.521569 0.54902 
0.0313725 0.521569 0.54902 0.0313725 0.521569 0.54902 
0.0313725 0.521569 0.54902 0.0313725 0.521569 0.54902 
0.0313725 0.521569 0.54902 0.0313725 0.521569 0.54902 
0.0313725 0.521569 0.54902 0.0313725 0.521569 0.54902 
0.0313725 0.521569 0.54902 0.0313725 0.521569 0.54902 
0.0313725 0.521569 0.54902 0.0313725 0.521569 0.54902 
0.0313725 0.521569 0.54902 0.0313725 0.521569 0.54902 
0.0313725 0.521569 0.54902 0.0313725 0.521569 0.54902 
0.0313725 0.521569 0.54902 0.0313725 0.521569 0.54902 
0.0313725 0.521569 0.54902 0.0313725 0.521569 0.54902 
0.0313725 0.521569 0.54902 0.0313725 0.521569 0.54902 
0.0313725 0.521569 0.54902 0.0313725 0.521569 0.54902 
0.0313725 0.521569 0.54902 0.0313725 0.521569 0.54902 
0.0313725 0.521569 0.54902 0.0313725 0.521569 0.54902 
0.0313725 0.521569 0.54902 0.0313725 0.521569 0.54902 
0.0313725 0.521569 0.54902 0.0313725 0.521569 0.54902 
0.0313725 0.521569 0.54902 0.0313725 0.521569 0.54902 
0.0313725 0.521569 0.54902 0.0313725 0.521569 0.54902 
0.0313725 0.521569 0.54902 0.0313725 0.521569 0.54902 
0.0313725 0.521569 0.54902 0.0313725 0.521569 0.54902 
0.0313725 0.521569 0.54902 0.0313725 0.521569 0.54902 
0.0313725 0.521569 0.54902 0.0313725 0.521569 0.54902 
0.0313725 0.521569 0.54902 0.0313725 0.521569 0.54902 
0.0313725 0.521569 0.54902 0.0313725 0.521569 0.54902 
0.0313725 0.521569 0.54902 0.0313725 0.521569 0.54902 
0.0313725 0.521569 0.54902 0.0313725 0.521569 0.54902 
0.0313725 0.521569 0.54902 0.0313725 0.521569 0.54902 
0.0313725 0.521569 0.54902 0.0313725 0.521569 0.54902 
0.0313725 0.521569 0.54902 0.0313725 0.521569 0.54902 
0.0313725 0.521569 0.54902 0.0313725 0.521569 0.54902 
0.0313725 0.521569 0.54902 0.0313725 0.521569 0.54902 
0.0313725 0.521569 0.54902 0.0313725 0.521569 0.54902 
0.0313725 0.521569 0.54902 0.0313725 0.521569 0.54902 
0.0313725 0.521569 0.54902 0.0313725 0.521569 0.54902 
0.0313725 0.521569 0.54902 0.0313725 0.521569 0.54902 
0.0313725 0.521569 0.54902 0.0313725 0.521569 0.54902 
0.0313725 0.521569 0.54902 0.0313725 0.521569 0.54902 
0.0313725 0.521569 0.54902 0.0313725 0.521569 0.54902 
0.0313725 0.521569 0.54902 0.0313725 0.521569 0.54902 
0.0313725 0.521569 0.54902 0.0313725 0.521569 0.54902 
0.0313725 0.521569 0.54902 0.0313725 0.521569 0.54902 
0.0313725 0.521569 0.54902 0.0313725 0.521569 0.54902 
0.0313725 0.521569 0.54902 0.0313725 0.521569 0.54902 
0.0313725 0.521569 0.54902 0.0313725 0.521569 0.54902 
0.0313725 0.521569 0.54902 0.0313725 0.521569 0.54902 
0.0313725 0.521569 0.54902 0.0313725 0.521569 0.54902 
0.0313725 0.521569 0.54902 0.0313725 0.521569 0.54902 
0.0313725 0.521569 0.54902 0.0313725 0.521569 0.54902 
0.0313725 0.521569 0.54902 0.0313725 0.521569 0.54902 
0.0313725 0.521569 0.54902 0.0313725 0.521569 0.54902 
0.0313725 0.521569 0.54902 0.0313725 0.521569 0.54902 
0.0313725 0.521569 0.54902 0.0313725 0.521569 0.54902 
0.0313725 0.521569 0.54902 0.0313725 0.521569 0.54902 
0.0313725 0.521569 0.54902 0.0313725 0.521569 0.54902 
0.0313725 0.521569 0.54902 0.0313725 0.521569 0.54902 
0.0313725 0.521569 0.54902 0.0313725 0.521569 0.54902 
0.0313725 0.521569 0.54902 0.0313725 0.521569 0.54902 
0.0313725 0.521569 0.54902 0.0313725 0.521569 0.54902 
0.0313725 0.521569 0.54902 0.0313725 0.521569 0.54902 
0.0313725 0.521569 0.54902 0.0313725 0.521569 0.54902 
0.0313725 0.521569 0.54902 0.0313725 0.521569 0.54902 
0.0313725 0.521569 0.54902 0.0313725 0.521569 0.54902 
0.0313725 0.521569 0.54902 0.0313725 0.521569 0.54902 
0.0313725 0.521569 0.54902 0.0313725 0.521569 0.54902 
0.0313725 0.521569 0.54902 0.0313725 0.521569 0.54902 
0.0313725 0.521569 0.54902 0.0313725 0.521569 0.54902 
0.0313725 0.521569 0.54902 0.0313725 0.521569 0.54902 
0.0313725 0.521569 0.54902 0.0313725 0.521569 0.54902 
0.0313725 0.521569 0.54902 0.0313725 0.521569 0.54902 
0.0313725 0.521569 0.54902 0.0313725 0.521569 0.54902 
0.0313725 0.521569 0.54902 0.0313725 0.521569 0.54902 
0.0313725 0.521569 0.54902 0.0313725 0.521569 0.54902 
0.0313725 0.521569 0.54902 0.0313725 0.521569 0.54902 
0.0313725 0.521569 0.54902 0.0313725 0.521569 0.54902 
0.0313725 0.521569 0.54902 0.0313725 0.521569 0.54902 
0.0313725 0.521569 0.54902 0.0313725 0.521569 0.54902 
0.0313725 0.521569 0.54902 0.0313725 0.521569 0.54902 
0.0313725 0.521569 0.54902 0.0313725 0.521569 0.54902 
0.0313725 0.521569 0.54902 0.0313725 0.521569 0.54902 
0.0313725 0.521569 0.54902 0.0313725 0.521569 0.54902 
0.0313725 0.521569 0.54902 0.0313725 0.521569 0.54902 
0.0313725 0.521569 0.54902 0.0313725 0.521569 0.54902 
0.0313725 0.521569 0.54902 0.0313725 0.521569 0.54902 
0.0313725 0.521569 0.54902 0.0313725 0.521569 0.54902 
0.0313725 0.521569 0.54902 0.0313725 0.521569 0.54902 
0.0313725 0.521569 0.54902 0.0313725 0.521569 0.54902 
0.0313725 0.521569 0.54902 0.0313725 0.521569 0.54902 
0.0313725 0.521569 0.54902 0.0313725 0.521569 0.54902 
0.0313725 0.521569 0.54902 0.0313725 0.521569 0.54902 
0.0313725 0.521569 0.54902 0.0313725 0.521569 0.54902 
0.0313725 0.521569 0.54902 0.0313725 0.521569 0.54902 
0.0313725 0.521569 0.54902 0.0313725 0.521569 0.54902 
0.0313725 0.521569 0.54902 0.0313725 0.521569 0.54902 
0.0313725 0.521569 0.54902 0.0313725 0.521569 0.54902 
0.0313725 0.521569 0.54902 0.0313725 0.521569 0.54902 
0.0313725 0.521569 0.54902 0.0313725 0.521569 0.54902 
0.0313725 0.521569 0.54902 0.0313725 0.521569 0.54902 
0.0313725 0.521569 0.54902 0.0313725 0.521569 0.54902 
0.0313725 0.521569 0.54902 0.0313725 0.521569 0.54902 
0.0313725 0.521569 0.54902 0.0313725 0.521569 0.54902 
0.0313725 0.521569 0.54902 0.0313725 0.521569 0.54902 
0.0313725 0.521569 0.54902 0.0313725 0.521569 0.54902 
0.0313725 0.521569 0.54902 0.0313725 0.521569 0.54902 
0.0313725 0.521569 0.54902 0.0313725 0.521569 0.54902 
0.0313725 0.521569 0.54902 0.0313725 0.521569 0.54902 
0.0313725 0.521569 0.54902 0.0313725 0.521569 0.54902 
0.0313725 0.521569 0.54902 0.0313725 0.521569 0.54902 
0.0313725 0.521569 0.54902 0.0313725 0.521569 0.54902 
0.0313725 0.521569 0.54902 0.0313725 0.521569 0.54902 
0.0313725 0.521569 0.54902 0.0313725 0.521569 0.54902 
0.0313725 0.521569 0.54902 0.0313725 0.521569 0.54902 
0.0313725 0.521569 0.54902 0.0313725 0.521569 0.54902 
0.0313725 0.521569 0.54902 0.0313725 0.521569 0.54902 
0.0313725 0.521569 0.54902 0.0313725 0.521569 0.54902 
0.0313725 0.521569 0.54902 0.0313725 0.521569 0.54902 
0.0313725 0.521569 0.54902 0.0313725 0.521569 0.54902 
0.0313725 0.521569 0.54902 0.0313725 0.521569 0.54902 
0.0313725 0.521569 0.54902 0.0313725 0.521569 0.54902 
0.0313725 0.521569 0.54902 0.0313725 0.521569 0.54902 
0.0313725 0.521569 0.54902 0.0313725 0.521569 0.54902 
0.0313725 0.521569 0.54902 0.0313725 0.521569 0.54902 
0.0313725 0.521569 0.54902 0.0313725 0.521569 0.54902 
0.0313725 0.521569 0.54902 0.0313725 0.521569 0.54902 
0.0313725 0.521569 0.54902 0.0313725 0.521569 0.54902 
0.0313725 0.521569 0.54902 0.0313725 0.521569 0.54902 
0.0313725 0.521569 0.54902 0.0313725 0.521569 0.54902 
0.0313725 0.521569 0.54902 0.0313725 0.521569 0.54902 
0.0313725 0.521569 0.54902 0.0313725 0.521569 0.54902 
0.0313725 0.521569 0.54902 0.0313725 0.521569 0.54902 
0.0313725 0.521569 0.54902 0.0313725 0.521569 0.54902 
0.0313725 0.521569 0.54902 0.0313725 0.521569 0.54902 
0.0313725 0.521569 0.54902 0.0313725 0.521569 0.54902 
0.0313725 0.521569 0.54902 0.0313725 0.521569 0.54902 
0.0313725 0.521569 0.54902 0.0313725 0.521569 0.54902 
0.0313725 0.521569 0.54902 0.0313725 0.521569 0.54902 
0.0313725 0.521569 0.54902 0.0313725 0.521569 0.54902 
0.0313725 0.521569 0.54902 0.0313725 0.521569 0.54902 
0.0313725 0.521569 0.54902 0.0313725 0.521569 0.54902 
0.0313725 0.521569 0.54902 0.0313725 0.521569 0.54902 
0.0313725 0.521569 0.54902 0.0313725 0.521569 0.54902 
0.0313725 0.521569 0.54902 0.0313725 0.521569 0.54902 
0.0313725 0.521569 0.54902 0.0313725 0.521569 0.54902 
0.0313725 0.521569 0.54902 0.0313725 0.521569 0.54902 
0.0313725 0.521569 0.54902 0.0313725 0.521569 0.54902 
0.0313725 0.521569 0.54902 0.0313725 0.521569 0.54902 
0.0313725 0.521569 0.54902 0.0313725 0.521569 0.54902 
0.0313725 0.521569 0.54902 0.0313725 0.521569 0.54902 
0.0313725 0.521569 0.54902 0.0313725 0.521569 0.54902 
0.0313725 0.521569 0.54902 0.0313725 0.521569 0.54902 
0.0313725 0.521569 0.54902 0.0313725 0.521569 0.54902 
0.0313725 0.521569 0.54902 0.0313725 0.521569 0.54902 
0.0313725 0.521569 0.54902 0.0313725 0.521569 0.54902 
0.0313725 0.521569 0.54902 0.0313725 0.521569 0.54902 
0.0313725 0.521569 0.54902 0.0313725 0.521569 0.54902 
0.0313725 0.521569 0.54902 0.0313725 0.521569 0.54902 
0.0313725 0.521569 0.54902 0.0313725 0.521569 0.54902 
0.0313725 0.521569 0.54902 0.0313725 0.521569 0.54902 
0.0313725 0.521569 0.54902 0.0313725 0.521569 0.54902 
0.0313725 0.521569 0.54902 0.0313725 0.521569 0.54902 
0.0313725 0.521569 0.54902 0.0313725 0.521569 0.54902 
0.0313725 0.521569 0.54902 0.0313725 0.521569 0.54902 
0.0313725 0.521569 0.54902 0.0313725 0.521569 0.54902 
0.0313725 0.521569 0.54902 0.0313725 0.521569 0.54902 
0.0313725 0.521569 0.54902 0.0313725 0.521569 0.54902 
0.0313725 0.521569 0.54902 0.0313725 0.521569 0.54902 
0.0313725 0.521569 0.54902 0.0313725 0.521569 0.54902 
0.0313725 0.521569 0.54902 0.0313725 0.521569 0.54902 
0.0313725 0.521569 0.54902 0.0313725 0.521569 0.54902 
0.0313725 0.521569 0.54902 0.0313725 0.521569 0.54902 
0.0313725 0.521569 0.54902 0.0313725 0.521569 0.54902 
0.0313725 0.521569 0.54902 0.0313725 0.521569 0.54902 
0.0313725 0.521569 0.54902 0.0313725 0.521569 0.54902 
0.0313725 0.521569 0.54902 0.0313725 0.521569 0.54902 
0.0313725 0.521569 0.54902 0.0313725 0.521569 0.54902 
0.0313725 0.521569 0.54902 0.0313725 0.521569 0.54902 
0.0313725 0.521569 0.54902 0.0313725 0.521569 0.54902 
0.0313725 0.521569 0.54902 0.0313725 0.521569 0.54902 
0.0313725 0.521569 0.54902 0.0313725 0.521569 0.54902 