# vtk DataFile Version 4.2
vtk output
ASCII
DATASET POLYDATA
POINTS 1218 float
393.144 80.5646 71.9352 393.081 80.5193 72.0605 394.642 81.0535 71.5133 
394.734 81.2583 71.4749 395.156 81.7002 71.328 395.017 81.731 71.3511 
395.125 81.8263 71.2994 395.279 81.821 71.3374 395.11 82.0632 71.3505 
397.41 82.9539 71.2882 397.308 82.6682 71.4208 397.225 83.0524 71.2727 
398.417 83.5855 71.2754 398.413 84.0155 71.1646 399.498 84.7384 71.2232 
402.002 87.0504 71.2534 404.046 89.8391 71.612 393.665 80.1042 72.2878 
393.387 79.9732 72.5406 393.11 80.2938 72.4132 395.268 81.4363 71.5041 
395.207 80.7094 71.8445 394.508 81.6467 71.4929 396.592 82.8761 71.3373 
398.135 84.3872 71.1631 403.104 89.2937 71.5019 405.562 90.2199 72.1545 
394.761 79.4754 72.8733 395.573 79.9254 72.5078 392.234 81.6607 72.9099 
392.465 81.9324 72.6083 392.618 82.5078 72.5312 395.994 85.4798 71.6759 
404.497 87.56 72.5512 401.036 90.5482 71.8994 406.722 91.9409 72.6509 
406.062 93.4037 72.5003 408.643 95.2803 73.2672 394.328 78.8456 73.7937 
392.417 80.5748 73.3271 392.021 81.0053 73.7232 392.11 84.1516 73.3279 
396.02 87.8676 72.6277 407.011 90.6516 73.0619 405.9 94.0089 72.6274 
406.019 95.5638 73.0584 410.041 97.2866 74.1071 408.791 98.0011 73.8308 
395.482 78.4843 74.2488 392.481 79.9651 74.2732 391.562 83.9275 73.8132 
390.835 84.5393 74.5407 407.609 90.3734 73.7761 410.802 96.8119 74.7414 
405.002 97.5187 74.0796 407.559 97.5476 73.6741 410.712 97.7772 74.7678 
408.936 98.997 74.4786 410.665 98.3974 75.1391 410.227 98.848 74.9738 
410.473 98.7197 75.1382 409.219 99.3728 74.91 409.508 99.3071 75.0015 
395.541 77.7396 75.5165 395.979 77.3364 76.155 393.926 78.5812 74.9614 
389.784 84.2757 75.8001 410.816 95.638 74.9697 410.939 97.5216 75.0347 
410.681 98.624 75.9184 410.642 98.5954 75.4376 406.322 99.7852 75.1829 
408.245 99.71 75.5526 405.711 100.297 75.8213 406.648 100.227 75.5955 
406.096 100.307 75.6567 406.359 100.323 75.6571 396.042 77.1579 76.3549 
396.067 77.1129 76.4567 396.729 77.0685 76.7605 391.341 80.8777 76.2184 
389.707 83.5156 76.2387 389.78 83.1475 76.4426 389.56 83.4599 76.6172 
390.533 88.0158 75.8986 411.502 96.5624 76.3623 403.949 98.8967 75.1737 
410.336 98.9911 76.5152 403.802 100.012 76.2538 406.453 100.41 76.1151 
406.525 100.357 75.7953 396.116 77.0161 77.3547 401.743 78.7125 77.3854 
388.147 85.8028 77.8638 388.006 86.8437 77.8795 411.612 95.1912 76.6704 
411.526 94.4322 76.7964 411.443 97.6709 77.5086 408.945 99.6461 77.3657 
402.754 100.491 77.3303 405.518 100.518 76.9776 408.1 85.8592 77.938 
388.813 87.9829 77.2144 410.796 90.7223 78.1239 411.71 93.4659 77.7552 
411.608 97.7154 78.2984 410.928 98.3155 78.5397 406.689 100.418 77.1147 
399.337 100.935 78.2901 398.898 101.317 78.6292 389.128 83.1658 78.8542 
389.413 82.7112 79.2597 387.941 85.2007 78.7379 386.481 87.6833 79.8649 
412.337 96.4332 79.4374 410.617 98.3138 79.8272 395.458 101.585 79.656 
397.58 101.072 78.8026 398.905 101.368 78.7633 386.322 86.8327 80.7687 
411.74 97.4012 80.0912 400.366 101.311 80.0413 396.371 102.019 79.8954 
397.044 102.355 80.5557 394.749 102.845 81.0743 396.769 102.458 80.6222 
401.859 75.0118 81.5139 386.739 85.9899 80.9677 384.929 90.8232 81.4829 
412.98 93.357 81.3266 413.031 95.9972 81.8845 409.025 98.6538 81.3928 
390.802 101.644 81.2384 395.25 102.869 81.2244 396.215 76.3588 82.5543 
412.372 96.7773 82.6984 389 102.908 82.5494 395.901 102.861 81.7318 
389.37 103.596 82.897 385.154 87.4207 83.2136 413.585 94.3182 83.1671 
411.75 97.1361 83.6428 394.338 103.294 82.8451 387.638 103.576 83.5431 
389.219 104.416 83.5728 389.053 104.551 83.759 389.49 104.451 83.611 
389.811 104.383 83.635 389.275 104.553 83.7274 401.334 72.9426 84.341 
401.344 72.8999 84.4441 401.224 72.9721 84.4232 401.404 72.9236 84.4167 
401.521 73.0831 84.2861 402.173 73.5817 83.7307 382.576 91.6266 84.2741 
382.335 92.0762 84.2847 382.486 92.6068 84.2287 413.723 94.3684 84.2238 
413.218 95.7365 84.2643 387.927 103.77 83.4946 390.192 104.306 83.8104 
387.277 104.729 84.8202 388.365 104.537 84.2289 387.399 104.666 84.709 
388.879 104.576 83.9461 389.809 104.458 83.877 387.415 104.753 84.8663 
389.151 104.602 83.8867 401.431 72.9506 84.6255 402.888 73.323 84.9499 
382.175 92.2184 84.8228 381.583 93.1717 85.6902 381.788 93.6336 85.3616 
382.455 94.8893 84.8425 411.481 97.0125 85.7698 405.748 98.1497 85.4295 
412.783 96.2528 85.1351 386.543 104.184 84.9727 386.481 104.568 85.6507 
388.741 104.613 84.5931 389.085 104.59 84.188 401.952 72.9915 85.5762 
402.899 73.1431 86.0782 384.426 87.8792 85.8436 381.781 92.2351 85.7269 
380.836 94.146 86.8309 381.016 94.8329 86.5362 384.427 104.084 86.7402 
384.462 104.394 86.821 384.553 104.54 86.7188 386.813 104.628 86.0949 
384.72 104.572 86.6135 384.988 104.582 86.4858 381.156 92.7336 87.0078 
380.701 93.772 87.2498 380.107 95.5563 87.8891 380.323 96.0941 87.5206 
413.516 95.1313 86.8828 412.43 96.4384 86.6253 395.43 101.491 87.2002 
384.058 102.559 86.4337 384.19 103.703 87.0246 389.683 103.776 86.9268 
384.401 104.134 87.143 385.747 104.488 87.2714 384.518 104.533 86.8391 
384.633 104.594 86.7725 384.9 104.618 86.7488 406.47 74.3252 87.572 
414.23 90.8989 88.0093 414.084 93.5867 87.9705 380.496 98.1424 88.1264 
383.748 103.078 87.7944 384.406 103.841 87.7686 384.785 104.293 87.3948 
395.3 77.4464 89.0152 380.22 99.1074 89.0978 381.027 100.168 89.1504 
385.725 103.702 88.696 403.527 73.7292 90.0523 404.514 73.6121 90.221 
379.016 97.2476 90.357 379.295 98.9093 90.3098 383.916 102.82 89.3101 
379.873 94.1581 90.3253 378.931 96.8863 91.3746 378.879 98.7428 91.0835 
378.685 98.6238 91.6245 378.758 98.9939 91.5264 380.845 100.605 90.6344 
381.873 101.231 90.3838 407.008 73.7732 91.0344 407.88 74.0785 91.0087 
406.176 73.7904 92.0573 406.874 73.7749 91.7069 408.401 74.1284 91.8337 
408.669 74.4628 91.2858 409.656 75.5 91.05 413.578 82.8122 92.1864 
379.374 95.4212 91.6676 412.178 95.8555 92.0483 378.637 98.899 91.9115 
378.906 99.2702 91.5221 380.231 100.208 91.7251 408.524 73.9644 92.398 
407.907 73.9184 92.4952 405.678 74.0195 92.9847 378.853 97.3794 92.3765 
378.628 98.8335 92.2264 378.779 98.5982 92.6077 378.683 98.9001 92.3427 
378.683 99.0328 92.1321 404.951 74.4971 94.184 413.786 94.1764 94.0013 
378.76 98.5446 92.9532 378.873 98.3937 93.0803 378.79 98.5303 93.0603 
378.859 99.0669 92.3498 378.814 98.5952 92.982 379.287 99.1301 92.7014 
379.075 98.6993 93.0473 380.026 99.4205 92.9865 414.834 87.9555 95.014 
414.14 93.4392 94.9984 379.291 98.3469 93.4345 410.481 74.3642 95.3058 
410.439 74.2294 95.6987 411.115 74.7377 95.8299 380.505 95.1675 95.3372 
410.171 74.1224 95.9743 410.794 74.3566 96.2161 414.18 80.052 97.1229 
401.542 97.1657 97.8885 382.455 97.0413 96.8845 387.12 97.9726 97.5068 
410.46 74.1662 96.5802 410.934 74.0574 98.1624 408.622 74.0805 98.6182 
410.183 73.9552 98.6596 411.539 74.197 99.1617 413.795 77.0177 99.6445 
383.777 89.4551 99.5199 382.745 91.3307 99.6349 382.658 91.8448 100.043 
382.476 92.8504 99.7986 407.855 96.7462 100.007 411.22 96.0935 99.8247 
411.261 74.0296 100.253 411.891 74.337 100.249 391.262 82.8406 101.068 
383.058 93.2036 101.022 383.646 94.3396 100.757 413.053 94.8161 100.855 
411.784 95.7727 100.617 411.581 74.0615 100.508 411.702 74.1163 100.614 
411.549 74.2204 101.027 411.637 74.0737 100.704 414.384 78.3586 101.792 
388.474 85.0014 102.164 383.13 91.8989 101.352 382.932 92.315 101.018 
383.663 93.4434 101.837 390.673 96.3643 101.612 411.667 74.0499 100.578 
411.761 74.3956 102.321 413.633 76.125 102.381 384.521 89.6324 102.958 
384.006 92.098 103.044 384.124 93.6559 102.181 413.7 93.5433 102.855 
410.3 96.1131 102.776 412.139 74.7268 103.234 384.356 90.9066 103.792 
384.578 90.2152 104.085 384.676 92.4463 104.007 413.895 92.749 103.837 
386.332 94.0567 103.903 414.151 77.7354 104.426 414.842 86.0333 104.971 
384.867 91.4203 105.211 385.924 93.068 105.127 411.91 94.8944 105.043 
413.024 75.8158 104.607 413.437 76.4281 104.919 411.049 75.3386 106.148 
412.326 75.6954 105.92 413.346 76.6374 105.948 408.345 75.6042 106.641 
385.322 88.9652 107.249 385.725 91.7687 106.847 410.668 95.3837 106.764 
412.74 76.1101 106.351 408.753 75.6751 107.104 410.971 75.672 107.337 
386.291 87.0574 107.346 411.862 76.0081 107.747 385.262 89.6997 109.451 
385.271 89.7994 109.847 392.484 93.6533 109.401 385.286 89.141 110.554 
385.268 89.7062 110.163 385.416 89.9684 110.176 412.087 93.0071 109.698 
398.934 95.6794 110.041 410.612 76.7388 110.28 412.343 77.183 109.838 
413.763 79.0219 110.087 414.186 80.5551 110.466 385.486 89.475 111.376 
409.977 94.9246 111.033 410.454 94.5329 111.14 408.375 95.7649 110.942 
412.802 77.7751 110.365 385.357 88.6207 112.116 385.283 88.8307 111.844 
386.639 90.7575 111.596 411.596 77.7508 112.48 412.879 78.4036 111.755 
413.866 80.6719 112.295 413.171 79.3387 112.935 406.288 77.7376 114.108 
413.555 80.0772 112.888 411.091 92.0938 114.141 412.555 78.7437 113.42 
406.269 77.8929 115.064 413.448 80.6747 114.121 386.666 89.4 115.271 
411.073 78.5749 115.655 411.635 78.7576 115.307 392.964 91.5536 115.576 
412.73 79.8119 115.193 412.886 81.4514 116.331 412.536 84.2752 116.799 
409.596 93.2177 117.192 404.965 96.9647 116.908 412.292 80.2267 116.751 
412.46 80.6945 116.964 412.361 80.9186 117.372 407.726 95.3809 118.058 
403.188 97.2844 118.114 405.066 97.4333 118.518 405.904 78.2572 118.849 
386.3 86.6647 119.083 386.457 87.2828 119.215 386.502 87.6331 118.798 
386.64 87.6136 119.26 402.332 97.2526 119.039 404.915 98.0118 119.92 
406.093 97.0803 119.684 386.532 85.2186 120.114 386.72 87.3854 119.784 
386.893 87.7167 119.548 387.365 87.9656 119.642 400.232 95.7899 119.469 
405.051 98.2668 120.885 404.863 98.4083 121.138 409.806 79.34 120.512 
386.865 84.7028 121.181 386.525 85.5318 121.073 386.608 86.7377 120.507 
386.758 86.6977 120.915 395.112 88.475 121.599 404.268 98.442 121.383 
405.128 98.2867 121.878 386.641 85.5127 121.579 386.934 86.7607 121.096 
387.266 86.7804 121.376 405.699 97.5108 122.603 405.434 98.0089 122.055 
[...]
POINT_DATA 1218
COLOR_SCALARS scalars 3
0.0313725 0.521569 0.54902 0.0313725 0.521569 0.54902 0.0313725 0.521569 0.54902 
0.0313725 0.521569 0.54902 0.0313725 0.521569 0.54902 
0.0313725 0.521569 0.54902 0.0313725 0.521569 0.54902 
0.0313725 0.521569 0.54902 0.0313725 0.521569 0.54902 
0.0313725 0.521569 0.54902 0.0313725 0.521569 0.54902 
0.0313725 0.521569 0.54902 0.0313725 0.521569 0.54902 
0.0313725 0.521569 0.54902 0.0313725 0.521569 0.54902 
0.0313725 0.521569 0.54902 0.0313725 0.521569 0.54902 
0.0313725 0.521569 0.54902 0.0313725 0.521569 0.54902 
0.0313725 0.521569 0.54902 0.0313725 0.521569 0.54902 
0.0313725 0.521569 0.54902 0.0313725 0.521569 0.54902 
0.0313725 0.521569 0.54902 0.0313725 0.521569 0.54902 
0.0313725 0.521569 0.54902 0.0313725 0.521569 0.54902 
0.0313725 0.521569 0.54902 0.0313725 0.521569 0.54902 
0.0313725 0.521569 0.54902 0.0313725 0.521569 0.54902 
0.0313725 0.521569 0.54902 0.0313725 0.521569 0.54902 
0.0313725 0.521569 0.54902 0.0313725 0.521569 0.54902 
0.0313725 0.521569 0.54902 0.0313725 0.521569 0.54902 
0.0313725 0.521569 0.54902 0.0313725 0.521569 0.54902 
0.0313725 0.521569 0.54902 0.0313725 0.521569 0.54902 
0.0313725 0.521569 0.54902 0.0313725 0.521569 0.54902 
0.0313725 0.521569 0.54902 0.0313725 0.521569 0.54902 
0.0313725 0.521569 0.54902 0.0313725 0.521569 0.54902 
0.0313725 0.521569 0.54902 0.0313725 0.521569 0.54902 
0.0313725 0.521569 0.54902 0.0313725 0.521569 0.54902 
0.0313725 0.521569 0.54902 0.0313725 0.521569 0.54902 
0.0313725 0.521569 0.54902 0.0313725 0.521569 0.54902 
0.0313725 0.521569 0.54902 0.0313725 0.521569 0.54902 
0.0313725 0.521569 0.54902 0.0313725 0.521569 0.54902 
0.0313725 0.521569 0.54902 0.0313725 0.521569 0.54902 
0.0313725 0.521569 0.54902 0.0313725 0.521569 0.54902 
0.0313725 0.521569 0.54902 0.0313725 0.521569 0.54902 
0.0313725 0.521569 0.54902 0.0313725 0.521569 0.54902 
0.0313725 0.521569 0.54902 0.0313725 0.521569 0.54902 
0.0313725 0.521569 0.54902 0.0313725 0.521569 0.54902 
0.0313725 0.521569 0.54902 0.0313725 0.521569 0.54902 
0.0313725 0.521569 0.54902 0.0313725 0.521569 0.54902 
0.0313725 0.521569 0.54902 0.0313725 0.521569 0.54902 
0.0313725 0.521569 0.54902 0.0313725 0.521569 0.54902 
0.0313725 0.521569 0.54902 0.0313725 0.521569 0.54902 
0.0313725 0.521569 0.54902 0.0313725 0.521569 0.54902 
0.0313725 0.521569 0.54902 0.0313725 0.521569 0.54902 
0.0313725 0.521569 0.54902 0.0313725 0.521569 0.54902 
0.0313725 0.521569 0.54902 0.0313725 0.521569 0.54902 
0.0313725 0.521569 0.54902 0.0313725 0.521569 0.54902 
0.0313725 0.521569 0.54902 0.0313725 0.521569 0.54902 
0.0313725 0.521569 0.54902 0.0313725 0.521569 0.54902 
0.0313725 0.521569 0.54902 0.0313725 0.521569 0.54902 
0.0313725 0.521569 0.54902 0.0313725 0.521569 0.54902 
0.0313725 0.521569 0.54902 0.0313725 0.521569 0.54902 
0.0313725 0.521569 0.54902 0.0313725 0.521569 0.54902 
0.0313725 0.521569 0.54902 0.0313725 0.521569 0.54902 
0.0313725 0.521569 0.54902 0.0313725 0.521569 0.54902 
0.0313725 0.521569 0.54902 0.0313725 0.521569 0.54902 
0.0313725 0.521569 0.54902 0.0313725 0.521569 0.54902 
0.0313725 0.521569 0.54902 0.0313725 0.521569 0.54902 
0.0313725 0.521569 0.54902 0.0313725 0.521569 0.54902 
0.0313725 0.521569 0.54902 0.0313725 0.521569 0.54902 
0.0313725 0.521569 0.54902 0.0313725 0.521569 0.54902 
0.0313725 0.521569 0.54902 0.0313725 0.521569 0.54902 
0.0313725 0.521569 0.54902 0.0313725 0.521569 0.54902 
0.0313725 0.521569 0.54902 0.0313725 0.521569 0.54902 
0.0313725 0.521569 0.54902 0.0313725 0.521569 0.54902 
0.0313725 0.521569 0.54902 0.0313725 0.521569 0.54902 
0.0313725 0.521569 0.54902 0.0313725 0.521569 0.54902 
0.0313725 0.521569 0.54902 0.0313725 0.521569 0.54902 
0.0313725 0.521569 0.54902 0.0313725 0.521569 0.54902 
0.0313725 0.521569 0.54902 0.0313725 0.521569 0.54902 
0.0313725 0.521569 0.54902 0.0313725 0.521569 0.54902 
0.0313725 0.521569 0.54902 0.0313725 0.521569 0.54902 
0.0313725 0.521569 0.54902 0.0313725 0.521569 0.54902 
0.0313725 0.521569 0.54902 0.0313725 0.521569 0.54902 
0.0313725 0.521569 0.54902 0.0313725 0.521569 0.54902 
0.0313725 0.521569 0.54902 0.0313725 0.521569 0.54902 
0.0313725 0.521569 0.54902 0.0313725 0.521569 0.54902 
0.0313725 0.521569 0.54902 0.0313725 0.521569 0.54902 
0.0313725 0.521569 0.54902 0.0313725 0.521569 0.54902 
0.0313725 0.521569 0.54902 0.0313725 0.521569 0.54902 
0.0313725 0.521569 0.54902 0.0313725 0.521569 0.54902 
0.0313725 0.521569 0.54902 0.0313725 0.521569 0.54902 
0.0313725 0.521569 0.54902 0.0313725 0.521569 0.54902 
0.0313725 0.521569 0.54902 0.0313725 0.521569 0.54902 
0.0313725 0.521569 0.54902 0.0313725 0.521569 0.54902 
0.0313725 0.521569 0.54902 0.0313725 0.521569 0.54902 
0.0313725 0.521569 0.54902 0.0313725 0.521569 0.54902 
0.0313725 0.521569 0.54902 0.0313725 0.521569 0.54902 
0.0313725 0.521569 0.54902 0.0313725 0.521569 0.54902 
0.0313725 0.521569 0.54902 0.0313725 0.521569 0.54902 
0.0313725 0.521569 0.54902 0.0313725 0.521569 0.54902 
0.0313725 0.521569 0.54902 0.0313725 0.521569 0.54902 
0.0313725 0.521569 0.54902 0.0313725 0.521569 0.54902 
0.0313725 0.521569 0.54902 0.0313725 0.521569 0.54902 
0.0313725 0.521569 0.54902 0.0313725 0.521569 0.54902 
0.0313725 0.521569 0.54902 0.0313725 0.521569 0.54902 
0.0313725 0.521569 0.54902 0.0313725 0.521569 0.54902 
0.0313725 0.521569 0.54902 0.0313725 0.521569 0.54902 
0.0313725 0.521569 0.54902 0.0313725 0.521569 0.54902 
0.0313725 0.521569 0.54902 0.0313725 0.521569 0.54902 
0.0313725 0.521569 0.54902 0.0313725 0.521569 0.54902 
0.0313725 0.521569 0.54902 0.0313725 0.521569 0.54902 
0.0313725 0.521569 0.54902 0.0313725 0.521569 0.54902 
0.0313725 0.521569 0.54902 0.0313725 0.521569 0.54902 
0.0313725 0.521569 0.54902 0.0313725 0.521569 0.54902 
0.0313725 0.521569 0.54902 0.0313725 0.521569 0.54902 
0.0313725 0.521569 0.54902 0.0313725 0.521569 0.54902 
0.0313725 0.521569 0.54902 0.0313725 0.521569 0.54902 
0.0313725 0.521569 0.54902 0.0313725 0.521569 0.54902 
0.0313725 0.521569 0.54902 0.0313725 0.521569 0.54902 
0.0313725 0.521569 0.54902 0.0313725 0.521569 0.54902 
0.0313725 0.521569 0.54902 0.0313725 0.521569 0.54902 
0.0313725 0.521569 0.54902 0.0313725 0.521569 0.54902 
0.0313725 0.521569 0.54902 0.0313725 0.521569 0.54902 
0.0313725 0.521569 0.54902 0.0313725 0.521569 0.54902 
0.0313725 0.521569 0.54902 0.0313725 0.521569 0.54902 
0.0313725 0.521569 0.54902 0.0313725 0.521569 0.54902 
0.0313725 0.521569 0.54902 0.0313725 0.521569 0.54902 
0.0313725 0.521569 0.54902 0.0313725 0.521569 0.54902 
0.0313725 0.521569 0.54902 0.0313725 0.521569 0.54902 
0.0313725 0.521569 0.54902 0.0313725 0.521569 0.54902 
0.0313725 0.521569 0.54902 0.0313725 0.521569 0.54902 
0.0313725 0.521569 0.54902 0.0313725 0.521569 0.54902 
0.0313725 0.521569 0.54902 0.0313725 0.521569 0.54902 
0.0313725 0.521569 0.54902 0.0313725 0.521569 0.54902 
0.0313725 0.521569 0.54902 0.0313725 0.521569 0.54902 
0.0313725 0.521569 0.54902 0.0313725 0.521569 0.54902 
0.0313725 0.521569 0.54902 0.0313725 0.521569 0.54902 
0.0313725 0.521569 0.54902 0.0313725 0.521569 0.54902 
0.0313725 0.521569 0.54902 0.0313725 0.521569 0.54902 
0.0313725 0.521569 0.54902 0.0313725 0.521569 0.54902 
0.0313725 0.521569 0.54902 0.0313725 0.521569 0.54902 
0.0313725 0.521569 0.54902 0.0313725 0.521569 0.54902 
0.0313725 0.521569 0.54902 0.0313725 0.521569 0.54902 
0.0313725 0.521569 0.54902 0.0313725 0.521569 0.54902 
0.0313725 0.521569 0.54902 0.0313725 0.521569 0.54902 
0.0313725 0.521569 0.54902 0.0313725 0.521569 0.54902 
0.0313725 0.521569 0.54902 0.0313725 0.521569 0.54902 
0.0313725 0.521569 0.54902 0.0313725 0.521569 0.54902 
0.0313725 0.521569 0.54902 0.0313725 0.521569 0.54902 
0.0313725 0.521569 0.54902 0.0313725 0.521569 0.54902 
0.0313725 0.521569 0.54902 0.0313725 0.521569 0.54902 
0.0313725 0.521569 0.54902 0.0313725 0.521569 0.54902 
0.0313725 0.521569 0.54902 0.0313725 0.521569 0.54902 
0.0313725 0.521569 0.54902 0.0313725 0.521569 0.54902 
0.0313725 0.521569 0.54902 0.0313725 0.521569 0.54902 
0.0313725 0.521569 0.54902 0.0313725 0.521569 0.54902 
0.0313725 0.521569 0.54902 0.0313725 0.521569 0.54902 
0.0313725 0.521569 0.54902 0.0313725 0.521569 0.54902 
0.0313725 0.521569 0.54902 0.0313725 0.521569 0.54902 
0.0313725 0.521569 0.54902 0.0313725 0.521569 0.54902 
0.0313725 0.521569 0.54902 0.0313725 0.521569 0.54902 
0.0313725 0.521569 0.54902 0.0313725 0.521569 0.54902 
0.0313725 0.521569 0.54902 0.0313725 0.521569 0.54902 
0.0313725 0.521569 0.54902 0.0313725 0.521569 0.54902 
0.0313725 0.521569 0.54902 0.0313725 0.521569 0.54902 
0.0313725 0.521569 0.54902 0.0313725 0.521569 0.54902 
0.0313725 0.521569 0.54902 0.0313725 0.521569 0.54902 
0.0313725 0.521569 0.54902 0.0313725 0.521569 0.54902 
0.0313725 0.521569 0.54902 0.0313725 0.521569 0.54902 
0.0313725 0.521569 0.54902 0.0313725 0.521569 0.54902 
0.0313725 0.521569 0.54902 0.0313725 0.521569 0.54902 
0.0313725 0.521569 0.54902 0.0313725 0.521569 0.54902 
0.0313725 0.521569 0.54902 0.0313725 0.521569 0.54902 
0.0313725 0.521569 0.54902 0.0313725 0.521569 0.54902 
0.0313725 0.521569 0.54902 0.0313725 0.521569 0.54902 
0.0313725 0.521569 0.54902 0.0313725 0.521569 0.54902 
0.0313725 0.521569 0.54902 0.0313725 0.521569 0.54902 
0.0313725 0.521569 0.54902 0.0313725 0.521569 0.54902 
0.0313725 0.521569 0.54902 0.0313725 0.521569 0.54902 
0.0313725 0.521569 0.54902 0.0313725 0.521569 0.54902 
0.0313725 0.521569 0.54902 0.0313725 0.521569 0.54902 
0.0313725 0.521569 0.54902 0.0313725 0.521569 0.54902 
0.0313725 0.521569 0.54902 0.0313725 0.521569 0.54902 
0.0313725 0.521569 0.54902 0.0313725 0.521569 0.54902 
0.0313725 0.521569 0.54902 0.0313725 0.521569 0.54902 
0.0313725 0.521569 0.54902 0.0313725 0.521569 0.54902 
0.0313725 0.521569 0.54902 0.0313725 0.521569 0.54902 
0.0313725 0.521569 0.54902 0.0313725 0.521569 0.54902 
0.0313725 0.521569 0.54902 0.0313725 0.521569 0.54902 
0.0313725 0.521569 0.54902 0.0313725 0.521569 0.54902 
0.0313725 0.521569 0.54902 0.0313725 0.521569 0.54902 
0.0313725 0.521569 0.54902 0.0313725 0.521569 0.54902 
0.0313725 0.521569 0.54902 0.0313725 0.521569 0.54902 
0.0313725 0.521569 0.54902 0.0313725 0.521569 0.54902 
0.0313725 0.521569 0.54902 0.0313725 0.521569 0.54902 
0.0313725 0.521569 0.54902 0.0313725 0.521569 0.54902 
0.0313725 0.521569 0.54902 0.0313725 0.521569 0.54902 
0.0313725 0.521569 0.54902 0.0313725 0.521569 0.54902 
0.0313725 0.521569 0.54902 0.0313725 0.521569 0.54902 
0.0313725 0.521569 0.54902 0.0313725 0.521569 0.54902 
0.0313725 0.521569 0.54902 0.0313725 0.521569 0.54902 
0.0313725 0.521569 0.54902 0.0313725 0.521569 0.54902 
0.0313725 0.521569 0.54902 0.0313725 0.521569 0.54902 
0.0313725 0.521569 0.54902 0.0313725 0.521569 0.54902 
0.0313725 0.521569 0.54902 0.0313725 0.521569 0.54902 
0.0313725 0.521569 0.54902 0.0313725 0.521569 0.54902 
0.0313725 0.521569 0.54902 0.0313725 0.521569 0.54902 
0.0313725 0.521569 0.54902 0.0313725 0.521569 0.54902 
0.0313725 0.521569 0.54902 0.0313725 0.521569 0.54902 
0.0313725 0.521569 0.54902 0.0313725 0.521569 0.54902 
0.0313725 0.521569 0.54902 0.0313725 0.521569 0.54902 
0.0313725 0.521569 0.54902 0.0313725 0.521569 0.54902 
0.0313725 0.521569 0.54902 0.0313725 0.521569 0.54902 
0.0313725 0.521569 0.54902 0.0313725 0.521569 0.54902 
0.0313725 0.521569 0.54902 0.0313725 0.521569 0.54902 
0.0313725 0.521569 0.54902 0.0313725 0.521569 0.54902 
0.0313725 0.521569 0.54902 0.0313725 0.521569 0.54902 
0.0313725 0.521569 0.54902 0.0313725 0.521569 0.54902 
0.0313725 0.521569 0.54902 0.0313725 0.521569 0.54902 
0.0313725 0.521569 0.54902 0.0313725 0.521569 0.54902 
0.0313725 0.521569 0.54902 0.0313725 0.521569 0.54902 
0.0313725 0.521569 0.54902 0.0313725 0.521569 0.54902 
0.0313725 0.521569 0.54902 0.0313725 0.521569 0.54902 
0.0313725 0.521569 0.54902 0.0313725 0.521569 0.54902 
0.0313725 0.521569 0.54902 0.0313725 0.521569 0.54902 
0.0313725 0.521569 0.54902 0.0313725 0.521569 0.54902 
0.0313725 0.521569 0.54902 0.0313725 0.521569 0.54902 
0.0313725 0.521569 0.54902 0.0313725 0.521569 0.54902 
0.0313725 0.521569 0.54902 0.0313725 0.521569 0.54902 
0.0313725 0.521569 0.54902 0.0313725 0.521569 0.54902 
0.0313725 0.521569 0.54902 0.0313725 0.521569 0.54902 
0.0313725 0.521569 0.54902 0.0313725 0.521569 0.54902 
0.0313725 0.521569 0.54902 0.0313725 0.521569 0.54902 
0.0313725 0.521569 0.54902 0.0313725 0.521569 0.54902 
0.0313725 0.521569 0.54902 0.0313725 0.521569 0.54902 
0.0313725 0.521569 0.54902 0.0313725 0.521569 0.54902 
0.0313725 0.521569 0.54902 0.0313725 0.521569 0.54902 
0.0313725 0.521569 0.54902 0.0313725 0.521569 0.54902 
0.0313725 0.521569 0.54902 0.0313725 0.521569 0.54902 
0.0313725 0.521569 0.54902 0.0313725 0.521569 0.54902 
0.0313725 0.521569 0.54902 0.0313725 0.521569 0.54902 
0.0313725 0.521569 0.54902 0.0313725 0.521569 0.54902 
0.0313725 0.521569 0.54902 0.0313725 0.521569 0.54902 
0.0313725 0.521569 0.54902 0.0313725 0.521569 0.54902 
0.0313725 0.521569 0.54902 0.0313725 0.521569 0.54902 
0.0313725 0.521569 0.54902 0.0313725 0.521569 0.54902 
0.0313725 0.521569 0.54902 0.0313725 0.521569 0.54902 
0.0313725 0.521569 0.54902 0.0313725 0.521569 0.54902 
0.0313725 0.521569 0.54902 0.0313725 0.521569 0.54902 
0.0313725 0.521569 0.54902 0.0313725 0.521569 0.54902 
0.0313725 0.521569 0.54902 0.0313725 0.521569 0.54902 
0.0313725 0.521569 0.54902 0.0313725 0.521569 0.54902 
0.0313725 0.521569 0.54902 0.0313725 0.521569 0.54902 
0.0313725 0.521569 0.54902 0.0313725 0.521569 0.54902 
0.0313725 0.521569 0.54902 0.0313725 0.521569 0.54902 
0.0313725 0.521569 0.54902 0.0313725 0.521569 0.54902 
0.0313725 0.521569 0.54902 0.0313725 0.521569 0.54902 
0.0313725 0.521569 0.54902 0.0313725 0.521569 0.54902 
0.0313725 0.521569 0.54902 0.0313725 0.521569 0.54902 
0.0313725 0.521569 0.54902 0.0313725 0.521569 0.54902 
0.0313725 0.521569 0.54902 0.0313725 0.521569 0.54902 
0.0313725 0.521569 0.54902 0.0313725 0.521569 0.54902 
0.0313725 0.521569 0.54902 0.0313725 0.521569 0.54902 
0.0313725 0.521569 0.54902 0.0313725 0.521569 0.54902 
0.0313725 0.521569 0.54902 0.0313725 0.521569 0.54902 
0.0313725 0.521569 0.54902 0.0313725 0.521569 0.54902 
0.0313725 0.521569 0.54902 0.0313725 0.521569 0.54902 
0.0313725 0.521569 0.54902 0.0313725 0.521569 0.54902 
0.0313725 0.521569 0.54902 0.0313725 0.521569 0.54902 
0.0313725 0.521569 0.54902 0.0313725 0.521569 0.54902 
0.0313725 0.521569 0.54902 0.0313725 0.521569 0.54902 
0.0313725 0.521569 0.54902 0.0313725 0.521569 0.54902 
0.0313725 0.521569 0.54902 0.0313725 0.521569 0.54902 
0.0313725 0.521569 0.54902 0.0313725 0.521569 0.54902 
0.0313725 0.521569 0.54902 0.0313725 0.521569 0.54902 
0.0313725 0.521569 0.54902 0.0313725 0.521569 0.54902 
0.0313725 0.521569 0.54902 0.0313725 0.521569 0.54902 
0.0313725 0.521569 0.54902 0.0313725 0.521569 0.54902 
0.0313725 0.521569 0.54902 0.0313725 0.521569 0.54902 
0.0313725 0.521569 0.54902 0.0313725 0.521569 0.54902 
0.0313725 0.521569 0.54902 0.0313725 0.521569 0.54902 
0.0313725 0.521569 0.54902 0.0313725 0.521569 0.54902 
0.0313725 0.521569 0.54902 0.0313725 0.521569 0.54902 
0.0313725 0.521569 0.54902 0.0313725 0.521569 0.54902 
0.0313725 0.521569 0.54902 0.0313725 0.521569 0.54902 
0.0313725 0.521569 0.54902 0.0313725 0.521569 0.54902 
0.0313725 0.521569 0.54902 0.0313725 0.521569 0.54902 
0.0313725 0.521569 0.54902 0.0313725 0.521569 0.54902 
0.0313725 0.521569 0.54902 0.0313725 0.521569 0.54902 
0.0313725 0.521569 0.54902 0.0313725 0.521569 0.54902 
0.0313725 0.521569 0.54902 0.0313725 0.521569 0.54902 
0.0313725 0.521569 0.54902 0.0313725 0.521569 0.54902 
0.0313725 0.521569 0.54902 0.0313725 0.521569 0.54902 
0.0313725 0.521569 0.54902 0.0313725 0.521569 0.54902 
0.0313725 0.521569 0.54902 0.0313725 0.521569 0.54902 
0.0313725 0.521569 0.54902 0.0313725 0.521569 0.54902 
0.0313725 0.521569 0.54902 0.0313725 0.521569 0.54902 
0.0313725 0.521569 0.54902 0.0313725 0.521569 0.54902 
0.0313725 0.521569 0.54902 0.0313725 0.521569 0.54902 
0.0313725 0.521569 0.54902 0.0313725 0.521569 0.54902 
0.0313725 0.521569 0.54902 0.0313725 0.521569 0.54902 
0.0313725 0.521569 0.54902 0.0313725 0.521569 0.54902 
0.0313725 0.521569 0.54902 0.0313725 0.521569 0.54902 
0.0313725 0.521569 0.54902 0.0313725 0.521569 0.54902 
0.0313725 0.521569 0.54902 0.0313725 0.521569 0.54902 
0.0313725 0.521569 0.54902 0.0313725 0.521569 0.54902 
0.0313725 0.521569 0.54902 0.0313725 0.521569 0.54902 
0.0313725 0.521569 0.54902 0.0313725 0.521569 0.54902 
0.0313725 0.521569 0.54902 0.0313725 0.521569 0.54902 
0.0313725 0.521569 0.54902 0.0313725 0.521569 0.54902 
0.0313725 0.521569 0.54902 0.0313725 0.521569 0.54902 
0.0313725 0.521569 0.54902 0.0313725 0.521569 0.54902 
0.0313725 0.521569 0.54902 0.0313725 0.521569 0.54902 
0.0313725 0.521569 0.54902 0.0313725 0.521569 0.54902 
0.0313725 0.521569 0.54902 0.0313725 0.521569 0.54902 
0.0313725 0.521569 0.54902 0.0313725 0.521569 0.54902 
0.0313725 0.521569 0.54902 0.0313725 0.521569 0.54902 
0.0313725 0.521569 0.54902 0.0313725 0.521569 0.54902 
0.0313725 0.521569 0.54902 0.0313725 0.521569 0.54902 
0.0313725 0.521569 0.54902 0.0313725 0.521569 0.54902 
0.0313725 0.521569 0.54902 0.0313725 0.521569 0.54902 
0.0313725 0.521569 0.54902 0.0313725 0.521569 0.54902 
0.0313725 0.521569 0.54902 0.0313725 0.521569 0.54902 
0.0313725 0.521569 0.54902 0.0313725 0.521569 0.54902 
0.0313725 0.521569 0.54902 0.0313725 0.521569 0.54902 
0.0313725 0.521569 0.54902 0.0313725 0.521569 0.54902 
0.0313725 0.521569 0.54902 0.0313725 0.521569 0.54902 
0.0313725 0.521569 0.54902 0.0313725 0.521569 0.54902 
0.0313725 0.521569 0.54902 0.0313725 0.521569 0.54902 
0.0313725 0.521569 0.54902 0.0313725 0.521569 0.54902 
0.0313725 0.521569 0.54902 0.0313725 0.521569 0.54902 
0.0313725 0.521569 0.54902 0.0313725 0.521569 0.54902 
0.0313725 0.521569 0.54902 0.0313725 0.521569 0.54902 
0.0313725 0.521569 0.54902 0.0313725 0.521569 0.54902 
0.0313725 0.521569 0.54902 0.0313725 0.521569 0.54902 
0.0313725 0.521569 0.54902 0.0313725 0.521569 0.54902 
0.0313725 0.521569 0.54902 0.0313725 0.521569 0.54902 
0.0313725 0.521569 0.54902 0.0313725 0.521569 0.54902 
0.0313725 0.521569 0.54902 0.0313725 0.521569 0.54902 
0.0313725 0.521569 0.54902 0.0313725 0.521569 0.54902 
0.0313725 0.521569 0.54902 0.0313725 0.521569 0.54902 
0.0313725 0.521569 0.54902 0.0313725 0.521569 0.54902 
0.0313725 0.521569 0.54902 0.0313725 0.521569 0.54902 
0.0313725 0.521569 0.54902 0.0313725 0.521569 0.54902 
0.0313725 0.521569 0.54902 0.0313725 0.521569 0.54902 
0.0313725 0.521569 0.54902 0.0313725 0.521569 0.54902 
0.0313725 0.521569 0.54902 0.0313725 0.521569 0.54902 
0.0313725 0.521569 0.54902 0.0313725 0.521569 0.54902 
0.0313725 0.521569 0.54902 0.0313725 0.521569 0.54902 
0.0313725 0.521569 0.54902 0.0313725 0.521569 0.54902 
0.0313725 0.521569 0.54902 0.0313725 0.521569 0.54902 
0.0313725 0.521569 0.54902 0.0313725 0.521569 0.54902 
0.0313725 0.521569 0.54902 0.0313725 0.521569 0.54902 
0.0313725 0.521569 0.54902 0.0313725 0.521569 0.54902 
0.0313725 0.521569 0.54902 0.0313725 0.521569 0.54902 
0.0313725 0.521569 0.54902 0.0313725 0.521569 0.54902 
0.0313725 0.521569 0.54902 0.0313725 0.521569 0.54902 
0.0313725 0.521569 0.54902 0.0313725 0.521569 0.54902 
0.0313725 0.521569 0.54902 0.0313725 0.521569 0.54902 
0.0313725 0.521569 0.54902 0.0313725 0.521569 0.54902 
0.0313725 0.521569 0.54902 0.0313725 0.521569 0.54902 
0.0313725 0.521569 0.54902 0.0313725 0.521569 0.54902 
0.0313725 0.521569 0.54902 0.0313725 0.521569 0.54902 
0.0313725 0.521569 0.54902 0.0313725 0.521569 0.54902 
0.0313725 0.521569 0.54902 0.0313725 0.521569 0.54902 
0.0313725 0.521569 0.54902 0.0313725 0.521569 0.54902 
0.0313725 0.521569 0.54902 0.0313725 0.521569 0.54902 
0.0313725 0.521569 0.54902 0.0313725 0.521569 0.54902 
0.0313725 0.521569 0.54902 0.0313725 0.521569 0.54902 
0.0313725 0.521569 0.54902 0.0313725 0.521569 0.54902 
0.0313725 0.521569 0.54902 0.0313725 0.521569 0.54902 
0.0313725 0.521569 0.54902 0.0313725 0.521569 0.54902 
0.0313725 0.521569 0.54902 0.0313725 0.521569 0.54902 