# vtk DataFile Version 4.2
vtk output
ASCII
DATASET POLYDATA
POINTS 1141 float
378.145 128.259 40.5854 378.009 127.909 40.637 378.154 128.608 40.6432 
377.25 122.45 41.1969 378.02 123.435 40.8715 377.773 124.364 40.8483 
377.61 124.959 40.8635 378.296 126.388 40.6426 379.056 132.12 41.5005 
376.877 120.302 41.8541 376.81 121.907 41.6009 378.158 121.576 41.3047 
378.945 120.756 41.4694 379.332 121.157 41.4538 378.859 123.495 40.9456 
376.824 124.393 41.3996 380.588 128.374 41.044 378.129 131.164 41.5046 
379.626 133.354 42.218 376.28 116.174 42.831 376.175 116.205 42.9177 
377.338 117.767 42.2555 375.845 119.189 42.7214 375.915 122.303 42.4096 
381.132 121.929 41.9809 376.256 123.55 41.9883 376.35 125.352 41.9325 
378.991 133.043 42.1697 378.505 133.091 42.4912 380.519 133.66 42.3855 
381.044 135.026 43.0066 380.528 135.757 43.2897 375.435 119.588 43.102 
374.996 120.764 43.7993 382.718 132.809 43.055 381.681 135.728 43.5718 
380.045 136.636 43.9672 381.046 136.557 43.6568 381.455 136.376 43.7408 
380.503 137.093 43.9757 380.847 136.961 43.8202 381.195 137.526 44.1846 
381.425 137.275 44.1894 380.884 137.838 44.2886 380.836 137.969 44.4964 
381.032 137.758 44.2554 380.993 137.912 44.389 374.675 120.633 44.4766 
374.911 122.638 44.4744 375.119 124.611 44.4846 376.962 133.343 44.5295 
383.408 133.843 44.1489 379.1 136.287 44.4829 382.364 136.088 44.4458 
382.438 136.299 44.9149 380.377 137.718 44.5615 380.618 137.955 44.7425 
381.387 137.525 44.3501 380.835 138.014 44.7911 381.2 137.769 44.4808 
381.429 137.574 44.5352 375.179 108.45 45.8674 374.461 114.456 44.7793 
374.383 118.35 44.8085 374.933 123.525 44.9686 384.838 131.173 44.4779 
385.367 131.838 45.4554 379.008 136.575 44.9338 382.008 136.941 45.202 
380.32 137.912 45.0134 381.454 137.574 44.9033 380.3 138.073 45.3544 
380.661 138.007 45.3799 380.397 138.141 45.4292 380.295 138.149 45.4746 
374.101 116.68 45.2692 373.914 116.939 45.7767 374.204 119.921 45.9986 
374.435 121.079 45.6404 386.385 130.401 46.1975 375.54 131.131 45.9812 
385.951 131.193 45.9555 386.207 130.919 46.2636 385.673 131.745 46.0168 
377.314 134.887 45.7522 382.805 135.98 46.4333 379.767 137.806 45.9257 
380.252 137.999 46.0417 380.348 138.121 45.5723 373.562 104.859 47.9195 
374.162 104.386 47.8311 375.664 105.605 47.1964 373.412 108.962 46.8703 
372.951 109.15 47.4046 373.851 117.775 46.521 375.244 126.193 47.2464 
377.805 136.018 47.0863 372.618 110.133 48.0536 373.371 114.662 47.8285 
373.671 116.606 46.9991 374.007 118.69 47.4683 374.385 120.325 47.1897 
374.502 120.026 47.8092 375.018 122.703 47.5875 375.2 128.943 47.8 
388.168 128.35 48.2471 375.251 130.336 47.2777 375.329 130.52 47.6403 
376.478 133.693 47.0859 381.578 136.94 47.6972 379.073 137.571 47.6199 
380.901 137.5 47.5862 379.321 137.739 47.6575 379.53 137.847 47.5885 
373.323 100.293 49.9379 372.59 104.029 48.9241 371.969 105.108 49.4047 
379.592 105.568 48.3575 372.26 109.336 49.0457 372.893 112.372 49.1585 
373.75 115.662 48.811 389.286 115.798 48.9184 390.498 123.302 48.8737 
376.144 124.691 49.3522 376.229 125.688 49.3646 390.42 124.94 49.3291 
387.378 129.581 48.9021 375.515 130.981 47.7698 386.478 130.786 48.6238 
376.846 134.182 48.0394 378.515 136.716 48.7317 378.864 137.205 48.4531 
379.603 137.629 48.169 379.739 137.332 48.5937 379.373 137.68 48.0171 
379.594 137.776 47.8239 372.557 99.6341 50.4897 371.668 101.031 50.5488 
373.698 114.677 49.4138 374.072 115.411 49.7089 391.609 121.348 49.8045 
391.764 122.341 50.1508 376.574 123.998 50.0427 391.545 123.2 50.2184 
390.61 125.055 49.7251 376.443 128.763 49.5462 389.543 126.818 49.7495 
376.723 132.327 49.0185 377.06 131.847 49.5521 384.155 132.787 49.6277 
377.906 134.561 49.3837 378.145 135.451 49.1915 381.242 136.109 49.2334 
378.681 136.653 49.1191 380.544 136.672 49.1606 378.751 137.068 48.8346 
378.903 137.161 48.86 379.217 137.175 48.8407 378.82 137.093 48.9705 
371.897 99.0166 51.1939 371.037 102.538 51.1775 371.295 103.738 50.7206 
371.607 106.45 50.6158 371.653 106.648 51.2435 373.772 114.306 49.7892 
392.979 118.874 51.1105 392.935 120.481 51.1412 391.775 123.462 50.8556 
390.985 124.809 50.6776 391.958 123.509 51.4582 377.718 126.531 50.8289 
390.456 125.563 50.5543 378.482 127.997 51.1183 377.444 129.693 50.2331 
377.58 132.401 49.8481 378.108 133.197 50.0005 382.693 133.024 50.5295 
379.755 134.742 50.3546 380.921 135.305 49.9643 378.865 136.408 49.3561 
379.29 136.066 49.6744 380.085 136.101 49.7939 379.766 136.017 49.8372 
371.104 96.6931 52.673 375.329 97.9699 51.5322 370.634 99.2685 52.3645 
372.282 108.415 51.53 376.638 118.012 51.9027 393.439 121.59 52.0548 
391.666 123.907 51.7828 387.845 127.626 51.9346 380.012 132.186 50.9772 
380.443 135.303 50.1254 380.037 135.704 50.0185 370.579 96.4337 53.0429 
371.153 104.053 52.9419 394.81 119.463 53.2591 394.577 120.374 53.7266 
392.568 122.773 52.5826 390.676 124.702 52.5855 387.313 127.036 52.9365 
382.01 130.652 51.7236 370.409 92.8526 54.8882 371.032 92.2851 54.9544 
369.818 97.5972 54.0296 370.274 100.688 53.2367 371.198 103.833 53.4894 
392.041 107.908 53.8052 375.621 108.989 54.1516 396.078 116.284 54.0453 
378.368 119.54 53.2382 395.865 118.042 54.109 396.123 118.322 54.7064 
394.809 120.164 54.0082 394.636 120.386 54.0926 393.639 121.46 53.3581 
381.929 122.852 54.1957 370.09 91.6989 55.6751 371.643 91.0836 55.6198 
369.732 91.9951 55.7242 369.495 92.7018 55.6546 369.277 93.2898 55.7593 
370.074 99.9726 55.5004 371.394 103.864 53.861 396.667 117.84 55.5615 
395.87 119.059 55.0117 393.75 121.098 54.4709 394.429 120.539 54.3808 
392.731 121.691 54.9973 390.235 123.339 54.9001 385.153 123.356 55.2282 
390.209 123.708 54.5338 386.244 124.325 54.9338 385.234 127.231 53.4104 
370.063 89.8358 56.7307 369.912 90.3994 56.4924 370.754 89.9514 56.4699 
368.97 93.8935 56.2132 369.581 98.2134 55.351 371.221 101.542 55.7967 
397.869 116.42 56.2973 397.45 117.196 56.1245 392.002 121.746 55.6362 
388.357 123.408 55.4465 370.281 99.3331 56.7236 371.191 100.002 57.2325 
398.351 115.736 56.589 398.739 115.317 57.006 398.281 116.109 56.6976 
398.831 115.58 57.4148 398.54 116.027 57.3354 387.361 121.333 56.7828 
369.36 88.4832 58.2204 371.551 88.5963 57.7698 372.19 88.6112 58.065 
368.632 89.4275 58.1461 368.497 89.8013 58.0929 368.225 90.5094 58.2154 
377.251 91.1876 57.9732 377.591 91.5396 57.7296 368.281 92.8449 57.7822 
370.461 98.7236 57.609 371.937 100.092 57.7485 399.372 113.736 57.4817 
399.106 115.318 57.9726 397.773 116.743 58.045 396.92 117.336 58.1168 
368.975 87.4516 59.2371 368.946 87.5358 59.1857 369.05 87.4689 59.2989 
369.039 87.6485 59.0467 369.274 87.5132 59.2584 368.454 88.8421 58.9451 
372.991 88.6253 58.838 376.726 90.2918 59.2326 379.601 91.3971 59.5835 
381.503 91.998 59.6893 368.333 93.5341 58.0775 399.926 109.239 59.0697 
400.656 113.583 59.3569 395.329 117.756 58.8009 368.829 87.8138 59.4928 
369.116 87.6316 59.5328 368.863 88.0011 59.9104 368.55 88.3135 59.5041 
376.435 90.0479 59.7872 367.897 90.02 59.5741 367.921 89.7068 59.8772 
367.879 91.1833 59.8216 368.287 93.1725 59.5457 400.757 110.477 59.4106 
383.327 112.226 59.2069 401.271 112.04 59.847 400.876 113.701 60.2893 
398.834 115.466 59.6106 389.684 118.013 59.4491 368.512 88.3696 60.0415 
368.694 88.3209 60.3912 369.508 88.0162 60.4364 369.314 88.2071 60.6987 
371.363 88.5412 60.8976 368.009 89.5937 60.3325 367.968 90.8712 60.3915 
378.491 90.9834 61.1115 379.014 91.0753 61.0313 380.526 91.3694 60.6963 
368.16 91.7344 60.6945 381.094 91.3531 61.5424 368.382 92.9661 60.449 
368.553 92.8286 60.8419 386.884 92.5969 61.3298 384.56 104.906 61.9457 
401.458 110.432 60.2352 400.88 113.629 60.9228 400.675 113.938 60.4823 
368.564 88.9186 61.0555 368.84 88.7283 61.0846 368.724 88.9603 61.2399 
372.761 89.4943 61.6011 385.383 91.1189 62.2409 368.348 91.6192 61.1818 
378.091 91.3729 62.1168 379.988 91.4003 62.0327 386.07 91.7983 61.6919 
385.849 91.5088 61.9212 369.817 93.7286 61.2944 402.284 110.085 61.4539 
388.153 113.24 61.4945 402.149 112.108 61.7581 402.114 112.273 61.8048 
401.676 112.691 61.7639 401.533 112.977 61.4107 402.012 112.378 61.852 
391.347 114.405 62.1299 395.229 115.207 61.9301 368.759 89.5864 61.5661 
368.977 89.8986 61.8312 384.733 90.1274 63.4928 369.395 89.9035 61.991 
369.976 89.8563 62.1047 371.244 90.0374 62.2769 383.873 90.4569 63.3005 
385.093 89.7765 63.9962 369.263 91.0395 62.0635 374.878 91.0396 62.4345 
383.208 90.6672 63.4176 368.553 91.9011 61.3437 370.413 91.5026 62.429 
378.722 91.8646 62.8059 379.652 91.7544 62.8359 381.047 91.4872 63.1284 
372.484 93.5777 62.5665 377.165 92.4759 63.1758 402.798 107.413 62.7191 
402.881 109.754 62.63 403 109.971 63.2809 402.078 111.873 62.3917 
401.936 112.3 62.0821 392.15 114.434 62.3299 385.597 88.9101 64.9897 
385.14 89.2233 64.7758 368.672 90.5472 61.7237 369.789 90.3345 62.2169 
369.733 90.9048 62.2496 371.366 90.9798 62.6985 383.181 90.5011 64.4671 
372.213 92.307 62.8555 375.158 93.201 63.2112 375.773 93.0363 63.2517 
377.927 93.0522 63.5617 379.311 92.8775 63.9123 380.793 92.0436 64.0968 
374.793 93.8736 63.0953 383.171 99.6509 64.039 385.612 88.2221 65.8302 
384.297 89.4132 65.3455 371.207 91.1613 62.7369 373.721 92.13 63.0247 
380.02 93.2799 64.49 380.666 92.9698 64.8349 381.258 92.3255 64.9689 
380.09 94.0746 64.7034 380.949 94.3947 65.3216 403.492 109.321 64.6662 
386.615 87.5015 66.8026 385.501 87.9886 66.6644 383.562 89.934 66.0322 
383.211 90.3465 66.1849 381.306 93.7757 65.678 404.6 106.299 65.5738 
404.811 107.568 66.4598 404.541 107.882 66.5167 386.148 87.1684 67.6963 
387.474 87.4191 66.9183 385.333 87.7949 67.4809 388.93 87.3865 67.2678 
383.482 90.0263 67.1583 382.669 91.9813 66.9929 381.959 93.0719 66.2974 
381.872 93.9751 66.2267 382.166 94.4632 66.3468 397.793 94.9912 66.837 
405.177 106.612 67.2711 404.885 107.548 66.6754 404.995 107.282 66.7395 
404.987 107.41 66.8108 404.603 107.653 66.977 387.504 86.2531 68.3672 
388.222 85.8237 68.7671 385.713 87.3347 67.9194 383.378 90.3278 67.5605 
[...]
POINT_DATA 1141
COLOR_SCALARS scalars 3
0.0313725 0.521569 0.54902 0.0313725 0.521569 0.54902 0.0313725 0.521569 0.54902 
0.0313725 0.521569 0.54902 0.0313725 0.521569 0.54902 
0.0313725 0.521569 0.54902 0.0313725 0.521569 0.54902 
0.0313725 0.521569 0.54902 0.0313725 0.521569 0.54902 
0.0313725 0.521569 0.54902 0.0313725 0.521569 0.54902 
0.0313725 0.521569 0.54902 0.0313725 0.521569 0.54902 
0.0313725 0.521569 0.54902 0.0313725 0.521569 0.54902 
0.0313725 0.521569 0.54902 0.0313725 0.521569 0.54902 
0.0313725 0.521569 0.54902 0.0313725 0.521569 0.54902 
0.0313725 0.521569 0.54902 0.0313725 0.521569 0.54902 
0.0313725 0.521569 0.54902 0.0313725 0.521569 0.54902 
0.0313725 0.521569 0.54902 0.0313725 0.521569 0.54902 
0.0313725 0.521569 0.54902 0.0313725 0.521569 0.54902 
0.0313725 0.521569 0.54902 0.0313725 0.521569 0.54902 
0.0313725 0.521569 0.54902 0.0313725 0.521569 0.54902 
0.0313725 0.521569 0.54902 0.0313725 0.521569 0.54902 
0.0313725 0.521569 0.54902 0.0313725 0.521569 0.54902 
0.0313725 0.521569 0.54902 0.0313725 0.521569 0.54902 
0.0313725 0.521569 0.54902 0.0313725 0.521569 0.54902 
0.0313725 0.521569 0.54902 0.0313725 0.521569 0.54902 
0.0313725 0.521569 0.54902 0.0313725 0.521569 0.54902 
0.0313725 0.521569 0.54902 0.0313725 0.521569 0.54902 
0.0313725 0.521569 0.54902 0.0313725 0.521569 0.54902 
0.0313725 0.521569 0.54902 0.0313725 0.521569 0.54902 
0.0313725 0.521569 0.54902 0.0313725 0.521569 0.54902 
0.0313725 0.521569 0.54902 0.0313725 0.521569 0.54902 
0.0313725 0.521569 0.54902 0.0313725 0.521569 0.54902 
0.0313725 0.521569 0.54902 0.0313725 0.521569 0.54902 
0.0313725 0.521569 0.54902 0.0313725 0.521569 0.54902 
0.0313725 0.521569 0.54902 0.0313725 0.521569 0.54902 
0.0313725 0.521569 0.54902 0.0313725 0.521569 0.54902 
0.0313725 0.521569 0.54902 0.0313725 0.521569 0.54902 
0.0313725 0.521569 0.54902 0.0313725 0.521569 0.54902 
0.0313725 0.521569 0.54902 0.0313725 0.521569 0.54902 
0.0313725 0.521569 0.54902 0.0313725 0.521569 0.54902 
0.0313725 0.521569 0.54902 0.0313725 0.521569 0.54902 
0.0313725 0.521569 0.54902 0.0313725 0.521569 0.54902 
0.0313725 0.521569 0.54902 0.0313725 0.521569 0.54902 
0.0313725 0.521569 0.54902 0.0313725 0.521569 0.54902 
0.0313725 0.521569 0.54902 0.0313725 0.521569 0.54902 
0.0313725 0.521569 0.54902 0.0313725 0.521569 0.54902 
0.0313725 0.521569 0.54902 0.0313725 0.521569 0.54902 
0.0313725 0.521569 0.54902 0.0313725 0.521569 0.54902 
0.0313725 0.521569 0.54902 0.0313725 0.521569 0.54902 
0.0313725 0.521569 0.54902 0.0313725 0.521569 0.54902 
0.0313725 0.521569 0.54902 0.0313725 0.521569 0.54902 
0.0313725 0.521569 0.54902 0.0313725 0.521569 0.54902 
0.0313725 0.521569 0.54902 0.0313725 0.521569 0.54902 
0.0313725 0.521569 0.54902 0.0313725 0.521569 0.54902 
0.0313725 0.521569 0.54902 0.0313725 0.521569 0.54902 
0.0313725 0.521569 0.54902 0.0313725 0.521569 0.54902 
0.0313725 0.521569 0.54902 0.0313725 0.521569 0.54902 
0.0313725 0.521569 0.54902 0.0313725 0.521569 0.54902 
0.0313725 0.521569 0.54902 0.0313725 0.521569 0.54902 
0.0313725 0.521569 0.54902 0.0313725 0.521569 0.54902 
0.0313725 0.521569 0.54902 0.0313725 0.521569 0.54902 
0.0313725 0.521569 0.54902 0.0313725 0.521569 0.54902 
0.0313725 0.521569 0.54902 0.0313725 0.521569 0.54902 
0.0313725 0.521569 0.54902 0.0313725 0.521569 0.54902 
0.0313725 0.521569 0.54902 0.0313725 0.521569 0.54902 
0.0313725 0.521569 0.54902 0.0313725 0.521569 0.54902 
0.0313725 0.521569 0.54902 0.0313725 0.521569 0.54902 
0.0313725 0.521569 0.54902 0.0313725 0.521569 0.54902 
0.0313725 0.521569 0.54902 0.0313725 0.521569 0.54902 
0.0313725 0.521569 0.54902 0.0313725 0.521569 0.54902 
0.0313725 0.521569 0.54902 0.0313725 0.521569 0.54902 
0.0313725 0.521569 0.54902 0.0313725 0.521569 0.54902 
0.0313725 0.521569 0.54902 0.0313725 0.521569 0.54902 
0.0313725 0.521569 0.54902 0.0313725 0.521569 0.54902 
0.0313725 0.521569 0.54902 0.0313725 0.521569 0.54902 
0.0313725 0.521569 0.54902 0.0313725 0.521569 0.54902 
0.0313725 0.521569 0.54902 0.0313725 0.521569 0.54902 
0.0313725 0.521569 0.54902 0.0313725 0.521569 0.54902 
0.0313725 0.521569 0.54902 0.0313725 0.521569 0.54902 
0.0313725 0.521569 0.54902 0.0313725 0.521569 0.54902 
0.0313725 0.521569 0.54902 0.0313725 0.521569 0.54902 
0.0313725 0.521569 0.54902 0.0313725 0.521569 0.54902 
0.0313725 0.521569 0.54902 0.0313725 0.521569 0.54902 
0.0313725 0.521569 0.54902 0.0313725 0.521569 0.54902 
0.0313725 0.521569 0.54902 0.0313725 0.521569 0.54902 
0.0313725 0.521569 0.54902 0.0313725 0.521569 0.54902 
0.0313725 0.521569 0.54902 0.0313725 0.521569 0.54902 
0.0313725 0.521569 0.54902 0.0313725 0.521569 0.54902 
0.0313725 0.521569 0.54902 0.0313725 0.521569 0.54902 
0.0313725 0.521569 0.54902 0.0313725 0.521569 0.54902 
0.0313725 0.521569 0.54902 0.0313725 0.521569 0.54902 
0.0313725 0.521569 0.54902 0.0313725 0.521569 0.54902 
0.0313725 0.521569 0.54902 0.0313725 0.521569 0.54902 
0.0313725 0.521569 0.54902 0.0313725 0.521569 0.54902 
0.0313725 0.521569 0.54902 0.0313725 0.521569 0.54902 
0.0313725 0.521569 0.54902 0.0313725 0.521569 0.54902 
0.0313725 0.521569 0.54902 0.0313725 0.521569 0.54902 
0.0313725 0.521569 0.54902 0.0313725 0.521569 0.54902 
0.0313725 0.521569 0.54902 0.0313725 0.521569 0.54902 
0.0313725 0.521569 0.54902 0.0313725 0.521569 0.54902 
0.0313725 0.521569 0.54902 0.0313725 0.521569 0.54902 
0.0313725 0.521569 0.54902 0.0313725 0.521569 0.54902 
0.0313725 0.521569 0.54902 0.0313725 0.521569 0.54902 
0.0313725 0.521569 0.54902 0.0313725 0.521569 0.54902 
0.0313725 0.521569 0.54902 0.0313725 0.521569 0.54902 
0.0313725 0.521569 0.54902 0.0313725 0.521569 0.54902 
0.0313725 0.521569 0.54902 0.0313725 0.521569 0.54902 
0.0313725 0.521569 0.54902 0.0313725 0.521569 0.54902 
0.0313725 0.521569 0.54902 0.0313725 0.521569 0.54902 
0.0313725 0.521569 0.54902 0.0313725 0.521569 0.54902 
0.0313725 0.521569 0.54902 0.0313725 0.521569 0.54902 
0.0313725 0.521569 0.54902 0.0313725 0.521569 0.54902 
0.0313725 0.521569 0.54902 0.0313725 0.521569 0.54902 
0.0313725 0.521569 0.54902 0.0313725 0.521569 0.54902 
0.0313725 0.521569 0.54902 0.0313725 0.521569 0.54902 
0.0313725 0.521569 0.54902 0.0313725 0.521569 0.54902 
0.0313725 0.521569 0.54902 0.0313725 0.521569 0.54902 
0.0313725 0.521569 0.54902 0.0313725 0.521569 0.54902 
0.0313725 0.521569 0.54902 0.0313725 0.521569 0.54902 
0.0313725 0.521569 0.54902 0.0313725 0.521569 0.54902 
0.0313725 0.521569 0.54902 0.0313725 0.521569 0.54902 
0.0313725 0.521569 0.54902 0.0313725 0.521569 0.54902 
0.0313725 0.521569 0.54902 0.0313725 0.521569 0.54902 
0.0313725 0.521569 0.54902 0.0313725 0.521569 0.54902 
0.0313725 0.521569 0.54902 0.0313725 0.521569 0.54902 
0.0313725 0.521569 0.54902 0.0313725 0.521569 0.54902 
0.0313725 0.521569 0.54902 0.0313725 0.521569 0.54902 
0.0313725 0.521569 0.54902 0.0313725 0.521569 0.54902 
0.0313725 0.521569 0.54902 0.0313725 0.521569 0.54902 
0.0313725 0.521569 0.54902 0.0313725 0.521569 0.54902 
0.0313725 0.521569 0.54902 0.0313725 0.521569 0.54902 
0.0313725 0.521569 0.54902 0.0313725 0.521569 0.54902 
0.0313725 0.521569 0.54902 0.0313725 0.521569 0.54902 
0.0313725 0.521569 0.54902 0.0313725 0.521569 0.54902 
0.0313725 0.521569 0.54902 0.0313725 0.521569 0.54902 
0.0313725 0.521569 0.54902 0.0313725 0.521569 0.54902 
0.0313725 0.521569 0.54902 0.0313725 0.521569 0.54902 
0.0313725 0.521569 0.54902 0.0313725 0.521569 0.54902 
0.0313725 0.521569 0.54902 0.0313725 0.521569 0.54902 
0.0313725 0.521569 0.54902 0.0313725 0.521569 0.54902 
0.0313725 0.521569 0.54902 0.0313725 0.521569 0.54902 
0.0313725 0.521569 0.54902 0.0313725 0.521569 0.54902 
0.0313725 0.521569 0.54902 0.0313725 0.521569 0.54902 
0.0313725 0.521569 0.54902 0.0313725 0.521569 0.54902 
0.0313725 0.521569 0.54902 0.0313725 0.521569 0.54902 
0.0313725 0.521569 0.54902 0.0313725 0.521569 0.54902 
0.0313725 0.521569 0.54902 0.0313725 0.521569 0.54902 
0.0313725 0.521569 0.54902 0.0313725 0.521569 0.54902 
0.0313725 0.521569 0.54902 0.0313725 0.521569 0.54902 
0.0313725 0.521569 0.54902 0.0313725 0.521569 0.54902 
0.0313725 0.521569 0.54902 0.0313725 0.521569 0.54902 
0.0313725 0.521569 0.54902 0.0313725 0.521569 0.54902 
0.0313725 0.521569 0.54902 0.0313725 0.521569 0.54902 
0.0313725 0.521569 0.54902 0.0313725 0.521569 0.54902 
0.0313725 0.521569 0.54902 0.0313725 0.521569 0.54902 
0.0313725 0.521569 0.54902 0.0313725 0.521569 0.54902 
0.0313725 0.521569 0.54902 0.0313725 0.521569 0.54902 
0.0313725 0.521569 0.54902 0.0313725 0.521569 0.54902 
0.0313725 0.521569 0.54902 0.0313725 0.521569 0.54902 
0.0313725 0.521569 0.54902 0.0313725 0.521569 0.54902 
0.0313725 0.521569 0.54902 0.0313725 0.521569 0.54902 
0.0313725 0.521569 0.54902 0.0313725 0.521569 0.54902 
0.0313725 0.521569 0.54902 0.0313725 0.521569 0.54902 
0.0313725 0.521569 0.54902 0.0313725 0.521569 0.54902 
0.0313725 0.521569 0.54902 0.0313725 0.521569 0.54902 
0.0313725 0.521569 0.54902 0.0313725 0.521569 0.54902 
0.0313725 0.521569 0.54902 0.0313725 0.521569 0.54902 
0.0313725 0.521569 0.54902 0.0313725 0.521569 0.54902 
0.0313725 0.521569 0.54902 0.0313725 0.521569 0.54902 
0.0313725 0.521569 0.54902 0.0313725 0.521569 0.54902 
0.0313725 0.521569 0.54902 0.0313725 0.521569 0.54902 
0.0313725 0.521569 0.54902 0.0313725 0.521569 0.54902 
0.0313725 0.521569 0.54902 0.0313725 0.521569 0.54902 
0.0313725 0.521569 0.54902 0.0313725 0.521569 0.54902 
0.0313725 0.521569 0.54902 0.0313725 0.521569 0.54902 
0.0313725 0.521569 0.54902 0.0313725 0.521569 0.54902 
0.0313725 0.521569 0.54902 0.0313725 0.521569 0.54902 
0.0313725 0.521569 0.54902 0.0313725 0.521569 0.54902 
0.0313725 0.521569 0.54902 0.0313725 0.521569 0.54902 
0.0313725 0.521569 0.54902 0.0313725 0.521569 0.54902 
0.0313725 0.521569 0.54902 0.0313725 0.521569 0.54902 
0.0313725 0.521569 0.54902 0.0313725 0.521569 0.54902 
0.0313725 0.521569 0.54902 0.0313725 0.521569 0.54902 
0.0313725 0.521569 0.54902 0.0313725 0.521569 0.54902 
0.0313725 0.521569 0.54902 0.0313725 0.521569 0.54902 
0.0313725 0.521569 0.54902 0.0313725 0.521569 0.54902 
0.0313725 0.521569 0.54902 0.0313725 0.521569 0.54902 
0.0313725 0.521569 0.54902 0.0313725 0.521569 0.54902 
0.0313725 0.521569 0.54902 0.0313725 0.521569 0.54902 
0.0313725 0.521569 0.54902 0.0313725 0.521569 0.54902 
0.0313725 0.521569 0.54902 0.0313725 0.521569 0.54902 
0.0313725 0.521569 0.54902 0.0313725 0.521569 0.54902 
0.0313725 0.521569 0.54902 0.0313725 0.521569 0.54902 
0.0313725 0.521569 0.54902 0.0313725 0.521569 0.54902 
0.0313725 0.521569 0.54902 0.0313725 0.521569 0.54902 
0.0313725 0.521569 0.54902 0.0313725 0.521569 0.54902 
0.0313725 0.521569 0.54902 0.0313725 0.521569 0.54902 
0.0313725 0.521569 0.54902 0.0313725 0.521569 0.54902 
0.0313725 0.521569 0.54902 0.0313725 0.521569 0.54902 
0.0313725 0.521569 0.54902 0.0313725 0.521569 0.54902 
0.0313725 0.521569 0.54902 0.0313725 0.521569 0.54902 
0.0313725 0.521569 0.54902 0.0313725 0.521569 0.54902 
0.0313725 0.521569 0.54902 0.0313725 0.521569 0.54902 
0.0313725 0.521569 0.54902 0.0313725 0.521569 0.54902 
0.0313725 0.521569 0.54902 0.0313725 0.521569 0.54902 
0.0313725 0.521569 0.54902 0.0313725 0.521569 0.54902 
0.0313725 0.521569 0.54902 0.0313725 0.521569 0.54902 
0.0313725 0.521569 0.54902 0.0313725 0.521569 0.54902 
0.0313725 0.521569 0.54902 0.0313725 0.521569 0.54902 
0.0313725 0.521569 0.54902 0.0313725 0.521569 0.54902 
0.0313725 0.521569 0.54902 0.0313725 0.521569 0.54902 
0.0313725 0.521569 0.54902 0.0313725 0.521569 0.54902 
0.0313725 0.521569 0.54902 0.0313725 0.521569 0.54902 
0.0313725 0.521569 0.54902 0.0313725 0.521569 0.54902 
0.0313725 0.521569 0.54902 0.0313725 0.521569 0.54902 
0.0313725 0.521569 0.54902 0.0313725 0.521569 0.54902 
0.0313725 0.521569 0.54902 0.0313725 0.521569 0.54902 
0.0313725 0.521569 0.54902 0.0313725 0.521569 0.54902 
0.0313725 0.521569 0.54902 0.0313725 0.521569 0.54902 
0.0313725 0.521569 0.54902 0.0313725 0.521569 0.54902 
0.0313725 0.521569 0.54902 0.0313725 0.521569 0.54902 
0.0313725 0.521569 0.54902 0.0313725 0.521569 0.54902 
0.0313725 0.521569 0.54902 0.0313725 0.521569 0.54902 
0.0313725 0.521569 0.54902 0.0313725 0.521569 0.54902 
0.0313725 0.521569 0.54902 0.0313725 0.521569 0.54902 
0.0313725 0.521569 0.54902 0.0313725 0.521569 0.54902 
0.0313725 0.521569 0.54902 0.0313725 0.521569 0.54902 
0.0313725 0.521569 0.54902 0.0313725 0.521569 0.54902 
0.0313725 0.521569 0.54902 0.0313725 0.521569 0.54902 
0.0313725 0.521569 0.54902 0.0313725 0.521569 0.54902 
0.0313725 0.521569 0.54902 0.0313725 0.521569 0.54902 
0.0313725 0.521569 0.54902 0.0313725 0.521569 0.54902 
0.0313725 0.521569 0.54902 0.0313725 0.521569 0.54902 
0.0313725 0.521569 0.54902 0.0313725 0.521569 0.54902 
0.0313725 0.521569 0.54902 0.0313725 0.521569 0.54902 
0.0313725 0.521569 0.54902 0.0313725 0.521569 0.54902 
0.0313725 0.521569 0.54902 0.0313725 0.521569 0.54902 
0.0313725 0.521569 0.54902 0.0313725 0.521569 0.54902 
0.0313725 0.521569 0.54902 0.0313725 0.521569 0.54902 
0.0313725 0.521569 0.54902 0.0313725 0.521569 0.54902 
0.0313725 0.521569 0.54902 0.0313725 0.521569 0.54902 
0.0313725 0.521569 0.54902 0.0313725 0.521569 0.54902 
0.0313725 0.521569 0.54902 0.0313725 0.521569 0.54902 
0.0313725 0.521569 0.54902 0.0313725 0.521569 0.54902 
0.0313725 0.521569 0.54902 0.0313725 0.521569 0.54902 
0.0313725 0.521569 0.54902 0.0313725 0.521569 0.54902 
0.0313725 0.521569 0.54902 0.0313725 0.521569 0.54902 
0.0313725 0.521569 0.54902 0.0313725 0.521569 0.54902 
0.0313725 0.521569 0.54902 0.0313725 0.521569 0.54902 
0.0313725 0.521569 0.54902 0.0313725 0.521569 0.54902 
0.0313725 0.521569 0.54902 0.0313725 0.521569 0.54902 
0.0313725 0.521569 0.54902 0.0313725 0.521569 0.54902 
0.0313725 0.521569 0.54902 0.0313725 0.521569 0.54902 
0.0313725 0.521569 0.54902 0.0313725 0.521569 0.54902 
0.0313725 0.521569 0.54902 0.0313725 0.521569 0.54902 
0.0313725 0.521569 0.54902 0.0313725 0.521569 0.54902 
0.0313725 0.521569 0.54902 0.0313725 0.521569 0.54902 
0.0313725 0.521569 0.54902 0.0313725 0.521569 0.54902 
0.0313725 0.521569 0.54902 0.0313725 0.521569 0.54902 
0.0313725 0.521569 0.54902 0.0313725 0.521569 0.54902 
0.0313725 0.521569 0.54902 0.0313725 0.521569 0.54902 
0.0313725 0.521569 0.54902 0.0313725 0.521569 0.54902 
0.0313725 0.521569 0.54902 0.0313725 0.521569 0.54902 
0.0313725 0.521569 0.54902 0.0313725 0.521569 0.54902 
0.0313725 0.521569 0.54902 0.0313725 0.521569 0.54902 
0.0313725 0.521569 0.54902 0.0313725 0.521569 0.54902 
0.0313725 0.521569 0.54902 0.0313725 0.521569 0.54902 
0.0313725 0.521569 0.54902 0.0313725 0.521569 0.54902 
0.0313725 0.521569 0.54902 0.0313725 0.521569 0.54902 
0.0313725 0.521569 0.54902 0.0313725 0.521569 0.54902 
0.0313725 0.521569 0.54902 0.0313725 0.521569 0.54902 
0.0313725 0.521569 0.54902 0.0313725 0.521569 0.54902 
0.0313725 0.521569 0.54902 0.0313725 0.521569 0.54902 
0.0313725 0.521569 0.54902 0.0313725 0.521569 0.54902 
0.0313725 0.521569 0.54902 0.0313725 0.521569 0.54902 
0.0313725 0.521569 0.54902 0.0313725 0.521569 0.54902 
0.0313725 0.521569 0.54902 0.0313725 0.521569 0.54902 
0.0313725 0.521569 0.54902 0.0313725 0.521569 0.54902 
0.0313725 0.521569 0.54902 0.0313725 0.521569 0.54902 
0.0313725 0.521569 0.54902 0.0313725 0.521569 0.54902 
0.0313725 0.521569 0.54902 0.0313725 0.521569 0.54902 
0.0313725 0.521569 0.54902 0.0313725 0.521569 0.54902 
0.0313725 0.521569 0.54902 0.0313725 0.521569 0.54902 
0.0313725 0.521569 0.54902 0.0313725 0.521569 0.54902 
0.0313725 0.521569 0.54902 0.0313725 0.521569 0.54902 
0.0313725 0.521569 0.54902 0.0313725 0.521569 0.54902 
0.0313725 0.521569 0.54902 0.0313725 0.521569 0.54902 
0.0313725 0.521569 0.54902 0.0313725 0.521569 0.54902 
0.0313725 0.521569 0.54902 0.0313725 0.521569 0.54902 
0.0313725 0.521569 0.54902 0.0313725 0.521569 0.54902 
0.0313725 0.521569 0.54902 0.0313725 0.521569 0.54902 
0.0313725 0.521569 0.54902 0.0313725 0.521569 0.54902 
0.0313725 0.521569 0.54902 0.0313725 0.521569 0.54902 
0.0313725 0.521569 0.54902 0.0313725 0.521569 0.54902 
0.0313725 0.521569 0.54902 0.0313725 0.521569 0.54902 
0.0313725 0.521569 0.54902 0.0313725 0.521569 0.54902 
0.0313725 0.521569 0.54902 0.0313725 0.521569 0.54902 
0.0313725 0.521569 0.54902 0.0313725 0.521569 0.54902 
0.0313725 0.521569 0.54902 0.0313725 0.521569 0.54902 
0.0313725 0.521569 0.54902 0.0313725 0.521569 0.54902 
0.0313725 0.521569 0.54902 0.0313725 0.521569 0.54902 
0.0313725 0.521569 0.54902 0.0313725 0.521569 0.54902 
0.0313725 0.521569 0.54902 0.0313725 0.521569 0.54902 
0.0313725 0.521569 0.54902 0.0313725 0.521569 0.54902 
0.0313725 0.521569 0.54902 0.0313725 0.521569 0.54902 
0.0313725 0.521569 0.54902 0.0313725 0.521569 0.54902 
0.0313725 0.521569 0.54902 0.0313725 0.521569 0.54902 
0.0313725 0.521569 0.54902 0.0313725 0.521569 0.54902 
0.0313725 0.521569 0.54902 0.0313725 0.521569 0.54902 
0.0313725 0.521569 0.54902 0.0313725 0.521569 0.54902 
0.0313725 0.521569 0.54902 0.0313725 0.521569 0.54902 
0.0313725 0.521569 0.54902 0.0313725 0.521569 0.54902 
0.0313725 0.521569 0.54902 0.0313725 0.521569 0.54902 
0.0313725 0.521569 0.54902 0.0313725 0.521569 0.54902 
0.0313725 0.521569 0.54902 0.0313725 0.521569 0.54902 
0.0313725 0.521569 0.54902 0.0313725 0.521569 0.54902 
0.0313725 0.521569 0.54902 0.0313725 0.521569 0.54902 
0.0313725 0.521569 0.54902 0.0313725 0.521569 0.54902 
0.0313725 0.521569 0.54902 0.0313725 0.521569 0.54902 
0.0313725 0.521569 0.54902 0.0313725 0.521569 0.54902 
0.0313725 0.521569 0.54902 0.0313725 0.521569 0.54902 
0.0313725 0.521569 0.54902 0.0313725 0.521569 0.54902 
0.0313725 0.521569 0.54902 0.0313725 0.521569 0.54902 
0.0313725 0.521569 0.54902 0.0313725 0.521569 0.54902 
0.0313725 0.521569 0.54902 0.0313725 0.521569 0.54902 
0.0313725 0.521569 0.54902 0.0313725 0.521569 0.54902 
0.0313725 0.521569 0.54902 0.0313725 0.521569 0.54902 
0.0313725 0.521569 0.54902 0.0313725 0.521569 0.54902 
0.0313725 0.521569 0.54902 0.0313725 0.521569 0.54902 
0.0313725 0.521569 0.54902 0.0313725 0.521569 0.54902 
0.0313725 0.521569 0.54902 0.0313725 0.521569 0.54902 
0.0313725 0.521569 0.54902 0.0313725 0.521569 0.54902 
0.0313725 0.521569 0.54902 0.0313725 0.521569 0.54902 
0.0313725 0.521569 0.54902 0.0313725 0.521569 0.54902 
0.0313725 0.521569 0.54902 0.0313725 0.521569 0.54902 
0.0313725 0.521569 0.54902 0.0313725 0.521569 0.54902 
0.0313725 0.521569 0.54902 0.0313725 0.521569 0.54902 
0.0313725 0.521569 0.54902 0.0313725 0.521569 0.54902 
0.0313725 0.521569 0.54902 0.0313725 0.521569 0.54902 
0.0313725 0.521569 0.54902 0.0313725 0.521569 0.54902 
0.0313725 0.521569 0.54902 0.0313725 0.521569 0.54902 
0.0313725 0.521569 0.54902 0.0313725 0.521569 0.54902 
0.0313725 0.521569 0.54902 0.0313725 0.521569 0.54902 
0.0313725 0.521569 0.54902 0.0313725 0.521569 0.54902 
0.0313725 0.521569 0.54902 0.0313725 0.521569 0.54902 
0.0313725 0.521569 0.54902 0.0313725 0.521569 0.54902 
0.0313725 0.521569 0.54902 0.0313725 0.521569 0.54902 
0.0313725 0.521569 0.54902 0.0313725 0.521569 0.54902 
0.0313725 0.521569 0.54902 0.0313725 0.521569 0.54902 
0.0313725 0.521569 0.54902 0.0313725 0.521569 0.54902 
0.0313725 0.521569 0.54902 0.0313725 0.521569 0.54902 
0.0313725 0.521569 0.54902 0.0313725 0.521569 0.54902 
0.0313725 0.521569 0.54902 0.0313725 0.521569 0.54902 
0.0313725 0.521569 0.54902 0.0313725 0.521569 0.54902 
0.0313725 0.521569 0.54902 0.0313725 0.521569 0.54902 
0.0313725 0.521569 0.54902 0.0313725 0.521569 0.54902 
0.0313725 0.521569 0.54902 0.0313725 0.521569 0.54902 
0.0313725 0.521569 0.54902 0.0313725 0.521569 0.54902 
0.0313725 0.521569 0.54902 0.0313725 0.521569 0.54902 
0.0313725 0.521569 0.54902 0.0313725 0.521569 0.54902 
0.0313725 0.521569 0.54902 0.0313725 0.521569 0.54902 
0.0313725 0.521569 0.54902 0.0313725 0.521569 0.54902 
0.0313725 0.521569 0.54902 0.0313725 0.521569 0.54902 
0.0313725 0.521569 0.54902 0.0313725 0.521569 0.54902 
0.0313725 0.521569 0.54902 0.0313725 0.521569 0.54902 
0.0313725 0.521569 0.54902 0.0313725 0.521569 0.54902 
0.0313725 0.521569 0.54902 0.0313725 0.521569 0.54902 