# vtk DataFile Version 4.2
vtk output
ASCII
DATASET POLYDATA
POINTS 1751 float
349.529 70.0005 100.61 353.376 71.4055 100.366 356.031 72.9334 100.11 
355.736 73.247 100.047 357.584 72.9844 100.295 357.605 74.0538 99.8935 
360.219 73.8258 100.323 359.019 75.2511 99.8005 359.35 74.8378 99.8567 
360.833 76.0878 99.7651 361.216 75.8257 99.8149 362.367 76.8478 99.7436 
365.544 76.3423 100.193 363.587 77.7525 99.7426 367.289 77.3599 100.08 
368.803 77.8551 100.128 366.475 78.5257 99.8295 369.099 78.8657 99.9536 
370.311 79.2411 100.001 370.681 80.098 99.924 374.737 80.6702 100.174 
374.986 81.0142 100.093 376.009 81.3293 100.086 376.457 81.262 100.175 
375.765 81.6612 100.03 377.82 81.9926 100.073 377.391 82.2421 99.9993 
378.896 83.7318 99.8612 381.43 83.3861 100.11 381.488 84.1145 99.9487 
383.375 84.2825 100.221 385.284 85.8482 100.673 383.21 86.5652 100.302 
343.562 67.9867 101.468 343.488 68.2235 101.381 344.744 68.2165 101.341 
350.515 70.46 100.597 350.689 71.1875 100.402 352.448 70.3189 100.919 
350.065 72.0672 100.513 355.542 72.466 100.29 358.328 75.2332 99.8337 
363.598 75.0475 100.446 359.109 75.8674 99.8723 362.172 77.2943 99.7752 
366.191 76.1594 100.439 361.477 77.8103 100.005 366.988 79.2797 99.8866 
365.744 80.0157 100.227 368.692 80.7081 100.139 375.297 82.1283 100.061 
378.095 81.5991 100.293 382.716 82.9626 100.666 379.331 84.4024 99.8715 
384.147 83.4104 100.895 385.725 84.9861 100.87 379.466 86.0749 100.377 
386.288 85.7509 101.224 384.913 86.6315 100.76 382.009 87.4924 100.77 
385.419 86.8552 101.247 338.719 66.0751 102.45 340.396 67.2962 102.094 
342.796 67.4067 101.833 344.129 67.4788 101.754 342.485 68.8502 101.567 
350.245 69.2073 101.302 342.061 69.0966 101.715 343.907 70.0697 101.336 
348.442 71.2724 100.656 356.063 71.2249 101.194 345.545 71.6114 101.533 
346.916 71.7173 101.2 358.402 72.0524 101.192 346.994 72.3261 101.528 
352.523 73.3588 100.376 362.891 73.6462 101.389 350.516 74.1811 101.706 
353.122 74.8174 100.938 352.7 75.1902 101.492 355.097 75.8108 100.835 
354.65 76.1316 101.323 356.057 76.5669 101.032 359.292 77.2195 100.345 
370.794 76.8337 101.499 362.073 78.8372 100.438 373.716 78.5107 101.142 
360.617 79.1854 101.397 369.185 81.3674 100.358 368.311 82.3618 101.229 
374.075 83.5042 100.592 374.849 84.5842 100.942 385.312 83.9432 101.099 
387.015 85.2375 101.841 387.139 85.4361 102.054 378.265 86.731 101.287 
386.981 85.7941 102.101 384.78 87.7202 101.871 337.836 65.2109 102.993 
336.986 65.5583 102.96 336.975 65.9997 102.881 340.336 66.5529 102.333 
337.589 66.3791 102.667 346.111 66.9561 102.584 339.202 67.7267 102.339 
338.808 67.8367 102.472 342.585 69.9364 101.818 346.127 72.4399 102.108 
351.322 74.8309 101.995 366.841 74.6851 102.055 353.382 75.7926 101.79 
352.124 75.6259 103.038 355.212 76.9852 102.255 358.845 78.9761 102.893 
361.49 80.2412 102.449 364.994 81.4403 101.724 368.649 83.3392 102.171 
369.838 83.8524 102.177 387.064 84.3663 102.146 387.611 85.0141 102.668 
374.483 85.5226 102.115 378.395 87.2941 101.952 379.096 87.8934 102.554 
381.674 88.8665 102.249 382.108 89.3948 102.875 381.963 89.2169 102.617 
382.321 89.3284 102.674 382.797 89.3629 102.93 382.184 89.3881 102.74 
336.997 64.0885 103.936 334.368 65.0252 103.966 335.053 65.8577 103.599 
349.616 67.826 102.645 339.872 68.8671 102.492 354.085 69.0762 102.869 
358.987 70.9832 102.711 342.35 71.1624 103.26 345.925 72.8254 103.494 
346.657 73.1496 103.27 350.084 74.75 103.631 351.987 75.6278 103.642 
355.161 77.2289 103.303 375.845 77.7399 102.735 361.511 80.5029 103.731 
383.067 80.8194 102.732 363.007 81.2543 103.285 365.867 82.5022 103.178 
387.798 84.3403 103.023 373.021 84.8767 102.061 388.028 85.1499 103.74 
370.865 84.8359 103.496 386.646 86.8655 102.957 384.984 88.396 103.3 
382.269 89.4295 103.248 382.338 89.4263 102.875 382.972 89.5528 103.307 
382.784 89.5374 103.553 383.146 89.5185 103.27 383.133 89.587 103.523 
333.334 63.7452 104.897 333.845 65.6916 104.288 335.549 66.9071 103.609 
336.051 67.9376 103.912 350.992 67.2683 104.092 358.913 70.155 103.884 
341.91 71.3504 104.352 344.784 72.4508 104.212 347.666 73.6346 104.096 
367.141 83.2816 104.084 367.384 83.3577 104.433 388.699 83.7413 104.819 
388.329 84.6604 104.152 369.812 84.4654 104.074 370.77 84.8609 103.841 
373.069 85.4433 104.025 377.725 87.4129 103.922 330.865 62.4362 106.452 
331.448 63.5502 105.957 331.467 64.3761 105.853 332.596 64.1328 105.089 
331.917 64.723 105.538 332.107 65.3232 105.603 333.009 65.7195 104.998 
333.878 67.3869 105.304 334.52 67.6333 104.962 334.068 67.747 105.7 
335.361 68.2397 104.884 335.656 68.6126 105.199 342.68 71.6048 105.179 
351.247 75.046 104.977 388.318 83.1416 104.361 388.612 83.357 104.701 
388.994 83.7127 105.587 388.6 84.7349 105.384 388.92 84.2061 105.816 
372.422 85.0318 105.273 387.954 85.6959 105.02 382.074 89.2766 104.529 
384.608 88.7679 104.962 383.271 89.4936 104.153 330.357 62.439 106.829 
331.214 62.0036 106.78 333.778 61.8831 106.466 330.458 62.8341 106.628 
330.514 63.413 106.563 331.159 64.7573 106.203 331.529 65.2043 106.054 
333.071 67.2471 106.623 334.216 68.0379 106.193 334.163 68.0485 106.595 
335.582 68.7001 106.328 341.945 70.9425 106.463 387.933 80.9137 105.728 
388.524 81.6024 105.713 373.082 84.6984 106.435 388.766 84.6525 106.35 
383.046 89.1495 105.293 329.426 61.5896 107.886 330.011 61.4495 107.725 
330.15 65.1324 107.625 331.347 65.8978 107.062 389.528 82.0404 106.763 
390.142 82.3545 107.818 371.311 83.8864 106.757 389.558 83.6526 107.703 
383.401 88.6911 106.439 383.448 88.9656 105.779 384.506 88.4208 106.661 
328.848 62.1678 107.984 329.039 63.656 107.928 329.384 64.1187 107.724 
329.688 65.2555 108.787 330.895 66.1048 108.61 331.891 66.6467 108.441 
333.544 67.4437 108.343 363.394 80.0736 107.425 390.632 81.801 108.375 
390.751 82.0062 108.798 382.959 88.105 107.594 326.838 60.1599 110.273 
332.25 60.0362 109.038 328.525 64.5533 109.616 329.138 64.9513 109.289 
389.947 78.7055 109.364 390.972 79.8799 109.406 391.01 81.1034 108.946 
391.168 80.5138 109.37 389.295 84.1794 108.896 387.791 85.7086 108.521 
325.845 60.0512 110.85 327.695 63.675 109.769 328.828 64.8783 109.857 
328.919 64.968 110.278 363.897 68.2841 109.726 391.666 80.0662 110.234 
391.999 80.678 110.81 391.873 81.16 110.866 391.173 82.1433 110.394 
386.661 86.3105 110.072 383.228 87.0595 110.058 384.701 87.1589 109.89 
324.982 59.1446 111.939 324.764 60.7422 111.507 325.701 62.2325 111.204 
351.407 63.7701 110.419 391.891 79.0178 111.073 392.185 80.7707 111.391 
382.512 86.5012 110.743 384.139 86.9505 110.568 324.636 57.962 113.01 
323.571 59.021 112.847 324.95 62.0542 112.046 390.391 83.1576 111.857 
322.137 57.3568 114.583 321.97 57.8182 114.356 323.062 57.5509 113.974 
322.302 58.0888 114.024 322.27 58.6397 113.916 323.972 61.7601 113.256 
325.555 62.857 112.804 325.645 62.9402 113.294 392.559 78.1829 112.625 
392.78 79.1483 112.482 393.164 79.4071 113.643 378.388 82.2078 113.5 
382.633 85.4841 113.117 324.777 57.1404 113.917 321.588 58.0295 114.562 
322.146 59.6824 114.055 323.209 61.3722 114.156 323.919 61.8617 113.662 
326.917 63.4871 113.657 328.936 64.1158 113.768 319.912 56.393 116.404 
320.114 56.3175 116.392 320.477 57.4399 115.795 321.919 60.3379 114.807 
322.37 61.0661 115.398 324.643 62.2072 115.399 329.461 63.9812 114.47 
391.406 74.7525 114.92 393.73 79.0865 115.362 393.6 79.468 115.3 
392.443 81.1799 114.803 383.835 85.5436 114.433 319.472 56.4225 116.836 
320.657 56.507 116.108 322.573 56.011 115.901 321.352 60.2907 115.855 
323.329 61.5848 116.102 330.235 63.4542 116.045 356.733 71.7287 116.103 
386.949 71.8759 115.215 393.096 76.619 115.139 393.77 79.208 116.387 
385.866 85.3232 115.673 319.056 55.5432 117.854 322.967 55.2124 116.965 
319.083 56.8419 117.147 320.377 60.0299 117.491 320.767 60.0423 116.784 
392.586 74.9601 116.093 393.953 77.5822 117.083 385.658 85.0106 116.923 
317.734 55.3952 118.867 318.479 54.7332 118.891 319.151 54.6431 118.665 
320.01 54.5334 118.487 317.683 55.8317 118.759 317.961 57.171 118.407 
319.084 58.9276 118.104 319.381 59.3685 118.252 320.746 60.2862 118.182 
393.998 77.6047 117.665 393.397 79.5618 117.614 391.212 81.409 117.719 
383.593 84.2013 118.246 384.085 84.6932 117.497 384.621 84.7199 117.85 
317.428 56.3706 118.916 317.047 56.5771 119.384 319.291 59.473 119.464 
388.961 69.6629 119.268 391.499 72.0352 118.344 382.806 83.3733 118.644 
316.162 54.6218 120.644 317.239 53.6559 120.679 318.948 53.4232 120.271 
316.195 56.1865 120.404 316.337 56.8303 120.486 316.683 57.1351 120.186 
317.937 58.4166 119.78 318.736 59.1018 120.08 393.63 75.8654 120.003 
386.367 83.6394 119.764 385.573 84.0259 119.686 384.734 84.2527 119.316 
315.731 55.2423 120.881 315.721 55.7231 120.931 316.228 57.0286 120.931 
316.527 57.4576 121.156 319.24 59.3379 120.394 392.551 71.6277 120.558 
392.984 72.6776 120.15 393.488 74.1996 120.715 392.938 76.6778 121.32 
392.571 77.7784 120.892 384.663 83.8322 120.289 326.705 52.7023 122.124 
314.924 54.303 122.009 316.795 57.8148 121.604 317.724 58.4038 121.865 
333.967 61.1981 122.43 392.778 71.2691 121.712 393.403 74.1957 121.758 
393.146 75.9469 121.605 384.568 83.1481 121.231 385.059 82.9447 121.551 
314.345 52.5936 123.782 313.94 52.8455 124.008 314.667 52.1367 123.988 
314.154 54.3139 123.187 314.671 55.462 122.562 314.746 55.8192 122.781 
391.338 68.9498 122.654 383.009 81.2437 123.109 383.337 81.6514 122.964 
383.723 81.6809 123.216 385.376 82.5895 121.913 393.199 71.5785 122.853 
393.21 71.5331 123.524 392.654 74.7156 123.746 391.612 76.0201 123.705 
383.203 81.006 123.76 314.717 51.273 125.04 313.192 54.7451 125.187 
313.883 55.4213 124.509 313.94 55.7185 125.029 314.765 56.3644 125.318 
392.513 69.4839 123.948 392.976 70.0795 124.637 374.862 72.4653 124.954 
392.911 73.8722 123.99 384.28 81.0415 124.294 312.684 50.7523 127.028 
312.582 53.8014 125.752 313.314 55.2862 125.929 314.016 55.9359 125.967 
391.394 67.481 125.022 391.693 67.4035 125.725 392.878 69.5819 125.306 
[...]
POINT_DATA 1751
COLOR_SCALARS scalars 3
0.0313725 0.521569 0.54902 0.0313725 0.521569 0.54902 0.0313725 0.521569 0.54902 
0.0313725 0.521569 0.54902 0.0313725 0.521569 0.54902 
0.0313725 0.521569 0.54902 0.0313725 0.521569 0.54902 
0.0313725 0.521569 0.54902 0.0313725 0.521569 0.54902 
0.0313725 0.521569 0.54902 0.0313725 0.521569 0.54902 
0.0313725 0.521569 0.54902 0.0313725 0.521569 0.54902 
0.0313725 0.521569 0.54902 0.0313725 0.521569 0.54902 
0.0313725 0.521569 0.54902 0.0313725 0.521569 0.54902 
0.0313725 0.521569 0.54902 0.0313725 0.521569 0.54902 
0.0313725 0.521569 0.54902 0.0313725 0.521569 0.54902 
0.0313725 0.521569 0.54902 0.0313725 0.521569 0.54902 
0.0313725 0.521569 0.54902 0.0313725 0.521569 0.54902 
0.0313725 0.521569 0.54902 0.0313725 0.521569 0.54902 
0.0313725 0.521569 0.54902 0.0313725 0.521569 0.54902 
0.0313725 0.521569 0.54902 0.0313725 0.521569 0.54902 
0.0313725 0.521569 0.54902 0.0313725 0.521569 0.54902 
0.0313725 0.521569 0.54902 0.0313725 0.521569 0.54902 
0.0313725 0.521569 0.54902 0.0313725 0.521569 0.54902 
0.0313725 0.521569 0.54902 0.0313725 0.521569 0.54902 
0.0313725 0.521569 0.54902 0.0313725 0.521569 0.54902 
0.0313725 0.521569 0.54902 0.0313725 0.521569 0.54902 
0.0313725 0.521569 0.54902 0.0313725 0.521569 0.54902 
0.0313725 0.521569 0.54902 0.0313725 0.521569 0.54902 
0.0313725 0.521569 0.54902 0.0313725 0.521569 0.54902 
0.0313725 0.521569 0.54902 0.0313725 0.521569 0.54902 
0.0313725 0.521569 0.54902 0.0313725 0.521569 0.54902 
0.0313725 0.521569 0.54902 0.0313725 0.521569 0.54902 
0.0313725 0.521569 0.54902 0.0313725 0.521569 0.54902 
0.0313725 0.521569 0.54902 0.0313725 0.521569 0.54902 
0.0313725 0.521569 0.54902 0.0313725 0.521569 0.54902 
0.0313725 0.521569 0.54902 0.0313725 0.521569 0.54902 
0.0313725 0.521569 0.54902 0.0313725 0.521569 0.54902 
0.0313725 0.521569 0.54902 0.0313725 0.521569 0.54902 
0.0313725 0.521569 0.54902 0.0313725 0.521569 0.54902 
0.0313725 0.521569 0.54902 0.0313725 0.521569 0.54902 
0.0313725 0.521569 0.54902 0.0313725 0.521569 0.54902 
0.0313725 0.521569 0.54902 0.0313725 0.521569 0.54902 
0.0313725 0.521569 0.54902 0.0313725 0.521569 0.54902 
0.0313725 0.521569 0.54902 0.0313725 0.521569 0.54902 
0.0313725 0.521569 0.54902 0.0313725 0.521569 0.54902 
0.0313725 0.521569 0.54902 0.0313725 0.521569 0.54902 
0.0313725 0.521569 0.54902 0.0313725 0.521569 0.54902 
0.0313725 0.521569 0.54902 0.0313725 0.521569 0.54902 
0.0313725 0.521569 0.54902 0.0313725 0.521569 0.54902 
0.0313725 0.521569 0.54902 0.0313725 0.521569 0.54902 
0.0313725 0.521569 0.54902 0.0313725 0.521569 0.54902 
0.0313725 0.521569 0.54902 0.0313725 0.521569 0.54902 
0.0313725 0.521569 0.54902 0.0313725 0.521569 0.54902 
0.0313725 0.521569 0.54902 0.0313725 0.521569 0.54902 
0.0313725 0.521569 0.54902 0.0313725 0.521569 0.54902 
0.0313725 0.521569 0.54902 0.0313725 0.521569 0.54902 
0.0313725 0.521569 0.54902 0.0313725 0.521569 0.54902 
0.0313725 0.521569 0.54902 0.0313725 0.521569 0.54902 
0.0313725 0.521569 0.54902 0.0313725 0.521569 0.54902 
0.0313725 0.521569 0.54902 0.0313725 0.521569 0.54902 
0.0313725 0.521569 0.54902 0.0313725 0.521569 0.54902 
0.0313725 0.521569 0.54902 0.0313725 0.521569 0.54902 
0.0313725 0.521569 0.54902 0.0313725 0.521569 0.54902 
0.0313725 0.521569 0.54902 0.0313725 0.521569 0.54902 
0.0313725 0.521569 0.54902 0.0313725 0.521569 0.54902 
0.0313725 0.521569 0.54902 0.0313725 0.521569 0.54902 
0.0313725 0.521569 0.54902 0.0313725 0.521569 0.54902 
0.0313725 0.521569 0.54902 0.0313725 0.521569 0.54902 
0.0313725 0.521569 0.54902 0.0313725 0.521569 0.54902 
0.0313725 0.521569 0.54902 0.0313725 0.521569 0.54902 
0.0313725 0.521569 0.54902 0.0313725 0.521569 0.54902 
0.0313725 0.521569 0.54902 0.0313725 0.521569 0.54902 
0.0313725 0.521569 0.54902 0.0313725 0.521569 0.54902 
0.0313725 0.521569 0.54902 0.0313725 0.521569 0.54902 
0.0313725 0.521569 0.54902 0.0313725 0.521569 0.54902 
0.0313725 0.521569 0.54902 0.0313725 0.521569 0.54902 
0.0313725 0.521569 0.54902 0.0313725 0.521569 0.54902 
0.0313725 0.521569 0.54902 0.0313725 0.521569 0.54902 
0.0313725 0.521569 0.54902 0.0313725 0.521569 0.54902 
0.0313725 0.521569 0.54902 0.0313725 0.521569 0.54902 
0.0313725 0.521569 0.54902 0.0313725 0.521569 0.54902 
0.0313725 0.521569 0.54902 0.0313725 0.521569 0.54902 
0.0313725 0.521569 0.54902 0.0313725 0.521569 0.54902 
0.0313725 0.521569 0.54902 0.0313725 0.521569 0.54902 
0.0313725 0.521569 0.54902 0.0313725 0.521569 0.54902 
0.0313725 0.521569 0.54902 0.0313725 0.521569 0.54902 
0.0313725 0.521569 0.54902 0.0313725 0.521569 0.54902 
0.0313725 0.521569 0.54902 0.0313725 0.521569 0.54902 
0.0313725 0.521569 0.54902 0.0313725 0.521569 0.54902 
0.0313725 0.521569 0.54902 0.0313725 0.521569 0.54902 
0.0313725 0.521569 0.54902 0.0313725 0.521569 0.54902 
0.0313725 0.521569 0.54902 0.0313725 0.521569 0.54902 
0.0313725 0.521569 0.54902 0.0313725 0.521569 0.54902 
0.0313725 0.521569 0.54902 0.0313725 0.521569 0.54902 
0.0313725 0.521569 0.54902 0.0313725 0.521569 0.54902 
0.0313725 0.521569 0.54902 0.0313725 0.521569 0.54902 
0.0313725 0.521569 0.54902 0.0313725 0.521569 0.54902 
0.0313725 0.521569 0.54902 0.0313725 0.521569 0.54902 
0.0313725 0.521569 0.54902 0.0313725 0.521569 0.54902 
0.0313725 0.521569 0.54902 0.0313725 0.521569 0.54902 
0.0313725 0.521569 0.54902 0.0313725 0.521569 0.54902 
0.0313725 0.521569 0.54902 0.0313725 0.521569 0.54902 
0.0313725 0.521569 0.54902 0.0313725 0.521569 0.54902 
0.0313725 0.521569 0.54902 0.0313725 0.521569 0.54902 
0.0313725 0.521569 0.54902 0.0313725 0.521569 0.54902 
0.0313725 0.521569 0.54902 0.0313725 0.521569 0.54902 
0.0313725 0.521569 0.54902 0.0313725 0.521569 0.54902 
0.0313725 0.521569 0.54902 0.0313725 0.521569 0.54902 
0.0313725 0.521569 0.54902 0.0313725 0.521569 0.54902 
0.0313725 0.521569 0.54902 0.0313725 0.521569 0.54902 
0.0313725 0.521569 0.54902 0.0313725 0.521569 0.54902 
0.0313725 0.521569 0.54902 0.0313725 0.521569 0.54902 
0.0313725 0.521569 0.54902 0.0313725 0.521569 0.54902 
0.0313725 0.521569 0.54902 0.0313725 0.521569 0.54902 
0.0313725 0.521569 0.54902 0.0313725 0.521569 0.54902 
0.0313725 0.521569 0.54902 0.0313725 0.521569 0.54902 
0.0313725 0.521569 0.54902 0.0313725 0.521569 0.54902 
0.0313725 0.521569 0.54902 0.0313725 0.521569 0.54902 
0.0313725 0.521569 0.54902 0.0313725 0.521569 0.54902 
0.0313725 0.521569 0.54902 0.0313725 0.521569 0.54902 
0.0313725 0.521569 0.54902 0.0313725 0.521569 0.54902 
0.0313725 0.521569 0.54902 0.0313725 0.521569 0.54902 
0.0313725 0.521569 0.54902 0.0313725 0.521569 0.54902 
0.0313725 0.521569 0.54902 0.0313725 0.521569 0.54902 
0.0313725 0.521569 0.54902 0.0313725 0.521569 0.54902 
0.0313725 0.521569 0.54902 0.0313725 0.521569 0.54902 
0.0313725 0.521569 0.54902 0.0313725 0.521569 0.54902 
0.0313725 0.521569 0.54902 0.0313725 0.521569 0.54902 
0.0313725 0.521569 0.54902 0.0313725 0.521569 0.54902 
0.0313725 0.521569 0.54902 0.0313725 0.521569 0.54902 
0.0313725 0.521569 0.54902 0.0313725 0.521569 0.54902 
0.0313725 0.521569 0.54902 0.0313725 0.521569 0.54902 
0.0313725 0.521569 0.54902 0.0313725 0.521569 0.54902 
0.0313725 0.521569 0.54902 0.0313725 0.521569 0.54902 
0.0313725 0.521569 0.54902 0.0313725 0.521569 0.54902 
0.0313725 0.521569 0.54902 0.0313725 0.521569 0.54902 
0.0313725 0.521569 0.54902 0.0313725 0.521569 0.54902 
0.0313725 0.521569 0.54902 0.0313725 0.521569 0.54902 
0.0313725 0.521569 0.54902 0.0313725 0.521569 0.54902 
0.0313725 0.521569 0.54902 0.0313725 0.521569 0.54902 
0.0313725 0.521569 0.54902 0.0313725 0.521569 0.54902 
0.0313725 0.521569 0.54902 0.0313725 0.521569 0.54902 
0.0313725 0.521569 0.54902 0.0313725 0.521569 0.54902 
0.0313725 0.521569 0.54902 0.0313725 0.521569 0.54902 
0.0313725 0.521569 0.54902 0.0313725 0.521569 0.54902 
0.0313725 0.521569 0.54902 0.0313725 0.521569 0.54902 
0.0313725 0.521569 0.54902 0.0313725 0.521569 0.54902 
0.0313725 0.521569 0.54902 0.0313725 0.521569 0.54902 
0.0313725 0.521569 0.54902 0.0313725 0.521569 0.54902 
0.0313725 0.521569 0.54902 0.0313725 0.521569 0.54902 
0.0313725 0.521569 0.54902 0.0313725 0.521569 0.54902 
0.0313725 0.521569 0.54902 0.0313725 0.521569 0.54902 
0.0313725 0.521569 0.54902 0.0313725 0.521569 0.54902 
0.0313725 0.521569 0.54902 0.0313725 0.521569 0.54902 
0.0313725 0.521569 0.54902 0.0313725 0.521569 0.54902 
0.0313725 0.521569 0.54902 0.0313725 0.521569 0.54902 
0.0313725 0.521569 0.54902 0.0313725 0.521569 0.54902 
0.0313725 0.521569 0.54902 0.0313725 0.521569 0.54902 
0.0313725 0.521569 0.54902 0.0313725 0.521569 0.54902 
0.0313725 0.521569 0.54902 0.0313725 0.521569 0.54902 
0.0313725 0.521569 0.54902 0.0313725 0.521569 0.54902 
0.0313725 0.521569 0.54902 0.0313725 0.521569 0.54902 
0.0313725 0.521569 0.54902 0.0313725 0.521569 0.54902 
0.0313725 0.521569 0.54902 0.0313725 0.521569 0.54902 
0.0313725 0.521569 0.54902 0.0313725 0.521569 0.54902 
0.0313725 0.521569 0.54902 0.0313725 0.521569 0.54902 
0.0313725 0.521569 0.54902 0.0313725 0.521569 0.54902 
0.0313725 0.521569 0.54902 0.0313725 0.521569 0.54902 
0.0313725 0.521569 0.54902 0.0313725 0.521569 0.54902 
0.0313725 0.521569 0.54902 0.0313725 0.521569 0.54902 
0.0313725 0.521569 0.54902 0.0313725 0.521569 0.54902 
0.0313725 0.521569 0.54902 0.0313725 0.521569 0.54902 
0.0313725 0.521569 0.54902 0.0313725 0.521569 0.54902 
0.0313725 0.521569 0.54902 0.0313725 0.521569 0.54902 
0.0313725 0.521569 0.54902 0.0313725 0.521569 0.54902 
0.0313725 0.521569 0.54902 0.0313725 0.521569 0.54902 
0.0313725 0.521569 0.54902 0.0313725 0.521569 0.54902 
0.0313725 0.521569 0.54902 0.0313725 0.521569 0.54902 
0.0313725 0.521569 0.54902 0.0313725 0.521569 0.54902 
0.0313725 0.521569 0.54902 0.0313725 0.521569 0.54902 
0.0313725 0.521569 0.54902 0.0313725 0.521569 0.54902 
0.0313725 0.521569 0.54902 0.0313725 0.521569 0.54902 
0.0313725 0.521569 0.54902 0.0313725 0.521569 0.54902 
0.0313725 0.521569 0.54902 0.0313725 0.521569 0.54902 
0.0313725 0.521569 0.54902 0.0313725 0.521569 0.54902 
0.0313725 0.521569 0.54902 0.0313725 0.521569 0.54902 
0.0313725 0.521569 0.54902 0.0313725 0.521569 0.54902 
0.0313725 0.521569 0.54902 0.0313725 0.521569 0.54902 
0.0313725 0.521569 0.54902 0.0313725 0.521569 0.54902 
0.0313725 0.521569 0.54902 0.0313725 0.521569 0.54902 
0.0313725 0.521569 0.54902 0.0313725 0.521569 0.54902 
0.0313725 0.521569 0.54902 0.0313725 0.521569 0.54902 
0.0313725 0.521569 0.54902 0.0313725 0.521569 0.54902 
0.0313725 0.521569 0.54902 0.0313725 0.521569 0.54902 
0.0313725 0.521569 0.54902 0.0313725 0.521569 0.54902 
0.0313725 0.521569 0.54902 0.0313725 0.521569 0.54902 
0.0313725 0.521569 0.54902 0.0313725 0.521569 0.54902 
0.0313725 0.521569 0.54902 0.0313725 0.521569 0.54902 
0.0313725 0.521569 0.54902 0.0313725 0.521569 0.54902 
0.0313725 0.521569 0.54902 0.0313725 0.521569 0.54902 
0.0313725 0.521569 0.54902 0.0313725 0.521569 0.54902 
0.0313725 0.521569 0.54902 0.0313725 0.521569 0.54902 
0.0313725 0.521569 0.54902 0.0313725 0.521569 0.54902 
0.0313725 0.521569 0.54902 0.0313725 0.521569 0.54902 
0.0313725 0.521569 0.54902 0.0313725 0.521569 0.54902 
0.0313725 0.521569 0.54902 0.0313725 0.521569 0.54902 
0.0313725 0.521569 0.54902 0.0313725 0.521569 0.54902 
0.0313725 0.521569 0.54902 0.0313725 0.521569 0.54902 
0.0313725 0.521569 0.54902 0.0313725 0.521569 0.54902 
0.0313725 0.521569 0.54902 0.0313725 0.521569 0.54902 
0.0313725 0.521569 0.54902 0.0313725 0.521569 0.54902 
0.0313725 0.521569 0.54902 0.0313725 0.521569 0.54902 
0.0313725 0.521569 0.54902 0.0313725 0.521569 0.54902 
0.0313725 0.521569 0.54902 0.0313725 0.521569 0.54902 
0.0313725 0.521569 0.54902 0.0313725 0.521569 0.54902 
0.0313725 0.521569 0.54902 0.0313725 0.521569 0.54902 
0.0313725 0.521569 0.54902 0.0313725 0.521569 0.54902 
0.0313725 0.521569 0.54902 0.0313725 0.521569 0.54902 
0.0313725 0.521569 0.54902 0.0313725 0.521569 0.54902 
0.0313725 0.521569 0.54902 0.0313725 0.521569 0.54902 
0.0313725 0.521569 0.54902 0.0313725 0.521569 0.54902 
0.0313725 0.521569 0.54902 0.0313725 0.521569 0.54902 
0.0313725 0.521569 0.54902 0.0313725 0.521569 0.54902 
0.0313725 0.521569 0.54902 0.0313725 0.521569 0.54902 
0.0313725 0.521569 0.54902 0.0313725 0.521569 0.54902 
0.0313725 0.521569 0.54902 0.0313725 0.521569 0.54902 
0.0313725 0.521569 0.54902 0.0313725 0.521569 0.54902 
0.0313725 0.521569 0.54902 0.0313725 0.521569 0.54902 
0.0313725 0.521569 0.54902 0.0313725 0.521569 0.54902 
0.0313725 0.521569 0.54902 0.0313725 0.521569 0.54902 
0.0313725 0.521569 0.54902 0.0313725 0.521569 0.54902 
0.0313725 0.521569 0.54902 0.0313725 0.521569 0.54902 
0.0313725 0.521569 0.54902 0.0313725 0.521569 0.54902 
0.0313725 0.521569 0.54902 0.0313725 0.521569 0.54902 
0.0313725 0.521569 0.54902 0.0313725 0.521569 0.54902 
0.0313725 0.521569 0.54902 0.0313725 0.521569 0.54902 
0.0313725 0.521569 0.54902 0.0313725 0.521569 0.54902 
0.0313725 0.521569 0.54902 0.0313725 0.521569 0.54902 
0.0313725 0.521569 0.54902 0.0313725 0.521569 0.54902 
0.0313725 0.521569 0.54902 0.0313725 0.521569 0.54902 
0.0313725 0.521569 0.54902 0.0313725 0.521569 0.54902 
0.0313725 0.521569 0.54902 0.0313725 0.521569 0.54902 
0.0313725 0.521569 0.54902 0.0313725 0.521569 0.54902 
0.0313725 0.521569 0.54902 0.0313725 0.521569 0.54902 
0.0313725 0.521569 0.54902 0.0313725 0.521569 0.54902 
0.0313725 0.521569 0.54902 0.0313725 0.521569 0.54902 
0.0313725 0.521569 0.54902 0.0313725 0.521569 0.54902 
0.0313725 0.521569 0.54902 0.0313725 0.521569 0.54902 
0.0313725 0.521569 0.54902 0.0313725 0.521569 0.54902 
0.0313725 0.521569 0.54902 0.0313725 0.521569 0.54902 
0.0313725 0.521569 0.54902 0.0313725 0.521569 0.54902 
0.0313725 0.521569 0.54902 0.0313725 0.521569 0.54902 
0.0313725 0.521569 0.54902 0.0313725 0.521569 0.54902 
0.0313725 0.521569 0.54902 0.0313725 0.521569 0.54902 
0.0313725 0.521569 0.54902 0.0313725 0.521569 0.54902 
0.0313725 0.521569 0.54902 0.0313725 0.521569 0.54902 
0.0313725 0.521569 0.54902 0.0313725 0.521569 0.54902 
0.0313725 0.521569 0.54902 0.0313725 0.521569 0.54902 
0.0313725 0.521569 0.54902 0.0313725 0.521569 0.54902 
0.0313725 0.521569 0.54902 0.0313725 0.521569 0.54902 
0.0313725 0.521569 0.54902 0.0313725 0.521569 0.54902 
0.0313725 0.521569 0.54902 0.0313725 0.521569 0.54902 
0.0313725 0.521569 0.54902 0.0313725 0.521569 0.54902 
0.0313725 0.521569 0.54902 0.0313725 0.521569 0.54902 
0.0313725 0.521569 0.54902 0.0313725 0.521569 0.54902 
0.0313725 0.521569 0.54902 0.0313725 0.521569 0.54902 
0.0313725 0.521569 0.54902 0.0313725 0.521569 0.54902 
0.0313725 0.521569 0.54902 0.0313725 0.521569 0.54902 
0.0313725 0.521569 0.54902 0.0313725 0.521569 0.54902 
0.0313725 0.521569 0.54902 0.0313725 0.521569 0.54902 
0.0313725 0.521569 0.54902 0.0313725 0.521569 0.54902 
0.0313725 0.521569 0.54902 0.0313725 0.521569 0.54902 
0.0313725 0.521569 0.54902 0.0313725 0.521569 0.54902 
0.0313725 0.521569 0.54902 0.0313725 0.521569 0.54902 
0.0313725 0.521569 0.54902 0.0313725 0.521569 0.54902 
0.0313725 0.521569 0.54902 0.0313725 0.521569 0.54902 
0.0313725 0.521569 0.54902 0.0313725 0.521569 0.54902 
0.0313725 0.521569 0.54902 0.0313725 0.521569 0.54902 
0.0313725 0.521569 0.54902 0.0313725 0.521569 0.54902 
0.0313725 0.521569 0.54902 0.0313725 0.521569 0.54902 
0.0313725 0.521569 0.54902 0.0313725 0.521569 0.54902 
0.0313725 0.521569 0.54902 0.0313725 0.521569 0.54902 
0.0313725 0.521569 0.54902 0.0313725 0.521569 0.54902 
0.0313725 0.521569 0.54902 0.0313725 0.521569 0.54902 
0.0313725 0.521569 0.54902 0.0313725 0.521569 0.54902 
0.0313725 0.521569 0.54902 0.0313725 0.521569 0.54902 
0.0313725 0.521569 0.54902 0.0313725 0.521569 0.54902 
0.0313725 0.521569 0.54902 0.0313725 0.521569 0.54902 
0.0313725 0.521569 0.54902 0.0313725 0.521569 0.54902 
0.0313725 0.521569 0.54902 0.0313725 0.521569 0.54902 
0.0313725 0.521569 0.54902 0.0313725 0.521569 0.54902 
0.0313725 0.521569 0.54902 0.0313725 0.521569 0.54902 
0.0313725 0.521569 0.54902 0.0313725 0.521569 0.54902 
0.0313725 0.521569 0.54902 0.0313725 0.521569 0.54902 
0.0313725 0.521569 0.54902 0.0313725 0.521569 0.54902 
0.0313725 0.521569 0.54902 0.0313725 0.521569 0.54902 
0.0313725 0.521569 0.54902 0.0313725 0.521569 0.54902 
0.0313725 0.521569 0.54902 0.0313725 0.521569 0.54902 
0.0313725 0.521569 0.54902 0.0313725 0.521569 0.54902 
0.0313725 0.521569 0.54902 0.0313725 0.521569 0.54902 
0.0313725 0.521569 0.54902 0.0313725 0.521569 0.54902 
0.0313725 0.521569 0.54902 0.0313725 0.521569 0.54902 
0.0313725 0.521569 0.54902 0.0313725 0.521569 0.54902 
0.0313725 0.521569 0.54902 0.0313725 0.521569 0.54902 
0.0313725 0.521569 0.54902 0.0313725 0.521569 0.54902 
0.0313725 0.521569 0.54902 0.0313725 0.521569 0.54902 
0.0313725 0.521569 0.54902 0.0313725 0.521569 0.54902 
0.0313725 0.521569 0.54902 0.0313725 0.521569 0.54902 
0.0313725 0.521569 0.54902 0.0313725 0.521569 0.54902 
0.0313725 0.521569 0.54902 0.0313725 0.521569 0.54902 
0.0313725 0.521569 0.54902 0.0313725 0.521569 0.54902 
0.0313725 0.521569 0.54902 0.0313725 0.521569 0.54902 
0.0313725 0.521569 0.54902 0.0313725 0.521569 0.54902 
0.0313725 0.521569 0.54902 0.0313725 0.521569 0.54902 
0.0313725 0.521569 0.54902 0.0313725 0.521569 0.54902 
0.0313725 0.521569 0.54902 0.0313725 0.521569 0.54902 
0.0313725 0.521569 0.54902 0.0313725 0.521569 0.54902 
0.0313725 0.521569 0.54902 0.0313725 0.521569 0.54902 
0.0313725 0.521569 0.54902 0.0313725 0.521569 0.54902 
0.0313725 0.521569 0.54902 0.0313725 0.521569 0.54902 
0.0313725 0.521569 0.54902 0.0313725 0.521569 0.54902 
0.0313725 0.521569 0.54902 0.0313725 0.521569 0.54902 
0.0313725 0.521569 0.54902 0.0313725 0.521569 0.54902 
0.0313725 0.521569 0.54902 0.0313725 0.521569 0.54902 
0.0313725 0.521569 0.54902 0.0313725 0.521569 0.54902 
0.0313725 0.521569 0.54902 0.0313725 0.521569 0.54902 
0.0313725 0.521569 0.54902 0.0313725 0.521569 0.54902 
0.0313725 0.521569 0.54902 0.0313725 0.521569 0.54902 
0.0313725 0.521569 0.54902 0.0313725 0.521569 0.54902 
0.0313725 0.521569 0.54902 0.0313725 0.521569 0.54902 
0.0313725 0.521569 0.54902 0.0313725 0.521569 0.54902 
0.0313725 0.521569 0.54902 0.0313725 0.521569 0.54902 
0.0313725 0.521569 0.54902 0.0313725 0.521569 0.54902 
0.0313725 0.521569 0.54902 0.0313725 0.521569 0.54902 
0.0313725 0.521569 0.54902 0.0313725 0.521569 0.54902 
0.0313725 0.521569 0.54902 0.0313725 0.521569 0.54902 
0.0313725 0.521569 0.54902 0.0313725 0.521569 0.54902 
0.0313725 0.521569 0.54902 0.0313725 0.521569 0.54902 
0.0313725 0.521569 0.54902 0.0313725 0.521569 0.54902 
0.0313725 0.521569 0.54902 0.0313725 0.521569 0.54902 
0.0313725 0.521569 0.54902 0.0313725 0.521569 0.54902 
0.0313725 0.521569 0.54902 0.0313725 0.521569 0.54902 
0.0313725 0.521569 0.54902 0.0313725 0.521569 0.54902 
0.0313725 0.521569 0.54902 0.0313725 0.521569 0.54902 
0.0313725 0.521569 0.54902 0.0313725 0.521569 0.54902 
0.0313725 0.521569 0.54902 0.0313725 0.521569 0.54902 
0.0313725 0.521569 0.54902 0.0313725 0.521569 0.54902 
0.0313725 0.521569 0.54902 0.0313725 0.521569 0.54902 
0.0313725 0.521569 0.54902 0.0313725 0.521569 0.54902 
0.0313725 0.521569 0.54902 0.0313725 0.521569 0.54902 
0.0313725 0.521569 0.54902 0.0313725 0.521569 0.54902 
0.0313725 0.521569 0.54902 0.0313725 0.521569 0.54902 
0.0313725 0.521569 0.54902 0.0313725 0.521569 0.54902 
0.0313725 0.521569 0.54902 0.0313725 0.521569 0.54902 
0.0313725 0.521569 0.54902 0.0313725 0.521569 0.54902 
0.0313725 0.521569 0.54902 0.0313725 0.521569 0.54902 
0.0313725 0.521569 0.54902 0.0313725 0.521569 0.54902 
0.0313725 0.521569 0.54902 0.0313725 0.521569 0.54902 
0.0313725 0.521569 0.54902 0.0313725 0.521569 0.54902 
0.0313725 0.521569 0.54902 0.0313725 0.521569 0.54902 
0.0313725 0.521569 0.54902 0.0313725 0.521569 0.54902 
0.0313725 0.521569 0.54902 0.0313725 0.521569 0.54902 
0.0313725 0.521569 0.54902 0.0313725 0.521569 0.54902 
0.0313725 0.521569 0.54902 0.0313725 0.521569 0.54902 
0.0313725 0.521569 0.54902 0.0313725 0.521569 0.54902 
0.0313725 0.521569 0.54902 0.0313725 0.521569 0.54902 
0.0313725 0.521569 0.54902 0.0313725 0.521569 0.54902 