# vtk DataFile Version 4.2
vtk output
ASCII
DATASET POLYDATA
POINTS 897 float
392.649 92.9757 79.2779 393.401 93.7872 79.0441 393.245 93.8968 79.0401 
393.418 93.9159 78.9935 393.511 94.0949 78.9953 394.974 95.5086 78.8256 
395.325 94.8338 79.0982 393.996 95.8842 78.7802 397.807 97.9355 78.7712 
397.047 99.4904 78.5877 398.751 99.9633 78.9903 399.515 99.6502 79.4016 
398.145 100.958 79.0548 398.742 100.582 79.07 399.166 100.601 79.3753 
399.52 100.39 79.6284 398.425 101.119 79.1292 398.673 100.978 79.1046 
398.827 100.971 79.3613 398.571 101.078 79.0742 388.746 90.0195 80.2895 
393.428 93.453 79.255 392.533 93.6522 79.1742 394.129 94.2793 79.082 
393.257 94.5016 78.9964 392.851 97.5235 79.1088 399.798 99.4739 79.6624 
400.027 99.5775 80.0373 397.243 100.318 78.8022 395.782 101.265 79.4601 
395.439 101.556 79.7219 399.618 100.538 79.8702 396.629 101.701 79.6807 
398.197 101.3 79.4937 398.566 101.126 79.1966 397.429 101.821 79.9186 
386.33 88.5908 81.5314 386.098 88.9978 81.4396 386.452 89.4346 81.061 
386.955 88.7088 81.2086 388.25 89.3799 80.6961 386.418 90.3968 80.8351 
388.687 90.7494 80.1744 389.731 95.0652 79.877 399.914 100.371 80.9208 
400.409 99.6922 81.2054 399.325 101.066 80.4048 394.004 102.286 80.5198 
396.329 101.973 79.9651 393.479 102.857 81.2012 396.516 102.272 80.3974 
388.04 87.9098 81.8186 385.116 91.3411 81.5909 389.469 98.243 80.9351 
400.763 97.0942 81.4384 391.341 102.527 81.5893 396.971 102.42 81.3017 
391.59 102.831 81.7683 392.577 103.155 81.9488 394.04 103.128 81.7445 
385.744 88.16 82.4684 385.906 87.8189 82.7647 384.709 89.0937 82.9135 
383.932 90.235 83.0698 383.601 91.1413 83.0691 388.112 98.4473 81.924 
401.074 98.6107 82.6263 400.756 99.3353 82.3238 400.549 99.6851 82.4915 
389.93 101.651 81.8838 398.548 101.514 82.0845 389.571 102.565 82.6607 
389.703 102.802 82.7631 395.236 102.978 81.8344 390.023 103.083 82.9013 
387.436 86.6426 83.7549 385.423 87.8282 83.4935 399.504 93.4818 82.7769 
400.684 94.5849 83.2106 387.291 98.9413 82.9393 400.5 99.7286 82.9254 
400.25 99.9315 83.2326 388.69 101.582 82.9888 388.829 102.489 83.6629 
395.912 102.654 83.0733 388.954 102.755 83.5371 389.023 102.835 83.4859 
394.353 103.213 82.7922 389.537 103.128 83.5175 389.903 103.449 83.5831 
390.35 103.469 83.1588 390.715 103.563 83.2061 390.159 103.571 83.4571 
385.693 87.4774 83.8449 382.69 91.6471 84.2775 382.597 92.0295 84.1321 
382.462 92.0134 84.3703 382.446 92.0879 84.29 382.491 92.2185 84.2972 
382.638 92.5936 84.2342 401.47 96.1192 83.2998 401.437 95.5529 83.5715 
386.451 98.7557 84.0199 387.462 99.9368 83.4941 387.049 99.7375 84.2057 
397.116 101.973 83.6451 388.166 101.538 84.3214 388.598 102.16 84.1391 
389.079 102.857 83.6436 394.25 103.13 83.6022 390.086 103.566 83.6928 
390.251 103.569 83.8576 390.708 103.635 83.5254 390.345 103.643 83.6227 
388.298 85.7135 85.3043 385.201 87.5461 84.8737 382.553 91.4597 84.9548 
382.405 92.1271 84.4258 382.392 92.2235 84.8051 382.286 93.5046 85.3131 
401.755 97.759 85.7742 386.861 99.6522 85.0653 397.943 101.194 84.5737 
387.937 101.254 84.6264 389.44 102.834 84.5351 393.024 103.102 84.6106 
390.488 103.428 84.1975 387.518 85.5698 86.5075 390.024 85.3599 85.9025 
385.958 86.6193 86.3916 381.947 93.3313 86.2858 382.059 93.7675 86.0096 
381.944 93.6668 86.1897 382.002 93.8217 86.171 382.23 94.1012 86.194 
382.622 94.6722 85.8462 383.725 96.1247 86.2539 391.759 102.911 85.273 
382.386 91.4663 86.7156 381.975 92.7039 86.7408 381.837 93.0693 86.7321 
381.843 92.9794 86.9059 381.799 93.0906 86.8655 381.99 93.7332 86.3003 
381.902 93.2465 86.8434 382.09 93.7262 86.6668 402.743 94.8705 87.2963 
385.343 97.5872 86.5292 402.04 97.2266 87.9219 390.23 102.442 85.5046 
392.611 101.766 86.8206 391.109 102.811 85.3258 389.025 84.2754 88.7356 
381.842 93.0708 86.9603 382.042 92.9703 87.2038 389.895 100.773 87.327 
397.829 86.7807 88.9949 385.475 86.9427 89.2481 401.066 90.2732 88.2915 
382.777 91.1532 88.3914 382.476 92.5771 87.951 403.091 92.9971 89.0761 
390.361 83.1141 90.7559 388.001 84.4787 90.3959 382.963 91.153 88.9228 
383.167 91.4357 89.277 383.044 91.8838 89.022 402.902 92.3255 89.1795 
385.019 93.6283 90.0329 403.788 93.688 90.5318 403.76 95.0137 91.0048 
402.467 96.7248 91.1391 391.844 82.1638 92.1781 392.317 82.4059 91.5561 
387.457 84.8661 90.7859 383.709 90.0485 89.9281 383.943 92.0259 90.0336 
384.809 92.1543 90.789 404.039 94.815 91.6604 391.904 81.9749 92.6695 
391.758 81.9234 93.1219 392.212 81.8328 93.0361 390.776 82.4591 92.2755 
393.159 81.9422 92.7412 384.53 89.1861 91.148 384.963 90.9473 91.5147 
403.803 92.2761 91.2689 401.684 97.1661 92.245 403.451 95.8942 92.7745 
400.038 97.8 92.3768 395.711 98.7043 91.4693 393.128 81.7185 93.2913 
387.534 84.6774 93.009 384.856 89.225 91.7734 404.53 93.9327 93.0881 
404.401 94.3217 92.7581 404.505 94.2057 93.4309 393.066 81.5178 94.5558 
387.192 85.1382 93.8343 386.55 86.2019 93.9026 404.499 91.8041 93.9694 
400.086 97.4463 94.0897 387.604 85.0052 95.4053 386.2 87.6959 94.2075 
386.275 89.0256 93.9744 386.854 89.3604 94.4794 387.327 88.9545 95.2865 
387.779 89.9592 94.9292 404.612 94.2069 95.2331 397.193 97.2286 94.8298 
397.611 97.6443 94.0114 386.827 86.358 95.337 386.896 86.4581 95.6029 
386.896 88.0162 95.2985 404.867 93.4986 96.1298 395.522 96.2834 95.303 
398.599 81.7647 97.1962 387.541 85.7235 97.0518 386.987 86.6655 95.7846 
401.95 96.4895 97.5558 387.672 85.721 97.3361 387.563 85.8594 97.2353 
402.596 96.1653 98.3226 398.59 81.1424 98.5451 401.733 83.8699 97.9697 
404.947 93.5051 98.9905 397.767 80.3435 100.246 397.746 80.172 100.912 
390.086 87.1644 99.6619 397.076 80.2402 100.914 396.298 80.393 101.126 
390.815 83.9771 100.491 394.629 91.4958 100.77 396.469 93.7727 101.52 
397.573 95.0306 101.203 398.939 79.7291 102.514 390.58 85.4204 101.043 
404.412 94.2642 101.785 397.964 94.9514 102.403 398.575 95.4043 102.199 
399.323 95.7691 101.908 400.514 95.78 102.621 399.515 79.6613 103 
400.867 80.4413 102.849 395.074 80.7833 102.452 394.752 80.9624 102.934 
398.924 95.2956 103.233 403.655 94.8719 102.934 403.811 94.9434 102.208 
398.413 79.3413 104.531 399.583 79.3223 104.308 393.579 81.8951 103.52 
391.911 83.9329 102.963 396.965 93.4886 104.93 404.508 93.6259 103.782 
404.113 94.2826 103.52 398.096 94.5755 104.921 400.336 95.4488 104.371 
399.64 79.1594 104.696 399.642 79.1233 104.837 399.756 79.1929 104.876 
399.172 79.2091 104.997 396.178 80.061 104.846 397.236 79.5881 104.905 
392.763 83.1828 104.297 401.697 95.2256 105.116 399.596 79.1435 105.011 
399.824 79.2198 105.576 393.205 82.8311 105.153 405.041 91.2123 105.638 
404.455 93.2582 105.404 402.276 94.8936 105.975 401.563 79.9933 106.595 
394.163 86.0683 106.42 403.924 93.3652 106.85 400.576 79.1686 107.443 
400.688 79.2499 107.553 398.316 79.2329 107.963 394.072 84.9842 107.097 
401.971 94.7644 107.605 400.478 79.1838 107.595 400.647 79.3457 108.12 
394.276 83.9178 108.175 395.946 91.3407 109.238 402.748 94.1615 108.715 
399.113 79.2391 110.071 401.207 79.6503 108.909 395.075 81.607 109.323 
402.714 81.0308 109.299 397.359 93.9629 110.847 403.128 93.6205 109.64 
398.578 79.3101 110.31 400.463 79.4171 110.41 403.883 91.8678 110.786 
395.286 82.5484 111.385 402.045 93.9156 111.959 400.424 79.4495 112.622 
397.426 80.0578 114.161 396.743 93.2994 114.3 397.747 94.2725 114.802 
398.267 94.6129 114.449 400.137 94.8043 114.088 395.307 84.2212 114.778 
399.297 94.9522 114.799 399.977 79.3848 116.079 399.375 79.3513 115.586 
400.69 79.5621 115.837 397.326 80.0989 116.156 396.49 80.92 115.576 
396.08 81.6047 115.312 395.449 83.3535 115.656 395.31 88.0076 116.093 
396.204 91.5407 116.563 400.955 94.5345 116.021 401.652 80.1898 116.551 
396.775 80.5627 116.085 398.106 79.6471 116.644 395.247 84.3013 116.75 
402.031 92.7556 117.067 401.241 94.2708 117.387 401.46 93.8896 117.604 
399.416 95.0401 116.506 400.892 94.6266 117.409 397.286 79.9792 117.922 
401.974 80.6963 117.679 397.434 93.2617 117.892 401.447 93.6715 118.098 
400.05 95.1452 117.949 400.201 95.1871 117.847 400.353 95.1213 117.895 
402.669 88.1472 118.888 399.561 94.807 118.322 400.575 94.6878 118.348 
400.241 95.114 118.077 400.422 94.9996 118.108 398.45 79.2901 120.341 
399.753 79.3529 119.75 400.385 79.5509 119.296 397.172 79.8027 119.801 
395.582 81.889 119.414 401.853 91.2075 119.461 397.539 92.0824 119.315 
398.457 93.5189 119.165 400.362 94.6549 118.652 397.319 79.5642 120.732 
399.116 79.2442 120.944 400.881 79.8858 119.734 396.05 80.6821 120.362 
395.893 80.7317 121.072 395.72 81.2565 120.29 401.514 89.9865 120.762 
399.103 92.0007 120.724 401.061 91.7847 120.203 399.464 92.3065 120.702 
398.976 93.6488 119.632 400.367 93.9915 119.27 396.683 79.8326 121.588 
400.151 79.5394 120.939 401.263 80.4982 120.941 395.452 81.419 121.982 
402.019 82.73 121.397 401.48 88.0149 121.713 397.06 88.0697 121.816 
399.34 92.9145 120.492 399.957 92.3215 120.631 399.119 93.2432 120.163 
399.32 93.3722 120.203 399.631 93.4475 120.131 399.443 93.5097 120.093 
397.673 79.3058 123.055 401.461 81.2727 121.974 395.298 82.9084 123.035 
401.371 86.2426 122.647 398.851 89.1541 122.198 400.345 90.6532 121.387 
399.494 93.0453 120.455 401.203 84.378 123.603 396.822 85.695 124.136 
397.827 87.0547 123.489 400.665 87.3524 122.927 398.667 79.3536 124.242 
395.759 80.6502 124.4 395.903 83.6946 124.68 396.409 84.8385 124.569 
400.285 84.7355 124.689 399.991 85.5859 124.459 400.191 86.677 123.634 
398.981 87.4074 123.511 396.217 79.9128 125.211 399.093 79.549 124.65 
399.69 79.8872 124.526 395.817 80.8184 125.162 400.416 80.9396 124.955 
400.488 81.3537 125.162 400.239 81.4394 125.625 400.279 82.2483 125.568 
396.181 80.0757 126.017 397.319 79.5489 126.391 399.739 80.1228 125.207 
396.08 80.5399 126.036 400.011 80.5433 125.404 399.818 80.7885 126.01 
397.037 82.2793 126.67 399.671 82.2974 126.261 396.257 83.2647 125.512 
399.615 83.2826 125.951 398.326 83.3403 126.435 398.313 83.8604 126.115 
399.507 84.0834 125.673 398.934 84.5463 125.666 396.429 79.9023 126.638 
[...]
POINT_DATA 897
COLOR_SCALARS scalars 3
0.0313725 0.521569 0.54902 0.0313725 0.521569 0.54902 0.0313725 0.521569 0.54902 
0.0313725 0.521569 0.54902 0.0313725 0.521569 0.54902 
0.0313725 0.521569 0.54902 0.0313725 0.521569 0.54902 
0.0313725 0.521569 0.54902 0.0313725 0.521569 0.54902 
0.0313725 0.521569 0.54902 0.0313725 0.521569 0.54902 
0.0313725 0.521569 0.54902 0.0313725 0.521569 0.54902 
0.0313725 0.521569 0.54902 0.0313725 0.521569 0.54902 
0.0313725 0.521569 0.54902 0.0313725 0.521569 0.54902 
0.0313725 0.521569 0.54902 0.0313725 0.521569 0.54902 
0.0313725 0.521569 0.54902 0.0313725 0.521569 0.54902 
0.0313725 0.521569 0.54902 0.0313725 0.521569 0.54902 
0.0313725 0.521569 0.54902 0.0313725 0.521569 0.54902 
0.0313725 0.521569 0.54902 0.0313725 0.521569 0.54902 
0.0313725 0.521569 0.54902 0.0313725 0.521569 0.54902 
0.0313725 0.521569 0.54902 0.0313725 0.521569 0.54902 
0.0313725 0.521569 0.54902 0.0313725 0.521569 0.54902 
0.0313725 0.521569 0.54902 0.0313725 0.521569 0.54902 
0.0313725 0.521569 0.54902 0.0313725 0.521569 0.54902 
0.0313725 0.521569 0.54902 0.0313725 0.521569 0.54902 
0.0313725 0.521569 0.54902 0.0313725 0.521569 0.54902 
0.0313725 0.521569 0.54902 0.0313725 0.521569 0.54902 
0.0313725 0.521569 0.54902 0.0313725 0.521569 0.54902 
0.0313725 0.521569 0.54902 0.0313725 0.521569 0.54902 
0.0313725 0.521569 0.54902 0.0313725 0.521569 0.54902 
0.0313725 0.521569 0.54902 0.0313725 0.521569 0.54902 
0.0313725 0.521569 0.54902 0.0313725 0.521569 0.54902 
0.0313725 0.521569 0.54902 0.0313725 0.521569 0.54902 
0.0313725 0.521569 0.54902 0.0313725 0.521569 0.54902 
0.0313725 0.521569 0.54902 0.0313725 0.521569 0.54902 
0.0313725 0.521569 0.54902 0.0313725 0.521569 0.54902 
0.0313725 0.521569 0.54902 0.0313725 0.521569 0.54902 
0.0313725 0.521569 0.54902 0.0313725 0.521569 0.54902 
0.0313725 0.521569 0.54902 0.0313725 0.521569 0.54902 
0.0313725 0.521569 0.54902 0.0313725 0.521569 0.54902 
0.0313725 0.521569 0.54902 0.0313725 0.521569 0.54902 
0.0313725 0.521569 0.54902 0.0313725 0.521569 0.54902 
0.0313725 0.521569 0.54902 0.0313725 0.521569 0.54902 
0.0313725 0.521569 0.54902 0.0313725 0.521569 0.54902 
0.0313725 0.521569 0.54902 0.0313725 0.521569 0.54902 
0.0313725 0.521569 0.54902 0.0313725 0.521569 0.54902 
0.0313725 0.521569 0.54902 0.0313725 0.521569 0.54902 
0.0313725 0.521569 0.54902 0.0313725 0.521569 0.54902 
0.0313725 0.521569 0.54902 0.0313725 0.521569 0.54902 
0.0313725 0.521569 0.54902 0.0313725 0.521569 0.54902 
0.0313725 0.521569 0.54902 0.0313725 0.521569 0.54902 
0.0313725 0.521569 0.54902 0.0313725 0.521569 0.54902 
0.0313725 0.521569 0.54902 0.0313725 0.521569 0.54902 
0.0313725 0.521569 0.54902 0.0313725 0.521569 0.54902 
0.0313725 0.521569 0.54902 0.0313725 0.521569 0.54902 
0.0313725 0.521569 0.54902 0.0313725 0.521569 0.54902 
0.0313725 0.521569 0.54902 0.0313725 0.521569 0.54902 
0.0313725 0.521569 0.54902 0.0313725 0.521569 0.54902 
0.0313725 0.521569 0.54902 0.0313725 0.521569 0.54902 
0.0313725 0.521569 0.54902 0.0313725 0.521569 0.54902 
0.0313725 0.521569 0.54902 0.0313725 0.521569 0.54902 
0.0313725 0.521569 0.54902 0.0313725 0.521569 0.54902 
0.0313725 0.521569 0.54902 0.0313725 0.521569 0.54902 
0.0313725 0.521569 0.54902 0.0313725 0.521569 0.54902 
0.0313725 0.521569 0.54902 0.0313725 0.521569 0.54902 
0.0313725 0.521569 0.54902 0.0313725 0.521569 0.54902 
0.0313725 0.521569 0.54902 0.0313725 0.521569 0.54902 
0.0313725 0.521569 0.54902 0.0313725 0.521569 0.54902 
0.0313725 0.521569 0.54902 0.0313725 0.521569 0.54902 
0.0313725 0.521569 0.54902 0.0313725 0.521569 0.54902 
0.0313725 0.521569 0.54902 0.0313725 0.521569 0.54902 
0.0313725 0.521569 0.54902 0.0313725 0.521569 0.54902 
0.0313725 0.521569 0.54902 0.0313725 0.521569 0.54902 
0.0313725 0.521569 0.54902 0.0313725 0.521569 0.54902 
0.0313725 0.521569 0.54902 0.0313725 0.521569 0.54902 
0.0313725 0.521569 0.54902 0.0313725 0.521569 0.54902 
0.0313725 0.521569 0.54902 0.0313725 0.521569 0.54902 
0.0313725 0.521569 0.54902 0.0313725 0.521569 0.54902 
0.0313725 0.521569 0.54902 0.0313725 0.521569 0.54902 
0.0313725 0.521569 0.54902 0.0313725 0.521569 0.54902 
0.0313725 0.521569 0.54902 0.0313725 0.521569 0.54902 
0.0313725 0.521569 0.54902 0.0313725 0.521569 0.54902 
0.0313725 0.521569 0.54902 0.0313725 0.521569 0.54902 
0.0313725 0.521569 0.54902 0.0313725 0.521569 0.54902 
0.0313725 0.521569 0.54902 0.0313725 0.521569 0.54902 
0.0313725 0.521569 0.54902 0.0313725 0.521569 0.54902 
0.0313725 0.521569 0.54902 0.0313725 0.521569 0.54902 
0.0313725 0.521569 0.54902 0.0313725 0.521569 0.54902 
0.0313725 0.521569 0.54902 0.0313725 0.521569 0.54902 
0.0313725 0.521569 0.54902 0.0313725 0.521569 0.54902 
0.0313725 0.521569 0.54902 0.0313725 0.521569 0.54902 
0.0313725 0.521569 0.54902 0.0313725 0.521569 0.54902 
0.0313725 0.521569 0.54902 0.0313725 0.521569 0.54902 
0.0313725 0.521569 0.54902 0.0313725 0.521569 0.54902 
0.0313725 0.521569 0.54902 0.0313725 0.521569 0.54902 
0.0313725 0.521569 0.54902 0.0313725 0.521569 0.54902 
0.0313725 0.521569 0.54902 0.0313725 0.521569 0.54902 
0.0313725 0.521569 0.54902 0.0313725 0.521569 0.54902 
0.0313725 0.521569 0.54902 0.0313725 0.521569 0.54902 
0.0313725 0.521569 0.54902 0.0313725 0.521569 0.54902 
0.0313725 0.521569 0.54902 0.0313725 0.521569 0.54902 
0.0313725 0.521569 0.54902 0.0313725 0.521569 0.54902 
0.0313725 0.521569 0.54902 0.0313725 0.521569 0.54902 
0.0313725 0.521569 0.54902 0.0313725 0.521569 0.54902 
0.0313725 0.521569 0.54902 0.0313725 0.521569 0.54902 
0.0313725 0.521569 0.54902 0.0313725 0.521569 0.54902 
0.0313725 0.521569 0.54902 0.0313725 0.521569 0.54902 
0.0313725 0.521569 0.54902 0.0313725 0.521569 0.54902 
0.0313725 0.521569 0.54902 0.0313725 0.521569 0.54902 
0.0313725 0.521569 0.54902 0.0313725 0.521569 0.54902 
0.0313725 0.521569 0.54902 0.0313725 0.521569 0.54902 
0.0313725 0.521569 0.54902 0.0313725 0.521569 0.54902 
0.0313725 0.521569 0.54902 0.0313725 0.521569 0.54902 
0.0313725 0.521569 0.54902 0.0313725 0.521569 0.54902 
0.0313725 0.521569 0.54902 0.0313725 0.521569 0.54902 
0.0313725 0.521569 0.54902 0.0313725 0.521569 0.54902 
0.0313725 0.521569 0.54902 0.0313725 0.521569 0.54902 
0.0313725 0.521569 0.54902 0.0313725 0.521569 0.54902 
0.0313725 0.521569 0.54902 0.0313725 0.521569 0.54902 
0.0313725 0.521569 0.54902 0.0313725 0.521569 0.54902 
0.0313725 0.521569 0.54902 0.0313725 0.521569 0.54902 
0.0313725 0.521569 0.54902 0.0313725 0.521569 0.54902 
0.0313725 0.521569 0.54902 0.0313725 0.521569 0.54902 
0.0313725 0.521569 0.54902 0.0313725 0.521569 0.54902 
0.0313725 0.521569 0.54902 0.0313725 0.521569 0.54902 
0.0313725 0.521569 0.54902 0.0313725 0.521569 0.54902 
0.0313725 0.521569 0.54902 0.0313725 0.521569 0.54902 
0.0313725 0.521569 0.54902 0.0313725 0.521569 0.54902 
0.0313725 0.521569 0.54902 0.0313725 0.521569 0.54902 
0.0313725 0.521569 0.54902 0.0313725 0.521569 0.54902 
0.0313725 0.521569 0.54902 0.0313725 0.521569 0.54902 
0.0313725 0.521569 0.54902 0.0313725 0.521569 0.54902 
0.0313725 0.521569 0.54902 0.0313725 0.521569 0.54902 
0.0313725 0.521569 0.54902 0.0313725 0.521569 0.54902 
0.0313725 0.521569 0.54902 0.0313725 0.521569 0.54902 
0.0313725 0.521569 0.54902 0.0313725 0.521569 0.54902 
0.0313725 0.521569 0.54902 0.0313725 0.521569 0.54902 
0.0313725 0.521569 0.54902 0.0313725 0.521569 0.54902 
0.0313725 0.521569 0.54902 0.0313725 0.521569 0.54902 
0.0313725 0.521569 0.54902 0.0313725 0.521569 0.54902 
0.0313725 0.521569 0.54902 0.0313725 0.521569 0.54902 
0.0313725 0.521569 0.54902 0.0313725 0.521569 0.54902 
0.0313725 0.521569 0.54902 0.0313725 0.521569 0.54902 
0.0313725 0.521569 0.54902 0.0313725 0.521569 0.54902 
0.0313725 0.521569 0.54902 0.0313725 0.521569 0.54902 
0.0313725 0.521569 0.54902 0.0313725 0.521569 0.54902 
0.0313725 0.521569 0.54902 0.0313725 0.521569 0.54902 
0.0313725 0.521569 0.54902 0.0313725 0.521569 0.54902 
0.0313725 0.521569 0.54902 0.0313725 0.521569 0.54902 
0.0313725 0.521569 0.54902 0.0313725 0.521569 0.54902 
0.0313725 0.521569 0.54902 0.0313725 0.521569 0.54902 
0.0313725 0.521569 0.54902 0.0313725 0.521569 0.54902 
0.0313725 0.521569 0.54902 0.0313725 0.521569 0.54902 
0.0313725 0.521569 0.54902 0.0313725 0.521569 0.54902 
0.0313725 0.521569 0.54902 0.0313725 0.521569 0.54902 
0.0313725 0.521569 0.54902 0.0313725 0.521569 0.54902 
0.0313725 0.521569 0.54902 0.0313725 0.521569 0.54902 
0.0313725 0.521569 0.54902 0.0313725 0.521569 0.54902 
0.0313725 0.521569 0.54902 0.0313725 0.521569 0.54902 
0.0313725 0.521569 0.54902 0.0313725 0.521569 0.54902 
0.0313725 0.521569 0.54902 0.0313725 0.521569 0.54902 
0.0313725 0.521569 0.54902 0.0313725 0.521569 0.54902 
0.0313725 0.521569 0.54902 0.0313725 0.521569 0.54902 
0.0313725 0.521569 0.54902 0.0313725 0.521569 0.54902 
0.0313725 0.521569 0.54902 0.0313725 0.521569 0.54902 
0.0313725 0.521569 0.54902 0.0313725 0.521569 0.54902 
0.0313725 0.521569 0.54902 0.0313725 0.521569 0.54902 
0.0313725 0.521569 0.54902 0.0313725 0.521569 0.54902 
0.0313725 0.521569 0.54902 0.0313725 0.521569 0.54902 
0.0313725 0.521569 0.54902 0.0313725 0.521569 0.54902 
0.0313725 0.521569 0.54902 0.0313725 0.521569 0.54902 
0.0313725 0.521569 0.54902 0.0313725 0.521569 0.54902 
0.0313725 0.521569 0.54902 0.0313725 0.521569 0.54902 
0.0313725 0.521569 0.54902 0.0313725 0.521569 0.54902 
0.0313725 0.521569 0.54902 0.0313725 0.521569 0.54902 
0.0313725 0.521569 0.54902 0.0313725 0.521569 0.54902 
0.0313725 0.521569 0.54902 0.0313725 0.521569 0.54902 
0.0313725 0.521569 0.54902 0.0313725 0.521569 0.54902 
0.0313725 0.521569 0.54902 0.0313725 0.521569 0.54902 
0.0313725 0.521569 0.54902 0.0313725 0.521569 0.54902 
0.0313725 0.521569 0.54902 0.0313725 0.521569 0.54902 
0.0313725 0.521569 0.54902 0.0313725 0.521569 0.54902 
0.0313725 0.521569 0.54902 0.0313725 0.521569 0.54902 
0.0313725 0.521569 0.54902 0.0313725 0.521569 0.54902 
0.0313725 0.521569 0.54902 0.0313725 0.521569 0.54902 
0.0313725 0.521569 0.54902 0.0313725 0.521569 0.54902 
0.0313725 0.521569 0.54902 0.0313725 0.521569 0.54902 
0.0313725 0.521569 0.54902 0.0313725 0.521569 0.54902 
0.0313725 0.521569 0.54902 0.0313725 0.521569 0.54902 
0.0313725 0.521569 0.54902 0.0313725 0.521569 0.54902 
0.0313725 0.521569 0.54902 0.0313725 0.521569 0.54902 
0.0313725 0.521569 0.54902 0.0313725 0.521569 0.54902 
0.0313725 0.521569 0.54902 0.0313725 0.521569 0.54902 
0.0313725 0.521569 0.54902 0.0313725 0.521569 0.54902 
0.0313725 0.521569 0.54902 0.0313725 0.521569 0.54902 
0.0313725 0.521569 0.54902 0.0313725 0.521569 0.54902 
0.0313725 0.521569 0.54902 0.0313725 0.521569 0.54902 
0.0313725 0.521569 0.54902 0.0313725 0.521569 0.54902 
0.0313725 0.521569 0.54902 0.0313725 0.521569 0.54902 
0.0313725 0.521569 0.54902 0.0313725 0.521569 0.54902 
0.0313725 0.521569 0.54902 0.0313725 0.521569 0.54902 
0.0313725 0.521569 0.54902 0.0313725 0.521569 0.54902 
0.0313725 0.521569 0.54902 0.0313725 0.521569 0.54902 
0.0313725 0.521569 0.54902 0.0313725 0.521569 0.54902 
0.0313725 0.521569 0.54902 0.0313725 0.521569 0.54902 
0.0313725 0.521569 0.54902 0.0313725 0.521569 0.54902 
0.0313725 0.521569 0.54902 0.0313725 0.521569 0.54902 
0.0313725 0.521569 0.54902 0.0313725 0.521569 0.54902 
0.0313725 0.521569 0.54902 0.0313725 0.521569 0.54902 
0.0313725 0.521569 0.54902 0.0313725 0.521569 0.54902 
0.0313725 0.521569 0.54902 0.0313725 0.521569 0.54902 
0.0313725 0.521569 0.54902 0.0313725 0.521569 0.54902 
0.0313725 0.521569 0.54902 0.0313725 0.521569 0.54902 
0.0313725 0.521569 0.54902 0.0313725 0.521569 0.54902 
0.0313725 0.521569 0.54902 0.0313725 0.521569 0.54902 
0.0313725 0.521569 0.54902 0.0313725 0.521569 0.54902 
0.0313725 0.521569 0.54902 0.0313725 0.521569 0.54902 
0.0313725 0.521569 0.54902 0.0313725 0.521569 0.54902 
0.0313725 0.521569 0.54902 0.0313725 0.521569 0.54902 
0.0313725 0.521569 0.54902 0.0313725 0.521569 0.54902 
0.0313725 0.521569 0.54902 0.0313725 0.521569 0.54902 
0.0313725 0.521569 0.54902 0.0313725 0.521569 0.54902 
0.0313725 0.521569 0.54902 0.0313725 0.521569 0.54902 
0.0313725 0.521569 0.54902 0.0313725 0.521569 0.54902 
0.0313725 0.521569 0.54902 0.0313725 0.521569 0.54902 
0.0313725 0.521569 0.54902 0.0313725 0.521569 0.54902 
0.0313725 0.521569 0.54902 0.0313725 0.521569 0.54902 
0.0313725 0.521569 0.54902 0.0313725 0.521569 0.54902 
0.0313725 0.521569 0.54902 0.0313725 0.521569 0.54902 
0.0313725 0.521569 0.54902 0.0313725 0.521569 0.54902 
0.0313725 0.521569 0.54902 0.0313725 0.521569 0.54902 
0.0313725 0.521569 0.54902 0.0313725 0.521569 0.54902 
0.0313725 0.521569 0.54902 0.0313725 0.521569 0.54902 
0.0313725 0.521569 0.54902 0.0313725 0.521569 0.54902 
0.0313725 0.521569 0.54902 0.0313725 0.521569 0.54902 
0.0313725 0.521569 0.54902 0.0313725 0.521569 0.54902 
0.0313725 0.521569 0.54902 0.0313725 0.521569 0.54902 
0.0313725 0.521569 0.54902 0.0313725 0.521569 0.54902 
0.0313725 0.521569 0.54902 0.0313725 0.521569 0.54902 
0.0313725 0.521569 0.54902 0.0313725 0.521569 0.54902 
0.0313725 0.521569 0.54902 0.0313725 0.521569 0.54902 
0.0313725 0.521569 0.54902 0.0313725 0.521569 0.54902 
0.0313725 0.521569 0.54902 0.0313725 0.521569 0.54902 
0.0313725 0.521569 0.54902 0.0313725 0.521569 0.54902 
0.0313725 0.521569 0.54902 0.0313725 0.521569 0.54902 
0.0313725 0.521569 0.54902 0.0313725 0.521569 0.54902 
0.0313725 0.521569 0.54902 0.0313725 0.521569 0.54902 
0.0313725 0.521569 0.54902 0.0313725 0.521569 0.54902 
0.0313725 0.521569 0.54902 0.0313725 0.521569 0.54902 
0.0313725 0.521569 0.54902 0.0313725 0.521569 0.54902 
0.0313725 0.521569 0.54902 0.0313725 0.521569 0.54902 
0.0313725 0.521569 0.54902 0.0313725 0.521569 0.54902 
0.0313725 0.521569 0.54902 0.0313725 0.521569 0.54902 
0.0313725 0.521569 0.54902 0.0313725 0.521569 0.54902 
0.0313725 0.521569 0.54902 0.0313725 0.521569 0.54902 
0.0313725 0.521569 0.54902 0.0313725 0.521569 0.54902 
0.0313725 0.521569 0.54902 0.0313725 0.521569 0.54902 
0.0313725 0.521569 0.54902 0.0313725 0.521569 0.54902 
0.0313725 0.521569 0.54902 0.0313725 0.521569 0.54902 
0.0313725 0.521569 0.54902 0.0313725 0.521569 0.54902 
0.0313725 0.521569 0.54902 0.0313725 0.521569 0.54902 
0.0313725 0.521569 0.54902 0.0313725 0.521569 0.54902 
0.0313725 0.521569 0.54902 0.0313725 0.521569 0.54902 
0.0313725 0.521569 0.54902 0.0313725 0.521569 0.54902 
0.0313725 0.521569 0.54902 0.0313725 0.521569 0.54902 
0.0313725 0.521569 0.54902 0.0313725 0.521569 0.54902 
0.0313725 0.521569 0.54902 0.0313725 0.521569 0.54902 
0.0313725 0.521569 0.54902 0.0313725 0.521569 0.54902 
0.0313725 0.521569 0.54902 0.0313725 0.521569 0.54902 
0.0313725 0.521569 0.54902 0.0313725 0.521569 0.54902 
0.0313725 0.521569 0.54902 0.0313725 0.521569 0.54902 
0.0313725 0.521569 0.54902 0.0313725 0.521569 0.54902 
0.0313725 0.521569 0.54902 0.0313725 0.521569 0.54902 
0.0313725 0.521569 0.54902 0.0313725 0.521569 0.54902 
0.0313725 0.521569 0.54902 0.0313725 0.521569 0.54902 
0.0313725 0.521569 0.54902 0.0313725 0.521569 0.54902 
0.0313725 0.521569 0.54902 0.0313725 0.521569 0.54902 
0.0313725 0.521569 0.54902 0.0313725 0.521569 0.54902 
0.0313725 0.521569 0.54902 0.0313725 0.521569 0.54902 
0.0313725 0.521569 0.54902 0.0313725 0.521569 0.54902 
0.0313725 0.521569 0.54902 0.0313725 0.521569 0.54902 
0.0313725 0.521569 0.54902 0.0313725 0.521569 0.54902 
0.0313725 0.521569 0.54902 0.0313725 0.521569 0.54902 
0.0313725 0.521569 0.54902 0.0313725 0.521569 0.54902 
0.0313725 0.521569 0.54902 0.0313725 0.521569 0.54902 
0.0313725 0.521569 0.54902 0.0313725 0.521569 0.54902 
0.0313725 0.521569 0.54902 0.0313725 0.521569 0.54902 
0.0313725 0.521569 0.54902 0.0313725 0.521569 0.54902 
0.0313725 0.521569 0.54902 0.0313725 0.521569 0.54902 
0.0313725 0.521569 0.54902 0.0313725 0.521569 0.54902 
0.0313725 0.521569 0.54902 0.0313725 0.521569 0.54902 
0.0313725 0.521569 0.54902 0.0313725 0.521569 0.54902 
0.0313725 0.521569 0.54902 0.0313725 0.521569 0.54902 
0.0313725 0.521569 0.54902 0.0313725 0.521569 0.54902 
0.0313725 0.521569 0.54902 0.0313725 0.521569 0.54902 
0.0313725 0.521569 0.54902 0.0313725 0.521569 0.54902 
0.0313725 0.521569 0.54902 0.0313725 0.521569 0.54902 
0.0313725 0.521569 0.54902 0.0313725 0.521569 0.54902 
0.0313725 0.521569 0.54902 0.0313725 0.521569 0.54902 
0.0313725 0.521569 0.54902 0.0313725 0.521569 0.54902 
0.0313725 0.521569 0.54902 0.0313725 0.521569 0.54902 
0.0313725 0.521569 0.54902 0.0313725 0.521569 0.54902 
0.0313725 0.521569 0.54902 0.0313725 0.521569 0.54902 
0.0313725 0.521569 0.54902 0.0313725 0.521569 0.54902 
0.0313725 0.521569 0.54902 0.0313725 0.521569 0.54902 
0.0313725 0.521569 0.54902 0.0313725 0.521569 0.54902 
0.0313725 0.521569 0.54902 0.0313725 0.521569 0.54902 
0.0313725 0.521569 0.54902 0.0313725 0.521569 0.54902 
0.0313725 0.521569 0.54902 0.0313725 0.521569 0.54902 
0.0313725 0.521569 0.54902 0.0313725 0.521569 0.54902 
0.0313725 0.521569 0.54902 0.0313725 0.521569 0.54902 
0.0313725 0.521569 0.54902 0.0313725 0.521569 0.54902 
0.0313725 0.521569 0.54902 0.0313725 0.521569 0.54902 
0.0313725 0.521569 0.54902 0.0313725 0.521569 0.54902 
0.0313725 0.521569 0.54902 0.0313725 0.521569 0.54902 
0.0313725 0.521569 0.54902 0.0313725 0.521569 0.54902 
0.0313725 0.521569 0.54902 0.0313725 0.521569 0.54902 
0.0313725 0.521569 0.54902 0.0313725 0.521569 0.54902 
0.0313725 0.521569 0.54902 0.0313725 0.521569 0.54902 
0.0313725 0.521569 0.54902 0.0313725 0.521569 0.54902 
0.0313725 0.521569 0.54902 0.0313725 0.521569 0.54902 
0.0313725 0.521569 0.54902 0.0313725 0.521569 0.54902 
0.0313725 0.521569 0.54902 0.0313725 0.521569 0.54902 
0.0313725 0.521569 0.54902 0.0313725 0.521569 0.54902 
0.0313725 0.521569 0.54902 0.0313725 0.521569 0.54902 
0.0313725 0.521569 0.54902 0.0313725 0.521569 0.54902 
0.0313725 0.521569 0.54902 0.0313725 0.521569 0.54902 
0.0313725 0.521569 0.54902 0.0313725 0.521569 0.54902 
0.0313725 0.521569 0.54902 0.0313725 0.521569 0.54902 
0.0313725 0.521569 0.54902 0.0313725 0.521569 0.54902 
0.0313725 0.521569 0.54902 0.0313725 0.521569 0.54902 
0.0313725 0.521569 0.54902 0.0313725 0.521569 0.54902 
0.0313725 0.521569 0.54902 0.0313725 0.521569 0.54902 
0.0313725 0.521569 0.54902 0.0313725 0.521569 0.54902 
0.0313725 0.521569 0.54902 0.0313725 0.521569 0.54902 
0.0313725 0.521569 0.54902 0.0313725 0.521569 0.54902 
0.0313725 0.521569 0.54902 0.0313725 0.521569 0.54902 
0.0313725 0.521569 0.54902 0.0313725 0.521569 0.54902 
0.0313725 0.521569 0.54902 0.0313725 0.521569 0.54902 
0.0313725 0.521569 0.54902 0.0313725 0.521569 0.54902 
0.0313725 0.521569 0.54902 0.0313725 0.521569 0.54902 
0.0313725 0.521569 0.54902 0.0313725 0.521569 0.54902 
0.0313725 0.521569 0.54902 0.0313725 0.521569 0.54902 
0.0313725 0.521569 0.54902 0.0313725 0.521569 0.54902 
0.0313725 0.521569 0.54902 0.0313725 0.521569 0.54902 
0.0313725 0.521569 0.54902 0.0313725 0.521569 0.54902 
0.0313725 0.521569 0.54902 0.0313725 0.521569 0.54902 
0.0313725 0.521569 0.54902 0.0313725 0.521569 0.54902 
0.0313725 0.521569 0.54902 0.0313725 0.521569 0.54902 
0.0313725 0.521569 0.54902 0.0313725 0.521569 0.54902 
0.0313725 0.521569 0.54902 0.0313725 0.521569 0.54902 
0.0313725 0.521569 0.54902 0.0313725 0.521569 0.54902 
0.0313725 0.521569 0.54902 0.0313725 0.521569 0.54902 
0.0313725 0.521569 0.54902 0.0313725 0.521569 0.54902 
0.0313725 0.521569 0.54902 0.0313725 0.521569 0.54902 
0.0313725 0.521569 0.54902 0.0313725 0.521569 0.54902 
0.0313725 0.521569 0.54902 0.0313725 0.521569 0.54902 
0.0313725 0.521569 0.54902 0.0313725 0.521569 0.54902 
0.0313725 0.521569 0.54902 0.0313725 0.521569 0.54902 
0.0313725 0.521569 0.54902 0.0313725 0.521569 0.54902 
0.0313725 0.521569 0.54902 0.0313725 0.521569 0.54902 
0.0313725 0.521569 0.54902 0.0313725 0.521569 0.54902 
0.0313725 0.521569 0.54902 0.0313725 0.521569 0.54902 
0.0313725 0.521569 0.54902 0.0313725 0.521569 0.54902 
0.0313725 0.521569 0.54902 0.0313725 0.521569 0.54902 
0.0313725 0.521569 0.54902 0.0313725 0.521569 0.54902 
0.0313725 0.521569 0.54902 0.0313725 0.521569 0.54902 
0.0313725 0.521569 0.54902 0.0313725 0.521569 0.54902 