# vtk DataFile Version 4.2
vtk output
ASCII
DATASET POLYDATA
POINTS 2862 float
365.764 51.8231 83.3537 365.379 51.9256 83.3881 367.327 52.7196 83.3162 
367.774 52.7188 83.2803 368.107 52.8254 83.2888 368.512 52.8011 83.3613 
367.849 53.0391 83.3047 369.461 53.4755 83.3456 369.902 53.8552 83.3634 
369.443 54.0976 83.4069 370.22 54.1592 83.4078 372.591 54.9182 83.3537 
372.838 54.8812 83.4024 373.63 55.4666 83.3277 374.071 55.8369 83.3148 
373.637 56.0722 83.3667 375.818 56.7741 83.324 376.067 56.5056 83.4277 
376.523 56.86 83.4314 375.918 57.1064 83.3706 376.423 57.1496 83.4025 
378.559 57.9885 83.5847 352.324 46.5774 84.5809 353.033 46.8971 84.425 
353.499 46.887 84.4366 352.561 47.0734 84.5203 354.904 47.9771 84.179 
355.162 47.662 84.2325 356.62 48.2887 84.0503 355.527 48.7743 84.1162 
355.924 49.0643 84.0706 359.646 49.403 83.8915 360.645 49.4593 83.9249 
356.905 49.8137 84.142 358.082 49.7979 83.8918 358.606 49.8894 83.8157 
358.862 50.14 83.8014 361.497 50.0263 83.8436 359.949 50.5342 83.8047 
364.543 50.8973 83.6759 364.189 50.3284 83.8695 365.863 50.7538 83.8924 
360.361 51.1879 83.9379 362.4 51.5937 83.7204 367.216 52.1641 83.4196 
366.886 51.5453 83.6206 363.368 52.1753 83.7047 369.159 53.1223 83.4298 
368.406 53.5812 83.4127 371.042 54.1555 83.5153 371.897 53.6028 83.8719 
368.821 54.8428 83.8324 371.714 54.8439 83.4476 373.358 55.1349 83.4358 
369.087 55.2552 84.0917 370.24 55.3676 83.7398 371.334 55.405 83.5411 
372.544 55.5186 83.4328 374.943 55.5345 83.5762 373.688 56.7441 83.54 
376.931 56.5507 83.648 373.691 57.167 83.7384 375.31 57.3273 83.5201 
376.492 57.6726 83.5354 375.774 58.0247 83.7868 379.361 58.8917 83.8 
380.25 58.2566 83.9907 378.397 59.1653 83.8856 379.86 59.4306 83.9415 
381.729 59.6206 84.093 382.464 59.6739 84.2099 380.483 60.0693 84.1326 
383.767 60.6494 84.1994 383.45 60.8967 84.1757 384.961 60.8185 84.3497 
383.965 61.571 84.1801 386.142 61.8975 84.3727 385.263 62.0503 84.2692 
387.525 62.9217 84.508 387.715 63.2676 84.5904 351.194 46.24 84.898 
351.861 46.2266 84.7787 351.194 46.9817 84.8791 356.043 47.1762 84.4685 
352.41 47.562 84.6525 357.939 47.591 84.433 352.507 48.1377 84.8959 
355.186 49.3286 84.4329 361.622 48.9489 84.2646 356.392 49.8153 84.2889 
356.12 49.9724 84.5633 358.481 50.1881 83.8895 364.601 49.6523 84.3353 
357.809 50.5794 84.36 358.566 50.6564 84.1096 359.084 51.1434 84.2786 
367.818 51.1172 84.124 362.054 52.4287 84.1899 362.953 52.4392 83.9336 
371.922 53.0561 84.1862 362.218 52.7714 84.4895 362.616 53.0132 84.7158 
367.014 54.5455 84.3856 368.129 55.2456 84.7634 370.702 55.7523 83.839 
370.764 56.2199 84.3003 380.283 57.8784 84.1111 373.333 57.7796 84.665 
375.316 58.3886 84.2621 376.015 59.1585 84.9436 378.236 59.5249 84.1856 
379.131 60.4611 84.7643 381.32 60.7811 84.3516 381.606 61.362 84.6188 
387.456 62.0764 84.6915 383.728 62.1827 84.5088 386.316 62.751 84.4461 
385.989 63.0924 84.6035 389.694 63.2659 85.0025 384.499 62.759 84.6646 
392.117 64.9998 85.1804 390.188 65.1963 85.0478 391.348 65.9049 85.3135 
392.095 65.8685 85.2521 395.63 66.9021 85.6196 345.064 45.1133 85.9883 
346.354 44.4081 85.9775 351.177 45.2851 85.3661 351.036 44.9152 85.6463 
354.422 46.0182 85.0424 350.392 47.8362 85.697 352.489 48.835 85.3409 
352.519 49.1823 85.6373 353.644 49.6367 85.7001 356.602 50.7774 85.7469 
357.313 50.9877 85.4025 359.505 52.0136 85.7555 361.214 52.469 84.6833 
375.965 53.7512 85.2574 361.895 52.942 85.3236 365.429 54.1044 84.8879 
365.22 54.173 85.3356 367.029 54.8706 85.3843 369.934 56.3268 85.5577 
370.651 56.5432 84.9325 370.377 56.5481 85.4052 371.707 57.2308 85.3449 
373.978 58.3402 85.3875 375.624 59.0724 85.2352 378.006 60.1764 85.3292 
377.892 60.1974 85.7546 379.299 60.8507 85.6939 380.739 61.476 85.3493 
389.178 61.3461 85.7492 381.731 62.1461 85.9687 383.471 62.4816 84.8874 
382.874 62.6294 85.726 385.317 63.5501 85.254 386.228 63.6648 84.9735 
388.194 64.2663 84.8809 384.133 63.2337 85.7534 384.796 63.4984 85.6222 
388.331 65.298 85.6428 388.954 65.4116 85.4368 395.702 65.9542 85.9883 
390.537 66.077 85.5648 393.4 66.7011 85.5429 394.631 66.7417 85.6024 
396.489 67.331 85.7912 393.396 67.2726 85.749 398.277 67.5287 86.1845 
393.632 67.8174 86.0992 395.837 68.4754 85.8325 396.852 69.1531 85.8272 
399.269 68.9538 86.0981 397.307 69.385 85.8625 397.652 69.8564 86.0262 
397.918 69.4209 85.8966 400.836 69.7546 86.4802 401.302 69.5111 86.6798 
400.425 70.7602 86.4688 341.367 43.6557 87.2654 342.343 42.8125 87.1717 
343.019 43.9006 86.6728 344.407 45.3946 86.3286 346.049 45.8893 85.937 
345.607 46.23 86.3179 349.634 47.8262 86.2082 351.432 48.8467 86.0305 
351.319 48.9432 86.5586 351.586 49.2008 86.2596 368.443 49.4965 85.8772 
352.149 49.3243 86.2154 352.808 49.5302 86.5002 354.509 50.1072 86.0911 
354.558 50.1316 86.4672 357.785 51.3393 86.1965 361.539 52.8025 86.0821 
363.128 53.3269 86.3814 365.87 54.4403 86.0048 370.715 56.7095 86.0166 
385.963 59.0387 85.896 375.637 59.0527 86.2157 376.107 59.3496 85.8852 
378.797 60.6408 86.1769 382.119 62.3486 86.2359 384.02 63.2812 86.2158 
391.207 66.9599 86.4955 392.133 67.4761 86.6742 399.563 67.731 86.5288 
390.382 66.7677 86.5617 393.813 68.387 86.6199 396.312 69.119 85.9307 
399.798 68.1169 86.449 396.134 69.9047 86.5862 401.631 69.5054 86.8812 
396.609 70.1296 86.5286 397.009 70.4632 86.6955 397.75 70.6043 86.4687 
399.166 70.9001 86.4401 402.606 70.6022 87.4276 401.287 71.3225 86.9563 
402.323 70.9247 87.286 337.959 41.9593 88.3182 340.48 42.227 87.7939 
341.061 41.7024 87.9585 342.004 41.8581 87.7664 337.818 42.2885 88.3655 
338.632 43.089 88.1524 339.113 42.7685 87.9734 346.499 42.9913 86.8375 
340.66 43.7242 87.5609 339.245 43.6735 88.2047 342.174 44.6657 87.1438 
342.9 45.0012 86.9578 342.816 45.3559 87.2923 343.4 45.8693 87.6325 
343.996 46.21 87.753 346.733 47.1413 87.3711 350.611 48.555 86.8403 
352.72 49.4687 86.9665 355.41 50.2657 87.2891 372.846 50.8591 86.6418 
357.426 51.0676 86.9329 361.96 52.5961 87.2827 364.875 53.6727 87.3296 
369.571 55.919 86.788 373.179 57.4603 87.3436 379.357 60.7535 86.9691 
380.778 61.5333 86.9409 384.591 63.4941 86.886 387.983 65.4525 87.112 
400.248 67.3544 87.2085 392.35 67.7053 87.2695 393.441 68.4525 87.7617 
394.301 69.0435 87.3656 394.981 69.456 87.2963 402.917 69.7488 87.8864 
403.018 70.9576 87.82 396.915 70.9015 88.1875 398.274 71.413 87.3237 
397.358 71.1349 87.9272 398.461 71.7397 87.885 399.608 72.2349 88.0267 
337.101 41.1181 88.8977 336.574 41.2873 89.0662 341.21 41.1828 88.2919 
337.01 42.2114 88.8069 338.119 42.9809 88.3244 337.799 43.0844 88.5775 
349.464 42.8529 87.3524 352.2 42.9366 87.8126 340.173 44.5923 88.6459 
343.589 46.0925 88.0385 343.618 46.1206 88.432 362.85 46.0307 87.5429 
372.679 49.5599 88.0894 366.66 53.8622 88.3198 368.384 54.9867 87.6034 
376.994 59.128 87.7495 378.512 59.8125 87.9689 382.142 61.8363 87.8462 
390.363 66.5399 87.8004 394.885 69.42 88.5188 404.147 70.6512 88.7811 
404.476 71.081 89.0542 404.232 71.4691 88.9025 398.076 71.5996 88.5241 
400.891 72.3432 87.8399 404.427 71.8466 89.2797 334.803 40.1806 90.1783 
335.891 40.1577 89.7921 337.374 40.1672 89.3862 335.091 41.3145 89.9095 
339.756 40.2731 89.127 343.028 40.4816 89.0853 335.479 41.9916 89.7891 
347.879 41.2921 88.8888 337.338 42.8181 88.7753 337.947 43.7381 89.4528 
338.413 44.0765 89.7677 339.273 44.246 88.9435 340.499 44.8856 89.1062 
344.145 46.2965 88.6559 348.098 47.2858 89.0586 392.418 67.3315 89.0602 
394.122 68.6916 88.9066 396.703 70.5868 89.157 405.319 71.4304 90.0394 
402.426 72.7238 88.7896 403.257 72.7547 89.2367 403.969 72.6633 89.5779 
403.3 73.0436 89.6779 401.661 73.0163 89.6241 403.055 73.144 89.8723 
336.408 39.2309 90.3413 333.902 40.5807 90.6722 334.47 41.3433 90.283 
335.82 42.767 90.0597 341.084 45.1219 89.3626 404.264 68.999 89.624 
400.859 72.7076 90.7803 403.555 73.1726 90.1364 332.789 38.9176 91.8486 
333.343 38.545 91.8085 338.481 38.9518 90.5543 341.652 38.7188 91.1687 
333.277 41.1731 91.3474 333.727 41.5191 91.0932 333.394 41.4678 91.4536 
334.148 41.4818 90.6182 335.381 42.8487 90.9862 335.861 43.1056 91.1235 
338.31 43.9513 90.9503 339.378 44.1858 91.2631 345.323 45.5564 91.3009 
391.251 65.1833 91.093 405.6 68.9874 91.2144 401.653 72.6467 91.9766 
402.731 73.0901 92.0276 404.961 73.0352 91.1107 405.735 72.7221 91.5255 
331.29 38.222 92.828 330.746 38.3605 93.0688 331.891 38.1069 92.6444 
333.005 41.2931 91.8965 334.789 42.6071 92.1226 335.597 42.9122 92.1781 
406.763 70.1405 92.117 407.278 71.3754 92.5671 406.796 72.019 92.2101 
404.139 73.3062 92.3051 330.245 37.4609 93.7374 333.675 37.1253 93.0349 
330.515 39.1846 93.3099 331.043 39.6521 92.9474 331.062 40.0591 93.1703 
331.922 40.9854 93.1338 332.411 41.3286 93.2774 336.832 43.0493 92.8942 
341.475 44.0813 92.6086 397.006 59.8174 92.4892 407.352 70.288 92.8884 
401.996 72.1608 93.3327 403.796 73.1047 93.5329 406.124 73.1788 92.9979 
329.612 38.0657 93.9116 329.395 38.616 94.2228 329.732 39.1565 94.2025 
330.763 40.1748 93.767 408.703 71.0931 94.8202 408.741 71.6633 94.961 
402.982 72.6293 93.7373 408.416 72.0008 94.6062 403.826 72.9371 94.0699 
406.375 73.2339 93.6476 406.938 73.1381 94.0774 407.544 72.8577 94.4015 
405.049 73.2279 94.2655 327.775 36.1277 96.0279 328.451 35.9289 95.7966 
327.826 37.4442 95.6724 328.346 38.3352 95.3003 329.799 39.6817 94.73 
330.231 40.1673 95.2355 330.691 40.3901 95.2615 334.672 41.8943 94.649 
367.828 42.525 94.8545 381.616 56.0778 94.9767 409.386 71.424 96.1156 
409.122 71.9082 95.8058 407.518 73.1973 95.3718 325.946 35.7802 97.3067 
326.54 36.2211 96.7379 327.166 37.404 96.3443 328.286 38.5958 95.6304 
360.218 46.2705 95.7162 409.346 70.9346 95.9357 405.556 72.9999 96.1583 
408.62 72.8567 96.4402 407.608 73.231 96.1126 325.25 35.4247 97.9267 
326.19 36.2688 97.0342 326.318 37.154 97.1438 327.064 37.8819 96.8514 
328.141 38.8932 96.532 328.386 39.1107 96.8545 356.071 44.3464 96.9379 
408.613 73.0015 97.0066 409.247 72.6576 97.4872 407.521 73.2379 96.9732 
325.576 34.2364 98.2775 330.752 33.8816 97.6135 344.741 34.7869 98.2222 
[...]
POINT_DATA 2862
COLOR_SCALARS scalars 3
0.0313725 0.521569 0.54902 0.0313725 0.521569 0.54902 0.0313725 0.521569 0.54902 
0.0313725 0.521569 0.54902 0.0313725 0.521569 0.54902 
0.0313725 0.521569 0.54902 0.0313725 0.521569 0.54902 
0.0313725 0.521569 0.54902 0.0313725 0.521569 0.54902 
0.0313725 0.521569 0.54902 0.0313725 0.521569 0.54902 
0.0313725 0.521569 0.54902 0.0313725 0.521569 0.54902 
0.0313725 0.521569 0.54902 0.0313725 0.521569 0.54902 
0.0313725 0.521569 0.54902 0.0313725 0.521569 0.54902 
0.0313725 0.521569 0.54902 0.0313725 0.521569 0.54902 
0.0313725 0.521569 0.54902 0.0313725 0.521569 0.54902 
0.0313725 0.521569 0.54902 0.0313725 0.521569 0.54902 
0.0313725 0.521569 0.54902 0.0313725 0.521569 0.54902 
0.0313725 0.521569 0.54902 0.0313725 0.521569 0.54902 
0.0313725 0.521569 0.54902 0.0313725 0.521569 0.54902 
0.0313725 0.521569 0.54902 0.0313725 0.521569 0.54902 
0.0313725 0.521569 0.54902 0.0313725 0.521569 0.54902 
0.0313725 0.521569 0.54902 0.0313725 0.521569 0.54902 
0.0313725 0.521569 0.54902 0.0313725 0.521569 0.54902 
0.0313725 0.521569 0.54902 0.0313725 0.521569 0.54902 
0.0313725 0.521569 0.54902 0.0313725 0.521569 0.54902 
0.0313725 0.521569 0.54902 0.0313725 0.521569 0.54902 
0.0313725 0.521569 0.54902 0.0313725 0.521569 0.54902 
0.0313725 0.521569 0.54902 0.0313725 0.521569 0.54902 
0.0313725 0.521569 0.54902 0.0313725 0.521569 0.54902 
0.0313725 0.521569 0.54902 0.0313725 0.521569 0.54902 
0.0313725 0.521569 0.54902 0.0313725 0.521569 0.54902 
0.0313725 0.521569 0.54902 0.0313725 0.521569 0.54902 
0.0313725 0.521569 0.54902 0.0313725 0.521569 0.54902 
0.0313725 0.521569 0.54902 0.0313725 0.521569 0.54902 
0.0313725 0.521569 0.54902 0.0313725 0.521569 0.54902 
0.0313725 0.521569 0.54902 0.0313725 0.521569 0.54902 
0.0313725 0.521569 0.54902 0.0313725 0.521569 0.54902 
0.0313725 0.521569 0.54902 0.0313725 0.521569 0.54902 
0.0313725 0.521569 0.54902 0.0313725 0.521569 0.54902 
0.0313725 0.521569 0.54902 0.0313725 0.521569 0.54902 
0.0313725 0.521569 0.54902 0.0313725 0.521569 0.54902 
0.0313725 0.521569 0.54902 0.0313725 0.521569 0.54902 
0.0313725 0.521569 0.54902 0.0313725 0.521569 0.54902 
0.0313725 0.521569 0.54902 0.0313725 0.521569 0.54902 
0.0313725 0.521569 0.54902 0.0313725 0.521569 0.54902 
0.0313725 0.521569 0.54902 0.0313725 0.521569 0.54902 
0.0313725 0.521569 0.54902 0.0313725 0.521569 0.54902 
0.0313725 0.521569 0.54902 0.0313725 0.521569 0.54902 
0.0313725 0.521569 0.54902 0.0313725 0.521569 0.54902 
0.0313725 0.521569 0.54902 0.0313725 0.521569 0.54902 
0.0313725 0.521569 0.54902 0.0313725 0.521569 0.54902 
0.0313725 0.521569 0.54902 0.0313725 0.521569 0.54902 
0.0313725 0.521569 0.54902 0.0313725 0.521569 0.54902 
0.0313725 0.521569 0.54902 0.0313725 0.521569 0.54902 
0.0313725 0.521569 0.54902 0.0313725 0.521569 0.54902 
0.0313725 0.521569 0.54902 0.0313725 0.521569 0.54902 
0.0313725 0.521569 0.54902 0.0313725 0.521569 0.54902 
0.0313725 0.521569 0.54902 0.0313725 0.521569 0.54902 
0.0313725 0.521569 0.54902 0.0313725 0.521569 0.54902 
0.0313725 0.521569 0.54902 0.0313725 0.521569 0.54902 
0.0313725 0.521569 0.54902 0.0313725 0.521569 0.54902 
0.0313725 0.521569 0.54902 0.0313725 0.521569 0.54902 
0.0313725 0.521569 0.54902 0.0313725 0.521569 0.54902 
0.0313725 0.521569 0.54902 0.0313725 0.521569 0.54902 
0.0313725 0.521569 0.54902 0.0313725 0.521569 0.54902 
0.0313725 0.521569 0.54902 0.0313725 0.521569 0.54902 
0.0313725 0.521569 0.54902 0.0313725 0.521569 0.54902 
0.0313725 0.521569 0.54902 0.0313725 0.521569 0.54902 
0.0313725 0.521569 0.54902 0.0313725 0.521569 0.54902 
0.0313725 0.521569 0.54902 0.0313725 0.521569 0.54902 
0.0313725 0.521569 0.54902 0.0313725 0.521569 0.54902 
0.0313725 0.521569 0.54902 0.0313725 0.521569 0.54902 
0.0313725 0.521569 0.54902 0.0313725 0.521569 0.54902 
0.0313725 0.521569 0.54902 0.0313725 0.521569 0.54902 
0.0313725 0.521569 0.54902 0.0313725 0.521569 0.54902 
0.0313725 0.521569 0.54902 0.0313725 0.521569 0.54902 
0.0313725 0.521569 0.54902 0.0313725 0.521569 0.54902 
0.0313725 0.521569 0.54902 0.0313725 0.521569 0.54902 
0.0313725 0.521569 0.54902 0.0313725 0.521569 0.54902 
0.0313725 0.521569 0.54902 0.0313725 0.521569 0.54902 
0.0313725 0.521569 0.54902 0.0313725 0.521569 0.54902 
0.0313725 0.521569 0.54902 0.0313725 0.521569 0.54902 
0.0313725 0.521569 0.54902 0.0313725 0.521569 0.54902 
0.0313725 0.521569 0.54902 0.0313725 0.521569 0.54902 
0.0313725 0.521569 0.54902 0.0313725 0.521569 0.54902 
0.0313725 0.521569 0.54902 0.0313725 0.521569 0.54902 
0.0313725 0.521569 0.54902 0.0313725 0.521569 0.54902 
0.0313725 0.521569 0.54902 0.0313725 0.521569 0.54902 
0.0313725 0.521569 0.54902 0.0313725 0.521569 0.54902 
0.0313725 0.521569 0.54902 0.0313725 0.521569 0.54902 
0.0313725 0.521569 0.54902 0.0313725 0.521569 0.54902 
0.0313725 0.521569 0.54902 0.0313725 0.521569 0.54902 
0.0313725 0.521569 0.54902 0.0313725 0.521569 0.54902 
0.0313725 0.521569 0.54902 0.0313725 0.521569 0.54902 
0.0313725 0.521569 0.54902 0.0313725 0.521569 0.54902 
0.0313725 0.521569 0.54902 0.0313725 0.521569 0.54902 
0.0313725 0.521569 0.54902 0.0313725 0.521569 0.54902 
0.0313725 0.521569 0.54902 0.0313725 0.521569 0.54902 
0.0313725 0.521569 0.54902 0.0313725 0.521569 0.54902 
0.0313725 0.521569 0.54902 0.0313725 0.521569 0.54902 
0.0313725 0.521569 0.54902 0.0313725 0.521569 0.54902 
0.0313725 0.521569 0.54902 0.0313725 0.521569 0.54902 
0.0313725 0.521569 0.54902 0.0313725 0.521569 0.54902 
0.0313725 0.521569 0.54902 0.0313725 0.521569 0.54902 
0.0313725 0.521569 0.54902 0.0313725 0.521569 0.54902 
0.0313725 0.521569 0.54902 0.0313725 0.521569 0.54902 
0.0313725 0.521569 0.54902 0.0313725 0.521569 0.54902 
0.0313725 0.521569 0.54902 0.0313725 0.521569 0.54902 
0.0313725 0.521569 0.54902 0.0313725 0.521569 0.54902 
0.0313725 0.521569 0.54902 0.0313725 0.521569 0.54902 
0.0313725 0.521569 0.54902 0.0313725 0.521569 0.54902 
0.0313725 0.521569 0.54902 0.0313725 0.521569 0.54902 
0.0313725 0.521569 0.54902 0.0313725 0.521569 0.54902 
0.0313725 0.521569 0.54902 0.0313725 0.521569 0.54902 
0.0313725 0.521569 0.54902 0.0313725 0.521569 0.54902 
0.0313725 0.521569 0.54902 0.0313725 0.521569 0.54902 
0.0313725 0.521569 0.54902 0.0313725 0.521569 0.54902 
0.0313725 0.521569 0.54902 0.0313725 0.521569 0.54902 
0.0313725 0.521569 0.54902 0.0313725 0.521569 0.54902 
0.0313725 0.521569 0.54902 0.0313725 0.521569 0.54902 
0.0313725 0.521569 0.54902 0.0313725 0.521569 0.54902 
0.0313725 0.521569 0.54902 0.0313725 0.521569 0.54902 
0.0313725 0.521569 0.54902 0.0313725 0.521569 0.54902 
0.0313725 0.521569 0.54902 0.0313725 0.521569 0.54902 
0.0313725 0.521569 0.54902 0.0313725 0.521569 0.54902 
0.0313725 0.521569 0.54902 0.0313725 0.521569 0.54902 
0.0313725 0.521569 0.54902 0.0313725 0.521569 0.54902 
0.0313725 0.521569 0.54902 0.0313725 0.521569 0.54902 
0.0313725 0.521569 0.54902 0.0313725 0.521569 0.54902 
0.0313725 0.521569 0.54902 0.0313725 0.521569 0.54902 
0.0313725 0.521569 0.54902 0.0313725 0.521569 0.54902 
0.0313725 0.521569 0.54902 0.0313725 0.521569 0.54902 
0.0313725 0.521569 0.54902 0.0313725 0.521569 0.54902 
0.0313725 0.521569 0.54902 0.0313725 0.521569 0.54902 
0.0313725 0.521569 0.54902 0.0313725 0.521569 0.54902 
0.0313725 0.521569 0.54902 0.0313725 0.521569 0.54902 
0.0313725 0.521569 0.54902 0.0313725 0.521569 0.54902 
0.0313725 0.521569 0.54902 0.0313725 0.521569 0.54902 
0.0313725 0.521569 0.54902 0.0313725 0.521569 0.54902 
0.0313725 0.521569 0.54902 0.0313725 0.521569 0.54902 
0.0313725 0.521569 0.54902 0.0313725 0.521569 0.54902 
0.0313725 0.521569 0.54902 0.0313725 0.521569 0.54902 
0.0313725 0.521569 0.54902 0.0313725 0.521569 0.54902 
0.0313725 0.521569 0.54902 0.0313725 0.521569 0.54902 
0.0313725 0.521569 0.54902 0.0313725 0.521569 0.54902 
0.0313725 0.521569 0.54902 0.0313725 0.521569 0.54902 
0.0313725 0.521569 0.54902 0.0313725 0.521569 0.54902 
0.0313725 0.521569 0.54902 0.0313725 0.521569 0.54902 
0.0313725 0.521569 0.54902 0.0313725 0.521569 0.54902 
0.0313725 0.521569 0.54902 0.0313725 0.521569 0.54902 
0.0313725 0.521569 0.54902 0.0313725 0.521569 0.54902 
0.0313725 0.521569 0.54902 0.0313725 0.521569 0.54902 
0.0313725 0.521569 0.54902 0.0313725 0.521569 0.54902 
0.0313725 0.521569 0.54902 0.0313725 0.521569 0.54902 
0.0313725 0.521569 0.54902 0.0313725 0.521569 0.54902 
0.0313725 0.521569 0.54902 0.0313725 0.521569 0.54902 
0.0313725 0.521569 0.54902 0.0313725 0.521569 0.54902 
0.0313725 0.521569 0.54902 0.0313725 0.521569 0.54902 
0.0313725 0.521569 0.54902 0.0313725 0.521569 0.54902 
0.0313725 0.521569 0.54902 0.0313725 0.521569 0.54902 
0.0313725 0.521569 0.54902 0.0313725 0.521569 0.54902 
0.0313725 0.521569 0.54902 0.0313725 0.521569 0.54902 
0.0313725 0.521569 0.54902 0.0313725 0.521569 0.54902 
0.0313725 0.521569 0.54902 0.0313725 0.521569 0.54902 
0.0313725 0.521569 0.54902 0.0313725 0.521569 0.54902 
0.0313725 0.521569 0.54902 0.0313725 0.521569 0.54902 
0.0313725 0.521569 0.54902 0.0313725 0.521569 0.54902 
0.0313725 0.521569 0.54902 0.0313725 0.521569 0.54902 
0.0313725 0.521569 0.54902 0.0313725 0.521569 0.54902 
0.0313725 0.521569 0.54902 0.0313725 0.521569 0.54902 
0.0313725 0.521569 0.54902 0.0313725 0.521569 0.54902 
0.0313725 0.521569 0.54902 0.0313725 0.521569 0.54902 
0.0313725 0.521569 0.54902 0.0313725 0.521569 0.54902 
0.0313725 0.521569 0.54902 0.0313725 0.521569 0.54902 
0.0313725 0.521569 0.54902 0.0313725 0.521569 0.54902 
0.0313725 0.521569 0.54902 0.0313725 0.521569 0.54902 
0.0313725 0.521569 0.54902 0.0313725 0.521569 0.54902 
0.0313725 0.521569 0.54902 0.0313725 0.521569 0.54902 
0.0313725 0.521569 0.54902 0.0313725 0.521569 0.54902 
0.0313725 0.521569 0.54902 0.0313725 0.521569 0.54902 
0.0313725 0.521569 0.54902 0.0313725 0.521569 0.54902 
0.0313725 0.521569 0.54902 0.0313725 0.521569 0.54902 
0.0313725 0.521569 0.54902 0.0313725 0.521569 0.54902 
0.0313725 0.521569 0.54902 0.0313725 0.521569 0.54902 
0.0313725 0.521569 0.54902 0.0313725 0.521569 0.54902 
0.0313725 0.521569 0.54902 0.0313725 0.521569 0.54902 
0.0313725 0.521569 0.54902 0.0313725 0.521569 0.54902 
0.0313725 0.521569 0.54902 0.0313725 0.521569 0.54902 
0.0313725 0.521569 0.54902 0.0313725 0.521569 0.54902 
0.0313725 0.521569 0.54902 0.0313725 0.521569 0.54902 
0.0313725 0.521569 0.54902 0.0313725 0.521569 0.54902 
0.0313725 0.521569 0.54902 0.0313725 0.521569 0.54902 
0.0313725 0.521569 0.54902 0.0313725 0.521569 0.54902 
0.0313725 0.521569 0.54902 0.0313725 0.521569 0.54902 
0.0313725 0.521569 0.54902 0.0313725 0.521569 0.54902 
0.0313725 0.521569 0.54902 0.0313725 0.521569 0.54902 
0.0313725 0.521569 0.54902 0.0313725 0.521569 0.54902 
0.0313725 0.521569 0.54902 0.0313725 0.521569 0.54902 
0.0313725 0.521569 0.54902 0.0313725 0.521569 0.54902 
0.0313725 0.521569 0.54902 0.0313725 0.521569 0.54902 
0.0313725 0.521569 0.54902 0.0313725 0.521569 0.54902 
0.0313725 0.521569 0.54902 0.0313725 0.521569 0.54902 
0.0313725 0.521569 0.54902 0.0313725 0.521569 0.54902 
0.0313725 0.521569 0.54902 0.0313725 0.521569 0.54902 
0.0313725 0.521569 0.54902 0.0313725 0.521569 0.54902 
0.0313725 0.521569 0.54902 0.0313725 0.521569 0.54902 
0.0313725 0.521569 0.54902 0.0313725 0.521569 0.54902 
0.0313725 0.521569 0.54902 0.0313725 0.521569 0.54902 
0.0313725 0.521569 0.54902 0.0313725 0.521569 0.54902 
0.0313725 0.521569 0.54902 0.0313725 0.521569 0.54902 
0.0313725 0.521569 0.54902 0.0313725 0.521569 0.54902 
0.0313725 0.521569 0.54902 0.0313725 0.521569 0.54902 
0.0313725 0.521569 0.54902 0.0313725 0.521569 0.54902 
0.0313725 0.521569 0.54902 0.0313725 0.521569 0.54902 
0.0313725 0.521569 0.54902 0.0313725 0.521569 0.54902 
0.0313725 0.521569 0.54902 0.0313725 0.521569 0.54902 
0.0313725 0.521569 0.54902 0.0313725 0.521569 0.54902 
0.0313725 0.521569 0.54902 0.0313725 0.521569 0.54902 
0.0313725 0.521569 0.54902 0.0313725 0.521569 0.54902 
0.0313725 0.521569 0.54902 0.0313725 0.521569 0.54902 
0.0313725 0.521569 0.54902 0.0313725 0.521569 0.54902 
0.0313725 0.521569 0.54902 0.0313725 0.521569 0.54902 
0.0313725 0.521569 0.54902 0.0313725 0.521569 0.54902 
0.0313725 0.521569 0.54902 0.0313725 0.521569 0.54902 
0.0313725 0.521569 0.54902 0.0313725 0.521569 0.54902 
0.0313725 0.521569 0.54902 0.0313725 0.521569 0.54902 
0.0313725 0.521569 0.54902 0.0313725 0.521569 0.54902 
0.0313725 0.521569 0.54902 0.0313725 0.521569 0.54902 
0.0313725 0.521569 0.54902 0.0313725 0.521569 0.54902 
0.0313725 0.521569 0.54902 0.0313725 0.521569 0.54902 
0.0313725 0.521569 0.54902 0.0313725 0.521569 0.54902 
0.0313725 0.521569 0.54902 0.0313725 0.521569 0.54902 
0.0313725 0.521569 0.54902 0.0313725 0.521569 0.54902 
0.0313725 0.521569 0.54902 0.0313725 0.521569 0.54902 
0.0313725 0.521569 0.54902 0.0313725 0.521569 0.54902 
0.0313725 0.521569 0.54902 0.0313725 0.521569 0.54902 
0.0313725 0.521569 0.54902 0.0313725 0.521569 0.54902 
0.0313725 0.521569 0.54902 0.0313725 0.521569 0.54902 
0.0313725 0.521569 0.54902 0.0313725 0.521569 0.54902 
0.0313725 0.521569 0.54902 0.0313725 0.521569 0.54902 
0.0313725 0.521569 0.54902 0.0313725 0.521569 0.54902 
0.0313725 0.521569 0.54902 0.0313725 0.521569 0.54902 
0.0313725 0.521569 0.54902 0.0313725 0.521569 0.54902 
0.0313725 0.521569 0.54902 0.0313725 0.521569 0.54902 
0.0313725 0.521569 0.54902 0.0313725 0.521569 0.54902 
0.0313725 0.521569 0.54902 0.0313725 0.521569 0.54902 
0.0313725 0.521569 0.54902 0.0313725 0.521569 0.54902 
0.0313725 0.521569 0.54902 0.0313725 0.521569 0.54902 
0.0313725 0.521569 0.54902 0.0313725 0.521569 0.54902 
0.0313725 0.521569 0.54902 0.0313725 0.521569 0.54902 
0.0313725 0.521569 0.54902 0.0313725 0.521569 0.54902 
0.0313725 0.521569 0.54902 0.0313725 0.521569 0.54902 
0.0313725 0.521569 0.54902 0.0313725 0.521569 0.54902 
0.0313725 0.521569 0.54902 0.0313725 0.521569 0.54902 
0.0313725 0.521569 0.54902 0.0313725 0.521569 0.54902 
0.0313725 0.521569 0.54902 0.0313725 0.521569 0.54902 
0.0313725 0.521569 0.54902 0.0313725 0.521569 0.54902 
0.0313725 0.521569 0.54902 0.0313725 0.521569 0.54902 
0.0313725 0.521569 0.54902 0.0313725 0.521569 0.54902 
0.0313725 0.521569 0.54902 0.0313725 0.521569 0.54902 
0.0313725 0.521569 0.54902 0.0313725 0.521569 0.54902 
0.0313725 0.521569 0.54902 0.0313725 0.521569 0.54902 
0.0313725 0.521569 0.54902 0.0313725 0.521569 0.54902 
0.0313725 0.521569 0.54902 0.0313725 0.521569 0.54902 
0.0313725 0.521569 0.54902 0.0313725 0.521569 0.54902 
0.0313725 0.521569 0.54902 0.0313725 0.521569 0.54902 
0.0313725 0.521569 0.54902 0.0313725 0.521569 0.54902 
0.0313725 0.521569 0.54902 0.0313725 0.521569 0.54902 
0.0313725 0.521569 0.54902 0.0313725 0.521569 0.54902 
0.0313725 0.521569 0.54902 0.0313725 0.521569 0.54902 
0.0313725 0.521569 0.54902 0.0313725 0.521569 0.54902 
0.0313725 0.521569 0.54902 0.0313725 0.521569 0.54902 
0.0313725 0.521569 0.54902 0.0313725 0.521569 0.54902 
0.0313725 0.521569 0.54902 0.0313725 0.521569 0.54902 
0.0313725 0.521569 0.54902 0.0313725 0.521569 0.54902 
0.0313725 0.521569 0.54902 0.0313725 0.521569 0.54902 
0.0313725 0.521569 0.54902 0.0313725 0.521569 0.54902 
0.0313725 0.521569 0.54902 0.0313725 0.521569 0.54902 
0.0313725 0.521569 0.54902 0.0313725 0.521569 0.54902 
0.0313725 0.521569 0.54902 0.0313725 0.521569 0.54902 
0.0313725 0.521569 0.54902 0.0313725 0.521569 0.54902 
0.0313725 0.521569 0.54902 0.0313725 0.521569 0.54902 
0.0313725 0.521569 0.54902 0.0313725 0.521569 0.54902 
0.0313725 0.521569 0.54902 0.0313725 0.521569 0.54902 
0.0313725 0.521569 0.54902 0.0313725 0.521569 0.54902 
0.0313725 0.521569 0.54902 0.0313725 0.521569 0.54902 
0.0313725 0.521569 0.54902 0.0313725 0.521569 0.54902 
0.0313725 0.521569 0.54902 0.0313725 0.521569 0.54902 
0.0313725 0.521569 0.54902 0.0313725 0.521569 0.54902 
0.0313725 0.521569 0.54902 0.0313725 0.521569 0.54902 
0.0313725 0.521569 0.54902 0.0313725 0.521569 0.54902 
0.0313725 0.521569 0.54902 0.0313725 0.521569 0.54902 
0.0313725 0.521569 0.54902 0.0313725 0.521569 0.54902 
0.0313725 0.521569 0.54902 0.0313725 0.521569 0.54902 
0.0313725 0.521569 0.54902 0.0313725 0.521569 0.54902 
0.0313725 0.521569 0.54902 0.0313725 0.521569 0.54902 
0.0313725 0.521569 0.54902 0.0313725 0.521569 0.54902 
0.0313725 0.521569 0.54902 0.0313725 0.521569 0.54902 
0.0313725 0.521569 0.54902 0.0313725 0.521569 0.54902 
0.0313725 0.521569 0.54902 0.0313725 0.521569 0.54902 
0.0313725 0.521569 0.54902 0.0313725 0.521569 0.54902 
0.0313725 0.521569 0.54902 0.0313725 0.521569 0.54902 
0.0313725 0.521569 0.54902 0.0313725 0.521569 0.54902 
0.0313725 0.521569 0.54902 0.0313725 0.521569 0.54902 
0.0313725 0.521569 0.54902 0.0313725 0.521569 0.54902 
0.0313725 0.521569 0.54902 0.0313725 0.521569 0.54902 
0.0313725 0.521569 0.54902 0.0313725 0.521569 0.54902 
0.0313725 0.521569 0.54902 0.0313725 0.521569 0.54902 
0.0313725 0.521569 0.54902 0.0313725 0.521569 0.54902 
0.0313725 0.521569 0.54902 0.0313725 0.521569 0.54902 
0.0313725 0.521569 0.54902 0.0313725 0.521569 0.54902 
0.0313725 0.521569 0.54902 0.0313725 0.521569 0.54902 
0.0313725 0.521569 0.54902 0.0313725 0.521569 0.54902 
0.0313725 0.521569 0.54902 0.0313725 0.521569 0.54902 
0.0313725 0.521569 0.54902 0.0313725 0.521569 0.54902 
0.0313725 0.521569 0.54902 0.0313725 0.521569 0.54902 
0.0313725 0.521569 0.54902 0.0313725 0.521569 0.54902 
0.0313725 0.521569 0.54902 0.0313725 0.521569 0.54902 
0.0313725 0.521569 0.54902 0.0313725 0.521569 0.54902 
0.0313725 0.521569 0.54902 0.0313725 0.521569 0.54902 
0.0313725 0.521569 0.54902 0.0313725 0.521569 0.54902 
0.0313725 0.521569 0.54902 0.0313725 0.521569 0.54902 
0.0313725 0.521569 0.54902 0.0313725 0.521569 0.54902 
0.0313725 0.521569 0.54902 0.0313725 0.521569 0.54902 
0.0313725 0.521569 0.54902 0.0313725 0.521569 0.54902 
0.0313725 0.521569 0.54902 0.0313725 0.521569 0.54902 
0.0313725 0.521569 0.54902 0.0313725 0.521569 0.54902 
0.0313725 0.521569 0.54902 0.0313725 0.521569 0.54902 
0.0313725 0.521569 0.54902 0.0313725 0.521569 0.54902 
0.0313725 0.521569 0.54902 0.0313725 0.521569 0.54902 
0.0313725 0.521569 0.54902 0.0313725 0.521569 0.54902 
0.0313725 0.521569 0.54902 0.0313725 0.521569 0.54902 
0.0313725 0.521569 0.54902 0.0313725 0.521569 0.54902 
0.0313725 0.521569 0.54902 0.0313725 0.521569 0.54902 
0.0313725 0.521569 0.54902 0.0313725 0.521569 0.54902 
0.0313725 0.521569 0.54902 0.0313725 0.521569 0.54902 
0.0313725 0.521569 0.54902 0.0313725 0.521569 0.54902 
0.0313725 0.521569 0.54902 0.0313725 0.521569 0.54902 
0.0313725 0.521569 0.54902 0.0313725 0.521569 0.54902 
0.0313725 0.521569 0.54902 0.0313725 0.521569 0.54902 
0.0313725 0.521569 0.54902 0.0313725 0.521569 0.54902 
0.0313725 0.521569 0.54902 0.0313725 0.521569 0.54902 
0.0313725 0.521569 0.54902 0.0313725 0.521569 0.54902 
0.0313725 0.521569 0.54902 0.0313725 0.521569 0.54902 
0.0313725 0.521569 0.54902 0.0313725 0.521569 0.54902 
0.0313725 0.521569 0.54902 0.0313725 0.521569 0.54902 
0.0313725 0.521569 0.54902 0.0313725 0.521569 0.54902 
0.0313725 0.521569 0.54902 0.0313725 0.521569 0.54902 
0.0313725 0.521569 0.54902 0.0313725 0.521569 0.54902 
0.0313725 0.521569 0.54902 0.0313725 0.521569 0.54902 
0.0313725 0.521569 0.54902 0.0313725 0.521569 0.54902 
0.0313725 0.521569 0.54902 0.0313725 0.521569 0.54902 
0.0313725 0.521569 0.54902 0.0313725 0.521569 0.54902 
0.0313725 0.521569 0.54902 0.0313725 0.521569 0.54902 
0.0313725 0.521569 0.54902 0.0313725 0.521569 0.54902 
0.0313725 0.521569 0.54902 0.0313725 0.521569 0.54902 
0.0313725 0.521569 0.54902 0.0313725 0.521569 0.54902 
0.0313725 0.521569 0.54902 0.0313725 0.521569 0.54902 
0.0313725 0.521569 0.54902 0.0313725 0.521569 0.54902 
0.0313725 0.521569 0.54902 0.0313725 0.521569 0.54902 
0.0313725 0.521569 0.54902 0.0313725 0.521569 0.54902 
0.0313725 0.521569 0.54902 0.0313725 0.521569 0.54902 
0.0313725 0.521569 0.54902 0.0313725 0.521569 0.54902 
0.0313725 0.521569 0.54902 0.0313725 0.521569 0.54902 
0.0313725 0.521569 0.54902 0.0313725 0.521569 0.54902 
0.0313725 0.521569 0.54902 0.0313725 0.521569 0.54902 
0.0313725 0.521569 0.54902 0.0313725 0.521569 0.54902 