# vtk DataFile Version 4.2
vtk output
ASCII
DATASET POLYDATA
POINTS 3583 float
365.368 52.024 83.298 366.127 51.9576 83.2801 366.537 51.9029 83.3495 
365.889 52.2343 83.2485 367.589 52.5863 83.2406 367.854 53.1541 83.1892 
368.407 53.1717 83.2219 369.474 53.5519 83.2561 369.915 53.9506 83.2497 
373.63 55.531 83.2406 374.065 55.9141 83.2129 374.537 55.8899 83.2906 
376.408 57.2469 83.2844 352.298 46.6255 84.5207 353.007 46.9464 84.365 
353.478 46.9286 84.3861 352.513 47.1598 84.4231 354.867 48.0595 84.0935 
355.139 47.7156 84.1738 356.596 48.3452 83.9911 355.465 48.9161 83.98 
355.856 49.219 83.9232 359.13 48.787 84.0192 360.629 49.5069 83.8798 
358.55 50.0142 83.7022 359.218 50.0875 83.698 363.054 49.8705 83.9385 
364.535 50.9502 83.6265 365.862 50.7759 83.8691 367.219 52.2224 83.36 
363.298 52.4417 83.4985 366.453 52.7057 83.2531 367.13 53.4767 83.2625 
371.05 54.2459 83.4032 368.602 54.6219 83.2995 373.359 55.1962 83.3534 
370.205 55.7199 83.3426 371.315 55.6359 83.2658 373.573 57.5197 83.3335 
376.853 59.0484 83.5006 381.225 59.1534 83.9803 378.597 59.7867 83.6366 
381.685 59.7123 83.9791 380.362 60.3238 83.8362 383.716 60.7222 84.1217 
384.935 60.8583 84.3103 383.714 61.4189 84.028 386.103 61.9696 84.3129 
387.484 63.0184 84.4244 351.158 46.3054 84.8195 350.662 45.9669 85.0326 
351.837 46.2697 84.7239 356.035 47.1974 84.4431 351.723 47.4123 84.5793 
358.193 47.9943 84.2179 352.324 48.4369 84.6236 361.616 48.9676 84.2456 
362.079 48.4392 84.717 358.409 50.9744 83.8558 359.289 51.2581 83.7776 
362.051 52.297 83.6377 369.298 52.0537 83.933 361.174 52.911 83.9465 
371.928 53.0762 84.1585 362.003 53.5099 84.0084 374.007 54.0875 84.1323 
367.885 56.1934 83.9059 377.373 55.8608 84.1389 370.591 56.8616 83.6223 
371.4 57.8652 83.8333 380.281 57.9063 84.072 375.09 59.0183 83.6567 
379.168 60.9489 83.9806 381.113 61.0949 83.9935 383.189 61.7332 84.0772 
387.434 62.1241 84.6494 384.536 62.8904 84.2567 389.676 63.3204 84.9467 
388.766 64.4916 84.6541 391.05 63.6897 85.1743 391.209 64.7576 84.9757 
392.109 65.0715 85.0824 392.664 64.8758 85.2686 390.115 65.4188 84.8294 
390.443 65.8752 84.9264 395.917 66.9335 85.6294 395.732 67.1991 85.5359 
344.092 44.2292 86.193 343.613 44.3218 86.2929 345.286 43.969 86.1718 
345.002 45.245 85.8707 347.642 45.2445 85.6432 351.026 44.9352 85.6206 
346.259 45.8229 85.6785 354.417 46.0298 85.0266 348.977 46.8627 85.2574 
361.392 47.9136 84.9692 354.295 49.5495 84.3635 365.927 48.8772 85.4689 
356.456 52.3749 84.9675 371.351 52.0636 84.6974 372.492 52.0112 85.2599 
373.985 53.1321 84.8867 378.973 55.4041 85.2531 384.591 58.9346 85.3274 
372.644 59.7778 84.535 375.618 60.7397 84.3815 389.175 61.3547 85.7403 
388.064 64.5408 84.6439 392.121 63.8613 85.4628 385.711 64.8686 84.9486 
388.687 65.9177 85.0209 389.168 66.7955 85.335 394.59 66.8399 85.4373 
398.267 67.5464 86.1571 395.691 68.6458 85.5813 396.732 69.291 85.6516 
398.174 68.9185 85.8373 399.295 68.3224 86.1734 400.206 69.2199 86.2918 
397.513 70.0272 85.8531 398.737 69.6368 85.9378 401.298 69.5242 86.6693 
399.938 70.5098 86.2342 401.869 70.3589 86.904 401.099 70.9292 86.659 
341.445 43.1622 87.1846 342.841 43.3402 86.7874 342.047 44.0846 86.8084 
347.557 43.9991 86.1647 342.412 44.6172 86.6815 344.959 46.3994 86.0753 
346.124 46.6933 85.813 346.488 47.7954 86.1046 347.629 47.8395 85.7736 
350.095 49.5076 85.6247 368.443 49.4976 85.8758 352.155 51.1227 85.7315 
360.874 55.7688 85.6233 374.498 61.9571 85.3938 378.928 63.1507 85.1606 
395.043 64.866 86.2293 392.162 67.208 85.2433 399.323 67.939 86.3021 
399.56 67.7369 86.5204 392.897 69.1639 85.9465 400.778 68.7997 86.6078 
395.29 69.9499 85.9472 401.629 69.5155 86.8736 397.482 70.9332 86.1905 
402.605 70.6308 87.4159 397.104 71.0731 86.2897 399.699 71.4966 86.5479 
401.783 71.2349 87.0468 337.456 42.057 88.38 342.243 42.3095 87.4105 
337.746 42.4136 88.2233 344.85 42.5183 87.1499 338.588 43.7262 87.9412 
356.911 44.924 86.6972 342.698 46.257 86.9238 346.551 49.6896 87.0911 
370.721 49.4194 87.1411 372.846 50.8599 86.6405 394.032 62.7902 87.2506 
400.553 67.7678 87.0969 392.346 70.4158 86.7803 403.017 71.002 87.8068 
403.574 70.6585 88.2582 397.136 72.4887 87.2503 400.129 72.9 87.6754 
337.071 41.1799 88.8347 336.525 41.3888 88.9774 338.684 41.2372 88.4491 
343.895 41.4484 88.1068 337.982 43.1954 88.0866 347.694 42.1912 87.763 
350.488 42.8732 87.523 352.67 42.7206 88.2011 337.774 43.735 88.2873 
340.332 44.3087 87.4012 338.248 44.2148 88.2342 362.85 46.0309 87.5427 
372.679 49.56 88.0892 383.504 55.5786 87.7843 390.118 59.7677 87.6991 
400.996 67.1385 87.9535 403.765 69.9875 88.5902 404.48 71.1118 89.0512 
400.756 72.773 87.6845 403.69 72.4462 89.0052 401.701 73.1311 88.3882 
334.75 40.2531 90.1266 335.863 40.206 89.7528 337.753 39.8998 89.5432 
337.168 43.114 88.4976 336.417 44.2108 89.297 340.157 47.7687 88.9334 
376.046 50.8561 88.5342 345.303 51.4072 88.7051 352.207 55.9914 88.7797 
398.956 64.8814 88.6092 404.909 71.6493 89.5829 395.964 73.2542 88.0139 
393.376 74.1806 89.1494 396.657 73.754 88.3542 403.301 73.5318 89.6878 
397.492 74.7404 89.2801 336.399 39.2436 90.329 334.284 41.6218 90.1431 
335.564 42.9933 89.4694 404.265 69.001 89.6235 405.414 70.3232 90.2947 
395.157 75.6012 90.1134 398.979 75.3641 90.3048 340.045 38.5461 91.1962 
332.883 41.9758 91.2229 358.021 42.0524 90.9362 363.079 43.8816 90.5419 
335.759 46.7294 90.9925 405.6 68.9891 91.2144 405.531 72.7052 90.937 
406.367 71.9993 91.5314 403.879 73.9016 90.6613 401.103 75.0813 90.7335 
404.1 74.1564 91.3846 396.95 75.9606 90.5889 331.841 38.1539 92.613 
332.266 37.6995 92.7911 331.064 38.6851 92.694 331.719 38.806 92.3677 
349.953 39.4432 92.0231 332.564 43.5258 92.0538 336.393 49.7421 92.2497 
389.173 55.2988 92.0298 391.875 57.5278 91.3134 369.436 69.1834 91.8442 
407.286 71.1622 92.5646 406.095 73.3766 92.4751 397.231 76.9315 91.8984 
392.427 78.0569 92.4573 394.659 77.5013 92.0499 330.185 37.5154 93.7051 
333.666 37.1327 93.0284 329.615 37.7722 93.8605 330.225 38.7621 93.2188 
338.437 53.0835 93.0378 406.528 68.6888 92.6838 402.864 75.4986 92.9017 
397.531 77.2265 92.4711 396.198 78.1889 93.4638 328.863 37.5399 94.4937 
331.023 36.4169 94.3204 338.481 36.8655 93.4709 329.131 37.895 94.1558 
329.556 40.4392 93.8889 332.732 46.9257 93.6285 398.616 59.9517 93.616 
368.866 71.2215 93.33 408.426 72.1066 94.6254 406.944 73.643 94.1306 
407.554 73.2052 94.4503 405.947 74.3446 94.1415 393.918 79.0087 93.7261 
396.298 78.6707 94.3251 393.515 79.7324 94.5601 394.176 79.4229 94.4065 
391.108 80.1157 94.3826 327.666 36.2275 95.9806 327.535 37.7392 95.558 
328.107 39.1604 94.9896 367.828 42.525 94.8545 405.301 65.8422 93.8051 
407.304 67.6354 94.6868 409.396 71.486 96.1281 366.778 72.6157 94.7875 
409.135 72.0088 95.8262 407.769 73.4714 95.2184 399.187 77.8397 94.9858 
387.594 80.1766 94.5046 395.332 79.6073 95.4016 389.615 81.3621 95.4607 
325.768 35.9459 97.2161 327.752 35.5676 96.3752 333.699 34.8096 96.2072 
326.354 36.3877 96.6543 326.85 38.5462 96.1435 376.155 45.278 95.99 
334.623 53.7928 95.9771 393.263 54.9176 95.4098 409.352 70.9673 95.9426 
408.977 72.3987 95.8964 405.845 75.0453 96.0552 407.591 74.0444 96.2795 
378.596 77.1477 94.8548 396.826 79.0755 95.6385 391.173 81.8739 96.6594 
351.984 36.9197 96.6973 384.033 48.8475 96.5572 341.355 61.95 96.9216 
409.584 70.0805 96.6155 410.289 71.2777 97.9379 410.148 72.0513 98.0094 
365.776 75.5562 96.9059 323.768 34.1945 99.0433 324.479 33.7885 98.9823 
330.119 33.7983 97.7506 358.658 37.6183 98.1005 325.372 39.3348 97.8273 
327.864 44.4295 97.4656 331.075 50.2116 97.1638 402.023 59.0321 97.6678 
403.726 61.1467 97.0481 409.484 67.9916 97.8448 410.692 71.5216 98.9014 
402.258 77.1064 98.0961 394.056 81.1248 97.773 382.238 83.0848 97.4528 
385.512 83.6894 97.4383 327.615 33.1262 98.9109 322.862 35.9244 99.372 
323.8 35.771 98.659 410.854 70.4334 99.1011 410.364 72.4942 99.0831 
408.601 74.093 98.8747 398.894 78.8481 99.1832 390.89 83.1162 98.8222 
386.3 84.9995 98.7984 382.284 85.9313 99.2683 385.646 85.4356 99.1062 
387.1 85.4536 99.704 383.101 86.5224 99.6884 322.287 33.5831 100.348 
321.787 33.7879 100.652 322.555 32.6548 100.818 323.253 32.5343 100.614 
399.9 55.7812 99.616 333.935 60.0349 100.001 407.455 63.0869 99.6884 
410.464 67.8075 100.055 411.153 69.2393 100.401 410.392 72.8601 99.9544 
411.16 71.8816 100.65 357.591 76.2677 99.7124 361.644 78.2534 99.7146 
387.316 85.6738 100.204 380.787 86.6361 99.9758 385.092 86.5409 100.062 
385.652 86.8997 100.786 320.69 32.7177 101.868 321.153 35.3895 101.09 
394.409 51.7227 100.428 337.295 65.4615 100.964 343.546 70.2706 100.842 
411.628 69.7736 101.434 411.422 70.6315 100.578 348.389 73.7637 101.266 
354.78 76.0012 100.48 356.323 77.6699 101.226 357.03 78.1758 101.401 
394.995 81.1946 101.011 368.174 82.5225 100.972 387.551 85.7921 100.693 
379.509 86.8884 100.502 387.607 85.9909 101.306 380.376 88.4155 101.354 
385.623 87.4682 101.712 383.215 88.6709 101.695 319.488 32.0096 103.116 
323.389 31.1937 102.113 326.279 31.5885 101.248 344.487 32.9181 101.536 
319.674 33.805 102.386 321.323 37.2338 101.363 321.306 37.7403 101.584 
377.974 42.3055 101.784 330.774 57.7984 101.653 346.219 72.9114 101.604 
347.451 73.6787 101.684 347.941 74.1711 101.939 408.881 74.4638 101.26 
412.009 74.0043 102.013 412.009 74.0043 102.013 412.009 74.0043 102.013 
412.009 74.0044 102.013 350.055 75.0284 101.653 350.927 75.1631 101.339 
412.009 74.0044 102.013 351.413 76.1025 102.097 352.814 76.5808 101.899 
354.825 77.0007 101.31 352.787 77.1115 102.815 354.66 77.4087 101.911 
353.623 77.4802 102.897 356.518 78.4677 102.097 358.977 79.1892 101.361 
357.806 79.3434 102.328 360.268 80.481 102.023 362.799 80.8556 101.236 
364.817 81.7666 101.354 362.276 81.7449 102.549 374.819 85.8128 101.52 
377.011 86.8246 101.423 387.225 86.6497 102.462 387.707 86.1857 102.173 
378.412 87.7404 101.571 379.321 88.4759 101.857 385.109 88.2611 102.654 
380.727 89.4882 102.403 381.664 89.6482 102.35 383.42 89.3577 102.659 
[...]
POINT_DATA 3583
COLOR_SCALARS scalars 3
0.0313725 0.521569 0.54902 0.0313725 0.521569 0.54902 0.0313725 0.521569 0.54902 
0.0313725 0.521569 0.54902 0.0313725 0.521569 0.54902 
0.0313725 0.521569 0.54902 0.0313725 0.521569 0.54902 
0.0313725 0.521569 0.54902 0.0313725 0.521569 0.54902 
0.0313725 0.521569 0.54902 0.0313725 0.521569 0.54902 
0.0313725 0.521569 0.54902 0.0313725 0.521569 0.54902 
0.0313725 0.521569 0.54902 0.0313725 0.521569 0.54902 
0.0313725 0.521569 0.54902 0.0313725 0.521569 0.54902 
0.0313725 0.521569 0.54902 0.0313725 0.521569 0.54902 
0.0313725 0.521569 0.54902 0.0313725 0.521569 0.54902 
0.0313725 0.521569 0.54902 0.0313725 0.521569 0.54902 
0.0313725 0.521569 0.54902 0.0313725 0.521569 0.54902 
0.0313725 0.521569 0.54902 0.0313725 0.521569 0.54902 
0.0313725 0.521569 0.54902 0.0313725 0.521569 0.54902 
0.0313725 0.521569 0.54902 0.0313725 0.521569 0.54902 
0.0313725 0.521569 0.54902 0.0313725 0.521569 0.54902 
0.0313725 0.521569 0.54902 0.0313725 0.521569 0.54902 
0.0313725 0.521569 0.54902 0.0313725 0.521569 0.54902 
0.0313725 0.521569 0.54902 0.0313725 0.521569 0.54902 
0.0313725 0.521569 0.54902 0.0313725 0.521569 0.54902 
0.0313725 0.521569 0.54902 0.0313725 0.521569 0.54902 
0.0313725 0.521569 0.54902 0.0313725 0.521569 0.54902 
0.0313725 0.521569 0.54902 0.0313725 0.521569 0.54902 
0.0313725 0.521569 0.54902 0.0313725 0.521569 0.54902 
0.0313725 0.521569 0.54902 0.0313725 0.521569 0.54902 
0.0313725 0.521569 0.54902 0.0313725 0.521569 0.54902 
0.0313725 0.521569 0.54902 0.0313725 0.521569 0.54902 
0.0313725 0.521569 0.54902 0.0313725 0.521569 0.54902 
0.0313725 0.521569 0.54902 0.0313725 0.521569 0.54902 
0.0313725 0.521569 0.54902 0.0313725 0.521569 0.54902 
0.0313725 0.521569 0.54902 0.0313725 0.521569 0.54902 
0.0313725 0.521569 0.54902 0.0313725 0.521569 0.54902 
0.0313725 0.521569 0.54902 0.0313725 0.521569 0.54902 
0.0313725 0.521569 0.54902 0.0313725 0.521569 0.54902 
0.0313725 0.521569 0.54902 0.0313725 0.521569 0.54902 
0.0313725 0.521569 0.54902 0.0313725 0.521569 0.54902 
0.0313725 0.521569 0.54902 0.0313725 0.521569 0.54902 
0.0313725 0.521569 0.54902 0.0313725 0.521569 0.54902 
0.0313725 0.521569 0.54902 0.0313725 0.521569 0.54902 
0.0313725 0.521569 0.54902 0.0313725 0.521569 0.54902 
0.0313725 0.521569 0.54902 0.0313725 0.521569 0.54902 
0.0313725 0.521569 0.54902 0.0313725 0.521569 0.54902 
0.0313725 0.521569 0.54902 0.0313725 0.521569 0.54902 
0.0313725 0.521569 0.54902 0.0313725 0.521569 0.54902 
0.0313725 0.521569 0.54902 0.0313725 0.521569 0.54902 
0.0313725 0.521569 0.54902 0.0313725 0.521569 0.54902 
0.0313725 0.521569 0.54902 0.0313725 0.521569 0.54902 
0.0313725 0.521569 0.54902 0.0313725 0.521569 0.54902 
0.0313725 0.521569 0.54902 0.0313725 0.521569 0.54902 
0.0313725 0.521569 0.54902 0.0313725 0.521569 0.54902 
0.0313725 0.521569 0.54902 0.0313725 0.521569 0.54902 
0.0313725 0.521569 0.54902 0.0313725 0.521569 0.54902 
0.0313725 0.521569 0.54902 0.0313725 0.521569 0.54902 
0.0313725 0.521569 0.54902 0.0313725 0.521569 0.54902 
0.0313725 0.521569 0.54902 0.0313725 0.521569 0.54902 
0.0313725 0.521569 0.54902 0.0313725 0.521569 0.54902 
0.0313725 0.521569 0.54902 0.0313725 0.521569 0.54902 
0.0313725 0.521569 0.54902 0.0313725 0.521569 0.54902 
0.0313725 0.521569 0.54902 0.0313725 0.521569 0.54902 
0.0313725 0.521569 0.54902 0.0313725 0.521569 0.54902 
0.0313725 0.521569 0.54902 0.0313725 0.521569 0.54902 
0.0313725 0.521569 0.54902 0.0313725 0.521569 0.54902 
0.0313725 0.521569 0.54902 0.0313725 0.521569 0.54902 
0.0313725 0.521569 0.54902 0.0313725 0.521569 0.54902 
0.0313725 0.521569 0.54902 0.0313725 0.521569 0.54902 
0.0313725 0.521569 0.54902 0.0313725 0.521569 0.54902 
0.0313725 0.521569 0.54902 0.0313725 0.521569 0.54902 
0.0313725 0.521569 0.54902 0.0313725 0.521569 0.54902 
0.0313725 0.521569 0.54902 0.0313725 0.521569 0.54902 
0.0313725 0.521569 0.54902 0.0313725 0.521569 0.54902 
0.0313725 0.521569 0.54902 0.0313725 0.521569 0.54902 
0.0313725 0.521569 0.54902 0.0313725 0.521569 0.54902 
0.0313725 0.521569 0.54902 0.0313725 0.521569 0.54902 
0.0313725 0.521569 0.54902 0.0313725 0.521569 0.54902 
0.0313725 0.521569 0.54902 0.0313725 0.521569 0.54902 
0.0313725 0.521569 0.54902 0.0313725 0.521569 0.54902 
0.0313725 0.521569 0.54902 0.0313725 0.521569 0.54902 
0.0313725 0.521569 0.54902 0.0313725 0.521569 0.54902 
0.0313725 0.521569 0.54902 0.0313725 0.521569 0.54902 
0.0313725 0.521569 0.54902 0.0313725 0.521569 0.54902 
0.0313725 0.521569 0.54902 0.0313725 0.521569 0.54902 
0.0313725 0.521569 0.54902 0.0313725 0.521569 0.54902 
0.0313725 0.521569 0.54902 0.0313725 0.521569 0.54902 
0.0313725 0.521569 0.54902 0.0313725 0.521569 0.54902 
0.0313725 0.521569 0.54902 0.0313725 0.521569 0.54902 
0.0313725 0.521569 0.54902 0.0313725 0.521569 0.54902 
0.0313725 0.521569 0.54902 0.0313725 0.521569 0.54902 
0.0313725 0.521569 0.54902 0.0313725 0.521569 0.54902 
0.0313725 0.521569 0.54902 0.0313725 0.521569 0.54902 
0.0313725 0.521569 0.54902 0.0313725 0.521569 0.54902 
0.0313725 0.521569 0.54902 0.0313725 0.521569 0.54902 
0.0313725 0.521569 0.54902 0.0313725 0.521569 0.54902 
0.0313725 0.521569 0.54902 0.0313725 0.521569 0.54902 
0.0313725 0.521569 0.54902 0.0313725 0.521569 0.54902 
0.0313725 0.521569 0.54902 0.0313725 0.521569 0.54902 
0.0313725 0.521569 0.54902 0.0313725 0.521569 0.54902 
0.0313725 0.521569 0.54902 0.0313725 0.521569 0.54902 
0.0313725 0.521569 0.54902 0.0313725 0.521569 0.54902 
0.0313725 0.521569 0.54902 0.0313725 0.521569 0.54902 
0.0313725 0.521569 0.54902 0.0313725 0.521569 0.54902 
0.0313725 0.521569 0.54902 0.0313725 0.521569 0.54902 
0.0313725 0.521569 0.54902 0.0313725 0.521569 0.54902 
0.0313725 0.521569 0.54902 0.0313725 0.521569 0.54902 
0.0313725 0.521569 0.54902 0.0313725 0.521569 0.54902 
0.0313725 0.521569 0.54902 0.0313725 0.521569 0.54902 
0.0313725 0.521569 0.54902 0.0313725 0.521569 0.54902 
0.0313725 0.521569 0.54902 0.0313725 0.521569 0.54902 
0.0313725 0.521569 0.54902 0.0313725 0.521569 0.54902 
0.0313725 0.521569 0.54902 0.0313725 0.521569 0.54902 
0.0313725 0.521569 0.54902 0.0313725 0.521569 0.54902 
0.0313725 0.521569 0.54902 0.0313725 0.521569 0.54902 
0.0313725 0.521569 0.54902 0.0313725 0.521569 0.54902 
0.0313725 0.521569 0.54902 0.0313725 0.521569 0.54902 
0.0313725 0.521569 0.54902 0.0313725 0.521569 0.54902 
0.0313725 0.521569 0.54902 0.0313725 0.521569 0.54902 
0.0313725 0.521569 0.54902 0.0313725 0.521569 0.54902 
0.0313725 0.521569 0.54902 0.0313725 0.521569 0.54902 
0.0313725 0.521569 0.54902 0.0313725 0.521569 0.54902 
0.0313725 0.521569 0.54902 0.0313725 0.521569 0.54902 
0.0313725 0.521569 0.54902 0.0313725 0.521569 0.54902 
0.0313725 0.521569 0.54902 0.0313725 0.521569 0.54902 
0.0313725 0.521569 0.54902 0.0313725 0.521569 0.54902 
0.0313725 0.521569 0.54902 0.0313725 0.521569 0.54902 
0.0313725 0.521569 0.54902 0.0313725 0.521569 0.54902 
0.0313725 0.521569 0.54902 0.0313725 0.521569 0.54902 
0.0313725 0.521569 0.54902 0.0313725 0.521569 0.54902 
0.0313725 0.521569 0.54902 0.0313725 0.521569 0.54902 
0.0313725 0.521569 0.54902 0.0313725 0.521569 0.54902 
0.0313725 0.521569 0.54902 0.0313725 0.521569 0.54902 
0.0313725 0.521569 0.54902 0.0313725 0.521569 0.54902 
0.0313725 0.521569 0.54902 0.0313725 0.521569 0.54902 
0.0313725 0.521569 0.54902 0.0313725 0.521569 0.54902 
0.0313725 0.521569 0.54902 0.0313725 0.521569 0.54902 
0.0313725 0.521569 0.54902 0.0313725 0.521569 0.54902 
0.0313725 0.521569 0.54902 0.0313725 0.521569 0.54902 
0.0313725 0.521569 0.54902 0.0313725 0.521569 0.54902 
0.0313725 0.521569 0.54902 0.0313725 0.521569 0.54902 
0.0313725 0.521569 0.54902 0.0313725 0.521569 0.54902 
0.0313725 0.521569 0.54902 0.0313725 0.521569 0.54902 
0.0313725 0.521569 0.54902 0.0313725 0.521569 0.54902 
0.0313725 0.521569 0.54902 0.0313725 0.521569 0.54902 
0.0313725 0.521569 0.54902 0.0313725 0.521569 0.54902 
0.0313725 0.521569 0.54902 0.0313725 0.521569 0.54902 
0.0313725 0.521569 0.54902 0.0313725 0.521569 0.54902 
0.0313725 0.521569 0.54902 0.0313725 0.521569 0.54902 
0.0313725 0.521569 0.54902 0.0313725 0.521569 0.54902 
0.0313725 0.521569 0.54902 0.0313725 0.521569 0.54902 
0.0313725 0.521569 0.54902 0.0313725 0.521569 0.54902 
0.0313725 0.521569 0.54902 0.0313725 0.521569 0.54902 
0.0313725 0.521569 0.54902 0.0313725 0.521569 0.54902 
0.0313725 0.521569 0.54902 0.0313725 0.521569 0.54902 
0.0313725 0.521569 0.54902 0.0313725 0.521569 0.54902 
0.0313725 0.521569 0.54902 0.0313725 0.521569 0.54902 
0.0313725 0.521569 0.54902 0.0313725 0.521569 0.54902 
0.0313725 0.521569 0.54902 0.0313725 0.521569 0.54902 
0.0313725 0.521569 0.54902 0.0313725 0.521569 0.54902 
0.0313725 0.521569 0.54902 0.0313725 0.521569 0.54902 
0.0313725 0.521569 0.54902 0.0313725 0.521569 0.54902 
0.0313725 0.521569 0.54902 0.0313725 0.521569 0.54902 
0.0313725 0.521569 0.54902 0.0313725 0.521569 0.54902 
0.0313725 0.521569 0.54902 0.0313725 0.521569 0.54902 
0.0313725 0.521569 0.54902 0.0313725 0.521569 0.54902 
0.0313725 0.521569 0.54902 0.0313725 0.521569 0.54902 
0.0313725 0.521569 0.54902 0.0313725 0.521569 0.54902 
0.0313725 0.521569 0.54902 0.0313725 0.521569 0.54902 
0.0313725 0.521569 0.54902 0.0313725 0.521569 0.54902 
0.0313725 0.521569 0.54902 0.0313725 0.521569 0.54902 
0.0313725 0.521569 0.54902 0.0313725 0.521569 0.54902 
0.0313725 0.521569 0.54902 0.0313725 0.521569 0.54902 
0.0313725 0.521569 0.54902 0.0313725 0.521569 0.54902 
0.0313725 0.521569 0.54902 0.0313725 0.521569 0.54902 
0.0313725 0.521569 0.54902 0.0313725 0.521569 0.54902 
0.0313725 0.521569 0.54902 0.0313725 0.521569 0.54902 
0.0313725 0.521569 0.54902 0.0313725 0.521569 0.54902 
0.0313725 0.521569 0.54902 0.0313725 0.521569 0.54902 
0.0313725 0.521569 0.54902 0.0313725 0.521569 0.54902 
0.0313725 0.521569 0.54902 0.0313725 0.521569 0.54902 
0.0313725 0.521569 0.54902 0.0313725 0.521569 0.54902 
0.0313725 0.521569 0.54902 0.0313725 0.521569 0.54902 
0.0313725 0.521569 0.54902 0.0313725 0.521569 0.54902 
0.0313725 0.521569 0.54902 0.0313725 0.521569 0.54902 
0.0313725 0.521569 0.54902 0.0313725 0.521569 0.54902 
0.0313725 0.521569 0.54902 0.0313725 0.521569 0.54902 
0.0313725 0.521569 0.54902 0.0313725 0.521569 0.54902 
0.0313725 0.521569 0.54902 0.0313725 0.521569 0.54902 
0.0313725 0.521569 0.54902 0.0313725 0.521569 0.54902 
0.0313725 0.521569 0.54902 0.0313725 0.521569 0.54902 
0.0313725 0.521569 0.54902 0.0313725 0.521569 0.54902 
0.0313725 0.521569 0.54902 0.0313725 0.521569 0.54902 
0.0313725 0.521569 0.54902 0.0313725 0.521569 0.54902 
0.0313725 0.521569 0.54902 0.0313725 0.521569 0.54902 
0.0313725 0.521569 0.54902 0.0313725 0.521569 0.54902 
0.0313725 0.521569 0.54902 0.0313725 0.521569 0.54902 
0.0313725 0.521569 0.54902 0.0313725 0.521569 0.54902 
0.0313725 0.521569 0.54902 0.0313725 0.521569 0.54902 
0.0313725 0.521569 0.54902 0.0313725 0.521569 0.54902 
0.0313725 0.521569 0.54902 0.0313725 0.521569 0.54902 
0.0313725 0.521569 0.54902 0.0313725 0.521569 0.54902 
0.0313725 0.521569 0.54902 0.0313725 0.521569 0.54902 
0.0313725 0.521569 0.54902 0.0313725 0.521569 0.54902 
0.0313725 0.521569 0.54902 0.0313725 0.521569 0.54902 
0.0313725 0.521569 0.54902 0.0313725 0.521569 0.54902 
0.0313725 0.521569 0.54902 0.0313725 0.521569 0.54902 
0.0313725 0.521569 0.54902 0.0313725 0.521569 0.54902 
0.0313725 0.521569 0.54902 0.0313725 0.521569 0.54902 
0.0313725 0.521569 0.54902 0.0313725 0.521569 0.54902 
0.0313725 0.521569 0.54902 0.0313725 0.521569 0.54902 
0.0313725 0.521569 0.54902 0.0313725 0.521569 0.54902 
0.0313725 0.521569 0.54902 0.0313725 0.521569 0.54902 
0.0313725 0.521569 0.54902 0.0313725 0.521569 0.54902 
0.0313725 0.521569 0.54902 0.0313725 0.521569 0.54902 
0.0313725 0.521569 0.54902 0.0313725 0.521569 0.54902 
0.0313725 0.521569 0.54902 0.0313725 0.521569 0.54902 
0.0313725 0.521569 0.54902 0.0313725 0.521569 0.54902 
0.0313725 0.521569 0.54902 0.0313725 0.521569 0.54902 
0.0313725 0.521569 0.54902 0.0313725 0.521569 0.54902 
0.0313725 0.521569 0.54902 0.0313725 0.521569 0.54902 
0.0313725 0.521569 0.54902 0.0313725 0.521569 0.54902 
0.0313725 0.521569 0.54902 0.0313725 0.521569 0.54902 
0.0313725 0.521569 0.54902 0.0313725 0.521569 0.54902 
0.0313725 0.521569 0.54902 0.0313725 0.521569 0.54902 
0.0313725 0.521569 0.54902 0.0313725 0.521569 0.54902 
0.0313725 0.521569 0.54902 0.0313725 0.521569 0.54902 
0.0313725 0.521569 0.54902 0.0313725 0.521569 0.54902 
0.0313725 0.521569 0.54902 0.0313725 0.521569 0.54902 
0.0313725 0.521569 0.54902 0.0313725 0.521569 0.54902 
0.0313725 0.521569 0.54902 0.0313725 0.521569 0.54902 
0.0313725 0.521569 0.54902 0.0313725 0.521569 0.54902 
0.0313725 0.521569 0.54902 0.0313725 0.521569 0.54902 
0.0313725 0.521569 0.54902 0.0313725 0.521569 0.54902 
0.0313725 0.521569 0.54902 0.0313725 0.521569 0.54902 
0.0313725 0.521569 0.54902 0.0313725 0.521569 0.54902 
0.0313725 0.521569 0.54902 0.0313725 0.521569 0.54902 
0.0313725 0.521569 0.54902 0.0313725 0.521569 0.54902 
0.0313725 0.521569 0.54902 0.0313725 0.521569 0.54902 
0.0313725 0.521569 0.54902 0.0313725 0.521569 0.54902 
0.0313725 0.521569 0.54902 0.0313725 0.521569 0.54902 
0.0313725 0.521569 0.54902 0.0313725 0.521569 0.54902 
0.0313725 0.521569 0.54902 0.0313725 0.521569 0.54902 
0.0313725 0.521569 0.54902 0.0313725 0.521569 0.54902 
0.0313725 0.521569 0.54902 0.0313725 0.521569 0.54902 
0.0313725 0.521569 0.54902 0.0313725 0.521569 0.54902 
0.0313725 0.521569 0.54902 0.0313725 0.521569 0.54902 
0.0313725 0.521569 0.54902 0.0313725 0.521569 0.54902 
0.0313725 0.521569 0.54902 0.0313725 0.521569 0.54902 
0.0313725 0.521569 0.54902 0.0313725 0.521569 0.54902 
0.0313725 0.521569 0.54902 0.0313725 0.521569 0.54902 
0.0313725 0.521569 0.54902 0.0313725 0.521569 0.54902 
0.0313725 0.521569 0.54902 0.0313725 0.521569 0.54902 
0.0313725 0.521569 0.54902 0.0313725 0.521569 0.54902 
0.0313725 0.521569 0.54902 0.0313725 0.521569 0.54902 
0.0313725 0.521569 0.54902 0.0313725 0.521569 0.54902 
0.0313725 0.521569 0.54902 0.0313725 0.521569 0.54902 
0.0313725 0.521569 0.54902 0.0313725 0.521569 0.54902 
0.0313725 0.521569 0.54902 0.0313725 0.521569 0.54902 
0.0313725 0.521569 0.54902 0.0313725 0.521569 0.54902 
0.0313725 0.521569 0.54902 0.0313725 0.521569 0.54902 
0.0313725 0.521569 0.54902 0.0313725 0.521569 0.54902 
0.0313725 0.521569 0.54902 0.0313725 0.521569 0.54902 
0.0313725 0.521569 0.54902 0.0313725 0.521569 0.54902 
0.0313725 0.521569 0.54902 0.0313725 0.521569 0.54902 
0.0313725 0.521569 0.54902 0.0313725 0.521569 0.54902 
0.0313725 0.521569 0.54902 0.0313725 0.521569 0.54902 
0.0313725 0.521569 0.54902 0.0313725 0.521569 0.54902 
0.0313725 0.521569 0.54902 0.0313725 0.521569 0.54902 
0.0313725 0.521569 0.54902 0.0313725 0.521569 0.54902 
0.0313725 0.521569 0.54902 0.0313725 0.521569 0.54902 
0.0313725 0.521569 0.54902 0.0313725 0.521569 0.54902 
0.0313725 0.521569 0.54902 0.0313725 0.521569 0.54902 
0.0313725 0.521569 0.54902 0.0313725 0.521569 0.54902 
0.0313725 0.521569 0.54902 0.0313725 0.521569 0.54902 
0.0313725 0.521569 0.54902 0.0313725 0.521569 0.54902 
0.0313725 0.521569 0.54902 0.0313725 0.521569 0.54902 
0.0313725 0.521569 0.54902 0.0313725 0.521569 0.54902 
0.0313725 0.521569 0.54902 0.0313725 0.521569 0.54902 
0.0313725 0.521569 0.54902 0.0313725 0.521569 0.54902 
0.0313725 0.521569 0.54902 0.0313725 0.521569 0.54902 
0.0313725 0.521569 0.54902 0.0313725 0.521569 0.54902 
0.0313725 0.521569 0.54902 0.0313725 0.521569 0.54902 
0.0313725 0.521569 0.54902 0.0313725 0.521569 0.54902 
0.0313725 0.521569 0.54902 0.0313725 0.521569 0.54902 
0.0313725 0.521569 0.54902 0.0313725 0.521569 0.54902 
0.0313725 0.521569 0.54902 0.0313725 0.521569 0.54902 
0.0313725 0.521569 0.54902 0.0313725 0.521569 0.54902 
0.0313725 0.521569 0.54902 0.0313725 0.521569 0.54902 
0.0313725 0.521569 0.54902 0.0313725 0.521569 0.54902 
0.0313725 0.521569 0.54902 0.0313725 0.521569 0.54902 
0.0313725 0.521569 0.54902 0.0313725 0.521569 0.54902 
0.0313725 0.521569 0.54902 0.0313725 0.521569 0.54902 
0.0313725 0.521569 0.54902 0.0313725 0.521569 0.54902 
0.0313725 0.521569 0.54902 0.0313725 0.521569 0.54902 
0.0313725 0.521569 0.54902 0.0313725 0.521569 0.54902 
0.0313725 0.521569 0.54902 0.0313725 0.521569 0.54902 
0.0313725 0.521569 0.54902 0.0313725 0.521569 0.54902 
0.0313725 0.521569 0.54902 0.0313725 0.521569 0.54902 
0.0313725 0.521569 0.54902 0.0313725 0.521569 0.54902 
0.0313725 0.521569 0.54902 0.0313725 0.521569 0.54902 
0.0313725 0.521569 0.54902 0.0313725 0.521569 0.54902 
0.0313725 0.521569 0.54902 0.0313725 0.521569 0.54902 
0.0313725 0.521569 0.54902 0.0313725 0.521569 0.54902 
0.0313725 0.521569 0.54902 0.0313725 0.521569 0.54902 
0.0313725 0.521569 0.54902 0.0313725 0.521569 0.54902 
0.0313725 0.521569 0.54902 0.0313725 0.521569 0.54902 
0.0313725 0.521569 0.54902 0.0313725 0.521569 0.54902 
0.0313725 0.521569 0.54902 0.0313725 0.521569 0.54902 
0.0313725 0.521569 0.54902 0.0313725 0.521569 0.54902 
0.0313725 0.521569 0.54902 0.0313725 0.521569 0.54902 
0.0313725 0.521569 0.54902 0.0313725 0.521569 0.54902 
0.0313725 0.521569 0.54902 0.0313725 0.521569 0.54902 
0.0313725 0.521569 0.54902 0.0313725 0.521569 0.54902 
0.0313725 0.521569 0.54902 0.0313725 0.521569 0.54902 
0.0313725 0.521569 0.54902 0.0313725 0.521569 0.54902 
0.0313725 0.521569 0.54902 0.0313725 0.521569 0.54902 
0.0313725 0.521569 0.54902 0.0313725 0.521569 0.54902 
0.0313725 0.521569 0.54902 0.0313725 0.521569 0.54902 
0.0313725 0.521569 0.54902 0.0313725 0.521569 0.54902 
0.0313725 0.521569 0.54902 0.0313725 0.521569 0.54902 
0.0313725 0.521569 0.54902 0.0313725 0.521569 0.54902 
0.0313725 0.521569 0.54902 0.0313725 0.521569 0.54902 
0.0313725 0.521569 0.54902 0.0313725 0.521569 0.54902 
0.0313725 0.521569 0.54902 0.0313725 0.521569 0.54902 
0.0313725 0.521569 0.54902 0.0313725 0.521569 0.54902 
0.0313725 0.521569 0.54902 0.0313725 0.521569 0.54902 
0.0313725 0.521569 0.54902 0.0313725 0.521569 0.54902 
0.0313725 0.521569 0.54902 0.0313725 0.521569 0.54902 
0.0313725 0.521569 0.54902 0.0313725 0.521569 0.54902 
0.0313725 0.521569 0.54902 0.0313725 0.521569 0.54902 
0.0313725 0.521569 0.54902 0.0313725 0.521569 0.54902 
0.0313725 0.521569 0.54902 0.0313725 0.521569 0.54902 
0.0313725 0.521569 0.54902 0.0313725 0.521569 0.54902 
0.0313725 0.521569 0.54902 0.0313725 0.521569 0.54902 
0.0313725 0.521569 0.54902 0.0313725 0.521569 0.54902 
0.0313725 0.521569 0.54902 0.0313725 0.521569 0.54902 
0.0313725 0.521569 0.54902 0.0313725 0.521569 0.54902 
0.0313725 0.521569 0.54902 0.0313725 0.521569 0.54902 
0.0313725 0.521569 0.54902 0.0313725 0.521569 0.54902 
0.0313725 0.521569 0.54902 0.0313725 0.521569 0.54902 
0.0313725 0.521569 0.54902 0.0313725 0.521569 0.54902 
0.0313725 0.521569 0.54902 0.0313725 0.521569 0.54902 
0.0313725 0.521569 0.54902 0.0313725 0.521569 0.54902 
0.0313725 0.521569 0.54902 0.0313725 0.521569 0.54902 
0.0313725 0.521569 0.54902 0.0313725 0.521569 0.54902 
0.0313725 0.521569 0.54902 0.0313725 0.521569 0.54902 
0.0313725 0.521569 0.54902 0.0313725 0.521569 0.54902 
0.0313725 0.521569 0.54902 0.0313725 0.521569 0.54902 
0.0313725 0.521569 0.54902 0.0313725 0.521569 0.54902 
0.0313725 0.521569 0.54902 0.0313725 0.521569 0.54902 
0.0313725 0.521569 0.54902 0.0313725 0.521569 0.54902 
0.0313725 0.521569 0.54902 0.0313725 0.521569 0.54902 
0.0313725 0.521569 0.54902 0.0313725 0.521569 0.54902 
0.0313725 0.521569 0.54902 0.0313725 0.521569 0.54902 
0.0313725 0.521569 0.54902 0.0313725 0.521569 0.54902 
0.0313725 0.521569 0.54902 0.0313725 0.521569 0.54902 
0.0313725 0.521569 0.54902 0.0313725 0.521569 0.54902 
0.0313725 0.521569 0.54902 0.0313725 0.521569 0.54902 
0.0313725 0.521569 0.54902 0.0313725 0.521569 0.54902 
0.0313725 0.521569 0.54902 0.0313725 0.521569 0.54902 
0.0313725 0.521569 0.54902 0.0313725 0.521569 0.54902 
0.0313725 0.521569 0.54902 0.0313725 0.521569 0.54902 
0.0313725 0.521569 0.54902 0.0313725 0.521569 0.54902 
0.0313725 0.521569 0.54902 0.0313725 0.521569 0.54902 
0.0313725 0.521569 0.54902 0.0313725 0.521569 0.54902 