# vtk DataFile Version 4.2
vtk output
ASCII
DATASET POLYDATA
POINTS 1142 float
393.252 80.4924 71.9523 393.214 80.4495 72.0652 393.226 80.6268 71.9799 
393.366 80.5626 71.9132 394.663 80.9835 71.5766 394.758 81.1691 71.5541 
395.167 81.6018 71.43 395.035 81.6136 71.4643 395.138 81.7123 71.4159 
395.291 81.7122 71.4518 395.137 81.9 71.5088 397.406 82.8796 71.4013 
397.305 82.5959 71.5248 397.226 82.952 71.4191 398.378 83.7423 71.2975 
398.417 83.9357 71.3086 399.305 85.3929 71.3042 399.758 85.5975 71.2661 
400.254 85.6917 71.2677 402.017 87.0146 71.3295 401.564 87.263 71.2719 
401.944 87.3235 71.2951 402.254 87.6991 71.4119 404.089 89.768 71.7491 
404.027 89.9882 71.7688 394.113 79.6815 72.6584 393.296 80.2512 72.3894 
393.68 80.5164 71.9332 393.493 80.8483 71.8856 393.168 80.9022 72.1471 
395.282 81.352 71.5893 393.414 81.1829 71.9698 394.559 81.479 71.6217 
396.605 82.7247 71.5306 395.482 83.1126 71.8639 398.878 84.1862 71.3596 
398.16 84.2395 71.4185 397.932 85.504 72.0371 401.679 85.5389 71.7314 
399.778 87.3705 71.92 402.955 87.8592 71.6612 402.187 88.2935 71.5657 
403.573 90.0287 71.8453 405.577 90.1877 72.2091 404.786 91.4865 72.2098 
405.391 91.679 72.2971 393.751 79.5607 73.1676 393.187 80.1797 72.9351 
392.804 81.1854 72.7298 392.93 81.3598 72.5628 392.834 81.4212 72.8449 
393.27 81.435 72.2411 398.039 82.1068 71.9507 394.389 82.4189 71.9969 
394.127 82.7447 72.5303 394.432 83.0344 72.6333 403.088 90.4528 72.2383 
404.082 91.3618 72.3332 406.058 92.3779 72.5964 406.839 92.5778 72.7781 
407.368 91.9668 73.0294 406.623 93.5085 72.9203 407.17 93.6003 73.0053 
407.722 93.5484 73.1529 408.864 94.4858 73.5434 408.84 94.8984 73.4826 
408.692 95.1217 73.4654 394.553 78.6815 74.1814 394.264 78.9657 73.8345 
393.894 79.2811 73.7786 392.966 80.5254 73.1147 392.84 80.8589 73.284 
392.768 81.1629 73.0337 392.812 81.4231 73.1814 393.544 82.3081 73.2013 
394.542 83.1811 73.0834 403.258 91.8713 73.67 404.467 92.7943 73.3284 
406.125 93.5299 73.0254 404.442 93.0717 73.8574 404.921 93.35 73.6833 
409.479 95.0663 73.8669 406.791 95.0842 73.8759 407.835 95.0243 73.496 
407.374 95.5726 73.9746 408.571 96.7039 74.0301 409.82 96.5755 74.0783 
409.112 97.1554 74.0702 410.274 96.7074 74.2799 410.535 97.0288 74.4725 
409.124 97.554 74.2277 408.962 97.6087 74.3421 409.495 97.6013 74.2281 
410.46 97.5667 74.5202 410.229 97.9602 74.5305 394.552 78.5282 74.6437 
396.034 78.0082 75.0197 393.933 79.0869 74.536 392.937 81.6244 73.3423 
394.147 82.7119 73.9311 394.921 83.3724 74.0619 404.126 92.9099 74.3305 
404.372 93.1227 74.1972 404.399 93.1387 74.4709 405.687 94.3309 74.5797 
406.468 95.1699 74.5892 407.631 96.2709 74.3757 407.467 96.3139 74.7382 
410.788 97.6593 74.8226 409.734 98.2911 74.6753 410.573 98.3833 74.9595 
409.61 98.5749 75.1387 409.655 98.6343 75.4711 410.476 98.5602 75.0553 
410.677 98.4833 75.1763 409.829 98.7308 75.213 410.041 98.7735 75.1999 
396.081 77.3941 76.1135 394.713 78.3114 75.1908 409.656 93.1326 74.6636 
410.586 93.7755 75.5595 406.058 94.6719 75.4351 411.066 94.9035 75.6366 
411.075 96.9932 75.1405 410.997 97.4309 75.0621 411.084 97.9416 75.6922 
410.592 98.6299 75.4358 410.465 98.753 75.7353 410.838 98.3728 75.4347 
409.974 98.7914 75.4623 410.202 98.7842 75.7943 410.26 98.7893 75.4258 
396.132 77.2158 76.3165 395.804 77.4252 76.5363 396.813 77.127 76.7202 
393.9 79.3163 75.5493 394.1 80.2288 76.3224 410.51 98.6659 76.206 
409.802 98.5494 76.2923 394.236 79.4179 76.7029 411.307 97.9035 77.528 
396.942 83.1189 77.5518 405.744 93.0727 77.5174 411.562 92.9075 77.812 
412.222 95.6563 78.4672 411.744 97.4851 78.0752 410.143 97.888 78.2119 
410.545 98.1918 77.699 407.657 95.1888 78.3784 412.393 96.3044 79.3141 
411.446 97.4979 78.8749 399.192 75.2186 80.6343 400.769 75.3469 80.5468 
397.125 76.4876 79.7331 409.649 96.3131 80.4566 411.458 97.2483 79.7678 
400.731 74.425 81.8167 399.303 74.8787 81.4443 396.245 78.8417 79.8981 
410.781 96.5386 81.551 411.404 96.7021 81.5521 400.451 73.9249 82.6261 
400.444 73.8033 82.9927 396.862 77.2907 80.9665 413.229 95.5065 81.9872 
411.286 96.3538 82.6254 401.022 73.461 83.6158 399.1 74.639 82.8095 
397.744 77.353 82.3974 413.246 95.5741 83.3167 401.368 72.9723 84.3296 
401.379 72.9314 84.431 401.271 73.0098 84.4054 401.436 72.9536 84.4047 
401.553 73.1135 84.2742 402.186 73.5971 83.7267 399.607 74.2792 84.2714 
398.844 75.0161 83.5098 412.022 96.1323 84.5035 401.474 72.9908 84.6049 
398.916 75.9253 84.7033 409.704 93.5329 85.1587 411.097 95.1233 86.2546 
411.718 95.8867 85.5041 411.954 95.9114 85.9426 401.654 73.1039 85.5408 
402.476 73.1191 85.5285 399.638 74.652 85.4445 399.375 75.0191 85.4135 
399.195 75.2413 85.1797 399.715 77.0288 85.5018 408.857 78.8614 85.8211 
413.576 89.9178 85.9861 411.636 95.4005 87.0164 412.232 95.9592 86.1189 
412.438 95.8922 86.5627 412.559 95.9456 86.0844 402.438 73.1912 86.0827 
406.487 75.0768 86.4125 399.728 75.6619 86.0992 414.164 91.8424 87.0593 
412.693 95.8385 86.7422 412.9 95.67 87.1826 412.931 95.7409 86.6537 
401.232 73.8047 86.7117 402.257 73.7081 87.3457 402.912 73.6328 87.5581 
403.921 73.619 87.9811 405.636 74.0417 87.0159 400.076 74.8215 86.4209 
406.478 74.3454 87.5691 399.949 75.1144 86.4109 399.818 75.3002 86.2701 
413.501 94.9636 87.8238 411.737 95.0315 89.1283 412.632 95.417 88.3747 
404.931 73.7222 88.9593 406.555 74.1795 88.0908 402.91 74.2952 88.6385 
410.617 93.419 89.8476 410.97 94.0424 90.1929 413.107 95.1128 89.1934 
404.687 73.8568 89.497 405.375 73.8537 90.0301 406.484 73.9049 89.2565 
404.399 74.2254 90.0596 403.929 74.5067 89.8635 402.395 75.2199 88.7449 
405.909 73.811 90.2866 405.321 74.0853 90.6711 403.764 76.5328 90.2412 
409.297 87.9176 90.9225 412.705 95.0399 91.5434 407.09 73.9052 90.9841 
408.444 74.1962 91.8064 404.345 75.3809 90.8873 404.296 75.8466 90.9757 
412.172 78.8932 92.1008 412.258 94.9849 92.8411 408.57 74.0366 92.3681 
408.445 74.054 92.2924 408.652 74.1017 92.3239 408.017 74.0763 92.4149 
405.425 77.1592 92.3835 408.589 74.0862 92.5578 409.462 74.3404 93.1847 
409.477 74.2422 93.5695 406.817 74.5023 93.0813 408.735 74.1507 93.2573 
411.511 76.1171 93.9726 409.275 74.1873 93.8238 408.228 74.3141 94.4017 
406.9 75.4138 94.4228 407.996 74.4981 94.7295 406.812 77.2462 94.6617 
410.514 74.4456 95.2675 410.48 74.3331 95.6497 409.133 74.3095 95.5565 
407.548 75.3072 95.3942 408.146 74.7043 95.4501 407.086 76.477 95.3008 
408.927 82.0663 96.1427 410.671 93.3017 96.8201 410.577 74.3379 95.9909 
410.24 74.2826 95.8915 410.83 74.4591 96.1756 408.711 74.4565 95.7372 
407.403 75.8934 95.7085 408.673 74.6467 96.2654 414.199 93.2933 97.0768 
410.566 74.3201 97.5502 411.509 94.8967 99.3371 413.039 94.8069 98.3551 
411.005 74.2454 98.1174 411.534 74.3637 98.5431 408.847 75.5208 98.2035 
410.779 94.4949 100.226 411.632 95.0754 100.169 411.295 74.2312 99.5233 
410.86 74.2659 99.1285 409.363 75.2244 99.0731 410.467 74.4947 99.5923 
408.88 76.5359 99.2341 413.8 77.0272 99.6461 410.137 92.6049 100.368 
410.204 93.6786 101.066 411.051 94.9014 101.251 411.969 95.1557 100.639 
411.395 74.2775 100.232 411.966 74.4721 100.25 409.96 75.135 100.622 
409.172 76.0354 99.8184 413.35 75.8395 100.738 409.265 77.3915 100.596 
409.877 83.045 101.006 412.304 95.0988 101.176 411.781 74.2473 100.404 
411.68 74.2405 100.505 409.682 75.5026 100.713 410.98 74.6681 101.32 
411.708 74.4723 101.015 411.739 74.2509 100.703 413.094 75.4027 101.602 
409.679 75.7415 101.058 409.418 75.9339 100.519 413.678 76.1908 101.568 
409.356 76.3674 100.716 414.392 78.3712 101.793 413.531 94.0751 101.985 
411.754 74.2069 100.58 411.222 74.7681 102.101 411.045 75.0625 102.578 
411.966 74.6776 102.315 409.717 93.4714 103.668 413.221 94.2117 103.14 
410.57 94.9058 104.208 413.392 75.8426 103.198 411.77 75.2251 103.613 
413.927 92.7 103.871 413.705 93.3321 103.688 409.807 94.5123 105.057 
409.556 94.2526 105.354 412.496 94.6721 103.842 410.155 94.8208 105.181 
412.185 75.1226 103.606 411.059 76.073 104.342 410.6 76.2335 103.592 
412.245 75.4693 104.281 412.813 75.5893 104.185 413.2 75.8006 103.906 
414.181 77.7912 104.425 409.244 93.3148 105.347 412.869 94.0653 104.963 
411.462 76.1276 105.155 413.531 76.5822 104.908 414.522 79.4551 105.632 
414.254 90.0718 105.933 409.028 92.5399 105.897 411.837 76.4933 106.581 
413.854 77.4366 105.905 414.286 78.7346 106.408 408.913 91.5314 106.533 
412.621 76.3408 106.46 411.676 76.8122 106.989 412.094 76.6155 107.098 
413.188 76.8457 106.776 411.363 94.6289 107.82 409.555 94.9879 109.027 
410.913 78.7804 108.142 412.74 92.0317 109.076 411.747 93.7951 109.405 
409.861 95.0044 109.498 412.916 77.551 109.052 413.317 77.7227 108.739 
413.694 78.2772 108.77 408.161 94.579 111.348 411.373 78.4931 109.824 
413.869 79.2006 110.083 414.225 80.6286 110.459 407.545 93.4046 111.658 
407.604 93.9402 111.816 410.252 94.6101 111.306 410.632 94.3247 111.318 
409.672 94.9038 111.217 413.439 78.8107 110.863 407.132 92.9408 112.739 
407.172 93.4654 112.822 410.914 93.895 111.62 411.979 78.4851 111.668 
412.447 78.3738 111.522 411.685 78.873 112.336 406.948 92.1387 113.421 
407.561 94.945 114.159 409.929 81.2303 113.185 406.842 91.2246 114.169 
409.768 94.3288 114.02 406.729 94.5845 115.071 407.053 94.9537 115.116 
407.55 95.1538 114.928 411.269 79.4704 113.72 412.996 79.5788 113.727 
413.59 81.3493 114.159 406.134 93.7744 115.889 406.202 94.2715 115.993 
408.99 94.7974 114.965 412.364 79.5325 114.729 413.27 80.6815 114.787 
413.033 80.4521 115.169 406.055 92.6945 116.136 410.017 93.0848 116.036 
409.512 94.0388 115.853 406.268 95.3747 117.041 406.95 95.4673 116.607 
407.669 95.3239 116.349 412.34 79.8491 115.453 412.824 80.1148 115.152 
412.799 81.0173 116.282 412.91 81.5486 116.346 413.007 82.0563 116.142 
411.392 88.5012 117.258 405.438 95.4008 118.35 406.171 95.8266 117.647 
405.98 95.9444 117.955 406.176 96.1595 118.185 410.927 79.9689 117.333 
412.003 80.0843 116.592 412.517 80.8948 117.006 405.111 94.6525 118.691 
405.732 95.973 118.335 405.738 96.3954 118.784 405.795 96.6759 119.072 
[...]
POINT_DATA 1142
COLOR_SCALARS scalars 3
0.0313725 0.521569 0.54902 0.0313725 0.521569 0.54902 0.0313725 0.521569 0.54902 
0.0313725 0.521569 0.54902 0.0313725 0.521569 0.54902 
0.0313725 0.521569 0.54902 0.0313725 0.521569 0.54902 
0.0313725 0.521569 0.54902 0.0313725 0.521569 0.54902 
0.0313725 0.521569 0.54902 0.0313725 0.521569 0.54902 
0.0313725 0.521569 0.54902 0.0313725 0.521569 0.54902 
0.0313725 0.521569 0.54902 0.0313725 0.521569 0.54902 
0.0313725 0.521569 0.54902 0.0313725 0.521569 0.54902 
0.0313725 0.521569 0.54902 0.0313725 0.521569 0.54902 
0.0313725 0.521569 0.54902 0.0313725 0.521569 0.54902 
0.0313725 0.521569 0.54902 0.0313725 0.521569 0.54902 
0.0313725 0.521569 0.54902 0.0313725 0.521569 0.54902 
0.0313725 0.521569 0.54902 0.0313725 0.521569 0.54902 
0.0313725 0.521569 0.54902 0.0313725 0.521569 0.54902 
0.0313725 0.521569 0.54902 0.0313725 0.521569 0.54902 
0.0313725 0.521569 0.54902 0.0313725 0.521569 0.54902 
0.0313725 0.521569 0.54902 0.0313725 0.521569 0.54902 
0.0313725 0.521569 0.54902 0.0313725 0.521569 0.54902 
0.0313725 0.521569 0.54902 0.0313725 0.521569 0.54902 
0.0313725 0.521569 0.54902 0.0313725 0.521569 0.54902 
0.0313725 0.521569 0.54902 0.0313725 0.521569 0.54902 
0.0313725 0.521569 0.54902 0.0313725 0.521569 0.54902 
0.0313725 0.521569 0.54902 0.0313725 0.521569 0.54902 
0.0313725 0.521569 0.54902 0.0313725 0.521569 0.54902 
0.0313725 0.521569 0.54902 0.0313725 0.521569 0.54902 
0.0313725 0.521569 0.54902 0.0313725 0.521569 0.54902 
0.0313725 0.521569 0.54902 0.0313725 0.521569 0.54902 
0.0313725 0.521569 0.54902 0.0313725 0.521569 0.54902 
0.0313725 0.521569 0.54902 0.0313725 0.521569 0.54902 
0.0313725 0.521569 0.54902 0.0313725 0.521569 0.54902 
0.0313725 0.521569 0.54902 0.0313725 0.521569 0.54902 
0.0313725 0.521569 0.54902 0.0313725 0.521569 0.54902 
0.0313725 0.521569 0.54902 0.0313725 0.521569 0.54902 
0.0313725 0.521569 0.54902 0.0313725 0.521569 0.54902 
0.0313725 0.521569 0.54902 0.0313725 0.521569 0.54902 
0.0313725 0.521569 0.54902 0.0313725 0.521569 0.54902 
0.0313725 0.521569 0.54902 0.0313725 0.521569 0.54902 
0.0313725 0.521569 0.54902 0.0313725 0.521569 0.54902 
0.0313725 0.521569 0.54902 0.0313725 0.521569 0.54902 
0.0313725 0.521569 0.54902 0.0313725 0.521569 0.54902 
0.0313725 0.521569 0.54902 0.0313725 0.521569 0.54902 
0.0313725 0.521569 0.54902 0.0313725 0.521569 0.54902 
0.0313725 0.521569 0.54902 0.0313725 0.521569 0.54902 
0.0313725 0.521569 0.54902 0.0313725 0.521569 0.54902 
0.0313725 0.521569 0.54902 0.0313725 0.521569 0.54902 
0.0313725 0.521569 0.54902 0.0313725 0.521569 0.54902 
0.0313725 0.521569 0.54902 0.0313725 0.521569 0.54902 
0.0313725 0.521569 0.54902 0.0313725 0.521569 0.54902 
0.0313725 0.521569 0.54902 0.0313725 0.521569 0.54902 
0.0313725 0.521569 0.54902 0.0313725 0.521569 0.54902 
0.0313725 0.521569 0.54902 0.0313725 0.521569 0.54902 
0.0313725 0.521569 0.54902 0.0313725 0.521569 0.54902 
0.0313725 0.521569 0.54902 0.0313725 0.521569 0.54902 
0.0313725 0.521569 0.54902 0.0313725 0.521569 0.54902 
0.0313725 0.521569 0.54902 0.0313725 0.521569 0.54902 
0.0313725 0.521569 0.54902 0.0313725 0.521569 0.54902 
0.0313725 0.521569 0.54902 0.0313725 0.521569 0.54902 
0.0313725 0.521569 0.54902 0.0313725 0.521569 0.54902 
0.0313725 0.521569 0.54902 0.0313725 0.521569 0.54902 
0.0313725 0.521569 0.54902 0.0313725 0.521569 0.54902 
0.0313725 0.521569 0.54902 0.0313725 0.521569 0.54902 
0.0313725 0.521569 0.54902 0.0313725 0.521569 0.54902 
0.0313725 0.521569 0.54902 0.0313725 0.521569 0.54902 
0.0313725 0.521569 0.54902 0.0313725 0.521569 0.54902 
0.0313725 0.521569 0.54902 0.0313725 0.521569 0.54902 
0.0313725 0.521569 0.54902 0.0313725 0.521569 0.54902 
0.0313725 0.521569 0.54902 0.0313725 0.521569 0.54902 
0.0313725 0.521569 0.54902 0.0313725 0.521569 0.54902 
0.0313725 0.521569 0.54902 0.0313725 0.521569 0.54902 
0.0313725 0.521569 0.54902 0.0313725 0.521569 0.54902 
0.0313725 0.521569 0.54902 0.0313725 0.521569 0.54902 
0.0313725 0.521569 0.54902 0.0313725 0.521569 0.54902 
0.0313725 0.521569 0.54902 0.0313725 0.521569 0.54902 
0.0313725 0.521569 0.54902 0.0313725 0.521569 0.54902 
0.0313725 0.521569 0.54902 0.0313725 0.521569 0.54902 
0.0313725 0.521569 0.54902 0.0313725 0.521569 0.54902 
0.0313725 0.521569 0.54902 0.0313725 0.521569 0.54902 
0.0313725 0.521569 0.54902 0.0313725 0.521569 0.54902 
0.0313725 0.521569 0.54902 0.0313725 0.521569 0.54902 
0.0313725 0.521569 0.54902 0.0313725 0.521569 0.54902 
0.0313725 0.521569 0.54902 0.0313725 0.521569 0.54902 
0.0313725 0.521569 0.54902 0.0313725 0.521569 0.54902 
0.0313725 0.521569 0.54902 0.0313725 0.521569 0.54902 
0.0313725 0.521569 0.54902 0.0313725 0.521569 0.54902 
0.0313725 0.521569 0.54902 0.0313725 0.521569 0.54902 
0.0313725 0.521569 0.54902 0.0313725 0.521569 0.54902 
0.0313725 0.521569 0.54902 0.0313725 0.521569 0.54902 
0.0313725 0.521569 0.54902 0.0313725 0.521569 0.54902 
0.0313725 0.521569 0.54902 0.0313725 0.521569 0.54902 
0.0313725 0.521569 0.54902 0.0313725 0.521569 0.54902 
0.0313725 0.521569 0.54902 0.0313725 0.521569 0.54902 
0.0313725 0.521569 0.54902 0.0313725 0.521569 0.54902 
0.0313725 0.521569 0.54902 0.0313725 0.521569 0.54902 
0.0313725 0.521569 0.54902 0.0313725 0.521569 0.54902 
0.0313725 0.521569 0.54902 0.0313725 0.521569 0.54902 
0.0313725 0.521569 0.54902 0.0313725 0.521569 0.54902 
0.0313725 0.521569 0.54902 0.0313725 0.521569 0.54902 
0.0313725 0.521569 0.54902 0.0313725 0.521569 0.54902 
0.0313725 0.521569 0.54902 0.0313725 0.521569 0.54902 
0.0313725 0.521569 0.54902 0.0313725 0.521569 0.54902 
0.0313725 0.521569 0.54902 0.0313725 0.521569 0.54902 
0.0313725 0.521569 0.54902 0.0313725 0.521569 0.54902 
0.0313725 0.521569 0.54902 0.0313725 0.521569 0.54902 
0.0313725 0.521569 0.54902 0.0313725 0.521569 0.54902 
0.0313725 0.521569 0.54902 0.0313725 0.521569 0.54902 
0.0313725 0.521569 0.54902 0.0313725 0.521569 0.54902 
0.0313725 0.521569 0.54902 0.0313725 0.521569 0.54902 
0.0313725 0.521569 0.54902 0.0313725 0.521569 0.54902 
0.0313725 0.521569 0.54902 0.0313725 0.521569 0.54902 
0.0313725 0.521569 0.54902 0.0313725 0.521569 0.54902 
0.0313725 0.521569 0.54902 0.0313725 0.521569 0.54902 
0.0313725 0.521569 0.54902 0.0313725 0.521569 0.54902 
0.0313725 0.521569 0.54902 0.0313725 0.521569 0.54902 
0.0313725 0.521569 0.54902 0.0313725 0.521569 0.54902 
0.0313725 0.521569 0.54902 0.0313725 0.521569 0.54902 
0.0313725 0.521569 0.54902 0.0313725 0.521569 0.54902 
0.0313725 0.521569 0.54902 0.0313725 0.521569 0.54902 
0.0313725 0.521569 0.54902 0.0313725 0.521569 0.54902 
0.0313725 0.521569 0.54902 0.0313725 0.521569 0.54902 
0.0313725 0.521569 0.54902 0.0313725 0.521569 0.54902 
0.0313725 0.521569 0.54902 0.0313725 0.521569 0.54902 
0.0313725 0.521569 0.54902 0.0313725 0.521569 0.54902 
0.0313725 0.521569 0.54902 0.0313725 0.521569 0.54902 
0.0313725 0.521569 0.54902 0.0313725 0.521569 0.54902 
0.0313725 0.521569 0.54902 0.0313725 0.521569 0.54902 
0.0313725 0.521569 0.54902 0.0313725 0.521569 0.54902 
0.0313725 0.521569 0.54902 0.0313725 0.521569 0.54902 
0.0313725 0.521569 0.54902 0.0313725 0.521569 0.54902 
0.0313725 0.521569 0.54902 0.0313725 0.521569 0.54902 
0.0313725 0.521569 0.54902 0.0313725 0.521569 0.54902 
0.0313725 0.521569 0.54902 0.0313725 0.521569 0.54902 
0.0313725 0.521569 0.54902 0.0313725 0.521569 0.54902 
0.0313725 0.521569 0.54902 0.0313725 0.521569 0.54902 
0.0313725 0.521569 0.54902 0.0313725 0.521569 0.54902 
0.0313725 0.521569 0.54902 0.0313725 0.521569 0.54902 
0.0313725 0.521569 0.54902 0.0313725 0.521569 0.54902 
0.0313725 0.521569 0.54902 0.0313725 0.521569 0.54902 
0.0313725 0.521569 0.54902 0.0313725 0.521569 0.54902 
0.0313725 0.521569 0.54902 0.0313725 0.521569 0.54902 
0.0313725 0.521569 0.54902 0.0313725 0.521569 0.54902 
0.0313725 0.521569 0.54902 0.0313725 0.521569 0.54902 
0.0313725 0.521569 0.54902 0.0313725 0.521569 0.54902 
0.0313725 0.521569 0.54902 0.0313725 0.521569 0.54902 
0.0313725 0.521569 0.54902 0.0313725 0.521569 0.54902 
0.0313725 0.521569 0.54902 0.0313725 0.521569 0.54902 
0.0313725 0.521569 0.54902 0.0313725 0.521569 0.54902 
0.0313725 0.521569 0.54902 0.0313725 0.521569 0.54902 
0.0313725 0.521569 0.54902 0.0313725 0.521569 0.54902 
0.0313725 0.521569 0.54902 0.0313725 0.521569 0.54902 
0.0313725 0.521569 0.54902 0.0313725 0.521569 0.54902 
0.0313725 0.521569 0.54902 0.0313725 0.521569 0.54902 
0.0313725 0.521569 0.54902 0.0313725 0.521569 0.54902 
0.0313725 0.521569 0.54902 0.0313725 0.521569 0.54902 
0.0313725 0.521569 0.54902 0.0313725 0.521569 0.54902 
0.0313725 0.521569 0.54902 0.0313725 0.521569 0.54902 
0.0313725 0.521569 0.54902 0.0313725 0.521569 0.54902 
0.0313725 0.521569 0.54902 0.0313725 0.521569 0.54902 
0.0313725 0.521569 0.54902 0.0313725 0.521569 0.54902 
0.0313725 0.521569 0.54902 0.0313725 0.521569 0.54902 
0.0313725 0.521569 0.54902 0.0313725 0.521569 0.54902 
0.0313725 0.521569 0.54902 0.0313725 0.521569 0.54902 
0.0313725 0.521569 0.54902 0.0313725 0.521569 0.54902 
0.0313725 0.521569 0.54902 0.0313725 0.521569 0.54902 
0.0313725 0.521569 0.54902 0.0313725 0.521569 0.54902 
0.0313725 0.521569 0.54902 0.0313725 0.521569 0.54902 
0.0313725 0.521569 0.54902 0.0313725 0.521569 0.54902 
0.0313725 0.521569 0.54902 0.0313725 0.521569 0.54902 
0.0313725 0.521569 0.54902 0.0313725 0.521569 0.54902 
0.0313725 0.521569 0.54902 0.0313725 0.521569 0.54902 
0.0313725 0.521569 0.54902 0.0313725 0.521569 0.54902 
0.0313725 0.521569 0.54902 0.0313725 0.521569 0.54902 
0.0313725 0.521569 0.54902 0.0313725 0.521569 0.54902 
0.0313725 0.521569 0.54902 0.0313725 0.521569 0.54902 
0.0313725 0.521569 0.54902 0.0313725 0.521569 0.54902 
0.0313725 0.521569 0.54902 0.0313725 0.521569 0.54902 
0.0313725 0.521569 0.54902 0.0313725 0.521569 0.54902 
0.0313725 0.521569 0.54902 0.0313725 0.521569 0.54902 
0.0313725 0.521569 0.54902 0.0313725 0.521569 0.54902 
0.0313725 0.521569 0.54902 0.0313725 0.521569 0.54902 
0.0313725 0.521569 0.54902 0.0313725 0.521569 0.54902 
0.0313725 0.521569 0.54902 0.0313725 0.521569 0.54902 
0.0313725 0.521569 0.54902 0.0313725 0.521569 0.54902 
0.0313725 0.521569 0.54902 0.0313725 0.521569 0.54902 
0.0313725 0.521569 0.54902 0.0313725 0.521569 0.54902 
0.0313725 0.521569 0.54902 0.0313725 0.521569 0.54902 
0.0313725 0.521569 0.54902 0.0313725 0.521569 0.54902 
0.0313725 0.521569 0.54902 0.0313725 0.521569 0.54902 
0.0313725 0.521569 0.54902 0.0313725 0.521569 0.54902 
0.0313725 0.521569 0.54902 0.0313725 0.521569 0.54902 
0.0313725 0.521569 0.54902 0.0313725 0.521569 0.54902 
0.0313725 0.521569 0.54902 0.0313725 0.521569 0.54902 
0.0313725 0.521569 0.54902 0.0313725 0.521569 0.54902 
0.0313725 0.521569 0.54902 0.0313725 0.521569 0.54902 
0.0313725 0.521569 0.54902 0.0313725 0.521569 0.54902 
0.0313725 0.521569 0.54902 0.0313725 0.521569 0.54902 
0.0313725 0.521569 0.54902 0.0313725 0.521569 0.54902 
0.0313725 0.521569 0.54902 0.0313725 0.521569 0.54902 
0.0313725 0.521569 0.54902 0.0313725 0.521569 0.54902 
0.0313725 0.521569 0.54902 0.0313725 0.521569 0.54902 
0.0313725 0.521569 0.54902 0.0313725 0.521569 0.54902 
0.0313725 0.521569 0.54902 0.0313725 0.521569 0.54902 
0.0313725 0.521569 0.54902 0.0313725 0.521569 0.54902 
0.0313725 0.521569 0.54902 0.0313725 0.521569 0.54902 
0.0313725 0.521569 0.54902 0.0313725 0.521569 0.54902 
0.0313725 0.521569 0.54902 0.0313725 0.521569 0.54902 
0.0313725 0.521569 0.54902 0.0313725 0.521569 0.54902 
0.0313725 0.521569 0.54902 0.0313725 0.521569 0.54902 
0.0313725 0.521569 0.54902 0.0313725 0.521569 0.54902 
0.0313725 0.521569 0.54902 0.0313725 0.521569 0.54902 
0.0313725 0.521569 0.54902 0.0313725 0.521569 0.54902 
0.0313725 0.521569 0.54902 0.0313725 0.521569 0.54902 
0.0313725 0.521569 0.54902 0.0313725 0.521569 0.54902 
0.0313725 0.521569 0.54902 0.0313725 0.521569 0.54902 
0.0313725 0.521569 0.54902 0.0313725 0.521569 0.54902 
0.0313725 0.521569 0.54902 0.0313725 0.521569 0.54902 
0.0313725 0.521569 0.54902 0.0313725 0.521569 0.54902 
0.0313725 0.521569 0.54902 0.0313725 0.521569 0.54902 
0.0313725 0.521569 0.54902 0.0313725 0.521569 0.54902 
0.0313725 0.521569 0.54902 0.0313725 0.521569 0.54902 
0.0313725 0.521569 0.54902 0.0313725 0.521569 0.54902 
0.0313725 0.521569 0.54902 0.0313725 0.521569 0.54902 
0.0313725 0.521569 0.54902 0.0313725 0.521569 0.54902 
0.0313725 0.521569 0.54902 0.0313725 0.521569 0.54902 
0.0313725 0.521569 0.54902 0.0313725 0.521569 0.54902 
0.0313725 0.521569 0.54902 0.0313725 0.521569 0.54902 
0.0313725 0.521569 0.54902 0.0313725 0.521569 0.54902 
0.0313725 0.521569 0.54902 0.0313725 0.521569 0.54902 
0.0313725 0.521569 0.54902 0.0313725 0.521569 0.54902 
0.0313725 0.521569 0.54902 0.0313725 0.521569 0.54902 
0.0313725 0.521569 0.54902 0.0313725 0.521569 0.54902 
0.0313725 0.521569 0.54902 0.0313725 0.521569 0.54902 
0.0313725 0.521569 0.54902 0.0313725 0.521569 0.54902 
0.0313725 0.521569 0.54902 0.0313725 0.521569 0.54902 
0.0313725 0.521569 0.54902 0.0313725 0.521569 0.54902 
0.0313725 0.521569 0.54902 0.0313725 0.521569 0.54902 
0.0313725 0.521569 0.54902 0.0313725 0.521569 0.54902 
0.0313725 0.521569 0.54902 0.0313725 0.521569 0.54902 
0.0313725 0.521569 0.54902 0.0313725 0.521569 0.54902 
0.0313725 0.521569 0.54902 0.0313725 0.521569 0.54902 
0.0313725 0.521569 0.54902 0.0313725 0.521569 0.54902 
0.0313725 0.521569 0.54902 0.0313725 0.521569 0.54902 
0.0313725 0.521569 0.54902 0.0313725 0.521569 0.54902 
0.0313725 0.521569 0.54902 0.0313725 0.521569 0.54902 
0.0313725 0.521569 0.54902 0.0313725 0.521569 0.54902 
0.0313725 0.521569 0.54902 0.0313725 0.521569 0.54902 
0.0313725 0.521569 0.54902 0.0313725 0.521569 0.54902 
0.0313725 0.521569 0.54902 0.0313725 0.521569 0.54902 
0.0313725 0.521569 0.54902 0.0313725 0.521569 0.54902 
0.0313725 0.521569 0.54902 0.0313725 0.521569 0.54902 
0.0313725 0.521569 0.54902 0.0313725 0.521569 0.54902 
0.0313725 0.521569 0.54902 0.0313725 0.521569 0.54902 
0.0313725 0.521569 0.54902 0.0313725 0.521569 0.54902 
0.0313725 0.521569 0.54902 0.0313725 0.521569 0.54902 
0.0313725 0.521569 0.54902 0.0313725 0.521569 0.54902 
0.0313725 0.521569 0.54902 0.0313725 0.521569 0.54902 
0.0313725 0.521569 0.54902 0.0313725 0.521569 0.54902 
0.0313725 0.521569 0.54902 0.0313725 0.521569 0.54902 
0.0313725 0.521569 0.54902 0.0313725 0.521569 0.54902 
0.0313725 0.521569 0.54902 0.0313725 0.521569 0.54902 
0.0313725 0.521569 0.54902 0.0313725 0.521569 0.54902 
0.0313725 0.521569 0.54902 0.0313725 0.521569 0.54902 
0.0313725 0.521569 0.54902 0.0313725 0.521569 0.54902 
0.0313725 0.521569 0.54902 0.0313725 0.521569 0.54902 
0.0313725 0.521569 0.54902 0.0313725 0.521569 0.54902 
0.0313725 0.521569 0.54902 0.0313725 0.521569 0.54902 
0.0313725 0.521569 0.54902 0.0313725 0.521569 0.54902 
0.0313725 0.521569 0.54902 0.0313725 0.521569 0.54902 
0.0313725 0.521569 0.54902 0.0313725 0.521569 0.54902 
0.0313725 0.521569 0.54902 0.0313725 0.521569 0.54902 
0.0313725 0.521569 0.54902 0.0313725 0.521569 0.54902 
0.0313725 0.521569 0.54902 0.0313725 0.521569 0.54902 
0.0313725 0.521569 0.54902 0.0313725 0.521569 0.54902 
0.0313725 0.521569 0.54902 0.0313725 0.521569 0.54902 
0.0313725 0.521569 0.54902 0.0313725 0.521569 0.54902 
0.0313725 0.521569 0.54902 0.0313725 0.521569 0.54902 
0.0313725 0.521569 0.54902 0.0313725 0.521569 0.54902 
0.0313725 0.521569 0.54902 0.0313725 0.521569 0.54902 
0.0313725 0.521569 0.54902 0.0313725 0.521569 0.54902 
0.0313725 0.521569 0.54902 0.0313725 0.521569 0.54902 
0.0313725 0.521569 0.54902 0.0313725 0.521569 0.54902 
0.0313725 0.521569 0.54902 0.0313725 0.521569 0.54902 
0.0313725 0.521569 0.54902 0.0313725 0.521569 0.54902 
0.0313725 0.521569 0.54902 0.0313725 0.521569 0.54902 
0.0313725 0.521569 0.54902 0.0313725 0.521569 0.54902 
0.0313725 0.521569 0.54902 0.0313725 0.521569 0.54902 
0.0313725 0.521569 0.54902 0.0313725 0.521569 0.54902 
0.0313725 0.521569 0.54902 0.0313725 0.521569 0.54902 
0.0313725 0.521569 0.54902 0.0313725 0.521569 0.54902 
0.0313725 0.521569 0.54902 0.0313725 0.521569 0.54902 
0.0313725 0.521569 0.54902 0.0313725 0.521569 0.54902 
0.0313725 0.521569 0.54902 0.0313725 0.521569 0.54902 
0.0313725 0.521569 0.54902 0.0313725 0.521569 0.54902 
0.0313725 0.521569 0.54902 0.0313725 0.521569 0.54902 
0.0313725 0.521569 0.54902 0.0313725 0.521569 0.54902 
0.0313725 0.521569 0.54902 0.0313725 0.521569 0.54902 
0.0313725 0.521569 0.54902 0.0313725 0.521569 0.54902 
0.0313725 0.521569 0.54902 0.0313725 0.521569 0.54902 
0.0313725 0.521569 0.54902 0.0313725 0.521569 0.54902 
0.0313725 0.521569 0.54902 0.0313725 0.521569 0.54902 
0.0313725 0.521569 0.54902 0.0313725 0.521569 0.54902 
0.0313725 0.521569 0.54902 0.0313725 0.521569 0.54902 
0.0313725 0.521569 0.54902 0.0313725 0.521569 0.54902 
0.0313725 0.521569 0.54902 0.0313725 0.521569 0.54902 
0.0313725 0.521569 0.54902 0.0313725 0.521569 0.54902 
0.0313725 0.521569 0.54902 0.0313725 0.521569 0.54902 
0.0313725 0.521569 0.54902 0.0313725 0.521569 0.54902 
0.0313725 0.521569 0.54902 0.0313725 0.521569 0.54902 
0.0313725 0.521569 0.54902 0.0313725 0.521569 0.54902 
0.0313725 0.521569 0.54902 0.0313725 0.521569 0.54902 
0.0313725 0.521569 0.54902 0.0313725 0.521569 0.54902 
0.0313725 0.521569 0.54902 0.0313725 0.521569 0.54902 
0.0313725 0.521569 0.54902 0.0313725 0.521569 0.54902 
0.0313725 0.521569 0.54902 0.0313725 0.521569 0.54902 
0.0313725 0.521569 0.54902 0.0313725 0.521569 0.54902 
0.0313725 0.521569 0.54902 0.0313725 0.521569 0.54902 
0.0313725 0.521569 0.54902 0.0313725 0.521569 0.54902 
0.0313725 0.521569 0.54902 0.0313725 0.521569 0.54902 
0.0313725 0.521569 0.54902 0.0313725 0.521569 0.54902 
0.0313725 0.521569 0.54902 0.0313725 0.521569 0.54902 
0.0313725 0.521569 0.54902 0.0313725 0.521569 0.54902 
0.0313725 0.521569 0.54902 0.0313725 0.521569 0.54902 
0.0313725 0.521569 0.54902 0.0313725 0.521569 0.54902 
0.0313725 0.521569 0.54902 0.0313725 0.521569 0.54902 
0.0313725 0.521569 0.54902 0.0313725 0.521569 0.54902 
0.0313725 0.521569 0.54902 0.0313725 0.521569 0.54902 
0.0313725 0.521569 0.54902 0.0313725 0.521569 0.54902 
0.0313725 0.521569 0.54902 0.0313725 0.521569 0.54902 
0.0313725 0.521569 0.54902 0.0313725 0.521569 0.54902 
0.0313725 0.521569 0.54902 0.0313725 0.521569 0.54902 
0.0313725 0.521569 0.54902 0.0313725 0.521569 0.54902 
0.0313725 0.521569 0.54902 0.0313725 0.521569 0.54902 
0.0313725 0.521569 0.54902 0.0313725 0.521569 0.54902 
0.0313725 0.521569 0.54902 0.0313725 0.521569 0.54902 
0.0313725 0.521569 0.54902 0.0313725 0.521569 0.54902 
0.0313725 0.521569 0.54902 0.0313725 0.521569 0.54902 
0.0313725 0.521569 0.54902 0.0313725 0.521569 0.54902 
0.0313725 0.521569 0.54902 0.0313725 0.521569 0.54902 
0.0313725 0.521569 0.54902 0.0313725 0.521569 0.54902 
0.0313725 0.521569 0.54902 0.0313725 0.521569 0.54902 
0.0313725 0.521569 0.54902 0.0313725 0.521569 0.54902 
0.0313725 0.521569 0.54902 0.0313725 0.521569 0.54902 
0.0313725 0.521569 0.54902 0.0313725 0.521569 0.54902 
0.0313725 0.521569 0.54902 0.0313725 0.521569 0.54902 
0.0313725 0.521569 0.54902 0.0313725 0.521569 0.54902 
0.0313725 0.521569 0.54902 0.0313725 0.521569 0.54902 
0.0313725 0.521569 0.54902 0.0313725 0.521569 0.54902 
0.0313725 0.521569 0.54902 0.0313725 0.521569 0.54902 
0.0313725 0.521569 0.54902 0.0313725 0.521569 0.54902 
0.0313725 0.521569 0.54902 0.0313725 0.521569 0.54902 
0.0313725 0.521569 0.54902 0.0313725 0.521569 0.54902 
0.0313725 0.521569 0.54902 0.0313725 0.521569 0.54902 
0.0313725 0.521569 0.54902 0.0313725 0.521569 0.54902 
0.0313725 0.521569 0.54902 0.0313725 0.521569 0.54902 
0.0313725 0.521569 0.54902 0.0313725 0.521569 0.54902 
0.0313725 0.521569 0.54902 0.0313725 0.521569 0.54902 
0.0313725 0.521569 0.54902 0.0313725 0.521569 0.54902 
0.0313725 0.521569 0.54902 0.0313725 0.521569 0.54902 
0.0313725 0.521569 0.54902 0.0313725 0.521569 0.54902 
0.0313725 0.521569 0.54902 0.0313725 0.521569 0.54902 
0.0313725 0.521569 0.54902 0.0313725 0.521569 0.54902 
0.0313725 0.521569 0.54902 0.0313725 0.521569 0.54902 
0.0313725 0.521569 0.54902 0.0313725 0.521569 0.54902 