# vtk DataFile Version 4.2
vtk output
ASCII
DATASET POLYDATA
POINTS 959 float
373.418 125.432 50.335 373.21 128.511 50.4094 373.712 129.234 50.1527 
374.54 132.008 50.0056 374.567 132.601 50.0731 375.617 132.292 49.8309 
375.538 133.375 49.9705 375.797 134.353 50.2823 373.556 124.142 50.5944 
374.143 125.384 50.2038 375.345 127.627 49.8804 373.34 130.223 50.4616 
376.112 132.855 49.8986 376.852 132.303 49.9758 376.37 134.489 50.3682 
375.201 135.061 50.858 376.464 135.209 50.6671 376.158 136.019 51.1086 
372.385 119.537 52.0567 373.365 121.608 51.3299 373.285 122.765 51.0872 
371.8 123.559 51.7568 372.313 130.336 51.6607 373.817 133.661 51.1436 
379.283 134.605 51.5745 377.978 135.992 51.4836 378.706 135.704 51.7961 
376.899 136.844 51.6543 376.96 137.249 51.951 376.84 137.461 52.2448 
377.641 137.135 52.048 377.144 137.403 52.1026 377.412 137.381 52.1684 
371.76 117.381 52.9684 372.828 118.051 52.4461 373.34 117.952 52.4392 
373.821 118.188 52.3719 374.316 119.424 51.9671 371.285 119.801 52.6002 
370.903 123.162 52.7578 379.875 135.266 52.6514 376.803 137.613 52.5537 
377.477 137.475 52.4429 370.277 114.071 54.4758 372.82 115.837 53.3132 
373.818 115.98 53.2916 382.667 130.176 53.455 382.692 130.326 53.5877 
382.27 131.447 53.7859 380.494 134.541 53.2235 376.119 137.704 53.4547 
376.976 137.662 52.7528 370.557 113.741 54.488 371.2 112.932 54.6046 
370.385 116.745 53.9538 369.834 117.838 54.3845 377.812 118.524 53.4265 
383.345 125.349 54.0035 383.694 125.665 54.2623 370.431 126.901 54.2455 
383.259 128.546 54.0155 382.778 130.025 53.611 380.621 134.629 53.8513 
380.339 135.062 54.1565 373.822 135.77 53.1995 378.648 136.858 54.1237 
376.147 137.93 54.1071 376.759 137.713 54.0205 375.728 138.109 54.3743 
375.646 138.09 54.5642 375.772 138.143 54.4761 371.962 111.204 55.4139 
375.655 113.75 54.9781 385.016 124.596 55.4978 384.719 126.324 55.4076 
384.554 127.656 55.8119 371.236 131.471 55.2027 381.727 133.124 55.5628 
380.93 134.166 55.3549 373.159 135.452 54.8217 378.016 137.144 54.7388 
375.348 137.914 54.6616 375.336 137.907 55.0192 375.678 137.969 54.9209 
375.83 138.092 54.5883 371.259 131.568 55.7695 373.819 136.505 55.3531 
374.279 137.025 55.4292 377.783 136.986 55.654 374.91 137.651 55.3767 
369.417 107.18 57.8161 369.123 107.831 57.6458 370.703 107.801 57.2589 
371.742 107.925 57.1999 368.936 119.066 56.0233 371.742 132.528 56.3324 
381.798 132.474 57.3324 372.009 133.436 55.983 373.648 136.013 56.07 
374.292 136.833 55.9596 376.532 137.078 56.3563 374.663 137.431 55.5151 
371.031 106.731 57.8234 368.036 108.263 58.224 367.797 108.842 58.3092 
368.342 119.131 57.6782 387.251 120.082 57.9965 387.523 120.276 58.2162 
386.564 124.581 57.7086 370.133 127.152 57.3844 371.238 130.353 57.2144 
371.369 131.115 56.8473 371.608 130.562 57.6765 372.425 132.429 57.5324 
373.329 134.252 57.3589 373.728 134.63 57.4743 373.968 135.059 57.3839 
374.37 135.366 57.4241 377.903 135.299 57.6013 374.334 136.16 56.7534 
374.94 136.466 56.8689 374.923 137.34 55.9885 367.834 105.735 59.1968 
388.152 119.138 59.1849 388.154 120.359 59.1065 388.135 121.078 59.2078 
387.322 123.662 59.3206 371.92 130.378 58.1095 372.522 130.177 58.7267 
376.493 133.88 58.8413 375.661 135.845 57.4829 367.727 102.086 60.8163 
368.196 102.028 60.6125 368.686 102.251 60.3481 367.37 104.793 59.9268 
367.847 118.163 60.4354 388.846 119.484 60.1036 388.514 121.271 60.3928 
369.179 122.845 59.216 387.719 123.09 60.2446 371.048 125.631 59.8723 
375.889 131.589 59.8767 370.314 102.167 60.3822 390.294 116.947 61.5436 
390.13 117.246 61.4008 390.334 117.18 61.5888 390.332 117.402 61.7287 
387.936 122.663 61.3748 374.763 127.652 61.1649 382.234 129.862 60.5789 
376.968 131.754 60.0734 379.088 131.062 60.7324 378.409 132.636 59.685 
366.234 102.22 62.0447 365.891 105.936 61.8145 390.113 113.549 62.2001 
367.057 115.246 61.5719 390.436 117.04 61.7466 390.602 117.082 62.1425 
368.134 118.621 60.9614 368.301 118.689 61.2256 390.384 117.84 62.2544 
372.799 124.153 61.7966 378.975 129.169 61.9535 367.028 97.7368 63.4722 
365.913 103.037 62.227 365.449 103.975 62.8894 365.382 105.08 62.9785 
389.674 110.685 63.231 366.76 113.717 62.8742 390.869 117.169 62.8563 
389.831 119.403 62.8057 379.033 127.203 63.1724 381.344 128.278 62.6507 
366.93 95.5295 64.8428 367.936 96.2961 64.161 365.726 96.9148 64.5768 
369.495 97.1047 63.6563 364.874 104.9 64.3052 365.971 110.429 63.8117 
366.041 111.216 63.5239 366.127 111.478 63.6823 366.24 111.828 63.6622 
366.305 112.195 63.3924 392.056 113.796 63.8425 392.079 113.3 64.0108 
392.214 114.516 64.1495 366.314 94.6543 65.8219 365.935 94.7648 65.9259 
366.43 94.41 66.0906 365.46 95.8149 65.5066 371.844 96.3303 65.2406 
366.306 111.461 64.0636 366.935 111.798 64.8984 392.854 112.866 65.1368 
391.462 116.85 65.258 383.536 125.907 64.32 366.401 94.2732 66.4994 
367.065 94.293 66.2077 366.914 94.2099 66.478 368.459 94.7638 65.9138 
369.241 94.896 66.2581 364.135 97.5565 66.4626 364.586 105.188 65.8097 
365.797 108.718 65.763 365.955 109.519 65.2874 392.62 110.953 65.3135 
393.123 112.145 65.5932 392.75 114.458 65.8269 391.611 116.568 66.0366 
365.396 94.6655 66.8063 365.123 94.8205 67.1024 366.204 94.229 66.9475 
373.154 96.28 66.343 372.584 95.9608 66.9305 373.983 96.4503 66.7298 
373.858 96.3078 67.2235 378.031 98.014 66.4384 388.386 102.997 67.0932 
366.195 109.213 66.0113 367.305 109.457 67.0783 393.034 110.297 66.0615 
394.127 110.192 67.3669 393.963 111.841 67.4009 391.32 116.536 67.5738 
381.329 121.598 67.3638 365.383 94.5628 67.726 365.77 94.3749 67.5877 
366.778 94.2148 67.4156 366.587 94.3056 67.7571 373.234 96.1548 68.0145 
373.005 96.1608 68.3614 378.685 96.6686 68.6804 380.059 97.0455 68.2172 
393.413 107.376 67.6213 394.804 109.034 68.3512 394.732 109.489 68.2587 
371.553 111.604 68.2533 394.33 111.523 68.4006 387.351 120.277 67.9311 
363 93.0087 69.0174 363 93.0087 69.0175 363 93.0088 69.0175 
365.236 94.715 68.0543 363 93.0088 69.0175 365.619 94.5324 68.036 
363 93.0088 69.0175 365.082 95.1021 68.8161 367.651 94.7115 68.3073 
365.626 95.031 69.0127 363.671 96.6782 68.9531 379.198 95.966 69.8852 
374.823 96.658 69.131 376.859 96.5607 69.5508 381.945 96.9516 68.7348 
389.779 100.976 69.1954 395.498 108.454 69.2943 395.246 109.427 69.3156 
395.011 110.249 69.4984 390.083 117.182 69.1279 385.137 120.728 68.496 
363 93.0087 69.0175 364.711 95.339 68.7664 373.498 97.2409 70.5377 
376.395 96.6864 70.5345 364.523 103.512 69.4474 395.55 106.666 69.7987 
396.259 107.338 70.7328 386.631 119.919 68.8186 385.739 119.524 69.5319 
381.669 94.0926 72.0905 364.346 96.0664 70.0253 363.901 96.4285 69.9374 
364.423 96.2208 70.4573 363.55 97.0248 70.5261 364.744 96.2068 70.617 
363.263 97.3719 71.1135 363.029 97.7857 71.1133 365.618 96.5118 71.0788 
362.993 98.3963 70.3936 362.983 98.8727 70.5841 363.082 99.3203 70.5798 
395.105 103.718 70.8004 394.024 111.746 71.1096 388.232 117.476 70.7082 
386.224 118.52 70.3856 363.183 97.3875 71.5159 363.12 97.5102 71.4228 
363.868 96.7926 70.8337 363.302 97.3245 71.5048 363.018 97.836 71.6149 
363.703 97.1934 71.3696 377.584 96.0695 72.4988 371.895 98.5141 72.1484 
374.041 98.1833 72.361 372.138 98.902 72.5778 363.4 99.6437 71.3507 
394.058 101.011 71.8644 365.162 101.451 71.8096 396.612 104.87 71.5576 
396.934 105.777 71.7292 396.964 106.431 72.1304 363.226 97.4918 71.6112 
362.984 97.8258 71.826 363.12 97.7653 71.841 363.004 97.8567 71.8869 
363.44 97.5919 71.8115 363.659 97.78 72.0125 362.992 97.9291 71.8316 
363.078 98.2337 71.7551 364.056 97.7947 72.0774 369.229 98.4285 72.2325 
363.484 98.7461 72.0149 363.893 99.6022 71.8908 364.756 99.906 72.2972 
369.167 99.5501 72.8791 372.412 99.4069 73.1522 373.741 99.156 73.6262 
373.48 99.6008 73.9374 397.188 104.924 72.4054 397.128 106.496 73.3514 
396.557 107.535 73.5058 389.034 115.255 72.8482 363.113 97.9862 71.9192 
364.311 98.127 72.2556 376.626 96.8532 74.0307 365.514 99.7124 72.6601 
369.344 100.213 73.156 395.195 100.031 73.5484 371.382 100.799 73.7353 
372.296 101.101 74.2158 371.193 101.155 73.7807 396.529 101.945 73.2879 
369.606 102.999 73.1242 397.896 104.048 74.1 390.901 113.273 73.8797 
383.367 91.5128 75.3621 374.927 99.1426 75.4044 373.695 100.789 75.078 
369.981 102.076 73.4319 397.957 103.347 74.4815 396.804 106.544 75.2191 
385.74 112.728 75.5087 381.572 91.9387 75.837 386.01 92.1186 75.3291 
396.504 99.4884 75.5926 373.854 101.608 75.5497 397.925 101.856 75.4676 
398.042 102.37 75.6879 373.807 101.85 75.4968 373.681 102.349 75.3048 
398.142 103.04 75.3134 398.211 103.235 75.428 374.355 103.572 75.4258 
398.073 103.698 75.3181 398.196 103.367 75.4288 390.602 111.986 75.8075 
388.27 113.425 75.0881 383.466 90.2765 78.0369 382.188 90.9866 77.3432 
384.21 90.3132 77.6713 384.594 90.5048 77.3438 389.401 93.4502 76.2826 
392.896 96.0677 75.9136 393.528 96.4228 76.34 393.503 96.3596 76.7697 
394.238 96.9971 76.73 395.906 98.7286 76.1669 396.961 99.8271 76.0152 
397.702 100.851 76.3994 374.725 100.951 76.3786 397.891 101.153 76.3867 
398.003 101.451 76.2418 397.932 101.369 76.5037 398.051 101.837 76.1289 
397.998 101.658 76.4123 398.099 103.194 75.6371 397.906 102.832 76.2216 
395.589 106.708 77.3659 384.135 90.1548 78.0408 384.009 90.1007 78.4299 
379.694 92.9938 77.8373 392.701 95.9424 77.6244 376.794 97.0469 77.5235 
395.759 99.0272 77.5537 376.072 98.8126 77.9457 396.356 99.5494 77.3299 
396.475 99.9458 77.6111 397.003 103.804 77.48 396.598 105.205 77.3308 
391.385 109.804 77.9151 386.546 110.466 77.6037 384.091 89.9648 78.636 
384.129 89.9606 78.7168 384.034 90.016 78.7159 384.212 90.0103 78.6639 
383.773 90.2443 78.942 384.651 90.2154 78.6815 385.316 90.3771 78.2953 
382.435 90.6968 78.9902 389.145 93.0537 77.9194 379.441 93.2022 78.9866 
389.736 93.8671 78.7987 393.941 99.0307 79.175 376.176 100.567 78.1756 
376.766 100.591 78.8525 377.889 101.178 79.5188 394.876 100.738 79.2223 
393.8 107.295 78.9496 389.9 109.949 78.3264 388.818 109.753 78.6993 
384.194 90.0808 78.83 385.511 91.0301 79.7408 385.941 91.2601 79.6825 
[...]
POINT_DATA 959
COLOR_SCALARS scalars 3
0.0313725 0.521569 0.54902 0.0313725 0.521569 0.54902 0.0313725 0.521569 0.54902 
0.0313725 0.521569 0.54902 0.0313725 0.521569 0.54902 
0.0313725 0.521569 0.54902 0.0313725 0.521569 0.54902 
0.0313725 0.521569 0.54902 0.0313725 0.521569 0.54902 
0.0313725 0.521569 0.54902 0.0313725 0.521569 0.54902 
0.0313725 0.521569 0.54902 0.0313725 0.521569 0.54902 
0.0313725 0.521569 0.54902 0.0313725 0.521569 0.54902 
0.0313725 0.521569 0.54902 0.0313725 0.521569 0.54902 
0.0313725 0.521569 0.54902 0.0313725 0.521569 0.54902 
0.0313725 0.521569 0.54902 0.0313725 0.521569 0.54902 
0.0313725 0.521569 0.54902 0.0313725 0.521569 0.54902 
0.0313725 0.521569 0.54902 0.0313725 0.521569 0.54902 
0.0313725 0.521569 0.54902 0.0313725 0.521569 0.54902 
0.0313725 0.521569 0.54902 0.0313725 0.521569 0.54902 
0.0313725 0.521569 0.54902 0.0313725 0.521569 0.54902 
0.0313725 0.521569 0.54902 0.0313725 0.521569 0.54902 
0.0313725 0.521569 0.54902 0.0313725 0.521569 0.54902 
0.0313725 0.521569 0.54902 0.0313725 0.521569 0.54902 
0.0313725 0.521569 0.54902 0.0313725 0.521569 0.54902 
0.0313725 0.521569 0.54902 0.0313725 0.521569 0.54902 
0.0313725 0.521569 0.54902 0.0313725 0.521569 0.54902 
0.0313725 0.521569 0.54902 0.0313725 0.521569 0.54902 
0.0313725 0.521569 0.54902 0.0313725 0.521569 0.54902 
0.0313725 0.521569 0.54902 0.0313725 0.521569 0.54902 
0.0313725 0.521569 0.54902 0.0313725 0.521569 0.54902 
0.0313725 0.521569 0.54902 0.0313725 0.521569 0.54902 
0.0313725 0.521569 0.54902 0.0313725 0.521569 0.54902 
0.0313725 0.521569 0.54902 0.0313725 0.521569 0.54902 
0.0313725 0.521569 0.54902 0.0313725 0.521569 0.54902 
0.0313725 0.521569 0.54902 0.0313725 0.521569 0.54902 
0.0313725 0.521569 0.54902 0.0313725 0.521569 0.54902 
0.0313725 0.521569 0.54902 0.0313725 0.521569 0.54902 
0.0313725 0.521569 0.54902 0.0313725 0.521569 0.54902 
0.0313725 0.521569 0.54902 0.0313725 0.521569 0.54902 
0.0313725 0.521569 0.54902 0.0313725 0.521569 0.54902 
0.0313725 0.521569 0.54902 0.0313725 0.521569 0.54902 
0.0313725 0.521569 0.54902 0.0313725 0.521569 0.54902 
0.0313725 0.521569 0.54902 0.0313725 0.521569 0.54902 
0.0313725 0.521569 0.54902 0.0313725 0.521569 0.54902 
0.0313725 0.521569 0.54902 0.0313725 0.521569 0.54902 
0.0313725 0.521569 0.54902 0.0313725 0.521569 0.54902 
0.0313725 0.521569 0.54902 0.0313725 0.521569 0.54902 
0.0313725 0.521569 0.54902 0.0313725 0.521569 0.54902 
0.0313725 0.521569 0.54902 0.0313725 0.521569 0.54902 
0.0313725 0.521569 0.54902 0.0313725 0.521569 0.54902 
0.0313725 0.521569 0.54902 0.0313725 0.521569 0.54902 
0.0313725 0.521569 0.54902 0.0313725 0.521569 0.54902 
0.0313725 0.521569 0.54902 0.0313725 0.521569 0.54902 
0.0313725 0.521569 0.54902 0.0313725 0.521569 0.54902 
0.0313725 0.521569 0.54902 0.0313725 0.521569 0.54902 
0.0313725 0.521569 0.54902 0.0313725 0.521569 0.54902 
0.0313725 0.521569 0.54902 0.0313725 0.521569 0.54902 
0.0313725 0.521569 0.54902 0.0313725 0.521569 0.54902 
0.0313725 0.521569 0.54902 0.0313725 0.521569 0.54902 
0.0313725 0.521569 0.54902 0.0313725 0.521569 0.54902 
0.0313725 0.521569 0.54902 0.0313725 0.521569 0.54902 
0.0313725 0.521569 0.54902 0.0313725 0.521569 0.54902 
0.0313725 0.521569 0.54902 0.0313725 0.521569 0.54902 
0.0313725 0.521569 0.54902 0.0313725 0.521569 0.54902 
0.0313725 0.521569 0.54902 0.0313725 0.521569 0.54902 
0.0313725 0.521569 0.54902 0.0313725 0.521569 0.54902 
0.0313725 0.521569 0.54902 0.0313725 0.521569 0.54902 
0.0313725 0.521569 0.54902 0.0313725 0.521569 0.54902 
0.0313725 0.521569 0.54902 0.0313725 0.521569 0.54902 
0.0313725 0.521569 0.54902 0.0313725 0.521569 0.54902 
0.0313725 0.521569 0.54902 0.0313725 0.521569 0.54902 
0.0313725 0.521569 0.54902 0.0313725 0.521569 0.54902 
0.0313725 0.521569 0.54902 0.0313725 0.521569 0.54902 
0.0313725 0.521569 0.54902 0.0313725 0.521569 0.54902 
0.0313725 0.521569 0.54902 0.0313725 0.521569 0.54902 
0.0313725 0.521569 0.54902 0.0313725 0.521569 0.54902 
0.0313725 0.521569 0.54902 0.0313725 0.521569 0.54902 
0.0313725 0.521569 0.54902 0.0313725 0.521569 0.54902 
0.0313725 0.521569 0.54902 0.0313725 0.521569 0.54902 
0.0313725 0.521569 0.54902 0.0313725 0.521569 0.54902 
0.0313725 0.521569 0.54902 0.0313725 0.521569 0.54902 
0.0313725 0.521569 0.54902 0.0313725 0.521569 0.54902 
0.0313725 0.521569 0.54902 0.0313725 0.521569 0.54902 
0.0313725 0.521569 0.54902 0.0313725 0.521569 0.54902 
0.0313725 0.521569 0.54902 0.0313725 0.521569 0.54902 
0.0313725 0.521569 0.54902 0.0313725 0.521569 0.54902 
0.0313725 0.521569 0.54902 0.0313725 0.521569 0.54902 
0.0313725 0.521569 0.54902 0.0313725 0.521569 0.54902 
0.0313725 0.521569 0.54902 0.0313725 0.521569 0.54902 
0.0313725 0.521569 0.54902 0.0313725 0.521569 0.54902 
0.0313725 0.521569 0.54902 0.0313725 0.521569 0.54902 
0.0313725 0.521569 0.54902 0.0313725 0.521569 0.54902 
0.0313725 0.521569 0.54902 0.0313725 0.521569 0.54902 
0.0313725 0.521569 0.54902 0.0313725 0.521569 0.54902 
0.0313725 0.521569 0.54902 0.0313725 0.521569 0.54902 
0.0313725 0.521569 0.54902 0.0313725 0.521569 0.54902 
0.0313725 0.521569 0.54902 0.0313725 0.521569 0.54902 
0.0313725 0.521569 0.54902 0.0313725 0.521569 0.54902 
0.0313725 0.521569 0.54902 0.0313725 0.521569 0.54902 
0.0313725 0.521569 0.54902 0.0313725 0.521569 0.54902 
0.0313725 0.521569 0.54902 0.0313725 0.521569 0.54902 
0.0313725 0.521569 0.54902 0.0313725 0.521569 0.54902 
0.0313725 0.521569 0.54902 0.0313725 0.521569 0.54902 
0.0313725 0.521569 0.54902 0.0313725 0.521569 0.54902 
0.0313725 0.521569 0.54902 0.0313725 0.521569 0.54902 
0.0313725 0.521569 0.54902 0.0313725 0.521569 0.54902 
0.0313725 0.521569 0.54902 0.0313725 0.521569 0.54902 
0.0313725 0.521569 0.54902 0.0313725 0.521569 0.54902 
0.0313725 0.521569 0.54902 0.0313725 0.521569 0.54902 
0.0313725 0.521569 0.54902 0.0313725 0.521569 0.54902 
0.0313725 0.521569 0.54902 0.0313725 0.521569 0.54902 
0.0313725 0.521569 0.54902 0.0313725 0.521569 0.54902 
0.0313725 0.521569 0.54902 0.0313725 0.521569 0.54902 
0.0313725 0.521569 0.54902 0.0313725 0.521569 0.54902 
0.0313725 0.521569 0.54902 0.0313725 0.521569 0.54902 
0.0313725 0.521569 0.54902 0.0313725 0.521569 0.54902 
0.0313725 0.521569 0.54902 0.0313725 0.521569 0.54902 
0.0313725 0.521569 0.54902 0.0313725 0.521569 0.54902 
0.0313725 0.521569 0.54902 0.0313725 0.521569 0.54902 
0.0313725 0.521569 0.54902 0.0313725 0.521569 0.54902 
0.0313725 0.521569 0.54902 0.0313725 0.521569 0.54902 
0.0313725 0.521569 0.54902 0.0313725 0.521569 0.54902 
0.0313725 0.521569 0.54902 0.0313725 0.521569 0.54902 
0.0313725 0.521569 0.54902 0.0313725 0.521569 0.54902 
0.0313725 0.521569 0.54902 0.0313725 0.521569 0.54902 
0.0313725 0.521569 0.54902 0.0313725 0.521569 0.54902 
0.0313725 0.521569 0.54902 0.0313725 0.521569 0.54902 
0.0313725 0.521569 0.54902 0.0313725 0.521569 0.54902 
0.0313725 0.521569 0.54902 0.0313725 0.521569 0.54902 
0.0313725 0.521569 0.54902 0.0313725 0.521569 0.54902 
0.0313725 0.521569 0.54902 0.0313725 0.521569 0.54902 
0.0313725 0.521569 0.54902 0.0313725 0.521569 0.54902 
0.0313725 0.521569 0.54902 0.0313725 0.521569 0.54902 
0.0313725 0.521569 0.54902 0.0313725 0.521569 0.54902 
0.0313725 0.521569 0.54902 0.0313725 0.521569 0.54902 
0.0313725 0.521569 0.54902 0.0313725 0.521569 0.54902 
0.0313725 0.521569 0.54902 0.0313725 0.521569 0.54902 
0.0313725 0.521569 0.54902 0.0313725 0.521569 0.54902 
0.0313725 0.521569 0.54902 0.0313725 0.521569 0.54902 
0.0313725 0.521569 0.54902 0.0313725 0.521569 0.54902 
0.0313725 0.521569 0.54902 0.0313725 0.521569 0.54902 
0.0313725 0.521569 0.54902 0.0313725 0.521569 0.54902 
0.0313725 0.521569 0.54902 0.0313725 0.521569 0.54902 
0.0313725 0.521569 0.54902 0.0313725 0.521569 0.54902 
0.0313725 0.521569 0.54902 0.0313725 0.521569 0.54902 
0.0313725 0.521569 0.54902 0.0313725 0.521569 0.54902 
0.0313725 0.521569 0.54902 0.0313725 0.521569 0.54902 
0.0313725 0.521569 0.54902 0.0313725 0.521569 0.54902 
0.0313725 0.521569 0.54902 0.0313725 0.521569 0.54902 
0.0313725 0.521569 0.54902 0.0313725 0.521569 0.54902 
0.0313725 0.521569 0.54902 0.0313725 0.521569 0.54902 
0.0313725 0.521569 0.54902 0.0313725 0.521569 0.54902 
0.0313725 0.521569 0.54902 0.0313725 0.521569 0.54902 
0.0313725 0.521569 0.54902 0.0313725 0.521569 0.54902 
0.0313725 0.521569 0.54902 0.0313725 0.521569 0.54902 
0.0313725 0.521569 0.54902 0.0313725 0.521569 0.54902 
0.0313725 0.521569 0.54902 0.0313725 0.521569 0.54902 
0.0313725 0.521569 0.54902 0.0313725 0.521569 0.54902 
0.0313725 0.521569 0.54902 0.0313725 0.521569 0.54902 
0.0313725 0.521569 0.54902 0.0313725 0.521569 0.54902 
0.0313725 0.521569 0.54902 0.0313725 0.521569 0.54902 
0.0313725 0.521569 0.54902 0.0313725 0.521569 0.54902 
0.0313725 0.521569 0.54902 0.0313725 0.521569 0.54902 
0.0313725 0.521569 0.54902 0.0313725 0.521569 0.54902 
0.0313725 0.521569 0.54902 0.0313725 0.521569 0.54902 
0.0313725 0.521569 0.54902 0.0313725 0.521569 0.54902 
0.0313725 0.521569 0.54902 0.0313725 0.521569 0.54902 
0.0313725 0.521569 0.54902 0.0313725 0.521569 0.54902 
0.0313725 0.521569 0.54902 0.0313725 0.521569 0.54902 
0.0313725 0.521569 0.54902 0.0313725 0.521569 0.54902 
0.0313725 0.521569 0.54902 0.0313725 0.521569 0.54902 
0.0313725 0.521569 0.54902 0.0313725 0.521569 0.54902 
0.0313725 0.521569 0.54902 0.0313725 0.521569 0.54902 
0.0313725 0.521569 0.54902 0.0313725 0.521569 0.54902 
0.0313725 0.521569 0.54902 0.0313725 0.521569 0.54902 
0.0313725 0.521569 0.54902 0.0313725 0.521569 0.54902 
0.0313725 0.521569 0.54902 0.0313725 0.521569 0.54902 
0.0313725 0.521569 0.54902 0.0313725 0.521569 0.54902 
0.0313725 0.521569 0.54902 0.0313725 0.521569 0.54902 
0.0313725 0.521569 0.54902 0.0313725 0.521569 0.54902 
0.0313725 0.521569 0.54902 0.0313725 0.521569 0.54902 
0.0313725 0.521569 0.54902 0.0313725 0.521569 0.54902 
0.0313725 0.521569 0.54902 0.0313725 0.521569 0.54902 
0.0313725 0.521569 0.54902 0.0313725 0.521569 0.54902 
0.0313725 0.521569 0.54902 0.0313725 0.521569 0.54902 
0.0313725 0.521569 0.54902 0.0313725 0.521569 0.54902 
0.0313725 0.521569 0.54902 0.0313725 0.521569 0.54902 
0.0313725 0.521569 0.54902 0.0313725 0.521569 0.54902 
0.0313725 0.521569 0.54902 0.0313725 0.521569 0.54902 
0.0313725 0.521569 0.54902 0.0313725 0.521569 0.54902 
0.0313725 0.521569 0.54902 0.0313725 0.521569 0.54902 
0.0313725 0.521569 0.54902 0.0313725 0.521569 0.54902 
0.0313725 0.521569 0.54902 0.0313725 0.521569 0.54902 
0.0313725 0.521569 0.54902 0.0313725 0.521569 0.54902 
0.0313725 0.521569 0.54902 0.0313725 0.521569 0.54902 
0.0313725 0.521569 0.54902 0.0313725 0.521569 0.54902 
0.0313725 0.521569 0.54902 0.0313725 0.521569 0.54902 
0.0313725 0.521569 0.54902 0.0313725 0.521569 0.54902 
0.0313725 0.521569 0.54902 0.0313725 0.521569 0.54902 
0.0313725 0.521569 0.54902 0.0313725 0.521569 0.54902 
0.0313725 0.521569 0.54902 0.0313725 0.521569 0.54902 
0.0313725 0.521569 0.54902 0.0313725 0.521569 0.54902 
0.0313725 0.521569 0.54902 0.0313725 0.521569 0.54902 
0.0313725 0.521569 0.54902 0.0313725 0.521569 0.54902 
0.0313725 0.521569 0.54902 0.0313725 0.521569 0.54902 
0.0313725 0.521569 0.54902 0.0313725 0.521569 0.54902 
0.0313725 0.521569 0.54902 0.0313725 0.521569 0.54902 
0.0313725 0.521569 0.54902 0.0313725 0.521569 0.54902 
0.0313725 0.521569 0.54902 0.0313725 0.521569 0.54902 
0.0313725 0.521569 0.54902 0.0313725 0.521569 0.54902 
0.0313725 0.521569 0.54902 0.0313725 0.521569 0.54902 
0.0313725 0.521569 0.54902 0.0313725 0.521569 0.54902 
0.0313725 0.521569 0.54902 0.0313725 0.521569 0.54902 
0.0313725 0.521569 0.54902 0.0313725 0.521569 0.54902 
0.0313725 0.521569 0.54902 0.0313725 0.521569 0.54902 
0.0313725 0.521569 0.54902 0.0313725 0.521569 0.54902 
0.0313725 0.521569 0.54902 0.0313725 0.521569 0.54902 
0.0313725 0.521569 0.54902 0.0313725 0.521569 0.54902 
0.0313725 0.521569 0.54902 0.0313725 0.521569 0.54902 
0.0313725 0.521569 0.54902 0.0313725 0.521569 0.54902 
0.0313725 0.521569 0.54902 0.0313725 0.521569 0.54902 
0.0313725 0.521569 0.54902 0.0313725 0.521569 0.54902 
0.0313725 0.521569 0.54902 0.0313725 0.521569 0.54902 
0.0313725 0.521569 0.54902 0.0313725 0.521569 0.54902 
0.0313725 0.521569 0.54902 0.0313725 0.521569 0.54902 
0.0313725 0.521569 0.54902 0.0313725 0.521569 0.54902 
0.0313725 0.521569 0.54902 0.0313725 0.521569 0.54902 
0.0313725 0.521569 0.54902 0.0313725 0.521569 0.54902 
0.0313725 0.521569 0.54902 0.0313725 0.521569 0.54902 
0.0313725 0.521569 0.54902 0.0313725 0.521569 0.54902 
0.0313725 0.521569 0.54902 0.0313725 0.521569 0.54902 
0.0313725 0.521569 0.54902 0.0313725 0.521569 0.54902 
0.0313725 0.521569 0.54902 0.0313725 0.521569 0.54902 
0.0313725 0.521569 0.54902 0.0313725 0.521569 0.54902 
0.0313725 0.521569 0.54902 0.0313725 0.521569 0.54902 
0.0313725 0.521569 0.54902 0.0313725 0.521569 0.54902 
0.0313725 0.521569 0.54902 0.0313725 0.521569 0.54902 
0.0313725 0.521569 0.54902 0.0313725 0.521569 0.54902 
0.0313725 0.521569 0.54902 0.0313725 0.521569 0.54902 
0.0313725 0.521569 0.54902 0.0313725 0.521569 0.54902 
0.0313725 0.521569 0.54902 0.0313725 0.521569 0.54902 
0.0313725 0.521569 0.54902 0.0313725 0.521569 0.54902 
0.0313725 0.521569 0.54902 0.0313725 0.521569 0.54902 
0.0313725 0.521569 0.54902 0.0313725 0.521569 0.54902 
0.0313725 0.521569 0.54902 0.0313725 0.521569 0.54902 
0.0313725 0.521569 0.54902 0.0313725 0.521569 0.54902 
0.0313725 0.521569 0.54902 0.0313725 0.521569 0.54902 
0.0313725 0.521569 0.54902 0.0313725 0.521569 0.54902 
0.0313725 0.521569 0.54902 0.0313725 0.521569 0.54902 
0.0313725 0.521569 0.54902 0.0313725 0.521569 0.54902 
0.0313725 0.521569 0.54902 0.0313725 0.521569 0.54902 
0.0313725 0.521569 0.54902 0.0313725 0.521569 0.54902 
0.0313725 0.521569 0.54902 0.0313725 0.521569 0.54902 
0.0313725 0.521569 0.54902 0.0313725 0.521569 0.54902 
0.0313725 0.521569 0.54902 0.0313725 0.521569 0.54902 
0.0313725 0.521569 0.54902 0.0313725 0.521569 0.54902 
0.0313725 0.521569 0.54902 0.0313725 0.521569 0.54902 
0.0313725 0.521569 0.54902 0.0313725 0.521569 0.54902 
0.0313725 0.521569 0.54902 0.0313725 0.521569 0.54902 
0.0313725 0.521569 0.54902 0.0313725 0.521569 0.54902 
0.0313725 0.521569 0.54902 0.0313725 0.521569 0.54902 
0.0313725 0.521569 0.54902 0.0313725 0.521569 0.54902 
0.0313725 0.521569 0.54902 0.0313725 0.521569 0.54902 
0.0313725 0.521569 0.54902 0.0313725 0.521569 0.54902 
0.0313725 0.521569 0.54902 0.0313725 0.521569 0.54902 
0.0313725 0.521569 0.54902 0.0313725 0.521569 0.54902 
0.0313725 0.521569 0.54902 0.0313725 0.521569 0.54902 
0.0313725 0.521569 0.54902 0.0313725 0.521569 0.54902 
0.0313725 0.521569 0.54902 0.0313725 0.521569 0.54902 
0.0313725 0.521569 0.54902 0.0313725 0.521569 0.54902 
0.0313725 0.521569 0.54902 0.0313725 0.521569 0.54902 
0.0313725 0.521569 0.54902 0.0313725 0.521569 0.54902 
0.0313725 0.521569 0.54902 0.0313725 0.521569 0.54902 
0.0313725 0.521569 0.54902 0.0313725 0.521569 0.54902 
0.0313725 0.521569 0.54902 0.0313725 0.521569 0.54902 
0.0313725 0.521569 0.54902 0.0313725 0.521569 0.54902 
0.0313725 0.521569 0.54902 0.0313725 0.521569 0.54902 
0.0313725 0.521569 0.54902 0.0313725 0.521569 0.54902 
0.0313725 0.521569 0.54902 0.0313725 0.521569 0.54902 
0.0313725 0.521569 0.54902 0.0313725 0.521569 0.54902 
0.0313725 0.521569 0.54902 0.0313725 0.521569 0.54902 
0.0313725 0.521569 0.54902 0.0313725 0.521569 0.54902 
0.0313725 0.521569 0.54902 0.0313725 0.521569 0.54902 
0.0313725 0.521569 0.54902 0.0313725 0.521569 0.54902 
0.0313725 0.521569 0.54902 0.0313725 0.521569 0.54902 
0.0313725 0.521569 0.54902 0.0313725 0.521569 0.54902 
0.0313725 0.521569 0.54902 0.0313725 0.521569 0.54902 
0.0313725 0.521569 0.54902 0.0313725 0.521569 0.54902 
0.0313725 0.521569 0.54902 0.0313725 0.521569 0.54902 
0.0313725 0.521569 0.54902 0.0313725 0.521569 0.54902 
0.0313725 0.521569 0.54902 0.0313725 0.521569 0.54902 
0.0313725 0.521569 0.54902 0.0313725 0.521569 0.54902 
0.0313725 0.521569 0.54902 0.0313725 0.521569 0.54902 
0.0313725 0.521569 0.54902 0.0313725 0.521569 0.54902 
0.0313725 0.521569 0.54902 0.0313725 0.521569 0.54902 
0.0313725 0.521569 0.54902 0.0313725 0.521569 0.54902 
0.0313725 0.521569 0.54902 0.0313725 0.521569 0.54902 
0.0313725 0.521569 0.54902 0.0313725 0.521569 0.54902 
0.0313725 0.521569 0.54902 0.0313725 0.521569 0.54902 
0.0313725 0.521569 0.54902 0.0313725 0.521569 0.54902 
0.0313725 0.521569 0.54902 0.0313725 0.521569 0.54902 
0.0313725 0.521569 0.54902 0.0313725 0.521569 0.54902 
0.0313725 0.521569 0.54902 0.0313725 0.521569 0.54902 
0.0313725 0.521569 0.54902 0.0313725 0.521569 0.54902 
0.0313725 0.521569 0.54902 0.0313725 0.521569 0.54902 
0.0313725 0.521569 0.54902 0.0313725 0.521569 0.54902 
0.0313725 0.521569 0.54902 0.0313725 0.521569 0.54902 
0.0313725 0.521569 0.54902 0.0313725 0.521569 0.54902 
0.0313725 0.521569 0.54902 0.0313725 0.521569 0.54902 
0.0313725 0.521569 0.54902 0.0313725 0.521569 0.54902 
0.0313725 0.521569 0.54902 0.0313725 0.521569 0.54902 
0.0313725 0.521569 0.54902 0.0313725 0.521569 0.54902 
0.0313725 0.521569 0.54902 0.0313725 0.521569 0.54902 
0.0313725 0.521569 0.54902 0.0313725 0.521569 0.54902 
0.0313725 0.521569 0.54902 0.0313725 0.521569 0.54902 
0.0313725 0.521569 0.54902 0.0313725 0.521569 0.54902 
0.0313725 0.521569 0.54902 0.0313725 0.521569 0.54902 
0.0313725 0.521569 0.54902 0.0313725 0.521569 0.54902 
0.0313725 0.521569 0.54902 0.0313725 0.521569 0.54902 
0.0313725 0.521569 0.54902 0.0313725 0.521569 0.54902 
0.0313725 0.521569 0.54902 0.0313725 0.521569 0.54902 
0.0313725 0.521569 0.54902 0.0313725 0.521569 0.54902 
0.0313725 0.521569 0.54902 0.0313725 0.521569 0.54902 
0.0313725 0.521569 0.54902 0.0313725 0.521569 0.54902 
0.0313725 0.521569 0.54902 0.0313725 0.521569 0.54902 
0.0313725 0.521569 0.54902 0.0313725 0.521569 0.54902 
0.0313725 0.521569 0.54902 0.0313725 0.521569 0.54902 
0.0313725 0.521569 0.54902 0.0313725 0.521569 0.54902 
0.0313725 0.521569 0.54902 0.0313725 0.521569 0.54902 
0.0313725 0.521569 0.54902 0.0313725 0.521569 0.54902 
0.0313725 0.521569 0.54902 0.0313725 0.521569 0.54902 
0.0313725 0.521569 0.54902 0.0313725 0.521569 0.54902 
0.0313725 0.521569 0.54902 0.0313725 0.521569 0.54902 
0.0313725 0.521569 0.54902 0.0313725 0.521569 0.54902 
0.0313725 0.521569 0.54902 0.0313725 0.521569 0.54902 
0.0313725 0.521569 0.54902 0.0313725 0.521569 0.54902 
0.0313725 0.521569 0.54902 0.0313725 0.521569 0.54902 
0.0313725 0.521569 0.54902 0.0313725 0.521569 0.54902 
0.0313725 0.521569 0.54902 0.0313725 0.521569 0.54902 
0.0313725 0.521569 0.54902 0.0313725 0.521569 0.54902 
0.0313725 0.521569 0.54902 0.0313725 0.521569 0.54902 
0.0313725 0.521569 0.54902 0.0313725 0.521569 0.54902 
0.0313725 0.521569 0.54902 0.0313725 0.521569 0.54902 
0.0313725 0.521569 0.54902 0.0313725 0.521569 0.54902 
0.0313725 0.521569 0.54902 0.0313725 0.521569 0.54902 
0.0313725 0.521569 0.54902 0.0313725 0.521569 0.54902 
0.0313725 0.521569 0.54902 0.0313725 0.521569 0.54902 
0.0313725 0.521569 0.54902 0.0313725 0.521569 0.54902 
0.0313725 0.521569 0.54902 0.0313725 0.521569 0.54902 
0.0313725 0.521569 0.54902 0.0313725 0.521569 0.54902 
0.0313725 0.521569 0.54902 0.0313725 0.521569 0.54902 
0.0313725 0.521569 0.54902 0.0313725 0.521569 0.54902 
0.0313725 0.521569 0.54902 0.0313725 0.521569 0.54902 
0.0313725 0.521569 0.54902 0.0313725 0.521569 0.54902 
0.0313725 0.521569 0.54902 0.0313725 0.521569 0.54902 
0.0313725 0.521569 0.54902 0.0313725 0.521569 0.54902 
0.0313725 0.521569 0.54902 0.0313725 0.521569 0.54902 
0.0313725 0.521569 0.54902 0.0313725 0.521569 0.54902 
0.0313725 0.521569 0.54902 0.0313725 0.521569 0.54902 
0.0313725 0.521569 0.54902 0.0313725 0.521569 0.54902 
0.0313725 0.521569 0.54902 0.0313725 0.521569 0.54902 
0.0313725 0.521569 0.54902 0.0313725 0.521569 0.54902 
0.0313725 0.521569 0.54902 0.0313725 0.521569 0.54902 
0.0313725 0.521569 0.54902 0.0313725 0.521569 0.54902 
0.0313725 0.521569 0.54902 0.0313725 0.521569 0.54902 
0.0313725 0.521569 0.54902 0.0313725 0.521569 0.54902 
0.0313725 0.521569 0.54902 0.0313725 0.521569 0.54902 