# vtk DataFile Version 4.2
vtk output
ASCII
DATASET POLYDATA
POINTS 1017 float
313.163 46.2215 141.829 313.187 46.0584 142.014 313.046 46.2508 141.877 
313.352 46.1121 141.937 313.088 46.4151 141.788 312.965 46.4504 141.926 
313.312 46.3537 141.814 313.032 46.6367 141.833 313.214 46.6425 141.789 
313.116 46.8755 141.876 313.2 45.8712 142.375 313.685 46.1881 142.008 
313.561 45.8278 142.289 312.891 46.4506 142.223 313.166 47.2792 142.077 
312.917 47.2571 142.444 314.186 47.28 142.13 312.995 47.7802 142.665 
313.372 47.8209 142.239 313.198 48.0112 142.49 313.387 48.147 142.42 
313.569 48.1185 142.359 313.385 48.2883 142.68 312.977 46.0861 142.49 
314.073 45.4058 142.817 314.753 45.491 142.837 315.541 45.7953 142.889 
315.875 45.6435 143.158 314.889 46.876 142.412 312.987 47.9401 143.062 
314.201 47.9286 142.379 313.168 48.2368 143.322 313.558 48.2938 142.539 
313.617 44.8453 143.713 313.642 44.7043 144.006 313.499 44.8059 143.772 
313.959 44.9867 143.44 315.356 44.5785 143.995 313.44 44.918 143.676 
313.351 45.2586 143.53 312.834 46.433 143.231 316.418 46.5511 143.374 
315.838 46.9659 143.016 312.828 47.4191 143.632 315.427 47.9443 143.093 
315.798 47.8252 143.295 313.233 48.2776 143.882 315.064 48.1438 143.037 
313.846 48.5997 143.48 313.449 44.8802 143.811 313.506 44.8574 144.214 
314.611 44.2182 144.654 312.92 46.5552 144.683 317.19 46.9957 144.026 
313.099 48.006 144.238 313.78 48.5763 144.501 315.651 48.7626 144.334 
314.55 43.9917 145.335 319.538 45.2327 145.662 313.25 45.336 145.2 
313.162 47.1627 145.696 313.419 47.8498 145.44 317.17 48.6295 145.119 
317.06 48.7414 145.387 317.759 48.3943 145.328 317.383 48.6794 145.362 
317.625 48.5954 145.444 314.392 43.8362 146.728 315.586 43.4543 146.097 
319.942 46.0146 145.839 313.195 46.6938 146.324 319.449 46.714 145.683 
314.715 48.6375 146.193 318.245 48.4985 146.281 316.677 43.2159 146.635 
321.236 44.4612 147.283 320.865 45.7056 146.59 321.286 46.264 146.977 
321.396 46.7513 147.198 313.655 47.3675 147.313 314.054 47.8373 147.544 
317.137 48.8857 147.039 314.283 43.8666 148.314 323.152 45.0841 148.359 
323.073 45.5619 148.243 315.041 48.2912 148.456 314.687 43.4566 149.168 
318.061 42.4726 149.09 324.039 43.5545 149.768 314.017 44.4605 149.118 
324.961 44.0425 149.877 325.375 44.9147 149.821 313.797 46.7414 148.685 
323.629 46.7427 148.886 322.985 47.275 148.699 314.598 43.4198 149.736 
327.022 44.6176 150.954 314.088 46.794 149.502 316.017 42.6213 150.948 
326.689 43.3731 151.449 327.733 43.9944 151.623 327.616 43.5896 151.807 
314.809 43.9775 151.415 328.216 44.3228 151.857 314.389 45.1124 151.061 
314.839 46.7922 151.268 324.634 48.1237 151.009 315.602 42.943 151.91 
322.577 41.9841 151.674 314.644 45.732 151.781 328.21 45.7597 151.977 
314.893 45.9494 152.268 315.218 46.6848 152.181 327.382 47.2492 152.194 
320.984 48.7566 152.095 322.919 48.7442 152.052 316.682 42.1882 153.222 
315.226 45.353 153.416 329.44 46.667 153.288 316.155 47.4759 152.423 
328.553 47.4469 153.256 324.38 48.5464 152.235 327.54 47.8295 152.961 
327.199 48.0668 153.2 328.481 47.7737 153.545 328.194 47.9473 153.562 
316.664 42.223 153.892 329.293 42.5396 153.783 315.383 44.27 153.865 
331.853 45.0043 154.206 328.542 47.9366 153.897 317.257 41.9253 155.741 
317.881 41.5797 154.771 319.345 41.1282 154.85 316.479 42.5966 155.058 
328.262 41.8507 154.259 334.806 42.9131 156.036 315.704 43.7692 154.497 
333.179 45.1824 155.063 331.863 45.9754 154.541 332.371 46.8407 155.428 
328.377 48.0957 154.207 329.372 48.0258 155.265 331.244 47.519 155.349 
327.754 41.0487 155.827 335.182 43.9282 156.013 333.6 46.2784 155.805 
323.163 48.4041 155.745 331.283 47.7135 156.054 331.421 47.5439 155.585 
316.591 43.0283 156.53 336.165 42.1594 157.176 337.145 42.2898 157.511 
337.569 43.1735 157.377 316.665 43.8664 157.402 316.667 44.5464 157.541 
336.879 44.9835 157.231 317.028 46.1552 156.886 333.884 46.8925 156.622 
322.891 40.2875 157.838 334.945 40.7692 158.255 336.058 41.464 157.734 
339.539 42.0635 158.67 340.019 41.8889 158.984 317.003 43.3939 157.976 
338.742 43.5719 158.046 316.958 45.039 158.01 335.917 46.4122 157.472 
332.846 47.7531 157.927 334.807 47.2542 158.091 317.605 42.3543 158.338 
319.253 41.0339 158.903 336.663 40.5612 159.029 317.815 42.4726 159.049 
317.271 43.5572 158.708 341.239 43.1992 159.41 317.248 44.0859 158.843 
340.246 44.1086 159.086 338.186 45.1011 158.154 339.768 45.2321 159.368 
338.9 45.8205 159.252 336.562 46.6905 158.397 317.944 43.2301 160.034 
342.014 43.6179 160.005 341.631 44.1805 159.995 317.802 45.3639 159.472 
318.621 46.1674 159.811 333.991 47.6202 160.142 319.637 41.0715 161.279 
320.659 40.4016 160.549 337.146 39.7959 160.388 344.256 40.7728 161.326 
318.586 42.0629 160.367 344.658 42.0288 161.221 318.606 42.9099 161.375 
318.234 43.9169 160.904 343.564 44.1891 161.493 342.652 44.8033 161.389 
318.874 45.5534 161.179 340.861 45.7346 161.165 319.414 46.3737 160.753 
318.575 44.7108 161.352 342.94 45.0236 162.131 319.672 46.2331 161.496 
346.891 38.8739 163.377 351.718 39.1919 163.982 319.676 41.3581 162.444 
351.881 40.2674 163.611 319.574 42.0824 163.264 349.98 42.3335 163.53 
343.101 45.1199 162.961 358 46.0087 163.017 358 46.0087 163.017 
358 46.0087 163.017 358 46.0087 163.017 358 46.0088 163.017 
321.285 40.0875 163.802 354.883 39.9781 164.248 354.151 40.9172 163.901 
319.806 42.6931 164.21 354.593 42.1314 164.081 357.135 42.7373 164.504 
357.513 43.096 164.534 357.576 43.4508 164.407 357.637 43.4136 164.426 
357.349 43.5056 164.398 357.52 43.4967 164.431 357.605 43.4416 164.44 
348.934 43.6933 164.824 350.219 43.4215 164.747 356.443 43.6571 164.393 
356.994 43.6438 164.39 343.87 44.7794 164.159 356.37 43.7409 164.488 
356.717 43.7666 164.45 358 46.0087 163.017 356.848 43.7914 164.502 
323.232 46.9547 163.272 356.501 43.7787 164.557 356.713 43.7921 164.551 
345.986 37.4981 165.136 360.257 38.8183 165.693 321.606 39.9215 165.38 
361.194 38.9011 165.834 359.401 39.7162 165.289 361.089 39.1689 165.738 
359.007 40.1764 165.167 360.345 39.8184 165.556 357.236 41.8748 164.641 
358.921 40.6307 165.202 360.046 40.1364 165.551 360.442 39.96 165.676 
351.448 42.8597 164.253 357.678 42.3956 164.947 357.563 43.106 164.646 
358.782 41.096 165.343 354.466 43.0768 164.432 357.358 43.1834 164.802 
349.149 43.7311 165.671 353.247 43.5042 165.395 355.248 43.4667 164.688 
339.908 45.7401 164.087 354.545 43.516 165.106 355.148 43.5184 165.249 
355.959 43.5605 165.008 355.619 37.7969 165.916 363.067 38.5427 166.527 
322.582 39.17 166.183 363.174 38.7385 166.368 362.993 38.839 166.296 
363.262 38.8327 166.314 363.278 38.8087 166.321 363.346 38.8183 166.321 
361.596 39.2839 165.992 362.381 39.0229 166.198 362.769 38.9401 166.303 
363.082 38.8545 166.338 363.285 38.8181 166.337 360.247 40.1453 166.121 
360.95 39.7193 166.062 360.636 39.9019 165.808 320.372 42.4145 165.433 
320.718 41.8864 166.041 358.421 41.576 165.587 357.567 42.3695 165.552 
348.113 43.6003 166.648 320.595 44.2912 165.445 350.028 43.5958 166.151 
351.025 43.5082 165.948 353.666 43.5045 165.598 353.828 43.3587 166.013 
355.046 43.4378 165.638 355.3 43.2901 165.872 320.838 44.7516 165.488 
331.168 46.196 165.575 320.878 45.0312 165.227 350.997 36.7701 167.016 
356.809 37.2293 166.971 361.9 37.9585 166.825 362.222 38.0556 166.884 
362.679 38.2574 166.647 363.343 38.3483 166.634 363.182 38.3449 166.612 
363.483 38.2967 166.659 363.442 38.3014 166.651 363.491 38.2858 166.664 
323.895 38.4608 166.661 362.612 38.5237 166.702 363.12 38.7684 166.404 
363.387 38.3031 166.664 363.301 38.7941 166.343 362.699 38.9026 166.414 
357.876 41.2188 166.77 358.791 40.8403 166.521 359.701 40.4115 166.307 
321.154 43.2399 167.048 346.777 43.3781 167.292 351.74 43.3642 166.397 
321.144 44.9742 165.638 351.65 36.6313 167.598 353.617 36.7469 167.526 
359.092 37.6472 167.464 361.091 37.8309 167.017 361.673 37.8611 166.97 
362.116 37.9016 166.993 362.048 37.862 167.023 323.168 38.7131 168.534 
362.706 38.2871 166.752 363.133 38.2966 166.672 363.388 38.294 166.658 
321.854 40.1118 167.359 358.034 39.593 167.833 358.848 40.0359 167.233 
348.276 43.0148 167.776 353.434 42.401 167.61 353.364 42.7487 167.193 
321.68 43.8087 167.61 321.898 44.1949 167.494 323.854 45.1932 167.621 
349.948 36.3925 168.874 356.474 36.8743 168.247 357.523 37.0883 167.846 
358.077 37.3211 167.889 357.605 37.1148 168.121 357.784 37.2805 168.209 
328.463 36.9247 168.653 359.299 38.099 167.691 360.173 37.9521 167.371 
361.523 37.9101 167.085 361.891 37.8593 167.032 324.35 37.9244 168.883 
357.011 38.2696 168.673 361.063 38.125 167.207 322.86 39.2532 169.377 
355.501 39.0787 168.994 322.246 40.234 168.937 353.473 40.4064 169.037 
346.555 41.9315 169.388 354.07 41.4054 168.231 322.162 43.1638 168.655 
322.927 44.4605 168.193 352.377 36.8279 169.192 356.169 36.9427 168.584 
357.362 37.1045 168.355 325.742 37.2994 169.358 355 37.5969 169.261 
356.171 37.7627 168.996 352.371 38.8904 169.93 322.331 41.9124 169.386 
331.012 44.1872 169.375 322.736 44.0294 168.58 348.986 36.5273 170.257 
352.265 37.2605 169.716 351.39 37.2205 169.991 356.602 37.1374 168.701 
357.102 37.1546 168.555 324.355 38.0761 170.968 327.948 36.6265 170.706 
350.257 37.5361 170.55 350.006 39.0885 170.559 344.477 40.5098 171.11 
339.668 35.821 171.202 346.67 36.0688 170.989 347.688 36.1651 170.854 
347.888 36.3213 170.943 327.007 36.861 171.489 348.328 36.633 170.887 
324.385 38.2714 171.447 347.951 37.3602 171.348 323.725 38.9499 171.199 
347.72 38.1286 171.42 346.646 39.4935 171.272 338.345 41.1929 171.522 
343.23 40.269 171.55 323.791 42.2264 171.39 327.8 43.0432 171.775 
324.438 43.0505 171.186 336.651 35.9638 171.814 338.454 35.8855 171.626 
339.426 36.1192 172.23 341.014 36.1296 172.046 342.041 36.1984 171.916 
343.058 36.491 172.017 347.553 36.2295 171.029 326.358 37.4738 172.651 
325.918 37.6179 172.485 326.956 37.1535 172.453 340.846 36.633 172.806 
340.683 36.5781 172.75 340.968 36.6054 172.727 342.421 36.9315 172.507 
343.671 37.4403 172.312 342.928 37.661 172.526 346.634 37.1183 171.637 
[...]
POINT_DATA 1017
COLOR_SCALARS scalars 3
0.0313725 0.521569 0.54902 0.0313725 0.521569 0.54902 0.0313725 0.521569 0.54902 
0.0313725 0.521569 0.54902 0.0313725 0.521569 0.54902 
0.0313725 0.521569 0.54902 0.0313725 0.521569 0.54902 
0.0313725 0.521569 0.54902 0.0313725 0.521569 0.54902 
0.0313725 0.521569 0.54902 0.0313725 0.521569 0.54902 
0.0313725 0.521569 0.54902 0.0313725 0.521569 0.54902 
0.0313725 0.521569 0.54902 0.0313725 0.521569 0.54902 
0.0313725 0.521569 0.54902 0.0313725 0.521569 0.54902 
0.0313725 0.521569 0.54902 0.0313725 0.521569 0.54902 
0.0313725 0.521569 0.54902 0.0313725 0.521569 0.54902 
0.0313725 0.521569 0.54902 0.0313725 0.521569 0.54902 
0.0313725 0.521569 0.54902 0.0313725 0.521569 0.54902 
0.0313725 0.521569 0.54902 0.0313725 0.521569 0.54902 
0.0313725 0.521569 0.54902 0.0313725 0.521569 0.54902 
0.0313725 0.521569 0.54902 0.0313725 0.521569 0.54902 
0.0313725 0.521569 0.54902 0.0313725 0.521569 0.54902 
0.0313725 0.521569 0.54902 0.0313725 0.521569 0.54902 
0.0313725 0.521569 0.54902 0.0313725 0.521569 0.54902 
0.0313725 0.521569 0.54902 0.0313725 0.521569 0.54902 
0.0313725 0.521569 0.54902 0.0313725 0.521569 0.54902 
0.0313725 0.521569 0.54902 0.0313725 0.521569 0.54902 
0.0313725 0.521569 0.54902 0.0313725 0.521569 0.54902 
0.0313725 0.521569 0.54902 0.0313725 0.521569 0.54902 
0.0313725 0.521569 0.54902 0.0313725 0.521569 0.54902 
0.0313725 0.521569 0.54902 0.0313725 0.521569 0.54902 
0.0313725 0.521569 0.54902 0.0313725 0.521569 0.54902 
0.0313725 0.521569 0.54902 0.0313725 0.521569 0.54902 
0.0313725 0.521569 0.54902 0.0313725 0.521569 0.54902 
0.0313725 0.521569 0.54902 0.0313725 0.521569 0.54902 
0.0313725 0.521569 0.54902 0.0313725 0.521569 0.54902 
0.0313725 0.521569 0.54902 0.0313725 0.521569 0.54902 
0.0313725 0.521569 0.54902 0.0313725 0.521569 0.54902 
0.0313725 0.521569 0.54902 0.0313725 0.521569 0.54902 
0.0313725 0.521569 0.54902 0.0313725 0.521569 0.54902 
0.0313725 0.521569 0.54902 0.0313725 0.521569 0.54902 
0.0313725 0.521569 0.54902 0.0313725 0.521569 0.54902 
0.0313725 0.521569 0.54902 0.0313725 0.521569 0.54902 
0.0313725 0.521569 0.54902 0.0313725 0.521569 0.54902 
0.0313725 0.521569 0.54902 0.0313725 0.521569 0.54902 
0.0313725 0.521569 0.54902 0.0313725 0.521569 0.54902 
0.0313725 0.521569 0.54902 0.0313725 0.521569 0.54902 
0.0313725 0.521569 0.54902 0.0313725 0.521569 0.54902 
0.0313725 0.521569 0.54902 0.0313725 0.521569 0.54902 
0.0313725 0.521569 0.54902 0.0313725 0.521569 0.54902 
0.0313725 0.521569 0.54902 0.0313725 0.521569 0.54902 
0.0313725 0.521569 0.54902 0.0313725 0.521569 0.54902 
0.0313725 0.521569 0.54902 0.0313725 0.521569 0.54902 
0.0313725 0.521569 0.54902 0.0313725 0.521569 0.54902 
0.0313725 0.521569 0.54902 0.0313725 0.521569 0.54902 
0.0313725 0.521569 0.54902 0.0313725 0.521569 0.54902 
0.0313725 0.521569 0.54902 0.0313725 0.521569 0.54902 
0.0313725 0.521569 0.54902 0.0313725 0.521569 0.54902 
0.0313725 0.521569 0.54902 0.0313725 0.521569 0.54902 
0.0313725 0.521569 0.54902 0.0313725 0.521569 0.54902 
0.0313725 0.521569 0.54902 0.0313725 0.521569 0.54902 
0.0313725 0.521569 0.54902 0.0313725 0.521569 0.54902 
0.0313725 0.521569 0.54902 0.0313725 0.521569 0.54902 
0.0313725 0.521569 0.54902 0.0313725 0.521569 0.54902 
0.0313725 0.521569 0.54902 0.0313725 0.521569 0.54902 
0.0313725 0.521569 0.54902 0.0313725 0.521569 0.54902 
0.0313725 0.521569 0.54902 0.0313725 0.521569 0.54902 
0.0313725 0.521569 0.54902 0.0313725 0.521569 0.54902 
0.0313725 0.521569 0.54902 0.0313725 0.521569 0.54902 
0.0313725 0.521569 0.54902 0.0313725 0.521569 0.54902 
0.0313725 0.521569 0.54902 0.0313725 0.521569 0.54902 
0.0313725 0.521569 0.54902 0.0313725 0.521569 0.54902 
0.0313725 0.521569 0.54902 0.0313725 0.521569 0.54902 
0.0313725 0.521569 0.54902 0.0313725 0.521569 0.54902 
0.0313725 0.521569 0.54902 0.0313725 0.521569 0.54902 
0.0313725 0.521569 0.54902 0.0313725 0.521569 0.54902 
0.0313725 0.521569 0.54902 0.0313725 0.521569 0.54902 
0.0313725 0.521569 0.54902 0.0313725 0.521569 0.54902 
0.0313725 0.521569 0.54902 0.0313725 0.521569 0.54902 
0.0313725 0.521569 0.54902 0.0313725 0.521569 0.54902 
0.0313725 0.521569 0.54902 0.0313725 0.521569 0.54902 
0.0313725 0.521569 0.54902 0.0313725 0.521569 0.54902 
0.0313725 0.521569 0.54902 0.0313725 0.521569 0.54902 
0.0313725 0.521569 0.54902 0.0313725 0.521569 0.54902 
0.0313725 0.521569 0.54902 0.0313725 0.521569 0.54902 
0.0313725 0.521569 0.54902 0.0313725 0.521569 0.54902 
0.0313725 0.521569 0.54902 0.0313725 0.521569 0.54902 
0.0313725 0.521569 0.54902 0.0313725 0.521569 0.54902 
0.0313725 0.521569 0.54902 0.0313725 0.521569 0.54902 
0.0313725 0.521569 0.54902 0.0313725 0.521569 0.54902 
0.0313725 0.521569 0.54902 0.0313725 0.521569 0.54902 
0.0313725 0.521569 0.54902 0.0313725 0.521569 0.54902 
0.0313725 0.521569 0.54902 0.0313725 0.521569 0.54902 
0.0313725 0.521569 0.54902 0.0313725 0.521569 0.54902 
0.0313725 0.521569 0.54902 0.0313725 0.521569 0.54902 
0.0313725 0.521569 0.54902 0.0313725 0.521569 0.54902 
0.0313725 0.521569 0.54902 0.0313725 0.521569 0.54902 
0.0313725 0.521569 0.54902 0.0313725 0.521569 0.54902 
0.0313725 0.521569 0.54902 0.0313725 0.521569 0.54902 
0.0313725 0.521569 0.54902 0.0313725 0.521569 0.54902 
0.0313725 0.521569 0.54902 0.0313725 0.521569 0.54902 
0.0313725 0.521569 0.54902 0.0313725 0.521569 0.54902 
0.0313725 0.521569 0.54902 0.0313725 0.521569 0.54902 
0.0313725 0.521569 0.54902 0.0313725 0.521569 0.54902 
0.0313725 0.521569 0.54902 0.0313725 0.521569 0.54902 
0.0313725 0.521569 0.54902 0.0313725 0.521569 0.54902 
0.0313725 0.521569 0.54902 0.0313725 0.521569 0.54902 
0.0313725 0.521569 0.54902 0.0313725 0.521569 0.54902 
0.0313725 0.521569 0.54902 0.0313725 0.521569 0.54902 
0.0313725 0.521569 0.54902 0.0313725 0.521569 0.54902 
0.0313725 0.521569 0.54902 0.0313725 0.521569 0.54902 
0.0313725 0.521569 0.54902 0.0313725 0.521569 0.54902 
0.0313725 0.521569 0.54902 0.0313725 0.521569 0.54902 
0.0313725 0.521569 0.54902 0.0313725 0.521569 0.54902 
0.0313725 0.521569 0.54902 0.0313725 0.521569 0.54902 
0.0313725 0.521569 0.54902 0.0313725 0.521569 0.54902 
0.0313725 0.521569 0.54902 0.0313725 0.521569 0.54902 
0.0313725 0.521569 0.54902 0.0313725 0.521569 0.54902 
0.0313725 0.521569 0.54902 0.0313725 0.521569 0.54902 
0.0313725 0.521569 0.54902 0.0313725 0.521569 0.54902 
0.0313725 0.521569 0.54902 0.0313725 0.521569 0.54902 
0.0313725 0.521569 0.54902 0.0313725 0.521569 0.54902 
0.0313725 0.521569 0.54902 0.0313725 0.521569 0.54902 
0.0313725 0.521569 0.54902 0.0313725 0.521569 0.54902 
0.0313725 0.521569 0.54902 0.0313725 0.521569 0.54902 
0.0313725 0.521569 0.54902 0.0313725 0.521569 0.54902 
0.0313725 0.521569 0.54902 0.0313725 0.521569 0.54902 
0.0313725 0.521569 0.54902 0.0313725 0.521569 0.54902 
0.0313725 0.521569 0.54902 0.0313725 0.521569 0.54902 
0.0313725 0.521569 0.54902 0.0313725 0.521569 0.54902 
0.0313725 0.521569 0.54902 0.0313725 0.521569 0.54902 
0.0313725 0.521569 0.54902 0.0313725 0.521569 0.54902 
0.0313725 0.521569 0.54902 0.0313725 0.521569 0.54902 
0.0313725 0.521569 0.54902 0.0313725 0.521569 0.54902 
0.0313725 0.521569 0.54902 0.0313725 0.521569 0.54902 
0.0313725 0.521569 0.54902 0.0313725 0.521569 0.54902 
0.0313725 0.521569 0.54902 0.0313725 0.521569 0.54902 
0.0313725 0.521569 0.54902 0.0313725 0.521569 0.54902 
0.0313725 0.521569 0.54902 0.0313725 0.521569 0.54902 
0.0313725 0.521569 0.54902 0.0313725 0.521569 0.54902 
0.0313725 0.521569 0.54902 0.0313725 0.521569 0.54902 
0.0313725 0.521569 0.54902 0.0313725 0.521569 0.54902 
0.0313725 0.521569 0.54902 0.0313725 0.521569 0.54902 
0.0313725 0.521569 0.54902 0.0313725 0.521569 0.54902 
0.0313725 0.521569 0.54902 0.0313725 0.521569 0.54902 
0.0313725 0.521569 0.54902 0.0313725 0.521569 0.54902 
0.0313725 0.521569 0.54902 0.0313725 0.521569 0.54902 
0.0313725 0.521569 0.54902 0.0313725 0.521569 0.54902 
0.0313725 0.521569 0.54902 0.0313725 0.521569 0.54902 
0.0313725 0.521569 0.54902 0.0313725 0.521569 0.54902 
0.0313725 0.521569 0.54902 0.0313725 0.521569 0.54902 
0.0313725 0.521569 0.54902 0.0313725 0.521569 0.54902 
0.0313725 0.521569 0.54902 0.0313725 0.521569 0.54902 
0.0313725 0.521569 0.54902 0.0313725 0.521569 0.54902 
0.0313725 0.521569 0.54902 0.0313725 0.521569 0.54902 
0.0313725 0.521569 0.54902 0.0313725 0.521569 0.54902 
0.0313725 0.521569 0.54902 0.0313725 0.521569 0.54902 
0.0313725 0.521569 0.54902 0.0313725 0.521569 0.54902 
0.0313725 0.521569 0.54902 0.0313725 0.521569 0.54902 
0.0313725 0.521569 0.54902 0.0313725 0.521569 0.54902 
0.0313725 0.521569 0.54902 0.0313725 0.521569 0.54902 
0.0313725 0.521569 0.54902 0.0313725 0.521569 0.54902 
0.0313725 0.521569 0.54902 0.0313725 0.521569 0.54902 
0.0313725 0.521569 0.54902 0.0313725 0.521569 0.54902 
0.0313725 0.521569 0.54902 0.0313725 0.521569 0.54902 
0.0313725 0.521569 0.54902 0.0313725 0.521569 0.54902 
0.0313725 0.521569 0.54902 0.0313725 0.521569 0.54902 
0.0313725 0.521569 0.54902 0.0313725 0.521569 0.54902 
0.0313725 0.521569 0.54902 0.0313725 0.521569 0.54902 
0.0313725 0.521569 0.54902 0.0313725 0.521569 0.54902 
0.0313725 0.521569 0.54902 0.0313725 0.521569 0.54902 
0.0313725 0.521569 0.54902 0.0313725 0.521569 0.54902 
0.0313725 0.521569 0.54902 0.0313725 0.521569 0.54902 
0.0313725 0.521569 0.54902 0.0313725 0.521569 0.54902 
0.0313725 0.521569 0.54902 0.0313725 0.521569 0.54902 
0.0313725 0.521569 0.54902 0.0313725 0.521569 0.54902 
0.0313725 0.521569 0.54902 0.0313725 0.521569 0.54902 
0.0313725 0.521569 0.54902 0.0313725 0.521569 0.54902 
0.0313725 0.521569 0.54902 0.0313725 0.521569 0.54902 
0.0313725 0.521569 0.54902 0.0313725 0.521569 0.54902 
0.0313725 0.521569 0.54902 0.0313725 0.521569 0.54902 
0.0313725 0.521569 0.54902 0.0313725 0.521569 0.54902 
0.0313725 0.521569 0.54902 0.0313725 0.521569 0.54902 
0.0313725 0.521569 0.54902 0.0313725 0.521569 0.54902 
0.0313725 0.521569 0.54902 0.0313725 0.521569 0.54902 
0.0313725 0.521569 0.54902 0.0313725 0.521569 0.54902 
0.0313725 0.521569 0.54902 0.0313725 0.521569 0.54902 
0.0313725 0.521569 0.54902 0.0313725 0.521569 0.54902 
0.0313725 0.521569 0.54902 0.0313725 0.521569 0.54902 
0.0313725 0.521569 0.54902 0.0313725 0.521569 0.54902 
0.0313725 0.521569 0.54902 0.0313725 0.521569 0.54902 
0.0313725 0.521569 0.54902 0.0313725 0.521569 0.54902 
0.0313725 0.521569 0.54902 0.0313725 0.521569 0.54902 
0.0313725 0.521569 0.54902 0.0313725 0.521569 0.54902 
0.0313725 0.521569 0.54902 0.0313725 0.521569 0.54902 
0.0313725 0.521569 0.54902 0.0313725 0.521569 0.54902 
0.0313725 0.521569 0.54902 0.0313725 0.521569 0.54902 
0.0313725 0.521569 0.54902 0.0313725 0.521569 0.54902 
0.0313725 0.521569 0.54902 0.0313725 0.521569 0.54902 
0.0313725 0.521569 0.54902 0.0313725 0.521569 0.54902 
0.0313725 0.521569 0.54902 0.0313725 0.521569 0.54902 
0.0313725 0.521569 0.54902 0.0313725 0.521569 0.54902 
0.0313725 0.521569 0.54902 0.0313725 0.521569 0.54902 
0.0313725 0.521569 0.54902 0.0313725 0.521569 0.54902 
0.0313725 0.521569 0.54902 0.0313725 0.521569 0.54902 
0.0313725 0.521569 0.54902 0.0313725 0.521569 0.54902 
0.0313725 0.521569 0.54902 0.0313725 0.521569 0.54902 
0.0313725 0.521569 0.54902 0.0313725 0.521569 0.54902 
0.0313725 0.521569 0.54902 0.0313725 0.521569 0.54902 
0.0313725 0.521569 0.54902 0.0313725 0.521569 0.54902 
0.0313725 0.521569 0.54902 0.0313725 0.521569 0.54902 
0.0313725 0.521569 0.54902 0.0313725 0.521569 0.54902 
0.0313725 0.521569 0.54902 0.0313725 0.521569 0.54902 
0.0313725 0.521569 0.54902 0.0313725 0.521569 0.54902 
0.0313725 0.521569 0.54902 0.0313725 0.521569 0.54902 
0.0313725 0.521569 0.54902 0.0313725 0.521569 0.54902 
0.0313725 0.521569 0.54902 0.0313725 0.521569 0.54902 
0.0313725 0.521569 0.54902 0.0313725 0.521569 0.54902 
0.0313725 0.521569 0.54902 0.0313725 0.521569 0.54902 
0.0313725 0.521569 0.54902 0.0313725 0.521569 0.54902 
0.0313725 0.521569 0.54902 0.0313725 0.521569 0.54902 
0.0313725 0.521569 0.54902 0.0313725 0.521569 0.54902 
0.0313725 0.521569 0.54902 0.0313725 0.521569 0.54902 
0.0313725 0.521569 0.54902 0.0313725 0.521569 0.54902 
0.0313725 0.521569 0.54902 0.0313725 0.521569 0.54902 
0.0313725 0.521569 0.54902 0.0313725 0.521569 0.54902 
0.0313725 0.521569 0.54902 0.0313725 0.521569 0.54902 
0.0313725 0.521569 0.54902 0.0313725 0.521569 0.54902 
0.0313725 0.521569 0.54902 0.0313725 0.521569 0.54902 
0.0313725 0.521569 0.54902 0.0313725 0.521569 0.54902 
0.0313725 0.521569 0.54902 0.0313725 0.521569 0.54902 
0.0313725 0.521569 0.54902 0.0313725 0.521569 0.54902 
0.0313725 0.521569 0.54902 0.0313725 0.521569 0.54902 
0.0313725 0.521569 0.54902 0.0313725 0.521569 0.54902 
0.0313725 0.521569 0.54902 0.0313725 0.521569 0.54902 
0.0313725 0.521569 0.54902 0.0313725 0.521569 0.54902 
0.0313725 0.521569 0.54902 0.0313725 0.521569 0.54902 
0.0313725 0.521569 0.54902 0.0313725 0.521569 0.54902 
0.0313725 0.521569 0.54902 0.0313725 0.521569 0.54902 
0.0313725 0.521569 0.54902 0.0313725 0.521569 0.54902 
0.0313725 0.521569 0.54902 0.0313725 0.521569 0.54902 
0.0313725 0.521569 0.54902 0.0313725 0.521569 0.54902 
0.0313725 0.521569 0.54902 0.0313725 0.521569 0.54902 
0.0313725 0.521569 0.54902 0.0313725 0.521569 0.54902 
0.0313725 0.521569 0.54902 0.0313725 0.521569 0.54902 
0.0313725 0.521569 0.54902 0.0313725 0.521569 0.54902 
0.0313725 0.521569 0.54902 0.0313725 0.521569 0.54902 
0.0313725 0.521569 0.54902 0.0313725 0.521569 0.54902 
0.0313725 0.521569 0.54902 0.0313725 0.521569 0.54902 
0.0313725 0.521569 0.54902 0.0313725 0.521569 0.54902 
0.0313725 0.521569 0.54902 0.0313725 0.521569 0.54902 
0.0313725 0.521569 0.54902 0.0313725 0.521569 0.54902 
0.0313725 0.521569 0.54902 0.0313725 0.521569 0.54902 
0.0313725 0.521569 0.54902 0.0313725 0.521569 0.54902 
0.0313725 0.521569 0.54902 0.0313725 0.521569 0.54902 
0.0313725 0.521569 0.54902 0.0313725 0.521569 0.54902 
0.0313725 0.521569 0.54902 0.0313725 0.521569 0.54902 
0.0313725 0.521569 0.54902 0.0313725 0.521569 0.54902 
0.0313725 0.521569 0.54902 0.0313725 0.521569 0.54902 
0.0313725 0.521569 0.54902 0.0313725 0.521569 0.54902 
0.0313725 0.521569 0.54902 0.0313725 0.521569 0.54902 
0.0313725 0.521569 0.54902 0.0313725 0.521569 0.54902 
0.0313725 0.521569 0.54902 0.0313725 0.521569 0.54902 
0.0313725 0.521569 0.54902 0.0313725 0.521569 0.54902 
0.0313725 0.521569 0.54902 0.0313725 0.521569 0.54902 
0.0313725 0.521569 0.54902 0.0313725 0.521569 0.54902 
0.0313725 0.521569 0.54902 0.0313725 0.521569 0.54902 
0.0313725 0.521569 0.54902 0.0313725 0.521569 0.54902 
0.0313725 0.521569 0.54902 0.0313725 0.521569 0.54902 
0.0313725 0.521569 0.54902 0.0313725 0.521569 0.54902 
0.0313725 0.521569 0.54902 0.0313725 0.521569 0.54902 
0.0313725 0.521569 0.54902 0.0313725 0.521569 0.54902 
0.0313725 0.521569 0.54902 0.0313725 0.521569 0.54902 
0.0313725 0.521569 0.54902 0.0313725 0.521569 0.54902 
0.0313725 0.521569 0.54902 0.0313725 0.521569 0.54902 
0.0313725 0.521569 0.54902 0.0313725 0.521569 0.54902 
0.0313725 0.521569 0.54902 0.0313725 0.521569 0.54902 
0.0313725 0.521569 0.54902 0.0313725 0.521569 0.54902 
0.0313725 0.521569 0.54902 0.0313725 0.521569 0.54902 
0.0313725 0.521569 0.54902 0.0313725 0.521569 0.54902 
0.0313725 0.521569 0.54902 0.0313725 0.521569 0.54902 
0.0313725 0.521569 0.54902 0.0313725 0.521569 0.54902 
0.0313725 0.521569 0.54902 0.0313725 0.521569 0.54902 
0.0313725 0.521569 0.54902 0.0313725 0.521569 0.54902 
0.0313725 0.521569 0.54902 0.0313725 0.521569 0.54902 
0.0313725 0.521569 0.54902 0.0313725 0.521569 0.54902 
0.0313725 0.521569 0.54902 0.0313725 0.521569 0.54902 
0.0313725 0.521569 0.54902 0.0313725 0.521569 0.54902 
0.0313725 0.521569 0.54902 0.0313725 0.521569 0.54902 
0.0313725 0.521569 0.54902 0.0313725 0.521569 0.54902 
0.0313725 0.521569 0.54902 0.0313725 0.521569 0.54902 
0.0313725 0.521569 0.54902 0.0313725 0.521569 0.54902 
0.0313725 0.521569 0.54902 0.0313725 0.521569 0.54902 
0.0313725 0.521569 0.54902 0.0313725 0.521569 0.54902 
0.0313725 0.521569 0.54902 0.0313725 0.521569 0.54902 
0.0313725 0.521569 0.54902 0.0313725 0.521569 0.54902 
0.0313725 0.521569 0.54902 0.0313725 0.521569 0.54902 
0.0313725 0.521569 0.54902 0.0313725 0.521569 0.54902 
0.0313725 0.521569 0.54902 0.0313725 0.521569 0.54902 
0.0313725 0.521569 0.54902 0.0313725 0.521569 0.54902 
0.0313725 0.521569 0.54902 0.0313725 0.521569 0.54902 
0.0313725 0.521569 0.54902 0.0313725 0.521569 0.54902 
0.0313725 0.521569 0.54902 0.0313725 0.521569 0.54902 
0.0313725 0.521569 0.54902 0.0313725 0.521569 0.54902 
0.0313725 0.521569 0.54902 0.0313725 0.521569 0.54902 
0.0313725 0.521569 0.54902 0.0313725 0.521569 0.54902 
0.0313725 0.521569 0.54902 0.0313725 0.521569 0.54902 
0.0313725 0.521569 0.54902 0.0313725 0.521569 0.54902 
0.0313725 0.521569 0.54902 0.0313725 0.521569 0.54902 
0.0313725 0.521569 0.54902 0.0313725 0.521569 0.54902 
0.0313725 0.521569 0.54902 0.0313725 0.521569 0.54902 
0.0313725 0.521569 0.54902 0.0313725 0.521569 0.54902 
0.0313725 0.521569 0.54902 0.0313725 0.521569 0.54902 
0.0313725 0.521569 0.54902 0.0313725 0.521569 0.54902 
0.0313725 0.521569 0.54902 0.0313725 0.521569 0.54902 
0.0313725 0.521569 0.54902 0.0313725 0.521569 0.54902 
0.0313725 0.521569 0.54902 0.0313725 0.521569 0.54902 
0.0313725 0.521569 0.54902 0.0313725 0.521569 0.54902 
0.0313725 0.521569 0.54902 0.0313725 0.521569 0.54902 
0.0313725 0.521569 0.54902 0.0313725 0.521569 0.54902 
0.0313725 0.521569 0.54902 0.0313725 0.521569 0.54902 
0.0313725 0.521569 0.54902 0.0313725 0.521569 0.54902 
0.0313725 0.521569 0.54902 0.0313725 0.521569 0.54902 
0.0313725 0.521569 0.54902 0.0313725 0.521569 0.54902 
0.0313725 0.521569 0.54902 0.0313725 0.521569 0.54902 
0.0313725 0.521569 0.54902 0.0313725 0.521569 0.54902 
0.0313725 0.521569 0.54902 0.0313725 0.521569 0.54902 
0.0313725 0.521569 0.54902 0.0313725 0.521569 0.54902 
0.0313725 0.521569 0.54902 0.0313725 0.521569 0.54902 
0.0313725 0.521569 0.54902 0.0313725 0.521569 0.54902 
0.0313725 0.521569 0.54902 0.0313725 0.521569 0.54902 
0.0313725 0.521569 0.54902 0.0313725 0.521569 0.54902 
0.0313725 0.521569 0.54902 0.0313725 0.521569 0.54902 
0.0313725 0.521569 0.54902 0.0313725 0.521569 0.54902 
0.0313725 0.521569 0.54902 0.0313725 0.521569 0.54902 
0.0313725 0.521569 0.54902 0.0313725 0.521569 0.54902 
0.0313725 0.521569 0.54902 0.0313725 0.521569 0.54902 
0.0313725 0.521569 0.54902 0.0313725 0.521569 0.54902 
0.0313725 0.521569 0.54902 0.0313725 0.521569 0.54902 
0.0313725 0.521569 0.54902 0.0313725 0.521569 0.54902 
0.0313725 0.521569 0.54902 0.0313725 0.521569 0.54902 
0.0313725 0.521569 0.54902 0.0313725 0.521569 0.54902 
0.0313725 0.521569 0.54902 0.0313725 0.521569 0.54902 
0.0313725 0.521569 0.54902 0.0313725 0.521569 0.54902 
0.0313725 0.521569 0.54902 0.0313725 0.521569 0.54902 
0.0313725 0.521569 0.54902 0.0313725 0.521569 0.54902 
0.0313725 0.521569 0.54902 0.0313725 0.521569 0.54902 
0.0313725 0.521569 0.54902 0.0313725 0.521569 0.54902 
0.0313725 0.521569 0.54902 0.0313725 0.521569 0.54902 
0.0313725 0.521569 0.54902 0.0313725 0.521569 0.54902 
0.0313725 0.521569 0.54902 0.0313725 0.521569 0.54902 
0.0313725 0.521569 0.54902 0.0313725 0.521569 0.54902 
0.0313725 0.521569 0.54902 0.0313725 0.521569 0.54902 
0.0313725 0.521569 0.54902 0.0313725 0.521569 0.54902 
0.0313725 0.521569 0.54902 0.0313725 0.521569 0.54902 
0.0313725 0.521569 0.54902 0.0313725 0.521569 0.54902 
0.0313725 0.521569 0.54902 0.0313725 0.521569 0.54902 
0.0313725 0.521569 0.54902 0.0313725 0.521569 0.54902 
0.0313725 0.521569 0.54902 0.0313725 0.521569 0.54902 
0.0313725 0.521569 0.54902 0.0313725 0.521569 0.54902 
0.0313725 0.521569 0.54902 0.0313725 0.521569 0.54902 
0.0313725 0.521569 0.54902 0.0313725 0.521569 0.54902 
0.0313725 0.521569 0.54902 0.0313725 0.521569 0.54902 
0.0313725 0.521569 0.54902 0.0313725 0.521569 0.54902 
0.0313725 0.521569 0.54902 0.0313725 0.521569 0.54902 
0.0313725 0.521569 0.54902 0.0313725 0.521569 0.54902 
0.0313725 0.521569 0.54902 0.0313725 0.521569 0.54902 
0.0313725 0.521569 0.54902 0.0313725 0.521569 0.54902 