# vtk DataFile Version 4.2
vtk output
ASCII
DATASET POLYDATA
POINTS 7874 float
353.589 77.3163 104.355 353.839 77.357 104.411 353.798 77.4335 104.441 
345.072 73.6067 105.001 344.683 73.4925 105.044 345.432 73.7352 104.991 
345.17 73.687 105.041 345.79 73.8803 105.01 347.363 74.5631 104.843 
347.962 74.8312 104.73 348.612 75.0719 104.684 349.464 75.2005 104.837 
347.89 74.8338 104.76 348.414 75.0819 104.653 349.946 75.4461 104.762 
350.126 75.726 104.619 348.808 75.2761 104.672 349.545 75.5717 104.68 
350.394 75.9426 104.667 351.954 76.526 104.514 352.083 76.7655 104.512 
351.96 76.6722 104.453 352.749 76.9519 104.418 354.219 77.4975 104.497 
352.486 76.9347 104.459 353.205 77.2359 104.534 356.325 78.6528 104.807 
356.882 78.8953 104.715 358.312 79.37 104.706 356.823 79.0299 104.854 
357.782 79.6196 104.85 359.538 80.6653 104.822 362.619 82.2746 104.696 
362.795 82.301 104.62 363.602 82.388 104.895 364.743 82.7937 104.982 
363.095 82.5474 104.623 363.548 82.7854 104.673 363.538 82.7228 104.622 
365.166 83.0764 104.928 364.884 83.1729 104.794 364.123 83.0217 104.725 
365.378 83.447 104.916 375.593 87.4753 104.863 375.335 87.3305 104.923 
375.639 87.5572 104.889 377.742 88.5939 104.748 378.115 88.814 104.723 
378.571 89.0451 104.754 378.843 89.1361 104.68 379.777 89.5223 104.685 
380.632 89.8915 104.675 380.029 89.7582 104.786 380.556 90.0765 104.787 
381.193 90.3122 104.633 381.629 90.5494 104.649 381.229 90.453 104.65 
381.561 90.6069 104.623 381.859 90.6545 104.711 381.824 90.7122 104.661 
381.978 90.7331 104.76 381.589 90.6635 104.691 381.824 90.7522 104.702 
381.977 90.7765 104.757 343.027 72.8192 105.403 343.126 72.9849 105.209 
343.178 72.6709 105.568 343.242 73.0653 105.117 343.2 73.0651 105.147 
343.508 73.1127 105.121 344.143 73.2505 105.135 346.678 74.1661 105.038 
347.147 74.1621 105.319 343.357 73.1309 105.094 343.689 73.2121 105.13 
344.373 73.4144 105.182 345.949 73.9295 105.141 346.864 74.2947 105.038 
347.649 74.4895 105.08 348.527 74.6783 105.207 351.294 75.696 105.183 
351.995 76.1711 105.188 352.275 76.3913 104.981 353.077 76.5297 105.105 
352.66 76.8424 104.973 355.775 78.1139 104.814 354.832 77.9189 104.947 
355.813 78.4238 105.015 357.475 79.494 105.049 357.546 79.5063 105.309 
359.17 80.4888 104.916 363.292 82.1034 105.26 363.687 82.35 105.151 
364.381 82.4561 105.252 366.42 83.7373 105.109 364.924 83.3342 105.047 
365.912 83.7501 105.065 365.877 83.7955 105.203 367.57 84.2927 105.285 
368.285 84.2476 105.487 366.36 84.0028 105.192 367.034 84.2586 105.33 
368.477 84.8021 105.483 368.44 84.7204 105.383 369.209 84.9303 105.437 
369.832 85.1236 105.511 370.445 85.2139 105.625 368.964 84.9547 105.474 
370.148 85.2344 105.597 373.416 86.8239 104.936 373.75 86.8233 105.033 
373.517 86.8325 104.968 373.711 86.8252 105.101 374.214 87.0214 105.019 
374.884 87.2371 104.971 376.459 87.8203 104.937 377.916 88.1931 105.345 
374.627 87.2199 105.028 375.356 87.512 105.04 376.194 87.8738 104.884 
377.083 88.2419 104.837 378.352 88.5044 105.152 379.199 88.6759 105.225 
376.661 88.1221 104.871 377.346 88.4311 104.839 381.27 89.8474 105.039 
382.119 90.7239 104.97 382.029 90.7874 104.866 337.304 70.3251 106.925 
337.465 70.5125 106.772 337.812 70.7075 106.609 338.118 70.857 106.507 
338.212 70.8448 106.487 338.787 70.9921 106.423 340.51 71.3897 106.371 
341.704 71.8472 106.21 338.508 70.9806 106.44 339.929 71.3344 106.437 
340.9 71.6352 106.409 341.782 71.9944 106.291 343.139 72.9409 105.359 
342.655 72.4723 105.852 347.74 74.1702 105.594 347.471 74.1707 105.65 
347.61 74.4844 105.142 348.079 74.5073 105.417 352.553 76.1417 105.494 
353.171 76.2472 105.552 351.57 76.1601 105.287 351.986 76.469 104.969 
352.206 76.2557 105.434 352.31 76.4919 105.073 352.735 76.5241 105.426 
355.329 77.1192 105.323 353.424 77.097 105.477 357.511 79.3458 105.769 
360.975 79.9031 105.843 363.747 82.0634 105.535 364.194 82.1819 105.547 
362.726 81.9679 105.403 363.309 82.4621 105.013 363.538 82.1528 105.654 
363.889 82.6 105.237 364.038 82.4144 105.535 366.141 82.9627 105.464 
368.646 84.0815 105.809 369.731 84.7748 105.653 367.522 84.4365 105.576 
371.373 85.3886 105.75 372.529 85.672 105.778 373.664 86.1188 105.628 
370.894 85.3801 105.776 372.111 85.7261 105.833 373.441 86.7132 105.098 
373.332 86.3765 105.491 378.357 88.0438 105.655 379.076 88.1607 105.746 
377.568 88.1048 105.475 378.088 88.5787 105.122 378.181 88.1108 105.742 
378.656 88.6644 105.35 378.768 88.3865 105.668 381.639 89.8638 105.545 
380.98 89.9784 105.437 382.17 90.5656 105.214 382.025 90.3156 105.425 
382.318 90.5608 105.421 382.374 90.4898 105.618 382.315 90.5933 105.428 
382.18 90.7462 105.083 382.084 90.7618 105.024 334.901 69.3121 107.737 
334.519 69.0933 107.951 334.648 69.2309 107.859 336.425 69.8695 107.323 
338.285 70.2874 107.332 335.068 69.4167 107.727 335.721 69.6644 107.581 
336.383 69.9318 107.422 337.042 70.2559 107.087 338.589 70.5226 107.044 
339.299 70.6077 107.028 342.081 71.3846 106.724 344.934 72.3836 106.981 
345.172 72.6469 106.578 346.041 72.7915 106.713 349.722 74.3117 106.719 
349.987 74.6106 106.299 350.962 74.7931 106.511 354.709 75.8599 106.667 
352.268 76.2255 105.92 361.735 80.1948 106.679 362.054 80.5343 106.196 
363.312 81.2549 105.954 362.39 81.1776 106.403 364.153 82.3483 106.154 
364.358 82.603 105.868 369.636 84.1876 106.54 370.053 84.4431 106.312 
370.923 84.5004 106.498 376.806 86.4386 106.951 371.634 85.492 106.123 
377.12 86.7565 106.591 377.992 86.8922 106.797 377.057 87.7096 105.807 
381.894 89.7681 106.202 381.548 89.9042 105.963 381.881 90.1898 105.638 
382.2 90.3028 105.783 382.33 90.3311 105.836 382.453 90.3475 105.972 
382.219 90.6919 105.248 382.441 90.4186 105.883 333.951 68.7644 108.313 
333.401 68.5154 108.595 333.64 68.6627 108.509 334.256 68.9955 108.157 
338.848 70.179 107.57 339.601 70.3262 107.452 337.853 70.2497 107.558 
338.216 70.6158 106.992 338.602 70.2861 107.707 338.871 70.7009 107.087 
339.141 70.5145 107.433 341.69 71.5408 107.396 345.576 72.2938 107.378 
346.179 72.4441 107.372 344.417 72.349 107.151 344.71 72.818 106.493 
345.298 72.3645 107.42 345.528 72.8573 106.733 345.829 72.6053 107.196 
350.421 74.2893 107.157 351.083 74.463 107.199 349.184 74.2221 106.855 
349.527 74.6152 106.361 350.129 74.3409 107.203 349.986 74.662 106.471 
350.58 74.673 106.885 351.452 75.5734 106.523 362.004 79.9823 107.141 
362.325 79.9489 107.412 361.196 80.3011 106.84 361.649 80.7112 106.395 
362.03 80.1374 107.244 362.226 80.6842 106.582 362.774 80.6524 106.781 
362.822 80.8011 107.13 363.529 81.6962 106.791 368.041 82.6579 107.103 
370.191 83.1604 107.664 370.279 83.9829 106.961 371.25 84.042 107.108 
369.017 84.1953 106.679 369.986 84.1215 107.028 370.29 84.6535 106.47 
370.656 84.3582 106.902 377.42 86.2818 107.408 378.044 86.4503 107.45 
376.259 86.3951 107.096 376.571 86.9521 106.49 377.129 86.3597 107.426 
377.356 86.9671 106.753 377.673 86.651 107.227 382.237 89.9186 106.423 
382.412 90.1321 106.273 381.968 89.8241 106.427 382.326 90.0778 106.337 
382.533 90.2202 106.299 332.524 67.9443 109.26 334.192 68.2877 109.212 
334.505 68.5446 108.81 335.253 68.6291 108.752 338.184 69.0361 108.758 
333.122 68.3771 108.829 334.731 68.89 108.659 342.123 70.1517 108.77 
342.806 70.578 108.87 343.062 70.8064 108.431 347.621 72.3323 108.619 
347.835 72.6458 108.124 348.826 72.827 108.338 352.738 74.4901 108.649 
352.946 74.7358 108.177 353.862 74.7935 108.335 361.739 78.8941 107.943 
362.916 80.2664 107.566 362.751 79.7163 107.885 362.052 80.1121 107.885 
362.94 80.527 107.856 364.721 81.6134 108.052 368.073 81.7613 108.377 
368.748 82.3592 108.459 369.025 82.6468 108.017 369.899 82.7472 108.191 
374.713 84.3682 108.639 374.965 84.6574 108.206 375.767 84.788 108.341 
379.285 86.3496 108.689 378.122 86.735 107.608 379.553 86.8229 108.057 
380.136 87.5397 108.32 381.487 88.1657 107.96 381.993 88.8319 107.734 
382.554 89.9572 106.748 382.556 90.1094 106.53 331.161 67.2929 110.17 
331.355 67.4269 109.989 331.148 67.3531 110.129 331.927 67.6318 109.723 
334.762 68.1992 109.428 335.513 68.3248 109.261 331.414 67.4855 109.977 
332.347 67.8496 109.657 333.82 68.2218 109.508 334.084 68.5306 108.968 
334.522 68.2826 109.572 334.471 68.5734 108.934 335.003 68.5655 109.163 
338.155 69.4948 109.364 343.466 70.4506 109.312 344.113 70.5807 109.319 
342.311 70.6028 109.141 342.479 71.0477 108.423 343.21 70.5679 109.385 
343.332 71.0259 108.673 343.703 70.7647 109.136 346.874 71.2107 109.542 
344.593 71.3891 109.023 348.355 72.2842 109.081 347.044 72.2955 108.774 
348.051 72.3747 109.142 347.853 72.6809 108.344 348.506 72.683 108.793 
349.523 73.6141 108.332 350.262 73.7584 108.678 353.454 74.3541 109.157 
353.121 73.8842 109.334 354.079 74.4474 109.124 352.12 74.4873 108.756 
352.467 75.0451 108.087 353.127 74.5335 109.245 353.285 75.0727 108.564 
353.633 74.7612 109.053 354.145 75.2465 109.357 357.854 76.1641 108.814 
359.066 76.6864 109.181 363.697 79.4195 108.929 367.4 81.3134 108.488 
366.871 80.881 108.872 368.536 81.3299 109.178 369.484 82.1723 108.929 
370.307 82.3317 108.891 368.088 82.389 108.625 369.082 82.2751 109.025 
369.31 82.924 108.299 369.707 82.5456 108.815 369.063 83.425 107.777 
370.18 82.9788 108.822 370.977 83.6927 108.415 375.439 84.2203 109.093 
376.211 84.4268 109.075 375.033 84.2802 109.139 375.256 84.9129 108.431 
375.641 84.5727 108.927 379.579 86.1008 109.235 379.865 86.0649 109.526 
378.749 86.2547 108.793 379.013 86.7434 108.228 379.566 86.2041 109.298 
379.699 86.9489 108.408 380.299 86.9122 108.731 380.278 86.9695 109.072 
381.781 87.9207 108.968 381.513 88.1532 108.741 381.793 88.5536 108.204 
382.175 88.5889 108.548 382.151 88.6016 108.618 382.503 89.601 107.3 
382.499 89.2189 107.947 382.536 88.8965 108.518 382.545 89.9219 106.834 
330.973 66.9672 110.713 331.037 67.1913 110.366 331.07 67.2731 110.296 
337.975 68.0502 110.595 338.617 68.4077 110.689 338.857 68.6411 110.152 
339.89 68.7075 110.321 342.225 69.3396 109.977 344.844 70.1106 110.415 
[...]
POINT_DATA 7874
COLOR_SCALARS scalars 3
0.0313725 0.521569 0.54902 0.0313725 0.521569 0.54902 0.0313725 0.521569 0.54902 
0.0313725 0.521569 0.54902 0.0313725 0.521569 0.54902 
0.0313725 0.521569 0.54902 0.0313725 0.521569 0.54902 
0.0313725 0.521569 0.54902 0.0313725 0.521569 0.54902 
0.0313725 0.521569 0.54902 0.0313725 0.521569 0.54902 
0.0313725 0.521569 0.54902 0.0313725 0.521569 0.54902 
0.0313725 0.521569 0.54902 0.0313725 0.521569 0.54902 
0.0313725 0.521569 0.54902 0.0313725 0.521569 0.54902 
0.0313725 0.521569 0.54902 0.0313725 0.521569 0.54902 
0.0313725 0.521569 0.54902 0.0313725 0.521569 0.54902 
0.0313725 0.521569 0.54902 0.0313725 0.521569 0.54902 
0.0313725 0.521569 0.54902 0.0313725 0.521569 0.54902 
0.0313725 0.521569 0.54902 0.0313725 0.521569 0.54902 
0.0313725 0.521569 0.54902 0.0313725 0.521569 0.54902 
0.0313725 0.521569 0.54902 0.0313725 0.521569 0.54902 
0.0313725 0.521569 0.54902 0.0313725 0.521569 0.54902 
0.0313725 0.521569 0.54902 0.0313725 0.521569 0.54902 
0.0313725 0.521569 0.54902 0.0313725 0.521569 0.54902 
0.0313725 0.521569 0.54902 0.0313725 0.521569 0.54902 
0.0313725 0.521569 0.54902 0.0313725 0.521569 0.54902 
0.0313725 0.521569 0.54902 0.0313725 0.521569 0.54902 
0.0313725 0.521569 0.54902 0.0313725 0.521569 0.54902 
0.0313725 0.521569 0.54902 0.0313725 0.521569 0.54902 
0.0313725 0.521569 0.54902 0.0313725 0.521569 0.54902 
0.0313725 0.521569 0.54902 0.0313725 0.521569 0.54902 
0.0313725 0.521569 0.54902 0.0313725 0.521569 0.54902 
0.0313725 0.521569 0.54902 0.0313725 0.521569 0.54902 
0.0313725 0.521569 0.54902 0.0313725 0.521569 0.54902 
0.0313725 0.521569 0.54902 0.0313725 0.521569 0.54902 
0.0313725 0.521569 0.54902 0.0313725 0.521569 0.54902 
0.0313725 0.521569 0.54902 0.0313725 0.521569 0.54902 
0.0313725 0.521569 0.54902 0.0313725 0.521569 0.54902 
0.0313725 0.521569 0.54902 0.0313725 0.521569 0.54902 
0.0313725 0.521569 0.54902 0.0313725 0.521569 0.54902 
0.0313725 0.521569 0.54902 0.0313725 0.521569 0.54902 
0.0313725 0.521569 0.54902 0.0313725 0.521569 0.54902 
0.0313725 0.521569 0.54902 0.0313725 0.521569 0.54902 
0.0313725 0.521569 0.54902 0.0313725 0.521569 0.54902 
0.0313725 0.521569 0.54902 0.0313725 0.521569 0.54902 
0.0313725 0.521569 0.54902 0.0313725 0.521569 0.54902 
0.0313725 0.521569 0.54902 0.0313725 0.521569 0.54902 
0.0313725 0.521569 0.54902 0.0313725 0.521569 0.54902 
0.0313725 0.521569 0.54902 0.0313725 0.521569 0.54902 
0.0313725 0.521569 0.54902 0.0313725 0.521569 0.54902 
0.0313725 0.521569 0.54902 0.0313725 0.521569 0.54902 
0.0313725 0.521569 0.54902 0.0313725 0.521569 0.54902 
0.0313725 0.521569 0.54902 0.0313725 0.521569 0.54902 
0.0313725 0.521569 0.54902 0.0313725 0.521569 0.54902 
0.0313725 0.521569 0.54902 0.0313725 0.521569 0.54902 
0.0313725 0.521569 0.54902 0.0313725 0.521569 0.54902 
0.0313725 0.521569 0.54902 0.0313725 0.521569 0.54902 
0.0313725 0.521569 0.54902 0.0313725 0.521569 0.54902 
0.0313725 0.521569 0.54902 0.0313725 0.521569 0.54902 
0.0313725 0.521569 0.54902 0.0313725 0.521569 0.54902 
0.0313725 0.521569 0.54902 0.0313725 0.521569 0.54902 
0.0313725 0.521569 0.54902 0.0313725 0.521569 0.54902 
0.0313725 0.521569 0.54902 0.0313725 0.521569 0.54902 
0.0313725 0.521569 0.54902 0.0313725 0.521569 0.54902 
0.0313725 0.521569 0.54902 0.0313725 0.521569 0.54902 
0.0313725 0.521569 0.54902 0.0313725 0.521569 0.54902 
0.0313725 0.521569 0.54902 0.0313725 0.521569 0.54902 
0.0313725 0.521569 0.54902 0.0313725 0.521569 0.54902 
0.0313725 0.521569 0.54902 0.0313725 0.521569 0.54902 
0.0313725 0.521569 0.54902 0.0313725 0.521569 0.54902 
0.0313725 0.521569 0.54902 0.0313725 0.521569 0.54902 
0.0313725 0.521569 0.54902 0.0313725 0.521569 0.54902 
0.0313725 0.521569 0.54902 0.0313725 0.521569 0.54902 
0.0313725 0.521569 0.54902 0.0313725 0.521569 0.54902 
0.0313725 0.521569 0.54902 0.0313725 0.521569 0.54902 
0.0313725 0.521569 0.54902 0.0313725 0.521569 0.54902 
0.0313725 0.521569 0.54902 0.0313725 0.521569 0.54902 
0.0313725 0.521569 0.54902 0.0313725 0.521569 0.54902 
0.0313725 0.521569 0.54902 0.0313725 0.521569 0.54902 
0.0313725 0.521569 0.54902 0.0313725 0.521569 0.54902 
0.0313725 0.521569 0.54902 0.0313725 0.521569 0.54902 
0.0313725 0.521569 0.54902 0.0313725 0.521569 0.54902 
0.0313725 0.521569 0.54902 0.0313725 0.521569 0.54902 
0.0313725 0.521569 0.54902 0.0313725 0.521569 0.54902 
0.0313725 0.521569 0.54902 0.0313725 0.521569 0.54902 
0.0313725 0.521569 0.54902 0.0313725 0.521569 0.54902 
0.0313725 0.521569 0.54902 0.0313725 0.521569 0.54902 
0.0313725 0.521569 0.54902 0.0313725 0.521569 0.54902 
0.0313725 0.521569 0.54902 0.0313725 0.521569 0.54902 
0.0313725 0.521569 0.54902 0.0313725 0.521569 0.54902 
0.0313725 0.521569 0.54902 0.0313725 0.521569 0.54902 
0.0313725 0.521569 0.54902 0.0313725 0.521569 0.54902 
0.0313725 0.521569 0.54902 0.0313725 0.521569 0.54902 
0.0313725 0.521569 0.54902 0.0313725 0.521569 0.54902 
0.0313725 0.521569 0.54902 0.0313725 0.521569 0.54902 
0.0313725 0.521569 0.54902 0.0313725 0.521569 0.54902 
0.0313725 0.521569 0.54902 0.0313725 0.521569 0.54902 
0.0313725 0.521569 0.54902 0.0313725 0.521569 0.54902 
0.0313725 0.521569 0.54902 0.0313725 0.521569 0.54902 
0.0313725 0.521569 0.54902 0.0313725 0.521569 0.54902 
0.0313725 0.521569 0.54902 0.0313725 0.521569 0.54902 
0.0313725 0.521569 0.54902 0.0313725 0.521569 0.54902 
0.0313725 0.521569 0.54902 0.0313725 0.521569 0.54902 
0.0313725 0.521569 0.54902 0.0313725 0.521569 0.54902 
0.0313725 0.521569 0.54902 0.0313725 0.521569 0.54902 
0.0313725 0.521569 0.54902 0.0313725 0.521569 0.54902 
0.0313725 0.521569 0.54902 0.0313725 0.521569 0.54902 
0.0313725 0.521569 0.54902 0.0313725 0.521569 0.54902 
0.0313725 0.521569 0.54902 0.0313725 0.521569 0.54902 
0.0313725 0.521569 0.54902 0.0313725 0.521569 0.54902 
0.0313725 0.521569 0.54902 0.0313725 0.521569 0.54902 
0.0313725 0.521569 0.54902 0.0313725 0.521569 0.54902 
0.0313725 0.521569 0.54902 0.0313725 0.521569 0.54902 
0.0313725 0.521569 0.54902 0.0313725 0.521569 0.54902 
0.0313725 0.521569 0.54902 0.0313725 0.521569 0.54902 
0.0313725 0.521569 0.54902 0.0313725 0.521569 0.54902 
0.0313725 0.521569 0.54902 0.0313725 0.521569 0.54902 
0.0313725 0.521569 0.54902 0.0313725 0.521569 0.54902 
0.0313725 0.521569 0.54902 0.0313725 0.521569 0.54902 
0.0313725 0.521569 0.54902 0.0313725 0.521569 0.54902 
0.0313725 0.521569 0.54902 0.0313725 0.521569 0.54902 
0.0313725 0.521569 0.54902 0.0313725 0.521569 0.54902 
0.0313725 0.521569 0.54902 0.0313725 0.521569 0.54902 
0.0313725 0.521569 0.54902 0.0313725 0.521569 0.54902 
0.0313725 0.521569 0.54902 0.0313725 0.521569 0.54902 
0.0313725 0.521569 0.54902 0.0313725 0.521569 0.54902 
0.0313725 0.521569 0.54902 0.0313725 0.521569 0.54902 
0.0313725 0.521569 0.54902 0.0313725 0.521569 0.54902 
0.0313725 0.521569 0.54902 0.0313725 0.521569 0.54902 
0.0313725 0.521569 0.54902 0.0313725 0.521569 0.54902 
0.0313725 0.521569 0.54902 0.0313725 0.521569 0.54902 
0.0313725 0.521569 0.54902 0.0313725 0.521569 0.54902 
0.0313725 0.521569 0.54902 0.0313725 0.521569 0.54902 
0.0313725 0.521569 0.54902 0.0313725 0.521569 0.54902 
0.0313725 0.521569 0.54902 0.0313725 0.521569 0.54902 
0.0313725 0.521569 0.54902 0.0313725 0.521569 0.54902 
0.0313725 0.521569 0.54902 0.0313725 0.521569 0.54902 
0.0313725 0.521569 0.54902 0.0313725 0.521569 0.54902 
0.0313725 0.521569 0.54902 0.0313725 0.521569 0.54902 
0.0313725 0.521569 0.54902 0.0313725 0.521569 0.54902 
0.0313725 0.521569 0.54902 0.0313725 0.521569 0.54902 
0.0313725 0.521569 0.54902 0.0313725 0.521569 0.54902 
0.0313725 0.521569 0.54902 0.0313725 0.521569 0.54902 
0.0313725 0.521569 0.54902 0.0313725 0.521569 0.54902 
0.0313725 0.521569 0.54902 0.0313725 0.521569 0.54902 
0.0313725 0.521569 0.54902 0.0313725 0.521569 0.54902 
0.0313725 0.521569 0.54902 0.0313725 0.521569 0.54902 
0.0313725 0.521569 0.54902 0.0313725 0.521569 0.54902 
0.0313725 0.521569 0.54902 0.0313725 0.521569 0.54902 
0.0313725 0.521569 0.54902 0.0313725 0.521569 0.54902 
0.0313725 0.521569 0.54902 0.0313725 0.521569 0.54902 
0.0313725 0.521569 0.54902 0.0313725 0.521569 0.54902 
0.0313725 0.521569 0.54902 0.0313725 0.521569 0.54902 
0.0313725 0.521569 0.54902 0.0313725 0.521569 0.54902 
0.0313725 0.521569 0.54902 0.0313725 0.521569 0.54902 
0.0313725 0.521569 0.54902 0.0313725 0.521569 0.54902 
0.0313725 0.521569 0.54902 0.0313725 0.521569 0.54902 
0.0313725 0.521569 0.54902 0.0313725 0.521569 0.54902 
0.0313725 0.521569 0.54902 0.0313725 0.521569 0.54902 
0.0313725 0.521569 0.54902 0.0313725 0.521569 0.54902 
0.0313725 0.521569 0.54902 0.0313725 0.521569 0.54902 
0.0313725 0.521569 0.54902 0.0313725 0.521569 0.54902 
0.0313725 0.521569 0.54902 0.0313725 0.521569 0.54902 
0.0313725 0.521569 0.54902 0.0313725 0.521569 0.54902 
0.0313725 0.521569 0.54902 0.0313725 0.521569 0.54902 
0.0313725 0.521569 0.54902 0.0313725 0.521569 0.54902 
0.0313725 0.521569 0.54902 0.0313725 0.521569 0.54902 
0.0313725 0.521569 0.54902 0.0313725 0.521569 0.54902 
0.0313725 0.521569 0.54902 0.0313725 0.521569 0.54902 
0.0313725 0.521569 0.54902 0.0313725 0.521569 0.54902 
0.0313725 0.521569 0.54902 0.0313725 0.521569 0.54902 
0.0313725 0.521569 0.54902 0.0313725 0.521569 0.54902 
0.0313725 0.521569 0.54902 0.0313725 0.521569 0.54902 
0.0313725 0.521569 0.54902 0.0313725 0.521569 0.54902 
0.0313725 0.521569 0.54902 0.0313725 0.521569 0.54902 
0.0313725 0.521569 0.54902 0.0313725 0.521569 0.54902 
0.0313725 0.521569 0.54902 0.0313725 0.521569 0.54902 
0.0313725 0.521569 0.54902 0.0313725 0.521569 0.54902 
0.0313725 0.521569 0.54902 0.0313725 0.521569 0.54902 
0.0313725 0.521569 0.54902 0.0313725 0.521569 0.54902 
0.0313725 0.521569 0.54902 0.0313725 0.521569 0.54902 
0.0313725 0.521569 0.54902 0.0313725 0.521569 0.54902 
0.0313725 0.521569 0.54902 0.0313725 0.521569 0.54902 
0.0313725 0.521569 0.54902 0.0313725 0.521569 0.54902 
0.0313725 0.521569 0.54902 0.0313725 0.521569 0.54902 
0.0313725 0.521569 0.54902 0.0313725 0.521569 0.54902 
0.0313725 0.521569 0.54902 0.0313725 0.521569 0.54902 
0.0313725 0.521569 0.54902 0.0313725 0.521569 0.54902 
0.0313725 0.521569 0.54902 0.0313725 0.521569 0.54902 
0.0313725 0.521569 0.54902 0.0313725 0.521569 0.54902 
0.0313725 0.521569 0.54902 0.0313725 0.521569 0.54902 
0.0313725 0.521569 0.54902 0.0313725 0.521569 0.54902 
0.0313725 0.521569 0.54902 0.0313725 0.521569 0.54902 
0.0313725 0.521569 0.54902 0.0313725 0.521569 0.54902 
0.0313725 0.521569 0.54902 0.0313725 0.521569 0.54902 
0.0313725 0.521569 0.54902 0.0313725 0.521569 0.54902 
0.0313725 0.521569 0.54902 0.0313725 0.521569 0.54902 
0.0313725 0.521569 0.54902 0.0313725 0.521569 0.54902 
0.0313725 0.521569 0.54902 0.0313725 0.521569 0.54902 
0.0313725 0.521569 0.54902 0.0313725 0.521569 0.54902 
0.0313725 0.521569 0.54902 0.0313725 0.521569 0.54902 
0.0313725 0.521569 0.54902 0.0313725 0.521569 0.54902 
0.0313725 0.521569 0.54902 0.0313725 0.521569 0.54902 
0.0313725 0.521569 0.54902 0.0313725 0.521569 0.54902 
0.0313725 0.521569 0.54902 0.0313725 0.521569 0.54902 
0.0313725 0.521569 0.54902 0.0313725 0.521569 0.54902 
0.0313725 0.521569 0.54902 0.0313725 0.521569 0.54902 
0.0313725 0.521569 0.54902 0.0313725 0.521569 0.54902 
0.0313725 0.521569 0.54902 0.0313725 0.521569 0.54902 
0.0313725 0.521569 0.54902 0.0313725 0.521569 0.54902 
0.0313725 0.521569 0.54902 0.0313725 0.521569 0.54902 
0.0313725 0.521569 0.54902 0.0313725 0.521569 0.54902 
0.0313725 0.521569 0.54902 0.0313725 0.521569 0.54902 
0.0313725 0.521569 0.54902 0.0313725 0.521569 0.54902 
0.0313725 0.521569 0.54902 0.0313725 0.521569 0.54902 
0.0313725 0.521569 0.54902 0.0313725 0.521569 0.54902 
0.0313725 0.521569 0.54902 0.0313725 0.521569 0.54902 
0.0313725 0.521569 0.54902 0.0313725 0.521569 0.54902 
0.0313725 0.521569 0.54902 0.0313725 0.521569 0.54902 
0.0313725 0.521569 0.54902 0.0313725 0.521569 0.54902 
0.0313725 0.521569 0.54902 0.0313725 0.521569 0.54902 
0.0313725 0.521569 0.54902 0.0313725 0.521569 0.54902 
0.0313725 0.521569 0.54902 0.0313725 0.521569 0.54902 
0.0313725 0.521569 0.54902 0.0313725 0.521569 0.54902 
0.0313725 0.521569 0.54902 0.0313725 0.521569 0.54902 
0.0313725 0.521569 0.54902 0.0313725 0.521569 0.54902 
0.0313725 0.521569 0.54902 0.0313725 0.521569 0.54902 
0.0313725 0.521569 0.54902 0.0313725 0.521569 0.54902 
0.0313725 0.521569 0.54902 0.0313725 0.521569 0.54902 
0.0313725 0.521569 0.54902 0.0313725 0.521569 0.54902 
0.0313725 0.521569 0.54902 0.0313725 0.521569 0.54902 
0.0313725 0.521569 0.54902 0.0313725 0.521569 0.54902 
0.0313725 0.521569 0.54902 0.0313725 0.521569 0.54902 
0.0313725 0.521569 0.54902 0.0313725 0.521569 0.54902 
0.0313725 0.521569 0.54902 0.0313725 0.521569 0.54902 
0.0313725 0.521569 0.54902 0.0313725 0.521569 0.54902 
0.0313725 0.521569 0.54902 0.0313725 0.521569 0.54902 
0.0313725 0.521569 0.54902 0.0313725 0.521569 0.54902 
0.0313725 0.521569 0.54902 0.0313725 0.521569 0.54902 
0.0313725 0.521569 0.54902 0.0313725 0.521569 0.54902 
0.0313725 0.521569 0.54902 0.0313725 0.521569 0.54902 
0.0313725 0.521569 0.54902 0.0313725 0.521569 0.54902 
0.0313725 0.521569 0.54902 0.0313725 0.521569 0.54902 
0.0313725 0.521569 0.54902 0.0313725 0.521569 0.54902 
0.0313725 0.521569 0.54902 0.0313725 0.521569 0.54902 
0.0313725 0.521569 0.54902 0.0313725 0.521569 0.54902 
0.0313725 0.521569 0.54902 0.0313725 0.521569 0.54902 
0.0313725 0.521569 0.54902 0.0313725 0.521569 0.54902 
0.0313725 0.521569 0.54902 0.0313725 0.521569 0.54902 
0.0313725 0.521569 0.54902 0.0313725 0.521569 0.54902 
0.0313725 0.521569 0.54902 0.0313725 0.521569 0.54902 
0.0313725 0.521569 0.54902 0.0313725 0.521569 0.54902 
0.0313725 0.521569 0.54902 0.0313725 0.521569 0.54902 
0.0313725 0.521569 0.54902 0.0313725 0.521569 0.54902 
0.0313725 0.521569 0.54902 0.0313725 0.521569 0.54902 
0.0313725 0.521569 0.54902 0.0313725 0.521569 0.54902 
0.0313725 0.521569 0.54902 0.0313725 0.521569 0.54902 
0.0313725 0.521569 0.54902 0.0313725 0.521569 0.54902 
0.0313725 0.521569 0.54902 0.0313725 0.521569 0.54902 
0.0313725 0.521569 0.54902 0.0313725 0.521569 0.54902 
0.0313725 0.521569 0.54902 0.0313725 0.521569 0.54902 
0.0313725 0.521569 0.54902 0.0313725 0.521569 0.54902 
0.0313725 0.521569 0.54902 0.0313725 0.521569 0.54902 
0.0313725 0.521569 0.54902 0.0313725 0.521569 0.54902 
0.0313725 0.521569 0.54902 0.0313725 0.521569 0.54902 
0.0313725 0.521569 0.54902 0.0313725 0.521569 0.54902 
0.0313725 0.521569 0.54902 0.0313725 0.521569 0.54902 
0.0313725 0.521569 0.54902 0.0313725 0.521569 0.54902 
0.0313725 0.521569 0.54902 0.0313725 0.521569 0.54902 
0.0313725 0.521569 0.54902 0.0313725 0.521569 0.54902 
0.0313725 0.521569 0.54902 0.0313725 0.521569 0.54902 
0.0313725 0.521569 0.54902 0.0313725 0.521569 0.54902 
0.0313725 0.521569 0.54902 0.0313725 0.521569 0.54902 
0.0313725 0.521569 0.54902 0.0313725 0.521569 0.54902 
0.0313725 0.521569 0.54902 0.0313725 0.521569 0.54902 
0.0313725 0.521569 0.54902 0.0313725 0.521569 0.54902 
0.0313725 0.521569 0.54902 0.0313725 0.521569 0.54902 
0.0313725 0.521569 0.54902 0.0313725 0.521569 0.54902 
0.0313725 0.521569 0.54902 0.0313725 0.521569 0.54902 
0.0313725 0.521569 0.54902 0.0313725 0.521569 0.54902 
0.0313725 0.521569 0.54902 0.0313725 0.521569 0.54902 
0.0313725 0.521569 0.54902 0.0313725 0.521569 0.54902 
0.0313725 0.521569 0.54902 0.0313725 0.521569 0.54902 
0.0313725 0.521569 0.54902 0.0313725 0.521569 0.54902 
0.0313725 0.521569 0.54902 0.0313725 0.521569 0.54902 
0.0313725 0.521569 0.54902 0.0313725 0.521569 0.54902 
0.0313725 0.521569 0.54902 0.0313725 0.521569 0.54902 
0.0313725 0.521569 0.54902 0.0313725 0.521569 0.54902 
0.0313725 0.521569 0.54902 0.0313725 0.521569 0.54902 
0.0313725 0.521569 0.54902 0.0313725 0.521569 0.54902 
0.0313725 0.521569 0.54902 0.0313725 0.521569 0.54902 
0.0313725 0.521569 0.54902 0.0313725 0.521569 0.54902 
0.0313725 0.521569 0.54902 0.0313725 0.521569 0.54902 
0.0313725 0.521569 0.54902 0.0313725 0.521569 0.54902 
0.0313725 0.521569 0.54902 0.0313725 0.521569 0.54902 
0.0313725 0.521569 0.54902 0.0313725 0.521569 0.54902 
0.0313725 0.521569 0.54902 0.0313725 0.521569 0.54902 
0.0313725 0.521569 0.54902 0.0313725 0.521569 0.54902 
0.0313725 0.521569 0.54902 0.0313725 0.521569 0.54902 
0.0313725 0.521569 0.54902 0.0313725 0.521569 0.54902 
0.0313725 0.521569 0.54902 0.0313725 0.521569 0.54902 
0.0313725 0.521569 0.54902 0.0313725 0.521569 0.54902 
0.0313725 0.521569 0.54902 0.0313725 0.521569 0.54902 
0.0313725 0.521569 0.54902 0.0313725 0.521569 0.54902 
0.0313725 0.521569 0.54902 0.0313725 0.521569 0.54902 
0.0313725 0.521569 0.54902 0.0313725 0.521569 0.54902 
0.0313725 0.521569 0.54902 0.0313725 0.521569 0.54902 
0.0313725 0.521569 0.54902 0.0313725 0.521569 0.54902 
0.0313725 0.521569 0.54902 0.0313725 0.521569 0.54902 
0.0313725 0.521569 0.54902 0.0313725 0.521569 0.54902 
0.0313725 0.521569 0.54902 0.0313725 0.521569 0.54902 
0.0313725 0.521569 0.54902 0.0313725 0.521569 0.54902 
0.0313725 0.521569 0.54902 0.0313725 0.521569 0.54902 
0.0313725 0.521569 0.54902 0.0313725 0.521569 0.54902 
0.0313725 0.521569 0.54902 0.0313725 0.521569 0.54902 
0.0313725 0.521569 0.54902 0.0313725 0.521569 0.54902 
0.0313725 0.521569 0.54902 0.0313725 0.521569 0.54902 
0.0313725 0.521569 0.54902 0.0313725 0.521569 0.54902 
0.0313725 0.521569 0.54902 0.0313725 0.521569 0.54902 
0.0313725 0.521569 0.54902 0.0313725 0.521569 0.54902 
0.0313725 0.521569 0.54902 0.0313725 0.521569 0.54902 
0.0313725 0.521569 0.54902 0.0313725 0.521569 0.54902 
0.0313725 0.521569 0.54902 0.0313725 0.521569 0.54902 
0.0313725 0.521569 0.54902 0.0313725 0.521569 0.54902 
0.0313725 0.521569 0.54902 0.0313725 0.521569 0.54902 
0.0313725 0.521569 0.54902 0.0313725 0.521569 0.54902 
0.0313725 0.521569 0.54902 0.0313725 0.521569 0.54902 
0.0313725 0.521569 0.54902 0.0313725 0.521569 0.54902 
0.0313725 0.521569 0.54902 0.0313725 0.521569 0.54902 
0.0313725 0.521569 0.54902 0.0313725 0.521569 0.54902 
0.0313725 0.521569 0.54902 0.0313725 0.521569 0.54902 
0.0313725 0.521569 0.54902 0.0313725 0.521569 0.54902 
0.0313725 0.521569 0.54902 0.0313725 0.521569 0.54902 
0.0313725 0.521569 0.54902 0.0313725 0.521569 0.54902 
0.0313725 0.521569 0.54902 0.0313725 0.521569 0.54902 
0.0313725 0.521569 0.54902 0.0313725 0.521569 0.54902 
0.0313725 0.521569 0.54902 0.0313725 0.521569 0.54902 
0.0313725 0.521569 0.54902 0.0313725 0.521569 0.54902 
0.0313725 0.521569 0.54902 0.0313725 0.521569 0.54902 
0.0313725 0.521569 0.54902 0.0313725 0.521569 0.54902 
0.0313725 0.521569 0.54902 0.0313725 0.521569 0.54902 
0.0313725 0.521569 0.54902 0.0313725 0.521569 0.54902 
0.0313725 0.521569 0.54902 0.0313725 0.521569 0.54902 
0.0313725 0.521569 0.54902 0.0313725 0.521569 0.54902 
0.0313725 0.521569 0.54902 0.0313725 0.521569 0.54902 
0.0313725 0.521569 0.54902 0.0313725 0.521569 0.54902 
0.0313725 0.521569 0.54902 0.0313725 0.521569 0.54902 
0.0313725 0.521569 0.54902 0.0313725 0.521569 0.54902 
0.0313725 0.521569 0.54902 0.0313725 0.521569 0.54902 
0.0313725 0.521569 0.54902 0.0313725 0.521569 0.54902 
0.0313725 0.521569 0.54902 0.0313725 0.521569 0.54902 
0.0313725 0.521569 0.54902 0.0313725 0.521569 0.54902 
0.0313725 0.521569 0.54902 0.0313725 0.521569 0.54902 
0.0313725 0.521569 0.54902 0.0313725 0.521569 0.54902 
0.0313725 0.521569 0.54902 0.0313725 0.521569 0.54902 
0.0313725 0.521569 0.54902 0.0313725 0.521569 0.54902 
0.0313725 0.521569 0.54902 0.0313725 0.521569 0.54902 
0.0313725 0.521569 0.54902 0.0313725 0.521569 0.54902 
0.0313725 0.521569 0.54902 0.0313725 0.521569 0.54902 
0.0313725 0.521569 0.54902 0.0313725 0.521569 0.54902 
0.0313725 0.521569 0.54902 0.0313725 0.521569 0.54902 
0.0313725 0.521569 0.54902 0.0313725 0.521569 0.54902 
0.0313725 0.521569 0.54902 0.0313725 0.521569 0.54902 
0.0313725 0.521569 0.54902 0.0313725 0.521569 0.54902 
0.0313725 0.521569 0.54902 0.0313725 0.521569 0.54902 
0.0313725 0.521569 0.54902 0.0313725 0.521569 0.54902 
0.0313725 0.521569 0.54902 0.0313725 0.521569 0.54902 
0.0313725 0.521569 0.54902 0.0313725 0.521569 0.54902 