# vtk DataFile Version 4.2
vtk output
ASCII
DATASET POLYDATA
POINTS 989 float
370.344 131.975 58.5725 371.296 134.488 58.1607 371.039 134.521 58.3093 
371.325 134.771 58.1722 371.525 135.076 58.1666 371.933 135.627 58.106 
371.849 135.635 58.1517 371.922 135.745 58.1347 372.027 135.752 58.1544 
371.896 135.921 58.2829 372.781 137.879 58.532 372.638 137.623 58.5347 
372.853 137.658 58.5 372.819 138.059 58.5924 372.772 138.172 58.7282 
372.95 138.181 58.6564 373.386 138.388 58.7607 373.362 138.429 58.8579 
373.436 138.426 58.7956 373.461 138.297 58.8071 373.473 138.402 58.8985 
369.424 128.509 59.3381 370.674 132.972 58.4937 370.386 134.125 58.8402 
371.951 135.332 58.1487 371.57 135.495 58.285 372.448 136.077 58.296 
372.665 137.112 58.479 372.014 137.509 58.9708 373.729 137.115 58.8096 
373.225 138.202 58.7344 373.153 138.436 59.0041 369.712 126.558 59.7699 
368.921 127.981 59.8456 370.256 127.702 59.3908 369.131 131.165 59.6761 
374.627 131.235 59.2797 369.21 131.968 59.7139 369.592 132.529 59.3325 
373.831 134.064 58.578 375.888 133.928 59.4329 376.235 134.449 59.7571 
375.417 135.985 59.7966 376.376 135.013 60.2149 372.871 138.433 59.1371 
373.453 138.437 59.6307 369.303 124.007 60.6273 368.754 126.261 60.2478 
370.875 125.529 60.1124 368.103 126.898 60.7072 368.581 128.624 60.1667 
368.718 130.635 60.2243 369.567 133.503 59.7281 377.09 133.363 60.5431 
376.034 135.786 60.5513 372.099 138.154 59.7078 372.363 138.421 59.807 
372.394 138.539 60.1711 372.715 138.617 59.9473 368.031 121.659 61.7164 
367.304 122.474 61.9919 367.942 128.02 61.0878 367.911 128.65 61.3497 
378.375 131.522 61.7537 378.283 132.205 61.5121 377.622 132.959 61.1041 
378.295 132.324 61.6189 377.808 133.324 61.69 369.862 134.965 60.8447 
376.795 134.825 60.9823 376.556 135.253 61.1112 376.241 135.64 60.9236 
370.68 136.48 60.6561 372.565 138.698 60.2241 372.68 138.71 60.2486 
372.891 138.599 60.2767 372.592 138.719 60.3327 367.16 119.018 62.7444 
367.106 119.913 62.5711 369.171 120.263 61.8782 370.1 121.064 61.6701 
366.719 122.571 62.5981 371.782 122.522 61.5585 367.445 125.085 61.6217 
367.481 125.774 61.6385 367.451 127.042 62.258 378.306 128.983 62.1408 
368.634 131.649 61.1772 369.056 132.795 61.7605 378.368 132.071 61.6604 
378.439 132.191 62.0078 377.525 133.898 62.0661 369.917 134.995 61.2078 
376.248 135.571 61.4731 370.506 136.017 61.1122 375.616 136.133 61.5786 
371.619 137.524 61.0427 367.735 116.543 63.5447 366.686 117.334 63.5118 
367.514 117.7 63.1418 366.033 119.697 63.4895 366.147 122.205 63.591 
366.373 122.595 63.1267 366.383 123.311 63.4576 366.666 124.293 63.2315 
367.631 128.055 62.9078 367.87 128.697 63.0571 379.562 129.69 63.3171 
378.629 132.211 62.8436 370.762 133.981 63.2102 377.895 133.27 63.4675 
370.602 134.918 62.3455 371.546 135.588 62.719 372.156 137.068 61.8041 
366.011 113.362 64.9407 365.734 115.933 64.4019 366.063 121.121 63.4929 
366.664 124.241 64.1522 367.295 126.145 63.8793 367.441 127.031 63.7631 
380.083 128.542 63.9652 380.17 128.808 63.9954 379.976 129.21 63.8373 
380.148 128.941 63.9702 369.849 131.939 63.6938 379.375 131.003 63.9794 
378.809 131.899 64.3133 377.701 133.207 64.1625 371.929 134.375 63.6955 
376.502 134.558 63.3683 375.068 135.036 63.602 365.287 112.976 65.4642 
364.877 113.614 65.5793 366.554 113.334 64.8971 364.761 114.628 65.5019 
365.46 118.712 64.3764 365.377 119.569 65.2466 367.663 127.203 63.974 
380.165 128.793 64.2058 379.975 129.758 65.2214 379.341 130.861 65.2215 
378.557 131.946 64.8594 373.405 133.355 64.8817 377.506 133.148 64.6191 
374.704 134.225 64.4477 375.307 133.998 64.6305 364.657 109.397 67.1843 
364.446 109.505 67.3168 364.863 109.368 67.1407 364.156 113.228 66.5064 
365.777 120.732 65.9133 366.738 123.514 65.3085 367.761 125.653 65.2532 
380.603 128.273 66.1379 377.318 132.664 65.3357 376.743 132.64 65.6863 
375.149 132.755 65.7483 364.982 108.918 67.4023 363.872 111.176 67.4199 
363.84 113.845 67.2452 365.361 119.143 66.5584 378.939 118.786 67.1567 
381.682 122.019 67.3543 381.822 125.427 67.1656 379.326 129.989 66.8912 
379.673 129.445 67.0936 378.881 130.295 67.0074 375.444 131.067 67.0582 
376.533 131.735 66.5808 364.342 107.133 68.662 365.049 107.619 68.1765 
363.687 107.561 68.8066 363.481 108.133 68.7764 363.277 109.821 68.6647 
363.566 113.137 68.1051 365.724 119.542 67.1066 366.062 119.636 67.5752 
381.679 121.054 67.6826 382.739 122.831 68.2335 382.664 122.3 68.1909 
382.87 123.092 68.5217 381.259 126.863 68.0146 380.965 127.295 68.0062 
363.523 105.584 69.88 363.353 106.326 69.6528 363.831 106.892 69.0616 
383.133 119.799 69.3893 383.239 120.334 69.3161 382.497 121.733 68.1481 
383.383 121.244 69.198 383.38 121.5 69.1457 383.276 121.837 69.0823 
379.056 128.802 68.4763 378.097 129.296 68.4498 363.883 103.722 70.7097 
363.315 103.826 70.8754 364.163 103.339 70.9198 364.214 104.115 70.4146 
364.712 104.07 70.4305 367.461 106.018 69.6136 362.746 107.434 70.0033 
362.711 108.35 69.9744 362.747 109.246 70.0047 363.057 111.144 70.2855 
363.137 111.693 70.2138 364.231 114.494 69.5184 364.589 115.152 69.5481 
366.104 117.128 69.6562 366.78 117.712 69.8082 384.185 119.601 70.5962 
383.457 121.426 69.3438 383.276 122.626 69.8196 362.986 102.101 71.9105 
362.662 102.146 72.039 362.495 102.586 71.9408 363.361 102.1 71.8489 
363.222 102.52 71.5965 362.552 104.688 71.0217 368.994 104.877 71.2824 
362.161 106.093 71.2408 362.291 107.783 71.2921 362.655 109.411 71.435 
363.368 111.553 70.8149 364.275 113.475 70.4053 384.45 119.067 71.1861 
384.361 118.642 71.1747 383.002 122.872 70.8499 377.62 126.514 70.6484 
362.34 101.956 72.4515 363.749 101.812 72.1396 365.019 101.856 72.3822 
361.902 103.455 72.2468 361.802 104.172 72.2139 362.282 107.913 71.9303 
362.982 110.365 71.5553 381.862 114.78 71.3063 384.422 118.284 71.5116 
384.573 119.359 71.693 384.587 119.276 71.8984 373.411 121.637 71.8494 
382.852 122.356 71.8449 375.483 123.598 71.7993 381.369 123.899 71.7362 
379.037 125.218 71.5482 362.444 100.073 73.8315 363.092 100.334 73.5741 
369.894 103.923 72.8361 361.595 104.468 72.6846 361.703 105.396 72.6255 
363.026 109.244 72.7883 383.576 116.195 71.8558 384.047 117.025 71.8378 
384.479 117.068 72.7854 384.543 117.803 72.5828 383.903 120.049 72.7606 
382.33 121.815 72.9609 378.787 123.409 72.9208 362.164 99.982 73.9842 
362.07 99.9732 74.1482 362.28 99.9248 73.9974 362.198 99.9071 74.0975 
362.385 99.954 74.1092 361.797 100.533 73.9789 363.325 100.239 73.8998 
363.158 100.161 74.0372 366.604 101.719 73.712 361.086 103.136 74.1497 
370.467 103.422 74.0645 362.01 106.479 74.0728 384.752 115.262 74.2524 
384.664 114.695 74.2956 384.318 118.307 73.6244 361.316 101.081 74.7194 
368.5 102.504 74.6014 361.304 104.419 74.7645 361.234 104.109 75.409 
384.77 115.985 75.1333 383.742 118.25 74.8246 361.132 100.799 75.6181 
361.076 100.881 75.591 361.753 100.349 74.763 361.657 100.637 75.1858 
362.987 100.66 75.387 360.735 101.675 75.7738 369.527 102.876 76.1538 
370.416 102.951 76.0536 372.51 103.19 75.816 361.318 104.043 75.7649 
361.975 104.879 75.8367 385.354 113.364 76.2297 385.231 114 75.8698 
360.477 101.426 76.3862 360.408 101.407 76.4499 360.408 101.488 76.4341 
360.538 101.587 76.2536 360.787 101.395 76.2358 360.64 102.019 76.1508 
360.489 101.772 76.4463 373.132 102.818 76.8637 374.878 102.333 77.6832 
360.972 102.415 76.3995 371.087 102.944 76.9978 372.113 102.762 77.3737 
361.868 103.917 76.4268 369.232 103.347 77.5352 369.839 103.236 77.5359 
369.007 103.699 78.0033 377.616 104.537 76.4722 365.721 107.084 77.0051 
385.485 113.146 76.5086 385.449 112.915 76.5831 385.502 113.076 76.6423 
360.455 101.435 76.4503 360.504 101.518 76.4969 360.406 101.563 76.5025 
360.732 101.662 76.5007 360.501 101.629 76.553 361.259 101.746 76.4894 
374.25 101.721 78.6517 374.272 101.502 79.0529 360.444 101.656 76.5441 
360.635 101.853 76.512 360.959 101.969 76.5308 372.66 102.456 78.1639 
361.491 103.016 76.6147 364.733 102.863 77.008 362.398 104.104 76.6478 
363.205 104.18 76.9235 370.731 103.277 78.4819 363.735 105.084 76.9189 
384.403 109.87 76.9445 385.523 110.561 77.928 385.443 113.014 76.8961 
384.571 114.306 77.5564 376.141 116.133 77.4792 376.129 100.44 79.9602 
360.419 101.57 76.5536 361.893 102.662 76.7393 372.912 102.181 78.833 
373.399 101.825 79.2042 362.355 103.187 76.8311 372.888 102.074 79.3428 
366.864 104.724 77.946 367.797 104.777 78.3217 368.745 104.827 78.8618 
370.493 103.829 79.4386 369.817 104.558 79.5169 368.937 107.371 79.0337 
385.235 107.617 79.3596 386.18 109.873 79.3904 385.794 111.2 78.662 
382.417 114.803 78.9467 375.666 99.964 80.6838 376.539 100.322 80.0675 
373.149 101.707 80.4413 379.414 101.799 79.6586 372.204 102.55 80.1096 
370.867 103.999 80.3142 368.772 105.456 79.1279 370.068 104.768 79.9755 
369.132 106.132 79.4777 369.961 108.062 79.5606 386.096 109.21 79.5063 
386.044 108.623 79.932 386.209 109.534 79.5494 386.238 109.688 79.7225 
386.184 110.007 79.5642 386.089 110.175 79.6883 385.379 111.587 79.479 
384.511 112.289 79.7947 381.539 114.067 79.8607 376.732 99.6569 80.9347 
377.848 99.2197 81.5249 370.151 105.2 80.3056 386.187 109.562 80.0685 
385.936 109.508 80.8105 380.956 112.712 81.0137 377.052 98.2538 82.9325 
374.488 100.128 82.1826 373.555 101.121 81.9062 384.055 103.278 81.8558 
386.109 106.203 81.5586 371.05 107.038 81.0328 372.529 102.783 83.0275 
385.779 105.199 83.2811 386.652 106.368 82.3878 386.784 106.351 82.5586 
386.689 106.277 82.6097 386.788 106.449 82.5632 371.662 105.249 82.297 
386.266 105.916 82.5369 386.714 106.678 82.3762 372.451 107.492 81.9728 
386.61 107.002 82.4785 373.763 108.049 82.5006 386.501 107.113 82.6759 
385.906 107.812 82.8425 378.917 109.774 83.1087 380.879 110.112 83.0426 
381.843 111.024 82.2229 377.805 97.0428 84.7449 379.783 97.2459 84.4109 
375.881 98.5149 83.9072 380.525 97.8457 84.111 381.73 99.2007 83.7822 
384.302 102.728 83.1146 384.429 102.735 83.673 372.396 103.829 83.4342 
385.275 104.464 84.0931 385.151 104.087 84.0101 372.251 104.587 83.1745 
[...]
POINT_DATA 989
COLOR_SCALARS scalars 3
0.0313725 0.521569 0.54902 0.0313725 0.521569 0.54902 0.0313725 0.521569 0.54902 
0.0313725 0.521569 0.54902 0.0313725 0.521569 0.54902 
0.0313725 0.521569 0.54902 0.0313725 0.521569 0.54902 
0.0313725 0.521569 0.54902 0.0313725 0.521569 0.54902 
0.0313725 0.521569 0.54902 0.0313725 0.521569 0.54902 
0.0313725 0.521569 0.54902 0.0313725 0.521569 0.54902 
0.0313725 0.521569 0.54902 0.0313725 0.521569 0.54902 
0.0313725 0.521569 0.54902 0.0313725 0.521569 0.54902 
0.0313725 0.521569 0.54902 0.0313725 0.521569 0.54902 
0.0313725 0.521569 0.54902 0.0313725 0.521569 0.54902 
0.0313725 0.521569 0.54902 0.0313725 0.521569 0.54902 
0.0313725 0.521569 0.54902 0.0313725 0.521569 0.54902 
0.0313725 0.521569 0.54902 0.0313725 0.521569 0.54902 
0.0313725 0.521569 0.54902 0.0313725 0.521569 0.54902 
0.0313725 0.521569 0.54902 0.0313725 0.521569 0.54902 
0.0313725 0.521569 0.54902 0.0313725 0.521569 0.54902 
0.0313725 0.521569 0.54902 0.0313725 0.521569 0.54902 
0.0313725 0.521569 0.54902 0.0313725 0.521569 0.54902 
0.0313725 0.521569 0.54902 0.0313725 0.521569 0.54902 
0.0313725 0.521569 0.54902 0.0313725 0.521569 0.54902 
0.0313725 0.521569 0.54902 0.0313725 0.521569 0.54902 
0.0313725 0.521569 0.54902 0.0313725 0.521569 0.54902 
0.0313725 0.521569 0.54902 0.0313725 0.521569 0.54902 
0.0313725 0.521569 0.54902 0.0313725 0.521569 0.54902 
0.0313725 0.521569 0.54902 0.0313725 0.521569 0.54902 
0.0313725 0.521569 0.54902 0.0313725 0.521569 0.54902 
0.0313725 0.521569 0.54902 0.0313725 0.521569 0.54902 
0.0313725 0.521569 0.54902 0.0313725 0.521569 0.54902 
0.0313725 0.521569 0.54902 0.0313725 0.521569 0.54902 
0.0313725 0.521569 0.54902 0.0313725 0.521569 0.54902 
0.0313725 0.521569 0.54902 0.0313725 0.521569 0.54902 
0.0313725 0.521569 0.54902 0.0313725 0.521569 0.54902 
0.0313725 0.521569 0.54902 0.0313725 0.521569 0.54902 
0.0313725 0.521569 0.54902 0.0313725 0.521569 0.54902 
0.0313725 0.521569 0.54902 0.0313725 0.521569 0.54902 
0.0313725 0.521569 0.54902 0.0313725 0.521569 0.54902 
0.0313725 0.521569 0.54902 0.0313725 0.521569 0.54902 
0.0313725 0.521569 0.54902 0.0313725 0.521569 0.54902 
0.0313725 0.521569 0.54902 0.0313725 0.521569 0.54902 
0.0313725 0.521569 0.54902 0.0313725 0.521569 0.54902 
0.0313725 0.521569 0.54902 0.0313725 0.521569 0.54902 
0.0313725 0.521569 0.54902 0.0313725 0.521569 0.54902 
0.0313725 0.521569 0.54902 0.0313725 0.521569 0.54902 
0.0313725 0.521569 0.54902 0.0313725 0.521569 0.54902 
0.0313725 0.521569 0.54902 0.0313725 0.521569 0.54902 
0.0313725 0.521569 0.54902 0.0313725 0.521569 0.54902 
0.0313725 0.521569 0.54902 0.0313725 0.521569 0.54902 
0.0313725 0.521569 0.54902 0.0313725 0.521569 0.54902 
0.0313725 0.521569 0.54902 0.0313725 0.521569 0.54902 
0.0313725 0.521569 0.54902 0.0313725 0.521569 0.54902 
0.0313725 0.521569 0.54902 0.0313725 0.521569 0.54902 
0.0313725 0.521569 0.54902 0.0313725 0.521569 0.54902 
0.0313725 0.521569 0.54902 0.0313725 0.521569 0.54902 
0.0313725 0.521569 0.54902 0.0313725 0.521569 0.54902 
0.0313725 0.521569 0.54902 0.0313725 0.521569 0.54902 
0.0313725 0.521569 0.54902 0.0313725 0.521569 0.54902 
0.0313725 0.521569 0.54902 0.0313725 0.521569 0.54902 
0.0313725 0.521569 0.54902 0.0313725 0.521569 0.54902 
0.0313725 0.521569 0.54902 0.0313725 0.521569 0.54902 
0.0313725 0.521569 0.54902 0.0313725 0.521569 0.54902 
0.0313725 0.521569 0.54902 0.0313725 0.521569 0.54902 
0.0313725 0.521569 0.54902 0.0313725 0.521569 0.54902 
0.0313725 0.521569 0.54902 0.0313725 0.521569 0.54902 
0.0313725 0.521569 0.54902 0.0313725 0.521569 0.54902 
0.0313725 0.521569 0.54902 0.0313725 0.521569 0.54902 
0.0313725 0.521569 0.54902 0.0313725 0.521569 0.54902 
0.0313725 0.521569 0.54902 0.0313725 0.521569 0.54902 
0.0313725 0.521569 0.54902 0.0313725 0.521569 0.54902 
0.0313725 0.521569 0.54902 0.0313725 0.521569 0.54902 
0.0313725 0.521569 0.54902 0.0313725 0.521569 0.54902 
0.0313725 0.521569 0.54902 0.0313725 0.521569 0.54902 
0.0313725 0.521569 0.54902 0.0313725 0.521569 0.54902 
0.0313725 0.521569 0.54902 0.0313725 0.521569 0.54902 
0.0313725 0.521569 0.54902 0.0313725 0.521569 0.54902 
0.0313725 0.521569 0.54902 0.0313725 0.521569 0.54902 
0.0313725 0.521569 0.54902 0.0313725 0.521569 0.54902 
0.0313725 0.521569 0.54902 0.0313725 0.521569 0.54902 
0.0313725 0.521569 0.54902 0.0313725 0.521569 0.54902 
0.0313725 0.521569 0.54902 0.0313725 0.521569 0.54902 
0.0313725 0.521569 0.54902 0.0313725 0.521569 0.54902 
0.0313725 0.521569 0.54902 0.0313725 0.521569 0.54902 
0.0313725 0.521569 0.54902 0.0313725 0.521569 0.54902 
0.0313725 0.521569 0.54902 0.0313725 0.521569 0.54902 
0.0313725 0.521569 0.54902 0.0313725 0.521569 0.54902 
0.0313725 0.521569 0.54902 0.0313725 0.521569 0.54902 
0.0313725 0.521569 0.54902 0.0313725 0.521569 0.54902 
0.0313725 0.521569 0.54902 0.0313725 0.521569 0.54902 
0.0313725 0.521569 0.54902 0.0313725 0.521569 0.54902 
0.0313725 0.521569 0.54902 0.0313725 0.521569 0.54902 
0.0313725 0.521569 0.54902 0.0313725 0.521569 0.54902 
0.0313725 0.521569 0.54902 0.0313725 0.521569 0.54902 
0.0313725 0.521569 0.54902 0.0313725 0.521569 0.54902 
0.0313725 0.521569 0.54902 0.0313725 0.521569 0.54902 
0.0313725 0.521569 0.54902 0.0313725 0.521569 0.54902 
0.0313725 0.521569 0.54902 0.0313725 0.521569 0.54902 
0.0313725 0.521569 0.54902 0.0313725 0.521569 0.54902 
0.0313725 0.521569 0.54902 0.0313725 0.521569 0.54902 
0.0313725 0.521569 0.54902 0.0313725 0.521569 0.54902 
0.0313725 0.521569 0.54902 0.0313725 0.521569 0.54902 
0.0313725 0.521569 0.54902 0.0313725 0.521569 0.54902 
0.0313725 0.521569 0.54902 0.0313725 0.521569 0.54902 
0.0313725 0.521569 0.54902 0.0313725 0.521569 0.54902 
0.0313725 0.521569 0.54902 0.0313725 0.521569 0.54902 
0.0313725 0.521569 0.54902 0.0313725 0.521569 0.54902 
0.0313725 0.521569 0.54902 0.0313725 0.521569 0.54902 
0.0313725 0.521569 0.54902 0.0313725 0.521569 0.54902 
0.0313725 0.521569 0.54902 0.0313725 0.521569 0.54902 
0.0313725 0.521569 0.54902 0.0313725 0.521569 0.54902 
0.0313725 0.521569 0.54902 0.0313725 0.521569 0.54902 
0.0313725 0.521569 0.54902 0.0313725 0.521569 0.54902 
0.0313725 0.521569 0.54902 0.0313725 0.521569 0.54902 
0.0313725 0.521569 0.54902 0.0313725 0.521569 0.54902 
0.0313725 0.521569 0.54902 0.0313725 0.521569 0.54902 
0.0313725 0.521569 0.54902 0.0313725 0.521569 0.54902 
0.0313725 0.521569 0.54902 0.0313725 0.521569 0.54902 
0.0313725 0.521569 0.54902 0.0313725 0.521569 0.54902 
0.0313725 0.521569 0.54902 0.0313725 0.521569 0.54902 
0.0313725 0.521569 0.54902 0.0313725 0.521569 0.54902 
0.0313725 0.521569 0.54902 0.0313725 0.521569 0.54902 
0.0313725 0.521569 0.54902 0.0313725 0.521569 0.54902 
0.0313725 0.521569 0.54902 0.0313725 0.521569 0.54902 
0.0313725 0.521569 0.54902 0.0313725 0.521569 0.54902 
0.0313725 0.521569 0.54902 0.0313725 0.521569 0.54902 
0.0313725 0.521569 0.54902 0.0313725 0.521569 0.54902 
0.0313725 0.521569 0.54902 0.0313725 0.521569 0.54902 
0.0313725 0.521569 0.54902 0.0313725 0.521569 0.54902 
0.0313725 0.521569 0.54902 0.0313725 0.521569 0.54902 
0.0313725 0.521569 0.54902 0.0313725 0.521569 0.54902 
0.0313725 0.521569 0.54902 0.0313725 0.521569 0.54902 
0.0313725 0.521569 0.54902 0.0313725 0.521569 0.54902 
0.0313725 0.521569 0.54902 0.0313725 0.521569 0.54902 
0.0313725 0.521569 0.54902 0.0313725 0.521569 0.54902 
0.0313725 0.521569 0.54902 0.0313725 0.521569 0.54902 
0.0313725 0.521569 0.54902 0.0313725 0.521569 0.54902 
0.0313725 0.521569 0.54902 0.0313725 0.521569 0.54902 
0.0313725 0.521569 0.54902 0.0313725 0.521569 0.54902 
0.0313725 0.521569 0.54902 0.0313725 0.521569 0.54902 
0.0313725 0.521569 0.54902 0.0313725 0.521569 0.54902 
0.0313725 0.521569 0.54902 0.0313725 0.521569 0.54902 
0.0313725 0.521569 0.54902 0.0313725 0.521569 0.54902 
0.0313725 0.521569 0.54902 0.0313725 0.521569 0.54902 
0.0313725 0.521569 0.54902 0.0313725 0.521569 0.54902 
0.0313725 0.521569 0.54902 0.0313725 0.521569 0.54902 
0.0313725 0.521569 0.54902 0.0313725 0.521569 0.54902 
0.0313725 0.521569 0.54902 0.0313725 0.521569 0.54902 
0.0313725 0.521569 0.54902 0.0313725 0.521569 0.54902 
0.0313725 0.521569 0.54902 0.0313725 0.521569 0.54902 
0.0313725 0.521569 0.54902 0.0313725 0.521569 0.54902 
0.0313725 0.521569 0.54902 0.0313725 0.521569 0.54902 
0.0313725 0.521569 0.54902 0.0313725 0.521569 0.54902 
0.0313725 0.521569 0.54902 0.0313725 0.521569 0.54902 
0.0313725 0.521569 0.54902 0.0313725 0.521569 0.54902 
0.0313725 0.521569 0.54902 0.0313725 0.521569 0.54902 
0.0313725 0.521569 0.54902 0.0313725 0.521569 0.54902 
0.0313725 0.521569 0.54902 0.0313725 0.521569 0.54902 
0.0313725 0.521569 0.54902 0.0313725 0.521569 0.54902 
0.0313725 0.521569 0.54902 0.0313725 0.521569 0.54902 
0.0313725 0.521569 0.54902 0.0313725 0.521569 0.54902 
0.0313725 0.521569 0.54902 0.0313725 0.521569 0.54902 
0.0313725 0.521569 0.54902 0.0313725 0.521569 0.54902 
0.0313725 0.521569 0.54902 0.0313725 0.521569 0.54902 
0.0313725 0.521569 0.54902 0.0313725 0.521569 0.54902 
0.0313725 0.521569 0.54902 0.0313725 0.521569 0.54902 
0.0313725 0.521569 0.54902 0.0313725 0.521569 0.54902 
0.0313725 0.521569 0.54902 0.0313725 0.521569 0.54902 
0.0313725 0.521569 0.54902 0.0313725 0.521569 0.54902 
0.0313725 0.521569 0.54902 0.0313725 0.521569 0.54902 
0.0313725 0.521569 0.54902 0.0313725 0.521569 0.54902 
0.0313725 0.521569 0.54902 0.0313725 0.521569 0.54902 
0.0313725 0.521569 0.54902 0.0313725 0.521569 0.54902 
0.0313725 0.521569 0.54902 0.0313725 0.521569 0.54902 
0.0313725 0.521569 0.54902 0.0313725 0.521569 0.54902 
0.0313725 0.521569 0.54902 0.0313725 0.521569 0.54902 
0.0313725 0.521569 0.54902 0.0313725 0.521569 0.54902 
0.0313725 0.521569 0.54902 0.0313725 0.521569 0.54902 
0.0313725 0.521569 0.54902 0.0313725 0.521569 0.54902 
0.0313725 0.521569 0.54902 0.0313725 0.521569 0.54902 
0.0313725 0.521569 0.54902 0.0313725 0.521569 0.54902 
0.0313725 0.521569 0.54902 0.0313725 0.521569 0.54902 
0.0313725 0.521569 0.54902 0.0313725 0.521569 0.54902 
0.0313725 0.521569 0.54902 0.0313725 0.521569 0.54902 
0.0313725 0.521569 0.54902 0.0313725 0.521569 0.54902 
0.0313725 0.521569 0.54902 0.0313725 0.521569 0.54902 
0.0313725 0.521569 0.54902 0.0313725 0.521569 0.54902 
0.0313725 0.521569 0.54902 0.0313725 0.521569 0.54902 
0.0313725 0.521569 0.54902 0.0313725 0.521569 0.54902 
0.0313725 0.521569 0.54902 0.0313725 0.521569 0.54902 
0.0313725 0.521569 0.54902 0.0313725 0.521569 0.54902 
0.0313725 0.521569 0.54902 0.0313725 0.521569 0.54902 
0.0313725 0.521569 0.54902 0.0313725 0.521569 0.54902 
0.0313725 0.521569 0.54902 0.0313725 0.521569 0.54902 
0.0313725 0.521569 0.54902 0.0313725 0.521569 0.54902 
0.0313725 0.521569 0.54902 0.0313725 0.521569 0.54902 
0.0313725 0.521569 0.54902 0.0313725 0.521569 0.54902 
0.0313725 0.521569 0.54902 0.0313725 0.521569 0.54902 
0.0313725 0.521569 0.54902 0.0313725 0.521569 0.54902 
0.0313725 0.521569 0.54902 0.0313725 0.521569 0.54902 
0.0313725 0.521569 0.54902 0.0313725 0.521569 0.54902 
0.0313725 0.521569 0.54902 0.0313725 0.521569 0.54902 
0.0313725 0.521569 0.54902 0.0313725 0.521569 0.54902 
0.0313725 0.521569 0.54902 0.0313725 0.521569 0.54902 
0.0313725 0.521569 0.54902 0.0313725 0.521569 0.54902 
0.0313725 0.521569 0.54902 0.0313725 0.521569 0.54902 
0.0313725 0.521569 0.54902 0.0313725 0.521569 0.54902 
0.0313725 0.521569 0.54902 0.0313725 0.521569 0.54902 
0.0313725 0.521569 0.54902 0.0313725 0.521569 0.54902 
0.0313725 0.521569 0.54902 0.0313725 0.521569 0.54902 
0.0313725 0.521569 0.54902 0.0313725 0.521569 0.54902 
0.0313725 0.521569 0.54902 0.0313725 0.521569 0.54902 
0.0313725 0.521569 0.54902 0.0313725 0.521569 0.54902 
0.0313725 0.521569 0.54902 0.0313725 0.521569 0.54902 
0.0313725 0.521569 0.54902 0.0313725 0.521569 0.54902 
0.0313725 0.521569 0.54902 0.0313725 0.521569 0.54902 
0.0313725 0.521569 0.54902 0.0313725 0.521569 0.54902 
0.0313725 0.521569 0.54902 0.0313725 0.521569 0.54902 
0.0313725 0.521569 0.54902 0.0313725 0.521569 0.54902 
0.0313725 0.521569 0.54902 0.0313725 0.521569 0.54902 
0.0313725 0.521569 0.54902 0.0313725 0.521569 0.54902 
0.0313725 0.521569 0.54902 0.0313725 0.521569 0.54902 
0.0313725 0.521569 0.54902 0.0313725 0.521569 0.54902 
0.0313725 0.521569 0.54902 0.0313725 0.521569 0.54902 
0.0313725 0.521569 0.54902 0.0313725 0.521569 0.54902 
0.0313725 0.521569 0.54902 0.0313725 0.521569 0.54902 
0.0313725 0.521569 0.54902 0.0313725 0.521569 0.54902 
0.0313725 0.521569 0.54902 0.0313725 0.521569 0.54902 
0.0313725 0.521569 0.54902 0.0313725 0.521569 0.54902 
0.0313725 0.521569 0.54902 0.0313725 0.521569 0.54902 
0.0313725 0.521569 0.54902 0.0313725 0.521569 0.54902 
0.0313725 0.521569 0.54902 0.0313725 0.521569 0.54902 
0.0313725 0.521569 0.54902 0.0313725 0.521569 0.54902 
0.0313725 0.521569 0.54902 0.0313725 0.521569 0.54902 
0.0313725 0.521569 0.54902 0.0313725 0.521569 0.54902 
0.0313725 0.521569 0.54902 0.0313725 0.521569 0.54902 
0.0313725 0.521569 0.54902 0.0313725 0.521569 0.54902 
0.0313725 0.521569 0.54902 0.0313725 0.521569 0.54902 
0.0313725 0.521569 0.54902 0.0313725 0.521569 0.54902 
0.0313725 0.521569 0.54902 0.0313725 0.521569 0.54902 
0.0313725 0.521569 0.54902 0.0313725 0.521569 0.54902 
0.0313725 0.521569 0.54902 0.0313725 0.521569 0.54902 
0.0313725 0.521569 0.54902 0.0313725 0.521569 0.54902 
0.0313725 0.521569 0.54902 0.0313725 0.521569 0.54902 
0.0313725 0.521569 0.54902 0.0313725 0.521569 0.54902 
0.0313725 0.521569 0.54902 0.0313725 0.521569 0.54902 
0.0313725 0.521569 0.54902 0.0313725 0.521569 0.54902 
0.0313725 0.521569 0.54902 0.0313725 0.521569 0.54902 
0.0313725 0.521569 0.54902 0.0313725 0.521569 0.54902 
0.0313725 0.521569 0.54902 0.0313725 0.521569 0.54902 
0.0313725 0.521569 0.54902 0.0313725 0.521569 0.54902 
0.0313725 0.521569 0.54902 0.0313725 0.521569 0.54902 
0.0313725 0.521569 0.54902 0.0313725 0.521569 0.54902 
0.0313725 0.521569 0.54902 0.0313725 0.521569 0.54902 
0.0313725 0.521569 0.54902 0.0313725 0.521569 0.54902 
0.0313725 0.521569 0.54902 0.0313725 0.521569 0.54902 
0.0313725 0.521569 0.54902 0.0313725 0.521569 0.54902 
0.0313725 0.521569 0.54902 0.0313725 0.521569 0.54902 
0.0313725 0.521569 0.54902 0.0313725 0.521569 0.54902 
0.0313725 0.521569 0.54902 0.0313725 0.521569 0.54902 
0.0313725 0.521569 0.54902 0.0313725 0.521569 0.54902 
0.0313725 0.521569 0.54902 0.0313725 0.521569 0.54902 
0.0313725 0.521569 0.54902 0.0313725 0.521569 0.54902 
0.0313725 0.521569 0.54902 0.0313725 0.521569 0.54902 
0.0313725 0.521569 0.54902 0.0313725 0.521569 0.54902 
0.0313725 0.521569 0.54902 0.0313725 0.521569 0.54902 
0.0313725 0.521569 0.54902 0.0313725 0.521569 0.54902 
0.0313725 0.521569 0.54902 0.0313725 0.521569 0.54902 
0.0313725 0.521569 0.54902 0.0313725 0.521569 0.54902 
0.0313725 0.521569 0.54902 0.0313725 0.521569 0.54902 
0.0313725 0.521569 0.54902 0.0313725 0.521569 0.54902 
0.0313725 0.521569 0.54902 0.0313725 0.521569 0.54902 
0.0313725 0.521569 0.54902 0.0313725 0.521569 0.54902 
0.0313725 0.521569 0.54902 0.0313725 0.521569 0.54902 
0.0313725 0.521569 0.54902 0.0313725 0.521569 0.54902 
0.0313725 0.521569 0.54902 0.0313725 0.521569 0.54902 
0.0313725 0.521569 0.54902 0.0313725 0.521569 0.54902 
0.0313725 0.521569 0.54902 0.0313725 0.521569 0.54902 
0.0313725 0.521569 0.54902 0.0313725 0.521569 0.54902 
0.0313725 0.521569 0.54902 0.0313725 0.521569 0.54902 
0.0313725 0.521569 0.54902 0.0313725 0.521569 0.54902 
0.0313725 0.521569 0.54902 0.0313725 0.521569 0.54902 
0.0313725 0.521569 0.54902 0.0313725 0.521569 0.54902 
0.0313725 0.521569 0.54902 0.0313725 0.521569 0.54902 
0.0313725 0.521569 0.54902 0.0313725 0.521569 0.54902 
0.0313725 0.521569 0.54902 0.0313725 0.521569 0.54902 
0.0313725 0.521569 0.54902 0.0313725 0.521569 0.54902 
0.0313725 0.521569 0.54902 0.0313725 0.521569 0.54902 
0.0313725 0.521569 0.54902 0.0313725 0.521569 0.54902 
0.0313725 0.521569 0.54902 0.0313725 0.521569 0.54902 
0.0313725 0.521569 0.54902 0.0313725 0.521569 0.54902 
0.0313725 0.521569 0.54902 0.0313725 0.521569 0.54902 
0.0313725 0.521569 0.54902 0.0313725 0.521569 0.54902 
0.0313725 0.521569 0.54902 0.0313725 0.521569 0.54902 
0.0313725 0.521569 0.54902 0.0313725 0.521569 0.54902 
0.0313725 0.521569 0.54902 0.0313725 0.521569 0.54902 
0.0313725 0.521569 0.54902 0.0313725 0.521569 0.54902 
0.0313725 0.521569 0.54902 0.0313725 0.521569 0.54902 
0.0313725 0.521569 0.54902 0.0313725 0.521569 0.54902 
0.0313725 0.521569 0.54902 0.0313725 0.521569 0.54902 
0.0313725 0.521569 0.54902 0.0313725 0.521569 0.54902 
0.0313725 0.521569 0.54902 0.0313725 0.521569 0.54902 
0.0313725 0.521569 0.54902 0.0313725 0.521569 0.54902 
0.0313725 0.521569 0.54902 0.0313725 0.521569 0.54902 
0.0313725 0.521569 0.54902 0.0313725 0.521569 0.54902 
0.0313725 0.521569 0.54902 0.0313725 0.521569 0.54902 
0.0313725 0.521569 0.54902 0.0313725 0.521569 0.54902 
0.0313725 0.521569 0.54902 0.0313725 0.521569 0.54902 
0.0313725 0.521569 0.54902 0.0313725 0.521569 0.54902 
0.0313725 0.521569 0.54902 0.0313725 0.521569 0.54902 
0.0313725 0.521569 0.54902 0.0313725 0.521569 0.54902 
0.0313725 0.521569 0.54902 0.0313725 0.521569 0.54902 
0.0313725 0.521569 0.54902 0.0313725 0.521569 0.54902 
0.0313725 0.521569 0.54902 0.0313725 0.521569 0.54902 
0.0313725 0.521569 0.54902 0.0313725 0.521569 0.54902 
0.0313725 0.521569 0.54902 0.0313725 0.521569 0.54902 
0.0313725 0.521569 0.54902 0.0313725 0.521569 0.54902 
0.0313725 0.521569 0.54902 0.0313725 0.521569 0.54902 
0.0313725 0.521569 0.54902 0.0313725 0.521569 0.54902 
0.0313725 0.521569 0.54902 0.0313725 0.521569 0.54902 
0.0313725 0.521569 0.54902 0.0313725 0.521569 0.54902 
0.0313725 0.521569 0.54902 0.0313725 0.521569 0.54902 
0.0313725 0.521569 0.54902 0.0313725 0.521569 0.54902 
0.0313725 0.521569 0.54902 0.0313725 0.521569 0.54902 
0.0313725 0.521569 0.54902 0.0313725 0.521569 0.54902 
0.0313725 0.521569 0.54902 0.0313725 0.521569 0.54902 
0.0313725 0.521569 0.54902 0.0313725 0.521569 0.54902 
0.0313725 0.521569 0.54902 0.0313725 0.521569 0.54902 
0.0313725 0.521569 0.54902 0.0313725 0.521569 0.54902 
0.0313725 0.521569 0.54902 0.0313725 0.521569 0.54902 
0.0313725 0.521569 0.54902 0.0313725 0.521569 0.54902 
0.0313725 0.521569 0.54902 0.0313725 0.521569 0.54902 
0.0313725 0.521569 0.54902 0.0313725 0.521569 0.54902 
0.0313725 0.521569 0.54902 0.0313725 0.521569 0.54902 
0.0313725 0.521569 0.54902 0.0313725 0.521569 0.54902 
0.0313725 0.521569 0.54902 0.0313725 0.521569 0.54902 
0.0313725 0.521569 0.54902 0.0313725 0.521569 0.54902 
0.0313725 0.521569 0.54902 0.0313725 0.521569 0.54902 
0.0313725 0.521569 0.54902 0.0313725 0.521569 0.54902 
0.0313725 0.521569 0.54902 0.0313725 0.521569 0.54902 
0.0313725 0.521569 0.54902 0.0313725 0.521569 0.54902 
0.0313725 0.521569 0.54902 0.0313725 0.521569 0.54902 
0.0313725 0.521569 0.54902 0.0313725 0.521569 0.54902 
0.0313725 0.521569 0.54902 0.0313725 0.521569 0.54902 
0.0313725 0.521569 0.54902 0.0313725 0.521569 0.54902 
0.0313725 0.521569 0.54902 0.0313725 0.521569 0.54902 
0.0313725 0.521569 0.54902 0.0313725 0.521569 0.54902 
0.0313725 0.521569 0.54902 0.0313725 0.521569 0.54902 
0.0313725 0.521569 0.54902 0.0313725 0.521569 0.54902 
0.0313725 0.521569 0.54902 0.0313725 0.521569 0.54902 
0.0313725 0.521569 0.54902 0.0313725 0.521569 0.54902 
0.0313725 0.521569 0.54902 0.0313725 0.521569 0.54902 
0.0313725 0.521569 0.54902 0.0313725 0.521569 0.54902 
0.0313725 0.521569 0.54902 0.0313725 0.521569 0.54902 
0.0313725 0.521569 0.54902 0.0313725 0.521569 0.54902 
0.0313725 0.521569 0.54902 0.0313725 0.521569 0.54902 
0.0313725 0.521569 0.54902 0.0313725 0.521569 0.54902 
0.0313725 0.521569 0.54902 0.0313725 0.521569 0.54902 
0.0313725 0.521569 0.54902 0.0313725 0.521569 0.54902 
0.0313725 0.521569 0.54902 0.0313725 0.521569 0.54902 
0.0313725 0.521569 0.54902 0.0313725 0.521569 0.54902 
0.0313725 0.521569 0.54902 0.0313725 0.521569 0.54902 
0.0313725 0.521569 0.54902 0.0313725 0.521569 0.54902 
0.0313725 0.521569 0.54902 0.0313725 0.521569 0.54902 
0.0313725 0.521569 0.54902 0.0313725 0.521569 0.54902 