# vtk DataFile Version 4.2
vtk output
ASCII
DATASET POLYDATA
POINTS 1465 float
380.259 125.584 36.3929 380.284 125.917 36.4099 380.169 126.355 36.532 
379.375 121.466 37.1578 379.753 121.5 37.0352 380.036 122.489 36.8112 
379.547 123.848 36.8248 380.073 124.725 36.5821 379.514 125.032 36.7904 
379.124 124.624 37.0474 379.691 126.216 36.7638 381.925 125.789 36.6036 
381.608 126.843 36.524 381.103 127.848 36.5956 380.382 128.568 36.8572 
380.971 128.783 36.7701 380.724 130.025 37.0262 381.068 130.438 37.0714 
381.259 131.422 37.3765 381.636 131.507 37.4151 378.448 117.516 38.161 
379.049 119.6 37.6482 380.08 119.619 37.4149 378.793 122.021 37.3896 
378.681 123.286 37.4211 382.962 124.728 37.1604 379.351 126.686 37.1093 
382.692 126.937 36.9041 379.642 129.333 37.4808 380.449 130.708 37.3426 
382.72 131.282 37.5388 381.145 132.382 37.9353 381.643 132.607 37.9939 
378.333 115.629 38.8378 378.795 115.653 38.6925 377.729 117.438 38.7064 
382.09 118.857 38.105 378.08 124.652 38.0969 379.819 130.868 37.9145 
380.543 132.432 38.2895 377.498 113.056 39.9386 378.74 113.106 39.4906 
380.124 114.429 39.0792 379.391 115.585 38.6754 376.86 117.997 39.5658 
377.078 121.223 39.2348 377.718 122.784 38.4331 378.122 129.41 39.2846 
384.08 135.35 39.4031 383.36 136.486 39.5227 383.239 137.416 39.7597 
382.699 138.521 40.2667 383.404 138.057 39.9175 382.895 139.005 40.4396 
383.146 139.301 40.3756 383.382 139.041 40.2007 383.268 139.301 40.2686 
380.033 111.723 40.0999 376.631 114.793 40.2159 376.93 122.814 39.5371 
386.014 131.47 39.5679 384.525 135.825 39.8315 384.885 136.306 40.3801 
383.995 138.186 40.2487 383.594 138.726 40.1383 383.038 139.223 40.6497 
383.63 138.924 40.2596 383.768 138.846 40.4459 383.271 139.403 40.3324 
383.243 139.369 40.4691 383.366 139.323 40.3123 383.532 139.127 40.3799 
383.322 139.408 40.373 376.332 108.041 41.8764 376.156 108.78 41.7953 
377.341 107.949 41.5673 377.531 108.662 41.3133 378.197 108.656 41.2625 
378.917 108.886 41.2284 376.42 112.264 40.8926 384.949 116.909 40.1742 
376.697 124.894 40.1613 385.259 136.297 40.8537 384.862 137.043 40.9519 
383.377 138.972 41.2372 376.225 105.867 42.6711 375.584 105.802 42.9887 
375.307 107.346 42.7372 375.149 108.177 42.7093 384.034 112.079 41.5565 
384.996 137.015 42.0992 381.489 138.463 42.1751 375.798 104.652 43.2965 
376.192 104.058 43.4272 377.194 104.949 42.9347 374.955 113.291 42.5309 
388.053 133.15 43.4416 386.497 135.088 42.4878 385.17 136.458 43.2575 
380.973 138.355 43.3033 381.291 138.552 43.5922 381.599 138.645 43.3586 
382.015 138.667 43.2149 374.956 102.752 44.5592 374.626 103.979 44.2672 
374.673 104.728 43.9791 378.352 104.322 43.4653 374.176 108.498 43.8414 
390.203 130.233 44.2959 388.037 133.086 44.308 381.239 138.492 44.2004 
382.008 138.5 43.9544 382.321 138.391 44.0237 375.287 99.3309 45.9133 
375.955 99.9898 45.5511 374.622 102.085 45.0434 378.264 101.548 45.0477 
374.029 106.118 44.2865 390.97 129.383 45.5256 387.04 133.641 45.1666 
380.426 138.199 44.562 380.398 138.3 45.1003 380.884 138.318 45.1071 
380.52 138.368 45.2153 380.386 138.354 45.2788 374.437 97.8342 46.7503 
374.262 98.2993 46.6084 375.36 98.7635 46.2008 392.851 126.66 46.2135 
374.432 129.278 45.9345 391.762 128.354 45.6844 392.528 127.24 46.2465 
375.186 131.092 45.4434 375.421 131.821 45.5316 375.943 133.021 45.5506 
378.972 137.363 45.5625 373.752 96.7234 47.5938 374.85 97.5627 46.8575 
394.951 121.761 47.0987 393.739 125.19 46.737 392.006 127.726 47.395 
392.426 127.309 47.2748 390.91 129.239 46.4839 379.75 138.037 46.8717 
374.04 95.8489 48.1119 373.55 95.2027 48.6629 372.781 96.8733 48.2566 
375.661 96.3584 47.7228 393.67 111.256 47.7302 395.159 122.743 47.6622 
395.28 123.099 48.135 390.82 128.244 48.5057 377.446 136.869 47.8498 
379.457 138.056 47.8154 372.462 93.5947 49.9742 372.267 94.3702 49.778 
396.636 119.008 48.6612 396.896 120.983 49.5158 396.082 122.413 49.2028 
396.361 122.094 49.4807 394.929 123.985 48.6551 376.772 137.088 49.5783 
378.321 137.748 49.212 373.726 92.1527 50.3364 371.559 95.3435 50.1161 
395.67 123.021 50.0846 396.533 121.892 49.8494 394.621 124.146 49.8825 
372.248 127.43 49.912 386.546 131.142 49.6849 377.388 137.723 50.3453 
378.237 137.844 50.1026 378.881 137.788 50.0417 371.612 90.077 52.0318 
372.16 89.6475 52.0732 374.207 90.5785 51.4337 370.932 95.9714 50.8179 
398.956 117.438 51.1969 398.432 119.231 51.4582 397.003 121.253 50.6667 
379.65 137.376 51.2951 377.817 137.932 51.2033 370.733 92.162 52.1098 
399.945 115.904 52.0941 398.991 118.404 51.6403 398.939 118.913 52.3328 
398.504 119.458 52.4199 377.832 137.943 51.7403 372.128 87.6754 53.5299 
370.277 91.472 52.9066 401.141 114.882 53.2966 400.353 116.849 52.94 
400.037 117.589 53.1203 400.794 116.733 53.4526 400.975 116.848 53.8936 
398.109 119.773 53.2355 398.925 119.004 53.4098 378.677 137.482 53.2146 
374.815 87.5872 54.1451 377.599 89.0248 54.0071 401.813 114.86 54.0992 
401.46 116.304 54.2474 399.055 118.825 53.9613 400.602 117.491 54.4563 
397.685 119.801 54.0578 374.394 137.361 53.858 378.902 137.202 54.0397 
375.772 138.184 54.1004 375.713 138.319 54.4213 375.766 138.359 54.5447 
370.772 85.1993 55.779 370.609 85.5178 55.6532 373.365 86.4071 54.8829 
374.17 86.5581 55.2058 369.236 88.4647 55.4196 369.097 90.7754 54.9582 
368.52 107.744 55.338 402.084 115.843 54.905 402.704 115.424 55.7098 
402.322 116.105 55.3805 401.869 116.492 55.5117 402.242 116.201 55.4762 
375.247 138.224 54.8419 376.216 138.218 54.7009 370.655 85.1039 55.8955 
370.616 85.1019 55.9572 370.576 85.2172 55.9086 370.731 85.1125 55.973 
370.341 85.49 56.1347 371.583 85.2758 55.7843 371.407 85.2137 55.911 
370.023 85.667 56.5461 373.587 86.0144 56.011 380.703 88.885 56.5703 
385.689 91.5899 55.4651 403.656 112.655 55.9953 403.923 113.637 56.3613 
403.834 114.178 56.4604 402.473 115.948 56.5377 402.42 115.977 55.5255 
395.754 120.05 55.7441 374.48 138.28 56.2555 375.771 138.3 55.8159 
376.242 138.146 56.0824 375.202 138.342 55.9269 370.582 85.1898 56.0835 
370.015 85.6061 56.8291 369.898 85.6606 56.9552 370.036 85.6252 56.9995 
371.321 85.2537 56.2086 370.456 85.4961 56.7572 369.587 86.3466 56.2629 
374.237 86.3052 56.5788 381.62 88.8627 57.3262 380.848 88.7579 57.4258 
382.662 89.079 57.5616 404.657 111.234 57.1638 404.983 111.907 57.4543 
404.924 113.243 57.5512 404.629 113.943 57.5485 400.603 117.027 56.981 
374.426 138.551 57.6449 370.074 85.8186 57.3332 369.613 86.192 57.3255 
369.075 86.9932 57.6208 383.566 88.9312 58.3624 368.037 89.4738 57.8045 
403.989 114.931 57.8742 404.273 114.706 58.4915 394.215 119.644 57.7258 
375.394 138.345 57.2863 374.389 138.622 58.279 373.802 138.722 58.6734 
368.932 86.8853 58.7349 368.857 86.9891 58.6775 369.49 86.598 58.3224 
372.638 86.2943 58.1626 368.391 87.8906 58.6293 386.194 88.3218 59.3647 
379.824 88.8677 59.0375 382.805 88.8718 59.4198 406.111 112.755 59.0321 
405.624 113.757 59.0859 372.937 138.641 58.7887 368.796 87.6547 59.7747 
367.898 88.8263 59.3983 381.836 89.2841 60.3797 367.103 91.3465 59.8892 
406.149 108.873 59.4023 407.057 110.867 60.274 406.712 112.719 60.2028 
406.792 112.752 60.6212 404.064 114.584 59.8143 405.403 114.007 59.7706 
405.743 113.79 59.7321 406.487 113.12 60.5826 370.391 137.045 60.3432 
375.294 138.18 59.5059 372.152 138.716 59.8874 368.324 88.1519 60.0104 
369.06 87.7726 60.3896 370.157 87.5081 60.3422 387.981 87.2133 60.9873 
367.795 88.9806 60.4328 381.46 89.7429 61.4275 366.265 94.9219 61.1159 
407.161 112.189 61.2017 404.311 113.978 60.9556 405.061 113.78 60.8746 
368.81 133.837 61.2671 380.046 133.248 61.3527 369.506 135.596 61.3081 
386.006 86.897 62.3129 387.373 86.5542 61.9804 387.746 86.1664 62.5304 
390.593 86.9876 62.0885 383.797 88.447 62.5547 381.68 89.9231 62.2125 
407.498 111.58 62.1455 407.291 112.16 61.6874 407.23 112.308 61.7085 
404.437 113.268 61.9847 406.515 112.979 61.2188 368.293 132.679 62.0205 
368.526 133.26 62.2894 369.76 136.284 61.9698 369.973 136.832 61.996 
370.141 137.137 61.8102 373.29 138.725 61.1739 371.585 138.856 61.5881 
371.857 139.015 61.3045 372.068 139.076 61.2898 388.17 85.1005 64.153 
386.1 86.5725 63.0851 389.122 86.0526 62.6706 383.335 88.868 63.0815 
408.125 105.602 63.3445 407.07 111.729 62.7381 407.639 111.269 62.909 
367.915 131.369 63.099 369.373 135.011 62.5525 370.32 137.066 62.4538 
370.464 137.475 62.0489 371.232 138.379 62.1608 371.41 138.788 61.8813 
371.537 138.859 61.924 371.766 138.824 61.9222 371.962 138.967 61.5829 
371.449 138.816 62.0114 369.195 90.1333 63.6472 366.155 91.8248 63.7912 
365.568 93.1122 63.8827 365.608 92.7741 64.1974 401.391 92.7113 64.1667 
408.999 107.982 64.3488 408.546 109.631 64.208 408.368 110.331 63.807 
407.914 110.703 63.6917 408.262 110.4 63.8401 365.966 124.483 63.3879 
366.88 128.15 63.9644 366.939 128.56 63.9974 366.999 128.734 64.0091 
367.523 129.895 63.6994 368.137 131.626 63.5334 369.048 133.794 63.2756 
369.806 135.445 63.0879 370.158 135.443 63.556 371.024 136.877 63.3014 
371.435 138.505 62.2547 371.855 138.025 62.7169 371.785 138.48 62.3032 
389.171 83.5134 66.0289 387.335 84.7504 65.7452 366.038 91.7177 64.7572 
366.179 91.6592 64.7508 367.238 90.7084 63.8705 366.567 91.4004 64.3798 
381.909 90.4436 64.9496 381.37 90.8851 64.7261 409.142 108.201 65.3575 
408.896 108.78 65.2075 407.74 110.421 64.2602 408.394 110.173 63.9551 
365.197 121.556 64.3394 368.9 132.281 64.2881 379.304 131.619 65.531 
392.782 85.0592 65.0928 385.966 85.895 65.913 366.037 91.8332 64.8725 
366.297 91.8657 65.0543 365.881 92.2305 65.0042 365.604 92.9486 65.3934 
368.259 91.8711 65.7886 364.352 96.409 65.705 364.009 97.8845 66.0026 
408.355 109.255 65.3624 408.718 108.887 65.4668 366.167 125.231 65.3206 
366.731 126.556 65.5415 368.473 129.131 65.9403 369.954 132.057 65.6107 
376.942 133.284 66.1723 375.599 134.329 65.7437 395.72 85.2542 67.0098 
364.295 95.52 66.9907 374.383 94.7173 67.5065 364.277 95.9299 66.3645 
364.009 96.3187 67.0402 409.793 106.346 67.2796 409.305 107.522 66.6012 
[...]
POINT_DATA 1465
COLOR_SCALARS scalars 3
0.0313725 0.521569 0.54902 0.0313725 0.521569 0.54902 0.0313725 0.521569 0.54902 
0.0313725 0.521569 0.54902 0.0313725 0.521569 0.54902 
0.0313725 0.521569 0.54902 0.0313725 0.521569 0.54902 
0.0313725 0.521569 0.54902 0.0313725 0.521569 0.54902 
0.0313725 0.521569 0.54902 0.0313725 0.521569 0.54902 
0.0313725 0.521569 0.54902 0.0313725 0.521569 0.54902 
0.0313725 0.521569 0.54902 0.0313725 0.521569 0.54902 
0.0313725 0.521569 0.54902 0.0313725 0.521569 0.54902 
0.0313725 0.521569 0.54902 0.0313725 0.521569 0.54902 
0.0313725 0.521569 0.54902 0.0313725 0.521569 0.54902 
0.0313725 0.521569 0.54902 0.0313725 0.521569 0.54902 
0.0313725 0.521569 0.54902 0.0313725 0.521569 0.54902 
0.0313725 0.521569 0.54902 0.0313725 0.521569 0.54902 
0.0313725 0.521569 0.54902 0.0313725 0.521569 0.54902 
0.0313725 0.521569 0.54902 0.0313725 0.521569 0.54902 
0.0313725 0.521569 0.54902 0.0313725 0.521569 0.54902 
0.0313725 0.521569 0.54902 0.0313725 0.521569 0.54902 
0.0313725 0.521569 0.54902 0.0313725 0.521569 0.54902 
0.0313725 0.521569 0.54902 0.0313725 0.521569 0.54902 
0.0313725 0.521569 0.54902 0.0313725 0.521569 0.54902 
0.0313725 0.521569 0.54902 0.0313725 0.521569 0.54902 
0.0313725 0.521569 0.54902 0.0313725 0.521569 0.54902 
0.0313725 0.521569 0.54902 0.0313725 0.521569 0.54902 
0.0313725 0.521569 0.54902 0.0313725 0.521569 0.54902 
0.0313725 0.521569 0.54902 0.0313725 0.521569 0.54902 
0.0313725 0.521569 0.54902 0.0313725 0.521569 0.54902 
0.0313725 0.521569 0.54902 0.0313725 0.521569 0.54902 
0.0313725 0.521569 0.54902 0.0313725 0.521569 0.54902 
0.0313725 0.521569 0.54902 0.0313725 0.521569 0.54902 
0.0313725 0.521569 0.54902 0.0313725 0.521569 0.54902 
0.0313725 0.521569 0.54902 0.0313725 0.521569 0.54902 
0.0313725 0.521569 0.54902 0.0313725 0.521569 0.54902 
0.0313725 0.521569 0.54902 0.0313725 0.521569 0.54902 
0.0313725 0.521569 0.54902 0.0313725 0.521569 0.54902 
0.0313725 0.521569 0.54902 0.0313725 0.521569 0.54902 
0.0313725 0.521569 0.54902 0.0313725 0.521569 0.54902 
0.0313725 0.521569 0.54902 0.0313725 0.521569 0.54902 
0.0313725 0.521569 0.54902 0.0313725 0.521569 0.54902 
0.0313725 0.521569 0.54902 0.0313725 0.521569 0.54902 
0.0313725 0.521569 0.54902 0.0313725 0.521569 0.54902 
0.0313725 0.521569 0.54902 0.0313725 0.521569 0.54902 
0.0313725 0.521569 0.54902 0.0313725 0.521569 0.54902 
0.0313725 0.521569 0.54902 0.0313725 0.521569 0.54902 
0.0313725 0.521569 0.54902 0.0313725 0.521569 0.54902 
0.0313725 0.521569 0.54902 0.0313725 0.521569 0.54902 
0.0313725 0.521569 0.54902 0.0313725 0.521569 0.54902 
0.0313725 0.521569 0.54902 0.0313725 0.521569 0.54902 
0.0313725 0.521569 0.54902 0.0313725 0.521569 0.54902 
0.0313725 0.521569 0.54902 0.0313725 0.521569 0.54902 
0.0313725 0.521569 0.54902 0.0313725 0.521569 0.54902 
0.0313725 0.521569 0.54902 0.0313725 0.521569 0.54902 
0.0313725 0.521569 0.54902 0.0313725 0.521569 0.54902 
0.0313725 0.521569 0.54902 0.0313725 0.521569 0.54902 
0.0313725 0.521569 0.54902 0.0313725 0.521569 0.54902 
0.0313725 0.521569 0.54902 0.0313725 0.521569 0.54902 
0.0313725 0.521569 0.54902 0.0313725 0.521569 0.54902 
0.0313725 0.521569 0.54902 0.0313725 0.521569 0.54902 
0.0313725 0.521569 0.54902 0.0313725 0.521569 0.54902 
0.0313725 0.521569 0.54902 0.0313725 0.521569 0.54902 
0.0313725 0.521569 0.54902 0.0313725 0.521569 0.54902 
0.0313725 0.521569 0.54902 0.0313725 0.521569 0.54902 
0.0313725 0.521569 0.54902 0.0313725 0.521569 0.54902 
0.0313725 0.521569 0.54902 0.0313725 0.521569 0.54902 
0.0313725 0.521569 0.54902 0.0313725 0.521569 0.54902 
0.0313725 0.521569 0.54902 0.0313725 0.521569 0.54902 
0.0313725 0.521569 0.54902 0.0313725 0.521569 0.54902 
0.0313725 0.521569 0.54902 0.0313725 0.521569 0.54902 
0.0313725 0.521569 0.54902 0.0313725 0.521569 0.54902 
0.0313725 0.521569 0.54902 0.0313725 0.521569 0.54902 
0.0313725 0.521569 0.54902 0.0313725 0.521569 0.54902 
0.0313725 0.521569 0.54902 0.0313725 0.521569 0.54902 
0.0313725 0.521569 0.54902 0.0313725 0.521569 0.54902 
0.0313725 0.521569 0.54902 0.0313725 0.521569 0.54902 
0.0313725 0.521569 0.54902 0.0313725 0.521569 0.54902 
0.0313725 0.521569 0.54902 0.0313725 0.521569 0.54902 
0.0313725 0.521569 0.54902 0.0313725 0.521569 0.54902 
0.0313725 0.521569 0.54902 0.0313725 0.521569 0.54902 
0.0313725 0.521569 0.54902 0.0313725 0.521569 0.54902 
0.0313725 0.521569 0.54902 0.0313725 0.521569 0.54902 
0.0313725 0.521569 0.54902 0.0313725 0.521569 0.54902 
0.0313725 0.521569 0.54902 0.0313725 0.521569 0.54902 
0.0313725 0.521569 0.54902 0.0313725 0.521569 0.54902 
0.0313725 0.521569 0.54902 0.0313725 0.521569 0.54902 
0.0313725 0.521569 0.54902 0.0313725 0.521569 0.54902 
0.0313725 0.521569 0.54902 0.0313725 0.521569 0.54902 
0.0313725 0.521569 0.54902 0.0313725 0.521569 0.54902 
0.0313725 0.521569 0.54902 0.0313725 0.521569 0.54902 
0.0313725 0.521569 0.54902 0.0313725 0.521569 0.54902 
0.0313725 0.521569 0.54902 0.0313725 0.521569 0.54902 
0.0313725 0.521569 0.54902 0.0313725 0.521569 0.54902 
0.0313725 0.521569 0.54902 0.0313725 0.521569 0.54902 
0.0313725 0.521569 0.54902 0.0313725 0.521569 0.54902 
0.0313725 0.521569 0.54902 0.0313725 0.521569 0.54902 
0.0313725 0.521569 0.54902 0.0313725 0.521569 0.54902 
0.0313725 0.521569 0.54902 0.0313725 0.521569 0.54902 
0.0313725 0.521569 0.54902 0.0313725 0.521569 0.54902 
0.0313725 0.521569 0.54902 0.0313725 0.521569 0.54902 
0.0313725 0.521569 0.54902 0.0313725 0.521569 0.54902 
0.0313725 0.521569 0.54902 0.0313725 0.521569 0.54902 
0.0313725 0.521569 0.54902 0.0313725 0.521569 0.54902 
0.0313725 0.521569 0.54902 0.0313725 0.521569 0.54902 
0.0313725 0.521569 0.54902 0.0313725 0.521569 0.54902 
0.0313725 0.521569 0.54902 0.0313725 0.521569 0.54902 
0.0313725 0.521569 0.54902 0.0313725 0.521569 0.54902 
0.0313725 0.521569 0.54902 0.0313725 0.521569 0.54902 
0.0313725 0.521569 0.54902 0.0313725 0.521569 0.54902 
0.0313725 0.521569 0.54902 0.0313725 0.521569 0.54902 
0.0313725 0.521569 0.54902 0.0313725 0.521569 0.54902 
0.0313725 0.521569 0.54902 0.0313725 0.521569 0.54902 
0.0313725 0.521569 0.54902 0.0313725 0.521569 0.54902 
0.0313725 0.521569 0.54902 0.0313725 0.521569 0.54902 
0.0313725 0.521569 0.54902 0.0313725 0.521569 0.54902 
0.0313725 0.521569 0.54902 0.0313725 0.521569 0.54902 
0.0313725 0.521569 0.54902 0.0313725 0.521569 0.54902 
0.0313725 0.521569 0.54902 0.0313725 0.521569 0.54902 
0.0313725 0.521569 0.54902 0.0313725 0.521569 0.54902 
0.0313725 0.521569 0.54902 0.0313725 0.521569 0.54902 
0.0313725 0.521569 0.54902 0.0313725 0.521569 0.54902 
0.0313725 0.521569 0.54902 0.0313725 0.521569 0.54902 
0.0313725 0.521569 0.54902 0.0313725 0.521569 0.54902 
0.0313725 0.521569 0.54902 0.0313725 0.521569 0.54902 
0.0313725 0.521569 0.54902 0.0313725 0.521569 0.54902 
0.0313725 0.521569 0.54902 0.0313725 0.521569 0.54902 
0.0313725 0.521569 0.54902 0.0313725 0.521569 0.54902 
0.0313725 0.521569 0.54902 0.0313725 0.521569 0.54902 
0.0313725 0.521569 0.54902 0.0313725 0.521569 0.54902 
0.0313725 0.521569 0.54902 0.0313725 0.521569 0.54902 
0.0313725 0.521569 0.54902 0.0313725 0.521569 0.54902 
0.0313725 0.521569 0.54902 0.0313725 0.521569 0.54902 
0.0313725 0.521569 0.54902 0.0313725 0.521569 0.54902 
0.0313725 0.521569 0.54902 0.0313725 0.521569 0.54902 
0.0313725 0.521569 0.54902 0.0313725 0.521569 0.54902 
0.0313725 0.521569 0.54902 0.0313725 0.521569 0.54902 
0.0313725 0.521569 0.54902 0.0313725 0.521569 0.54902 
0.0313725 0.521569 0.54902 0.0313725 0.521569 0.54902 
0.0313725 0.521569 0.54902 0.0313725 0.521569 0.54902 
0.0313725 0.521569 0.54902 0.0313725 0.521569 0.54902 
0.0313725 0.521569 0.54902 0.0313725 0.521569 0.54902 
0.0313725 0.521569 0.54902 0.0313725 0.521569 0.54902 
0.0313725 0.521569 0.54902 0.0313725 0.521569 0.54902 
0.0313725 0.521569 0.54902 0.0313725 0.521569 0.54902 
0.0313725 0.521569 0.54902 0.0313725 0.521569 0.54902 
0.0313725 0.521569 0.54902 0.0313725 0.521569 0.54902 
0.0313725 0.521569 0.54902 0.0313725 0.521569 0.54902 
0.0313725 0.521569 0.54902 0.0313725 0.521569 0.54902 
0.0313725 0.521569 0.54902 0.0313725 0.521569 0.54902 
0.0313725 0.521569 0.54902 0.0313725 0.521569 0.54902 
0.0313725 0.521569 0.54902 0.0313725 0.521569 0.54902 
0.0313725 0.521569 0.54902 0.0313725 0.521569 0.54902 
0.0313725 0.521569 0.54902 0.0313725 0.521569 0.54902 
0.0313725 0.521569 0.54902 0.0313725 0.521569 0.54902 
0.0313725 0.521569 0.54902 0.0313725 0.521569 0.54902 
0.0313725 0.521569 0.54902 0.0313725 0.521569 0.54902 
0.0313725 0.521569 0.54902 0.0313725 0.521569 0.54902 
0.0313725 0.521569 0.54902 0.0313725 0.521569 0.54902 
0.0313725 0.521569 0.54902 0.0313725 0.521569 0.54902 
0.0313725 0.521569 0.54902 0.0313725 0.521569 0.54902 
0.0313725 0.521569 0.54902 0.0313725 0.521569 0.54902 
0.0313725 0.521569 0.54902 0.0313725 0.521569 0.54902 
0.0313725 0.521569 0.54902 0.0313725 0.521569 0.54902 
0.0313725 0.521569 0.54902 0.0313725 0.521569 0.54902 
0.0313725 0.521569 0.54902 0.0313725 0.521569 0.54902 
0.0313725 0.521569 0.54902 0.0313725 0.521569 0.54902 
0.0313725 0.521569 0.54902 0.0313725 0.521569 0.54902 
0.0313725 0.521569 0.54902 0.0313725 0.521569 0.54902 
0.0313725 0.521569 0.54902 0.0313725 0.521569 0.54902 
0.0313725 0.521569 0.54902 0.0313725 0.521569 0.54902 
0.0313725 0.521569 0.54902 0.0313725 0.521569 0.54902 
0.0313725 0.521569 0.54902 0.0313725 0.521569 0.54902 
0.0313725 0.521569 0.54902 0.0313725 0.521569 0.54902 
0.0313725 0.521569 0.54902 0.0313725 0.521569 0.54902 
0.0313725 0.521569 0.54902 0.0313725 0.521569 0.54902 
0.0313725 0.521569 0.54902 0.0313725 0.521569 0.54902 
0.0313725 0.521569 0.54902 0.0313725 0.521569 0.54902 
0.0313725 0.521569 0.54902 0.0313725 0.521569 0.54902 
0.0313725 0.521569 0.54902 0.0313725 0.521569 0.54902 
0.0313725 0.521569 0.54902 0.0313725 0.521569 0.54902 
0.0313725 0.521569 0.54902 0.0313725 0.521569 0.54902 
0.0313725 0.521569 0.54902 0.0313725 0.521569 0.54902 
0.0313725 0.521569 0.54902 0.0313725 0.521569 0.54902 
0.0313725 0.521569 0.54902 0.0313725 0.521569 0.54902 
0.0313725 0.521569 0.54902 0.0313725 0.521569 0.54902 
0.0313725 0.521569 0.54902 0.0313725 0.521569 0.54902 
0.0313725 0.521569 0.54902 0.0313725 0.521569 0.54902 
0.0313725 0.521569 0.54902 0.0313725 0.521569 0.54902 
0.0313725 0.521569 0.54902 0.0313725 0.521569 0.54902 
0.0313725 0.521569 0.54902 0.0313725 0.521569 0.54902 
0.0313725 0.521569 0.54902 0.0313725 0.521569 0.54902 
0.0313725 0.521569 0.54902 0.0313725 0.521569 0.54902 
0.0313725 0.521569 0.54902 0.0313725 0.521569 0.54902 
0.0313725 0.521569 0.54902 0.0313725 0.521569 0.54902 
0.0313725 0.521569 0.54902 0.0313725 0.521569 0.54902 
0.0313725 0.521569 0.54902 0.0313725 0.521569 0.54902 
0.0313725 0.521569 0.54902 0.0313725 0.521569 0.54902 
0.0313725 0.521569 0.54902 0.0313725 0.521569 0.54902 
0.0313725 0.521569 0.54902 0.0313725 0.521569 0.54902 
0.0313725 0.521569 0.54902 0.0313725 0.521569 0.54902 
0.0313725 0.521569 0.54902 0.0313725 0.521569 0.54902 
0.0313725 0.521569 0.54902 0.0313725 0.521569 0.54902 
0.0313725 0.521569 0.54902 0.0313725 0.521569 0.54902 
0.0313725 0.521569 0.54902 0.0313725 0.521569 0.54902 
0.0313725 0.521569 0.54902 0.0313725 0.521569 0.54902 
0.0313725 0.521569 0.54902 0.0313725 0.521569 0.54902 
0.0313725 0.521569 0.54902 0.0313725 0.521569 0.54902 
0.0313725 0.521569 0.54902 0.0313725 0.521569 0.54902 
0.0313725 0.521569 0.54902 0.0313725 0.521569 0.54902 
0.0313725 0.521569 0.54902 0.0313725 0.521569 0.54902 
0.0313725 0.521569 0.54902 0.0313725 0.521569 0.54902 
0.0313725 0.521569 0.54902 0.0313725 0.521569 0.54902 
0.0313725 0.521569 0.54902 0.0313725 0.521569 0.54902 
0.0313725 0.521569 0.54902 0.0313725 0.521569 0.54902 
0.0313725 0.521569 0.54902 0.0313725 0.521569 0.54902 
0.0313725 0.521569 0.54902 0.0313725 0.521569 0.54902 
0.0313725 0.521569 0.54902 0.0313725 0.521569 0.54902 
0.0313725 0.521569 0.54902 0.0313725 0.521569 0.54902 
0.0313725 0.521569 0.54902 0.0313725 0.521569 0.54902 
0.0313725 0.521569 0.54902 0.0313725 0.521569 0.54902 
0.0313725 0.521569 0.54902 0.0313725 0.521569 0.54902 
0.0313725 0.521569 0.54902 0.0313725 0.521569 0.54902 
0.0313725 0.521569 0.54902 0.0313725 0.521569 0.54902 
0.0313725 0.521569 0.54902 0.0313725 0.521569 0.54902 
0.0313725 0.521569 0.54902 0.0313725 0.521569 0.54902 
0.0313725 0.521569 0.54902 0.0313725 0.521569 0.54902 
0.0313725 0.521569 0.54902 0.0313725 0.521569 0.54902 
0.0313725 0.521569 0.54902 0.0313725 0.521569 0.54902 
0.0313725 0.521569 0.54902 0.0313725 0.521569 0.54902 
0.0313725 0.521569 0.54902 0.0313725 0.521569 0.54902 
0.0313725 0.521569 0.54902 0.0313725 0.521569 0.54902 
0.0313725 0.521569 0.54902 0.0313725 0.521569 0.54902 
0.0313725 0.521569 0.54902 0.0313725 0.521569 0.54902 
0.0313725 0.521569 0.54902 0.0313725 0.521569 0.54902 
0.0313725 0.521569 0.54902 0.0313725 0.521569 0.54902 
0.0313725 0.521569 0.54902 0.0313725 0.521569 0.54902 
0.0313725 0.521569 0.54902 0.0313725 0.521569 0.54902 
0.0313725 0.521569 0.54902 0.0313725 0.521569 0.54902 
0.0313725 0.521569 0.54902 0.0313725 0.521569 0.54902 
0.0313725 0.521569 0.54902 0.0313725 0.521569 0.54902 
0.0313725 0.521569 0.54902 0.0313725 0.521569 0.54902 
0.0313725 0.521569 0.54902 0.0313725 0.521569 0.54902 
0.0313725 0.521569 0.54902 0.0313725 0.521569 0.54902 
0.0313725 0.521569 0.54902 0.0313725 0.521569 0.54902 
0.0313725 0.521569 0.54902 0.0313725 0.521569 0.54902 
0.0313725 0.521569 0.54902 0.0313725 0.521569 0.54902 
0.0313725 0.521569 0.54902 0.0313725 0.521569 0.54902 
0.0313725 0.521569 0.54902 0.0313725 0.521569 0.54902 
0.0313725 0.521569 0.54902 0.0313725 0.521569 0.54902 
0.0313725 0.521569 0.54902 0.0313725 0.521569 0.54902 
0.0313725 0.521569 0.54902 0.0313725 0.521569 0.54902 
0.0313725 0.521569 0.54902 0.0313725 0.521569 0.54902 
0.0313725 0.521569 0.54902 0.0313725 0.521569 0.54902 
0.0313725 0.521569 0.54902 0.0313725 0.521569 0.54902 
0.0313725 0.521569 0.54902 0.0313725 0.521569 0.54902 
0.0313725 0.521569 0.54902 0.0313725 0.521569 0.54902 
0.0313725 0.521569 0.54902 0.0313725 0.521569 0.54902 
0.0313725 0.521569 0.54902 0.0313725 0.521569 0.54902 
0.0313725 0.521569 0.54902 0.0313725 0.521569 0.54902 
0.0313725 0.521569 0.54902 0.0313725 0.521569 0.54902 
0.0313725 0.521569 0.54902 0.0313725 0.521569 0.54902 
0.0313725 0.521569 0.54902 0.0313725 0.521569 0.54902 
0.0313725 0.521569 0.54902 0.0313725 0.521569 0.54902 
0.0313725 0.521569 0.54902 0.0313725 0.521569 0.54902 
0.0313725 0.521569 0.54902 0.0313725 0.521569 0.54902 
0.0313725 0.521569 0.54902 0.0313725 0.521569 0.54902 
0.0313725 0.521569 0.54902 0.0313725 0.521569 0.54902 
0.0313725 0.521569 0.54902 0.0313725 0.521569 0.54902 
0.0313725 0.521569 0.54902 0.0313725 0.521569 0.54902 
0.0313725 0.521569 0.54902 0.0313725 0.521569 0.54902 
0.0313725 0.521569 0.54902 0.0313725 0.521569 0.54902 
0.0313725 0.521569 0.54902 0.0313725 0.521569 0.54902 
0.0313725 0.521569 0.54902 0.0313725 0.521569 0.54902 
0.0313725 0.521569 0.54902 0.0313725 0.521569 0.54902 
0.0313725 0.521569 0.54902 0.0313725 0.521569 0.54902 
0.0313725 0.521569 0.54902 0.0313725 0.521569 0.54902 
0.0313725 0.521569 0.54902 0.0313725 0.521569 0.54902 
0.0313725 0.521569 0.54902 0.0313725 0.521569 0.54902 
0.0313725 0.521569 0.54902 0.0313725 0.521569 0.54902 
0.0313725 0.521569 0.54902 0.0313725 0.521569 0.54902 
0.0313725 0.521569 0.54902 0.0313725 0.521569 0.54902 
0.0313725 0.521569 0.54902 0.0313725 0.521569 0.54902 
0.0313725 0.521569 0.54902 0.0313725 0.521569 0.54902 
0.0313725 0.521569 0.54902 0.0313725 0.521569 0.54902 
0.0313725 0.521569 0.54902 0.0313725 0.521569 0.54902 
0.0313725 0.521569 0.54902 0.0313725 0.521569 0.54902 
0.0313725 0.521569 0.54902 0.0313725 0.521569 0.54902 
0.0313725 0.521569 0.54902 0.0313725 0.521569 0.54902 
0.0313725 0.521569 0.54902 0.0313725 0.521569 0.54902 
0.0313725 0.521569 0.54902 0.0313725 0.521569 0.54902 
0.0313725 0.521569 0.54902 0.0313725 0.521569 0.54902 
0.0313725 0.521569 0.54902 0.0313725 0.521569 0.54902 
0.0313725 0.521569 0.54902 0.0313725 0.521569 0.54902 
0.0313725 0.521569 0.54902 0.0313725 0.521569 0.54902 
0.0313725 0.521569 0.54902 0.0313725 0.521569 0.54902 
0.0313725 0.521569 0.54902 0.0313725 0.521569 0.54902 
0.0313725 0.521569 0.54902 0.0313725 0.521569 0.54902 
0.0313725 0.521569 0.54902 0.0313725 0.521569 0.54902 
0.0313725 0.521569 0.54902 0.0313725 0.521569 0.54902 
0.0313725 0.521569 0.54902 0.0313725 0.521569 0.54902 
0.0313725 0.521569 0.54902 0.0313725 0.521569 0.54902 
0.0313725 0.521569 0.54902 0.0313725 0.521569 0.54902 
0.0313725 0.521569 0.54902 0.0313725 0.521569 0.54902 
0.0313725 0.521569 0.54902 0.0313725 0.521569 0.54902 
0.0313725 0.521569 0.54902 0.0313725 0.521569 0.54902 
0.0313725 0.521569 0.54902 0.0313725 0.521569 0.54902 
0.0313725 0.521569 0.54902 0.0313725 0.521569 0.54902 
0.0313725 0.521569 0.54902 0.0313725 0.521569 0.54902 
0.0313725 0.521569 0.54902 0.0313725 0.521569 0.54902 
0.0313725 0.521569 0.54902 0.0313725 0.521569 0.54902 
0.0313725 0.521569 0.54902 0.0313725 0.521569 0.54902 
0.0313725 0.521569 0.54902 0.0313725 0.521569 0.54902 
0.0313725 0.521569 0.54902 0.0313725 0.521569 0.54902 
0.0313725 0.521569 0.54902 0.0313725 0.521569 0.54902 
0.0313725 0.521569 0.54902 0.0313725 0.521569 0.54902 
0.0313725 0.521569 0.54902 0.0313725 0.521569 0.54902 
0.0313725 0.521569 0.54902 0.0313725 0.521569 0.54902 
0.0313725 0.521569 0.54902 0.0313725 0.521569 0.54902 
0.0313725 0.521569 0.54902 0.0313725 0.521569 0.54902 
0.0313725 0.521569 0.54902 0.0313725 0.521569 0.54902 
0.0313725 0.521569 0.54902 0.0313725 0.521569 0.54902 
0.0313725 0.521569 0.54902 0.0313725 0.521569 0.54902 
0.0313725 0.521569 0.54902 0.0313725 0.521569 0.54902 
0.0313725 0.521569 0.54902 0.0313725 0.521569 0.54902 
0.0313725 0.521569 0.54902 0.0313725 0.521569 0.54902 
0.0313725 0.521569 0.54902 0.0313725 0.521569 0.54902 
0.0313725 0.521569 0.54902 0.0313725 0.521569 0.54902 
0.0313725 0.521569 0.54902 0.0313725 0.521569 0.54902 
0.0313725 0.521569 0.54902 0.0313725 0.521569 0.54902 
0.0313725 0.521569 0.54902 0.0313725 0.521569 0.54902 
0.0313725 0.521569 0.54902 0.0313725 0.521569 0.54902 
0.0313725 0.521569 0.54902 0.0313725 0.521569 0.54902 
0.0313725 0.521569 0.54902 0.0313725 0.521569 0.54902 
0.0313725 0.521569 0.54902 0.0313725 0.521569 0.54902 
0.0313725 0.521569 0.54902 0.0313725 0.521569 0.54902 
0.0313725 0.521569 0.54902 0.0313725 0.521569 0.54902 
0.0313725 0.521569 0.54902 0.0313725 0.521569 0.54902 
0.0313725 0.521569 0.54902 0.0313725 0.521569 0.54902 
0.0313725 0.521569 0.54902 0.0313725 0.521569 0.54902 
0.0313725 0.521569 0.54902 0.0313725 0.521569 0.54902 
0.0313725 0.521569 0.54902 0.0313725 0.521569 0.54902 
0.0313725 0.521569 0.54902 0.0313725 0.521569 0.54902 
0.0313725 0.521569 0.54902 0.0313725 0.521569 0.54902 
0.0313725 0.521569 0.54902 0.0313725 0.521569 0.54902 
0.0313725 0.521569 0.54902 0.0313725 0.521569 0.54902 
0.0313725 0.521569 0.54902 0.0313725 0.521569 0.54902 
0.0313725 0.521569 0.54902 0.0313725 0.521569 0.54902 
0.0313725 0.521569 0.54902 0.0313725 0.521569 0.54902 
0.0313725 0.521569 0.54902 0.0313725 0.521569 0.54902 
0.0313725 0.521569 0.54902 0.0313725 0.521569 0.54902 
0.0313725 0.521569 0.54902 0.0313725 0.521569 0.54902 
0.0313725 0.521569 0.54902 0.0313725 0.521569 0.54902 
0.0313725 0.521569 0.54902 0.0313725 0.521569 0.54902 
0.0313725 0.521569 0.54902 0.0313725 0.521569 0.54902 
0.0313725 0.521569 0.54902 0.0313725 0.521569 0.54902 
0.0313725 0.521569 0.54902 0.0313725 0.521569 0.54902 
0.0313725 0.521569 0.54902 0.0313725 0.521569 0.54902 
0.0313725 0.521569 0.54902 0.0313725 0.521569 0.54902 
0.0313725 0.521569 0.54902 0.0313725 0.521569 0.54902 
0.0313725 0.521569 0.54902 0.0313725 0.521569 0.54902 
0.0313725 0.521569 0.54902 0.0313725 0.521569 0.54902 
0.0313725 0.521569 0.54902 0.0313725 0.521569 0.54902 
0.0313725 0.521569 0.54902 0.0313725 0.521569 0.54902 
0.0313725 0.521569 0.54902 0.0313725 0.521569 0.54902 
0.0313725 0.521569 0.54902 0.0313725 0.521569 0.54902 