# vtk DataFile Version 4.2
vtk output
ASCII
DATASET POLYDATA
POINTS 1136 float
314.41 51.9358 74.5471 314.418 51.8109 74.6266 314.318 51.9308 74.6342 
314.552 51.9023 74.5911 314.416 52.0098 74.5494 314.617 51.5771 74.7526 
314.278 51.6117 74.8649 314.893 51.5067 74.8024 314.869 51.7526 74.7445 
314.709 51.9894 74.6543 314.361 52.0724 74.6047 314.513 52.0897 74.6135 
314.385 52.1488 74.6708 313.948 51.0658 75.5591 314.513 50.6612 75.3006 
315.541 51.2118 75.1511 314.104 51.779 75.0898 314.908 51.9595 74.7721 
314.175 52.0105 75.0424 314.998 52.0279 74.8983 314.363 52.1875 74.7963 
314.295 52.1473 75.0314 314.512 52.1962 74.7618 314.454 52.2283 74.9224 
314.142 49.9681 75.9898 316.017 50.3929 75.5816 316.652 50.2141 75.8237 
313.948 51.4612 75.4308 313.815 51.2676 75.9837 315.597 51.6432 75.2404 
315.999 51.4565 75.5861 314.927 52.131 74.9973 314.335 52.1439 75.3301 
315.041 52.124 75.3231 314.244 49.4855 76.2962 316.956 49.3333 76.2869 
318.383 49.3739 76.8176 318.267 48.9268 76.906 318.826 49.6381 77.0846 
317.389 50.629 76.1627 313.975 51.6732 75.8163 315.382 51.9733 75.4293 
314.138 51.8385 75.9065 315.021 52.1037 75.7023 314.786 48.3236 77.0241 
313.109 48.9575 77.6981 313.339 49.4514 77.275 320.959 48.829 78.2306 
319.412 49.5045 77.4297 313.516 50.7688 77.1313 319.298 49.8435 77.5084 
317.762 50.9204 76.9211 318.171 50.7037 77.123 314.689 51.7273 76.9619 
312.875 47.1538 79.1245 312.462 48.451 78.8559 320.73 49.1682 78.1497 
320.378 49.4321 78.0653 319.839 49.8553 78.0369 314.074 51.302 77.5452 
317.246 51.2378 77.6325 317.917 50.9809 77.6425 312.398 47.481 79.33 
320.833 49.6422 78.8648 321.065 49.6415 79.4443 315.952 51.1352 78.8552 
319.994 50.1437 78.9858 312.007 46.1519 80.7314 312.936 46.185 79.938 
314.463 45.8999 79.5577 324.513 46.139 80.8167 311.748 47.5453 80.3277 
324.136 47.0386 80.4963 312.002 48.4768 79.8253 312.173 48.9601 79.8478 
322.229 48.8285 79.512 320.667 49.8345 80.008 312.689 49.7376 79.8091 
325.505 45.1248 81.7515 326.37 45.7103 81.9088 310.978 46.2792 81.9894 
326.151 46.2611 81.7814 326.147 46.8145 81.9323 311.575 47.9186 80.9654 
312.2 49.0249 80.4349 312.117 48.7941 81.1385 322.696 48.9285 80.6574 
322.192 49.1856 80.7691 310.821 44.933 82.6777 327.321 46.0374 82.5025 
311.129 46.9135 81.6959 326.537 46.7065 82.1244 311.49 47.8192 81.4664 
325.608 47.3577 82.0019 324.623 47.9172 81.7983 325.487 47.5611 82.4199 
312.265 48.7548 81.6339 324.108 48.2487 81.9111 320.352 42.9272 82.882 
311.194 43.7211 83.3916 328.38 43.9483 83.6509 329.082 44.6582 83.7531 
329.027 45.0536 83.6994 329.43 44.8642 83.987 310.175 45.5243 83.2916 
309.824 45.5999 83.9428 328.775 45.4124 83.6043 310.165 45.9738 83.4287 
310.92 47.1022 83.0463 311.295 47.5046 83.0227 312.337 48.527 82.2351 
314.588 49.0874 82.6274 320.331 49.0862 82.6699 322.843 48.4374 83.1641 
309.124 43.2861 85.2985 329.582 43.1119 84.6685 330.734 43.8108 84.8883 
330.716 43.4885 84.9984 309.202 44.037 84.778 330.699 44.1273 84.8475 
330.985 43.9787 85.0868 329.859 44.9553 84.4121 309.6 45.5293 84.4084 
328.999 45.5992 83.9047 328.468 46.1997 84.0303 325.341 47.6402 83.7187 
309.064 44.1964 84.9481 328.8 46.1596 84.5178 329.382 45.8042 84.6989 
327.131 47.0103 84.1398 332.697 42.4364 86.984 332.717 43.1574 86.7368 
332.914 43.4533 86.9466 331.835 44.4578 86.3064 331.333 44.8458 86.0436 
312.051 46.6489 85.9576 328.107 46.4892 85.4823 329.752 45.7545 85.3457 
317.626 40.0545 86.7526 329.805 40.8363 87.1427 332.185 41.57 87.5719 
333.276 42.2849 87.6865 333.103 42.0537 87.7517 333.263 42.1452 87.9247 
333.406 42.4424 87.8941 333.391 42.9314 87.5238 333.484 42.8616 87.8348 
307.731 43.4454 87.5261 332.347 44.1029 86.6262 307.978 43.9219 87.6991 
332.595 44.2217 87.0883 308.38 44.3587 87.2972 308.803 44.8018 86.9338 
332.277 44.6043 87.4129 309.575 45.4301 86.6137 306.988 41.0147 88.7776 
307.44 40.6217 88.6589 331.083 40.8291 87.9135 307.049 42.0252 88.3203 
333.464 42.6176 88.2376 333.531 42.9402 88.1222 333.352 43.5378 87.6907 
307.955 43.8785 88.3528 333.35 43.662 87.9042 309.888 45.3692 87.2219 
331.65 44.8435 87.752 332.428 44.66 87.6989 332.288 44.6615 87.8116 
332.522 44.5813 87.752 332.751 44.2664 87.9112 332.468 44.6491 87.7996 
307.275 39.7416 89.5385 308.098 39.5786 89.2614 329.033 40.0066 88.1838 
330.232 40.0503 88.8639 331.561 40.6365 89.0741 306.161 41.3979 89.5619 
333.26 42.2897 88.5964 306.892 42.5858 88.7571 333.412 43.3535 88.367 
308.467 44.2483 88.4017 308.751 44.1814 89.0498 310.326 44.6075 89.1729 
329.242 45.0718 88.6487 333.181 43.886 87.9907 333.345 43.6223 88.1772 
332.202 44.4522 88.2554 332.484 44.5544 87.9125 304.927 39.9315 91.3625 
309.477 38.9745 89.4633 328.228 39.3065 89.2887 328.687 39.2131 89.9402 
331.033 40.2926 89.9612 305.394 40.5331 90.673 305.479 41.0433 90.5565 
332.4 41.6445 89.7078 305.936 41.5381 89.9152 332.673 41.8871 89.472 
332.824 42.2899 89.3985 305.984 41.8175 90.0368 333.307 42.839 88.7859 
332.923 43.291 89.0882 329.919 39.6681 90.5117 330.366 40.1387 91.0048 
305.002 40.5983 91.2191 305.449 41.4578 90.9775 332.1 42.0679 90.2739 
305.948 41.9328 90.4031 331.876 42.4116 90.4977 306.732 42.6314 90.6078 
331.194 43.3189 90.3615 331.682 43.0652 90.3393 324.971 37.411 91.7983 
325.351 37.3967 92.1383 303.572 38.1734 93.4799 304.233 37.8604 93.1678 
328.442 38.7914 92.0333 329.729 39.6219 91.2377 304.011 39.5809 92.6516 
304.884 40.767 91.5682 331.183 42.0258 91.0387 330.476 41.5901 91.6616 
331.572 42.8102 90.6483 304.731 37.286 93.3508 306.1 36.6501 93.4846 
326.214 37.5826 92.7051 326.75 37.7827 92.795 302.769 38.4152 94.2831 
327.633 38.2875 92.5552 303.039 38.7267 93.8476 303.149 39.1743 93.7857 
329.624 40.0534 92.2344 330.109 41.0854 92.0297 304.75 41.0233 92.8903 
330.078 41.5235 92.0032 329.88 41.2972 92.2373 331.438 42.7238 90.7789 
304.139 36.5719 94.3976 326.967 38.0047 93.4969 327.921 38.5627 92.9884 
327.786 38.6522 93.4217 328.323 38.993 93.0138 329.076 40.0325 92.8894 
328.709 40.1495 93.2754 303.774 40.1824 93.5712 327.641 41.8118 93.0593 
324.708 36.7817 94.8504 302.292 37.3955 95.2894 301.869 37.4172 95.8457 
302.651 36.5722 95.5095 327.524 38.8725 93.9531 303.71 40.2759 94.7825 
322.923 35.775 96.0063 301.855 36.1486 96.6567 324.515 36.7325 95.6587 
301.559 38.2144 96.4021 325.863 38.3194 95.4623 302.277 39.1988 95.8407 
302.647 39.5225 95.8473 303.655 40.2104 95.5321 301.13 35.5838 97.7192 
300.62 35.8812 98.0069 303.236 34.6951 97.2962 300.532 36.5612 97.9342 
325.006 37.4132 96.0193 301.791 38.6565 96.2584 325.379 38.8555 95.9501 
321.629 39.774 97.0271 326.155 39.5453 95.2291 325.594 39.3839 95.6367 
304.46 40.2241 96.7619 318.456 33.6977 97.822 320.466 34.4476 97.3514 
321.223 34.7288 97.7888 299.891 35.7212 98.8251 300.47 34.922 98.7259 
321.775 35.1359 97.5584 322.574 35.6325 97.3329 322.809 35.8942 97.5483 
323.148 36.3493 97.545 300.054 36.5058 98.5403 323.539 37.1627 97.5337 
323.638 39.111 96.98 301.991 39.0298 97.5681 320.202 34.134 98.4246 
319.757 33.8829 98.8714 320.243 34.1637 98.8888 321.191 34.7367 98.1134 
322.315 35.9383 98.5097 299.855 36.6829 98.9108 299.535 36.6573 99.5374 
322.781 36.4834 98.2221 322.556 36.6595 98.6083 301.114 38.2411 98.816 
320.471 34.4592 99.2701 298.699 34.7884 100.454 298.461 35.954 100.726 
321.413 35.8839 99.5703 298.757 36.0997 100.316 321.61 36.3905 99.4326 
322.663 37.6198 98.413 317.073 32.4287 101.049 298.029 33.5595 101.784 
297.45 33.8256 102.108 299.289 32.8634 101.61 318.886 33.5028 100.329 
319.636 34.6325 100.935 320.747 35.2452 99.9432 297.726 35.4409 101.675 
298.683 36.2932 100.584 298.886 36.6133 100.714 303.877 38.4394 100.733 
317.126 32.3849 102.223 310.913 31.6085 100.91 297.031 33.5037 102.574 
296.597 33.5872 102.931 318.294 33.6706 102.227 318.791 33.5615 101.072 
296.53 33.9258 102.907 296.581 34.3271 102.898 296.896 34.992 102.81 
319.121 34.5645 101.657 313 30.7168 103.232 316.641 32.1518 102.916 
317.094 32.4396 102.643 296.3 33.3131 103.353 318.693 34.1693 102.078 
296.174 34.6446 103.507 318.563 35.1922 102.298 298.014 36.2052 102.415 
298.556 36.5571 102.851 295.991 32.0779 104.439 295.146 33.3953 104.722 
317.301 33.1398 103.337 317.12 33.2472 103.661 317.398 33.4804 103.4 
318.318 34.712 102.615 296.44 35.2299 103.964 299.451 36.5207 104.271 
295.328 31.0658 105.89 296.765 31.3067 104.774 315.053 31.3735 104.356 
294.288 32.1667 105.694 294.02 31.8588 106.068 294.615 32.6837 105.302 
317.109 33.671 103.761 317.109 35.2637 103.365 317.646 35.0771 103.091 
312.805 29.9854 105.659 293.45 32.315 106.477 293.504 32.667 106.411 
294.317 33.6333 105.838 294.132 33.7344 106.299 316.016 34.3712 104.722 
297.435 29.8277 106.66 313.999 30.7408 106.107 293.116 31.5425 107.155 
314.382 31.2257 106.206 314.204 31.9517 107.098 312.875 34.9225 106.191 
313.923 34.3617 106.337 314.85 34.2963 105.726 294.097 34.171 107.535 
299.729 35.4972 107.035 312.986 30.2111 107.463 291.826 31.5973 108.517 
291.921 32.3122 108.435 292.673 33.2614 108.214 293.057 33.6156 108.21 
314.169 33.0676 107.023 293.384 33.8702 108.508 310.185 28.6777 108.483 
311.222 29.1778 108.4 311.731 29.6662 109.15 290.685 30.1804 110.152 
292.773 30.0394 108.72 312.448 30.2791 108.633 312.107 30.3883 109.388 
291.199 31.4419 109.251 291.306 32.0625 109.152 291.687 32.4152 108.814 
313.358 32.0316 108.114 312.912 32.8872 108.097 306.113 27.7188 109.385 
307.633 27.6321 109.938 309.999 28.3099 109.89 291.943 29.2813 110.158 
289.779 30.5384 110.799 290.035 30.965 110.461 312.419 31.0226 109.175 
290.327 31.8413 110.285 290.032 32.0282 110.845 312.43 31.7466 109.06 
290.931 32.4428 109.873 291.306 32.8256 109.8 291.222 33.0879 110.512 
292.367 33.5722 110.411 293.953 33.9697 110.112 289.42 29.688 111.584 
289 29.3581 112.262 290.209 29.4278 111.176 293.767 28.3488 110.742 
289.487 31.5938 111.246 300.817 33.618 111.266 310.734 31.9879 110.69 
290.699 32.9163 111.321 291.163 33.133 110.963 309.853 28.1376 111.446 
310.139 28.7218 112.254 288.008 30.0286 112.817 290.129 28.7449 112.129 
[...]
POINT_DATA 1136
COLOR_SCALARS scalars 3
0 0.623529 0.67451 0 0.623529 0.67451 0 0.623529 0.67451 
0 0.623529 0.67451 0 0.623529 0.67451 
0 0.623529 0.67451 0 0.623529 0.67451 
0 0.623529 0.67451 0 0.623529 0.67451 
0 0.623529 0.67451 0 0.623529 0.67451 
0 0.623529 0.67451 0 0.623529 0.67451 
0 0.623529 0.67451 0 0.623529 0.67451 
0 0.623529 0.67451 0 0.623529 0.67451 
0 0.623529 0.67451 0 0.623529 0.67451 
0 0.623529 0.67451 0 0.623529 0.67451 
0 0.623529 0.67451 0 0.623529 0.67451 
0 0.623529 0.67451 0 0.623529 0.67451 
0 0.623529 0.67451 0 0.623529 0.67451 
0 0.623529 0.67451 0 0.623529 0.67451 
0 0.623529 0.67451 0 0.623529 0.67451 
0 0.623529 0.67451 0 0.623529 0.67451 
0 0.623529 0.67451 0 0.623529 0.67451 
0 0.623529 0.67451 0 0.623529 0.67451 
0 0.623529 0.67451 0 0.623529 0.67451 
0 0.623529 0.67451 0 0.623529 0.67451 
0 0.623529 0.67451 0 0.623529 0.67451 
0 0.623529 0.67451 0 0.623529 0.67451 
0 0.623529 0.67451 0 0.623529 0.67451 
0 0.623529 0.67451 0 0.623529 0.67451 
0 0.623529 0.67451 0 0.623529 0.67451 
0 0.623529 0.67451 0 0.623529 0.67451 
0 0.623529 0.67451 0 0.623529 0.67451 
0 0.623529 0.67451 0 0.623529 0.67451 
0 0.623529 0.67451 0 0.623529 0.67451 
0 0.623529 0.67451 0 0.623529 0.67451 
0 0.623529 0.67451 0 0.623529 0.67451 
0 0.623529 0.67451 0 0.623529 0.67451 
0 0.623529 0.67451 0 0.623529 0.67451 
0 0.623529 0.67451 0 0.623529 0.67451 
0 0.623529 0.67451 0 0.623529 0.67451 
0 0.623529 0.67451 0 0.623529 0.67451 
0 0.623529 0.67451 0 0.623529 0.67451 
0 0.623529 0.67451 0 0.623529 0.67451 
0 0.623529 0.67451 0 0.623529 0.67451 
0 0.623529 0.67451 0 0.623529 0.67451 
0 0.623529 0.67451 0 0.623529 0.67451 
0 0.623529 0.67451 0 0.623529 0.67451 
0 0.623529 0.67451 0 0.623529 0.67451 
0 0.623529 0.67451 0 0.623529 0.67451 
0 0.623529 0.67451 0 0.623529 0.67451 
0 0.623529 0.67451 0 0.623529 0.67451 
0 0.623529 0.67451 0 0.623529 0.67451 
0 0.623529 0.67451 0 0.623529 0.67451 
0 0.623529 0.67451 0 0.623529 0.67451 
0 0.623529 0.67451 0 0.623529 0.67451 
0 0.623529 0.67451 0 0.623529 0.67451 
0 0.623529 0.67451 0 0.623529 0.67451 
0 0.623529 0.67451 0 0.623529 0.67451 
0 0.623529 0.67451 0 0.623529 0.67451 
0 0.623529 0.67451 0 0.623529 0.67451 
0 0.623529 0.67451 0 0.623529 0.67451 
0 0.623529 0.67451 0 0.623529 0.67451 
0 0.623529 0.67451 0 0.623529 0.67451 
0 0.623529 0.67451 0 0.623529 0.67451 
0 0.623529 0.67451 0 0.623529 0.67451 
0 0.623529 0.67451 0 0.623529 0.67451 
0 0.623529 0.67451 0 0.623529 0.67451 
0 0.623529 0.67451 0 0.623529 0.67451 
0 0.623529 0.67451 0 0.623529 0.67451 
0 0.623529 0.67451 0 0.623529 0.67451 
0 0.623529 0.67451 0 0.623529 0.67451 
0 0.623529 0.67451 0 0.623529 0.67451 
0 0.623529 0.67451 0 0.623529 0.67451 
0 0.623529 0.67451 0 0.623529 0.67451 
0 0.623529 0.67451 0 0.623529 0.67451 
0 0.623529 0.67451 0 0.623529 0.67451 
0 0.623529 0.67451 0 0.623529 0.67451 
0 0.623529 0.67451 0 0.623529 0.67451 
0 0.623529 0.67451 0 0.623529 0.67451 
0 0.623529 0.67451 0 0.623529 0.67451 
0 0.623529 0.67451 0 0.623529 0.67451 
0 0.623529 0.67451 0 0.623529 0.67451 
0 0.623529 0.67451 0 0.623529 0.67451 
0 0.623529 0.67451 0 0.623529 0.67451 
0 0.623529 0.67451 0 0.623529 0.67451 
0 0.623529 0.67451 0 0.623529 0.67451 
0 0.623529 0.67451 0 0.623529 0.67451 
0 0.623529 0.67451 0 0.623529 0.67451 
0 0.623529 0.67451 0 0.623529 0.67451 
0 0.623529 0.67451 0 0.623529 0.67451 
0 0.623529 0.67451 0 0.623529 0.67451 
0 0.623529 0.67451 0 0.623529 0.67451 
0 0.623529 0.67451 0 0.623529 0.67451 
0 0.623529 0.67451 0 0.623529 0.67451 
0 0.623529 0.67451 0 0.623529 0.67451 
0 0.623529 0.67451 0 0.623529 0.67451 
0 0.623529 0.67451 0 0.623529 0.67451 
0 0.623529 0.67451 0 0.623529 0.67451 
0 0.623529 0.67451 0 0.623529 0.67451 
0 0.623529 0.67451 0 0.623529 0.67451 
0 0.623529 0.67451 0 0.623529 0.67451 
0 0.623529 0.67451 0 0.623529 0.67451 
0 0.623529 0.67451 0 0.623529 0.67451 
0 0.623529 0.67451 0 0.623529 0.67451 
0 0.623529 0.67451 0 0.623529 0.67451 
0 0.623529 0.67451 0 0.623529 0.67451 
0 0.623529 0.67451 0 0.623529 0.67451 
0 0.623529 0.67451 0 0.623529 0.67451 
0 0.623529 0.67451 0 0.623529 0.67451 
0 0.623529 0.67451 0 0.623529 0.67451 
0 0.623529 0.67451 0 0.623529 0.67451 
0 0.623529 0.67451 0 0.623529 0.67451 
0 0.623529 0.67451 0 0.623529 0.67451 
0 0.623529 0.67451 0 0.623529 0.67451 
0 0.623529 0.67451 0 0.623529 0.67451 
0 0.623529 0.67451 0 0.623529 0.67451 
0 0.623529 0.67451 0 0.623529 0.67451 
0 0.623529 0.67451 0 0.623529 0.67451 
0 0.623529 0.67451 0 0.623529 0.67451 
0 0.623529 0.67451 0 0.623529 0.67451 
0 0.623529 0.67451 0 0.623529 0.67451 
0 0.623529 0.67451 0 0.623529 0.67451 
0 0.623529 0.67451 0 0.623529 0.67451 
0 0.623529 0.67451 0 0.623529 0.67451 
0 0.623529 0.67451 0 0.623529 0.67451 
0 0.623529 0.67451 0 0.623529 0.67451 
0 0.623529 0.67451 0 0.623529 0.67451 
0 0.623529 0.67451 0 0.623529 0.67451 
0 0.623529 0.67451 0 0.623529 0.67451 
0 0.623529 0.67451 0 0.623529 0.67451 
0 0.623529 0.67451 0 0.623529 0.67451 
0 0.623529 0.67451 0 0.623529 0.67451 
0 0.623529 0.67451 0 0.623529 0.67451 
0 0.623529 0.67451 0 0.623529 0.67451 
0 0.623529 0.67451 0 0.623529 0.67451 
0 0.623529 0.67451 0 0.623529 0.67451 
0 0.623529 0.67451 0 0.623529 0.67451 
0 0.623529 0.67451 0 0.623529 0.67451 
0 0.623529 0.67451 0 0.623529 0.67451 
0 0.623529 0.67451 0 0.623529 0.67451 
0 0.623529 0.67451 0 0.623529 0.67451 
0 0.623529 0.67451 0 0.623529 0.67451 
0 0.623529 0.67451 0 0.623529 0.67451 
0 0.623529 0.67451 0 0.623529 0.67451 
0 0.623529 0.67451 0 0.623529 0.67451 
0 0.623529 0.67451 0 0.623529 0.67451 
0 0.623529 0.67451 0 0.623529 0.67451 
0 0.623529 0.67451 0 0.623529 0.67451 
0 0.623529 0.67451 0 0.623529 0.67451 
0 0.623529 0.67451 0 0.623529 0.67451 
0 0.623529 0.67451 0 0.623529 0.67451 
0 0.623529 0.67451 0 0.623529 0.67451 
0 0.623529 0.67451 0 0.623529 0.67451 
0 0.623529 0.67451 0 0.623529 0.67451 
0 0.623529 0.67451 0 0.623529 0.67451 
0 0.623529 0.67451 0 0.623529 0.67451 
0 0.623529 0.67451 0 0.623529 0.67451 
0 0.623529 0.67451 0 0.623529 0.67451 
0 0.623529 0.67451 0 0.623529 0.67451 
0 0.623529 0.67451 0 0.623529 0.67451 
0 0.623529 0.67451 0 0.623529 0.67451 
0 0.623529 0.67451 0 0.623529 0.67451 
0 0.623529 0.67451 0 0.623529 0.67451 
0 0.623529 0.67451 0 0.623529 0.67451 
0 0.623529 0.67451 0 0.623529 0.67451 
0 0.623529 0.67451 0 0.623529 0.67451 
0 0.623529 0.67451 0 0.623529 0.67451 
0 0.623529 0.67451 0 0.623529 0.67451 
0 0.623529 0.67451 0 0.623529 0.67451 
0 0.623529 0.67451 0 0.623529 0.67451 
0 0.623529 0.67451 0 0.623529 0.67451 
0 0.623529 0.67451 0 0.623529 0.67451 
0 0.623529 0.67451 0 0.623529 0.67451 
0 0.623529 0.67451 0 0.623529 0.67451 
0 0.623529 0.67451 0 0.623529 0.67451 
0 0.623529 0.67451 0 0.623529 0.67451 
0 0.623529 0.67451 0 0.623529 0.67451 
0 0.623529 0.67451 0 0.623529 0.67451 
0 0.623529 0.67451 0 0.623529 0.67451 
0 0.623529 0.67451 0 0.623529 0.67451 
0 0.623529 0.67451 0 0.623529 0.67451 
0 0.623529 0.67451 0 0.623529 0.67451 
0 0.623529 0.67451 0 0.623529 0.67451 
0 0.623529 0.67451 0 0.623529 0.67451 
0 0.623529 0.67451 0 0.623529 0.67451 
0 0.623529 0.67451 0 0.623529 0.67451 
0 0.623529 0.67451 0 0.623529 0.67451 
0 0.623529 0.67451 0 0.623529 0.67451 
0 0.623529 0.67451 0 0.623529 0.67451 
0 0.623529 0.67451 0 0.623529 0.67451 
0 0.623529 0.67451 0 0.623529 0.67451 
0 0.623529 0.67451 0 0.623529 0.67451 
0 0.623529 0.67451 0 0.623529 0.67451 
0 0.623529 0.67451 0 0.623529 0.67451 
0 0.623529 0.67451 0 0.623529 0.67451 
0 0.623529 0.67451 0 0.623529 0.67451 
0 0.623529 0.67451 0 0.623529 0.67451 
0 0.623529 0.67451 0 0.623529 0.67451 
0 0.623529 0.67451 0 0.623529 0.67451 
0 0.623529 0.67451 0 0.623529 0.67451 
0 0.623529 0.67451 0 0.623529 0.67451 
0 0.623529 0.67451 0 0.623529 0.67451 
0 0.623529 0.67451 0 0.623529 0.67451 
0 0.623529 0.67451 0 0.623529 0.67451 
0 0.623529 0.67451 0 0.623529 0.67451 
0 0.623529 0.67451 0 0.623529 0.67451 
0 0.623529 0.67451 0 0.623529 0.67451 
0 0.623529 0.67451 0 0.623529 0.67451 
0 0.623529 0.67451 0 0.623529 0.67451 
0 0.623529 0.67451 0 0.623529 0.67451 
0 0.623529 0.67451 0 0.623529 0.67451 
0 0.623529 0.67451 0 0.623529 0.67451 
0 0.623529 0.67451 0 0.623529 0.67451 
0 0.623529 0.67451 0 0.623529 0.67451 
0 0.623529 0.67451 0 0.623529 0.67451 
0 0.623529 0.67451 0 0.623529 0.67451 
0 0.623529 0.67451 0 0.623529 0.67451 
0 0.623529 0.67451 0 0.623529 0.67451 
0 0.623529 0.67451 0 0.623529 0.67451 
0 0.623529 0.67451 0 0.623529 0.67451 
0 0.623529 0.67451 0 0.623529 0.67451 
0 0.623529 0.67451 0 0.623529 0.67451 
0 0.623529 0.67451 0 0.623529 0.67451 
0 0.623529 0.67451 0 0.623529 0.67451 
0 0.623529 0.67451 0 0.623529 0.67451 
0 0.623529 0.67451 0 0.623529 0.67451 
0 0.623529 0.67451 0 0.623529 0.67451 
0 0.623529 0.67451 0 0.623529 0.67451 
0 0.623529 0.67451 0 0.623529 0.67451 
0 0.623529 0.67451 0 0.623529 0.67451 
0 0.623529 0.67451 0 0.623529 0.67451 
0 0.623529 0.67451 0 0.623529 0.67451 
0 0.623529 0.67451 0 0.623529 0.67451 
0 0.623529 0.67451 0 0.623529 0.67451 
0 0.623529 0.67451 0 0.623529 0.67451 
0 0.623529 0.67451 0 0.623529 0.67451 
0 0.623529 0.67451 0 0.623529 0.67451 
0 0.623529 0.67451 0 0.623529 0.67451 
0 0.623529 0.67451 0 0.623529 0.67451 
0 0.623529 0.67451 0 0.623529 0.67451 
0 0.623529 0.67451 0 0.623529 0.67451 
0 0.623529 0.67451 0 0.623529 0.67451 
0 0.623529 0.67451 0 0.623529 0.67451 
0 0.623529 0.67451 0 0.623529 0.67451 
0 0.623529 0.67451 0 0.623529 0.67451 
0 0.623529 0.67451 0 0.623529 0.67451 
0 0.623529 0.67451 0 0.623529 0.67451 
0 0.623529 0.67451 0 0.623529 0.67451 
0 0.623529 0.67451 0 0.623529 0.67451 
0 0.623529 0.67451 0 0.623529 0.67451 
0 0.623529 0.67451 0 0.623529 0.67451 
0 0.623529 0.67451 0 0.623529 0.67451 
0 0.623529 0.67451 0 0.623529 0.67451 
0 0.623529 0.67451 0 0.623529 0.67451 
0 0.623529 0.67451 0 0.623529 0.67451 
0 0.623529 0.67451 0 0.623529 0.67451 
0 0.623529 0.67451 0 0.623529 0.67451 
0 0.623529 0.67451 0 0.623529 0.67451 
0 0.623529 0.67451 0 0.623529 0.67451 
0 0.623529 0.67451 0 0.623529 0.67451 
0 0.623529 0.67451 0 0.623529 0.67451 
0 0.623529 0.67451 0 0.623529 0.67451 
0 0.623529 0.67451 0 0.623529 0.67451 
0 0.623529 0.67451 0 0.623529 0.67451 
0 0.623529 0.67451 0 0.623529 0.67451 
0 0.623529 0.67451 0 0.623529 0.67451 
0 0.623529 0.67451 0 0.623529 0.67451 
0 0.623529 0.67451 0 0.623529 0.67451 
0 0.623529 0.67451 0 0.623529 0.67451 
0 0.623529 0.67451 0 0.623529 0.67451 
0 0.623529 0.67451 0 0.623529 0.67451 
0 0.623529 0.67451 0 0.623529 0.67451 
0 0.623529 0.67451 0 0.623529 0.67451 
0 0.623529 0.67451 0 0.623529 0.67451 
0 0.623529 0.67451 0 0.623529 0.67451 
0 0.623529 0.67451 0 0.623529 0.67451 
0 0.623529 0.67451 0 0.623529 0.67451 
0 0.623529 0.67451 0 0.623529 0.67451 
0 0.623529 0.67451 0 0.623529 0.67451 
0 0.623529 0.67451 0 0.623529 0.67451 
0 0.623529 0.67451 0 0.623529 0.67451 
0 0.623529 0.67451 0 0.623529 0.67451 
0 0.623529 0.67451 0 0.623529 0.67451 
0 0.623529 0.67451 0 0.623529 0.67451 
0 0.623529 0.67451 0 0.623529 0.67451 
0 0.623529 0.67451 0 0.623529 0.67451 
0 0.623529 0.67451 0 0.623529 0.67451 
0 0.623529 0.67451 0 0.623529 0.67451 
0 0.623529 0.67451 0 0.623529 0.67451 
0 0.623529 0.67451 0 0.623529 0.67451 
0 0.623529 0.67451 0 0.623529 0.67451 
0 0.623529 0.67451 0 0.623529 0.67451 
0 0.623529 0.67451 0 0.623529 0.67451 
0 0.623529 0.67451 0 0.623529 0.67451 
0 0.623529 0.67451 0 0.623529 0.67451 
0 0.623529 0.67451 0 0.623529 0.67451 
0 0.623529 0.67451 0 0.623529 0.67451 
0 0.623529 0.67451 0 0.623529 0.67451 
0 0.623529 0.67451 0 0.623529 0.67451 
0 0.623529 0.67451 0 0.623529 0.67451 
0 0.623529 0.67451 0 0.623529 0.67451 
0 0.623529 0.67451 0 0.623529 0.67451 
0 0.623529 0.67451 0 0.623529 0.67451 
0 0.623529 0.67451 0 0.623529 0.67451 
0 0.623529 0.67451 0 0.623529 0.67451 
0 0.623529 0.67451 0 0.623529 0.67451 
0 0.623529 0.67451 0 0.623529 0.67451 
0 0.623529 0.67451 0 0.623529 0.67451 
0 0.623529 0.67451 0 0.623529 0.67451 
0 0.623529 0.67451 0 0.623529 0.67451 
0 0.623529 0.67451 0 0.623529 0.67451 
0 0.623529 0.67451 0 0.623529 0.67451 
0 0.623529 0.67451 0 0.623529 0.67451 
0 0.623529 0.67451 0 0.623529 0.67451 
0 0.623529 0.67451 0 0.623529 0.67451 
0 0.623529 0.67451 0 0.623529 0.67451 
0 0.623529 0.67451 0 0.623529 0.67451 
0 0.623529 0.67451 0 0.623529 0.67451 
0 0.623529 0.67451 0 0.623529 0.67451 
0 0.623529 0.67451 0 0.623529 0.67451 
0 0.623529 0.67451 0 0.623529 0.67451 
0 0.623529 0.67451 0 0.623529 0.67451 
0 0.623529 0.67451 0 0.623529 0.67451 
0 0.623529 0.67451 0 0.623529 0.67451 
0 0.623529 0.67451 0 0.623529 0.67451 
0 0.623529 0.67451 0 0.623529 0.67451 
0 0.623529 0.67451 0 0.623529 0.67451 
0 0.623529 0.67451 0 0.623529 0.67451 
0 0.623529 0.67451 0 0.623529 0.67451 
0 0.623529 0.67451 0 0.623529 0.67451 
0 0.623529 0.67451 0 0.623529 0.67451 
0 0.623529 0.67451 0 0.623529 0.67451 
0 0.623529 0.67451 0 0.623529 0.67451 
0 0.623529 0.67451 0 0.623529 0.67451 
0 0.623529 0.67451 0 0.623529 0.67451 
0 0.623529 0.67451 0 0.623529 0.67451 
0 0.623529 0.67451 0 0.623529 0.67451 
0 0.623529 0.67451 0 0.623529 0.67451 
0 0.623529 0.67451 0 0.623529 0.67451 
0 0.623529 0.67451 0 0.623529 0.67451 
0 0.623529 0.67451 0 0.623529 0.67451 
0 0.623529 0.67451 0 0.623529 0.67451 
0 0.623529 0.67451 0 0.623529 0.67451 
0 0.623529 0.67451 0 0.623529 0.67451 
0 0.623529 0.67451 0 0.623529 0.67451 
0 0.623529 0.67451 0 0.623529 0.67451 
0 0.623529 0.67451 0 0.623529 0.67451 
0 0.623529 0.67451 0 0.623529 0.67451 
0 0.623529 0.67451 0 0.623529 0.67451 
0 0.623529 0.67451 0 0.623529 0.67451 
0 0.623529 0.67451 0 0.623529 0.67451 
0 0.623529 0.67451 0 0.623529 0.67451 
0 0.623529 0.67451 0 0.623529 0.67451 
0 0.623529 0.67451 0 0.623529 0.67451 
0 0.623529 0.67451 0 0.623529 0.67451 
0 0.623529 0.67451 0 0.623529 0.67451 
0 0.623529 0.67451 0 0.623529 0.67451 
0 0.623529 0.67451 0 0.623529 0.67451 
0 0.623529 0.67451 0 0.623529 0.67451 
0 0.623529 0.67451 0 0.623529 0.67451 
0 0.623529 0.67451 0 0.623529 0.67451 
0 0.623529 0.67451 0 0.623529 0.67451 
0 0.623529 0.67451 0 0.623529 0.67451 
0 0.623529 0.67451 0 0.623529 0.67451 
0 0.623529 0.67451 0 0.623529 0.67451 
0 0.623529 0.67451 0 0.623529 0.67451 
0 0.623529 0.67451 0 0.623529 0.67451 
0 0.623529 0.67451 0 0.623529 0.67451 
0 0.623529 0.67451 0 0.623529 0.67451 
0 0.623529 0.67451 0 0.623529 0.67451 
0 0.623529 0.67451 0 0.623529 0.67451 
0 0.623529 0.67451 0 0.623529 0.67451 
0 0.623529 0.67451 0 0.623529 0.67451 
0 0.623529 0.67451 0 0.623529 0.67451 
0 0.623529 0.67451 0 0.623529 0.67451 
0 0.623529 0.67451 0 0.623529 0.67451 
0 0.623529 0.67451 0 0.623529 0.67451 
0 0.623529 0.67451 0 0.623529 0.67451 
0 0.623529 0.67451 0 0.623529 0.67451 
0 0.623529 0.67451 0 0.623529 0.67451 
0 0.623529 0.67451 0 0.623529 0.67451 
0 0.623529 0.67451 0 0.623529 0.67451 
0 0.623529 0.67451 0 0.623529 0.67451 
0 0.623529 0.67451 0 0.623529 0.67451 
0 0.623529 0.67451 0 0.623529 0.67451 
0 0.623529 0.67451 0 0.623529 0.67451 
0 0.623529 0.67451 0 0.623529 0.67451 
0 0.623529 0.67451 0 0.623529 0.67451 
0 0.623529 0.67451 0 0.623529 0.67451 
0 0.623529 0.67451 0 0.623529 0.67451 
0 0.623529 0.67451 0 0.623529 0.67451 
0 0.623529 0.67451 0 0.623529 0.67451 
0 0.623529 0.67451 0 0.623529 0.67451 
0 0.623529 0.67451 0 0.623529 0.67451 
0 0.623529 0.67451 0 0.623529 0.67451 
0 0.623529 0.67451 0 0.623529 0.67451 
0 0.623529 0.67451 0 0.623529 0.67451 
0 0.623529 0.67451 0 0.623529 0.67451 
0 0.623529 0.67451 0 0.623529 0.67451 
0 0.623529 0.67451 0 0.623529 0.67451 
0 0.623529 0.67451 0 0.623529 0.67451 
0 0.623529 0.67451 0 0.623529 0.67451 
0 0.623529 0.67451 0 0.623529 0.67451 
0 0.623529 0.67451 0 0.623529 0.67451 
0 0.623529 0.67451 0 0.623529 0.67451 
0 0.623529 0.67451 0 0.623529 0.67451 
0 0.623529 0.67451 0 0.623529 0.67451 
0 0.623529 0.67451 0 0.623529 0.67451 
0 0.623529 0.67451 0 0.623529 0.67451 
0 0.623529 0.67451 0 0.623529 0.67451 
0 0.623529 0.67451 0 0.623529 0.67451 
0 0.623529 0.67451 0 0.623529 0.67451 
0 0.623529 0.67451 0 0.623529 0.67451 
0 0.623529 0.67451 0 0.623529 0.67451 
0 0.623529 0.67451 0 0.623529 0.67451 
0 0.623529 0.67451 0 0.623529 0.67451 
0 0.623529 0.67451 0 0.623529 0.67451 
0 0.623529 0.67451 0 0.623529 0.67451 
0 0.623529 0.67451 0 0.623529 0.67451 
0 0.623529 0.67451 0 0.623529 0.67451 
0 0.623529 0.67451 0 0.623529 0.67451 
0 0.623529 0.67451 0 0.623529 0.67451 
0 0.623529 0.67451 0 0.623529 0.67451 
0 0.623529 0.67451 0 0.623529 0.67451 
0 0.623529 0.67451 0 0.623529 0.67451 
0 0.623529 0.67451 0 0.623529 0.67451 
0 0.623529 0.67451 0 0.623529 0.67451 
0 0.623529 0.67451 0 0.623529 0.67451 
0 0.623529 0.67451 0 0.623529 0.67451 
0 0.623529 0.67451 0 0.623529 0.67451 
0 0.623529 0.67451 0 0.623529 0.67451 
0 0.623529 0.67451 0 0.623529 0.67451 
0 0.623529 0.67451 0 0.623529 0.67451 
0 0.623529 0.67451 0 0.623529 0.67451 
0 0.623529 0.67451 0 0.623529 0.67451 
0 0.623529 0.67451 0 0.623529 0.67451 
0 0.623529 0.67451 0 0.623529 0.67451 
0 0.623529 0.67451 0 0.623529 0.67451 
0 0.623529 0.67451 0 0.623529 0.67451 
0 0.623529 0.67451 0 0.623529 0.67451 
0 0.623529 0.67451 0 0.623529 0.67451 
0 0.623529 0.67451 0 0.623529 0.67451 
0 0.623529 0.67451 0 0.623529 0.67451 
0 0.623529 0.67451 0 0.623529 0.67451 
0 0.623529 0.67451 0 0.623529 0.67451 
0 0.623529 0.67451 0 0.623529 0.67451 
0 0.623529 0.67451 0 0.623529 0.67451 
0 0.623529 0.67451 0 0.623529 0.67451 
0 0.623529 0.67451 0 0.623529 0.67451 
0 0.623529 0.67451 0 0.623529 0.67451 
0 0.623529 0.67451 0 0.623529 0.67451 
0 0.623529 0.67451 0 0.623529 0.67451 
0 0.623529 0.67451 0 0.623529 0.67451 
0 0.623529 0.67451 0 0.623529 0.67451 
0 0.623529 0.67451 0 0.623529 0.67451 
0 0.623529 0.67451 0 0.623529 0.67451 
0 0.623529 0.67451 0 0.623529 0.67451 
0 0.623529 0.67451 0 0.623529 0.67451 
0 0.623529 0.67451 0 0.623529 0.67451 
0 0.623529 0.67451 0 0.623529 0.67451 
0 0.623529 0.67451 0 0.623529 0.67451 
0 0.623529 0.67451 0 0.623529 0.67451 
0 0.623529 0.67451 0 0.623529 0.67451 
0 0.623529 0.67451 0 0.623529 0.67451 
0 0.623529 0.67451 0 0.623529 0.67451 
0 0.623529 0.67451 0 0.623529 0.67451 
0 0.623529 0.67451 0 0.623529 0.67451 
0 0.623529 0.67451 0 0.623529 0.67451 
0 0.623529 0.67451 0 0.623529 0.67451 
0 0.623529 0.67451 0 0.623529 0.67451 
0 0.623529 0.67451 0 0.623529 0.67451 
0 0.623529 0.67451 0 0.623529 0.67451 
0 0.623529 0.67451 0 0.623529 0.67451 
0 0.623529 0.67451 0 0.623529 0.67451 
0 0.623529 0.67451 0 0.623529 0.67451 
0 0.623529 0.67451 0 0.623529 0.67451 
0 0.623529 0.67451 0 0.623529 0.67451 
0 0.623529 0.67451 0 0.623529 0.67451 
0 0.623529 0.67451 0 0.623529 0.67451 
0 0.623529 0.67451 0 0.623529 0.67451 
0 0.623529 0.67451 0 0.623529 0.67451 
0 0.623529 0.67451 0 0.623529 0.67451 
0 0.623529 0.67451 0 0.623529 0.67451 
0 0.623529 0.67451 0 0.623529 0.67451 
0 0.623529 0.67451 0 0.623529 0.67451 
0 0.623529 0.67451 0 0.623529 0.67451 
0 0.623529 0.67451 0 0.623529 0.67451 
0 0.623529 0.67451 0 0.623529 0.67451 
0 0.623529 0.67451 0 0.623529 0.67451 
0 0.623529 0.67451 0 0.623529 0.67451 
0 0.623529 0.67451 0 0.623529 0.67451 
0 0.623529 0.67451 0 0.623529 0.67451 
0 0.623529 0.67451 0 0.623529 0.67451 
0 0.623529 0.67451 0 0.623529 0.67451 
0 0.623529 0.67451 0 0.623529 0.67451 
0 0.623529 0.67451 0 0.623529 0.67451 
0 0.623529 0.67451 0 0.623529 0.67451 
0 0.623529 0.67451 0 0.623529 0.67451 
0 0.623529 0.67451 0 0.623529 0.67451 
0 0.623529 0.67451 0 0.623529 0.67451 
0 0.623529 0.67451 0 0.623529 0.67451 
0 0.623529 0.67451 0 0.623529 0.67451 
0 0.623529 0.67451 0 0.623529 0.67451 
0 0.623529 0.67451 0 0.623529 0.67451 
0 0.623529 0.67451 0 0.623529 0.67451 
0 0.623529 0.67451 0 0.623529 0.67451 
0 0.623529 0.67451 0 0.623529 0.67451 
0 0.623529 0.67451 0 0.623529 0.67451 
0 0.623529 0.67451 0 0.623529 0.67451 
0 0.623529 0.67451 0 0.623529 0.67451 
0 0.623529 0.67451 0 0.623529 0.67451 
0 0.623529 0.67451 0 0.623529 0.67451 
0 0.623529 0.67451 0 0.623529 0.67451 
0 0.623529 0.67451 0 0.623529 0.67451 
0 0.623529 0.67451 0 0.623529 0.67451 
0 0.623529 0.67451 0 0.623529 0.67451 