# vtk DataFile Version 4.2
vtk output
ASCII
DATASET POLYDATA
POINTS 515 float
277.934 269.296 195.318 275.132 270.072 195.213 280.068 270.594 195.221 
281.092 270.878 195.385 281.7 271.716 195.435 274.989 273.024 195.208 
273.697 267.592 195.928 283.943 272.491 196.253 283.902 273.421 196.195 
272.616 274.993 196.16 281.637 274.485 195.607 281.034 266.046 197.614 
285.685 270.202 197.792 285.135 274.717 196.778 286.483 274.7 197.462 
283.737 276.621 196.719 274.796 278.024 197.364 275.071 263.324 198.086 
284.991 268.709 198.003 267.14 272.793 197.534 288.122 272.91 198.88 
268.017 274.477 197.608 287.707 276.553 198.599 287.018 277.605 198.447 
273.273 278.535 198.071 275.01 279.218 198.326 276.361 262.268 199.196 
264.903 264.444 198.998 289.064 275.698 199.658 276.605 279.828 198.73 
274.261 280.172 199.58 285.169 280.143 199.476 262.375 268.879 199.494 
287.742 270.031 199.764 289.405 277.707 200.373 269.263 278.958 200.196 
288.689 278.79 200.122 262.666 262.12 200.771 279.458 261.933 200.783 
260.891 265.009 200.545 259.249 268.194 201.246 289.291 271.126 201.09 
289.672 272.474 200.843 290.573 274.427 201.586 263.267 275.647 201.394 
290.659 277.231 202.048 272.879 280.955 201.278 279.98 281.181 200.268 
282.944 281.643 201.16 283.388 281.832 201.606 286.719 281.16 201.285 
266.206 259.198 201.722 258.32 264.396 202.346 285.621 265.598 201.675 
265.765 277.976 201.614 257.848 262.046 203.746 257.552 268.983 202.665 
257.557 271.43 203.261 288.177 280.995 202.307 289.258 280.329 202.955 
287.487 281.488 203.099 275.423 257.691 204.133 278.659 259.345 203.753 
256.348 265.492 203.997 255.796 268.142 204.373 256.394 270.24 203.99 
291.571 273.838 204.167 291.666 275.012 203.911 291.479 277.253 204.287 
289.354 280.42 203.947 277.531 282.465 204.212 265.486 256.208 205.009 
261.497 257.542 205.165 283.466 261.894 204.939 255.411 264.704 205.386 
289.774 269.555 204.078 260.828 276.859 204.825 289.907 279.966 204.546 
284.306 282.72 204.951 256.506 261.82 205.68 254.213 266.316 206.804 
254.428 269.38 206.489 256.292 272.952 205.508 291.872 274.31 205.931 
277.19 282.56 205.993 280.362 282.769 205.883 285.435 282.474 205.375 
279.039 257.969 206.551 254.334 265.035 207.186 253.628 268.899 207.914 
257.315 274.96 206.288 262.998 279.308 206.672 290.323 279.223 207.144 
269.569 281.816 206.901 266.657 254 208.225 270.675 253.843 208.467 
254.329 264.063 208.17 288.866 267.013 207.814 291.323 277.464 207.368 
287.58 281.271 207.271 277.77 282.453 207.705 272.941 253.852 209.463 
253.396 266.118 209.003 252.982 269.291 210.083 254.351 272.489 208.54 
291.389 276.619 208.083 285.272 281.786 208.37 260.953 255.458 210.078 
257.677 258.353 209.822 285.118 262.023 209.52 254.017 263.815 210.123 
288.881 267.06 209.504 291.488 274.121 208.741 256.114 275.885 209.951 
289.915 278.116 209.72 267.599 281.38 210.033 273.482 282.116 209.569 
266.38 252.626 211.852 277.537 255.491 210.647 253.352 271.753 211.117 
254.149 273.322 210.49 259.927 279.147 211.218 288.458 278.508 211.079 
287.68 279.087 211.064 273.802 253.324 211.689 262.62 254.071 211.506 
275.33 253.907 212.037 280.092 257.019 212.006 256.119 260.172 212.288 
253.941 273.483 212.203 288.959 277.147 211.766 286.016 279.181 212.069 
277.551 255.105 212.267 259.657 256.188 212.819 255.057 261.843 212.605 
283.947 260.59 212.671 253.192 266.028 212.254 289.697 270.319 212.25 
256.493 277.003 213.081 287.169 277.645 212.922 284.288 279.004 213.211 
260.54 279.602 213.018 262.472 280.125 213.306 266.764 280.859 212.795 
267.694 251.95 214.853 262.622 253.858 214.389 253.173 271.396 214.034 
289.117 272.477 213.505 288.942 273.565 213.534 288.512 274.664 213.716 
254.469 274.472 213.836 270.225 280.988 213.068 276.643 254.345 214.88 
257.451 259.367 215.476 256.087 261.249 215.222 287.918 267.191 214.127 
254.684 274.507 215.035 256.546 276.948 214.744 270.508 251.992 215.653 
253.29 270.289 215.02 253.467 271.51 215.218 286.835 274.076 215.779 
259.111 278.503 215.784 260.879 279.301 215.684 268.891 279.745 215.759 
271.668 279.567 215.793 263.398 279.811 215.333 267.327 252.129 216.885 
278.564 255.788 216.188 259.268 257.973 217.207 254.077 267.142 216.141 
286.976 266.794 215.909 253.802 268.954 216.054 255.613 275.133 216.685 
277.495 278.114 216.73 257.567 277.316 216.489 267.189 279.151 216.8 
262.21 279.454 215.914 263.959 279.568 215.995 266.196 252.471 217.307 
271.692 252.469 217.482 275.712 254.162 217.838 281.417 258.995 217.708 
257.118 261.315 217.361 283.166 261.091 217.745 256.176 263.62 217.645 
286.039 271.385 217.668 284.091 274.446 217.754 256.447 275.715 217.381 
257.466 276.827 217.287 268.737 252.328 218.039 273.846 253.311 218.135 
263.435 254.387 218.584 259.229 259.533 218.751 284.614 263.985 218.256 
255.92 267.183 218.676 255.318 271.48 218.045 255.637 273.361 217.884 
257.178 275.499 218.325 258.193 276.424 218.252 267.211 277.267 218.994 
260.064 277.591 217.855 265.589 253.636 219.416 274.323 254.216 219.489 
276.712 255.235 218.962 257.088 265.729 219.436 256.944 270.042 219.683 
284.29 271.995 219.105 259.675 275.722 219.412 266.067 254.261 220.346 
270.211 253.883 220.513 271.904 254.028 220.437 272.391 254.351 220.661 
276.524 255.847 220.058 262 258.59 220.772 281.218 261.27 220.778 
259.423 264.689 220.912 258.262 270.229 220.514 282.143 271.727 220.731 
259.306 272.427 220.692 280.533 272.513 220.943 260.824 273.867 220.703 
263.448 274.21 220.945 267.448 254.448 220.948 269.442 254.958 221.551 
264.265 256.085 220.95 277.142 257.606 221.321 278.499 258.262 220.892 
261.339 261.796 221.424 282.717 264.914 221.117 282.428 267.921 221.543 
261.07 269.734 221.792 281.154 270.158 221.792 262.424 271.458 221.853 
275.948 272.833 221.787 266.755 273.661 221.424 272.322 255.61 221.79 
269.075 256.199 222.306 272.18 256.259 222.278 266.078 257.373 222.238 
269.622 256.886 222.685 277.27 259.094 222.24 279.141 261.482 222.38 
280.1 263.368 222.444 261.708 266.763 222.121 280.035 267.203 222.787 
278.814 269.457 222.74 271.476 257.752 223.026 272.426 257.548 222.87 
267.733 259.798 223.288 273.157 260.206 223.519 277.856 260.969 222.765 
268.335 262.345 223.604 273.945 263.938 223.791 277.69 263.704 223.324 
268.985 268.823 223.225 268.897 258.069 232.121 272.754 257.315 232.475 
274.47 258.64 232.237 267.161 259.623 232.018 272.418 259.498 231.696 
276.889 260.324 232.335 273.986 263.012 231.323 277.708 262.865 231.976 
270.166 264.083 231.347 266.731 265.534 231.864 277.457 264.695 231.713 
278.884 267.384 232.146 269.075 255.441 233.405 273.454 255.714 233.667 
274.513 257.383 232.904 276.387 257.425 233.655 264.884 260.1 232.573 
280.774 262.669 233.57 281.276 265.761 233.213 278.574 270.237 232.719 
267.765 271.424 232.96 274.993 272.115 233.13 271.538 254.275 234.5 
263.66 256.824 234.247 261.429 260.581 234.094 283.112 264.988 234.742 
259.976 270.435 234.153 261.77 272.264 234.028 269.055 253.304 235.75 
264.443 254.917 235.211 276.601 255.722 235.562 262.125 256.789 235.412 
281.788 261.257 235.192 258.576 265.122 234.946 257.822 268.22 235.09 
283.623 268.199 234.879 257.302 271.242 235.515 283.391 272.069 235.623 
258.049 273.074 235.468 259.501 274.551 235.455 263.004 275.153 235.09 
273.211 253.544 236.132 261.89 256.073 236.308 281.591 260.029 236.245 
256.13 269.706 236.327 285.217 269.556 236.479 281.621 274.072 235.949 
257.711 274.837 236.422 275.859 275.256 235.413 265.321 276.59 235.875 
271.241 276.478 235.974 269.464 252.533 237.1 265.217 253.348 237.202 
275.361 254.132 237.174 261.201 255.868 237.467 279.56 257.677 236.559 
285.593 272.062 237.392 256.284 272.845 236.63 256.053 274.738 237.654 
257.325 276.403 237.885 266.759 252.478 238.096 269.127 252.087 238.513 
271.768 252.479 237.919 255.562 264.411 238.103 254.536 268.05 238.236 
257.773 277.474 238.943 263.964 279.117 238.531 271.914 252.304 239.357 
263.311 253.726 238.713 274.597 253.394 238.459 287.506 271.546 239.395 
287.01 272.453 238.954 254.575 273.846 239.53 256.385 276.621 239.767 
269.368 279.476 239.117 274.669 253.275 240.123 278.968 256.108 239.572 
286.822 265.842 239.996 253.45 267.707 240.276 253.402 269.299 240.184 
287.037 275.183 240.254 283.719 277.314 239.858 258.986 278.72 240.52 
267.604 280.239 240.349 261.958 254.264 241.003 276.708 254.425 241.004 
257.939 258.066 241.392 255.506 261.523 241.195 284.826 261.956 240.834 
254.527 274.59 241.144 287.951 275.144 241.043 285.526 276.817 240.406 
270.431 252.054 241.063 265.536 252.562 242.008 280.31 257.109 242.258 
282.931 259.609 241.694 252.892 269.725 242.431 253.038 271.137 242.831 
289.632 271.463 242.559 288.742 274.501 241.624 287.042 276.933 241.604 
261.893 280.072 242.413 266.979 280.811 241.887 266.275 252.346 242.064 
266.916 252.261 242.266 268.553 252.126 242.233 263.422 253.411 242.673 
278.726 255.846 242.4 254.182 263.358 243.299 253.33 265.439 243.258 
253.787 273.248 243.514 288.94 277.554 243.77 265.909 281.052 243.585 
272.373 281.453 243.262 273.705 253.182 243.291 275.2 253.844 243.413 
277.026 255.031 244.308 253.338 272.154 244.124 290.595 273.95 244.49 
256.533 276.934 243.677 285.273 262.173 245.048 252.879 267.676 244.338 
255.47 275.245 245.554 259.703 278.957 244.831 283.605 281.039 244.574 
269.834 281.918 245.653 265.023 253.352 245.043 265.65 253.264 245.219 
288.432 266.414 246.05 253.444 271.79 245.427 290.767 276.86 246.047 
288.966 279.089 245.427 286.38 280.86 245.672 283.758 281.738 245.929 
265.098 253.92 246.452 272.337 254.018 246.74 261.584 255.506 246.83 
257.991 258.246 246.432 255.148 262.2 247.044 286.704 264.142 247.244 
253.29 267.081 246.371 290.536 270.197 247.321 253.375 270.588 246.398 
291.639 273.488 247.683 255.522 274.68 246.924 291.619 275.192 247.372 
290.343 278.271 246.752 262.851 279.826 247.312 267.238 281.42 246.962 
287.581 281.02 246.988 268.316 254.25 247.894 274.33 255.043 247.568 
259.711 257.255 247.97 254.15 264.961 247.728 281.557 259.634 248.632 
[...]
POINT_DATA 515
COLOR_SCALARS scalars 3
1 0.298039 0.243137 1 0.298039 0.243137 1 0.298039 0.243137 
1 0.298039 0.243137 1 0.298039 0.243137 
1 0.298039 0.243137 1 0.298039 0.243137 
1 0.298039 0.243137 1 0.298039 0.243137 
1 0.298039 0.243137 1 0.298039 0.243137 
1 0.298039 0.243137 1 0.298039 0.243137 
1 0.298039 0.243137 1 0.298039 0.243137 
1 0.298039 0.243137 1 0.298039 0.243137 
1 0.298039 0.243137 1 0.298039 0.243137 
1 0.298039 0.243137 1 0.298039 0.243137 
1 0.298039 0.243137 1 0.298039 0.243137 
1 0.298039 0.243137 1 0.298039 0.243137 
1 0.298039 0.243137 1 0.298039 0.243137 
1 0.298039 0.243137 1 0.298039 0.243137 
1 0.298039 0.243137 1 0.298039 0.243137 
1 0.298039 0.243137 1 0.298039 0.243137 
1 0.298039 0.243137 1 0.298039 0.243137 
1 0.298039 0.243137 1 0.298039 0.243137 
1 0.298039 0.243137 1 0.298039 0.243137 
1 0.298039 0.243137 1 0.298039 0.243137 
1 0.298039 0.243137 1 0.298039 0.243137 
1 0.298039 0.243137 1 0.298039 0.243137 
1 0.298039 0.243137 1 0.298039 0.243137 
1 0.298039 0.243137 1 0.298039 0.243137 
1 0.298039 0.243137 1 0.298039 0.243137 
1 0.298039 0.243137 1 0.298039 0.243137 
1 0.298039 0.243137 1 0.298039 0.243137 
1 0.298039 0.243137 1 0.298039 0.243137 
1 0.298039 0.243137 1 0.298039 0.243137 
1 0.298039 0.243137 1 0.298039 0.243137 
1 0.298039 0.243137 1 0.298039 0.243137 
1 0.298039 0.243137 1 0.298039 0.243137 
1 0.298039 0.243137 1 0.298039 0.243137 
1 0.298039 0.243137 1 0.298039 0.243137 
1 0.298039 0.243137 1 0.298039 0.243137 
1 0.298039 0.243137 1 0.298039 0.243137 
1 0.298039 0.243137 1 0.298039 0.243137 
1 0.298039 0.243137 1 0.298039 0.243137 
1 0.298039 0.243137 1 0.298039 0.243137 
1 0.298039 0.243137 1 0.298039 0.243137 
1 0.298039 0.243137 1 0.298039 0.243137 
1 0.298039 0.243137 1 0.298039 0.243137 
1 0.298039 0.243137 1 0.298039 0.243137 
1 0.298039 0.243137 1 0.298039 0.243137 
1 0.298039 0.243137 1 0.298039 0.243137 
1 0.298039 0.243137 1 0.298039 0.243137 
1 0.298039 0.243137 1 0.298039 0.243137 
1 0.298039 0.243137 1 0.298039 0.243137 
1 0.298039 0.243137 1 0.298039 0.243137 
1 0.298039 0.243137 1 0.298039 0.243137 
1 0.298039 0.243137 1 0.298039 0.243137 
1 0.298039 0.243137 1 0.298039 0.243137 
1 0.298039 0.243137 1 0.298039 0.243137 
1 0.298039 0.243137 1 0.298039 0.243137 
1 0.298039 0.243137 1 0.298039 0.243137 
1 0.298039 0.243137 1 0.298039 0.243137 
1 0.298039 0.243137 1 0.298039 0.243137 
1 0.298039 0.243137 1 0.298039 0.243137 
1 0.298039 0.243137 1 0.298039 0.243137 
1 0.298039 0.243137 1 0.298039 0.243137 
1 0.298039 0.243137 1 0.298039 0.243137 
1 0.298039 0.243137 1 0.298039 0.243137 
1 0.298039 0.243137 1 0.298039 0.243137 
1 0.298039 0.243137 1 0.298039 0.243137 
1 0.298039 0.243137 1 0.298039 0.243137 
1 0.298039 0.243137 1 0.298039 0.243137 
1 0.298039 0.243137 1 0.298039 0.243137 
1 0.298039 0.243137 1 0.298039 0.243137 
1 0.298039 0.243137 1 0.298039 0.243137 
1 0.298039 0.243137 1 0.298039 0.243137 
1 0.298039 0.243137 1 0.298039 0.243137 
1 0.298039 0.243137 1 0.298039 0.243137 
1 0.298039 0.243137 1 0.298039 0.243137 
1 0.298039 0.243137 1 0.298039 0.243137 
1 0.298039 0.243137 1 0.298039 0.243137 
1 0.298039 0.243137 1 0.298039 0.243137 
1 0.298039 0.243137 1 0.298039 0.243137 
1 0.298039 0.243137 1 0.298039 0.243137 
1 0.298039 0.243137 1 0.298039 0.243137 
1 0.298039 0.243137 1 0.298039 0.243137 
1 0.298039 0.243137 1 0.298039 0.243137 
1 0.298039 0.243137 1 0.298039 0.243137 
1 0.298039 0.243137 1 0.298039 0.243137 
1 0.298039 0.243137 1 0.298039 0.243137 
1 0.298039 0.243137 1 0.298039 0.243137 
1 0.298039 0.243137 1 0.298039 0.243137 
1 0.298039 0.243137 1 0.298039 0.243137 
1 0.298039 0.243137 1 0.298039 0.243137 
1 0.298039 0.243137 1 0.298039 0.243137 
1 0.298039 0.243137 1 0.298039 0.243137 
1 0.298039 0.243137 1 0.298039 0.243137 
1 0.298039 0.243137 1 0.298039 0.243137 
1 0.298039 0.243137 1 0.298039 0.243137 
1 0.298039 0.243137 1 0.298039 0.243137 
1 0.298039 0.243137 1 0.298039 0.243137 
1 0.298039 0.243137 1 0.298039 0.243137 
1 0.298039 0.243137 1 0.298039 0.243137 
1 0.298039 0.243137 1 0.298039 0.243137 
1 0.298039 0.243137 1 0.298039 0.243137 
1 0.298039 0.243137 1 0.298039 0.243137 
1 0.298039 0.243137 1 0.298039 0.243137 
1 0.298039 0.243137 1 0.298039 0.243137 
1 0.298039 0.243137 1 0.298039 0.243137 
1 0.298039 0.243137 1 0.298039 0.243137 
1 0.298039 0.243137 1 0.298039 0.243137 
1 0.298039 0.243137 1 0.298039 0.243137 
1 0.298039 0.243137 1 0.298039 0.243137 
1 0.298039 0.243137 1 0.298039 0.243137 
1 0.298039 0.243137 1 0.298039 0.243137 
1 0.298039 0.243137 1 0.298039 0.243137 
1 0.298039 0.243137 1 0.298039 0.243137 
1 0.298039 0.243137 1 0.298039 0.243137 
1 0.298039 0.243137 1 0.298039 0.243137 
1 0.298039 0.243137 1 0.298039 0.243137 
1 0.298039 0.243137 1 0.298039 0.243137 
1 0.298039 0.243137 1 0.298039 0.243137 
1 0.298039 0.243137 1 0.298039 0.243137 
1 0.298039 0.243137 1 0.298039 0.243137 
1 0.298039 0.243137 1 0.298039 0.243137 
1 0.298039 0.243137 1 0.298039 0.243137 
1 0.298039 0.243137 1 0.298039 0.243137 
1 0.298039 0.243137 1 0.298039 0.243137 
1 0.298039 0.243137 1 0.298039 0.243137 
1 0.298039 0.243137 1 0.298039 0.243137 
1 0.298039 0.243137 1 0.298039 0.243137 
1 0.298039 0.243137 1 0.298039 0.243137 
1 0.298039 0.243137 1 0.298039 0.243137 
1 0.298039 0.243137 1 0.298039 0.243137 
1 0.298039 0.243137 1 0.298039 0.243137 
1 0.298039 0.243137 1 0.298039 0.243137 
1 0.298039 0.243137 1 0.298039 0.243137 
1 0.298039 0.243137 1 0.298039 0.243137 
1 0.298039 0.243137 1 0.298039 0.243137 
1 0.298039 0.243137 1 0.298039 0.243137 
1 0.298039 0.243137 1 0.298039 0.243137 
1 0.298039 0.243137 1 0.298039 0.243137 
1 0.298039 0.243137 1 0.298039 0.243137 
1 0.298039 0.243137 1 0.298039 0.243137 
1 0.298039 0.243137 1 0.298039 0.243137 
1 0.298039 0.243137 1 0.298039 0.243137 
1 0.298039 0.243137 1 0.298039 0.243137 
1 0.298039 0.243137 1 0.298039 0.243137 
1 0.298039 0.243137 1 0.298039 0.243137 
1 0.298039 0.243137 1 0.298039 0.243137 
1 0.298039 0.243137 1 0.298039 0.243137 
1 0.298039 0.243137 1 0.298039 0.243137 
1 0.298039 0.243137 1 0.298039 0.243137 
1 0.298039 0.243137 1 0.298039 0.243137 
1 0.298039 0.243137 1 0.298039 0.243137 
1 0.298039 0.243137 1 0.298039 0.243137 
1 0.298039 0.243137 1 0.298039 0.243137 
1 0.298039 0.243137 1 0.298039 0.243137 
1 0.298039 0.243137 1 0.298039 0.243137 
1 0.298039 0.243137 1 0.298039 0.243137 
1 0.298039 0.243137 1 0.298039 0.243137 
1 0.298039 0.243137 1 0.298039 0.243137 
1 0.298039 0.243137 1 0.298039 0.243137 
1 0.298039 0.243137 1 0.298039 0.243137 
1 0.298039 0.243137 1 0.298039 0.243137 
1 0.298039 0.243137 1 0.298039 0.243137 
1 0.298039 0.243137 1 0.298039 0.243137 
1 0.298039 0.243137 1 0.298039 0.243137 
1 0.298039 0.243137 1 0.298039 0.243137 
1 0.298039 0.243137 1 0.298039 0.243137 
1 0.298039 0.243137 1 0.298039 0.243137 
1 0.298039 0.243137 1 0.298039 0.243137 
1 0.298039 0.243137 1 0.298039 0.243137 
1 0.298039 0.243137 1 0.298039 0.243137 
1 0.298039 0.243137 1 0.298039 0.243137 
1 0.298039 0.243137 1 0.298039 0.243137 
1 0.298039 0.243137 1 0.298039 0.243137 
1 0.298039 0.243137 1 0.298039 0.243137 
1 0.298039 0.243137 1 0.298039 0.243137 
1 0.298039 0.243137 1 0.298039 0.243137 
1 0.298039 0.243137 1 0.298039 0.243137 
1 0.298039 0.243137 1 0.298039 0.243137 
1 0.298039 0.243137 1 0.298039 0.243137 
1 0.298039 0.243137 1 0.298039 0.243137 
1 0.298039 0.243137 1 0.298039 0.243137 
1 0.298039 0.243137 1 0.298039 0.243137 
1 0.298039 0.243137 1 0.298039 0.243137 
1 0.298039 0.243137 1 0.298039 0.243137 
1 0.298039 0.243137 1 0.298039 0.243137 
1 0.298039 0.243137 1 0.298039 0.243137 
1 0.298039 0.243137 1 0.298039 0.243137 
1 0.298039 0.243137 1 0.298039 0.243137 
1 0.298039 0.243137 1 0.298039 0.243137 
1 0.298039 0.243137 1 0.298039 0.243137 
1 0.298039 0.243137 1 0.298039 0.243137 
1 0.298039 0.243137 1 0.298039 0.243137 
1 0.298039 0.243137 1 0.298039 0.243137 
1 0.298039 0.243137 1 0.298039 0.243137 
1 0.298039 0.243137 1 0.298039 0.243137 
1 0.298039 0.243137 1 0.298039 0.243137 
1 0.298039 0.243137 1 0.298039 0.243137 
1 0.298039 0.243137 1 0.298039 0.243137 
1 0.298039 0.243137 1 0.298039 0.243137 
1 0.298039 0.243137 1 0.298039 0.243137 
1 0.298039 0.243137 1 0.298039 0.243137 
1 0.298039 0.243137 1 0.298039 0.243137 
1 0.298039 0.243137 1 0.298039 0.243137 
1 0.298039 0.243137 1 0.298039 0.243137 
1 0.298039 0.243137 1 0.298039 0.243137 
1 0.298039 0.243137 1 0.298039 0.243137 
1 0.298039 0.243137 1 0.298039 0.243137 
1 0.298039 0.243137 1 0.298039 0.243137 
1 0.298039 0.243137 1 0.298039 0.243137 
1 0.298039 0.243137 1 0.298039 0.243137 
1 0.298039 0.243137 1 0.298039 0.243137 
1 0.298039 0.243137 1 0.298039 0.243137 
1 0.298039 0.243137 1 0.298039 0.243137 
1 0.298039 0.243137 1 0.298039 0.243137 
1 0.298039 0.243137 1 0.298039 0.243137 
1 0.298039 0.243137 1 0.298039 0.243137 
1 0.298039 0.243137 1 0.298039 0.243137 
1 0.298039 0.243137 1 0.298039 0.243137 
1 0.298039 0.243137 1 0.298039 0.243137 
1 0.298039 0.243137 1 0.298039 0.243137 
1 0.298039 0.243137 1 0.298039 0.243137 
1 0.298039 0.243137 1 0.298039 0.243137 
1 0.298039 0.243137 1 0.298039 0.243137 
1 0.298039 0.243137 1 0.298039 0.243137 
1 0.298039 0.243137 1 0.298039 0.243137 
1 0.298039 0.243137 1 0.298039 0.243137 
1 0.298039 0.243137 1 0.298039 0.243137 
1 0.298039 0.243137 1 0.298039 0.243137 
1 0.298039 0.243137 1 0.298039 0.243137 
1 0.298039 0.243137 1 0.298039 0.243137 
1 0.298039 0.243137 1 0.298039 0.243137 
1 0.298039 0.243137 1 0.298039 0.243137 
1 0.298039 0.243137 1 0.298039 0.243137 
1 0.298039 0.243137 1 0.298039 0.243137 
1 0.298039 0.243137 1 0.298039 0.243137 
1 0.298039 0.243137 1 0.298039 0.243137 
1 0.298039 0.243137 1 0.298039 0.243137 
1 0.298039 0.243137 1 0.298039 0.243137 
1 0.298039 0.243137 1 0.298039 0.243137 
1 0.298039 0.243137 1 0.298039 0.243137 
1 0.298039 0.243137 1 0.298039 0.243137 
1 0.298039 0.243137 1 0.298039 0.243137 
1 0.298039 0.243137 1 0.298039 0.243137 
1 0.298039 0.243137 1 0.298039 0.243137 
1 0.298039 0.243137 1 0.298039 0.243137 
1 0.298039 0.243137 1 0.298039 0.243137 
1 0.298039 0.243137 1 0.298039 0.243137 
1 0.298039 0.243137 1 0.298039 0.243137 
1 0.298039 0.243137 1 0.298039 0.243137 
1 0.298039 0.243137 1 0.298039 0.243137 
1 0.298039 0.243137 1 0.298039 0.243137 
1 0.298039 0.243137 1 0.298039 0.243137 
1 0.298039 0.243137 1 0.298039 0.243137 
1 0.298039 0.243137 1 0.298039 0.243137 
1 0.298039 0.243137 1 0.298039 0.243137 
1 0.298039 0.243137 1 0.298039 0.243137 
1 0.298039 0.243137 1 0.298039 0.243137 
1 0.298039 0.243137 1 0.298039 0.243137 
1 0.298039 0.243137 1 0.298039 0.243137 

NORMALS Normals float
0.103031 -0.326163 -0.939682 -0.0890789 -0.0653053 -0.993881 0.147321 -0.218548 -0.964642 
0.222082 -0.173957 -0.959384 0.301114 -0.108438 -0.947402 -0.197393 0.0904123 -0.976146 
-0.201441 -0.245791 -0.94816 0.407884 -0.120634 -0.905029 0.437516 -0.0158251 -0.899072 
-0.204369 0.357366 -0.91133 0.103324 0.159496 -0.981777 0.318509 -0.572884 -0.755219 
0.590745 -0.215506 -0.777546 0.411718 0.0711872 -0.908527 0.507295 0.0743592 -0.858558 
0.173618 0.488416 -0.855165 -0.104692 0.56437 -0.818857 0.134227 -0.523792 -0.841204 
0.432407 -0.425303 -0.795074 -0.413059 0.195345 -0.889507 0.683802 -0.11628 -0.720343 
-0.422218 0.420488 -0.80307 0.631871 0.153377 -0.759747 0.49043 0.375734 -0.786322 
-0.290855 0.592338 -0.751358 -0.180732 0.677533 -0.712941 0.183563 -0.66023 -0.728286 
-0.281859 -0.3139 -0.906655 0.71473 0.112179 -0.690346 -0.0312757 0.741596 -0.670117 
-0.1873 0.75687 -0.626152 0.172487 0.704737 -0.688182 -0.444238 0.0168171 -0.895751 
0.682892 -0.398142 -0.612488 0.7377 0.192774 -0.647021 -0.375391 0.729199 -0.572145 
0.651661 0.527066 -0.545472 -0.354588 -0.391158 -0.849272 0.379542 -0.664696 -0.643528 
-0.439354 -0.239674 -0.865751 -0.560678 0.0608633 -0.825794 0.77218 -0.368335 -0.517752 
0.812574 -0.291669 -0.504631 0.858177 -0.0359865 -0.51209 -0.512404 0.517991 -0.684929 
0.852248 0.288354 -0.436492 -0.192355 0.892789 -0.407341 -0.00592021 0.831688 -0.555211 
0.00232844 0.869197 -0.49446 0.0573971 0.919691 -0.388425 0.295147 0.811936 -0.503636 
-0.147291 -0.628689 -0.763581 -0.630115 -0.166627 -0.758413 0.65161 -0.622871 -0.432938 
-0.466396 0.61303 -0.637706 -0.557033 -0.546232 -0.625575 -0.685195 0.0618698 -0.725727 
-0.591597 0.331452 -0.734951 0.511762 0.7825 -0.354674 0.700343 0.672234 -0.240045 
0.410599 0.909707 -0.0619857 0.142881 -0.786149 -0.601294 0.441325 -0.755249 -0.484593 
-0.716994 -0.167658 -0.676617 -0.798465 -0.0324954 -0.601163 -0.746221 0.182451 -0.640208 
0.927893 -0.25719 -0.269942 0.963577 -0.00617615 -0.26736 0.910008 0.345707 -0.228848 
0.671718 0.737268 -0.0723242 -0.0429283 0.984274 -0.171354 -0.237087 -0.823038 -0.516137 
-0.414289 -0.7108 -0.568443 0.587941 -0.726567 -0.355563 -0.815055 -0.251495 -0.521954 
0.87936 -0.438154 -0.186405 -0.538634 0.648557 -0.537818 0.704711 0.708901 0.0290034 
0.141565 0.980748 -0.134508 -0.752683 -0.421347 -0.5059 -0.897789 -0.140672 -0.417357 
-0.825665 0.16003 -0.540987 -0.718187 0.43903 -0.53987 0.997569 -0.0685565 0.0125162 
-0.060477 0.9971 -0.046193 0.000413522 0.996113 0.0880833 0.249506 0.95939 0.131597 
0.52965 -0.779311 -0.334881 -0.868956 -0.222514 -0.442044 -0.912378 0.0598312 -0.404952 
-0.632782 0.613385 -0.472594 -0.440566 0.827335 -0.348453 0.660819 0.656441 0.363872 
-0.256756 0.946977 -0.193161 -0.0851436 -0.891776 -0.444395 -0.0993342 -0.792377 -0.60189 
-0.883435 -0.375878 -0.279746 0.847866 -0.520897 -0.0989388 0.92152 0.366364 0.128758 
0.490687 0.839535 0.233254 0.0672645 0.981005 0.181944 0.282901 -0.889206 -0.359554 
-0.969778 -0.194174 -0.147742 -0.975686 0.121381 -0.182495 -0.858332 0.365411 -0.360195 
0.886081 0.26032 0.383527 0.277525 0.85118 0.445502 -0.537116 -0.785749 -0.306766 
-0.744021 -0.660755 -0.0991755 0.720757 -0.680304 -0.133023 -0.915893 -0.399118 -0.0429597 
0.83591 -0.538866 0.104293 0.955216 -0.269683 0.121792 -0.701894 0.655501 -0.278683 
0.773122 0.412615 0.481696 -0.198482 0.979505 0.0342829 -0.000148616 0.971622 0.236538 
-0.205668 -0.939475 -0.274022 0.554526 -0.799462 -0.231002 -0.939457 0.310869 -0.144155 
-0.8909 0.405492 -0.204627 -0.45069 0.882193 -0.136432 0.547182 0.640427 0.53893 
0.45206 0.698573 0.554652 0.263325 -0.9466 -0.186036 -0.447431 -0.868593 -0.212961 
0.472302 -0.861365 -0.187034 0.671232 -0.739839 -0.0456664 -0.747488 -0.654342 0.11445 
-0.903695 0.428135 0.00597542 0.690846 0.422855 0.586452 0.261383 0.636726 0.725437 
0.62205 -0.775848 -0.105423 -0.681251 -0.731532 0.0275567 -0.899695 -0.429455 0.0782134 
0.770929 -0.633816 0.0628143 -0.9611 -0.220883 0.165823 0.914749 -0.00848562 0.403933 
-0.693503 0.720391 -0.00951235 0.182945 0.453363 0.872349 0.22484 0.807697 0.545044 
-0.387301 0.921282 0.0351774 -0.0960719 0.989086 0.111711 -0.0671458 0.944255 0.322294 
-0.130098 -0.989707 -0.059627 -0.534174 -0.841345 0.0824427 -0.978233 0.200422 0.0537624 
0.793607 0.0935766 0.601192 0.866043 0.152101 0.476272 0.50442 0.363921 0.783022 
-0.81334 0.580548 0.037976 -0.0258896 0.945255 0.325304 0.45968 -0.888068 -0.00542144 
-0.76509 -0.574079 0.291669 -0.804148 -0.519507 0.288892 0.882445 -0.395816 0.254208 
-0.879369 0.407802 0.24578 -0.68155 0.719698 0.132384 0.171615 -0.985127 -0.00854936 
-0.94023 0.00748899 0.340459 -0.900467 0.263074 0.346341 0.665291 0.338926 0.66522 
-0.469384 0.848055 0.245928 -0.147608 0.854959 0.497249 0.0397367 0.863259 0.503194 
0.0763858 0.846293 0.527213 -0.171012 0.86976 0.462896 -0.184542 -0.976509 0.11124 
0.659848 -0.73476 0.157252 -0.710172 -0.619888 0.333759 -0.87204 -0.213212 0.440553 
0.836541 -0.408567 0.365065 -0.884716 -0.0635969 0.461771 -0.771679 0.549926 0.31952 
0.176572 0.72313 0.667761 -0.601675 0.740868 0.298501 -0.00568302 0.886941 0.461848 
-0.132157 0.876068 0.463723 -0.103684 0.86997 0.48208 -0.321916 -0.922257 0.214038 
0.195545 -0.933591 0.300284 0.466271 -0.83381 0.295555 0.700771 -0.650593 0.292659 
-0.697499 -0.358335 0.620557 0.759327 -0.554997 0.339708 -0.797877 -0.321873 0.509696 
0.751372 0.0559653 0.657502 0.435402 0.573657 0.693789 -0.640337 0.546686 0.539539 
-0.542276 0.706684 0.454461 -0.0577765 -0.891879 0.448568 0.308358 -0.902442 0.300856 
-0.55275 -0.688117 0.470065 -0.699751 -0.430788 0.569886 0.820475 -0.339467 0.459981 
-0.702375 -0.0938899 0.705588 -0.744973 0.10894 0.658139 -0.686847 0.262945 0.67757 
-0.572008 0.393632 0.719626 -0.395711 0.678302 0.619128 -0.0898612 0.648105 0.756231 
0.0747075 0.703327 0.70693 -0.292901 -0.805336 0.515406 0.372599 -0.752913 0.542487 
0.567731 -0.722064 0.395354 -0.606651 -0.166767 0.777279 -0.580635 0.0148028 0.814029 
0.555647 0.370589 0.744258 -0.175557 0.501563 0.847121 -0.27508 -0.624458 0.731015 
0.139865 -0.750273 0.646165 0.143872 -0.773586 0.617143 0.0977467 -0.746349 0.658338 
0.502993 -0.676484 0.537929 -0.573808 -0.374551 0.728324 0.638662 -0.43782 0.632791 
-0.551099 -0.173152 0.816277 -0.417901 0.112821 0.90146 0.515693 0.284496 0.80816 
-0.348029 0.212617 0.913055 0.299357 0.519829 0.800102 -0.1634 0.25737 0.952398 
-0.0926029 0.46919 0.878229 -0.323514 -0.508389 0.798047 0.0842625 -0.64549 0.759106 
-0.435586 -0.505046 0.745113 0.481172 -0.609026 0.630524 0.544692 -0.559656 0.624577 
-0.4804 -0.215073 0.85027 0.666982 -0.205384 0.716207 0.529706 0.110227 0.840988 
-0.186355 0.0928798 0.978082 0.364435 0.276109 0.889354 -0.164972 0.170377 0.971471 
0.0959349 0.518328 0.849784 -0.0262881 0.314104 0.949024 0.238029 -0.593134 0.769113 
-0.0614013 -0.380856 0.922593 0.0366298 -0.556835 0.829815 -0.320495 -0.267194 0.908785 
-0.214703 -0.275115 0.937131 0.255598 -0.354488 0.899449 0.437093 -0.316878 0.841747 
0.457994 -0.193845 0.867563 -0.381922 -0.0315038 0.923658 0.328393 0.0265389 0.944168 
0.212011 0.245192 0.946008 0.0163472 -0.311729 0.95003 0.236294 -0.386237 0.89162 
-0.203799 -0.155311 0.966615 0.0542408 -0.171506 0.983689 0.295765 -0.317917 0.900806 
-0.193557 -0.0240866 0.980793 0.0742745 0.0271151 0.996869 0.175696 -0.139303 0.974539 
-0.0756594 0.176332 0.981419 -0.121582 -0.364166 -0.923364 0.110282 -0.447066 -0.887677 
0.189906 -0.286825 -0.938971 -0.214296 -0.0771272 -0.973719 0.10323 -0.234608 -0.966593 
0.430734 -0.385162 -0.816161 0.0726332 -0.0446628 -0.996358 0.339395 -0.144852 -0.929424 
-0.0120036 0.0204305 -0.999719 -0.218753 0.0709537 -0.973197 0.117367 -0.00275885 -0.993085 
0.341753 0.0846828 -0.935967 -0.0958919 -0.635471 -0.766147 0.186866 -0.596256 -0.780743 
0.261912 -0.509191 -0.819833 0.48298 -0.501485 -0.717804 -0.330116 -0.248878 -0.91054 
0.544403 -0.279077 -0.791038 0.545178 -0.110618 -0.83099 0.148228 0.25615 -0.955205 
-0.0364039 0.365782 -0.929988 0.132306 0.478119 -0.868273 0.201716 -0.756916 -0.621602 
-0.416088 -0.475094 -0.775343 -0.654372 -0.327932 -0.681365 0.709294 -0.204943 -0.674462 
-0.358373 0.0684726 -0.931064 -0.142417 0.223636 -0.964212 -0.103158 -0.845691 -0.523608 
-0.364555 -0.644431 -0.672166 0.518456 -0.674173 -0.526017 -0.624948 -0.392593 -0.674768 
0.687843 -0.418609 -0.592991 -0.381843 -0.0687624 -0.921666 -0.595967 -0.0794378 -0.79907 
0.622355 0.0504152 -0.78111 -0.499175 0.138271 -0.855398 0.463466 0.36342 -0.808162 
-0.425164 0.24827 -0.870401 -0.267803 0.497523 -0.825078 -0.124994 0.562578 -0.817241 
0.333526 -0.827002 -0.452579 -0.575481 -0.588036 -0.568362 0.650393 -0.580968 -0.489352 
-0.636288 0.0120932 -0.771357 0.755597 0.0417681 -0.653703 0.344554 0.548748 -0.761681 
-0.39218 0.500309 -0.771936 0.109635 0.669079 -0.73506 -0.00764812 0.614338 -0.789006 
0.102056 0.677379 -0.728521 0.0379422 -0.959121 -0.280441 -0.308458 -0.876409 -0.369811 
0.511174 -0.786291 -0.347054 -0.730774 -0.59224 -0.339442 0.665675 -0.646374 -0.372931 
0.630141 0.321633 -0.706735 -0.657157 0.20349 -0.725766 -0.714753 0.469505 -0.518356 
-0.482008 0.648898 -0.588727 -0.227102 -0.937246 -0.264565 -0.0687282 -0.982001 -0.175928 
0.17688 -0.923697 -0.339848 -0.776791 -0.322713 -0.540788 -0.804341 -0.0380242 -0.592949 