# vtk DataFile Version 4.2
vtk output
ASCII
DATASET POLYDATA
POINTS 226 float
342.896 190.781 219.599 344.925 190.613 219.765 344.58 190.107 219.78 
345.996 190.569 220.153 345.891 190.041 220.128 344.001 191.36 219.575 
344.649 191.222 219.718 346.291 190.86 220.385 343.75 191.985 219.596 
346.135 191.304 220.39 340.728 193.046 219.534 341.427 193.097 219.472 
339.777 193.993 219.732 340.409 193.769 219.618 344.515 193.016 220.291 
338.02 194.171 220.246 338.944 194.55 220.059 341.49 193.966 219.672 
342.211 193.978 219.84 338.638 194.896 220.343 339.949 194.809 220.071 
342.39 194.42 220.14 339.706 195.209 220.459 341.101 194.962 220.289 
346.03 188.74 220.435 345.662 188.106 220.599 343.424 189.614 220.006 
340.388 192.044 219.769 346.208 191.527 220.56 337.82 193.024 220.505 
338.094 192.521 220.579 337.001 193.82 220.784 336.608 194.154 220.997 
336.608 194.602 221.141 343.345 194.104 220.43 342.17 194.7 220.285 
340.18 195.444 220.817 341.494 195.158 220.688 342.088 194.944 220.642 
348.009 184.355 222.021 348.925 184.112 222.024 349.626 184.577 222.064 
349.468 184.099 222.095 347.06 184.662 222.131 349.28 186.038 221.938 
344.389 187.488 221.128 347.857 187.042 221.361 349.684 186.492 222.238 
348.37 188.45 221.687 338.55 190.706 221.853 338.338 191.316 221.376 
347.264 190.669 221.262 335.175 194.031 221.893 336.438 193.712 221.171 
345.526 193.03 221.426 335.145 194.581 222.064 334.851 194.447 222.266 
335.607 194.589 221.743 335.096 194.923 222.387 335.894 195.323 222.334 
339.987 195.697 221.36 350.082 181.628 223.083 351.02 181.575 223.391 
350.151 182.798 222.659 350.615 182.467 222.931 348.416 182.851 222.697 
351.003 182.85 223.179 351.372 182.321 223.657 350.917 183.816 223.056 
351.325 184.012 223.53 349.516 187.567 222.35 348.754 189.359 222.42 
334.802 194.21 222.318 334.681 194.198 222.629 334.695 194.46 222.614 
345.218 193.639 222.432 335.191 195.395 223.229 350.561 180.186 224.235 
350.921 180.468 223.978 350.808 180.258 224.133 351.016 180.253 224.271 
350.551 181.033 223.476 349.047 181.371 223.581 346.626 183.603 223.137 
351.779 183.078 224.311 350.707 187.004 223.658 338.42 190.167 223.109 
348.698 189.783 222.707 334.543 194.587 223.703 334.468 194.383 224.152 
335.069 195.476 223.929 350.579 179.957 224.558 351.19 180.132 224.73 
347.852 181.774 224.21 346.132 183.33 224.063 350.8 187.641 224.615 
346.913 192.598 224.514 334.466 194.034 225.112 334.625 195.202 224.991 
335.449 195.795 224.579 350.714 179.5 225.677 350.4 179.564 225.54 
350.975 179.812 224.973 350.926 179.629 225.353 350.132 179.789 225.198 
350.063 179.608 225.797 351.457 180.144 225.324 344.988 183.82 225.665 
343.178 185.464 225.68 334.372 194.881 226.154 334.913 195.583 225.667 
350.782 179.403 226.307 351.348 179.779 225.923 352.207 182.051 226.228 
345.242 193.962 225.48 350.036 179.471 227.247 350.489 179.362 227.543 
351.555 179.838 227.373 349.584 179.692 227.731 346.507 182.173 227.839 
352.33 183.888 228.064 351.595 187.201 227.998 334.219 194.626 228.76 
334.812 195.635 228.523 351.282 179.578 227.966 349.652 179.735 228.605 
352.055 180.994 228.429 352.28 182.417 228.674 334.396 193.893 228.888 
334.244 194.849 229.188 334.427 195.208 229.494 339.335 196.22 228.124 
351.027 179.549 229.153 348.726 190.924 229.764 350.797 179.588 229.545 
351.038 179.665 229.609 351.477 180.23 229.661 345.105 183.965 230.427 
351.969 184.3 230.469 351.196 187.285 230.824 334.913 193.144 230.533 
336.429 196.164 230.919 351.171 179.877 229.812 350.209 180.089 230.722 
350.453 180.238 230.926 351.134 180.157 230.251 349.326 180.531 230.892 
351.694 181.501 230.467 348.297 181.36 231.043 350.754 187.084 231.887 
350.745 180.305 230.919 349.811 180.588 231.269 350.697 180.645 231.196 
351.327 181.487 231.082 348.113 182.088 231.744 351.562 183.162 231.464 
346.14 184.256 232.296 350.509 186.378 232.578 349.908 187.912 232.372 
349.686 188.52 232.257 334.75 193.682 232.814 334.726 193.809 233.137 
334.462 194.136 232.671 341.748 195.634 232.365 350.894 181.162 231.398 
349.752 181.657 232.089 350.356 181.821 232.101 347.873 183.575 232.824 
351.084 183.952 232.233 346.918 184.029 232.626 350.588 184.888 232.771 
349.968 186.374 232.947 349.2 187.613 233.202 348.532 189.596 233.01 
334.636 194 233.214 334.831 193.866 233.397 335.114 193.755 233.593 
334.736 194.125 233.437 345.365 193.415 233.043 334.596 194.849 233.134 
342.996 194.917 233.172 334.661 195.004 233.011 337.631 195.88 233.245 
350.807 182.796 232.321 348.186 184.028 233.109 348.851 184.422 233.29 
350.031 184.06 233.015 346.278 185.544 233.388 348.72 185.179 233.458 
349.409 185.66 233.303 339.383 190.496 233.849 335.343 194.291 234.02 
335.446 194.56 234.083 334.758 194.954 233.279 342.155 195.098 233.816 
336.061 195.291 233.818 339.942 195.528 233.902 341.593 195.231 233.89 
346.431 189.013 234.764 342.103 190.124 235.019 344.224 189.614 235.252 
347.143 189.757 234.312 340.427 191.643 235.092 336.79 193.624 234.497 
339.525 192.427 235.077 336.302 194.224 234.472 344.374 193.29 234.463 
344.707 192.744 234.709 335.875 194.674 234.261 336.91 194.478 234.697 
343.719 193.593 234.605 336.252 194.973 234.281 338.775 195.331 234.39 
346.059 189.92 234.97 341.403 191.549 235.297 342.365 191.535 235.481 
344.914 191.327 235.259 341.873 192.798 235.498 342.615 192.586 235.486 
338.397 194.203 235.037 341.603 193.413 235.392 343.044 192.964 235.291 
337.379 194.744 234.756 338.822 194.536 235.004 342.883 193.678 234.93 
337.172 195.067 234.55 
POLYGONS 448 1792
3 6 1 2 
3 2 1 3 
3 6 0 5 
3 6 3 1 
3 6 7 3 
3 27 11 0 
3 5 0 11 
3 8 5 11 
3 28 9 6 
3 7 6 9 
3 27 10 11 
3 5 8 14 
3 14 8 11 
3 14 6 5 
3 28 6 14 
3 27 15 16 
3 27 16 12 
3 10 27 13 
3 13 27 12 
3 11 10 17 
3 17 10 13 
3 18 14 11 
3 17 13 20 
3 20 13 12 
3 18 11 17 
3 14 18 34 
3 16 15 19 
3 20 12 16 
3 17 20 35 
3 35 21 18 
3 35 18 17 
3 34 18 21 
3 22 16 19 
3 20 16 22 
3 35 20 23 
3 25 24 46 
3 25 26 2 
3 24 25 4 
3 4 25 2 
3 46 24 3 
3 3 24 4 
3 6 26 0 
3 2 26 6 
3 4 2 3 
3 3 48 46 
3 26 30 27 
3 0 26 27 
3 3 7 51 
3 48 3 51 
3 9 28 7 
3 7 28 51 
3 29 15 30 
3 27 30 15 
3 31 15 29 
3 31 32 33 
3 19 31 33 
3 31 19 15 
3 19 60 22 
3 20 22 36 
3 23 20 37 
3 20 36 37 
3 35 23 37 
3 38 35 37 
3 21 35 38 
3 40 41 42 
3 39 43 40 
3 40 43 46 
3 41 40 44 
3 44 85 41 
3 43 45 46 
3 46 45 25 
3 47 44 46 
3 46 44 40 
3 85 44 47 
3 45 49 26 
3 25 45 26 
3 70 47 46 
3 70 46 48 
3 49 86 50 
3 49 50 30 
3 26 49 30 
3 50 52 53 
3 50 53 29 
3 30 50 29 
3 14 54 28 
3 29 53 31 
3 55 56 74 
3 52 56 55 
3 52 55 57 
3 32 57 33 
3 32 53 57 
3 53 52 57 
3 31 53 32 
3 14 34 75 
3 58 55 74 
3 57 55 58 
3 33 57 19 
3 34 38 75 
3 21 38 34 
3 57 58 59 
3 60 57 59 
3 19 57 60 
3 36 22 60 
3 37 36 60 
3 38 37 60 
3 64 61 63 
3 61 65 42 
3 63 61 41 
3 41 61 42 
3 66 64 63 
3 67 62 64 
3 66 67 64 
3 65 39 40 
3 42 65 40 
3 66 63 68 
3 68 63 41 
3 84 67 66 
3 68 84 66 
3 39 83 43 
3 83 45 43 
3 84 68 69 
3 41 85 68 
3 85 69 68 
3 48 71 70 
3 50 86 73 
3 50 73 52 
3 87 51 28 
3 72 73 74 
3 52 73 72 
3 56 72 74 
3 52 72 56 
3 54 14 75 
3 60 75 38 
3 58 74 76 
3 59 58 76 
3 77 78 79 
3 79 78 80 
3 77 82 81 
3 77 81 78 
3 81 82 61 
3 64 81 61 
3 78 81 64 
3 78 64 62 
3 78 62 67 
3 65 82 93 
3 82 65 61 
3 93 94 83 
3 65 93 83 
3 65 83 39 
3 45 83 49 
3 47 70 85 
3 71 48 87 
3 48 51 87 
3 28 54 87 
3 73 88 74 
3 88 73 89 
3 114 54 75 
3 88 90 74 
3 76 74 90 
3 59 76 90 
3 59 90 60 
3 77 79 91 
3 92 79 80 
3 91 82 77 
3 104 82 91 
3 80 78 92 
3 78 67 92 
3 84 69 95 
3 85 95 69 
3 85 70 95 
3 71 87 70 
3 87 95 70 
3 54 114 96 
3 87 54 96 
3 97 89 73 
3 90 88 98 
3 90 98 99 
3 60 90 99 
3 102 100 101 
3 100 102 103 
3 101 105 104 
3 102 101 104 
3 102 104 91 
3 79 102 91 
3 102 79 92 
3 102 92 103 
3 103 92 106 
3 105 82 104 
3 106 92 113 
3 92 67 113 
3 94 93 107 
3 67 84 113 
3 94 107 83 
3 107 108 49 
3 83 107 49 
3 73 128 97 
3 88 109 98 
3 97 88 89 
3 109 88 97 
3 99 98 110 
3 101 100 111 
3 100 103 111 
3 111 105 101 
3 103 106 112 
3 82 105 93 
3 112 106 117 
3 106 113 117 
3 107 93 119 
3 84 95 113 
3 95 87 133 
3 108 73 86 
3 96 133 87 
3 97 128 109 
3 98 109 110 
3 111 103 112 
3 105 111 115 
3 118 105 115 
3 118 93 105 
3 108 107 119 
3 49 108 86 
3 95 133 121 
3 73 108 128 
3 109 122 130 
3 128 122 109 
3 60 131 75 
3 109 130 123 
3 110 109 123 
3 99 131 60 
3 111 124 116 
3 117 111 112 
3 115 134 118 
3 116 115 111 
3 134 115 116 
3 118 119 93 
3 117 113 126 
3 126 113 120 
3 113 95 120 
3 95 121 120 
3 75 180 114 
3 131 180 75 
3 110 123 141 
3 99 110 141 
3 99 141 131 
3 124 132 134 
3 116 124 134 
3 124 111 117 
3 118 134 125 
3 118 125 146 
3 124 117 126 
3 118 146 119 
3 126 120 127 
3 137 108 119 
3 138 120 139 
3 120 121 139 
3 114 180 96 
3 129 130 122 
3 124 126 132 
3 125 134 146 
3 146 148 119 
3 119 154 137 
3 127 120 147 
3 147 120 138 
3 121 133 139 
3 128 108 140 
3 133 178 207 
3 96 178 133 
3 178 96 180 
3 140 122 128 
3 129 162 130 
3 162 129 122 
3 131 141 182 
3 135 134 132 
3 135 132 126 
3 136 135 126 
3 146 134 143 
3 135 143 134 
3 136 126 147 
3 126 127 147 
3 148 154 119 
3 147 138 155 
3 137 190 108 
3 130 162 179 
3 140 162 122 
3 123 130 141 
3 135 136 142 
3 144 143 150 
3 150 143 135 
3 142 145 135 
3 145 150 135 
3 145 142 136 
3 145 136 152 
3 152 136 147 
3 154 156 137 
3 155 138 168 
3 137 156 187 
3 138 139 157 
3 139 149 157 
3 139 133 149 
3 190 140 108 
3 141 130 181 
3 141 181 182 
3 145 152 150 
3 143 151 146 
3 143 144 151 
3 144 150 152 
3 153 152 147 
3 148 146 165 
3 151 165 146 
3 144 165 151 
3 153 147 183 
3 148 165 154 
3 147 155 183 
3 156 154 167 
3 168 138 157 
3 187 190 137 
3 159 158 133 
3 133 158 149 
3 133 173 159 
3 207 173 133 
3 160 161 174 
3 161 160 175 
3 175 160 190 
3 190 160 140 
3 162 160 174 
3 140 160 162 
3 163 180 131 
3 130 179 181 
3 131 182 196 
3 152 164 144 
3 152 153 164 
3 165 144 164 
3 165 164 166 
3 153 183 166 
3 164 153 166 
3 165 167 154 
3 183 155 168 
3 167 169 156 
3 157 170 168 
3 157 189 170 
3 157 171 189 
3 157 149 171 
3 149 172 171 
3 159 172 158 
3 158 172 149 
3 159 173 172 
3 174 161 175 
3 176 175 190 
3 175 177 174 
3 176 177 175 
3 174 179 162 
3 180 197 194 
3 163 197 180 
3 181 193 195 
3 182 181 195 
3 182 212 196 
3 163 131 197 
3 131 196 197 
3 186 166 183 
3 167 165 186 
3 184 167 186 
3 165 166 186 
3 167 184 169 
3 186 185 184 
3 185 188 184 
3 168 170 186 
3 183 168 186 
3 156 169 184 
3 156 184 187 
3 187 184 188 
3 170 185 186 
3 185 189 188 
3 170 189 185 
3 189 172 188 
3 189 171 172 
3 201 188 172 
3 173 201 172 
3 190 191 176 
3 203 191 190 
3 177 176 191 
3 178 206 207 
3 174 177 179 
3 192 179 177 
3 192 191 203 
3 192 177 191 
3 180 210 178 
3 210 206 178 
3 192 193 179 
3 194 210 180 
3 179 193 181 
3 193 192 195 
3 188 200 187 
3 200 199 187 
3 188 201 198 
3 213 198 201 
3 187 199 190 
3 173 213 201 
3 173 207 213 
3 204 190 202 
3 190 204 203 
3 209 205 203 
3 203 208 192 
3 203 205 208 
3 208 205 211 
3 211 205 209 
3 225 211 209 
3 192 208 195 
3 211 195 208 
3 211 225 195 
3 182 195 225 
3 182 225 212 
3 188 216 200 
3 216 188 198 
3 199 200 216 
3 213 216 198 
3 199 214 190 
3 214 199 215 
3 216 215 199 
3 202 223 204 
3 202 190 214 
3 202 214 223 
3 213 207 216 
3 215 217 214 
3 218 217 215 
3 216 221 215 
3 221 218 215 
3 203 204 219 
3 204 223 219 
3 217 220 214 
3 220 223 214 
3 221 217 218 
3 207 206 216 
3 203 222 209 
3 219 222 203 
3 223 222 219 
3 221 224 217 
3 224 220 217 
3 210 224 216 
3 216 224 221 
3 206 210 216 
3 209 222 225 
3 223 212 222 
3 212 225 222 
3 220 224 223 
3 224 196 223 
3 210 194 224 
3 196 212 223 
3 224 197 196 
3 194 197 224 

POINT_DATA 226
COLOR_SCALARS scalars 3
0.8 0.8 0.8 0.8 0.8 0.8 0.8 0.8 0.8 
0.8 0.8 0.8 0.8 0.8 0.8 
0.8 0.8 0.8 0.8 0.8 0.8 
0.8 0.8 0.8 0.8 0.8 0.8 
0.8 0.8 0.8 0.8 0.8 0.8 
0.8 0.8 0.8 0.8 0.8 0.8 
0.8 0.8 0.8 0.8 0.8 0.8 
0.8 0.8 0.8 0.8 0.8 0.8 
0.8 0.8 0.8 0.8 0.8 0.8 
0.8 0.8 0.8 0.8 0.8 0.8 
0.8 0.8 0.8 0.8 0.8 0.8 
0.8 0.8 0.8 0.8 0.8 0.8 
0.8 0.8 0.8 0.8 0.8 0.8 
0.8 0.8 0.8 0.8 0.8 0.8 
0.8 0.8 0.8 0.8 0.8 0.8 
0.8 0.8 0.8 0.8 0.8 0.8 
0.8 0.8 0.8 0.8 0.8 0.8 
0.8 0.8 0.8 0.8 0.8 0.8 
0.8 0.8 0.8 0.8 0.8 0.8 
0.8 0.8 0.8 0.8 0.8 0.8 
0.8 0.8 0.8 0.8 0.8 0.8 
0.8 0.8 0.8 0.8 0.8 0.8 
0.8 0.8 0.8 0.8 0.8 0.8 
0.8 0.8 0.8 0.8 0.8 0.8 
0.8 0.8 0.8 0.8 0.8 0.8 
0.8 0.8 0.8 0.8 0.8 0.8 
0.8 0.8 0.8 0.8 0.8 0.8 
0.8 0.8 0.8 0.8 0.8 0.8 
0.8 0.8 0.8 0.8 0.8 0.8 
0.8 0.8 0.8 0.8 0.8 0.8 
0.8 0.8 0.8 0.8 0.8 0.8 
0.8 0.8 0.8 0.8 0.8 0.8 
0.8 0.8 0.8 0.8 0.8 0.8 
0.8 0.8 0.8 0.8 0.8 0.8 
0.8 0.8 0.8 0.8 0.8 0.8 
0.8 0.8 0.8 0.8 0.8 0.8 
0.8 0.8 0.8 0.8 0.8 0.8 
0.8 0.8 0.8 0.8 0.8 0.8 
0.8 0.8 0.8 0.8 0.8 0.8 
0.8 0.8 0.8 0.8 0.8 0.8 
0.8 0.8 0.8 0.8 0.8 0.8 
0.8 0.8 0.8 0.8 0.8 0.8 
0.8 0.8 0.8 0.8 0.8 0.8 
0.8 0.8 0.8 0.8 0.8 0.8 
0.8 0.8 0.8 0.8 0.8 0.8 
0.8 0.8 0.8 0.8 0.8 0.8 
0.8 0.8 0.8 0.8 0.8 0.8 
0.8 0.8 0.8 0.8 0.8 0.8 
0.8 0.8 0.8 0.8 0.8 0.8 
0.8 0.8 0.8 0.8 0.8 0.8 
0.8 0.8 0.8 0.8 0.8 0.8 
0.8 0.8 0.8 0.8 0.8 0.8 
0.8 0.8 0.8 0.8 0.8 0.8 
0.8 0.8 0.8 0.8 0.8 0.8 
0.8 0.8 0.8 0.8 0.8 0.8 
0.8 0.8 0.8 0.8 0.8 0.8 
0.8 0.8 0.8 0.8 0.8 0.8 
0.8 0.8 0.8 0.8 0.8 0.8 
0.8 0.8 0.8 0.8 0.8 0.8 
0.8 0.8 0.8 0.8 0.8 0.8 
0.8 0.8 0.8 0.8 0.8 0.8 
0.8 0.8 0.8 0.8 0.8 0.8 
0.8 0.8 0.8 0.8 0.8 0.8 
0.8 0.8 0.8 0.8 0.8 0.8 
0.8 0.8 0.8 0.8 0.8 0.8 
0.8 0.8 0.8 0.8 0.8 0.8 
0.8 0.8 0.8 0.8 0.8 0.8 
0.8 0.8 0.8 0.8 0.8 0.8 
0.8 0.8 0.8 0.8 0.8 0.8 
0.8 0.8 0.8 0.8 0.8 0.8 
0.8 0.8 0.8 0.8 0.8 0.8 
0.8 0.8 0.8 0.8 0.8 0.8 
0.8 0.8 0.8 0.8 0.8 0.8 
0.8 0.8 0.8 0.8 0.8 0.8 
0.8 0.8 0.8 0.8 0.8 0.8 
0.8 0.8 0.8 0.8 0.8 0.8 
0.8 0.8 0.8 0.8 0.8 0.8 
0.8 0.8 0.8 0.8 0.8 0.8 
0.8 0.8 0.8 0.8 0.8 0.8 
0.8 0.8 0.8 0.8 0.8 0.8 
0.8 0.8 0.8 0.8 0.8 0.8 
0.8 0.8 0.8 0.8 0.8 0.8 
0.8 0.8 0.8 0.8 0.8 0.8 
0.8 0.8 0.8 0.8 0.8 0.8 
0.8 0.8 0.8 0.8 0.8 0.8 
0.8 0.8 0.8 0.8 0.8 0.8 
0.8 0.8 0.8 0.8 0.8 0.8 
0.8 0.8 0.8 0.8 0.8 0.8 
0.8 0.8 0.8 0.8 0.8 0.8 
0.8 0.8 0.8 0.8 0.8 0.8 
0.8 0.8 0.8 0.8 0.8 0.8 
0.8 0.8 0.8 0.8 0.8 0.8 
0.8 0.8 0.8 0.8 0.8 0.8 
0.8 0.8 0.8 0.8 0.8 0.8 
0.8 0.8 0.8 0.8 0.8 0.8 
0.8 0.8 0.8 0.8 0.8 0.8 
0.8 0.8 0.8 0.8 0.8 0.8 
0.8 0.8 0.8 0.8 0.8 0.8 
0.8 0.8 0.8 0.8 0.8 0.8 
0.8 0.8 0.8 0.8 0.8 0.8 
0.8 0.8 0.8 0.8 0.8 0.8 
0.8 0.8 0.8 0.8 0.8 0.8 
0.8 0.8 0.8 0.8 0.8 0.8 
0.8 0.8 0.8 0.8 0.8 0.8 
0.8 0.8 0.8 0.8 0.8 0.8 
0.8 0.8 0.8 0.8 0.8 0.8 
0.8 0.8 0.8 0.8 0.8 0.8 
0.8 0.8 0.8 0.8 0.8 0.8 
0.8 0.8 0.8 0.8 0.8 0.8 
0.8 0.8 0.8 0.8 0.8 0.8 
0.8 0.8 0.8 0.8 0.8 0.8 
0.8 0.8 0.8 0.8 0.8 0.8 
0.8 0.8 0.8 
NORMALS Normals float
-0.0266599 -0.24522 -0.969101 0.240224 -0.0751767 -0.967802 0.114247 -0.17022 -0.978761 
0.479434 -0.00324855 -0.877572 0.297391 -0.155144 -0.942066 0.203202 0.0498264 -0.977868 
0.24326 0.0989842 -0.964897 0.586327 0.179102 -0.790027 0.275381 0.239524 -0.931017 
0.498992 0.311837 -0.808557 -0.142964 0.0197282 -0.989531 0.0643924 0.0885553 -0.993988 
-0.204114 0.143404 -0.968387 -0.132671 0.155056 -0.978957 0.425513 0.472131 -0.772031 
-0.349094 0.0735175 -0.934199 -0.232779 0.329442 -0.915031 0.0699418 0.349879 -0.93418 
0.257611 0.392631 -0.88288 -0.322438 0.657722 -0.680761 0.0121509 0.602051 -0.798365 
0.414056 0.622226 -0.664374 -0.085612 0.76723 -0.635632 0.0888548 0.75304 -0.651947 
0.300683 -0.20989 -0.930342 0.03601 -0.395557 -0.917735 -0.209833 -0.432274 -0.876989 
-0.282789 -0.20852 -0.936242 0.621539 0.457034 -0.636246 -0.495977 -0.326103 -0.804776 
-0.261338 -0.445742 -0.856164 -0.465734 0.0988754 -0.879384 -0.492338 0.0958058 -0.865115 
-0.379438 0.41581 -0.826516 0.469411 0.656863 -0.590072 0.243578 0.655969 -0.714405 
0.0763411 0.834059 -0.546368 0.173552 0.884876 -0.43229 0.437759 0.857628 -0.269891 
-0.183933 -0.207045 -0.960886 0.10301 -0.0961918 -0.990018 0.397457 -0.0813892 -0.914004 
0.167509 -0.312887 -0.934902 -0.12235 -0.221605 -0.967431 0.523949 -0.0698744 -0.848879 
-0.214888 -0.541848 -0.812541 0.282351 -0.151813 -0.947223 0.668451 0.0197271 -0.743495 
0.56866 0.229283 -0.789972 -0.453759 -0.684227 -0.570909 -0.545608 -0.603256 -0.581717 
0.716926 0.257059 -0.648026 -0.679332 -0.213102 -0.702208 -0.556119 -0.221068 -0.801162 
0.670709 0.676801 -0.303462 -0.620277 0.455719 -0.638418 -0.764597 0.298346 -0.571298 
-0.454987 0.495068 -0.740199 -0.587554 0.623657 -0.515588 -0.258322 0.864473 -0.431226 
0.00485753 0.961486 -0.274809 0.0736612 -0.426241 -0.901605 0.582845 -0.306798 -0.752441 
0.379187 -0.171185 -0.909348 0.445367 -0.255572 -0.858097 -0.244699 -0.530739 -0.811442 
0.683535 -0.0361296 -0.729023 0.841008 -0.179024 -0.510545 0.690902 0.00940588 -0.722887 
0.875163 0.121098 -0.468428 0.70681 0.28933 -0.645529 0.592531 0.441162 -0.674005 
-0.87433 -0.151823 -0.460973 -0.820234 -0.536925 -0.197302 -0.864327 0.398182 -0.307228 
0.461163 0.872527 -0.161323 -0.560076 0.78679 -0.259377 -0.158615 -0.698906 -0.697404 
0.489679 -0.477811 -0.729322 0.195673 -0.787743 -0.5841 0.572546 -0.649321 -0.500573 
0.0972077 -0.559982 -0.822782 -0.390514 -0.708424 -0.587906 -0.494832 -0.587857 -0.639974 
0.90552 0.024046 -0.423622 0.808213 0.146006 -0.570504 -0.70357 -0.667805 -0.242952 
0.742125 0.536716 -0.40148 -0.929967 0.358006 -0.0836226 -0.969046 0.245814 0.0229084 
-0.533431 0.82366 -0.192448 -0.130144 -0.862513 -0.489012 0.768975 -0.511428 -0.383561 
-0.579587 -0.732049 -0.358027 -0.700775 -0.569707 -0.429358 0.896479 0.368384 -0.24621 
0.668138 0.74192 -0.0560916 -0.987628 -0.154311 0.0279276 -0.772607 0.625891 -0.106485 
-0.329766 0.937151 -0.114027 0.00146179 -0.95426 -0.298974 -0.165408 -0.941586 -0.293354 
0.172365 -0.887066 -0.428257 0.474246 -0.836135 -0.275626 -0.316919 -0.867717 -0.382923 
-0.443701 -0.87174 -0.207844 0.840809 -0.481866 -0.246669 -0.688975 -0.677435 -0.257672 
-0.686529 -0.726162 -0.0369753 -0.956915 0.285842 -0.0510773 -0.595564 0.801878 -0.0479007 
0.165294 -0.981479 -0.096834 0.662114 -0.734058 -0.150881 0.972023 -0.125006 -0.198859 
0.57138 0.818738 -0.0565075 -0.312188 -0.949985 0.00822997 -0.00962253 -0.998852 0.0469309 
0.822064 -0.567588 -0.0453243 -0.545304 -0.83813 0.0134797 -0.669998 -0.739245 0.0679606 
0.996308 0.0837299 0.0189569 0.90543 0.424135 -0.0175196 -0.999672 0.0187256 -0.0174705 
-0.622624 0.782408 0.0132946 0.455049 -0.889201 0.0474534 -0.46358 -0.873585 0.148132 
0.927234 -0.3676 0.0714648 0.989372 -0.0650428 0.130045 -0.810286 -0.585811 -0.0161861 
-0.940113 0.339631 -0.028962 -0.828193 0.55992 0.0241985 0.164256 0.986351 0.0114464 
0.47315 -0.871858 0.126461 0.784632 0.601525 0.150068 -0.145698 -0.974379 0.171343 
0.523852 -0.790495 0.317328 0.838515 -0.455869 0.298456 -0.675265 -0.66286 0.323471 
0.942438 0.0765777 0.325494 0.906783 0.323245 0.27066 -0.800708 -0.592054 0.0913133 
-0.282333 0.956226 0.0769448 0.675635 -0.64482 0.357385 -0.0409299 -0.887427 0.459127 
-0.023908 -0.638737 0.769053 0.701889 -0.510746 0.496478 -0.517622 -0.776657 0.358987 
0.900291 -0.22119 0.374901 -0.555822 -0.682124 0.475151 0.727775 0.404216 0.554034 
0.399358 -0.725482 0.560526 -0.194505 -0.705028 0.681985 0.579586 -0.438259 0.68703 
0.731127 -0.356355 0.581777 -0.530468 -0.66119 0.530501 0.863694 -0.108336 0.492235 
-0.536507 -0.483461 0.691683 0.751864 0.169893 0.637053 0.79823 0.415396 0.436205 
0.80384 0.423281 0.417941 -0.707447 -0.679665 0.193842 -0.688136 -0.659613 0.302292 
-0.98247 -0.145072 0.117078 0.274027 0.956424 0.100807 0.26061 -0.456391 0.850758 
-0.10338 -0.576736 0.810363 0.371017 -0.414693 0.830889 -0.256249 -0.533506 0.806044 
0.772955 -0.0052196 0.634439 -0.407718 -0.312083 0.85812 0.512712 0.0116117 0.858482 
0.556769 0.223087 0.80015 0.574407 0.21699 0.789286 0.652877 0.57415 0.494069 
-0.885308 -0.321974 0.335504 -0.625531 -0.620123 0.473454 -0.564869 -0.469832 0.678367 
-0.746763 -0.132964 0.651664 0.607344 0.727346 0.319533 -0.892288 0.221412 0.393445 
0.442387 0.890169 0.109056 -0.530358 0.818276 0.221688 -0.0901776 0.950227 0.298224 
0.664355 -0.240566 0.707644 -0.169438 -0.345762 0.922897 0.170594 -0.190811 0.96669 
0.247264 -0.292605 0.923712 -0.357301 -0.514822 0.779291 0.090567 -0.211703 0.973129 
0.389789 -0.00604529 0.920884 -0.504846 -0.644644 0.574078 -0.529973 -0.271033 0.803535 
-0.561623 0.217422 0.798315 -0.592016 0.599463 0.538666 0.343343 0.807569 0.479528 
-0.357843 0.77576 0.519754 0.143024 0.844372 0.516314 0.167855 0.910701 0.377424 
0.0780404 -0.244285 0.966558 -0.213856 -0.349265 0.912293 -0.0351941 -0.267435 0.962933 
0.552556 0.301182 0.777156 -0.219557 -0.299826 0.928385 -0.373979 -0.289507 0.881094 
-0.211565 -0.211363 0.954236 -0.482007 -0.104887 0.869867 0.364954 0.595343 0.715804 
0.575247 0.494855 0.651314 -0.550058 0.173779 0.816846 -0.269892 0.104889 0.957161 
0.432644 0.66101 0.613095 -0.354127 0.441499 0.824423 0.0196979 0.727171 0.686173 
0.463943 0.358166 0.810231 -0.256714 -0.216967 0.941819 0.0502683 -0.125637 0.990802 
0.127975 0.100332 0.986689 -0.013026 0.173704 0.984712 0.219367 0.0766906 0.972624 
-0.16642 0.0234286 0.985777 -0.0295007 0.233725 0.971855 0.259181 0.265326 0.92867 
-0.139025 0.260076 0.955527 0.00416739 0.322178 0.94667 0.243816 0.555739 0.794801 
-0.19366 0.648789 0.735914 
