# vtk DataFile Version 4.2
vtk output
ASCII
DATASET POLYDATA
POINTS 350 float
248.942 198.542 223.787 244.112 200.383 223.532 249.429 200.429 223.008 
244.14 201.855 223.063 252.755 201.124 223.208 241.844 202.935 223.563 
247.529 203.611 222.681 242.04 204.512 223.416 250.988 197.693 224.823 
245.511 198.258 224.512 251.172 197.991 224.52 242.461 200.272 224.415 
256.105 200.786 224.328 241.432 205.794 223.921 240.934 206.304 224.259 
242.66 207.397 223.942 256.637 208.607 223.614 275.595 217.174 224.355 
264.384 218.384 224.209 268.615 218.575 224.101 275.914 218.241 224.722 
273.151 219.052 224.581 275.307 219.105 225.09 249.673 196.755 225.899 
243.467 199.086 224.936 255.922 199.821 224.929 256.246 199.285 225.68 
258.686 200.726 225.442 259.115 200.448 225.873 239.528 202.018 225.696 
238.811 204.103 225.452 238.452 203.88 225.848 238.565 205.432 225.658 
238.659 205.761 225.634 240.482 208.473 225.529 280.817 208.842 225.638 
261.152 210.216 223.941 277.373 210.351 224.753 281.052 209.273 225.676 
281.328 209.526 225.857 242.891 210.417 225.195 279.722 210.957 225.085 
280.988 210.557 225.609 247.79 212.905 224.736 248.855 212.955 224.551 
280.778 212.311 225.631 247.339 213.384 225.051 249.797 213.962 224.727 
279.225 213.561 225.026 281.123 212.879 225.998 249.294 214.427 225.024 
280.389 214.271 225.775 261.859 215.667 224.042 278.858 215.185 225.129 
280.872 214.585 226.266 279.687 216.335 225.892 260.764 217.617 224.478 
276.884 217.572 224.877 258.55 218.402 225.038 278.921 217.535 225.82 
257.312 218.917 225.567 261.512 219.197 225.034 260.462 219.807 225.631 
277.627 218.927 225.992 261.262 220.354 226.06 269.076 220.81 225.344 
246.966 196.759 226.135 248.287 196.452 226.66 250.248 196.621 226.696 
244.279 197.804 226.225 253.564 197.739 226.07 255.575 198.519 226.424 
258.183 199.741 226.161 240.199 200.622 226.339 259.986 200.477 226.463 
238.178 203.644 226.455 264.277 202.876 226.175 238.073 205.056 226.289 
281.254 205.429 226.566 281.508 205.091 226.823 280.841 206.322 226.201 
238.767 206.686 226.013 274.411 207.239 225.526 280.115 207.232 225.79 
281.704 207.214 226.534 282 208.16 226.818 281.696 209.518 226.273 
282.038 209.98 226.803 244.112 212.618 226.087 282.025 211.734 226.937 
245.922 213.714 225.83 281.917 212.516 227.009 247.405 215.291 226.41 
280.93 214.972 226.499 249.436 216.439 226.535 280.114 216.471 226.284 
280.228 216.75 226.598 252.9 218.048 226.614 278.89 217.912 226.021 
253.962 218.703 226.898 279.041 218.124 226.44 258.033 220.177 226.877 
275.497 219.957 225.988 276.742 219.655 226.544 259.5 220.413 226.732 
261.518 220.747 226.654 263.975 220.957 226.021 272.088 221.091 226.11 
272.655 221.097 226.42 269.197 221.454 226.294 271.634 221.315 226.335 
246.814 196.501 227.103 250.278 196.528 227.377 244.64 197.404 227.109 
253.842 197.585 227.104 241.149 199.593 226.832 256.871 198.876 227.212 
258.932 199.831 226.778 259.646 200.135 227.014 281.18 203.063 227.586 
281.057 203.204 227.428 281.545 203.197 227.585 281.425 203.062 227.645 
281.573 203.159 227.728 238.475 202.741 226.752 266.74 203.362 227.053 
266.884 203.251 227.442 280.948 203.566 227.234 281.653 203.343 227.641 
238.119 203.579 226.92 280.273 203.872 227.093 237.938 204.542 226.677 
237.958 204.259 227.012 271.73 204.936 226.91 271.218 204.591 227.319 
271.435 205.295 226.469 274.236 205.188 226.954 275.71 205.478 226.558 
281.873 206.101 226.986 238.677 207.392 227.018 282.186 209.453 227.295 
240.586 210.004 227.407 282.182 211.243 227.375 281.749 213.29 227.116 
245.482 214.782 227.692 280.962 215.7 227.541 280.419 216.776 227.057 
254.357 219.075 227.608 278.589 218.828 226.954 259.112 220.524 227.316 
260.129 220.651 227.273 262.152 221.008 227.123 272.664 221.24 226.835 
267.818 221.64 226.812 269.719 221.626 226.824 246.871 196.448 227.479 
254.746 197.925 227.899 241.359 199.428 227.606 257.559 199.125 227.676 
258.916 199.716 227.868 239.303 201.399 227.632 280.846 203.147 227.527 
281.283 203.015 227.756 281.455 203.036 227.776 281.363 203.044 227.848 
266.722 203.163 227.755 267.301 203.41 227.965 280.446 203.276 227.56 
280.421 203.253 227.744 280.121 203.417 227.665 281.474 203.188 227.898 
270.912 204.422 227.541 271.224 204.53 227.73 278.346 204.223 227.612 
281.796 203.989 227.818 272.857 204.899 227.338 272.185 204.76 227.684 
275.461 204.914 227.73 276.563 204.756 227.629 237.973 204.78 227.426 
282.017 206.055 227.732 238.595 207.293 227.769 282.186 208.912 227.79 
240.184 209.569 228.268 241.592 211.082 227.899 282.166 211.557 227.877 
281.741 213.513 227.7 244.841 214.323 228.116 280.833 215.868 228.152 
249.118 216.736 228.021 280.335 217.117 227.453 280 217.564 227.546 
280.288 217.191 227.799 249.491 216.918 227.874 279.159 218.392 227.746 
258.455 220.454 227.529 258.903 220.553 227.761 278.039 219.179 227.71 
260.857 220.791 227.859 262.766 221.185 227.808 265.946 221.684 227.855 
267.869 221.759 227.912 271.753 221.497 227.946 271.896 221.486 227.316 
272.584 221.267 228.368 274.353 220.771 228.026 246.79 196.542 228.45 
250.682 196.631 228.31 258.246 199.463 228.155 240.38 200.578 229.121 
280.678 203.213 227.869 281.125 203.171 227.948 238.658 202.714 229.091 
280.122 203.506 227.929 281.051 203.42 228.177 281.339 203.377 228.101 
281.473 203.674 228.195 238.488 203.173 229.156 238.315 203.472 228.833 
267.746 203.765 228.407 279.974 203.916 228.313 280.865 203.662 228.321 
277.29 204.701 228.098 281.659 204.494 228.282 238.216 204.857 228.713 
279.389 204.784 228.778 281.803 204.753 228.14 272.347 205.665 229.063 
282.084 209.305 228.296 239.727 208.831 228.856 241.157 210.493 228.621 
242.211 211.566 228.565 281.948 212.432 228.306 244.41 213.893 228.341 
280.901 215.281 228.562 280.514 216.423 228.344 280.579 215.92 228.685 
249.599 216.71 228.583 280.064 217.471 227.997 250.642 217.227 228.377 
279.953 217.482 228.259 278.645 218.684 228.176 257.788 220.182 228.323 
277.079 219.585 228.439 259.677 220.417 228.648 261.896 220.871 228.449 
263.549 221.322 228.277 267.374 221.673 228.452 272.416 221.219 228.887 
263.301 221.187 228.675 271.925 221.222 229.137 246.892 196.777 229.355 
248.008 196.638 229.237 244.488 197.7 229.203 243.803 198.341 229.745 
259.258 200.279 229.02 239.064 202.624 229.766 238.616 203.38 229.52 
281.306 203.975 228.365 268.02 204.523 229.159 269.976 205.369 229.272 
266.736 206.073 230.234 276.163 206.289 229.369 238.499 206.325 228.949 
238.96 207.368 229.194 281.824 208.774 228.738 281.487 209.131 229.149 
240.711 209.658 229.091 241.386 210.629 228.785 281.836 210.553 228.769 
242.442 211.692 228.742 242.721 211.722 228.987 281.03 213.815 228.968 
246.168 214.61 228.888 247.539 214.424 229.725 279.719 217.387 228.658 
254.63 218.767 228.948 255.054 219.072 228.81 255.169 218.908 229.052 
277.817 218.726 229.173 257.927 219.975 228.88 276.388 219.599 229.129 
261.153 220.372 229.148 265.074 220.924 229.713 272.455 221.067 229.231 
272.653 220.827 229.492 269.2 221.194 229.545 270.19 221.164 229.519 
247.182 196.91 229.655 243.839 198.612 230.2 241.731 200.157 230.314 
253.222 198.762 230.71 257.919 199.941 229.492 239.774 201.902 230.153 
240.043 201.855 230.354 238.963 203.226 229.919 239.09 203.812 230.192 
239.538 204.936 230.579 239.762 206.413 230.421 240.137 206.757 230.567 
267.051 206.915 230.418 240.576 208.952 229.549 278.262 209.224 230.211 
281.046 208.6 229.441 279.751 209.863 230.02 242.421 210.957 229.389 
264.907 210.98 231.183 280.906 211.198 229.522 246.067 212.98 230.025 
247.069 213.011 230.306 280.124 212.402 229.846 278.827 216.179 230.015 
260.101 217.771 230.79 256.778 218.407 229.841 277.218 218.121 230.044 
261.736 219.34 230.362 265.95 220.458 230.245 271.633 220.205 230.321 
272.813 219.73 230.397 273.387 220.151 229.942 269.964 220.334 230.398 
245.806 198.016 230.548 247.142 197.866 230.705 244.192 198.753 230.534 
252.035 198.368 230.811 255.221 199.727 230.709 242.4 200.744 231.175 
253.472 200.088 231.587 254.225 200.889 231.726 240.983 203.162 231.376 
240.628 204.679 231.36 243.471 207.311 231.62 247.1 209.07 231.654 
273.921 215.948 231.242 277.159 215.614 230.815 267.957 216.878 231.434 
261.362 217.803 231.008 273.555 217.512 231.118 276.909 217.045 230.615 
265.493 219.275 230.888 271.213 219.649 230.69 246.612 199.135 231.452 
247.43 199.784 231.857 251.24 199.474 231.69 244.446 201.779 232.039 
246.278 201.504 232.231 250.889 201.994 232.401 251.531 204.536 232.461 
241.622 205.815 231.589 242.98 205.8 231.893 
POLYGONS 696 2784
3 1 0 9 
3 0 4 10 
3 0 1 3 
3 4 0 2 
3 0 3 6 
3 2 0 6 
3 3 5 6 
3 6 5 7 
3 4 2 6 
3 4 6 16 
3 9 0 66 
3 0 8 66 
3 10 8 0 
3 1 24 11 
3 24 1 9 
3 1 11 3 
3 11 5 3 
3 5 30 13 
3 5 13 7 
3 34 13 14 
3 34 15 13 
3 13 15 7 
3 6 7 15 
3 16 6 15 
3 19 21 17 
3 21 19 65 
3 22 20 17 
3 22 17 21 
3 67 66 23 
3 69 9 66 
3 66 8 23 
3 4 8 10 
3 8 4 70 
3 24 69 11 
3 9 69 24 
3 4 25 26 
3 4 12 25 
3 12 26 25 
3 72 26 27 
3 27 26 12 
3 72 27 28 
3 29 11 73 
3 4 27 12 
3 74 28 27 
3 31 30 29 
3 5 11 30 
3 11 29 30 
3 30 31 131 
3 135 27 4 
3 77 30 131 
3 30 77 32 
3 32 33 30 
3 30 33 13 
3 33 81 13 
3 13 81 14 
3 16 135 4 
3 14 81 34 
3 37 42 35 
3 42 38 35 
3 40 15 34 
3 135 16 36 
3 35 82 37 
3 39 38 42 
3 16 15 43 
3 42 37 41 
3 40 88 15 
3 43 15 88 
3 16 47 58 
3 135 36 52 
3 82 135 19 
3 45 41 37 
3 42 41 45 
3 86 42 45 
3 90 43 88 
3 44 16 43 
3 16 44 47 
3 52 36 58 
3 135 52 18 
3 135 18 19 
3 37 82 19 
3 48 37 53 
3 45 37 48 
3 45 91 86 
3 43 90 46 
3 92 43 46 
3 43 92 44 
3 47 44 92 
3 36 16 58 
3 49 45 48 
3 49 91 45 
3 47 92 50 
3 94 47 50 
3 53 37 17 
3 51 48 53 
3 49 48 51 
3 51 143 49 
3 37 19 17 
3 95 51 53 
3 93 54 51 
3 93 51 95 
3 143 51 54 
3 58 47 60 
3 52 58 56 
3 55 95 53 
3 52 56 61 
3 52 61 18 
3 57 53 17 
3 55 53 59 
3 20 57 17 
3 20 22 57 
3 22 63 57 
3 53 57 63 
3 98 59 63 
3 63 59 53 
3 62 58 60 
3 56 58 62 
3 61 56 62 
3 18 61 64 
3 62 60 104 
3 18 106 19 
3 106 65 19 
3 110 107 21 
3 107 102 21 
3 22 21 102 
3 61 62 64 
3 18 64 106 
3 65 106 153 
3 110 21 65 
3 102 107 108 
3 111 66 155 
3 66 67 155 
3 113 69 111 
3 111 69 66 
3 23 8 68 
3 70 4 71 
3 115 11 69 
3 26 71 4 
3 71 26 116 
3 26 72 116 
3 11 115 73 
3 31 29 124 
3 135 76 27 
3 31 124 75 
3 79 127 78 
3 33 32 77 
3 127 82 80 
3 78 127 80 
3 79 78 80 
3 33 77 81 
3 80 82 83 
3 84 80 83 
3 79 80 84 
3 83 82 35 
3 84 83 35 
3 85 84 35 
3 81 139 141 
3 141 34 81 
3 39 35 38 
3 39 86 35 
3 86 85 35 
3 86 140 85 
3 39 42 86 
3 87 140 86 
3 34 88 40 
3 142 87 86 
3 89 142 86 
3 144 88 34 
3 86 91 89 
3 144 90 88 
3 144 92 90 
3 90 92 46 
3 50 92 94 
3 54 93 143 
3 193 94 92 
3 47 94 60 
3 95 55 96 
3 55 59 96 
3 60 94 97 
3 97 99 60 
3 63 148 98 
3 100 98 148 
3 59 98 100 
3 60 99 147 
3 101 104 60 
3 102 103 22 
3 103 63 22 
3 104 101 195 
3 64 62 105 
3 64 105 151 
3 106 64 151 
3 65 154 110 
3 205 102 108 
3 102 205 103 
3 153 106 151 
3 109 65 153 
3 154 65 109 
3 203 107 110 
3 108 107 203 
3 112 23 68 
3 68 207 112 
3 70 114 8 
3 8 114 68 
3 113 254 69 
3 70 156 114 
3 71 156 70 
3 157 115 69 
3 72 158 116 
3 72 117 158 
3 72 28 117 
3 117 28 118 
3 28 74 118 
3 29 73 160 
3 115 160 73 
3 76 74 27 
3 118 74 76 
3 121 119 120 
3 119 121 122 
3 122 121 123 
3 29 160 124 
3 76 125 165 
3 165 125 126 
3 127 120 167 
3 120 127 121 
3 128 123 121 
3 75 131 31 
3 75 129 131 
3 124 129 75 
3 135 125 76 
3 166 126 125 
3 173 130 169 
3 167 169 130 
3 167 130 127 
3 132 131 129 
3 134 133 175 
3 178 137 173 
3 79 121 127 
3 79 128 121 
3 133 125 135 
3 175 133 135 
3 175 135 136 
3 136 137 178 
3 130 173 137 
3 138 128 79 
3 137 136 135 
3 82 130 137 
3 127 130 82 
3 137 135 82 
3 138 79 85 
3 79 84 85 
3 139 229 141 
3 140 87 185 
3 87 142 185 
3 144 184 233 
3 144 34 184 
3 49 143 91 
3 143 93 145 
3 193 92 189 
3 95 145 93 
3 96 190 146 
3 96 146 95 
3 95 146 145 
3 97 94 193 
3 99 97 239 
3 96 59 190 
3 190 59 100 
3 148 190 100 
3 60 147 101 
3 63 103 148 
3 103 243 148 
3 104 195 149 
3 62 104 150 
3 104 149 150 
3 62 150 105 
3 152 205 108 
3 108 203 152 
3 67 252 155 
3 23 112 67 
3 67 112 252 
3 111 206 113 
3 113 206 253 
3 155 206 111 
3 114 207 68 
3 113 253 254 
3 156 71 116 
3 117 118 159 
3 161 162 168 
3 161 120 119 
3 161 119 162 
3 163 164 162 
3 163 162 122 
3 122 162 119 
3 122 123 163 
3 126 166 165 
3 167 168 169 
3 161 168 167 
3 161 167 120 
3 163 170 164 
3 170 163 123 
3 170 123 128 
3 125 171 166 
3 125 133 171 
3 134 171 133 
3 134 175 176 
3 134 176 172 
3 134 172 171 
3 174 128 180 
3 131 179 77 
3 131 132 179 
3 132 129 179 
3 136 176 175 
3 177 176 136 
3 178 177 136 
3 128 138 180 
3 81 77 139 
3 77 181 139 
3 138 85 180 
3 180 85 182 
3 141 229 183 
3 85 140 182 
3 141 230 184 
3 184 34 141 
3 142 89 185 
3 185 89 232 
3 91 186 232 
3 143 186 91 
3 232 89 91 
3 143 145 186 
3 186 145 234 
3 144 189 92 
3 145 235 188 
3 188 234 145 
3 190 191 192 
3 190 192 235 
3 190 235 146 
3 146 235 145 
3 97 193 239 
3 190 194 191 
3 99 239 147 
3 194 190 148 
3 101 147 242 
3 101 242 195 
3 148 243 197 
3 196 149 195 
3 196 244 149 
3 149 244 150 
3 105 150 198 
3 150 244 198 
3 105 198 151 
3 151 199 153 
3 246 200 153 
3 200 247 153 
3 247 201 153 
3 154 201 110 
3 201 202 110 
3 110 202 203 
3 203 202 152 
3 202 204 152 
3 205 152 204 
3 109 153 201 
3 154 109 201 
3 206 155 252 
3 207 252 112 
3 251 253 206 
3 207 114 156 
3 292 156 116 
3 157 290 209 
3 290 157 254 
3 254 157 69 
3 117 208 158 
3 208 117 159 
3 157 209 115 
3 118 255 159 
3 209 256 160 
3 209 160 115 
3 76 165 118 
3 162 210 168 
3 210 162 211 
3 162 164 211 
3 256 212 160 
3 168 213 169 
3 168 210 213 
3 213 210 221 
3 214 211 215 
3 214 221 211 
3 221 210 211 
3 170 216 215 
3 170 215 211 
3 170 211 164 
3 170 128 216 
3 212 217 129 
3 160 129 124 
3 212 129 160 
3 166 219 165 
3 219 166 171 
3 173 169 213 
3 220 213 221 
3 128 174 216 
3 129 217 218 
3 172 176 227 
3 172 227 171 
3 178 173 222 
3 177 178 222 
3 173 213 222 
3 222 213 225 
3 225 213 220 
3 223 216 226 
3 174 180 226 
3 216 174 226 
3 129 224 179 
3 218 224 129 
3 260 219 171 
3 227 260 171 
3 177 222 176 
3 226 180 303 
3 263 77 224 
3 224 77 179 
3 222 227 176 
3 225 262 222 
3 77 263 181 
3 229 181 263 
3 180 182 265 
3 229 139 181 
3 265 182 228 
3 182 140 228 
3 228 140 269 
3 141 183 267 
3 267 230 141 
3 140 185 269 
3 184 230 268 
3 231 184 268 
3 184 231 270 
3 270 233 184 
3 233 187 144 
3 144 187 189 
3 188 235 236 
3 236 234 188 
3 189 237 193 
3 192 191 238 
3 276 147 239 
3 238 191 240 
3 191 194 240 
3 192 238 240 
3 148 241 194 
3 197 243 279 
3 241 148 197 
3 279 241 197 
3 195 242 280 
3 196 195 280 
3 151 198 245 
3 282 199 245 
3 199 151 245 
3 199 246 153 
3 282 246 199 
3 247 286 201 
3 202 250 204 
3 248 204 250 
3 248 285 204 
3 204 285 205 
3 205 243 103 
3 246 282 249 
3 283 246 249 
3 283 200 246 
3 247 200 283 
3 288 251 206 
3 206 252 288 
3 321 253 251 
3 207 291 252 
3 156 292 207 
3 158 292 116 
3 159 292 208 
3 208 292 158 
3 159 255 292 
3 256 209 293 
3 165 219 118 
3 215 216 214 
3 217 257 218 
3 257 217 212 
3 221 214 258 
3 214 216 258 
3 220 221 258 
3 258 216 223 
3 218 263 224 
3 259 261 219 
3 225 220 258 
3 226 303 223 
3 259 260 261 
3 219 260 259 
3 227 222 262 
3 258 302 225 
3 223 303 258 
3 262 300 260 
3 227 262 260 
3 258 303 302 
3 264 229 263 
3 225 302 262 
3 180 265 303 
3 266 303 265 
3 228 266 265 
3 269 266 228 
3 231 271 270 
3 270 271 233 
3 269 185 232 
3 186 272 232 
3 187 233 308 
3 273 187 308 
3 309 274 273 
3 186 234 272 
3 189 187 273 
3 189 273 274 
3 189 274 237 
3 236 235 311 
3 311 234 236 
3 193 237 239 
3 239 237 274 
3 276 239 274 
3 275 235 192 
3 275 194 279 
3 275 240 194 
3 192 240 275 
3 147 276 277 
3 276 278 277 
3 194 241 279 
3 242 147 280 
3 147 277 280 
3 244 196 280 
3 245 198 282 
3 198 244 282 
3 282 283 249 
3 284 250 285 
3 284 285 248 
3 205 285 319 
3 281 243 205 
3 319 281 205 
3 247 283 320 
3 202 201 287 
3 201 286 287 
3 202 287 250 
3 248 250 284 
3 288 322 251 
3 322 321 251 
3 252 322 288 
3 324 322 252 
3 291 324 252 
3 289 254 323 
3 323 254 253 
3 323 253 321 
3 289 290 254 
3 325 291 207 
3 292 325 207 
3 292 255 325 
3 294 293 209 
3 294 209 290 
3 118 219 255 
3 255 219 325 
3 256 295 212 
3 257 296 218 
3 257 212 295 
3 257 295 296 
3 296 295 256 
3 218 296 263 
3 263 296 297 
3 219 261 325 
3 298 263 297 
3 306 325 261 
3 264 263 298 
3 261 260 300 
3 261 300 306 
3 229 264 298 
3 229 298 299 
3 301 229 299 
3 229 301 183 
3 267 183 301 
3 267 301 230 
3 331 305 301 
3 305 230 301 
3 332 305 331 
3 262 306 300 
3 303 304 302 
3 266 304 303 
3 268 230 305 
3 332 308 305 
3 332 274 309 
3 347 306 312 
3 304 310 302 
3 307 310 304 
3 266 307 304 
3 269 307 266 
3 268 305 231 
3 271 231 305 
3 308 271 305 
3 332 309 308 
3 262 335 306 
3 302 334 262 
3 308 233 271 
3 334 333 262 
3 269 310 307 
3 273 308 309 
3 262 333 335 
3 310 334 302 
3 272 334 310 
3 269 272 310 
3 269 232 272 
3 347 313 274 
3 334 338 333 
3 272 311 334 
3 272 234 311 
3 312 313 347 
3 274 313 276 
3 312 280 313 
3 275 314 311 
3 235 275 311 
3 336 280 312 
3 275 279 314 
3 278 276 313 
3 336 282 280 
3 315 282 336 
3 319 314 281 
3 278 313 277 
3 280 277 313 
3 283 339 316 
3 285 318 319 
3 317 318 285 
3 314 243 281 
3 279 243 314 
3 282 244 280 
3 339 282 315 
3 283 282 339 
3 320 283 316 
3 285 250 317 
3 286 247 320 
3 287 286 320 
3 317 250 287 
3 326 290 289 
3 323 326 289 
3 291 343 324 
3 291 325 328 
3 327 291 328 
3 290 329 294 
3 290 326 329 
3 293 294 329 
3 328 325 347 
3 293 329 296 
3 256 293 296 
3 329 297 296 
3 297 329 330 
3 330 348 297 
3 348 298 297 
3 306 347 325 
3 299 298 348 
3 348 349 331 
3 348 301 299 
3 331 301 348 
3 347 274 332 
3 312 306 336 
3 333 340 335 
3 337 340 333 
3 335 339 306 
3 338 337 333 
3 311 314 334 
3 306 339 336 
3 334 314 338 
3 339 315 336 
3 335 316 339 
3 340 320 335 
3 338 319 337 
3 314 319 338 
3 320 316 335 
3 317 340 337 
3 318 317 337 
3 337 319 318 
3 340 287 320 
3 317 287 340 
3 321 345 323 
3 321 322 341 
3 345 321 341 
3 341 322 324 
3 326 323 345 
3 324 342 341 
3 345 344 326 
3 291 327 343 
3 329 326 344 
3 342 345 341 
3 324 343 342 
3 327 328 343 
3 328 347 343 
3 347 346 343 
3 344 349 329 
3 343 345 342 
3 329 348 330 
3 345 331 344 
3 343 346 345 
3 349 348 329 
3 344 331 349 
3 345 332 331 
3 346 347 345 
3 347 332 345 

POINT_DATA 350
COLOR_SCALARS scalars 3
1 0.564706 0.623529 1 0.564706 0.623529 1 0.564706 0.623529 
1 0.564706 0.623529 1 0.564706 0.623529 
1 0.564706 0.623529 1 0.564706 0.623529 
1 0.564706 0.623529 1 0.564706 0.623529 
1 0.564706 0.623529 1 0.564706 0.623529 
1 0.564706 0.623529 1 0.564706 0.623529 
1 0.564706 0.623529 1 0.564706 0.623529 
1 0.564706 0.623529 1 0.564706 0.623529 
1 0.564706 0.623529 1 0.564706 0.623529 
1 0.564706 0.623529 1 0.564706 0.623529 
1 0.564706 0.623529 1 0.564706 0.623529 
1 0.564706 0.623529 1 0.564706 0.623529 
1 0.564706 0.623529 1 0.564706 0.623529 
1 0.564706 0.623529 1 0.564706 0.623529 
1 0.564706 0.623529 1 0.564706 0.623529 
1 0.564706 0.623529 1 0.564706 0.623529 
1 0.564706 0.623529 1 0.564706 0.623529 
1 0.564706 0.623529 1 0.564706 0.623529 
1 0.564706 0.623529 1 0.564706 0.623529 
1 0.564706 0.623529 1 0.564706 0.623529 
1 0.564706 0.623529 1 0.564706 0.623529 
1 0.564706 0.623529 1 0.564706 0.623529 
1 0.564706 0.623529 1 0.564706 0.623529 
1 0.564706 0.623529 1 0.564706 0.623529 
1 0.564706 0.623529 1 0.564706 0.623529 
1 0.564706 0.623529 1 0.564706 0.623529 
1 0.564706 0.623529 1 0.564706 0.623529 
1 0.564706 0.623529 1 0.564706 0.623529 
1 0.564706 0.623529 1 0.564706 0.623529 
1 0.564706 0.623529 1 0.564706 0.623529 
1 0.564706 0.623529 1 0.564706 0.623529 
1 0.564706 0.623529 1 0.564706 0.623529 
1 0.564706 0.623529 1 0.564706 0.623529 
1 0.564706 0.623529 1 0.564706 0.623529 
1 0.564706 0.623529 1 0.564706 0.623529 
1 0.564706 0.623529 1 0.564706 0.623529 
1 0.564706 0.623529 1 0.564706 0.623529 
1 0.564706 0.623529 1 0.564706 0.623529 
1 0.564706 0.623529 1 0.564706 0.623529 
1 0.564706 0.623529 1 0.564706 0.623529 
1 0.564706 0.623529 1 0.564706 0.623529 
1 0.564706 0.623529 1 0.564706 0.623529 
1 0.564706 0.623529 1 0.564706 0.623529 
1 0.564706 0.623529 1 0.564706 0.623529 
1 0.564706 0.623529 1 0.564706 0.623529 
1 0.564706 0.623529 1 0.564706 0.623529 
1 0.564706 0.623529 1 0.564706 0.623529 
1 0.564706 0.623529 1 0.564706 0.623529 
1 0.564706 0.623529 1 0.564706 0.623529 
1 0.564706 0.623529 1 0.564706 0.623529 
1 0.564706 0.623529 1 0.564706 0.623529 
1 0.564706 0.623529 1 0.564706 0.623529 
1 0.564706 0.623529 1 0.564706 0.623529 
1 0.564706 0.623529 1 0.564706 0.623529 
1 0.564706 0.623529 1 0.564706 0.623529 
1 0.564706 0.623529 1 0.564706 0.623529 
1 0.564706 0.623529 1 0.564706 0.623529 
1 0.564706 0.623529 1 0.564706 0.623529 
1 0.564706 0.623529 1 0.564706 0.623529 
1 0.564706 0.623529 1 0.564706 0.623529 
1 0.564706 0.623529 1 0.564706 0.623529 
1 0.564706 0.623529 1 0.564706 0.623529 
1 0.564706 0.623529 1 0.564706 0.623529 
1 0.564706 0.623529 1 0.564706 0.623529 
1 0.564706 0.623529 1 0.564706 0.623529 
1 0.564706 0.623529 1 0.564706 0.623529 
1 0.564706 0.623529 1 0.564706 0.623529 
1 0.564706 0.623529 1 0.564706 0.623529 
1 0.564706 0.623529 1 0.564706 0.623529 
1 0.564706 0.623529 1 0.564706 0.623529 
1 0.564706 0.623529 1 0.564706 0.623529 
1 0.564706 0.623529 1 0.564706 0.623529 
1 0.564706 0.623529 1 0.564706 0.623529 
1 0.564706 0.623529 1 0.564706 0.623529 
1 0.564706 0.623529 1 0.564706 0.623529 
1 0.564706 0.623529 1 0.564706 0.623529 
1 0.564706 0.623529 1 0.564706 0.623529 
1 0.564706 0.623529 1 0.564706 0.623529 
1 0.564706 0.623529 1 0.564706 0.623529 
1 0.564706 0.623529 1 0.564706 0.623529 
1 0.564706 0.623529 1 0.564706 0.623529 
1 0.564706 0.623529 1 0.564706 0.623529 
1 0.564706 0.623529 1 0.564706 0.623529 
1 0.564706 0.623529 1 0.564706 0.623529 
1 0.564706 0.623529 1 0.564706 0.623529 
1 0.564706 0.623529 1 0.564706 0.623529 
1 0.564706 0.623529 1 0.564706 0.623529 
1 0.564706 0.623529 1 0.564706 0.623529 
1 0.564706 0.623529 1 0.564706 0.623529 
1 0.564706 0.623529 1 0.564706 0.623529 
1 0.564706 0.623529 1 0.564706 0.623529 
1 0.564706 0.623529 1 0.564706 0.623529 
1 0.564706 0.623529 1 0.564706 0.623529 
1 0.564706 0.623529 1 0.564706 0.623529 
1 0.564706 0.623529 1 0.564706 0.623529 
1 0.564706 0.623529 1 0.564706 0.623529 
1 0.564706 0.623529 1 0.564706 0.623529 
1 0.564706 0.623529 1 0.564706 0.623529 
1 0.564706 0.623529 1 0.564706 0.623529 
1 0.564706 0.623529 1 0.564706 0.623529 
1 0.564706 0.623529 1 0.564706 0.623529 
1 0.564706 0.623529 1 0.564706 0.623529 
1 0.564706 0.623529 1 0.564706 0.623529 
1 0.564706 0.623529 1 0.564706 0.623529 
1 0.564706 0.623529 1 0.564706 0.623529 
1 0.564706 0.623529 1 0.564706 0.623529 
1 0.564706 0.623529 1 0.564706 0.623529 
1 0.564706 0.623529 1 0.564706 0.623529 
1 0.564706 0.623529 1 0.564706 0.623529 
1 0.564706 0.623529 1 0.564706 0.623529 
1 0.564706 0.623529 1 0.564706 0.623529 
1 0.564706 0.623529 1 0.564706 0.623529 
1 0.564706 0.623529 1 0.564706 0.623529 
1 0.564706 0.623529 1 0.564706 0.623529 
1 0.564706 0.623529 1 0.564706 0.623529 
1 0.564706 0.623529 1 0.564706 0.623529 
1 0.564706 0.623529 1 0.564706 0.623529 
1 0.564706 0.623529 1 0.564706 0.623529 
1 0.564706 0.623529 1 0.564706 0.623529 
1 0.564706 0.623529 1 0.564706 0.623529 
1 0.564706 0.623529 1 0.564706 0.623529 
1 0.564706 0.623529 1 0.564706 0.623529 
1 0.564706 0.623529 1 0.564706 0.623529 
1 0.564706 0.623529 1 0.564706 0.623529 
1 0.564706 0.623529 1 0.564706 0.623529 
1 0.564706 0.623529 1 0.564706 0.623529 
1 0.564706 0.623529 1 0.564706 0.623529 
1 0.564706 0.623529 1 0.564706 0.623529 
1 0.564706 0.623529 1 0.564706 0.623529 
1 0.564706 0.623529 1 0.564706 0.623529 
1 0.564706 0.623529 1 0.564706 0.623529 
1 0.564706 0.623529 1 0.564706 0.623529 
1 0.564706 0.623529 1 0.564706 0.623529 
1 0.564706 0.623529 1 0.564706 0.623529 
1 0.564706 0.623529 1 0.564706 0.623529 
1 0.564706 0.623529 1 0.564706 0.623529 
1 0.564706 0.623529 1 0.564706 0.623529 
1 0.564706 0.623529 1 0.564706 0.623529 
1 0.564706 0.623529 1 0.564706 0.623529 
1 0.564706 0.623529 1 0.564706 0.623529 
1 0.564706 0.623529 1 0.564706 0.623529 
1 0.564706 0.623529 1 0.564706 0.623529 
1 0.564706 0.623529 1 0.564706 0.623529 
1 0.564706 0.623529 1 0.564706 0.623529 
1 0.564706 0.623529 1 0.564706 0.623529 
1 0.564706 0.623529 1 0.564706 0.623529 
1 0.564706 0.623529 1 0.564706 0.623529 
1 0.564706 0.623529 1 0.564706 0.623529 
1 0.564706 0.623529 1 0.564706 0.623529 
1 0.564706 0.623529 1 0.564706 0.623529 
1 0.564706 0.623529 1 0.564706 0.623529 
1 0.564706 0.623529 1 0.564706 0.623529 
1 0.564706 0.623529 1 0.564706 0.623529 
1 0.564706 0.623529 1 0.564706 0.623529 
1 0.564706 0.623529 1 0.564706 0.623529 
1 0.564706 0.623529 1 0.564706 0.623529 
1 0.564706 0.623529 1 0.564706 0.623529 
1 0.564706 0.623529 1 0.564706 0.623529 
1 0.564706 0.623529 1 0.564706 0.623529 
1 0.564706 0.623529 1 0.564706 0.623529 
1 0.564706 0.623529 1 0.564706 0.623529 
1 0.564706 0.623529 1 0.564706 0.623529 
1 0.564706 0.623529 1 0.564706 0.623529 
1 0.564706 0.623529 1 0.564706 0.623529 
1 0.564706 0.623529 1 0.564706 0.623529 
1 0.564706 0.623529 1 0.564706 0.623529 
1 0.564706 0.623529 1 0.564706 0.623529 
1 0.564706 0.623529 1 0.564706 0.623529 
1 0.564706 0.623529 1 0.564706 0.623529 
1 0.564706 0.623529 1 0.564706 0.623529 
1 0.564706 0.623529 1 0.564706 0.623529 
1 0.564706 0.623529 1 0.564706 0.623529 
1 0.564706 0.623529 1 0.564706 0.623529 
1 0.564706 0.623529 1 0.564706 0.623529 
1 0.564706 0.623529 
NORMALS Normals float
-0.0300745 -0.513459 -0.857587 -0.282134 -0.460704 -0.841517 -0.0393951 -0.260347 -0.964711 
-0.211616 -0.212981 -0.953865 0.285012 -0.397472 -0.872229 -0.418709 -0.1144 -0.900886 
-0.0775661 -0.00857993 -0.99695 -0.300385 0.0935367 -0.949221 0.27263 -0.825959 -0.493421 
-0.277088 -0.704509 -0.653368 0.474004 -0.658515 -0.584532 -0.525432 -0.525966 -0.668791 
0.433348 -0.284814 -0.855038 -0.469106 0.183207 -0.86393 -0.457895 0.250678 -0.852932 
-0.214338 0.307643 -0.927046 0.0156528 0.0666252 -0.997655 0.159769 0.188002 -0.969087 
-0.0487981 0.315626 -0.947628 -0.0353641 0.154164 -0.987412 0.264399 0.420251 -0.868034 
0.0988502 0.532781 -0.84046 0.277486 0.577124 -0.768069 0.0573335 -0.923466 -0.379373 
-0.468607 -0.680155 -0.563734 0.279263 -0.654108 -0.702961 0.303834 -0.742984 -0.596372 
0.410879 -0.580562 -0.702941 0.417483 -0.71497 -0.560826 -0.697303 -0.462496 -0.5476 
-0.640995 -0.099124 -0.761117 -0.786934 -0.223135 -0.575279 -0.701849 0.0722646 -0.708651 
-0.651056 0.200961 -0.731943 -0.532053 0.542344 -0.650217 0.444893 -0.187594 -0.875716 
0.0377026 -0.00610404 -0.99927 0.126726 -0.0771753 -0.988931 0.521152 -0.134584 -0.842786 
0.696866 -0.149902 -0.701361 -0.336247 0.454433 -0.824881 0.239087 -0.00491291 -0.970986 
0.472146 -0.0397793 -0.880623 -0.217561 0.325338 -0.92023 -0.177156 0.286766 -0.941478 
0.533618 0.102607 -0.839478 -0.241936 0.452258 -0.858446 -0.216237 0.328114 -0.919556 
0.364891 0.099381 -0.925731 0.688226 0.175517 -0.703945 -0.324108 0.36534 -0.872629 
0.597142 0.217419 -0.772107 -0.0267136 0.0991578 -0.994713 0.385869 0.174337 -0.905931 
0.700618 0.203699 -0.683843 0.566446 0.30635 -0.765042 -0.103315 0.322245 -0.941002 
0.415298 0.37715 -0.82782 -0.126986 0.274119 -0.953275 0.579079 0.413256 -0.702771 
-0.239804 0.696157 -0.676653 -0.0844631 0.466646 -0.880402 -0.167523 0.70564 -0.688483 
0.406582 0.573187 -0.71144 -0.119027 0.763717 -0.634483 0.0423982 0.734128 -0.677687 
-0.0848455 -0.881991 -0.463565 -0.000841868 -0.989509 -0.144468 0.27751 -0.933512 -0.227032 
-0.501446 -0.827122 -0.253811 0.372003 -0.812597 -0.448665 0.344105 -0.822802 -0.452316 
0.360987 -0.819246 -0.445561 -0.680174 -0.637085 -0.36261 0.42616 -0.736547 -0.525248 
-0.901536 -0.285602 -0.325061 0.365761 -0.890518 -0.270547 -0.942139 0.226853 -0.246804 
0.438249 -0.22231 -0.870928 0.644511 -0.192949 -0.739849 0.328627 -0.215749 -0.919487 
-0.723625 0.351379 -0.594054 -0.0095338 -0.340356 -0.940248 0.235533 -0.212818 -0.948279 
0.60398 -0.13343 -0.785751 0.88137 -0.0794615 -0.465695 0.78614 0.00218798 -0.618044 
0.950009 -0.0129854 -0.311952 -0.431581 0.54754 -0.716895 0.942382 0.162031 -0.29268 
-0.437733 0.513495 -0.738046 0.897229 0.150714 -0.415048 -0.395287 0.630748 -0.667761 
0.7753 0.32882 -0.539246 -0.285212 0.719079 -0.633703 0.737236 0.272145 -0.618402 
0.707568 0.47753 -0.520877 -0.365938 0.85732 -0.362067 0.585475 0.556784 -0.589245 
-0.367093 0.861178 -0.351589 0.710803 0.53299 -0.459 -0.302119 0.893983 -0.330936 
0.29458 0.805831 -0.513671 0.399233 0.857651 -0.324111 -0.144399 0.890521 -0.431419 
-0.189483 0.914352 -0.357851 -0.114307 0.760669 -0.638996 0.165805 0.821346 -0.545801 
0.262431 0.910181 -0.320471 0.0621603 0.922909 -0.379966 0.0539373 0.933246 -0.355165 
-0.316911 -0.936227 -0.151807 0.131536 -0.989429 -0.0610617 -0.528513 -0.848789 -0.0152145 
0.305027 -0.936765 -0.171549 -0.628761 -0.760386 -0.162706 0.3642 -0.927027 -0.0893301 
0.410614 -0.884182 -0.222751 0.444572 -0.885952 -0.132079 0.0430553 -0.82368 -0.565418 
-0.010457 -0.589511 -0.807693 0.48463 -0.516405 -0.706017 0.361245 -0.831922 -0.421199 
0.82042 -0.571126 0.0269321 -0.846323 -0.464596 -0.260554 0.305271 -0.874233 -0.377526 
0.410629 -0.871393 -0.268437 0.0908248 -0.434224 -0.896214 0.959001 -0.267846 -0.0926101 
-0.949945 -0.306452 0.0607653 -0.220043 -0.6631 -0.715457 -0.959639 -0.0529185 -0.27621 
-0.981228 -0.166192 0.0978399 0.121732 -0.753772 -0.645762 0.148186 -0.921972 -0.357783 
0.162535 -0.550154 -0.819093 0.036609 -0.93738 -0.346379 -0.0932752 -0.786545 -0.610448 
0.882742 -0.130658 -0.451326 -0.856158 0.485895 -0.175782 0.994904 0.00374178 -0.100758 
-0.748516 0.644031 -0.157953 0.96265 0.0609579 -0.263799 0.876575 0.248203 -0.412323 
-0.608174 0.7132 -0.348527 0.926828 0.365292 -0.0869048 0.914279 0.333027 -0.230624 
-0.376944 0.926235 -0.00138928 0.534669 0.812562 -0.232104 -0.0889135 0.989114 -0.117252 
-0.144537 0.97144 -0.188183 -0.154965 0.965709 -0.208306 0.290272 0.949793 -0.116775 