# vtk DataFile Version 4.2
vtk output
ASCII
DATASET POLYDATA
POINTS 475 float
491.069 217.14 209.341 494.108 216.967 209.46 497.161 216.687 210.216 
490.132 218.09 209.091 496.826 217.728 209.41 491.589 218.562 208.862 
494.534 218.445 208.882 502.915 219.552 210.195 487.986 219.875 209.551 
492.14 220.116 208.708 497.143 220.102 208.704 503.128 220.48 209.701 
504.36 220.347 210.376 488.621 220.779 209.407 495.927 220.958 208.615 
502.634 221.74 209.169 505.169 221.855 210.033 504.833 223.192 209.582 
504 223.851 209.353 491.821 215.716 210.24 493.892 215.769 210.342 
495.118 215.511 210.896 487.612 216.114 210.505 497.559 216.621 210.45 
488.047 217.318 209.863 500.048 217.666 210.484 486.216 217.26 211.091 
486.207 219.598 210.768 504.999 220.406 210.991 486.412 220.924 210.758 
506.835 223.315 210.36 507.392 224.242 210.347 498.098 216.462 211.103 
485.969 216.258 211.818 503.893 219.467 211.115 507.459 222.304 211.271 
511.716 225.473 212.022 508.249 227.23 210.391 493.984 227.855 211.403 
512.893 227.62 211.926 507.524 229.52 210.714 486.76 215.212 211.927 
505.34 219.956 212.675 486.268 222.84 211.883 486.251 223.224 212.251 
488.653 225.592 212.195 490.749 226.798 212.022 497.087 230.36 212.246 
498.889 230.804 211.985 506.951 231.066 211.19 502.407 232.141 212.063 
505.279 232.502 211.894 486.129 214.379 213.61 484.462 219.601 212.997 
511.326 224.015 213.237 513.479 226.216 213.01 515.185 227.829 213.586 
515.271 227.583 213.917 515.231 228.411 213.373 493.182 229.845 213.845 
515.369 231.191 213.057 507.038 233.234 212.141 512.122 234.972 213.134 
486.75 213.531 214.6 483.939 220.469 214.626 484.479 221.642 214.23 
492.604 229.93 214.542 502.258 234.941 214.469 510.714 235.796 213.499 
515.359 235.538 214.058 488.442 212.637 215.588 492.296 213.202 215.104 
485.629 214.07 215.13 485.206 214.62 214.979 483.582 217.329 215.541 
517.402 229.527 215.701 517.515 230.566 215.152 517.612 231.368 215.032 
517.573 232.249 214.859 485.939 213.711 215.515 484.081 215.73 216.103 
510.49 222.925 215.625 487.488 226.399 215.812 491.894 230.103 216.113 
500.002 234.899 215.93 518.939 234.744 216.451 503.724 236.888 216.22 
518.159 237.56 216.393 517.398 238.325 216.37 513.182 239.774 216.753 
515.178 239.717 216.9 488.173 212.364 217.408 489.465 212.308 217.332 
503.62 218.748 216.435 518.426 230.509 216.963 519.13 231.634 217.656 
519.207 232.581 217.121 507.643 238.82 217.025 518.961 238.421 217.63 
518.796 238.839 217.821 487.479 212.527 218.391 484.329 215.073 218.295 
483.891 221.341 218.386 518.319 230.091 217.838 520.087 234.929 218.48 
520.029 236.717 218.376 519.059 238.937 218.284 488.574 212.324 218.625 
483.346 217.593 218.337 490.139 229.316 219.027 518.927 231.056 218.877 
519.65 232.75 218.997 520.248 237.132 219.296 518.281 240.28 219.07 
515.758 241.497 219.52 486.859 212.891 219.494 484.028 215.845 219.425 
483.36 218.361 219.165 483.427 219.424 219.332 513.594 225.753 219.656 
518.48 230.367 219.261 519.899 233.52 219.94 520.401 236.51 219.872 
520.238 237.332 220.071 517.856 241.168 220.165 488.683 212.575 220.237 
484.891 214.929 220.717 519.155 232.001 220.977 496.482 234.197 221.143 
516.81 241.988 221.505 485.876 214.156 221.452 484.456 216.214 221.308 
498.959 217.157 221.417 503.549 219.865 221.231 484.206 220.512 221.351 
489.155 228.24 221.976 498.089 235.265 221.604 520.057 235.184 221.68 
519.366 239.917 222.378 518.583 240.941 221.87 487.682 213.141 221.459 
490.49 213.538 222.108 494.197 214.909 222.082 484.343 217.686 221.686 
485.638 223.45 222.696 519.924 237.874 222.744 519.599 239.377 223.048 
508.171 241.048 222.473 514.734 242.773 223.066 487.755 213.846 222.397 
486.57 214.692 222.778 493.343 215.231 223.037 485.885 215.979 223.052 
485.338 216.326 222.636 497.052 217.453 223.491 504.523 221.332 222.727 
507.556 223.335 222.795 491.261 229.943 223.556 517.239 231.256 223.722 
519.819 236.555 223.339 500.694 236.821 224.021 501.996 237.682 223.392 
512.29 242.843 224.827 517.454 242.191 223.852 517.97 241.769 223.951 
515.919 242.841 224.349 489.141 215.496 223.993 490.113 215.4 223.951 
487.031 217.406 224.436 490.559 216.779 224.808 493.397 217.035 224.598 
485.767 221.633 224.094 501.779 222.056 225.052 494.807 232.562 224.804 
495.298 233.046 224.482 497.689 234.656 224.764 502.432 237.744 224.832 
489.314 217.605 225.163 486.499 219.745 224.787 485.917 220.556 224.328 
487.593 224.614 225.173 489.473 227.223 225.222 494.945 232.454 225.295 
497.714 234.457 225.311 498.905 235.285 225.371 519.212 235.823 224.878 
518.9 235.495 225.345 500.644 236.413 225.329 493.143 220.441 226.357 
489.007 222.175 226.436 492.916 222.509 227.038 488.88 224.255 226.28 
488.554 225.567 225.579 491.596 228.957 225.809 509.894 229.812 226.624 
514.014 231.06 225.917 494.134 231.632 225.526 495.483 232.457 225.807 
495.855 232.967 225.516 517.504 233.682 225.736 497.952 234.487 225.556 
498.262 234.467 225.82 518.409 235.243 226.061 501.126 236.245 226.022 
503.32 237.737 226.452 503.975 238.034 227.362 518.251 241.482 227.148 
517.671 242.103 227.394 494.149 225.184 227.4 492.237 226.248 227.098 
492.231 227.197 226.893 491.331 228.157 226.105 494.108 228.094 227.22 
497.044 228.041 227.604 495.086 229.996 226.971 497.019 229.992 227.439 
495.196 231.813 226.114 497.982 231.893 227.171 497.007 233.356 226.006 
497.964 233.688 226.276 512.518 232.772 227.47 515.4 233.236 227.156 
511.22 233.034 227.682 512.023 232.994 227.754 513.049 232.917 227.745 
514.466 233.073 227.746 515.998 233.603 227.735 517.051 234.268 227.345 
509.065 233.637 227.861 518.181 235.401 227.803 503.021 235.916 227.371 
503.69 235.911 227.726 504.463 235.311 227.927 505.299 234.895 227.97 
507.753 234.177 227.955 508.473 233.92 227.938 510.159 233.453 227.905 
518.947 236.819 227.082 502.628 236.945 226.544 503.273 236.842 227.221 
503.75 236.987 228.051 504.054 235.91 228.104 504.789 235.261 228.068 
505.66 234.855 228.027 506.523 234.566 228 504.085 238.053 228.341 
505.912 240.093 227.627 517.106 242.516 227.185 516.087 242.896 227.631 
487.692 221.251 229.815 487.409 222.785 230.072 489.628 223.403 229.051 
489.459 225.114 229.38 488.436 225.586 230.165 494.068 227.935 228.558 
511.151 230.692 228.906 494.173 231.349 230.045 497.972 231.779 228.659 
498.954 231.811 228.468 513.16 231.55 228.999 494.481 231.965 230.411 
512.719 232.13 228.547 513.332 232.717 228.194 514.956 232.982 228.353 
516.48 233.563 228.624 497.935 234.592 230.553 499.91 234.429 229.198 
499.017 235.355 230.611 509.7 233.446 227.979 510.697 233.225 227.959 
518.588 235.864 228.372 500.295 235.882 230.171 504.069 235.407 228.273 
519.135 237.016 228.655 519.499 236.486 230.011 502.173 236.87 229.868 
503.463 236.351 228.595 503.653 237.581 229.019 519.092 239.969 228.418 
519.289 239.596 229.262 519.161 240.231 229.628 519.422 239.66 230.167 
518.876 240.826 229.602 516.858 242.659 228.016 517.328 242.413 228.45 
518.4 241.474 229.469 487.806 218.811 230.154 487.102 218.58 230.501 
489.4 219.323 229.623 486.307 220.347 230.808 495.073 219.364 229.898 
486.163 222.248 231.131 498.238 222.062 229.334 502.659 222.857 230.235 
488.441 226.366 230.813 513.244 230.489 229.684 515.783 230.592 231.004 
498.427 235.101 230.887 499.577 235.866 230.947 518.305 241.616 230.413 
514.096 243.118 229.977 516.48 242.762 229.677 487.207 215.41 231.79 
493.093 215.295 232.131 486.796 217.169 231.109 485.456 217.952 231.972 
498.175 218.006 232.028 485.337 218.93 231.913 485.216 220.822 232.025 
509.102 224.881 232.069 514.767 228.84 231.923 517.933 232.901 230.689 
503.289 238.268 231.266 519.757 239.142 231.704 519.171 240.497 231.084 
518.735 241.142 231.191 489.295 214.044 232.703 490.718 214.475 232.335 
486.16 214.798 232.907 485.425 222.342 232.154 485.467 222.796 232.401 
494.698 232.911 232.805 499.512 236.138 232.374 519.473 240.003 232.673 
486.414 213.987 233.595 490.921 213.416 233.764 486.082 214.196 233.637 
494.513 215.282 232.912 484.356 220.207 233.378 498.024 235.22 232.775 
519.055 240.667 232.81 513.526 242.811 232.21 488.415 212.603 235.112 
486.217 213.905 233.961 494.034 214.285 234.525 484.435 215.886 234.528 
497.044 216.137 233.911 485.899 224.55 234.031 511.518 225.046 234.159 
519.567 233.377 233.237 518.933 240.704 233.667 489.273 212.556 235.215 
484.979 214.811 235.063 483.5 217.519 235.685 484.047 220.808 234.444 
487.783 227.03 234.653 489.84 229.058 234.662 519.89 233.512 234.803 
512.175 241.928 234.55 518.254 241.266 234.31 487.548 212.52 236.576 
486.453 213.112 236.176 518.361 230.381 235.45 519.419 232.123 235.191 
520.363 235.528 235.836 520.452 236.152 235.75 520.433 236.713 235.586 
520.196 237.843 235.735 488.057 212.356 237.136 485.809 213.509 237.371 
495.015 214.215 237.082 498.176 215.949 236.649 485.725 224.767 237.465 
516.803 228.301 236.451 519.323 231.717 236.322 520.379 235.992 236.522 
519.892 237.888 236.675 516.213 241.285 236.308 486.915 212.753 237.601 
489.86 212.377 238.209 483.963 215.789 237.771 483.432 217.055 238.203 
483.6 220.776 237.996 507.063 221.04 237.472 517.034 228.511 238.062 
496.965 233.756 238.144 520.206 236.079 236.992 519.474 238.145 237.298 
518.93 239.208 237.193 516.882 240.643 237.05 486.486 213.15 238.87 
484.326 215.349 239.183 495.096 214.146 239.115 519.271 231.955 237.594 
519.654 234.819 238.075 518.783 238.235 238.225 511.207 239.56 238.642 
515.462 240 238.202 487.647 212.659 239.395 485.392 214.228 239.86 
490.874 212.703 239.756 483.296 218.961 239.415 485.186 223.344 240.636 
514.797 226.236 239.731 518.746 232.65 239.287 505.019 237.591 238.914 
516.554 238.159 239.588 485.659 214.358 241.166 507.846 221.314 240.768 
515.402 227.094 240.463 512.223 237.973 240.34 489.824 212.924 241.244 
483.566 218.556 240.504 508.397 221.751 241.344 515.402 227.662 241.45 
516.625 232.094 241.462 500.133 233.69 241.302 515.78 233.784 241.706 
514.212 234.928 241.913 515.166 234.116 241.881 487.283 213.96 242.505 
[...]
POINT_DATA 475
COLOR_SCALARS scalars 3
1 0.701961 0.85098 1 0.701961 0.85098 1 0.701961 0.85098 
1 0.701961 0.85098 1 0.701961 0.85098 
1 0.701961 0.85098 1 0.701961 0.85098 
1 0.701961 0.85098 1 0.701961 0.85098 
1 0.701961 0.85098 1 0.701961 0.85098 
1 0.701961 0.85098 1 0.701961 0.85098 
1 0.701961 0.85098 1 0.701961 0.85098 
1 0.701961 0.85098 1 0.701961 0.85098 
1 0.701961 0.85098 1 0.701961 0.85098 
1 0.701961 0.85098 1 0.701961 0.85098 
1 0.701961 0.85098 1 0.701961 0.85098 
1 0.701961 0.85098 1 0.701961 0.85098 
1 0.701961 0.85098 1 0.701961 0.85098 
1 0.701961 0.85098 1 0.701961 0.85098 
1 0.701961 0.85098 1 0.701961 0.85098 
1 0.701961 0.85098 1 0.701961 0.85098 
1 0.701961 0.85098 1 0.701961 0.85098 
1 0.701961 0.85098 1 0.701961 0.85098 
1 0.701961 0.85098 1 0.701961 0.85098 
1 0.701961 0.85098 1 0.701961 0.85098 
1 0.701961 0.85098 1 0.701961 0.85098 
1 0.701961 0.85098 1 0.701961 0.85098 
1 0.701961 0.85098 1 0.701961 0.85098 
1 0.701961 0.85098 1 0.701961 0.85098 
1 0.701961 0.85098 1 0.701961 0.85098 
1 0.701961 0.85098 1 0.701961 0.85098 
1 0.701961 0.85098 1 0.701961 0.85098 
1 0.701961 0.85098 1 0.701961 0.85098 
1 0.701961 0.85098 1 0.701961 0.85098 
1 0.701961 0.85098 1 0.701961 0.85098 
1 0.701961 0.85098 1 0.701961 0.85098 
1 0.701961 0.85098 1 0.701961 0.85098 
1 0.701961 0.85098 1 0.701961 0.85098 
1 0.701961 0.85098 1 0.701961 0.85098 
1 0.701961 0.85098 1 0.701961 0.85098 
1 0.701961 0.85098 1 0.701961 0.85098 
1 0.701961 0.85098 1 0.701961 0.85098 
1 0.701961 0.85098 1 0.701961 0.85098 
1 0.701961 0.85098 1 0.701961 0.85098 
1 0.701961 0.85098 1 0.701961 0.85098 
1 0.701961 0.85098 1 0.701961 0.85098 
1 0.701961 0.85098 1 0.701961 0.85098 
1 0.701961 0.85098 1 0.701961 0.85098 
1 0.701961 0.85098 1 0.701961 0.85098 
1 0.701961 0.85098 1 0.701961 0.85098 
1 0.701961 0.85098 1 0.701961 0.85098 
1 0.701961 0.85098 1 0.701961 0.85098 
1 0.701961 0.85098 1 0.701961 0.85098 
1 0.701961 0.85098 1 0.701961 0.85098 
1 0.701961 0.85098 1 0.701961 0.85098 
1 0.701961 0.85098 1 0.701961 0.85098 
1 0.701961 0.85098 1 0.701961 0.85098 
1 0.701961 0.85098 1 0.701961 0.85098 
1 0.701961 0.85098 1 0.701961 0.85098 
1 0.701961 0.85098 1 0.701961 0.85098 
1 0.701961 0.85098 1 0.701961 0.85098 
1 0.701961 0.85098 1 0.701961 0.85098 
1 0.701961 0.85098 1 0.701961 0.85098 
1 0.701961 0.85098 1 0.701961 0.85098 
1 0.701961 0.85098 1 0.701961 0.85098 
1 0.701961 0.85098 1 0.701961 0.85098 
1 0.701961 0.85098 1 0.701961 0.85098 
1 0.701961 0.85098 1 0.701961 0.85098 
1 0.701961 0.85098 1 0.701961 0.85098 
1 0.701961 0.85098 1 0.701961 0.85098 
1 0.701961 0.85098 1 0.701961 0.85098 
1 0.701961 0.85098 1 0.701961 0.85098 
1 0.701961 0.85098 1 0.701961 0.85098 
1 0.701961 0.85098 1 0.701961 0.85098 
1 0.701961 0.85098 1 0.701961 0.85098 
1 0.701961 0.85098 1 0.701961 0.85098 
1 0.701961 0.85098 1 0.701961 0.85098 
1 0.701961 0.85098 1 0.701961 0.85098 
1 0.701961 0.85098 1 0.701961 0.85098 
1 0.701961 0.85098 1 0.701961 0.85098 
1 0.701961 0.85098 1 0.701961 0.85098 
1 0.701961 0.85098 1 0.701961 0.85098 
1 0.701961 0.85098 1 0.701961 0.85098 
1 0.701961 0.85098 1 0.701961 0.85098 
1 0.701961 0.85098 1 0.701961 0.85098 
1 0.701961 0.85098 1 0.701961 0.85098 
1 0.701961 0.85098 1 0.701961 0.85098 
1 0.701961 0.85098 1 0.701961 0.85098 
1 0.701961 0.85098 1 0.701961 0.85098 
1 0.701961 0.85098 1 0.701961 0.85098 
1 0.701961 0.85098 1 0.701961 0.85098 
1 0.701961 0.85098 1 0.701961 0.85098 
1 0.701961 0.85098 1 0.701961 0.85098 
1 0.701961 0.85098 1 0.701961 0.85098 
1 0.701961 0.85098 1 0.701961 0.85098 
1 0.701961 0.85098 1 0.701961 0.85098 
1 0.701961 0.85098 1 0.701961 0.85098 
1 0.701961 0.85098 1 0.701961 0.85098 
1 0.701961 0.85098 1 0.701961 0.85098 
1 0.701961 0.85098 1 0.701961 0.85098 
1 0.701961 0.85098 1 0.701961 0.85098 
1 0.701961 0.85098 1 0.701961 0.85098 
1 0.701961 0.85098 1 0.701961 0.85098 
1 0.701961 0.85098 1 0.701961 0.85098 
1 0.701961 0.85098 1 0.701961 0.85098 
1 0.701961 0.85098 1 0.701961 0.85098 
1 0.701961 0.85098 1 0.701961 0.85098 
1 0.701961 0.85098 1 0.701961 0.85098 
1 0.701961 0.85098 1 0.701961 0.85098 
1 0.701961 0.85098 1 0.701961 0.85098 
1 0.701961 0.85098 1 0.701961 0.85098 
1 0.701961 0.85098 1 0.701961 0.85098 
1 0.701961 0.85098 1 0.701961 0.85098 
1 0.701961 0.85098 1 0.701961 0.85098 
1 0.701961 0.85098 1 0.701961 0.85098 
1 0.701961 0.85098 1 0.701961 0.85098 
1 0.701961 0.85098 1 0.701961 0.85098 
1 0.701961 0.85098 1 0.701961 0.85098 
1 0.701961 0.85098 1 0.701961 0.85098 
1 0.701961 0.85098 1 0.701961 0.85098 
1 0.701961 0.85098 1 0.701961 0.85098 
1 0.701961 0.85098 1 0.701961 0.85098 
1 0.701961 0.85098 1 0.701961 0.85098 
1 0.701961 0.85098 1 0.701961 0.85098 
1 0.701961 0.85098 1 0.701961 0.85098 
1 0.701961 0.85098 1 0.701961 0.85098 
1 0.701961 0.85098 1 0.701961 0.85098 
1 0.701961 0.85098 1 0.701961 0.85098 
1 0.701961 0.85098 1 0.701961 0.85098 
1 0.701961 0.85098 1 0.701961 0.85098 
1 0.701961 0.85098 1 0.701961 0.85098 
1 0.701961 0.85098 1 0.701961 0.85098 
1 0.701961 0.85098 1 0.701961 0.85098 
1 0.701961 0.85098 1 0.701961 0.85098 
1 0.701961 0.85098 1 0.701961 0.85098 
1 0.701961 0.85098 1 0.701961 0.85098 
1 0.701961 0.85098 1 0.701961 0.85098 
1 0.701961 0.85098 1 0.701961 0.85098 
1 0.701961 0.85098 1 0.701961 0.85098 
1 0.701961 0.85098 1 0.701961 0.85098 
1 0.701961 0.85098 1 0.701961 0.85098 
1 0.701961 0.85098 1 0.701961 0.85098 
1 0.701961 0.85098 1 0.701961 0.85098 
1 0.701961 0.85098 1 0.701961 0.85098 
1 0.701961 0.85098 1 0.701961 0.85098 
1 0.701961 0.85098 1 0.701961 0.85098 
1 0.701961 0.85098 1 0.701961 0.85098 
1 0.701961 0.85098 1 0.701961 0.85098 
1 0.701961 0.85098 1 0.701961 0.85098 
1 0.701961 0.85098 1 0.701961 0.85098 
1 0.701961 0.85098 1 0.701961 0.85098 
1 0.701961 0.85098 1 0.701961 0.85098 
1 0.701961 0.85098 1 0.701961 0.85098 
1 0.701961 0.85098 1 0.701961 0.85098 
1 0.701961 0.85098 1 0.701961 0.85098 
1 0.701961 0.85098 1 0.701961 0.85098 
1 0.701961 0.85098 1 0.701961 0.85098 
1 0.701961 0.85098 1 0.701961 0.85098 
1 0.701961 0.85098 1 0.701961 0.85098 
1 0.701961 0.85098 1 0.701961 0.85098 
1 0.701961 0.85098 1 0.701961 0.85098 
1 0.701961 0.85098 1 0.701961 0.85098 
1 0.701961 0.85098 1 0.701961 0.85098 
1 0.701961 0.85098 1 0.701961 0.85098 
1 0.701961 0.85098 1 0.701961 0.85098 
1 0.701961 0.85098 1 0.701961 0.85098 
1 0.701961 0.85098 1 0.701961 0.85098 
1 0.701961 0.85098 1 0.701961 0.85098 
1 0.701961 0.85098 1 0.701961 0.85098 
1 0.701961 0.85098 1 0.701961 0.85098 
1 0.701961 0.85098 1 0.701961 0.85098 
1 0.701961 0.85098 1 0.701961 0.85098 
1 0.701961 0.85098 1 0.701961 0.85098 
1 0.701961 0.85098 1 0.701961 0.85098 
1 0.701961 0.85098 1 0.701961 0.85098 
1 0.701961 0.85098 1 0.701961 0.85098 
1 0.701961 0.85098 1 0.701961 0.85098 
1 0.701961 0.85098 1 0.701961 0.85098 
1 0.701961 0.85098 1 0.701961 0.85098 
1 0.701961 0.85098 1 0.701961 0.85098 
1 0.701961 0.85098 1 0.701961 0.85098 
1 0.701961 0.85098 1 0.701961 0.85098 
1 0.701961 0.85098 1 0.701961 0.85098 
1 0.701961 0.85098 1 0.701961 0.85098 
1 0.701961 0.85098 1 0.701961 0.85098 
1 0.701961 0.85098 1 0.701961 0.85098 
1 0.701961 0.85098 1 0.701961 0.85098 
1 0.701961 0.85098 1 0.701961 0.85098 
1 0.701961 0.85098 1 0.701961 0.85098 
1 0.701961 0.85098 1 0.701961 0.85098 
1 0.701961 0.85098 1 0.701961 0.85098 
1 0.701961 0.85098 1 0.701961 0.85098 
1 0.701961 0.85098 1 0.701961 0.85098 
1 0.701961 0.85098 1 0.701961 0.85098 
1 0.701961 0.85098 1 0.701961 0.85098 
1 0.701961 0.85098 1 0.701961 0.85098 
1 0.701961 0.85098 1 0.701961 0.85098 
1 0.701961 0.85098 1 0.701961 0.85098 
1 0.701961 0.85098 1 0.701961 0.85098 
1 0.701961 0.85098 1 0.701961 0.85098 
1 0.701961 0.85098 1 0.701961 0.85098 
1 0.701961 0.85098 1 0.701961 0.85098 
1 0.701961 0.85098 1 0.701961 0.85098 
1 0.701961 0.85098 1 0.701961 0.85098 
1 0.701961 0.85098 1 0.701961 0.85098 
1 0.701961 0.85098 1 0.701961 0.85098 
1 0.701961 0.85098 1 0.701961 0.85098 
1 0.701961 0.85098 1 0.701961 0.85098 
1 0.701961 0.85098 1 0.701961 0.85098 
1 0.701961 0.85098 1 0.701961 0.85098 
1 0.701961 0.85098 1 0.701961 0.85098 
1 0.701961 0.85098 1 0.701961 0.85098 
1 0.701961 0.85098 1 0.701961 0.85098 
1 0.701961 0.85098 1 0.701961 0.85098 
1 0.701961 0.85098 1 0.701961 0.85098 
1 0.701961 0.85098 1 0.701961 0.85098 
1 0.701961 0.85098 1 0.701961 0.85098 
1 0.701961 0.85098 1 0.701961 0.85098 
1 0.701961 0.85098 1 0.701961 0.85098 
1 0.701961 0.85098 1 0.701961 0.85098 
1 0.701961 0.85098 1 0.701961 0.85098 
1 0.701961 0.85098 1 0.701961 0.85098 
1 0.701961 0.85098 1 0.701961 0.85098 
1 0.701961 0.85098 1 0.701961 0.85098 
1 0.701961 0.85098 1 0.701961 0.85098 
1 0.701961 0.85098 1 0.701961 0.85098 
1 0.701961 0.85098 1 0.701961 0.85098 
1 0.701961 0.85098 1 0.701961 0.85098 
1 0.701961 0.85098 1 0.701961 0.85098 
1 0.701961 0.85098 1 0.701961 0.85098 
1 0.701961 0.85098 1 0.701961 0.85098 
1 0.701961 0.85098 1 0.701961 0.85098 
1 0.701961 0.85098 1 0.701961 0.85098 
1 0.701961 0.85098 1 0.701961 0.85098 
1 0.701961 0.85098 1 0.701961 0.85098 
1 0.701961 0.85098 1 0.701961 0.85098 
1 0.701961 0.85098 1 0.701961 0.85098 
1 0.701961 0.85098 1 0.701961 0.85098 
1 0.701961 0.85098 1 0.701961 0.85098 
1 0.701961 0.85098 1 0.701961 0.85098 
1 0.701961 0.85098 1 0.701961 0.85098 
1 0.701961 0.85098 1 0.701961 0.85098 

NORMALS Normals float
-0.0902626 -0.480811 -0.872166 0.105828 -0.435005 -0.894188 0.190004 -0.764675 -0.615769 
-0.224147 -0.290714 -0.930185 0.162275 -0.442007 -0.882211 -0.014619 -0.273941 -0.961635 
0.101213 -0.33719 -0.93598 0.251592 -0.556882 -0.79157 -0.456839 0.0682299 -0.886929 
-0.0676072 -0.0436906 -0.996755 0.0530857 -0.130638 -0.990008 0.235437 -0.394088 -0.888405 
0.488301 -0.602988 -0.630846 -0.227464 0.305677 -0.924566 -0.0150989 0.0613863 -0.998 
0.208195 -0.261056 -0.942605 0.38751 -0.357007 -0.849931 0.250625 -0.140299 -0.957864 
0.0928207 0.110129 -0.989574 -0.0644009 -0.516252 -0.854012 0.0113441 -0.831039 -0.556098 
0.210136 -0.717799 -0.663783 -0.158654 -0.786396 -0.597001 0.25009 -0.757926 -0.602498 
-0.400828 -0.226431 -0.887731 0.397318 -0.767629 -0.502876 -0.631295 -0.24096 -0.73716 
-0.781151 0.0229833 -0.62392 0.541571 -0.674046 -0.502357 -0.653246 0.24447 -0.716592 
0.347398 -0.155293 -0.92477 0.335285 -0.20409 -0.919745 0.311425 -0.899456 -0.306582 
-0.77552 -0.317245 -0.545825 0.514197 -0.773318 -0.370919 0.549875 -0.596555 -0.584603 
0.487022 -0.390551 -0.781204 0.161207 0.037846 -0.986195 -0.330627 0.53065 -0.780446 
0.496775 -0.138397 -0.856774 0.030185 0.264933 -0.963794 -0.371006 -0.671318 -0.641629 
0.468435 -0.858216 -0.209844 -0.68204 0.363954 -0.634318 -0.725198 0.57248 -0.382564 
-0.572452 0.631656 -0.52279 -0.502671 0.679121 -0.534898 -0.204832 0.595791 -0.77658 
-0.218468 0.589196 -0.777894 0.00779539 0.339115 -0.940713 -0.159297 0.466689 -0.869957 
-0.133585 0.462149 -0.876683 -0.568346 -0.676675 -0.468074 -0.864007 0.0762433 -0.497674 
0.629389 -0.7188 -0.295291 0.616536 -0.479814 -0.624229 0.727886 -0.358165 -0.584722 
0.762014 -0.563262 -0.319485 0.683177 -0.206669 -0.700398 -0.378191 0.812342 -0.443928 
0.37727 0.0672172 -0.923661 0.00426871 0.510826 -0.859673 0.0443842 0.356896 -0.933089 
-0.341823 -0.858439 -0.382412 -0.954976 0.196178 -0.222562 -0.834277 0.508766 -0.212459 
-0.438467 0.774345 -0.45622 -0.287467 0.806498 -0.516646 -0.102064 0.341954 -0.934157 
0.391824 0.313231 -0.865078 -0.175149 -0.926065 -0.334255 0.267701 -0.94653 -0.180051 
-0.587279 -0.77448 -0.235128 -0.782697 -0.589535 -0.199584 -0.953555 -0.189804 -0.233897 
0.818677 -0.514338 -0.25539 0.766236 -0.17941 -0.617004 0.84216 -0.157643 -0.515669 
0.759317 -0.0819097 -0.645545 -0.574251 -0.806035 -0.143333 -0.861414 -0.434026 -0.263794 
0.568208 -0.82255 -0.0234769 -0.684237 0.701625 -0.198849 -0.493408 0.832031 -0.253521 
-0.375031 0.812202 -0.446855 0.667311 0.0900797 -0.739311 -0.230667 0.736562 -0.635822 
0.554116 0.238012 -0.797688 0.308816 0.510723 -0.802368 -0.0750642 0.746392 -0.661259 
0.162455 0.696298 -0.699126 -0.227436 -0.969535 -0.0909692 0.113228 -0.993468 0.0141701 
0.49266 -0.865088 0.0943872 0.884087 -0.41966 -0.205612 0.888786 -0.332576 -0.315362 
0.894396 -0.185772 -0.406872 -0.398411 0.855034 -0.331943 0.692361 0.43138 -0.5784 
0.622189 0.59276 -0.511387 -0.361366 -0.932422 0.00188338 -0.823666 -0.566371 0.0282494 
-0.948341 0.316991 -0.0129027 0.718586 -0.695043 -0.0234625 0.970744 -0.101605 -0.21756 
0.861438 0.226146 -0.454734 0.732766 0.547421 -0.404208 -0.148991 -0.98095 0.124653 
-0.997257 -0.0736255 -0.00767419 -0.646995 0.750074 -0.137063 0.88102 -0.471196 0.0421594 
0.944219 -0.329114 -0.0115739 0.952346 0.225467 -0.205429 0.541447 0.691957 -0.477526 
0.188027 0.834757 -0.51752 -0.455386 -0.877253 0.151824 -0.857785 -0.508298 0.0764043 
-0.965523 -0.134827 0.222684 -0.987207 0.13735 0.0809727 0.67609 -0.669386 0.307936 
0.771258 -0.630119 0.0900636 0.938007 -0.275411 0.210456 0.99945 0.0327651 0.00503118 
0.973308 0.226539 0.036778 0.561588 0.766724 -0.31105 0.0532598 -0.969899 0.23761 
-0.751085 -0.600818 0.273658 0.880702 -0.387734 0.272078 -0.5745 0.81669 -0.0544779 
0.193179 0.906853 -0.374566 -0.608481 -0.722152 0.32901 -0.844868 -0.33693 0.415543 
0.374645 -0.896197 0.237639 0.545653 -0.764145 0.344014 -0.904081 0.0432158 0.425171 
-0.72366 0.686109 0.0746372 -0.452559 0.88303 -0.124293 0.973581 -0.138406 0.181613 
0.868254 0.487336 -0.0929421 0.695868 0.714837 -0.0690992 -0.175322 -0.87853 0.44435 
0.22284 -0.835417 0.502415 0.413295 -0.800522 0.433995 -0.797921 -0.0319508 0.601915 
-0.823631 0.507045 0.254043 0.981407 0.153866 0.114742 0.902721 0.421718 0.0851374 
-0.39671 0.902756 -0.166294 -0.0146022 0.944082 -0.329387 -0.189702 -0.693219 0.695313 
-0.41927 -0.566254 0.709626 0.266868 -0.677154 0.685743 -0.673931 -0.327508 0.662236 
-0.715437 -0.170678 0.677509 0.350618 -0.690328 0.632862 0.518222 -0.722346 0.457889 
0.530054 -0.636732 0.560014 -0.687603 0.670418 0.278821 0.657634 -0.558414 0.505659 
0.969262 -0.160357 0.186592 -0.505092 0.847779 0.16172 -0.411648 0.911232 -0.0141767 
-0.272731 0.904007 -0.329226 0.463969 0.884217 -0.0537802 0.676556 0.733863 0.0609608 
0.286196 0.958148 0.00665148 -0.0630782 -0.629656 0.774309 0.0860984 -0.586409 0.805427 
-0.480723 -0.320298 0.816281 0.105793 -0.499982 0.85955 0.283352 -0.636884 0.717001 
-0.734859 0.138795 0.663866 0.359996 -0.47365 0.803778 -0.574209 0.797603 0.184699 
-0.566996 0.776083 0.276064 -0.563105 0.783768 0.261956 -0.455002 0.870924 0.185649 
-0.143162 -0.371628 0.917277 -0.594257 -0.155773 0.789046 -0.767455 -0.0763104 0.636545 
-0.707836 0.270604 0.652489 -0.610211 0.473299 0.635319 -0.497773 0.724479 0.476815 
-0.640904 0.505589 0.5776 -0.223484 0.684484 0.693928 0.871328 -0.406125 0.275409 
0.843494 -0.421176 0.333361 -0.401395 0.845101 0.353109 0.141774 -0.341621 0.929083 
-0.301243 -0.110448 0.947129 0.0161006 -0.224771 0.974279 -0.465628 0.223726 0.856235 
-0.639865 0.465856 0.611188 -0.66132 0.523987 0.536743 0.0347516 -0.363689 0.930872 
0.277363 -0.585074 0.762075 -0.510575 0.544793 0.665218 -0.373814 0.722381 0.581747 
-0.345901 0.693972 0.63147 0.665686 -0.587796 0.459738 -0.635417 0.618257 0.462605 
-0.346914 0.48075 0.805314 0.822679 -0.456595 0.338704 -0.432441 0.689653 0.580839 
-0.604167 0.712343 0.357141 -0.823473 0.499877 0.268358 0.731073 0.679505 -0.0616854 
0.628004 0.774247 -0.0784402 -0.0161798 -0.0192824 0.999683 -0.289281 0.164007 0.94309 
-0.32648 0.250982 0.911273 -0.55412 0.447137 0.702154 -0.24602 0.236012 0.940092 
-0.0198128 -0.0120666 0.999731 -0.265801 0.253543 0.930089 -0.175589 0.229159 0.957421 
-0.340824 0.479025 0.808934 -0.22746 0.354381 0.907015 -0.486916 0.645842 0.588049 
-0.305188 0.549653 0.777652 0.0486358 -0.86065 0.506869 0.403901 -0.818282 0.408997 
-0.0157826 -0.628264 0.77784 -0.124723 -0.908811 0.398129 -0.014638 -0.98994 0.14073 
0.203086 -0.973591 -0.104291 0.406314 -0.903591 -0.135765 0.633784 -0.76574 0.109369 
-0.112075 -0.50788 0.854106 0.788912 -0.611298 0.0627202 -0.476246 0.256388 0.841103 
-0.650538 -0.187794 0.73589 -0.274699 -0.310309 0.910082 -0.233834 -0.537897 0.809932 
-0.272504 -0.852756 0.445588 -0.306046 -0.945738 0.109162 -0.237823 -0.97058 -0.03761 
0.938503 -0.333449 0.0895758 -0.591619 0.552582 0.58706 -0.723494 0.324119 0.609511 
-0.987853 0.131897 0.0821628 -0.862349 -0.504145 -0.046818 -0.328129 -0.568631 0.754314 
-0.190504 -0.567834 0.800795 -0.126557 -0.444246 0.886921 -0.867152 0.479193 -0.135723 
-0.582736 0.811048 0.0511869 0.509065 0.857357 -0.0761022 0.224814 0.972466 0.0613809 
-0.464344 -0.0413306 -0.88469 -0.641363 0.229467 -0.732119 -0.104379 -0.0218172 -0.994298 
-0.408437 0.332415 -0.850106 -0.593121 0.412847 -0.691205 -0.225159 0.229857 -0.946821 
0.0578414 -0.444215 -0.894051 -0.570527 0.577554 -0.583892 -0.284357 0.429963 -0.856897 
-0.130814 0.122265 -0.983839 0.382953 -0.413788 -0.82591 -0.657098 0.661011 -0.362334 
0.216972 -0.470204 -0.855471 0.0910645 -0.808914 -0.580832 0.332483 -0.813758 -0.476711 
0.519144 -0.781545 -0.345943 -0.463534 0.648144 -0.60419 -0.444283 0.559421 -0.699758 
-0.504572 0.772385 -0.385784 -0.178952 -0.541664 -0.821326 -0.101669 -0.715704 -0.690964 
0.809525 -0.547789 -0.211176 -0.457871 0.73461 -0.500701 -0.384478 -0.0218446 -0.922876 
0.974933 -0.101652 -0.197919 0.954675 -0.245838 -0.167805 -0.536584 0.68903 -0.48715 
-0.602276 0.256188 -0.756063 -0.805893 0.443402 -0.392341 0.991252 0.131978 -0.0012828 
0.950854 0.228101 -0.209396 0.849402 0.363723 -0.382389 0.924551 0.377269 -0.0535987 
0.855012 0.509427 -0.0971567 0.386598 0.917896 0.0894894 0.510238 0.855192 0.0911296 
0.792336 0.605473 -0.0748804 -0.32729 -0.242866 -0.91318 -0.537221 -0.166891 -0.826765 
-0.0900664 -0.335838 -0.937604 -0.67514 -0.0273253 -0.737183 0.170774 -0.448875 -0.877124 
-0.71602 0.198038 -0.6694 0.185322 -0.226864 -0.956132 0.225116 -0.290026 -0.930166 
-0.680753 0.542565 -0.492136 0.284946 -0.570195 -0.770509 0.418107 -0.560693 -0.71471 
-0.516197 0.747072 -0.418837 -0.45486 0.788253 -0.414439 0.706971 0.70698 0.0192512 
-0.159129 0.986784 0.0305829 0.38275 0.917289 0.109926 -0.225825 -0.510041 -0.829977 
0.256034 -0.724263 -0.640226 -0.52994 -0.346132 -0.774181 -0.747064 -0.21173 -0.630131 
0.425105 -0.686988 -0.589349 -0.747918 -0.0850739 -0.658317 -0.830239 0.0955674 -0.549155 
0.463562 -0.669929 -0.579919 0.465819 -0.670145 -0.577857 0.632834 -0.64356 -0.430526 
-0.628373 0.763675 -0.148146 0.971026 0.238662 0.0122312 0.868163 0.495644 -0.0250919 
0.747427 0.663517 0.0331448 -0.0938572 -0.74116 -0.664735 0.132755 -0.668572 -0.731702 
-0.571838 -0.555611 -0.603571 -0.820285 0.204303 -0.534222 -0.830124 0.400455 -0.387983 
-0.65135 0.751447 -0.105215 -0.488202 0.864821 -0.117232 0.957197 0.270815 0.102147 
-0.319578 -0.731485 -0.602329 0.190754 -0.851616 -0.488225 -0.54472 -0.602149 -0.583693 
0.409289 -0.757498 -0.508606 -0.873327 -0.0350549 -0.485872 -0.510159 0.860037 0.00867849 
0.794619 0.606965 -0.013209 -0.00146291 0.980491 0.19656 -0.171942 -0.93869 -0.298826 
-0.443047 -0.82749 -0.34492 0.349995 -0.880176 -0.320613 -0.834798 -0.367254 -0.410166 
0.508677 -0.817012 -0.27155 -0.791754 0.551417 -0.262802 0.5678 -0.767809 -0.29677 
0.890193 -0.401685 -0.214953 0.846665 0.522894 0.0986932 0.192453 -0.945801 -0.261576 
-0.794332 -0.573518 -0.200285 -0.973458 -0.0781446 -0.215111 -0.924596 0.265916 -0.272785 
-0.672679 0.739934 -0.000720574 -0.670999 0.732151 -0.117112 0.871367 -0.474588 -0.124443 
-0.268621 0.914674 0.302019 0.514791 0.828676 0.219739 -0.253501 -0.952059 -0.171234 
-0.534928 -0.827084 -0.172578 0.767802 -0.584535 -0.262296 0.905408 -0.369199 -0.209591 
0.964097 -0.187144 -0.1884 0.992121 0.0955239 -0.0810679 0.988928 0.0821793 -0.123563 
0.902927 0.394094 0.171504 -0.153411 -0.987825 -0.0258215 -0.644573 -0.764199 -0.0229015 
0.462347 -0.872989 -0.155326 0.479634 -0.868872 -0.122524 -0.841611 0.540007 -0.00910828 
0.702194 -0.680849 -0.208249 0.926934 -0.373503 0.0358938 0.97486 -0.0633891 0.213609 