# vtk DataFile Version 4.2
vtk output
ASCII
DATASET POLYDATA
POINTS 1021 float
226.611 254.629 126.403 227.68 254.159 126.456 229.123 255.309 126.481 
223.778 256.115 126.543 228.211 255.767 126.304 224.003 257.228 126.344 
225.97 256.848 126.175 226.44 257.524 126.317 228.151 257.304 126.588 
223.732 258.361 126.465 229.612 251.315 127.339 232.38 251.671 127.262 
228.13 251.839 127.341 222.31 255.383 127.526 222.015 257.31 127.171 
220.956 257.702 127.691 224.986 259.601 126.87 220.349 260.752 127.869 
220.656 261.018 127.761 234.702 247.822 128.668 235.848 248.329 128.734 
236.4 248.365 128.986 236.457 249.404 128.489 235.568 250.981 127.992 
237.84 250.584 128.901 237.205 251.624 128.615 222.219 254.364 128.27 
219.643 257.545 128.897 230.078 259.063 128.177 225.49 261.583 128.046 
219.747 261.913 128.695 220.902 261.762 128.081 219.95 262.467 129.075 
221.67 262.517 128.541 223.702 262.405 128.373 221.429 262.737 128.941 
234.121 246.981 129.161 234.083 246.771 129.385 234.339 246.835 129.318 
234.552 246.875 129.396 233.204 246.815 129.464 234.056 247.253 128.942 
242.774 248.736 130.313 242.798 248.614 130.357 242.663 248.675 130.362 
242.941 248.596 130.458 237.087 248.484 129.534 241.889 249.071 130.371 
242.45 248.914 130.299 242.477 248.683 130.592 243.071 248.765 130.452 
227.403 249.545 129.297 237.736 248.767 129.963 238.551 249.426 129.734 
240.492 249.38 130.347 242.779 249.379 130.239 239.521 249.235 130.463 
239.954 249.978 129.899 225.182 250.802 129.663 241.552 250.835 130.07 
241.353 251.317 130.132 237.271 252.879 128.946 219.636 257.112 129.158 
218.166 259.615 130.006 218.833 259.756 129.066 218.433 260.597 129.615 
218.644 261.817 129.936 218.994 261.776 129.361 219.21 262.465 129.956 
219.43 262.503 129.65 220.561 262.864 129.557 225.257 262.808 129.446 
232.801 246.671 129.694 232.72 246.559 129.845 233.898 246.701 129.597 
234.287 246.774 129.52 233.305 246.645 129.886 242.823 248.574 130.492 
228.929 247.73 130.372 243.242 248.443 130.915 238.009 248.732 130.564 
226.129 249.704 130.149 238.72 248.899 131.11 219.599 256.55 129.852 
218.191 258.777 130.596 218.628 262.107 130.499 227.144 262.329 129.923 
221.375 263.05 130.433 222.325 263.149 129.972 222.725 263.176 130.319 
223.726 263.12 129.907 225.224 262.933 129.885 230.828 246.535 130.917 
245.576 247.67 132.021 245.335 247.81 131.87 245.767 247.674 132.122 
245.125 248.207 131.604 244.908 247.868 131.819 240.528 248.856 131.78 
224.855 250.2 131.495 245.595 250.287 132.024 243.17 251.553 131.004 
244.478 251.282 131.626 241.426 253.004 131.008 220.799 254.574 130.97 
237.049 255.721 130.486 217.743 260.28 131.342 217.695 260.671 131.417 
217.668 260.725 131.656 217.782 260.89 131.464 219.173 262.404 130.85 
224.254 263.117 130.49 229.917 246.581 131.708 229.519 246.767 132.153 
228.932 247.002 132.184 245.705 247.584 132.205 245.921 247.607 132.362 
246.315 247.581 132.844 246.387 248.064 132.603 227.654 247.653 132.373 
246.468 249.025 132.546 225.371 249.559 132.203 223.354 251.631 132.375 
239.339 254.927 131.307 217.976 259.167 131.941 217.657 260.644 131.839 
218.319 261.486 131.691 221.221 262.469 132.139 223.497 262.929 131.701 
225.908 262.838 132.54 229.619 246.805 132.595 246.446 247.396 133.022 
246.481 247.361 133.112 246.373 247.395 133.071 246.531 247.427 133.134 
227.878 247.479 132.609 228.535 247.209 133.264 230.987 246.887 132.668 
246.036 247.445 133.172 246.815 247.604 133.486 247.438 248.904 133.991 
237.81 249.14 133.786 247.336 250.146 134.229 246.475 250.782 133.324 
242.97 253.411 132.348 217.933 259.438 132.197 217.726 260.603 132.004 
217.927 260.397 132.318 219.357 261.425 132.808 219.856 261.625 132.862 
231.824 261.512 132.779 227.979 262.821 133.537 228.614 247.149 133.641 
228.754 247.138 133.627 246.491 247.405 133.29 247.177 247.611 133.977 
247.247 247.562 134.263 247.012 247.511 134.021 247.399 247.714 134.264 
228.101 247.515 133.732 229.182 247.155 133.529 246.592 247.441 133.85 
245.175 252.898 133.832 244.158 254.071 134.347 220.537 255.723 133.497 
218.895 258.57 133.295 218.25 259.582 132.939 228.648 262.857 133.926 
228.602 247.254 133.743 247.395 247.636 134.513 247.558 247.807 134.593 
227.937 247.839 134.366 228.957 247.646 134.573 247.749 248.074 134.939 
226.874 248.501 134.391 247.939 248.396 135.214 247.953 249.244 135.283 
224.746 250.456 134.607 219.23 258.749 133.709 218.267 259.808 133 
218.746 260.147 133.363 218.937 260.561 133.316 219.242 260.224 133.673 
220.028 260.673 133.827 220.347 260.38 134.118 226.9 261.98 135.476 
228.611 262.862 134.542 230.681 262.732 134.296 228.395 248.054 135.127 
247.917 248.195 135.424 247.914 248.175 135.852 248.042 248.433 136.201 
225.502 249.935 135.229 248.028 249.763 135.976 248.164 249.345 136.389 
223.553 256.644 135.981 221.906 257.759 135.224 223.578 257.446 135.984 
219.265 259.295 133.806 220.353 259.803 134.313 225.964 260.881 136.026 
226.494 260.758 136.623 228.099 262.601 135.606 231.379 263.31 136.451 
228.53 248.873 136.225 248.037 248.523 136.639 225.81 250.37 136.119 
248.133 249.664 136.693 225.52 258.299 136.867 224.078 258.867 136.007 
226.487 258.476 137.658 223.17 259.664 135.454 223.778 259.61 135.671 
229.103 263.095 137.008 230.486 263.948 138.195 230.872 263.961 138.008 
247.472 248.048 136.919 226.617 249.934 136.384 226.281 250.458 136.524 
230.077 249.901 137.265 248.118 249.325 137.808 236.337 250.024 138.349 
239.716 249.413 138.176 248.081 249.71 138.036 227.64 255.544 138.782 
227.14 256.95 138.46 226.895 258.885 138.13 227.366 260.451 138.659 
227.587 261.523 137.805 227.885 261.923 138.156 246.863 247.959 138.185 
226.775 250.851 137.038 248.062 249.404 138.38 230.01 252.497 139.198 
228.391 253.983 138.962 227.636 258.183 139.568 227.54 260.697 139.425 
227.795 261.684 139.63 235.274 261.806 139.469 231.487 264.055 138.594 
247.247 248.172 138.771 247.747 249.136 139.566 247.619 248.644 139.501 
234.791 250.958 139.926 236.769 250.266 140.049 233.147 252.099 140.545 
229.104 254.364 139.672 227.568 259.063 139.79 227.698 261.772 140.614 
228.991 263.537 139.689 230.269 264.487 140.403 245.978 247.543 140.033 
245.51 247.632 139.646 247.258 248.302 140.399 244.771 247.615 139.914 
239.515 249.248 140.473 230.127 254.607 140.716 245.005 254.639 140.302 
227.445 260.466 141.608 232.573 264.311 140.894 230.874 264.922 141.496 
231.22 265.065 141.994 245.63 246.634 141.55 246.831 247.425 141.702 
242.92 247.793 140.639 239.347 249.212 140.916 247.411 250.668 141.326 
227.759 259.431 141.686 227.525 260.055 141.758 227.296 261.684 142.798 
227.719 262.384 141.653 228.183 263.553 142.521 229.058 264.373 142.204 
229.446 264.733 142.494 243.452 244.269 143.99 245.135 244.834 143.404 
245.997 245.407 143.253 246.103 245.311 143.519 244.694 245.553 142.56 
246.553 246.126 143.245 241.984 247.656 141.358 237.224 250.276 142.493 
246.786 250.464 143.234 235.722 252.156 143.341 227.171 261.281 143.33 
227.463 262.617 143.466 233.218 264.483 143.266 229.525 264.963 143.24 
230.388 265.464 143.773 230.932 265.494 143.63 240.806 244.002 145.08 
240.546 244.25 144.675 244.48 244.282 144.145 245.38 244.697 144.45 
240.675 244.445 144.354 246.054 245.252 143.782 239.493 245.125 144.41 
239.354 245.471 144.27 246.728 246.742 143.735 246.806 247.429 143.785 
246.941 248.47 143.525 239.523 248.081 142.625 238.016 248.965 143.465 
236.422 251.476 143.954 245.678 252.745 143.297 227.911 259.604 144.396 
227.21 260.475 143.886 227.274 260.29 144.244 235.654 262.131 143.806 
228.813 264.676 144.428 231.321 265.691 144.504 239.061 244.197 146.035 
240.796 243.819 145.648 242.957 243.853 145.057 244.422 244.199 144.635 
238.382 245.05 145.381 239.533 244.721 144.77 240.188 244.511 144.531 
246.324 246.079 144.423 246.576 247.219 144.381 246.333 247.383 144.82 
246.362 246.815 144.701 236.975 249.972 144.793 236.479 252.502 145.27 
245.006 252.283 145.036 228.003 259.683 145.107 238.728 258.739 145.044 
227.094 260.78 144.841 227.036 261.163 145.106 235.663 262.148 144.743 
229.682 265.397 144.841 230.135 265.707 145.197 232.312 265.577 145.095 
231.144 266.142 145.955 238.39 244.456 146.097 239.062 244.069 146.605 
241.241 243.739 145.969 243.364 243.923 145.362 237.187 245.279 146.529 
245.031 244.661 145.2 245.312 245.168 145.356 236.866 245.777 146.629 
246.247 246.34 144.711 236.686 250.908 145.839 245.379 250.762 145.531 
236.876 253.332 146.147 236.205 254.456 145.57 240.946 256.487 145.168 
227.488 260.271 145.359 228.345 259.64 145.639 238.416 258.745 145.656 
238.849 258.223 145.627 227.09 261.736 145.989 228.33 264.286 145.754 
233.014 265.278 145.682 229.767 265.695 146.297 238.109 244.346 147.123 
238.74 244.157 147.107 240.29 243.898 146.739 237.26 244.977 147.355 
236.661 245.811 147.089 244.545 245.311 146.47 236.297 246.662 147.49 
243.653 253.15 146.202 237.702 254.929 146.683 239.802 254.772 147.445 
237.294 255.919 146.544 238.315 255.907 146.689 239.574 256.033 146.514 
241.717 255.03 146.391 239.076 256.721 146.443 235.826 257.008 146.593 
238.996 257.704 145.959 227.378 260.958 146.296 237.124 259.972 146.137 
235.133 262.685 147.003 227.668 263.197 146.634 232.784 265.775 146.821 
230.744 266.315 146.795 237.978 244.421 147.404 238.711 244.247 147.539 
242.411 244.052 146.791 237.013 245.288 147.531 237.981 244.59 147.704 
243.172 244.454 146.912 236.412 246.214 147.736 236.201 247.226 147.446 
236.146 247.864 148.218 243.483 250.886 147.608 243.057 252.207 147.45 
237.89 253.38 147.689 239.645 254.141 147.952 237.058 257.852 147.017 
237.652 258.906 146.503 237.808 258.46 146.626 234.18 258.967 147.641 
227.639 262.214 147.493 227.737 262.75 147.728 233.262 265.69 148.126 
230.565 266.464 147.856 231.486 266.812 148.312 231.307 266.897 148.57 
238.933 244.424 147.875 239.799 244.49 147.996 240.08 244.852 148.437 
240.476 245.115 148.603 236.453 246.292 148.094 241.698 245.279 148.361 
242.018 245.619 148.442 237.084 246.074 148.639 236.516 247.012 148.752 
[...]
POINT_DATA 1021
COLOR_SCALARS scalars 3
0.501961 0.752941 0.886275 0.501961 0.752941 0.886275 0.501961 0.752941 0.886275 
0.501961 0.752941 0.886275 0.501961 0.752941 0.886275 
0.501961 0.752941 0.886275 0.501961 0.752941 0.886275 
0.501961 0.752941 0.886275 0.501961 0.752941 0.886275 
0.501961 0.752941 0.886275 0.501961 0.752941 0.886275 
0.501961 0.752941 0.886275 0.501961 0.752941 0.886275 
0.501961 0.752941 0.886275 0.501961 0.752941 0.886275 
0.501961 0.752941 0.886275 0.501961 0.752941 0.886275 
0.501961 0.752941 0.886275 0.501961 0.752941 0.886275 
0.501961 0.752941 0.886275 0.501961 0.752941 0.886275 
0.501961 0.752941 0.886275 0.501961 0.752941 0.886275 
0.501961 0.752941 0.886275 0.501961 0.752941 0.886275 
0.501961 0.752941 0.886275 0.501961 0.752941 0.886275 
0.501961 0.752941 0.886275 0.501961 0.752941 0.886275 
0.501961 0.752941 0.886275 0.501961 0.752941 0.886275 
0.501961 0.752941 0.886275 0.501961 0.752941 0.886275 
0.501961 0.752941 0.886275 0.501961 0.752941 0.886275 
0.501961 0.752941 0.886275 0.501961 0.752941 0.886275 
0.501961 0.752941 0.886275 0.501961 0.752941 0.886275 
0.501961 0.752941 0.886275 0.501961 0.752941 0.886275 
0.501961 0.752941 0.886275 0.501961 0.752941 0.886275 
0.501961 0.752941 0.886275 0.501961 0.752941 0.886275 
0.501961 0.752941 0.886275 0.501961 0.752941 0.886275 
0.501961 0.752941 0.886275 0.501961 0.752941 0.886275 
0.501961 0.752941 0.886275 0.501961 0.752941 0.886275 
0.501961 0.752941 0.886275 0.501961 0.752941 0.886275 
0.501961 0.752941 0.886275 0.501961 0.752941 0.886275 
0.501961 0.752941 0.886275 0.501961 0.752941 0.886275 
0.501961 0.752941 0.886275 0.501961 0.752941 0.886275 
0.501961 0.752941 0.886275 0.501961 0.752941 0.886275 
0.501961 0.752941 0.886275 0.501961 0.752941 0.886275 
0.501961 0.752941 0.886275 0.501961 0.752941 0.886275 
0.501961 0.752941 0.886275 0.501961 0.752941 0.886275 
0.501961 0.752941 0.886275 0.501961 0.752941 0.886275 
0.501961 0.752941 0.886275 0.501961 0.752941 0.886275 
0.501961 0.752941 0.886275 0.501961 0.752941 0.886275 
0.501961 0.752941 0.886275 0.501961 0.752941 0.886275 
0.501961 0.752941 0.886275 0.501961 0.752941 0.886275 
0.501961 0.752941 0.886275 0.501961 0.752941 0.886275 
0.501961 0.752941 0.886275 0.501961 0.752941 0.886275 
0.501961 0.752941 0.886275 0.501961 0.752941 0.886275 
0.501961 0.752941 0.886275 0.501961 0.752941 0.886275 
0.501961 0.752941 0.886275 0.501961 0.752941 0.886275 
0.501961 0.752941 0.886275 0.501961 0.752941 0.886275 
0.501961 0.752941 0.886275 0.501961 0.752941 0.886275 
0.501961 0.752941 0.886275 0.501961 0.752941 0.886275 
0.501961 0.752941 0.886275 0.501961 0.752941 0.886275 
0.501961 0.752941 0.886275 0.501961 0.752941 0.886275 
0.501961 0.752941 0.886275 0.501961 0.752941 0.886275 
0.501961 0.752941 0.886275 0.501961 0.752941 0.886275 
0.501961 0.752941 0.886275 0.501961 0.752941 0.886275 
0.501961 0.752941 0.886275 0.501961 0.752941 0.886275 
0.501961 0.752941 0.886275 0.501961 0.752941 0.886275 
0.501961 0.752941 0.886275 0.501961 0.752941 0.886275 
0.501961 0.752941 0.886275 0.501961 0.752941 0.886275 
0.501961 0.752941 0.886275 0.501961 0.752941 0.886275 
0.501961 0.752941 0.886275 0.501961 0.752941 0.886275 
0.501961 0.752941 0.886275 0.501961 0.752941 0.886275 
0.501961 0.752941 0.886275 0.501961 0.752941 0.886275 
0.501961 0.752941 0.886275 0.501961 0.752941 0.886275 
0.501961 0.752941 0.886275 0.501961 0.752941 0.886275 
0.501961 0.752941 0.886275 0.501961 0.752941 0.886275 
0.501961 0.752941 0.886275 0.501961 0.752941 0.886275 
0.501961 0.752941 0.886275 0.501961 0.752941 0.886275 
0.501961 0.752941 0.886275 0.501961 0.752941 0.886275 
0.501961 0.752941 0.886275 0.501961 0.752941 0.886275 
0.501961 0.752941 0.886275 0.501961 0.752941 0.886275 
0.501961 0.752941 0.886275 0.501961 0.752941 0.886275 
0.501961 0.752941 0.886275 0.501961 0.752941 0.886275 
0.501961 0.752941 0.886275 0.501961 0.752941 0.886275 
0.501961 0.752941 0.886275 0.501961 0.752941 0.886275 
0.501961 0.752941 0.886275 0.501961 0.752941 0.886275 
0.501961 0.752941 0.886275 0.501961 0.752941 0.886275 
0.501961 0.752941 0.886275 0.501961 0.752941 0.886275 
0.501961 0.752941 0.886275 0.501961 0.752941 0.886275 
0.501961 0.752941 0.886275 0.501961 0.752941 0.886275 
0.501961 0.752941 0.886275 0.501961 0.752941 0.886275 
0.501961 0.752941 0.886275 0.501961 0.752941 0.886275 
0.501961 0.752941 0.886275 0.501961 0.752941 0.886275 
0.501961 0.752941 0.886275 0.501961 0.752941 0.886275 
0.501961 0.752941 0.886275 0.501961 0.752941 0.886275 
0.501961 0.752941 0.886275 0.501961 0.752941 0.886275 
0.501961 0.752941 0.886275 0.501961 0.752941 0.886275 
0.501961 0.752941 0.886275 0.501961 0.752941 0.886275 
0.501961 0.752941 0.886275 0.501961 0.752941 0.886275 
0.501961 0.752941 0.886275 0.501961 0.752941 0.886275 
0.501961 0.752941 0.886275 0.501961 0.752941 0.886275 
0.501961 0.752941 0.886275 0.501961 0.752941 0.886275 
0.501961 0.752941 0.886275 0.501961 0.752941 0.886275 
0.501961 0.752941 0.886275 0.501961 0.752941 0.886275 
0.501961 0.752941 0.886275 0.501961 0.752941 0.886275 
0.501961 0.752941 0.886275 0.501961 0.752941 0.886275 
0.501961 0.752941 0.886275 0.501961 0.752941 0.886275 
0.501961 0.752941 0.886275 0.501961 0.752941 0.886275 
0.501961 0.752941 0.886275 0.501961 0.752941 0.886275 
0.501961 0.752941 0.886275 0.501961 0.752941 0.886275 
0.501961 0.752941 0.886275 0.501961 0.752941 0.886275 
0.501961 0.752941 0.886275 0.501961 0.752941 0.886275 
0.501961 0.752941 0.886275 0.501961 0.752941 0.886275 
0.501961 0.752941 0.886275 0.501961 0.752941 0.886275 
0.501961 0.752941 0.886275 0.501961 0.752941 0.886275 
0.501961 0.752941 0.886275 0.501961 0.752941 0.886275 
0.501961 0.752941 0.886275 0.501961 0.752941 0.886275 
0.501961 0.752941 0.886275 0.501961 0.752941 0.886275 
0.501961 0.752941 0.886275 0.501961 0.752941 0.886275 
0.501961 0.752941 0.886275 0.501961 0.752941 0.886275 
0.501961 0.752941 0.886275 0.501961 0.752941 0.886275 
0.501961 0.752941 0.886275 0.501961 0.752941 0.886275 
0.501961 0.752941 0.886275 0.501961 0.752941 0.886275 
0.501961 0.752941 0.886275 0.501961 0.752941 0.886275 
0.501961 0.752941 0.886275 0.501961 0.752941 0.886275 
0.501961 0.752941 0.886275 0.501961 0.752941 0.886275 
0.501961 0.752941 0.886275 0.501961 0.752941 0.886275 
0.501961 0.752941 0.886275 0.501961 0.752941 0.886275 
0.501961 0.752941 0.886275 0.501961 0.752941 0.886275 
0.501961 0.752941 0.886275 0.501961 0.752941 0.886275 
0.501961 0.752941 0.886275 0.501961 0.752941 0.886275 
0.501961 0.752941 0.886275 0.501961 0.752941 0.886275 
0.501961 0.752941 0.886275 0.501961 0.752941 0.886275 
0.501961 0.752941 0.886275 0.501961 0.752941 0.886275 
0.501961 0.752941 0.886275 0.501961 0.752941 0.886275 
0.501961 0.752941 0.886275 0.501961 0.752941 0.886275 
0.501961 0.752941 0.886275 0.501961 0.752941 0.886275 
0.501961 0.752941 0.886275 0.501961 0.752941 0.886275 
0.501961 0.752941 0.886275 0.501961 0.752941 0.886275 
0.501961 0.752941 0.886275 0.501961 0.752941 0.886275 
0.501961 0.752941 0.886275 0.501961 0.752941 0.886275 
0.501961 0.752941 0.886275 0.501961 0.752941 0.886275 
0.501961 0.752941 0.886275 0.501961 0.752941 0.886275 
0.501961 0.752941 0.886275 0.501961 0.752941 0.886275 
0.501961 0.752941 0.886275 0.501961 0.752941 0.886275 
0.501961 0.752941 0.886275 0.501961 0.752941 0.886275 
0.501961 0.752941 0.886275 0.501961 0.752941 0.886275 
0.501961 0.752941 0.886275 0.501961 0.752941 0.886275 
0.501961 0.752941 0.886275 0.501961 0.752941 0.886275 
0.501961 0.752941 0.886275 0.501961 0.752941 0.886275 
0.501961 0.752941 0.886275 0.501961 0.752941 0.886275 
0.501961 0.752941 0.886275 0.501961 0.752941 0.886275 
0.501961 0.752941 0.886275 0.501961 0.752941 0.886275 
0.501961 0.752941 0.886275 0.501961 0.752941 0.886275 
0.501961 0.752941 0.886275 0.501961 0.752941 0.886275 
0.501961 0.752941 0.886275 0.501961 0.752941 0.886275 
0.501961 0.752941 0.886275 0.501961 0.752941 0.886275 
0.501961 0.752941 0.886275 0.501961 0.752941 0.886275 
0.501961 0.752941 0.886275 0.501961 0.752941 0.886275 
0.501961 0.752941 0.886275 0.501961 0.752941 0.886275 
0.501961 0.752941 0.886275 0.501961 0.752941 0.886275 
0.501961 0.752941 0.886275 0.501961 0.752941 0.886275 
0.501961 0.752941 0.886275 0.501961 0.752941 0.886275 
0.501961 0.752941 0.886275 0.501961 0.752941 0.886275 
0.501961 0.752941 0.886275 0.501961 0.752941 0.886275 
0.501961 0.752941 0.886275 0.501961 0.752941 0.886275 
0.501961 0.752941 0.886275 0.501961 0.752941 0.886275 
0.501961 0.752941 0.886275 0.501961 0.752941 0.886275 
0.501961 0.752941 0.886275 0.501961 0.752941 0.886275 
0.501961 0.752941 0.886275 0.501961 0.752941 0.886275 
0.501961 0.752941 0.886275 0.501961 0.752941 0.886275 
0.501961 0.752941 0.886275 0.501961 0.752941 0.886275 
0.501961 0.752941 0.886275 0.501961 0.752941 0.886275 
0.501961 0.752941 0.886275 0.501961 0.752941 0.886275 
0.501961 0.752941 0.886275 0.501961 0.752941 0.886275 
0.501961 0.752941 0.886275 0.501961 0.752941 0.886275 
0.501961 0.752941 0.886275 0.501961 0.752941 0.886275 
0.501961 0.752941 0.886275 0.501961 0.752941 0.886275 
0.501961 0.752941 0.886275 0.501961 0.752941 0.886275 
0.501961 0.752941 0.886275 0.501961 0.752941 0.886275 
0.501961 0.752941 0.886275 0.501961 0.752941 0.886275 
0.501961 0.752941 0.886275 0.501961 0.752941 0.886275 
0.501961 0.752941 0.886275 0.501961 0.752941 0.886275 
0.501961 0.752941 0.886275 0.501961 0.752941 0.886275 
0.501961 0.752941 0.886275 0.501961 0.752941 0.886275 
0.501961 0.752941 0.886275 0.501961 0.752941 0.886275 
0.501961 0.752941 0.886275 0.501961 0.752941 0.886275 
0.501961 0.752941 0.886275 0.501961 0.752941 0.886275 
0.501961 0.752941 0.886275 0.501961 0.752941 0.886275 
0.501961 0.752941 0.886275 0.501961 0.752941 0.886275 
0.501961 0.752941 0.886275 0.501961 0.752941 0.886275 
0.501961 0.752941 0.886275 0.501961 0.752941 0.886275 
0.501961 0.752941 0.886275 0.501961 0.752941 0.886275 
0.501961 0.752941 0.886275 0.501961 0.752941 0.886275 
0.501961 0.752941 0.886275 0.501961 0.752941 0.886275 
0.501961 0.752941 0.886275 0.501961 0.752941 0.886275 
0.501961 0.752941 0.886275 0.501961 0.752941 0.886275 
0.501961 0.752941 0.886275 0.501961 0.752941 0.886275 
0.501961 0.752941 0.886275 0.501961 0.752941 0.886275 
0.501961 0.752941 0.886275 0.501961 0.752941 0.886275 
0.501961 0.752941 0.886275 0.501961 0.752941 0.886275 
0.501961 0.752941 0.886275 0.501961 0.752941 0.886275 
0.501961 0.752941 0.886275 0.501961 0.752941 0.886275 
0.501961 0.752941 0.886275 0.501961 0.752941 0.886275 
0.501961 0.752941 0.886275 0.501961 0.752941 0.886275 
0.501961 0.752941 0.886275 0.501961 0.752941 0.886275 
0.501961 0.752941 0.886275 0.501961 0.752941 0.886275 
0.501961 0.752941 0.886275 0.501961 0.752941 0.886275 
0.501961 0.752941 0.886275 0.501961 0.752941 0.886275 
0.501961 0.752941 0.886275 0.501961 0.752941 0.886275 
0.501961 0.752941 0.886275 0.501961 0.752941 0.886275 
0.501961 0.752941 0.886275 0.501961 0.752941 0.886275 
0.501961 0.752941 0.886275 0.501961 0.752941 0.886275 
0.501961 0.752941 0.886275 0.501961 0.752941 0.886275 
0.501961 0.752941 0.886275 0.501961 0.752941 0.886275 
0.501961 0.752941 0.886275 0.501961 0.752941 0.886275 
0.501961 0.752941 0.886275 0.501961 0.752941 0.886275 
0.501961 0.752941 0.886275 0.501961 0.752941 0.886275 
0.501961 0.752941 0.886275 0.501961 0.752941 0.886275 
0.501961 0.752941 0.886275 0.501961 0.752941 0.886275 
0.501961 0.752941 0.886275 0.501961 0.752941 0.886275 
0.501961 0.752941 0.886275 0.501961 0.752941 0.886275 
0.501961 0.752941 0.886275 0.501961 0.752941 0.886275 
0.501961 0.752941 0.886275 0.501961 0.752941 0.886275 
0.501961 0.752941 0.886275 0.501961 0.752941 0.886275 
0.501961 0.752941 0.886275 0.501961 0.752941 0.886275 
0.501961 0.752941 0.886275 0.501961 0.752941 0.886275 
0.501961 0.752941 0.886275 0.501961 0.752941 0.886275 
0.501961 0.752941 0.886275 0.501961 0.752941 0.886275 
0.501961 0.752941 0.886275 0.501961 0.752941 0.886275 
0.501961 0.752941 0.886275 0.501961 0.752941 0.886275 
0.501961 0.752941 0.886275 0.501961 0.752941 0.886275 
0.501961 0.752941 0.886275 0.501961 0.752941 0.886275 
0.501961 0.752941 0.886275 0.501961 0.752941 0.886275 
0.501961 0.752941 0.886275 0.501961 0.752941 0.886275 
0.501961 0.752941 0.886275 0.501961 0.752941 0.886275 
0.501961 0.752941 0.886275 0.501961 0.752941 0.886275 
0.501961 0.752941 0.886275 0.501961 0.752941 0.886275 
0.501961 0.752941 0.886275 0.501961 0.752941 0.886275 
0.501961 0.752941 0.886275 0.501961 0.752941 0.886275 
0.501961 0.752941 0.886275 0.501961 0.752941 0.886275 
0.501961 0.752941 0.886275 0.501961 0.752941 0.886275 
0.501961 0.752941 0.886275 0.501961 0.752941 0.886275 
0.501961 0.752941 0.886275 0.501961 0.752941 0.886275 
0.501961 0.752941 0.886275 0.501961 0.752941 0.886275 
0.501961 0.752941 0.886275 0.501961 0.752941 0.886275 
0.501961 0.752941 0.886275 0.501961 0.752941 0.886275 
0.501961 0.752941 0.886275 0.501961 0.752941 0.886275 
0.501961 0.752941 0.886275 0.501961 0.752941 0.886275 
0.501961 0.752941 0.886275 0.501961 0.752941 0.886275 
0.501961 0.752941 0.886275 0.501961 0.752941 0.886275 
0.501961 0.752941 0.886275 0.501961 0.752941 0.886275 
0.501961 0.752941 0.886275 0.501961 0.752941 0.886275 
0.501961 0.752941 0.886275 0.501961 0.752941 0.886275 
0.501961 0.752941 0.886275 0.501961 0.752941 0.886275 
0.501961 0.752941 0.886275 0.501961 0.752941 0.886275 
0.501961 0.752941 0.886275 0.501961 0.752941 0.886275 
0.501961 0.752941 0.886275 0.501961 0.752941 0.886275 
0.501961 0.752941 0.886275 0.501961 0.752941 0.886275 
0.501961 0.752941 0.886275 0.501961 0.752941 0.886275 
0.501961 0.752941 0.886275 0.501961 0.752941 0.886275 
0.501961 0.752941 0.886275 0.501961 0.752941 0.886275 
0.501961 0.752941 0.886275 0.501961 0.752941 0.886275 
0.501961 0.752941 0.886275 0.501961 0.752941 0.886275 
0.501961 0.752941 0.886275 0.501961 0.752941 0.886275 
0.501961 0.752941 0.886275 0.501961 0.752941 0.886275 
0.501961 0.752941 0.886275 0.501961 0.752941 0.886275 
0.501961 0.752941 0.886275 0.501961 0.752941 0.886275 
0.501961 0.752941 0.886275 0.501961 0.752941 0.886275 
0.501961 0.752941 0.886275 0.501961 0.752941 0.886275 
0.501961 0.752941 0.886275 0.501961 0.752941 0.886275 
0.501961 0.752941 0.886275 0.501961 0.752941 0.886275 
0.501961 0.752941 0.886275 0.501961 0.752941 0.886275 
0.501961 0.752941 0.886275 0.501961 0.752941 0.886275 
0.501961 0.752941 0.886275 0.501961 0.752941 0.886275 
0.501961 0.752941 0.886275 0.501961 0.752941 0.886275 
0.501961 0.752941 0.886275 0.501961 0.752941 0.886275 
0.501961 0.752941 0.886275 0.501961 0.752941 0.886275 
0.501961 0.752941 0.886275 0.501961 0.752941 0.886275 
0.501961 0.752941 0.886275 0.501961 0.752941 0.886275 
0.501961 0.752941 0.886275 0.501961 0.752941 0.886275 
0.501961 0.752941 0.886275 0.501961 0.752941 0.886275 
0.501961 0.752941 0.886275 0.501961 0.752941 0.886275 
0.501961 0.752941 0.886275 0.501961 0.752941 0.886275 
0.501961 0.752941 0.886275 0.501961 0.752941 0.886275 
0.501961 0.752941 0.886275 0.501961 0.752941 0.886275 
0.501961 0.752941 0.886275 0.501961 0.752941 0.886275 
0.501961 0.752941 0.886275 0.501961 0.752941 0.886275 
0.501961 0.752941 0.886275 0.501961 0.752941 0.886275 
0.501961 0.752941 0.886275 0.501961 0.752941 0.886275 
0.501961 0.752941 0.886275 0.501961 0.752941 0.886275 
0.501961 0.752941 0.886275 0.501961 0.752941 0.886275 
0.501961 0.752941 0.886275 0.501961 0.752941 0.886275 
0.501961 0.752941 0.886275 0.501961 0.752941 0.886275 
0.501961 0.752941 0.886275 0.501961 0.752941 0.886275 
0.501961 0.752941 0.886275 0.501961 0.752941 0.886275 
0.501961 0.752941 0.886275 0.501961 0.752941 0.886275 
0.501961 0.752941 0.886275 0.501961 0.752941 0.886275 
0.501961 0.752941 0.886275 0.501961 0.752941 0.886275 
0.501961 0.752941 0.886275 0.501961 0.752941 0.886275 
0.501961 0.752941 0.886275 0.501961 0.752941 0.886275 
0.501961 0.752941 0.886275 0.501961 0.752941 0.886275 
0.501961 0.752941 0.886275 0.501961 0.752941 0.886275 
0.501961 0.752941 0.886275 0.501961 0.752941 0.886275 
0.501961 0.752941 0.886275 0.501961 0.752941 0.886275 
0.501961 0.752941 0.886275 0.501961 0.752941 0.886275 
0.501961 0.752941 0.886275 0.501961 0.752941 0.886275 
0.501961 0.752941 0.886275 0.501961 0.752941 0.886275 
0.501961 0.752941 0.886275 0.501961 0.752941 0.886275 
0.501961 0.752941 0.886275 0.501961 0.752941 0.886275 
0.501961 0.752941 0.886275 0.501961 0.752941 0.886275 
0.501961 0.752941 0.886275 0.501961 0.752941 0.886275 
0.501961 0.752941 0.886275 0.501961 0.752941 0.886275 
0.501961 0.752941 0.886275 0.501961 0.752941 0.886275 
0.501961 0.752941 0.886275 0.501961 0.752941 0.886275 
0.501961 0.752941 0.886275 0.501961 0.752941 0.886275 
0.501961 0.752941 0.886275 0.501961 0.752941 0.886275 
0.501961 0.752941 0.886275 0.501961 0.752941 0.886275 
0.501961 0.752941 0.886275 0.501961 0.752941 0.886275 
0.501961 0.752941 0.886275 0.501961 0.752941 0.886275 
0.501961 0.752941 0.886275 0.501961 0.752941 0.886275 
0.501961 0.752941 0.886275 0.501961 0.752941 0.886275 
0.501961 0.752941 0.886275 0.501961 0.752941 0.886275 
0.501961 0.752941 0.886275 0.501961 0.752941 0.886275 
0.501961 0.752941 0.886275 0.501961 0.752941 0.886275 
0.501961 0.752941 0.886275 0.501961 0.752941 0.886275 
0.501961 0.752941 0.886275 0.501961 0.752941 0.886275 
0.501961 0.752941 0.886275 0.501961 0.752941 0.886275 
0.501961 0.752941 0.886275 0.501961 0.752941 0.886275 
0.501961 0.752941 0.886275 0.501961 0.752941 0.886275 
0.501961 0.752941 0.886275 0.501961 0.752941 0.886275 
0.501961 0.752941 0.886275 0.501961 0.752941 0.886275 
0.501961 0.752941 0.886275 0.501961 0.752941 0.886275 
0.501961 0.752941 0.886275 0.501961 0.752941 0.886275 
0.501961 0.752941 0.886275 0.501961 0.752941 0.886275 
0.501961 0.752941 0.886275 0.501961 0.752941 0.886275 
0.501961 0.752941 0.886275 0.501961 0.752941 0.886275 
0.501961 0.752941 0.886275 0.501961 0.752941 0.886275 
0.501961 0.752941 0.886275 0.501961 0.752941 0.886275 
0.501961 0.752941 0.886275 0.501961 0.752941 0.886275 
0.501961 0.752941 0.886275 0.501961 0.752941 0.886275 
0.501961 0.752941 0.886275 0.501961 0.752941 0.886275 
0.501961 0.752941 0.886275 0.501961 0.752941 0.886275 
0.501961 0.752941 0.886275 0.501961 0.752941 0.886275 
0.501961 0.752941 0.886275 0.501961 0.752941 0.886275 
0.501961 0.752941 0.886275 0.501961 0.752941 0.886275 
0.501961 0.752941 0.886275 0.501961 0.752941 0.886275 
0.501961 0.752941 0.886275 0.501961 0.752941 0.886275 
0.501961 0.752941 0.886275 0.501961 0.752941 0.886275 
0.501961 0.752941 0.886275 0.501961 0.752941 0.886275 
0.501961 0.752941 0.886275 0.501961 0.752941 0.886275 
0.501961 0.752941 0.886275 0.501961 0.752941 0.886275 
0.501961 0.752941 0.886275 0.501961 0.752941 0.886275 
0.501961 0.752941 0.886275 0.501961 0.752941 0.886275 
0.501961 0.752941 0.886275 0.501961 0.752941 0.886275 
0.501961 0.752941 0.886275 0.501961 0.752941 0.886275 
0.501961 0.752941 0.886275 0.501961 0.752941 0.886275 
0.501961 0.752941 0.886275 0.501961 0.752941 0.886275 
0.501961 0.752941 0.886275 0.501961 0.752941 0.886275 
0.501961 0.752941 0.886275 0.501961 0.752941 0.886275 
0.501961 0.752941 0.886275 0.501961 0.752941 0.886275 
0.501961 0.752941 0.886275 0.501961 0.752941 0.886275 
0.501961 0.752941 0.886275 0.501961 0.752941 0.886275 
0.501961 0.752941 0.886275 0.501961 0.752941 0.886275 
0.501961 0.752941 0.886275 0.501961 0.752941 0.886275 
0.501961 0.752941 0.886275 0.501961 0.752941 0.886275 
0.501961 0.752941 0.886275 0.501961 0.752941 0.886275 
0.501961 0.752941 0.886275 0.501961 0.752941 0.886275 
0.501961 0.752941 0.886275 0.501961 0.752941 0.886275 
0.501961 0.752941 0.886275 0.501961 0.752941 0.886275 
0.501961 0.752941 0.886275 0.501961 0.752941 0.886275 
0.501961 0.752941 0.886275 0.501961 0.752941 0.886275 
0.501961 0.752941 0.886275 0.501961 0.752941 0.886275 
0.501961 0.752941 0.886275 0.501961 0.752941 0.886275 
0.501961 0.752941 0.886275 0.501961 0.752941 0.886275 
0.501961 0.752941 0.886275 0.501961 0.752941 0.886275 