# vtk DataFile Version 4.2
vtk output
ASCII
DATASET POLYDATA
POINTS 771 float
165.612 80.645 199.847 165.549 80.7538 199.916 169.738 79.1006 199.794 
166.394 79.6994 199.896 169.842 80.1512 199.688 165.359 80.7467 200.116 
165.333 80.9877 200.254 165.712 81.0339 200.037 166.916 81.3974 199.906 
168.245 81.2202 199.762 166.005 81.6543 200.376 178.274 75.5863 201.424 
177.395 76.3284 200.87 175.312 76.9361 200.493 177.09 76.6278 200.789 
170.46 77.7761 200.279 165.057 81.1813 200.964 166.259 82.2421 200.715 
177.807 75.7754 201.252 178.295 77.2419 201.176 163.982 79.5566 202.028 
165.7 82.2861 201.694 166.002 82.528 201.415 170.558 83.3223 200.243 
166.485 83.2408 202.092 168.362 83.8802 200.793 167.682 84.4791 201.831 
170.067 86.3337 201.252 169.501 87.5723 202.276 175.934 73.9449 202.169 
176.993 74.435 201.952 178.212 74.4815 202.442 163.17 77.5483 203.124 
181.005 78.7261 202.712 163.372 78.2627 202.823 181.565 80.7906 202.568 
179.663 83.8657 201.75 167.877 85.0653 202.59 171.781 88.3832 201.329 
170.403 89.974 202.235 171.607 89.9581 201.624 170.132 91.2601 202.773 
172.941 90.5912 201.572 170.467 93.6017 202.627 173.953 92.9993 202.146 
170.45 94.2038 202.75 170.282 94.1732 202.952 171.232 94.0764 202.339 
171.686 93.8592 202.207 173.626 93.6774 202.313 170.414 94.5318 202.916 
170.7 95.5231 203.253 170.893 95.9303 203.033 171.002 95.8407 202.85 
171.723 95.8245 202.869 171.029 96.236 203.098 171.145 96.3762 202.996 
171.282 96.27 202.883 171.186 96.3725 202.922 175.094 72.8778 203.051 
171.369 73.961 202.687 179.683 75.4777 203.555 164.075 76.1671 203.146 
162.837 76.8206 203.86 162.754 77.0671 203.889 180.997 77.5023 203.788 
162.797 77.2924 203.77 162.967 77.6775 203.615 182.062 79.4777 203.636 
163.714 79.5887 203.281 182.127 80.8915 203.024 182.777 80.6781 203.866 
182.62 81.332 203.412 182.316 82.2541 202.999 182.264 83.866 202.997 
181.69 85.0779 202.687 180.238 86.3913 202.17 182.177 85.6602 203.089 
183.009 84.8483 203.941 169.461 88.5192 203.32 182.417 88.5795 203.632 
182.712 88.6341 203.992 177.712 91.0352 202.315 182.307 89.7449 203.77 
170.024 92.4206 203.22 169.912 91.8385 203.702 181.975 90.6121 203.975 
170.101 93.4515 203.623 175.961 93.1715 202.703 180.47 91.8127 203.958 
177.058 93.4942 203.567 173.245 95.1066 203.062 174.062 94.7548 203.166 
175.69 94.2258 203.471 172.46 95.5294 203.045 172.985 95.4993 203.361 
175.22 94.5595 203.667 171.018 95.9796 203.582 171.492 96.2233 202.982 
171.448 96.3148 203.138 171.859 96.0388 203.295 171.058 96.2065 203.308 
171.22 96.345 203.174 171.281 96.3811 202.993 177.523 72.13 204.372 
163.124 76.1936 203.945 162.736 76.8065 204.244 165.38 81.8933 203.793 
183.194 83.5668 204.356 183.255 85.2817 204.506 182.703 89.4886 204.405 
182.256 90.4003 204.111 180.954 91.58 204.12 178.081 93.2587 204.194 
176.235 94.1856 204.25 175.54 94.5397 204.384 173.056 95.5857 203.675 
173.325 95.479 203.979 178.408 72.0039 205.606 164.507 74.4371 205.246 
164.182 74.7541 204.887 163.14 75.6288 204.699 163.142 75.5608 205.039 
162.966 75.8647 204.761 163.463 75.4946 204.445 162.727 76.6922 204.681 
181.19 77.4774 205.129 164.885 80.8227 205.059 182.972 80.8819 204.668 
183.399 85.2528 205.391 183.269 86.8026 205.486 182.588 89.9691 204.658 
182.316 90.5234 205.204 182.377 90.3435 204.389 170.22 93.0433 204.688 
180.544 91.9824 204.626 176.95 93.8167 204.698 172.678 95.4994 204.812 
171.691 95.5901 204.593 169.074 71.5714 206.009 178.804 72.128 206.458 
165.936 73.4704 205.51 179.189 73.0019 206.554 163.541 75.128 205.324 
163.417 75.2321 205.584 163.23 75.5449 205.472 179.86 74.8059 205.842 
163.054 76.0994 205.493 162.788 76.8552 204.949 163.084 77.2129 205.562 
182.448 79.8241 205.535 182.814 89.0558 206.578 182.815 89.5621 206.097 
182.77 89.7531 206.075 182.477 90.151 205.892 173.588 94.8838 205.758 
173.887 94.5663 206.19 171.246 95.0085 205.004 172.551 95.3662 205.139 
172.274 95.1648 205.402 175.799 69.2015 206.877 176.862 69.1225 207.238 
177.597 69.8342 206.906 178.29 70.5557 207.302 168.319 71.1773 207.611 
166.902 72.5941 206.466 179.244 73.1013 207.34 164.522 74.555 206.496 
164.147 75.1106 206.566 180.275 76.3626 207.028 163.218 76.911 205.893 
163.898 78.6242 206.056 164.083 78.5802 206.378 181.869 79.2881 206.392 
182.856 88.8232 207.159 182.721 89.6561 206.263 171.046 92.1793 207.24 
175.45 68.2283 208.097 176.323 68.2592 208.211 169.598 70.0559 207.824 
168.118 71.2018 208.415 178.774 71.5684 207.952 167.177 72.4822 208.108 
165.94 74.4627 208.03 164.798 75.4433 207.34 164.463 76.9674 207.199 
163.856 77.4658 206.556 164.962 79.7467 206.579 167.22 81.7272 207.539 
182.887 87.3153 207.816 171.974 93.0716 207.732 176.301 67.7665 209.327 
176.861 68.0871 209.109 177.472 68.661 208.6 177.276 68.3749 209.076 
177.991 69.4113 208.732 168.788 70.1885 208.9 167.794 71.8222 208.822 
178.739 71.788 208.655 168.089 71.8546 209.623 178.892 72.6752 208.713 
167.049 74.6949 209.011 179.228 75.2977 208.929 166.947 75.9817 209.028 
182.743 85.6655 208.505 172.412 93.0245 208.305 173.517 93.6433 207.867 
170.196 68.1777 209.85 178.052 69.6136 209.25 168.512 70.1582 210.416 
168.579 70.9382 210.817 178.443 71.1708 209.287 178.302 73.2956 210.121 
167.777 78.2577 209.548 168.438 81.7762 209.417 181.109 82.8309 210.419 
169.676 85.6805 210.099 182.083 84.9266 210.048 181.404 88.9961 209.726 
175.945 66.7521 211.18 175.82 66.7278 211.138 175.983 66.8409 211.242 
175.762 66.9188 210.757 175.398 66.5693 211.413 176.304 67.3788 210.616 
176.157 67.2361 211.224 177.112 68.2697 210.227 168.785 68.6447 211.297 
177.233 68.5324 210.396 168.522 70.4552 210.784 168.66 70.4006 211.308 
177.817 70.8738 210.497 169.911 72.952 211.555 177.526 74.2339 211.092 
177.955 77.8737 211.307 181.875 87.6285 210.524 171.191 90.4152 210.407 
175.351 66.4083 211.671 175.31 66.3796 211.759 175.214 66.3952 211.739 
175.82 66.6972 211.291 175.369 66.4798 211.742 172.471 66.3409 211.704 
174.689 66.4206 211.959 175.543 66.6885 211.697 175.804 66.8161 211.455 
176.692 68.7119 211.409 168.596 69.0115 211.949 171.589 73.5242 212.301 
172.101 75.2433 212.322 172.062 75.8731 212.355 171.952 76.5097 212.42 
169.598 80.4344 211.525 181.8 87.028 211.124 179.877 89.0985 211.73 
180.317 88.2306 212.376 175.192 66.4268 211.851 174.349 66.4718 212.559 
169.626 66.8153 212.994 169.267 66.9646 212.814 175.248 66.6807 212.011 
168.38 67.575 212.873 168.384 67.4661 213.122 168.263 67.585 213.063 
168.675 67.3879 212.682 168.551 67.358 212.989 168.264 67.6829 212.969 
168.366 67.9233 212.792 175.811 69.5845 212.6 172.813 72.7023 212.817 
174.129 74.1316 212.611 175.048 73.8057 212.486 173.846 75.1822 212.62 
175.681 74.4815 212.255 174.223 76.8057 212.942 175.788 77.5291 212.781 
171.832 78.7131 213.112 171.184 79.4234 212.977 170.14 81.9035 212.955 
169.65 85.4112 213.188 180.274 87.4563 213.22 171.736 90.7331 212.592 
172.154 91.1813 211.882 170.904 66.4872 213.452 171.397 66.2928 212.983 
169.207 66.9673 213.078 169.034 67.103 213.236 168.461 67.507 213.275 
168.307 67.5771 213.182 168.7 67.3219 213.238 175.111 67.7604 212.929 
168.283 67.7152 213.085 174.732 68.6447 213.389 168.525 68.2824 212.975 
174.699 69.4062 213.402 174.258 70.2878 213.483 170.645 71.0447 213.031 
174.618 77.2506 213.063 173.711 77.9268 213.408 177.301 80.4848 213.558 
169.949 84.206 214.142 169.772 84.7319 214.068 169.679 84.9691 213.676 
172.182 90.733 213.27 171.468 90.5398 213.394 171.209 66.5863 213.689 
171.738 66.471 213.643 169.17 67.2581 213.501 170.301 67.1625 213.904 
172.283 66.7924 213.978 173.204 66.7666 213.723 173.493 67.0672 213.76 
169.126 67.5104 213.645 170.219 67.5456 214.059 174.316 67.6519 213.511 
169.527 67.9648 213.887 169.202 68.332 213.685 169.113 68.703 213.57 
169.357 69.2294 213.571 171.046 70.5629 213.447 172.13 69.7496 213.953 
170.754 83.0445 214.545 179.509 83.8277 214.121 180.622 86.3377 213.345 
180.184 86.1421 213.919 178.921 87.6713 214.214 176.296 88.9007 214.543 
177.861 88.9004 213.76 175.38 89.4969 214.381 170.842 89.8639 214.015 
170.679 89.7745 214.615 173.483 90.4641 213.903 173.194 90.0793 214.442 
170.951 90.029 214.527 171.485 90.2786 214.063 173.046 66.9678 213.933 
171.314 67.7042 214.271 170.604 68.4606 214.207 171.708 68.6432 214.287 
170.184 69.3869 213.858 173.193 80.8396 214.886 171.683 81.8047 214.685 
172 82.2232 215.029 178.087 82.6728 214.61 170.026 85.4148 215.131 
170.079 85.5608 215.251 170.035 86.2305 215.048 179.839 85.7185 214.372 
179.39 86.1816 214.64 170.268 87.7861 215.189 170.257 88.3521 215.048 
170.359 88.8762 215.032 174.919 89.2938 214.739 170.387 89.145 214.866 
170.78 89.9647 214.776 170.721 89.8206 214.881 170.897 90.0178 214.795 
171.185 90.0254 214.69 170.799 89.9649 214.878 172.847 82.2097 215.321 
175.998 81.5437 215.075 175.169 82.5407 215.612 172.753 83.8751 215.824 
176.77 83.0894 215.419 175.042 84.1635 215.996 177.456 84.6207 215.529 
175.692 85.6345 215.945 170.548 88.2109 215.344 170.964 88.0374 215.553 
173.729 87.4344 215.861 175.315 87.0579 215.749 171.439 88.5418 215.536 
172.087 88.4304 215.602 170.551 89.2145 215.071 170.876 89.2078 215.213 
172.705 89.0607 215.274 170.912 89.8865 214.916 175.564 81.0458 240.028 
172.81 81.5662 239.835 173.172 82.9851 239.287 170.144 85.0099 239.964 
171.413 84.8006 239.349 176.001 84.1022 239.176 170.022 85.4108 239.861 
170.053 85.5707 239.741 171.204 85.4774 239.296 170.055 86.1483 239.897 
177.398 85.5451 239.505 178.877 85.3433 240.064 180.028 85.4831 240.825 
170.402 86.904 239.66 179.648 86.0447 240.543 179.951 85.858 240.746 
170.812 87.6069 239.528 178.954 86.8371 240.425 170.086 88.3527 240.252 
171.912 88.2473 239.455 178.107 87.595 240.407 170.331 88.8008 240.068 
170.184 88.8179 240.255 171.699 88.7715 239.669 170.578 89.2187 240.102 
171.043 89.4034 240.067 172.499 89.6107 240.189 171.019 89.7545 240.257 
171.499 89.9062 240.507 170.879 89.7819 240.291 172.73 66.7951 241.05 
172.407 67.0316 240.908 173.448 67.0244 241.106 173.672 66.7614 241.334 
[...]
POINT_DATA 771
COLOR_SCALARS scalars 3
0.25098 0.65098 0.4 0.25098 0.65098 0.4 0.25098 0.65098 0.4 
0.25098 0.65098 0.4 0.25098 0.65098 0.4 
0.25098 0.65098 0.4 0.25098 0.65098 0.4 
0.25098 0.65098 0.4 0.25098 0.65098 0.4 
0.25098 0.65098 0.4 0.25098 0.65098 0.4 
0.25098 0.65098 0.4 0.25098 0.65098 0.4 
0.25098 0.65098 0.4 0.25098 0.65098 0.4 
0.25098 0.65098 0.4 0.25098 0.65098 0.4 
0.25098 0.65098 0.4 0.25098 0.65098 0.4 
0.25098 0.65098 0.4 0.25098 0.65098 0.4 
0.25098 0.65098 0.4 0.25098 0.65098 0.4 
0.25098 0.65098 0.4 0.25098 0.65098 0.4 
0.25098 0.65098 0.4 0.25098 0.65098 0.4 
0.25098 0.65098 0.4 0.25098 0.65098 0.4 
0.25098 0.65098 0.4 0.25098 0.65098 0.4 
0.25098 0.65098 0.4 0.25098 0.65098 0.4 
0.25098 0.65098 0.4 0.25098 0.65098 0.4 
0.25098 0.65098 0.4 0.25098 0.65098 0.4 
0.25098 0.65098 0.4 0.25098 0.65098 0.4 
0.25098 0.65098 0.4 0.25098 0.65098 0.4 
0.25098 0.65098 0.4 0.25098 0.65098 0.4 
0.25098 0.65098 0.4 0.25098 0.65098 0.4 
0.25098 0.65098 0.4 0.25098 0.65098 0.4 
0.25098 0.65098 0.4 0.25098 0.65098 0.4 
0.25098 0.65098 0.4 0.25098 0.65098 0.4 
0.25098 0.65098 0.4 0.25098 0.65098 0.4 
0.25098 0.65098 0.4 0.25098 0.65098 0.4 
0.25098 0.65098 0.4 0.25098 0.65098 0.4 
0.25098 0.65098 0.4 0.25098 0.65098 0.4 
0.25098 0.65098 0.4 0.25098 0.65098 0.4 
0.25098 0.65098 0.4 0.25098 0.65098 0.4 
0.25098 0.65098 0.4 0.25098 0.65098 0.4 
0.25098 0.65098 0.4 0.25098 0.65098 0.4 
0.25098 0.65098 0.4 0.25098 0.65098 0.4 
0.25098 0.65098 0.4 0.25098 0.65098 0.4 
0.25098 0.65098 0.4 0.25098 0.65098 0.4 
0.25098 0.65098 0.4 0.25098 0.65098 0.4 
0.25098 0.65098 0.4 0.25098 0.65098 0.4 
0.25098 0.65098 0.4 0.25098 0.65098 0.4 
0.25098 0.65098 0.4 0.25098 0.65098 0.4 
0.25098 0.65098 0.4 0.25098 0.65098 0.4 
0.25098 0.65098 0.4 0.25098 0.65098 0.4 
0.25098 0.65098 0.4 0.25098 0.65098 0.4 
0.25098 0.65098 0.4 0.25098 0.65098 0.4 
0.25098 0.65098 0.4 0.25098 0.65098 0.4 
0.25098 0.65098 0.4 0.25098 0.65098 0.4 
0.25098 0.65098 0.4 0.25098 0.65098 0.4 
0.25098 0.65098 0.4 0.25098 0.65098 0.4 
0.25098 0.65098 0.4 0.25098 0.65098 0.4 
0.25098 0.65098 0.4 0.25098 0.65098 0.4 
0.25098 0.65098 0.4 0.25098 0.65098 0.4 
0.25098 0.65098 0.4 0.25098 0.65098 0.4 
0.25098 0.65098 0.4 0.25098 0.65098 0.4 
0.25098 0.65098 0.4 0.25098 0.65098 0.4 
0.25098 0.65098 0.4 0.25098 0.65098 0.4 
0.25098 0.65098 0.4 0.25098 0.65098 0.4 
0.25098 0.65098 0.4 0.25098 0.65098 0.4 
0.25098 0.65098 0.4 0.25098 0.65098 0.4 
0.25098 0.65098 0.4 0.25098 0.65098 0.4 
0.25098 0.65098 0.4 0.25098 0.65098 0.4 
0.25098 0.65098 0.4 0.25098 0.65098 0.4 
0.25098 0.65098 0.4 0.25098 0.65098 0.4 
0.25098 0.65098 0.4 0.25098 0.65098 0.4 
0.25098 0.65098 0.4 0.25098 0.65098 0.4 
0.25098 0.65098 0.4 0.25098 0.65098 0.4 
0.25098 0.65098 0.4 0.25098 0.65098 0.4 
0.25098 0.65098 0.4 0.25098 0.65098 0.4 
0.25098 0.65098 0.4 0.25098 0.65098 0.4 
0.25098 0.65098 0.4 0.25098 0.65098 0.4 
0.25098 0.65098 0.4 0.25098 0.65098 0.4 
0.25098 0.65098 0.4 0.25098 0.65098 0.4 
0.25098 0.65098 0.4 0.25098 0.65098 0.4 
0.25098 0.65098 0.4 0.25098 0.65098 0.4 
0.25098 0.65098 0.4 0.25098 0.65098 0.4 
0.25098 0.65098 0.4 0.25098 0.65098 0.4 
0.25098 0.65098 0.4 0.25098 0.65098 0.4 
0.25098 0.65098 0.4 0.25098 0.65098 0.4 
0.25098 0.65098 0.4 0.25098 0.65098 0.4 
0.25098 0.65098 0.4 0.25098 0.65098 0.4 
0.25098 0.65098 0.4 0.25098 0.65098 0.4 
0.25098 0.65098 0.4 0.25098 0.65098 0.4 
0.25098 0.65098 0.4 0.25098 0.65098 0.4 
0.25098 0.65098 0.4 0.25098 0.65098 0.4 
0.25098 0.65098 0.4 0.25098 0.65098 0.4 
0.25098 0.65098 0.4 0.25098 0.65098 0.4 
0.25098 0.65098 0.4 0.25098 0.65098 0.4 
0.25098 0.65098 0.4 0.25098 0.65098 0.4 
0.25098 0.65098 0.4 0.25098 0.65098 0.4 
0.25098 0.65098 0.4 0.25098 0.65098 0.4 
0.25098 0.65098 0.4 0.25098 0.65098 0.4 
0.25098 0.65098 0.4 0.25098 0.65098 0.4 
0.25098 0.65098 0.4 0.25098 0.65098 0.4 
0.25098 0.65098 0.4 0.25098 0.65098 0.4 
0.25098 0.65098 0.4 0.25098 0.65098 0.4 
0.25098 0.65098 0.4 0.25098 0.65098 0.4 
0.25098 0.65098 0.4 0.25098 0.65098 0.4 
0.25098 0.65098 0.4 0.25098 0.65098 0.4 
0.25098 0.65098 0.4 0.25098 0.65098 0.4 
0.25098 0.65098 0.4 0.25098 0.65098 0.4 
0.25098 0.65098 0.4 0.25098 0.65098 0.4 
0.25098 0.65098 0.4 0.25098 0.65098 0.4 
0.25098 0.65098 0.4 0.25098 0.65098 0.4 
0.25098 0.65098 0.4 0.25098 0.65098 0.4 
0.25098 0.65098 0.4 0.25098 0.65098 0.4 
0.25098 0.65098 0.4 0.25098 0.65098 0.4 
0.25098 0.65098 0.4 0.25098 0.65098 0.4 
0.25098 0.65098 0.4 0.25098 0.65098 0.4 
0.25098 0.65098 0.4 0.25098 0.65098 0.4 
0.25098 0.65098 0.4 0.25098 0.65098 0.4 
0.25098 0.65098 0.4 0.25098 0.65098 0.4 
0.25098 0.65098 0.4 0.25098 0.65098 0.4 
0.25098 0.65098 0.4 0.25098 0.65098 0.4 
0.25098 0.65098 0.4 0.25098 0.65098 0.4 
0.25098 0.65098 0.4 0.25098 0.65098 0.4 
0.25098 0.65098 0.4 0.25098 0.65098 0.4 
0.25098 0.65098 0.4 0.25098 0.65098 0.4 
0.25098 0.65098 0.4 0.25098 0.65098 0.4 
0.25098 0.65098 0.4 0.25098 0.65098 0.4 
0.25098 0.65098 0.4 0.25098 0.65098 0.4 
0.25098 0.65098 0.4 0.25098 0.65098 0.4 
0.25098 0.65098 0.4 0.25098 0.65098 0.4 
0.25098 0.65098 0.4 0.25098 0.65098 0.4 
0.25098 0.65098 0.4 0.25098 0.65098 0.4 
0.25098 0.65098 0.4 0.25098 0.65098 0.4 
0.25098 0.65098 0.4 0.25098 0.65098 0.4 
0.25098 0.65098 0.4 0.25098 0.65098 0.4 
0.25098 0.65098 0.4 0.25098 0.65098 0.4 
0.25098 0.65098 0.4 0.25098 0.65098 0.4 
0.25098 0.65098 0.4 0.25098 0.65098 0.4 
0.25098 0.65098 0.4 0.25098 0.65098 0.4 
0.25098 0.65098 0.4 0.25098 0.65098 0.4 
0.25098 0.65098 0.4 0.25098 0.65098 0.4 
0.25098 0.65098 0.4 0.25098 0.65098 0.4 
0.25098 0.65098 0.4 0.25098 0.65098 0.4 
0.25098 0.65098 0.4 0.25098 0.65098 0.4 
0.25098 0.65098 0.4 0.25098 0.65098 0.4 
0.25098 0.65098 0.4 0.25098 0.65098 0.4 
0.25098 0.65098 0.4 0.25098 0.65098 0.4 
0.25098 0.65098 0.4 0.25098 0.65098 0.4 
0.25098 0.65098 0.4 0.25098 0.65098 0.4 
0.25098 0.65098 0.4 0.25098 0.65098 0.4 
0.25098 0.65098 0.4 0.25098 0.65098 0.4 
0.25098 0.65098 0.4 0.25098 0.65098 0.4 
0.25098 0.65098 0.4 0.25098 0.65098 0.4 
0.25098 0.65098 0.4 0.25098 0.65098 0.4 
0.25098 0.65098 0.4 0.25098 0.65098 0.4 
0.25098 0.65098 0.4 0.25098 0.65098 0.4 
0.25098 0.65098 0.4 0.25098 0.65098 0.4 
0.25098 0.65098 0.4 0.25098 0.65098 0.4 
0.25098 0.65098 0.4 0.25098 0.65098 0.4 
0.25098 0.65098 0.4 0.25098 0.65098 0.4 
0.25098 0.65098 0.4 0.25098 0.65098 0.4 
0.25098 0.65098 0.4 0.25098 0.65098 0.4 
0.25098 0.65098 0.4 0.25098 0.65098 0.4 
0.25098 0.65098 0.4 0.25098 0.65098 0.4 
0.25098 0.65098 0.4 0.25098 0.65098 0.4 
0.25098 0.65098 0.4 0.25098 0.65098 0.4 
0.25098 0.65098 0.4 0.25098 0.65098 0.4 
0.25098 0.65098 0.4 0.25098 0.65098 0.4 
0.25098 0.65098 0.4 0.25098 0.65098 0.4 
0.25098 0.65098 0.4 0.25098 0.65098 0.4 
0.25098 0.65098 0.4 0.25098 0.65098 0.4 
0.25098 0.65098 0.4 0.25098 0.65098 0.4 
0.25098 0.65098 0.4 0.25098 0.65098 0.4 
0.25098 0.65098 0.4 0.25098 0.65098 0.4 
0.25098 0.65098 0.4 0.25098 0.65098 0.4 
0.25098 0.65098 0.4 0.25098 0.65098 0.4 
0.25098 0.65098 0.4 0.25098 0.65098 0.4 
0.25098 0.65098 0.4 0.25098 0.65098 0.4 
0.25098 0.65098 0.4 0.25098 0.65098 0.4 
0.25098 0.65098 0.4 0.25098 0.65098 0.4 
0.25098 0.65098 0.4 0.25098 0.65098 0.4 
0.25098 0.65098 0.4 0.25098 0.65098 0.4 
0.25098 0.65098 0.4 0.25098 0.65098 0.4 
0.25098 0.65098 0.4 0.25098 0.65098 0.4 
0.25098 0.65098 0.4 0.25098 0.65098 0.4 
0.25098 0.65098 0.4 0.25098 0.65098 0.4 
0.25098 0.65098 0.4 0.25098 0.65098 0.4 
0.25098 0.65098 0.4 0.25098 0.65098 0.4 
0.25098 0.65098 0.4 0.25098 0.65098 0.4 
0.25098 0.65098 0.4 0.25098 0.65098 0.4 
0.25098 0.65098 0.4 0.25098 0.65098 0.4 
0.25098 0.65098 0.4 0.25098 0.65098 0.4 
0.25098 0.65098 0.4 0.25098 0.65098 0.4 
0.25098 0.65098 0.4 0.25098 0.65098 0.4 
0.25098 0.65098 0.4 0.25098 0.65098 0.4 
0.25098 0.65098 0.4 0.25098 0.65098 0.4 
0.25098 0.65098 0.4 0.25098 0.65098 0.4 
0.25098 0.65098 0.4 0.25098 0.65098 0.4 
0.25098 0.65098 0.4 0.25098 0.65098 0.4 
0.25098 0.65098 0.4 0.25098 0.65098 0.4 
0.25098 0.65098 0.4 0.25098 0.65098 0.4 
0.25098 0.65098 0.4 0.25098 0.65098 0.4 
0.25098 0.65098 0.4 0.25098 0.65098 0.4 
0.25098 0.65098 0.4 0.25098 0.65098 0.4 
0.25098 0.65098 0.4 0.25098 0.65098 0.4 
0.25098 0.65098 0.4 0.25098 0.65098 0.4 
0.25098 0.65098 0.4 0.25098 0.65098 0.4 
0.25098 0.65098 0.4 0.25098 0.65098 0.4 
0.25098 0.65098 0.4 0.25098 0.65098 0.4 
0.25098 0.65098 0.4 0.25098 0.65098 0.4 
0.25098 0.65098 0.4 0.25098 0.65098 0.4 
0.25098 0.65098 0.4 0.25098 0.65098 0.4 
0.25098 0.65098 0.4 0.25098 0.65098 0.4 
0.25098 0.65098 0.4 0.25098 0.65098 0.4 
0.25098 0.65098 0.4 0.25098 0.65098 0.4 
0.25098 0.65098 0.4 0.25098 0.65098 0.4 
0.25098 0.65098 0.4 0.25098 0.65098 0.4 
0.25098 0.65098 0.4 0.25098 0.65098 0.4 
0.25098 0.65098 0.4 0.25098 0.65098 0.4 
0.25098 0.65098 0.4 0.25098 0.65098 0.4 
0.25098 0.65098 0.4 0.25098 0.65098 0.4 
0.25098 0.65098 0.4 0.25098 0.65098 0.4 
0.25098 0.65098 0.4 0.25098 0.65098 0.4 
0.25098 0.65098 0.4 0.25098 0.65098 0.4 
0.25098 0.65098 0.4 0.25098 0.65098 0.4 
0.25098 0.65098 0.4 0.25098 0.65098 0.4 
0.25098 0.65098 0.4 0.25098 0.65098 0.4 
0.25098 0.65098 0.4 0.25098 0.65098 0.4 
0.25098 0.65098 0.4 0.25098 0.65098 0.4 
0.25098 0.65098 0.4 0.25098 0.65098 0.4 
0.25098 0.65098 0.4 0.25098 0.65098 0.4 
0.25098 0.65098 0.4 0.25098 0.65098 0.4 
0.25098 0.65098 0.4 0.25098 0.65098 0.4 
0.25098 0.65098 0.4 0.25098 0.65098 0.4 
0.25098 0.65098 0.4 0.25098 0.65098 0.4 
0.25098 0.65098 0.4 0.25098 0.65098 0.4 
0.25098 0.65098 0.4 0.25098 0.65098 0.4 
0.25098 0.65098 0.4 0.25098 0.65098 0.4 
0.25098 0.65098 0.4 0.25098 0.65098 0.4 
0.25098 0.65098 0.4 0.25098 0.65098 0.4 
0.25098 0.65098 0.4 0.25098 0.65098 0.4 
0.25098 0.65098 0.4 0.25098 0.65098 0.4 
0.25098 0.65098 0.4 0.25098 0.65098 0.4 
0.25098 0.65098 0.4 0.25098 0.65098 0.4 
0.25098 0.65098 0.4 0.25098 0.65098 0.4 
0.25098 0.65098 0.4 0.25098 0.65098 0.4 
0.25098 0.65098 0.4 0.25098 0.65098 0.4 
0.25098 0.65098 0.4 0.25098 0.65098 0.4 
0.25098 0.65098 0.4 0.25098 0.65098 0.4 
0.25098 0.65098 0.4 0.25098 0.65098 0.4 
0.25098 0.65098 0.4 0.25098 0.65098 0.4 
0.25098 0.65098 0.4 0.25098 0.65098 0.4 
0.25098 0.65098 0.4 0.25098 0.65098 0.4 
0.25098 0.65098 0.4 0.25098 0.65098 0.4 
0.25098 0.65098 0.4 0.25098 0.65098 0.4 
0.25098 0.65098 0.4 0.25098 0.65098 0.4 
0.25098 0.65098 0.4 0.25098 0.65098 0.4 
0.25098 0.65098 0.4 0.25098 0.65098 0.4 
0.25098 0.65098 0.4 0.25098 0.65098 0.4 
0.25098 0.65098 0.4 0.25098 0.65098 0.4 
0.25098 0.65098 0.4 0.25098 0.65098 0.4 
0.25098 0.65098 0.4 0.25098 0.65098 0.4 
0.25098 0.65098 0.4 0.25098 0.65098 0.4 
0.25098 0.65098 0.4 0.25098 0.65098 0.4 
0.25098 0.65098 0.4 0.25098 0.65098 0.4 
0.25098 0.65098 0.4 0.25098 0.65098 0.4 
0.25098 0.65098 0.4 0.25098 0.65098 0.4 
0.25098 0.65098 0.4 0.25098 0.65098 0.4 
0.25098 0.65098 0.4 0.25098 0.65098 0.4 
0.25098 0.65098 0.4 0.25098 0.65098 0.4 
0.25098 0.65098 0.4 0.25098 0.65098 0.4 
0.25098 0.65098 0.4 0.25098 0.65098 0.4 
0.25098 0.65098 0.4 0.25098 0.65098 0.4 
0.25098 0.65098 0.4 0.25098 0.65098 0.4 
0.25098 0.65098 0.4 0.25098 0.65098 0.4 
0.25098 0.65098 0.4 0.25098 0.65098 0.4 
0.25098 0.65098 0.4 0.25098 0.65098 0.4 
0.25098 0.65098 0.4 0.25098 0.65098 0.4 
0.25098 0.65098 0.4 0.25098 0.65098 0.4 
0.25098 0.65098 0.4 0.25098 0.65098 0.4 
0.25098 0.65098 0.4 0.25098 0.65098 0.4 
0.25098 0.65098 0.4 0.25098 0.65098 0.4 
0.25098 0.65098 0.4 0.25098 0.65098 0.4 
0.25098 0.65098 0.4 0.25098 0.65098 0.4 
0.25098 0.65098 0.4 0.25098 0.65098 0.4 
0.25098 0.65098 0.4 0.25098 0.65098 0.4 
0.25098 0.65098 0.4 0.25098 0.65098 0.4 
0.25098 0.65098 0.4 0.25098 0.65098 0.4 
0.25098 0.65098 0.4 0.25098 0.65098 0.4 
0.25098 0.65098 0.4 0.25098 0.65098 0.4 
0.25098 0.65098 0.4 0.25098 0.65098 0.4 
0.25098 0.65098 0.4 0.25098 0.65098 0.4 
0.25098 0.65098 0.4 0.25098 0.65098 0.4 
0.25098 0.65098 0.4 0.25098 0.65098 0.4 
0.25098 0.65098 0.4 0.25098 0.65098 0.4 
0.25098 0.65098 0.4 0.25098 0.65098 0.4 
0.25098 0.65098 0.4 0.25098 0.65098 0.4 
0.25098 0.65098 0.4 0.25098 0.65098 0.4 
0.25098 0.65098 0.4 0.25098 0.65098 0.4 
0.25098 0.65098 0.4 0.25098 0.65098 0.4 
0.25098 0.65098 0.4 0.25098 0.65098 0.4 
0.25098 0.65098 0.4 0.25098 0.65098 0.4 
0.25098 0.65098 0.4 0.25098 0.65098 0.4 
0.25098 0.65098 0.4 0.25098 0.65098 0.4 
0.25098 0.65098 0.4 0.25098 0.65098 0.4 
0.25098 0.65098 0.4 0.25098 0.65098 0.4 
0.25098 0.65098 0.4 0.25098 0.65098 0.4 
0.25098 0.65098 0.4 0.25098 0.65098 0.4 
0.25098 0.65098 0.4 0.25098 0.65098 0.4 
0.25098 0.65098 0.4 0.25098 0.65098 0.4 
0.25098 0.65098 0.4 0.25098 0.65098 0.4 
0.25098 0.65098 0.4 0.25098 0.65098 0.4 
0.25098 0.65098 0.4 0.25098 0.65098 0.4 
0.25098 0.65098 0.4 0.25098 0.65098 0.4 
0.25098 0.65098 0.4 0.25098 0.65098 0.4 
0.25098 0.65098 0.4 0.25098 0.65098 0.4 
0.25098 0.65098 0.4 0.25098 0.65098 0.4 
0.25098 0.65098 0.4 0.25098 0.65098 0.4 
0.25098 0.65098 0.4 0.25098 0.65098 0.4 
0.25098 0.65098 0.4 0.25098 0.65098 0.4 
0.25098 0.65098 0.4 0.25098 0.65098 0.4 
0.25098 0.65098 0.4 0.25098 0.65098 0.4 
0.25098 0.65098 0.4 0.25098 0.65098 0.4 
0.25098 0.65098 0.4 0.25098 0.65098 0.4 
0.25098 0.65098 0.4 0.25098 0.65098 0.4 
0.25098 0.65098 0.4 0.25098 0.65098 0.4 
0.25098 0.65098 0.4 0.25098 0.65098 0.4 
0.25098 0.65098 0.4 0.25098 0.65098 0.4 
0.25098 0.65098 0.4 0.25098 0.65098 0.4 
0.25098 0.65098 0.4 0.25098 0.65098 0.4 
0.25098 0.65098 0.4 0.25098 0.65098 0.4 
0.25098 0.65098 0.4 0.25098 0.65098 0.4 
0.25098 0.65098 0.4 0.25098 0.65098 0.4 
0.25098 0.65098 0.4 0.25098 0.65098 0.4 
0.25098 0.65098 0.4 0.25098 0.65098 0.4 
0.25098 0.65098 0.4 0.25098 0.65098 0.4 
0.25098 0.65098 0.4 0.25098 0.65098 0.4 
0.25098 0.65098 0.4 0.25098 0.65098 0.4 
0.25098 0.65098 0.4 0.25098 0.65098 0.4 
0.25098 0.65098 0.4 0.25098 0.65098 0.4 
0.25098 0.65098 0.4 0.25098 0.65098 0.4 
0.25098 0.65098 0.4 0.25098 0.65098 0.4 
0.25098 0.65098 0.4 0.25098 0.65098 0.4 
0.25098 0.65098 0.4 0.25098 0.65098 0.4 
0.25098 0.65098 0.4 0.25098 0.65098 0.4 
0.25098 0.65098 0.4 0.25098 0.65098 0.4 
0.25098 0.65098 0.4 0.25098 0.65098 0.4 
0.25098 0.65098 0.4 0.25098 0.65098 0.4 
0.25098 0.65098 0.4 0.25098 0.65098 0.4 
0.25098 0.65098 0.4 0.25098 0.65098 0.4 
0.25098 0.65098 0.4 0.25098 0.65098 0.4 
0.25098 0.65098 0.4 0.25098 0.65098 0.4 
0.25098 0.65098 0.4 0.25098 0.65098 0.4 
0.25098 0.65098 0.4 0.25098 0.65098 0.4 
0.25098 0.65098 0.4 0.25098 0.65098 0.4 
0.25098 0.65098 0.4 0.25098 0.65098 0.4 
0.25098 0.65098 0.4 0.25098 0.65098 0.4 
0.25098 0.65098 0.4 0.25098 0.65098 0.4 
0.25098 0.65098 0.4 0.25098 0.65098 0.4 
0.25098 0.65098 0.4 0.25098 0.65098 0.4 
0.25098 0.65098 0.4 0.25098 0.65098 0.4 
0.25098 0.65098 0.4 0.25098 0.65098 0.4 
0.25098 0.65098 0.4 0.25098 0.65098 0.4 
0.25098 0.65098 0.4 0.25098 0.65098 0.4 
0.25098 0.65098 0.4 0.25098 0.65098 0.4 
0.25098 0.65098 0.4 0.25098 0.65098 0.4 
0.25098 0.65098 0.4 0.25098 0.65098 0.4 
0.25098 0.65098 0.4 0.25098 0.65098 0.4 
0.25098 0.65098 0.4 0.25098 0.65098 0.4 
0.25098 0.65098 0.4 0.25098 0.65098 0.4 
0.25098 0.65098 0.4 0.25098 0.65098 0.4 
0.25098 0.65098 0.4 0.25098 0.65098 0.4 
0.25098 0.65098 0.4 0.25098 0.65098 0.4 
0.25098 0.65098 0.4 0.25098 0.65098 0.4 
0.25098 0.65098 0.4 0.25098 0.65098 0.4 
0.25098 0.65098 0.4 0.25098 0.65098 0.4 
0.25098 0.65098 0.4 0.25098 0.65098 0.4 
0.25098 0.65098 0.4 0.25098 0.65098 0.4 
0.25098 0.65098 0.4 0.25098 0.65098 0.4 
0.25098 0.65098 0.4 0.25098 0.65098 0.4 
0.25098 0.65098 0.4 0.25098 0.65098 0.4 
0.25098 0.65098 0.4 0.25098 0.65098 0.4 
0.25098 0.65098 0.4 0.25098 0.65098 0.4 
0.25098 0.65098 0.4 0.25098 0.65098 0.4 
0.25098 0.65098 0.4 0.25098 0.65098 0.4 
0.25098 0.65098 0.4 0.25098 0.65098 0.4 
0.25098 0.65098 0.4 0.25098 0.65098 0.4 
0.25098 0.65098 0.4 0.25098 0.65098 0.4 
0.25098 0.65098 0.4 0.25098 0.65098 0.4 
0.25098 0.65098 0.4 0.25098 0.65098 0.4 
0.25098 0.65098 0.4 0.25098 0.65098 0.4 
0.25098 0.65098 0.4 0.25098 0.65098 0.4 
0.25098 0.65098 0.4 0.25098 0.65098 0.4 
0.25098 0.65098 0.4 0.25098 0.65098 0.4 

NORMALS Normals float
-0.414226 0.11151 -0.903317 -0.528596 0.384077 -0.757015 -0.048709 -0.242671 -0.968885 
-0.239824 -0.302208 -0.92258 0.24751 -0.034754 -0.968262 -0.717468 0.215431 -0.662442 
-0.672135 0.48284 -0.561337 -0.309891 0.510731 -0.801949 -0.152847 0.277755 -0.948414 
-0.0729038 0.142669 -0.987082 -0.36198 0.585897 -0.725048 0.432893 -0.38879 -0.813293 
0.181464 -0.301876 -0.935918 0.0418973 -0.288112 -0.95668 0.0900595 -0.178483 -0.979813 
-0.0342611 -0.402725 -0.914679 -0.80584 0.506849 -0.306149 -0.549096 0.598135 -0.583719 
0.253309 -0.443897 -0.859529 0.370407 -0.0326542 -0.928295 -0.879933 0.262126 -0.396242 
-0.739158 0.618887 -0.265752 -0.689111 0.682357 -0.243958 0.199126 0.186336 -0.962095 
-0.693406 0.693072 -0.197076 -0.36577 0.454358 -0.812263 -0.720451 0.6043 -0.340252 
-0.520318 0.386702 -0.7614 -0.735255 0.377901 -0.562664 0.0409994 -0.609692 -0.791577 
0.117391 -0.56141 -0.819169 0.464907 -0.618043 -0.633943 -0.752987 -0.153009 -0.639999 
0.612721 -0.317843 -0.723567 -0.901944 0.161777 -0.400407 0.57327 -0.170746 -0.801379 
0.28617 0.0407389 -0.957312 -0.881036 0.472842 -0.0140032 -0.0201203 0.184653 -0.982598 
-0.491121 0.230273 -0.840104 -0.315931 0.328367 -0.890148 -0.82838 0.149354 -0.53989 
-0.0943204 0.247068 -0.964397 -0.572986 0.076622 -0.815976 0.170829 0.236946 -0.956386 
-0.664481 0.217755 -0.714876 -0.937495 0.225479 -0.265071 -0.221318 0.263263 -0.938995 
-0.124496 0.130158 -0.983646 0.269599 0.473391 -0.838581 -0.925355 0.309258 -0.219268 
-0.925955 0.331341 -0.181163 -0.851558 0.333402 -0.404589 -0.486103 0.244666 -0.838953 
0.541804 0.61299 -0.575058 -0.835508 0.549378 0.0105312 -0.430263 0.902697 0.00344981 
0.320771 0.512292 -0.796657 -0.448101 0.611894 -0.65176 -0.0227693 -0.645657 -0.763288 
-0.182903 -0.684216 -0.705971 0.727181 -0.485397 -0.485385 -0.316447 -0.605384 -0.730323 
-0.80577 -0.373734 -0.45941 -0.960112 -0.07715 -0.26876 0.830755 -0.5056 -0.232842 
-0.961023 0.142141 -0.237129 -0.940517 0.326686 -0.0933003 0.867888 -0.452601 -0.204752 
-0.896087 0.443862 0.00391052 0.667459 -0.291323 -0.685295 0.896724 -0.214454 -0.387164 
0.841788 0.00425833 -0.539791 0.835168 0.0696975 -0.545561 0.578293 0.00779813 -0.815792 
0.535438 0.0328751 -0.843935 0.334434 0.103743 -0.936692 0.726855 0.124589 -0.675396 
0.853685 -0.00015263 -0.52079 -0.949387 0.277392 -0.147367 0.670726 0.160226 -0.724192 
0.866962 0.112953 -0.485405 0.176132 0.143276 -0.973884 0.635493 0.317898 -0.703626 
-0.927767 0.19288 -0.319446 -0.995092 0.0972513 0.0182611 0.621238 0.673243 -0.401007 
-0.945292 0.281322 -0.165167 0.334921 0.515981 -0.788411 0.435845 0.656979 -0.615157 
0.487359 0.736744 -0.468711 0.427411 0.671847 -0.604931 0.366146 0.719347 -0.59032 
0.390177 0.793304 -0.467366 0.372615 0.716024 -0.590311 0.495464 0.770105 -0.401813 
0.320067 0.829202 -0.458238 -0.799389 0.459669 0.386887 0.567371 0.65277 -0.501978 
0.439124 0.898426 -0.000285331 0.53 0.800656 -0.279373 -0.587826 0.72306 0.362829 
-0.196456 0.889519 0.412507 0.285259 0.931325 -0.226411 0.477219 -0.589968 -0.651306 
-0.676834 -0.529188 -0.511718 -0.959462 0.264947 0.0961075 -0.703397 0.698548 0.131391 
0.961378 -0.0683592 -0.266608 0.92697 0.0926967 -0.363503 0.971023 0.186179 -0.149839 
0.766971 0.499838 -0.40239 0.579747 0.753695 -0.309575 0.565819 0.80992 -0.154529 
0.464413 0.885536 -0.012124 0.408037 0.912587 -0.0262695 0.390991 0.904261 -0.171574 
0.478479 0.875143 -0.071986 0.803341 -0.385561 -0.453856 -0.492753 -0.847408 -0.197722 
-0.474322 -0.78829 -0.391941 -0.703566 -0.621896 -0.343861 -0.7309 -0.677203 -0.0847389 
-0.913887 -0.395515 -0.0915309 -0.582331 -0.675155 -0.452832 -0.963457 -0.267771 0.00708923 
0.877056 -0.478281 0.0449522 -0.747541 0.565032 0.349172 0.963575 -0.234902 0.127841 
0.998096 -0.0616607 -0.0014253 0.973604 0.140091 -0.180196 0.953327 0.292704 -0.0741077 
0.766633 0.62769 0.1352 0.827614 0.523192 -0.203285 -0.940749 0.225702 0.253081 
0.544388 0.837017 0.0551691 0.504436 0.838405 0.206448 0.0960164 0.939563 0.328637 
-0.201409 0.765937 0.610553 -0.390438 -0.732705 -0.557406 0.923584 -0.361756 -0.126983 