# vtk DataFile Version 4.2
vtk output
ASCII
DATASET POLYDATA
POINTS 652 float
169.003 65.1779 215.304 161.063 67.7828 215.574 160.986 67.6235 215.62 
160.798 67.7317 215.767 161.261 67.6201 215.521 161.731 67.7269 215.389 
178.24 62.4091 216.267 178.875 62.6517 216.191 180.648 62.5194 216.49 
180.532 62.4123 216.508 180.383 62.6274 216.443 180.788 62.5343 216.585 
180.668 62.3605 216.61 180.874 62.4193 216.821 173.957 63.143 216.094 
176.959 63.3501 215.726 180.671 62.7721 216.512 180.873 62.7048 216.69 
171.09 64.1241 215.746 172.376 64.4968 215.508 174.237 64.3765 215.464 
178.854 63.6836 215.85 174.967 65.1548 215.295 177.35 64.538 215.499 
164.806 65.9221 215.644 160.921 67.3678 215.793 160.621 66.9208 216.21 
160.418 67.2708 216.105 162.198 66.9663 215.556 164.768 67.4427 215.118 
160.119 67.3834 216.295 160.863 68.2763 215.963 180.281 62.234 216.648 
179.696 62.1086 216.649 180.989 62.4115 217.088 170.012 63.747 216.14 
169.394 63.6307 216.339 170.569 63.3115 216.469 173.167 63.3604 216.018 
173.888 62.7179 216.448 180.297 63.2437 216.4 181.048 63.4508 217.061 
165.449 65.3114 215.942 162.828 66.1763 215.854 169.67 68.6522 214.951 
163.067 71.4051 216.773 165.559 71.4697 215.514 175.822 70.7341 215.577 
166.297 74.2375 215.852 165.911 76.3119 216.372 166.073 78.9596 216.661 
166.628 79.7831 216.374 165.748 80.8373 217.306 167.947 80.5352 215.974 
166.142 81.618 216.951 166.606 82.3734 216.71 168.887 82.577 216.04 
167.074 83.0446 216.59 168.709 83.3451 216.19 166.143 83.6145 217.383 
166.571 83.8921 217.127 166.662 84.5111 217.304 166.587 84.7897 217.594 
167.524 85.5119 217.303 180.153 61.4333 217.592 180.624 61.7599 217.458 
181.06 62.4147 217.464 167.604 63.485 217.202 166.536 64.1381 216.758 
166.124 63.9409 217.219 180.394 66.4293 216.673 181.209 65.1221 217.51 
158.389 66.9868 218.02 180.906 66.7009 217.202 181.217 66.1087 217.634 
158.717 67.6524 217.792 180.022 68.3872 216.605 180.906 68.4251 217.358 
181.22 67.9224 217.808 160.955 69.6422 217.173 181.209 69.7809 217.909 
179.115 72.2012 216.381 180.412 71.6408 217.045 181.541 74.0533 218.064 
165.445 80.0413 217.749 182.332 79.9123 218.071 165.59 81.8076 217.924 
182.553 81.2292 218.123 181.551 82.16 217.427 165.989 83.638 217.626 
181.945 82.7449 217.826 166.291 84.5281 218.008 169.595 85.324 216.477 
180.343 83.735 217.303 182.219 83.1728 218.253 166.955 85.358 217.653 
166.856 85.5123 218.007 180.926 84.4103 217.97 181.46 84.1519 218.226 
168.109 86.4599 217.485 169.316 86.7451 217.039 174.171 86.2421 216.996 
168.006 86.8868 217.88 178.135 85.8216 217.782 169.232 88.0645 217.788 
173.662 87.7059 217.809 169.478 88.6489 218.077 169.651 88.9804 218.292 
170.966 88.9606 218.136 172.251 88.563 218.023 170.222 89.214 218.278 
180.455 61.1196 218.488 176.142 61.4384 218.139 177.338 61.4537 217.49 
174.278 61.9314 217.447 173.828 61.803 217.927 167.284 63.2682 218.061 
160.832 65.5256 218.238 181.414 64.6692 218.075 159.224 66.1586 218.067 
158.215 66.9422 218.265 158.223 66.7994 218.482 158.092 67.0809 218.503 
181.402 66.4277 218.211 158.216 67.1855 218.204 158.323 67.4804 218.135 
158.47 67.7525 218.146 159.829 69.0884 217.996 160.734 70.1365 218.352 
181.634 73.2787 218.607 164.526 75.5555 217.778 182.049 75.7745 218.404 
165.239 79.2421 218.253 165.435 81.0674 218.407 182.619 80.7582 218.338 
182.669 82.1486 218.565 182.536 82.9082 218.677 182.339 83.4515 218.589 
182.208 83.7755 218.736 166.561 85.1414 218.263 181.06 84.6267 218.293 
180.824 84.9046 218.496 167.333 86.3947 218.58 179.508 85.6061 218.544 
168.552 87.9824 218.364 168.883 88.4427 218.589 174.572 87.7814 218.591 
176.06 87.0639 218.323 169.249 88.8201 218.799 172.709 88.5303 218.247 
173.27 88.3772 218.536 169.621 89.0809 218.584 169.962 89.2977 218.682 
170.556 89.2509 218.368 171.525 89.0254 218.468 170.236 89.3436 218.512 
179.83 60.5603 219.092 179.543 60.5878 218.952 180.056 60.646 218.931 
178.628 60.8459 218.649 180.559 61.1804 218.948 169.436 62.3231 218.906 
173.337 61.8247 219.009 180.751 61.561 219.055 168.92 62.6012 218.577 
168.871 62.6802 219.12 168.313 62.8222 218.771 181.082 62.2029 218.427 
165.088 64.0067 218.568 166.528 63.5202 218.007 163.6 64.5451 218.696 
158.995 66.2384 218.828 160.189 65.8519 218.988 181.448 64.9606 218.611 
158.695 66.4959 219.005 158.053 67.2628 218.763 158.251 67.6387 218.361 
158.178 67.6387 218.573 158.479 67.9154 218.466 160.274 69.7596 218.631 
161.064 70.5785 218.752 162.003 71.5736 218.558 181.507 71.5562 219.063 
163.627 73.9479 218.435 164.4 75.6311 218.414 182.022 75.2514 218.816 
165.137 78.4464 218.788 165.399 80.3469 218.922 182.694 80.3531 219.198 
182.782 81.675 218.935 182.571 82.9901 219.217 182.125 83.8903 219.078 
166.997 85.8939 218.938 176.624 86.9314 218.679 173.894 88.1389 218.848 
175.117 87.5931 218.9 170.089 89.3151 218.922 170.527 89.3596 218.681 
171.344 89.1474 218.842 170.233 89.3902 218.739 179.836 60.5832 219.37 
179.528 60.5741 219.258 180.088 60.6603 219.19 180.321 60.9025 219.258 
177.78 61.0392 219.19 178.637 60.9514 219.7 170.672 62.2092 219.204 
169.687 62.5921 219.444 164.625 64.3259 219.19 160.013 66.1062 219.322 
181.345 65.1526 219.157 158.18 66.9939 219.093 158.352 66.9605 219.243 
159.101 66.5265 219.338 158.272 67.1453 219.236 158.134 67.2057 219.038 
158.091 67.5012 218.725 158.161 67.4818 218.962 159.157 68.523 219.31 
181.323 69.8736 219.526 160.7 70.231 219.157 163.364 73.5426 218.734 
164.116 74.9414 218.837 182.226 76.9125 219.296 165.495 79.6601 219.447 
182.406 78.8371 219.525 165.707 81.4656 219.533 182.58 80.5515 219.678 
182.721 81.835 219.414 165.941 82.9122 219.631 182.623 82.4737 219.53 
182.462 82.9958 219.655 181.992 83.9273 219.437 181.678 84.0738 219.633 
182.243 83.298 219.802 167.55 86.5722 219.583 178.562 86.0436 219.194 
178.094 86.1427 219.456 176.442 87.003 219.134 175.959 87.1252 219.392 
168.482 88.0203 219.254 173.8 88.091 219.396 174.323 87.6865 219.687 
169.269 88.6596 219.595 172.053 88.8332 219.326 173.192 88.2501 219.612 
170.208 89.1434 219.275 170.37 89.3462 218.925 170.785 89.054 219.424 
179.811 60.675 219.577 177.865 61.2411 219.798 178.711 61.1697 219.981 
180.38 61.4179 219.669 173.98 62.2014 219.904 168.727 63.3405 219.915 
174.871 62.4861 220.284 176.454 62.3141 220.344 170.068 63.5081 220.39 
167.118 64.5157 220.337 181.029 63.5549 219.59 159.771 66.5218 219.617 
160.61 66.276 219.711 159.622 67.9116 219.933 159.483 68.4324 219.719 
159.4 68.6812 219.557 161.758 68.42 220.662 159.911 69.2769 219.472 
160.445 69.6951 219.695 161.258 70.696 219.643 161.289 70.5373 219.863 
163.443 73.3438 219.672 164.738 75.6295 219.722 181.958 76.3038 219.789 
165.73 79.0147 219.958 165.953 80.9357 219.996 182.355 80.7145 220.048 
182.582 81.2637 219.76 166.177 83.0929 219.939 182.271 82.96 219.959 
166.986 84.9742 220.014 181.368 83.9028 219.993 167.037 85.4597 219.76 
167.795 86.6067 219.923 177.746 85.9508 219.898 168.311 87.4614 219.819 
175.627 86.9453 219.851 173.966 87.4328 220.134 172.792 88.056 220.003 
169.547 88.7732 219.711 180.079 61.1786 219.795 179.194 62.0255 220.363 
174.529 63.9855 221.047 176.687 63.8738 221.077 171.562 64.9941 221.184 
176.316 65.3789 221.424 178.826 65.0793 221.086 180.174 64.7594 220.499 
179.434 67.7354 221.099 159.66 68.8848 219.643 161.051 69.9734 220.011 
174.071 70.0689 221.872 179.413 69.6805 221.183 180.623 69.3586 220.466 
161.851 70.8382 220.095 163.543 71.1945 220.883 162.704 71.8789 220.07 
166.243 74.2941 221.246 168.118 75.1827 221.651 166.112 78.4231 220.44 
167.373 77.5666 221.24 178.75 78.8009 221.61 181.119 78.5039 220.83 
181.68 78.3302 220.422 166.422 81.3886 220.418 167.606 80.7229 221.136 
181.152 79.5029 220.859 168.393 81.4689 221.355 181.845 80.3823 220.461 
166.504 83.0189 220.257 167.711 83.585 220.872 175.734 82.6612 221.6 
167.273 84.7521 220.345 180.089 82.981 220.88 167.896 85.3896 220.533 
169.269 85.9423 220.93 175.325 85.1355 221.052 168.22 87.0038 220.053 
171.464 87.1023 220.804 173.053 86.7442 220.791 169.995 88.0195 220.3 
169.988 88.5397 219.989 180.103 60.8132 235.115 179.989 60.6393 235.208 
179.872 60.774 235.068 180.173 60.6947 235.267 179.331 61.4197 234.74 
178.75 61.4609 234.704 180.234 61.0611 235.088 177.973 62.2862 234.368 
178.625 62.7481 234.217 179.311 62.5571 234.366 179.838 63.1026 234.412 
180.445 62.8594 234.756 176.724 64.4726 233.737 180.884 62.9687 235.035 
181.11 63.2874 235.246 181.102 64.7591 235.179 180.69 66.0302 234.68 
162.286 67.8178 234.316 178.734 67.7453 233.661 159.623 68.6141 235.312 
159.219 68.2625 235.494 159.39 68.6366 235.559 160.223 68.8999 235.069 
161.217 68.325 234.572 162.975 69.4354 234.029 180.096 69.2592 234.176 
165.348 71.1133 233.538 162.52 71.4435 234.765 164.299 72.7548 234.18 
164.522 74.4449 234.733 165.296 74.8993 234.282 181.341 73.6734 235.016 
165.216 76.2407 234.857 167.287 77.0221 233.681 165.781 80.0449 235.239 
166.253 80.9723 234.831 174.808 81.8225 233.252 178.559 81.6159 233.556 
182.558 81.1395 235.175 166.641 84.1527 235.157 169.991 83.8331 233.561 
167.075 84.7749 234.941 177.228 84.203 233.944 180.77 83.5422 234.655 
182.332 82.8216 235.321 167.072 85.278 235.16 167.29 85.8726 235.271 
169.092 85.6294 234.117 168.386 86.4501 234.708 175.005 86.5262 234.561 
168.616 87.7577 235.302 175.482 86.9424 235.039 169.374 88.4024 235.36 
169.815 88.3549 235.174 169.759 88.7363 235.561 179.764 60.6605 235.166 
179.82 60.5912 235.382 179.55 60.6657 235.247 180.081 60.6191 235.373 
180.264 60.7594 235.471 178.424 61.3092 234.867 180.481 61.0472 235.525 
176.723 61.7766 234.976 176.625 61.4125 235.604 167.726 63.3774 235.511 
169.195 63.1794 235.164 169.508 62.6523 235.692 165.258 64.1155 235.982 
164.711 64.4475 235.705 181.099 62.5342 235.451 181.236 62.9498 235.56 
163.313 65.2393 235.39 163.097 64.9311 235.948 159.657 66.2997 235.943 
161.37 66.0074 235.453 161.891 65.5057 235.824 163.104 65.7718 234.967 
181.334 64.334 235.655 158.769 66.9966 235.782 158.293 67.004 235.971 
[...]
POINT_DATA 652
COLOR_SCALARS scalars 3
0.25098 0.65098 0.4 0.25098 0.65098 0.4 0.25098 0.65098 0.4 
0.25098 0.65098 0.4 0.25098 0.65098 0.4 
0.25098 0.65098 0.4 0.25098 0.65098 0.4 
0.25098 0.65098 0.4 0.25098 0.65098 0.4 
0.25098 0.65098 0.4 0.25098 0.65098 0.4 
0.25098 0.65098 0.4 0.25098 0.65098 0.4 
0.25098 0.65098 0.4 0.25098 0.65098 0.4 
0.25098 0.65098 0.4 0.25098 0.65098 0.4 
0.25098 0.65098 0.4 0.25098 0.65098 0.4 
0.25098 0.65098 0.4 0.25098 0.65098 0.4 
0.25098 0.65098 0.4 0.25098 0.65098 0.4 
0.25098 0.65098 0.4 0.25098 0.65098 0.4 
0.25098 0.65098 0.4 0.25098 0.65098 0.4 
0.25098 0.65098 0.4 0.25098 0.65098 0.4 
0.25098 0.65098 0.4 0.25098 0.65098 0.4 
0.25098 0.65098 0.4 0.25098 0.65098 0.4 
0.25098 0.65098 0.4 0.25098 0.65098 0.4 
0.25098 0.65098 0.4 0.25098 0.65098 0.4 
0.25098 0.65098 0.4 0.25098 0.65098 0.4 
0.25098 0.65098 0.4 0.25098 0.65098 0.4 
0.25098 0.65098 0.4 0.25098 0.65098 0.4 
0.25098 0.65098 0.4 0.25098 0.65098 0.4 
0.25098 0.65098 0.4 0.25098 0.65098 0.4 
0.25098 0.65098 0.4 0.25098 0.65098 0.4 
0.25098 0.65098 0.4 0.25098 0.65098 0.4 
0.25098 0.65098 0.4 0.25098 0.65098 0.4 
0.25098 0.65098 0.4 0.25098 0.65098 0.4 
0.25098 0.65098 0.4 0.25098 0.65098 0.4 
0.25098 0.65098 0.4 0.25098 0.65098 0.4 
0.25098 0.65098 0.4 0.25098 0.65098 0.4 
0.25098 0.65098 0.4 0.25098 0.65098 0.4 
0.25098 0.65098 0.4 0.25098 0.65098 0.4 
0.25098 0.65098 0.4 0.25098 0.65098 0.4 
0.25098 0.65098 0.4 0.25098 0.65098 0.4 
0.25098 0.65098 0.4 0.25098 0.65098 0.4 
0.25098 0.65098 0.4 0.25098 0.65098 0.4 
0.25098 0.65098 0.4 0.25098 0.65098 0.4 
0.25098 0.65098 0.4 0.25098 0.65098 0.4 
0.25098 0.65098 0.4 0.25098 0.65098 0.4 
0.25098 0.65098 0.4 0.25098 0.65098 0.4 
0.25098 0.65098 0.4 0.25098 0.65098 0.4 
0.25098 0.65098 0.4 0.25098 0.65098 0.4 
0.25098 0.65098 0.4 0.25098 0.65098 0.4 
0.25098 0.65098 0.4 0.25098 0.65098 0.4 
0.25098 0.65098 0.4 0.25098 0.65098 0.4 
0.25098 0.65098 0.4 0.25098 0.65098 0.4 
0.25098 0.65098 0.4 0.25098 0.65098 0.4 
0.25098 0.65098 0.4 0.25098 0.65098 0.4 
0.25098 0.65098 0.4 0.25098 0.65098 0.4 
0.25098 0.65098 0.4 0.25098 0.65098 0.4 
0.25098 0.65098 0.4 0.25098 0.65098 0.4 
0.25098 0.65098 0.4 0.25098 0.65098 0.4 
0.25098 0.65098 0.4 0.25098 0.65098 0.4 
0.25098 0.65098 0.4 0.25098 0.65098 0.4 
0.25098 0.65098 0.4 0.25098 0.65098 0.4 
0.25098 0.65098 0.4 0.25098 0.65098 0.4 
0.25098 0.65098 0.4 0.25098 0.65098 0.4 
0.25098 0.65098 0.4 0.25098 0.65098 0.4 
0.25098 0.65098 0.4 0.25098 0.65098 0.4 
0.25098 0.65098 0.4 0.25098 0.65098 0.4 
0.25098 0.65098 0.4 0.25098 0.65098 0.4 
0.25098 0.65098 0.4 0.25098 0.65098 0.4 
0.25098 0.65098 0.4 0.25098 0.65098 0.4 
0.25098 0.65098 0.4 0.25098 0.65098 0.4 
0.25098 0.65098 0.4 0.25098 0.65098 0.4 
0.25098 0.65098 0.4 0.25098 0.65098 0.4 
0.25098 0.65098 0.4 0.25098 0.65098 0.4 
0.25098 0.65098 0.4 0.25098 0.65098 0.4 
0.25098 0.65098 0.4 0.25098 0.65098 0.4 
0.25098 0.65098 0.4 0.25098 0.65098 0.4 
0.25098 0.65098 0.4 0.25098 0.65098 0.4 
0.25098 0.65098 0.4 0.25098 0.65098 0.4 
0.25098 0.65098 0.4 0.25098 0.65098 0.4 
0.25098 0.65098 0.4 0.25098 0.65098 0.4 
0.25098 0.65098 0.4 0.25098 0.65098 0.4 
0.25098 0.65098 0.4 0.25098 0.65098 0.4 
0.25098 0.65098 0.4 0.25098 0.65098 0.4 
0.25098 0.65098 0.4 0.25098 0.65098 0.4 
0.25098 0.65098 0.4 0.25098 0.65098 0.4 
0.25098 0.65098 0.4 0.25098 0.65098 0.4 
0.25098 0.65098 0.4 0.25098 0.65098 0.4 
0.25098 0.65098 0.4 0.25098 0.65098 0.4 
0.25098 0.65098 0.4 0.25098 0.65098 0.4 
0.25098 0.65098 0.4 0.25098 0.65098 0.4 
0.25098 0.65098 0.4 0.25098 0.65098 0.4 
0.25098 0.65098 0.4 0.25098 0.65098 0.4 
0.25098 0.65098 0.4 0.25098 0.65098 0.4 
0.25098 0.65098 0.4 0.25098 0.65098 0.4 
0.25098 0.65098 0.4 0.25098 0.65098 0.4 
0.25098 0.65098 0.4 0.25098 0.65098 0.4 
0.25098 0.65098 0.4 0.25098 0.65098 0.4 
0.25098 0.65098 0.4 0.25098 0.65098 0.4 
0.25098 0.65098 0.4 0.25098 0.65098 0.4 
0.25098 0.65098 0.4 0.25098 0.65098 0.4 
0.25098 0.65098 0.4 0.25098 0.65098 0.4 
0.25098 0.65098 0.4 0.25098 0.65098 0.4 
0.25098 0.65098 0.4 0.25098 0.65098 0.4 
0.25098 0.65098 0.4 0.25098 0.65098 0.4 
0.25098 0.65098 0.4 0.25098 0.65098 0.4 
0.25098 0.65098 0.4 0.25098 0.65098 0.4 
0.25098 0.65098 0.4 0.25098 0.65098 0.4 
0.25098 0.65098 0.4 0.25098 0.65098 0.4 
0.25098 0.65098 0.4 0.25098 0.65098 0.4 
0.25098 0.65098 0.4 0.25098 0.65098 0.4 
0.25098 0.65098 0.4 0.25098 0.65098 0.4 
0.25098 0.65098 0.4 0.25098 0.65098 0.4 
0.25098 0.65098 0.4 0.25098 0.65098 0.4 
0.25098 0.65098 0.4 0.25098 0.65098 0.4 
0.25098 0.65098 0.4 0.25098 0.65098 0.4 
0.25098 0.65098 0.4 0.25098 0.65098 0.4 
0.25098 0.65098 0.4 0.25098 0.65098 0.4 
0.25098 0.65098 0.4 0.25098 0.65098 0.4 
0.25098 0.65098 0.4 0.25098 0.65098 0.4 
0.25098 0.65098 0.4 0.25098 0.65098 0.4 
0.25098 0.65098 0.4 0.25098 0.65098 0.4 
0.25098 0.65098 0.4 0.25098 0.65098 0.4 
0.25098 0.65098 0.4 0.25098 0.65098 0.4 
0.25098 0.65098 0.4 0.25098 0.65098 0.4 
0.25098 0.65098 0.4 0.25098 0.65098 0.4 
0.25098 0.65098 0.4 0.25098 0.65098 0.4 
0.25098 0.65098 0.4 0.25098 0.65098 0.4 
0.25098 0.65098 0.4 0.25098 0.65098 0.4 
0.25098 0.65098 0.4 0.25098 0.65098 0.4 
0.25098 0.65098 0.4 0.25098 0.65098 0.4 
0.25098 0.65098 0.4 0.25098 0.65098 0.4 
0.25098 0.65098 0.4 0.25098 0.65098 0.4 
0.25098 0.65098 0.4 0.25098 0.65098 0.4 
0.25098 0.65098 0.4 0.25098 0.65098 0.4 
0.25098 0.65098 0.4 0.25098 0.65098 0.4 
0.25098 0.65098 0.4 0.25098 0.65098 0.4 
0.25098 0.65098 0.4 0.25098 0.65098 0.4 
0.25098 0.65098 0.4 0.25098 0.65098 0.4 
0.25098 0.65098 0.4 0.25098 0.65098 0.4 
0.25098 0.65098 0.4 0.25098 0.65098 0.4 
0.25098 0.65098 0.4 0.25098 0.65098 0.4 
0.25098 0.65098 0.4 0.25098 0.65098 0.4 
0.25098 0.65098 0.4 0.25098 0.65098 0.4 
0.25098 0.65098 0.4 0.25098 0.65098 0.4 
0.25098 0.65098 0.4 0.25098 0.65098 0.4 
0.25098 0.65098 0.4 0.25098 0.65098 0.4 
0.25098 0.65098 0.4 0.25098 0.65098 0.4 
0.25098 0.65098 0.4 0.25098 0.65098 0.4 
0.25098 0.65098 0.4 0.25098 0.65098 0.4 
0.25098 0.65098 0.4 0.25098 0.65098 0.4 
0.25098 0.65098 0.4 0.25098 0.65098 0.4 
0.25098 0.65098 0.4 0.25098 0.65098 0.4 
0.25098 0.65098 0.4 0.25098 0.65098 0.4 
0.25098 0.65098 0.4 0.25098 0.65098 0.4 
0.25098 0.65098 0.4 0.25098 0.65098 0.4 
0.25098 0.65098 0.4 0.25098 0.65098 0.4 
0.25098 0.65098 0.4 0.25098 0.65098 0.4 
0.25098 0.65098 0.4 0.25098 0.65098 0.4 
0.25098 0.65098 0.4 0.25098 0.65098 0.4 
0.25098 0.65098 0.4 0.25098 0.65098 0.4 
0.25098 0.65098 0.4 0.25098 0.65098 0.4 
0.25098 0.65098 0.4 0.25098 0.65098 0.4 
0.25098 0.65098 0.4 0.25098 0.65098 0.4 
0.25098 0.65098 0.4 0.25098 0.65098 0.4 
0.25098 0.65098 0.4 0.25098 0.65098 0.4 
0.25098 0.65098 0.4 0.25098 0.65098 0.4 
0.25098 0.65098 0.4 0.25098 0.65098 0.4 
0.25098 0.65098 0.4 0.25098 0.65098 0.4 
0.25098 0.65098 0.4 0.25098 0.65098 0.4 
0.25098 0.65098 0.4 0.25098 0.65098 0.4 
0.25098 0.65098 0.4 0.25098 0.65098 0.4 
0.25098 0.65098 0.4 0.25098 0.65098 0.4 
0.25098 0.65098 0.4 0.25098 0.65098 0.4 
0.25098 0.65098 0.4 0.25098 0.65098 0.4 
0.25098 0.65098 0.4 0.25098 0.65098 0.4 
0.25098 0.65098 0.4 0.25098 0.65098 0.4 
0.25098 0.65098 0.4 0.25098 0.65098 0.4 
0.25098 0.65098 0.4 0.25098 0.65098 0.4 
0.25098 0.65098 0.4 0.25098 0.65098 0.4 
0.25098 0.65098 0.4 0.25098 0.65098 0.4 
0.25098 0.65098 0.4 0.25098 0.65098 0.4 
0.25098 0.65098 0.4 0.25098 0.65098 0.4 
0.25098 0.65098 0.4 0.25098 0.65098 0.4 
0.25098 0.65098 0.4 0.25098 0.65098 0.4 
0.25098 0.65098 0.4 0.25098 0.65098 0.4 
0.25098 0.65098 0.4 0.25098 0.65098 0.4 
0.25098 0.65098 0.4 0.25098 0.65098 0.4 
0.25098 0.65098 0.4 0.25098 0.65098 0.4 
0.25098 0.65098 0.4 0.25098 0.65098 0.4 
0.25098 0.65098 0.4 0.25098 0.65098 0.4 
0.25098 0.65098 0.4 0.25098 0.65098 0.4 
0.25098 0.65098 0.4 0.25098 0.65098 0.4 
0.25098 0.65098 0.4 0.25098 0.65098 0.4 
0.25098 0.65098 0.4 0.25098 0.65098 0.4 
0.25098 0.65098 0.4 0.25098 0.65098 0.4 
0.25098 0.65098 0.4 0.25098 0.65098 0.4 
0.25098 0.65098 0.4 0.25098 0.65098 0.4 
0.25098 0.65098 0.4 0.25098 0.65098 0.4 
0.25098 0.65098 0.4 0.25098 0.65098 0.4 
0.25098 0.65098 0.4 0.25098 0.65098 0.4 
0.25098 0.65098 0.4 0.25098 0.65098 0.4 
0.25098 0.65098 0.4 0.25098 0.65098 0.4 
0.25098 0.65098 0.4 0.25098 0.65098 0.4 
0.25098 0.65098 0.4 0.25098 0.65098 0.4 
0.25098 0.65098 0.4 0.25098 0.65098 0.4 
0.25098 0.65098 0.4 0.25098 0.65098 0.4 
0.25098 0.65098 0.4 0.25098 0.65098 0.4 
0.25098 0.65098 0.4 0.25098 0.65098 0.4 
0.25098 0.65098 0.4 0.25098 0.65098 0.4 
0.25098 0.65098 0.4 0.25098 0.65098 0.4 
0.25098 0.65098 0.4 0.25098 0.65098 0.4 
0.25098 0.65098 0.4 0.25098 0.65098 0.4 
0.25098 0.65098 0.4 0.25098 0.65098 0.4 
0.25098 0.65098 0.4 0.25098 0.65098 0.4 
0.25098 0.65098 0.4 0.25098 0.65098 0.4 
0.25098 0.65098 0.4 0.25098 0.65098 0.4 
0.25098 0.65098 0.4 0.25098 0.65098 0.4 
0.25098 0.65098 0.4 0.25098 0.65098 0.4 
0.25098 0.65098 0.4 0.25098 0.65098 0.4 
0.25098 0.65098 0.4 0.25098 0.65098 0.4 
0.25098 0.65098 0.4 0.25098 0.65098 0.4 
0.25098 0.65098 0.4 0.25098 0.65098 0.4 
0.25098 0.65098 0.4 0.25098 0.65098 0.4 
0.25098 0.65098 0.4 0.25098 0.65098 0.4 
0.25098 0.65098 0.4 0.25098 0.65098 0.4 
0.25098 0.65098 0.4 0.25098 0.65098 0.4 
0.25098 0.65098 0.4 0.25098 0.65098 0.4 
0.25098 0.65098 0.4 0.25098 0.65098 0.4 
0.25098 0.65098 0.4 0.25098 0.65098 0.4 
0.25098 0.65098 0.4 0.25098 0.65098 0.4 
0.25098 0.65098 0.4 0.25098 0.65098 0.4 
0.25098 0.65098 0.4 0.25098 0.65098 0.4 
0.25098 0.65098 0.4 0.25098 0.65098 0.4 
0.25098 0.65098 0.4 0.25098 0.65098 0.4 
0.25098 0.65098 0.4 0.25098 0.65098 0.4 
0.25098 0.65098 0.4 0.25098 0.65098 0.4 
0.25098 0.65098 0.4 0.25098 0.65098 0.4 
0.25098 0.65098 0.4 0.25098 0.65098 0.4 
0.25098 0.65098 0.4 0.25098 0.65098 0.4 
0.25098 0.65098 0.4 0.25098 0.65098 0.4 
0.25098 0.65098 0.4 0.25098 0.65098 0.4 
0.25098 0.65098 0.4 0.25098 0.65098 0.4 
0.25098 0.65098 0.4 0.25098 0.65098 0.4 
0.25098 0.65098 0.4 0.25098 0.65098 0.4 
0.25098 0.65098 0.4 0.25098 0.65098 0.4 
0.25098 0.65098 0.4 0.25098 0.65098 0.4 
0.25098 0.65098 0.4 0.25098 0.65098 0.4 
0.25098 0.65098 0.4 0.25098 0.65098 0.4 
0.25098 0.65098 0.4 0.25098 0.65098 0.4 
0.25098 0.65098 0.4 0.25098 0.65098 0.4 
0.25098 0.65098 0.4 0.25098 0.65098 0.4 
0.25098 0.65098 0.4 0.25098 0.65098 0.4 
0.25098 0.65098 0.4 0.25098 0.65098 0.4 
0.25098 0.65098 0.4 0.25098 0.65098 0.4 
0.25098 0.65098 0.4 0.25098 0.65098 0.4 
0.25098 0.65098 0.4 0.25098 0.65098 0.4 
0.25098 0.65098 0.4 0.25098 0.65098 0.4 
0.25098 0.65098 0.4 0.25098 0.65098 0.4 
0.25098 0.65098 0.4 0.25098 0.65098 0.4 
0.25098 0.65098 0.4 0.25098 0.65098 0.4 
0.25098 0.65098 0.4 0.25098 0.65098 0.4 
0.25098 0.65098 0.4 0.25098 0.65098 0.4 
0.25098 0.65098 0.4 0.25098 0.65098 0.4 
0.25098 0.65098 0.4 0.25098 0.65098 0.4 
0.25098 0.65098 0.4 0.25098 0.65098 0.4 
0.25098 0.65098 0.4 0.25098 0.65098 0.4 
0.25098 0.65098 0.4 0.25098 0.65098 0.4 
0.25098 0.65098 0.4 0.25098 0.65098 0.4 
0.25098 0.65098 0.4 0.25098 0.65098 0.4 
0.25098 0.65098 0.4 0.25098 0.65098 0.4 
0.25098 0.65098 0.4 0.25098 0.65098 0.4 
0.25098 0.65098 0.4 0.25098 0.65098 0.4 
0.25098 0.65098 0.4 0.25098 0.65098 0.4 
0.25098 0.65098 0.4 0.25098 0.65098 0.4 
0.25098 0.65098 0.4 0.25098 0.65098 0.4 
0.25098 0.65098 0.4 0.25098 0.65098 0.4 
0.25098 0.65098 0.4 0.25098 0.65098 0.4 
0.25098 0.65098 0.4 0.25098 0.65098 0.4 
0.25098 0.65098 0.4 0.25098 0.65098 0.4 
0.25098 0.65098 0.4 0.25098 0.65098 0.4 
0.25098 0.65098 0.4 0.25098 0.65098 0.4 
0.25098 0.65098 0.4 0.25098 0.65098 0.4 
0.25098 0.65098 0.4 0.25098 0.65098 0.4 
0.25098 0.65098 0.4 0.25098 0.65098 0.4 
0.25098 0.65098 0.4 0.25098 0.65098 0.4 
0.25098 0.65098 0.4 0.25098 0.65098 0.4 
0.25098 0.65098 0.4 0.25098 0.65098 0.4 
0.25098 0.65098 0.4 0.25098 0.65098 0.4 
0.25098 0.65098 0.4 0.25098 0.65098 0.4 
0.25098 0.65098 0.4 0.25098 0.65098 0.4 
0.25098 0.65098 0.4 0.25098 0.65098 0.4 
0.25098 0.65098 0.4 0.25098 0.65098 0.4 
0.25098 0.65098 0.4 0.25098 0.65098 0.4 
0.25098 0.65098 0.4 0.25098 0.65098 0.4 
0.25098 0.65098 0.4 0.25098 0.65098 0.4 
0.25098 0.65098 0.4 0.25098 0.65098 0.4 
0.25098 0.65098 0.4 0.25098 0.65098 0.4 
0.25098 0.65098 0.4 0.25098 0.65098 0.4 
0.25098 0.65098 0.4 0.25098 0.65098 0.4 
0.25098 0.65098 0.4 0.25098 0.65098 0.4 
0.25098 0.65098 0.4 0.25098 0.65098 0.4 
0.25098 0.65098 0.4 0.25098 0.65098 0.4 
0.25098 0.65098 0.4 0.25098 0.65098 0.4 
0.25098 0.65098 0.4 0.25098 0.65098 0.4 
0.25098 0.65098 0.4 0.25098 0.65098 0.4 
0.25098 0.65098 0.4 0.25098 0.65098 0.4 
0.25098 0.65098 0.4 0.25098 0.65098 0.4 
0.25098 0.65098 0.4 0.25098 0.65098 0.4 
0.25098 0.65098 0.4 0.25098 0.65098 0.4 
0.25098 0.65098 0.4 0.25098 0.65098 0.4 
0.25098 0.65098 0.4 0.25098 0.65098 0.4 
0.25098 0.65098 0.4 0.25098 0.65098 0.4 
0.25098 0.65098 0.4 0.25098 0.65098 0.4 
0.25098 0.65098 0.4 0.25098 0.65098 0.4 
0.25098 0.65098 0.4 0.25098 0.65098 0.4 
0.25098 0.65098 0.4 0.25098 0.65098 0.4 
0.25098 0.65098 0.4 0.25098 0.65098 0.4 
0.25098 0.65098 0.4 0.25098 0.65098 0.4 
0.25098 0.65098 0.4 0.25098 0.65098 0.4 
0.25098 0.65098 0.4 0.25098 0.65098 0.4 
0.25098 0.65098 0.4 0.25098 0.65098 0.4 
0.25098 0.65098 0.4 0.25098 0.65098 0.4 
0.25098 0.65098 0.4 0.25098 0.65098 0.4 
0.25098 0.65098 0.4 0.25098 0.65098 0.4 
0.25098 0.65098 0.4 0.25098 0.65098 0.4 
0.25098 0.65098 0.4 0.25098 0.65098 0.4 
0.25098 0.65098 0.4 0.25098 0.65098 0.4 
0.25098 0.65098 0.4 0.25098 0.65098 0.4 
0.25098 0.65098 0.4 0.25098 0.65098 0.4 
0.25098 0.65098 0.4 0.25098 0.65098 0.4 
0.25098 0.65098 0.4 0.25098 0.65098 0.4 
0.25098 0.65098 0.4 
NORMALS Normals float
-0.116592 -0.461361 -0.879518 -0.419389 0.173449 -0.891083 -0.499514 -0.211646 -0.840055 
-0.640506 0.0403784 -0.766891 -0.248739 -0.346604 -0.90443 -0.0839605 -0.231106 -0.969299 
0.063282 -0.535308 -0.842283 0.139575 -0.572231 -0.808128 0.367452 -0.24244 -0.897887 
0.111514 -0.507887 -0.854175 0.0353214 -0.206923 -0.977719 0.703776 -0.223769 -0.67426 
0.467468 -0.678681 -0.56645 0.782877 -0.465386 -0.412941 0.0275728 -0.55209 -0.833329 
0.0141334 -0.330092 -0.943843 0.494098 0.115214 -0.861738 0.857994 0.0621017 -0.509892 
-0.0804091 -0.532186 -0.8428 -0.0178274 -0.30313 -0.952782 0.0543166 -0.397655 -0.915926 
0.220367 -0.175322 -0.959532 0.0582758 -0.193757 -0.979317 0.185815 -0.0502221 -0.9813 
-0.184409 -0.617662 -0.764518 -0.387839 -0.422381 -0.819253 -0.375798 -0.588866 -0.71555 
-0.526703 -0.336565 -0.780582 -0.0939667 -0.503387 -0.858936 -0.0532001 -0.159288 -0.985798 
-0.643273 -0.142621 -0.752236 -0.5841 0.451429 -0.674566 0.0964608 -0.678601 -0.728145 
0.0839056 -0.607308 -0.790023 0.843907 -0.447145 -0.29645 -0.166701 -0.691834 -0.70255 
-0.174546 -0.716581 -0.675311 -0.131322 -0.733145 -0.667273 -0.139168 -0.611617 -0.778818 
-0.0990656 -0.753529 -0.649907 0.476246 0.100554 -0.873544 0.910496 0.0243033 -0.412804 
-0.202129 -0.592583 -0.779737 -0.0253305 -0.547885 -0.83617 0.0354087 0.0687115 -0.997008 
-0.640031 0.450928 -0.622112 -0.244226 0.265222 -0.932744 0.211718 0.0707826 -0.974764 
-0.17706 0.203849 -0.962858 -0.377194 0.161729 -0.911904 -0.559868 0.0577324 -0.826568 
-0.469947 0.0350347 -0.881999 -0.632769 -0.000322702 -0.77434 -0.109127 -0.0297569 -0.993582 
-0.862297 0.301595 -0.406798 -0.230897 -0.0153965 -0.972856 -0.08148 0.105678 -0.991057 
-0.587293 0.314826 -0.745635 -0.221272 0.227909 -0.948207 -0.72687 0.231652 -0.646527 
-0.636189 0.362672 -0.680979 -0.544679 0.353189 -0.760646 -0.762268 0.42217 -0.490632 
-0.50769 0.473861 -0.719518 0.185912 -0.811926 -0.553365 0.601243 -0.703661 -0.378639 
0.962078 -0.220405 -0.160707 -0.262825 -0.845164 -0.465425 -0.208128 -0.777012 -0.594083 
-0.316987 -0.829188 -0.460399 0.608694 0.0599486 -0.791137 0.881942 0.0963158 -0.461412 
-0.700205 -0.183835 -0.689868 0.816927 0.0706269 -0.5724 0.86574 0.0305405 -0.499562 
-0.649431 0.437266 -0.622124 0.529843 0.125357 -0.83878 0.785993 0.0361521 -0.617178 
0.812343 0.0298747 -0.582414 -0.635805 0.637489 -0.435154 0.936002 -0.0899327 -0.340313 
0.452704 -0.0454774 -0.8905 0.550975 -0.0316227 -0.833923 0.834294 -0.0924399 -0.543515 
0.418294 -0.558793 -0.716087 0.78085 -0.112948 -0.614424 -0.94185 0.150845 -0.300274 
0.87378 0.0295944 -0.48542 0.430109 -0.0060984 -0.902756 -0.882263 0.355599 -0.308482 
0.620678 0.288199 -0.729178 -0.911035 0.387022 -0.142228 -0.165023 0.268807 -0.948952 
0.320473 0.297742 -0.899248 0.777616 0.216429 -0.590315 -0.677863 0.544404 -0.494091 
-0.799835 0.5378 -0.266522 0.409227 0.529519 -0.743063 0.657859 0.561313 -0.502145 
-0.499297 0.417499 -0.759208 -0.28186 0.426293 -0.859552 0.153125 0.291448 -0.944251 
-0.688368 0.475613 -0.547669 0.315972 0.700137 -0.640289 -0.178528 0.488876 -0.85389 
0.375068 0.703564 -0.603591 -0.668077 0.634952 -0.387954 -0.135598 0.569328 -0.810851 
0.109327 0.647798 -0.753927 0.28392 0.764557 -0.578655 -0.203119 0.773418 -0.600472 
0.775941 -0.599405 -0.196542 -0.210813 -0.977297 -0.0211562 -0.0705675 -0.885478 -0.459292 
-0.0330469 -0.815567 -0.577719 -0.187113 -0.94236 -0.277393 -0.262949 -0.93593 -0.234293 
-0.154219 -0.97323 0.170409 0.984903 -0.173089 -0.00229696 -0.416171 -0.799034 -0.433988 
-0.79289 -0.404549 -0.455704 -0.740631 -0.668727 -0.0653484 -0.969862 -0.156335 -0.186887 
0.97667 0.0235719 -0.21345 -0.864922 0.0532944 -0.499068 -0.795781 0.216045 -0.565736 
-0.618786 0.613642 -0.490455 -0.680932 0.645178 -0.346521 -0.671302 0.69477 -0.258164 
0.97775 -0.160566 -0.134996 -0.911036 0.231193 -0.341413 0.981538 -0.140634 -0.129637 
-0.985786 0.164921 0.0320473 -0.990444 0.132661 -0.0376989 0.961376 -0.0861336 -0.261413 
0.943998 0.164611 -0.285956 0.94822 0.205835 -0.241888 0.89787 0.412512 -0.153828 
0.588014 0.694108 -0.415276 -0.883148 0.454857 -0.114696 0.586073 0.685099 -0.432617 
0.55011 0.791943 -0.264963 -0.762386 0.573071 -0.300595 0.34885 0.908305 -0.230837 
-0.695689 0.582967 -0.419721 -0.688802 0.689229 -0.224755 0.441117 0.804752 -0.397228 
0.32957 0.8859 -0.326442 -0.646098 0.756473 -0.101517 0.408539 0.742464 -0.53089 
0.448351 0.863101 -0.232459 -0.563288 0.826246 -0.00488253 -0.416926 0.897519 -0.14364 
0.19012 0.87202 -0.451039 0.311221 0.899413 -0.306917 -0.0933816 0.937673 -0.334736 
0.147181 -0.987696 -0.0528654 -0.139738 -0.96107 -0.238363 0.336889 -0.871071 -0.357408 
-0.163985 -0.957476 -0.237378 0.83159 -0.548533 0.0870034 -0.254337 -0.962884 -0.0903741 
-0.0875519 -0.936733 0.33892 0.90433 -0.409359 0.120883 -0.320598 -0.928722 -0.186259 
-0.384071 -0.795143 0.469295 -0.471192 -0.86832 0.154916 0.962144 -0.272539 -0.00140916 
-0.31006 -0.94358 -0.116273 -0.28879 -0.942702 -0.167075 -0.389365 -0.784707 0.482318 
-0.452033 -0.867123 0.2092 -0.141676 -0.926246 0.34928 0.994857 -0.0987621 -0.0224665 
-0.462942 -0.784199 0.413179 -0.998735 0.0267932 0.0425486 -0.798777 0.471811 -0.373297 
-0.899682 0.38831 -0.199468 -0.645857 0.745838 -0.16308 -0.724198 0.68477 -0.0814036 
-0.688062 0.710247 -0.148725 -0.761748 0.64283 -0.0806773 0.988727 -0.0835165 -0.124274 
-0.895491 0.432587 -0.104715 -0.948355 0.317121 0.00747851 0.986299 -0.153205 -0.0611827 
-0.964721 0.196665 0.17503 -0.977947 0.0958334 0.185567 0.996233 -0.0844037 0.01991 
0.999824 0.0173136 -0.00717644 0.932152 0.353021 0.0804312 0.727963 0.683099 0.0587031 
-0.873537 0.456468 0.169027 0.360772 0.924903 -0.119989 0.448454 0.858519 -0.248664 
0.465128 0.884864 0.0259118 -0.371214 0.863605 0.341153 0.283828 0.958842 -0.00792288 
0.340391 0.940213 -0.01153 -0.111824 0.993176 0.0331272 0.194649 -0.948992 0.248043 
-0.158533 -0.973681 0.163748 0.525052 -0.831815 0.180013 0.737547 -0.62124 0.264737 
-0.26657 -0.959948 0.0862612 -0.26999 -0.872047 0.408216 -0.139366 -0.898074 0.417182 
-0.239565 -0.74023 0.628227 -0.352945 -0.784043 0.510594 -0.148188 -0.774077 0.615504 
0.877391 -0.201463 0.435429 -0.84491 -0.394128 0.361648 -0.490755 -0.429866 0.757875 
-0.298415 -0.569244 0.7661 -0.483914 0.0185067 0.87492 -0.892727 0.0629681 0.446176 
-0.931726 0.361173 0.0379676 -0.782382 0.462549 0.417045 -0.759261 0.603692 0.243061 
0.89001 0.00668102 0.455893 -0.742607 0.640239 0.196545 -0.830939 0.548103 -0.0955219 
-0.920527 0.380745 0.087542 0.947589 -0.13714 0.288561 -0.860608 0.19991 0.468391 