# vtk DataFile Version 4.2
vtk output
ASCII
DATASET POLYDATA
POINTS 424 float
211.401 62.1899 204.071 211.397 62.0868 204.115 211.266 62.2492 204.128 
208.774 63.4002 204.293 208.696 63.2959 204.435 208.668 63.5059 204.309 
209.027 63.2234 204.335 211.459 62.3415 204.086 208.247 64.2511 204.35 
208.842 63.6242 204.251 208.4 64.1507 204.303 213.686 60.7976 204.9 
214.655 60.8656 205.477 211.436 61.8273 204.302 211.816 61.1342 204.606 
214.516 61.556 205.052 214.691 61.33 205.277 211.88 62.3391 204.188 
208.498 63.7474 204.406 210.325 63.1914 204.159 208.828 64.3092 204.206 
212.669 63.8925 204.256 210.936 65.8045 204.058 214.424 60.419 205.591 
214.324 60.0161 205.998 214.856 60.8741 205.773 214.912 61.3246 205.641 
208.242 62.7676 205.628 213.951 63.5808 204.712 214.581 63.4633 205.097 
215.139 62.6596 205.776 214.048 69.432 205.043 215.317 69.2085 206.179 
208.833 71.0895 204.696 211.119 70.9863 204.434 214.874 70.5199 205.654 
207.815 71.99 205.113 213.185 71.3339 204.842 205.812 73.486 206.394 
213.557 73.7459 205.506 210.782 74.9596 205.128 206.04 76.4481 206.014 
207.064 76.3519 205.401 205.666 77.1446 206.535 206.385 77.0772 205.795 
208.673 76.6478 205.275 210.859 76.398 205.872 207.226 77.4257 205.567 
209.06 77.299 205.668 205.872 78.0647 206.325 205.817 78.1385 206.556 
206.133 78.1631 206.139 207.212 77.9235 205.803 208.296 77.6784 205.726 
205.954 78.3521 206.297 205.976 78.4333 206.457 206.099 78.4594 206.225 
206.415 78.4483 206.242 206.893 78.305 206.074 206.009 78.5023 206.293 
213.959 59.2356 206.681 212.545 59.6018 205.601 214.523 59.9447 206.63 
214.627 60.1746 206.184 209.858 60.2632 205.92 209.468 60.4057 206.141 
214.781 60.374 206.275 215.365 71.1282 206.119 215.815 71.3116 206.642 
216.004 71.811 206.873 216.046 72.4962 206.884 216.086 73.3453 206.825 
214.66 74.4697 206.488 215.588 74.0494 206.731 215.831 73.9021 206.836 
214.149 74.9734 206.904 214.816 74.6613 206.913 205.517 77.1584 207.019 
210.737 76.7711 206.109 210.571 76.9671 206.26 211.054 76.6707 206.388 
211.787 76.2433 206.538 208.463 77.9072 206.088 208.106 78.2262 206.4 
208.545 77.9835 206.731 209.029 77.5566 205.913 210.027 77.2485 206.371 
207.858 78.2534 206.188 207.824 78.3704 206.4 206.217 78.5074 206.567 
206.118 78.5276 206.326 206.508 78.5634 206.481 212.506 58.311 207.489 
210.629 59.029 206.962 213.121 58.8668 206.628 209.53 59.7538 207.364 
209.801 59.518 207.127 214.502 59.9065 207.176 209.373 60.2125 206.608 
215.306 62.3858 206.742 216.046 70.5594 207.589 205.407 71.9026 207.27 
205.364 72.5953 207.153 205.236 73.0065 207.459 216.146 73.0712 207.042 
216.094 73.4898 207.065 215.414 74.3717 207.464 215.943 73.6913 207.428 
215.95 73.796 207.033 214.184 75.1021 207.412 215.171 74.5232 207.192 
212.338 75.9288 206.717 211.961 76.2406 206.971 207.288 78.5298 206.695 
211.737 58.2786 207.662 212.498 58.1968 207.839 210.483 58.9666 207.321 
213.665 58.9395 207.922 214.622 60.4914 207.721 208.739 61.0195 208.105 
215.028 61.1533 207.065 206.213 66.7623 207.656 205.377 70.1718 208.072 
205.175 71.7377 207.816 205.089 71.33 208.274 216.149 72.6005 208.061 
205.072 74.8859 208.356 215.377 74.3392 207.782 215.75 73.7331 207.999 
213.995 75.1883 207.761 205.367 76.4958 208.273 211.705 76.37 207.391 
205.635 77.1668 208.159 205.988 77.7436 207.984 206.446 78.1958 207.731 
206.21 78.1316 207.673 206.828 78.4925 207.123 211.574 58.1391 208.404 
211.631 58.1318 208.619 211.389 58.2203 208.588 211.826 58.0812 208.504 
212.1 58.1232 208.474 211.083 58.4468 208.336 211.212 58.3484 208.685 
211.015 58.5059 208.703 212.878 58.3192 208.158 212.736 58.3283 208.4 
210.163 59.2388 208.547 210.695 58.9023 208.836 213.023 58.4611 208.322 
213.297 58.7663 208.353 213.946 59.3675 208.033 216.07 70.2264 208.877 
204.923 72.0948 209.101 213.05 75.3931 208.742 207.339 77.6602 208.71 
211.51 58.308 208.82 212.37 58.338 208.647 211.088 58.7657 209.126 
211.305 58.8911 209.338 212.764 59.1947 209.252 213.63 60.5861 209.404 
208.972 61.9595 210.08 205.211 68.8121 210.004 205.375 75.7553 209.7 
205.604 76.1801 209.692 205.858 76.6521 209.425 207.96 77.0705 209.596 
206.588 77.2457 209.214 212.02 59.2124 209.562 211.261 59.8941 210.02 
211.564 60.3023 210.318 212.29 60.6389 210.413 210.654 60.5772 210.307 
214.689 64.831 210.412 204.894 72.1482 210.966 215.401 71.8354 210.738 
214.157 73.3076 211.337 205.367 75.1876 210.422 207.479 76.9006 209.913 
206.863 76.2831 210.724 207.35 75.7128 211.773 214.556 67.6757 212.997 
205.198 72.8089 212.578 206.095 67.615 213.309 214.715 70.8092 213.091 
214.186 71.7464 213.193 207.994 74.7091 213.408 208.186 65.9336 214.388 
212.868 66.5381 214.546 206.161 68.5472 214.205 213.652 67.2047 214.158 
214.33 68.9782 213.928 214.268 70.1951 213.924 213.138 71.7405 214.099 
206.891 73.9828 213.981 208.233 66.3308 214.775 211.613 65.9533 214.753 
206.921 67.4302 214.488 212.272 66.5357 214.908 206.485 68.7934 214.708 
213.613 68.6718 214.609 206.04 71.4204 214.58 213.472 70.2925 214.608 
205.926 71.9453 214.342 206.873 73.5085 214.375 208.703 72.9371 214.971 
207.932 73.5361 214.622 209.445 66.4403 215.116 210.104 67.5846 215.626 
207.205 69.3729 215.373 210.809 68.1304 215.676 211.577 67.9589 215.488 
208.365 69.5075 215.764 209.925 69.0764 215.839 212.154 69.2726 215.385 
208.135 71.0181 215.615 207.429 72.6639 215.02 207.885 72.3418 215.233 
207.202 73.4675 214.594 211.628 65.6091 240.348 207.629 67.2746 239.882 
207.254 66.9694 240.236 212.412 66.2148 240.243 208.876 67.6941 239.406 
206.821 68.6644 239.866 206.353 68.9353 240.153 210.235 68.2246 239.256 
211.797 67.9968 239.558 206.157 69.4791 240.276 207.165 69.3793 239.573 
212.384 68.6244 239.705 206.429 70.123 240.018 213.725 68.7841 240.46 
208.13 70.6988 239.421 209.672 70.5503 239.375 212.078 69.9681 239.723 
206.128 71.3474 240.474 207.285 71.4755 239.82 212.995 70.7486 240.37 
206.36 72.6669 240.828 208.594 72.8434 240.215 206.84 67.2037 240.459 
212.727 66.2976 240.361 206.024 68.1717 240.954 213.446 67.0247 240.58 
214.004 70.1218 240.826 207.31 74.0261 241.269 208.247 64.8665 241.543 
213.619 66.4425 241.086 205.498 69.4607 241.449 214.423 68.4754 241.234 
205.249 70.7579 241.971 214.671 70.1963 241.624 205.589 71.69 241.368 
212.384 72.8389 241.479 207.941 74.4812 241.663 207.626 64.8506 242.323 
205.483 68.7726 241.938 208.18 74.7835 242.056 206.734 74.9557 242.823 
207.096 75.1339 242.761 209.507 62.9923 242.832 209.159 62.9746 243.115 
207.389 64.5482 243.379 215.182 67.7872 243.06 209.686 75.1601 243.003 
207.401 75.406 243.036 212.044 60.938 244.232 211.934 61.5736 243.804 
212.495 61.3431 244.128 209.602 62.1609 243.703 213.726 62.5279 244.303 
208.426 62.9309 244.076 207.868 63.654 243.987 205.041 69.8022 243.608 
206.555 76.1775 244.758 207.067 76.5557 244.966 211.563 59.403 245.258 
212.295 58.8993 245.685 212.582 59.1395 245.593 213.944 61.7988 245.003 
206.289 65.7529 245.337 215.848 68.3948 245.074 205.178 74.485 245.636 
205.785 76.1429 245.71 207.503 76.7285 245.074 211.622 58.1193 246.505 
211.421 58.2292 246.386 211.874 58.0912 246.521 212.116 58.0624 246.698 
211.273 58.4658 246.169 211.185 58.3525 246.432 212.862 58.2415 246.64 
210.537 58.9288 246.398 213.022 58.3972 246.528 213.147 59.0452 246.023 
214.264 60.0788 246.583 215.846 72.5296 245.979 214.987 73.9565 245.954 
208.068 77.0339 245.604 208.609 77.1538 246.003 211.386 58.2066 246.633 
211.806 58.1251 247.131 212.23 58.0891 247.082 212.678 58.1436 247.07 
213.096 58.3315 246.739 210.235 59.0954 246.617 210.423 58.9905 246.971 
211.635 58.3058 247.415 209.418 59.9857 246.831 214.01 59.5386 246.62 
208.642 61.0408 246.519 215.125 62.262 246.89 215.317 63.2882 246.752 
205.623 68.1322 246.739 205.133 74.0503 246.768 215.704 73.5362 246.673 
209.344 77.1327 246.376 205.627 76.9821 247.808 206.085 77.9202 247.709 
213.438 58.6743 247.491 210.467 59.1704 247.661 213.857 58.9915 247.432 
214.003 59.1694 247.184 209.176 60.1713 247.22 209.044 60.3607 247.423 
215.203 61.7994 247.616 215.432 63.023 248.106 205.76 68.3092 247.361 
215.861 67.9015 247.524 215.912 69.9122 247.808 216.137 71.4168 247.509 
205.491 72.656 247.842 215.968 73.7575 247.716 213.7 75.3511 247.163 
214.702 74.7634 247.391 210.261 77.0318 247.221 205.801 77.7982 248.486 
208.914 77.7231 247.865 206.235 78.5663 248.5 212.64 58.8104 248.376 
209.329 60.667 248.638 209.773 60.3847 248.814 215.041 60.9128 248.138 
214.996 60.9834 248.596 215.414 64.0202 248.695 206.455 67.6466 248.699 
215.637 69.1319 248.396 215.684 70.9493 248.586 206.059 71.7211 248.635 
216.142 73.1747 248.03 216.057 73.4519 248.156 215.573 74.1785 247.774 
215.962 73.7193 248.056 215.709 73.8909 248.203 214.37 74.8034 248.185 
205.811 77.5331 248.739 210.288 77.1791 248.197 210.614 76.9752 248.419 
207.945 78.2573 248.554 205.951 78.5643 248.992 206.803 78.6908 248.423 
206.083 78.7109 248.877 214.098 59.5534 248.439 213.006 59.5132 249.277 
214.757 60.4566 248.625 214.946 61.3106 249.04 215 61.9833 249.223 
207.108 65.9204 249.458 215.277 70.2829 249.064 214.867 70.5392 249.455 
214.562 71.9641 249.557 215.049 73.3909 248.956 215.583 73.2628 248.653 
213.029 73.9399 249.627 214.811 73.9062 248.841 215.821 73.5783 248.347 
205.966 76.4384 248.937 210.644 76.8237 248.75 210.963 76.416 249.015 
208.296 78.0872 248.726 208.966 77.5623 249.032 210.254 76.7745 249.088 
206.002 78.6262 249.171 207.174 78.6023 248.708 207.514 78.399 248.84 
208.522 77.7103 249.151 205.978 78.8117 249.07 205.982 78.7904 249.148 
206.041 78.8597 249.08 206.223 78.8031 249.038 206.573 78.7006 249.004 
205.99 78.8749 249.138 213.748 60.4719 249.861 214.435 60.7616 249.516 
210.731 61.4314 250.212 214.332 61.9311 250.008 214.856 62.4861 249.566 
208.571 63.2152 250.207 212.362 64.4973 250.758 214.918 63.9128 249.547 
207.454 67.8956 249.953 209.095 68.4941 250.672 210.681 69.427 250.764 
207.207 70.288 249.631 207.755 69.2873 250.073 209.786 70.3641 250.635 
209.233 76.0944 249.834 206.078 78.7292 249.21 206.316 78.6601 249.195 
[...]
POINT_DATA 424
COLOR_SCALARS scalars 3
0.25098 0.65098 0.4 0.25098 0.65098 0.4 0.25098 0.65098 0.4 
0.25098 0.65098 0.4 0.25098 0.65098 0.4 
0.25098 0.65098 0.4 0.25098 0.65098 0.4 
0.25098 0.65098 0.4 0.25098 0.65098 0.4 
0.25098 0.65098 0.4 0.25098 0.65098 0.4 
0.25098 0.65098 0.4 0.25098 0.65098 0.4 
0.25098 0.65098 0.4 0.25098 0.65098 0.4 
0.25098 0.65098 0.4 0.25098 0.65098 0.4 
0.25098 0.65098 0.4 0.25098 0.65098 0.4 
0.25098 0.65098 0.4 0.25098 0.65098 0.4 
0.25098 0.65098 0.4 0.25098 0.65098 0.4 
0.25098 0.65098 0.4 0.25098 0.65098 0.4 
0.25098 0.65098 0.4 0.25098 0.65098 0.4 
0.25098 0.65098 0.4 0.25098 0.65098 0.4 
0.25098 0.65098 0.4 0.25098 0.65098 0.4 
0.25098 0.65098 0.4 0.25098 0.65098 0.4 
0.25098 0.65098 0.4 0.25098 0.65098 0.4 
0.25098 0.65098 0.4 0.25098 0.65098 0.4 
0.25098 0.65098 0.4 0.25098 0.65098 0.4 
0.25098 0.65098 0.4 0.25098 0.65098 0.4 
0.25098 0.65098 0.4 0.25098 0.65098 0.4 
0.25098 0.65098 0.4 0.25098 0.65098 0.4 
0.25098 0.65098 0.4 0.25098 0.65098 0.4 
0.25098 0.65098 0.4 0.25098 0.65098 0.4 
0.25098 0.65098 0.4 0.25098 0.65098 0.4 
0.25098 0.65098 0.4 0.25098 0.65098 0.4 
0.25098 0.65098 0.4 0.25098 0.65098 0.4 
0.25098 0.65098 0.4 0.25098 0.65098 0.4 
0.25098 0.65098 0.4 0.25098 0.65098 0.4 
0.25098 0.65098 0.4 0.25098 0.65098 0.4 
0.25098 0.65098 0.4 0.25098 0.65098 0.4 
0.25098 0.65098 0.4 0.25098 0.65098 0.4 
0.25098 0.65098 0.4 0.25098 0.65098 0.4 
0.25098 0.65098 0.4 0.25098 0.65098 0.4 
0.25098 0.65098 0.4 0.25098 0.65098 0.4 
0.25098 0.65098 0.4 0.25098 0.65098 0.4 
0.25098 0.65098 0.4 0.25098 0.65098 0.4 
0.25098 0.65098 0.4 0.25098 0.65098 0.4 
0.25098 0.65098 0.4 0.25098 0.65098 0.4 
0.25098 0.65098 0.4 0.25098 0.65098 0.4 
0.25098 0.65098 0.4 0.25098 0.65098 0.4 
0.25098 0.65098 0.4 0.25098 0.65098 0.4 
0.25098 0.65098 0.4 0.25098 0.65098 0.4 
0.25098 0.65098 0.4 0.25098 0.65098 0.4 
0.25098 0.65098 0.4 0.25098 0.65098 0.4 
0.25098 0.65098 0.4 0.25098 0.65098 0.4 
0.25098 0.65098 0.4 0.25098 0.65098 0.4 
0.25098 0.65098 0.4 0.25098 0.65098 0.4 
0.25098 0.65098 0.4 0.25098 0.65098 0.4 
0.25098 0.65098 0.4 0.25098 0.65098 0.4 
0.25098 0.65098 0.4 0.25098 0.65098 0.4 
0.25098 0.65098 0.4 0.25098 0.65098 0.4 
0.25098 0.65098 0.4 0.25098 0.65098 0.4 
0.25098 0.65098 0.4 0.25098 0.65098 0.4 
0.25098 0.65098 0.4 0.25098 0.65098 0.4 
0.25098 0.65098 0.4 0.25098 0.65098 0.4 
0.25098 0.65098 0.4 0.25098 0.65098 0.4 
0.25098 0.65098 0.4 0.25098 0.65098 0.4 
0.25098 0.65098 0.4 0.25098 0.65098 0.4 
0.25098 0.65098 0.4 0.25098 0.65098 0.4 
0.25098 0.65098 0.4 0.25098 0.65098 0.4 
0.25098 0.65098 0.4 0.25098 0.65098 0.4 
0.25098 0.65098 0.4 0.25098 0.65098 0.4 
0.25098 0.65098 0.4 0.25098 0.65098 0.4 
0.25098 0.65098 0.4 0.25098 0.65098 0.4 
0.25098 0.65098 0.4 0.25098 0.65098 0.4 
0.25098 0.65098 0.4 0.25098 0.65098 0.4 
0.25098 0.65098 0.4 0.25098 0.65098 0.4 
0.25098 0.65098 0.4 0.25098 0.65098 0.4 
0.25098 0.65098 0.4 0.25098 0.65098 0.4 
0.25098 0.65098 0.4 0.25098 0.65098 0.4 
0.25098 0.65098 0.4 0.25098 0.65098 0.4 
0.25098 0.65098 0.4 0.25098 0.65098 0.4 
0.25098 0.65098 0.4 0.25098 0.65098 0.4 
0.25098 0.65098 0.4 0.25098 0.65098 0.4 
0.25098 0.65098 0.4 0.25098 0.65098 0.4 
0.25098 0.65098 0.4 0.25098 0.65098 0.4 
0.25098 0.65098 0.4 0.25098 0.65098 0.4 
0.25098 0.65098 0.4 0.25098 0.65098 0.4 
0.25098 0.65098 0.4 0.25098 0.65098 0.4 
0.25098 0.65098 0.4 0.25098 0.65098 0.4 
0.25098 0.65098 0.4 0.25098 0.65098 0.4 
0.25098 0.65098 0.4 0.25098 0.65098 0.4 
0.25098 0.65098 0.4 0.25098 0.65098 0.4 
0.25098 0.65098 0.4 0.25098 0.65098 0.4 
0.25098 0.65098 0.4 0.25098 0.65098 0.4 
0.25098 0.65098 0.4 0.25098 0.65098 0.4 
0.25098 0.65098 0.4 0.25098 0.65098 0.4 
0.25098 0.65098 0.4 0.25098 0.65098 0.4 
0.25098 0.65098 0.4 0.25098 0.65098 0.4 
0.25098 0.65098 0.4 0.25098 0.65098 0.4 
0.25098 0.65098 0.4 0.25098 0.65098 0.4 
0.25098 0.65098 0.4 0.25098 0.65098 0.4 
0.25098 0.65098 0.4 0.25098 0.65098 0.4 
0.25098 0.65098 0.4 0.25098 0.65098 0.4 
0.25098 0.65098 0.4 0.25098 0.65098 0.4 
0.25098 0.65098 0.4 0.25098 0.65098 0.4 
0.25098 0.65098 0.4 0.25098 0.65098 0.4 
0.25098 0.65098 0.4 0.25098 0.65098 0.4 
0.25098 0.65098 0.4 0.25098 0.65098 0.4 
0.25098 0.65098 0.4 0.25098 0.65098 0.4 
0.25098 0.65098 0.4 0.25098 0.65098 0.4 
0.25098 0.65098 0.4 0.25098 0.65098 0.4 
0.25098 0.65098 0.4 0.25098 0.65098 0.4 
0.25098 0.65098 0.4 0.25098 0.65098 0.4 
0.25098 0.65098 0.4 0.25098 0.65098 0.4 
0.25098 0.65098 0.4 0.25098 0.65098 0.4 
0.25098 0.65098 0.4 0.25098 0.65098 0.4 
0.25098 0.65098 0.4 0.25098 0.65098 0.4 
0.25098 0.65098 0.4 0.25098 0.65098 0.4 
0.25098 0.65098 0.4 0.25098 0.65098 0.4 
0.25098 0.65098 0.4 0.25098 0.65098 0.4 
0.25098 0.65098 0.4 0.25098 0.65098 0.4 
0.25098 0.65098 0.4 0.25098 0.65098 0.4 
0.25098 0.65098 0.4 0.25098 0.65098 0.4 
0.25098 0.65098 0.4 0.25098 0.65098 0.4 
0.25098 0.65098 0.4 0.25098 0.65098 0.4 
0.25098 0.65098 0.4 0.25098 0.65098 0.4 
0.25098 0.65098 0.4 0.25098 0.65098 0.4 
0.25098 0.65098 0.4 0.25098 0.65098 0.4 
0.25098 0.65098 0.4 0.25098 0.65098 0.4 
0.25098 0.65098 0.4 0.25098 0.65098 0.4 
0.25098 0.65098 0.4 0.25098 0.65098 0.4 
0.25098 0.65098 0.4 0.25098 0.65098 0.4 
0.25098 0.65098 0.4 0.25098 0.65098 0.4 
0.25098 0.65098 0.4 0.25098 0.65098 0.4 
0.25098 0.65098 0.4 0.25098 0.65098 0.4 
0.25098 0.65098 0.4 0.25098 0.65098 0.4 
0.25098 0.65098 0.4 0.25098 0.65098 0.4 
0.25098 0.65098 0.4 0.25098 0.65098 0.4 
0.25098 0.65098 0.4 0.25098 0.65098 0.4 
0.25098 0.65098 0.4 0.25098 0.65098 0.4 
0.25098 0.65098 0.4 0.25098 0.65098 0.4 
0.25098 0.65098 0.4 0.25098 0.65098 0.4 
0.25098 0.65098 0.4 0.25098 0.65098 0.4 
0.25098 0.65098 0.4 0.25098 0.65098 0.4 
0.25098 0.65098 0.4 0.25098 0.65098 0.4 
0.25098 0.65098 0.4 0.25098 0.65098 0.4 
0.25098 0.65098 0.4 0.25098 0.65098 0.4 
0.25098 0.65098 0.4 0.25098 0.65098 0.4 
0.25098 0.65098 0.4 0.25098 0.65098 0.4 
0.25098 0.65098 0.4 0.25098 0.65098 0.4 
0.25098 0.65098 0.4 0.25098 0.65098 0.4 
0.25098 0.65098 0.4 0.25098 0.65098 0.4 
0.25098 0.65098 0.4 0.25098 0.65098 0.4 
0.25098 0.65098 0.4 0.25098 0.65098 0.4 
0.25098 0.65098 0.4 0.25098 0.65098 0.4 
0.25098 0.65098 0.4 0.25098 0.65098 0.4 
0.25098 0.65098 0.4 0.25098 0.65098 0.4 
0.25098 0.65098 0.4 0.25098 0.65098 0.4 
0.25098 0.65098 0.4 0.25098 0.65098 0.4 
0.25098 0.65098 0.4 0.25098 0.65098 0.4 
0.25098 0.65098 0.4 0.25098 0.65098 0.4 
0.25098 0.65098 0.4 0.25098 0.65098 0.4 
0.25098 0.65098 0.4 0.25098 0.65098 0.4 
0.25098 0.65098 0.4 0.25098 0.65098 0.4 
0.25098 0.65098 0.4 0.25098 0.65098 0.4 
0.25098 0.65098 0.4 0.25098 0.65098 0.4 
0.25098 0.65098 0.4 0.25098 0.65098 0.4 
0.25098 0.65098 0.4 0.25098 0.65098 0.4 
0.25098 0.65098 0.4 0.25098 0.65098 0.4 
0.25098 0.65098 0.4 0.25098 0.65098 0.4 
0.25098 0.65098 0.4 0.25098 0.65098 0.4 
0.25098 0.65098 0.4 0.25098 0.65098 0.4 
0.25098 0.65098 0.4 0.25098 0.65098 0.4 
0.25098 0.65098 0.4 0.25098 0.65098 0.4 
0.25098 0.65098 0.4 0.25098 0.65098 0.4 
0.25098 0.65098 0.4 0.25098 0.65098 0.4 
0.25098 0.65098 0.4 0.25098 0.65098 0.4 
0.25098 0.65098 0.4 0.25098 0.65098 0.4 
0.25098 0.65098 0.4 0.25098 0.65098 0.4 
0.25098 0.65098 0.4 0.25098 0.65098 0.4 
0.25098 0.65098 0.4 0.25098 0.65098 0.4 
0.25098 0.65098 0.4 0.25098 0.65098 0.4 
0.25098 0.65098 0.4 0.25098 0.65098 0.4 
0.25098 0.65098 0.4 0.25098 0.65098 0.4 
0.25098 0.65098 0.4 0.25098 0.65098 0.4 
0.25098 0.65098 0.4 0.25098 0.65098 0.4 
0.25098 0.65098 0.4 0.25098 0.65098 0.4 
0.25098 0.65098 0.4 0.25098 0.65098 0.4 
0.25098 0.65098 0.4 0.25098 0.65098 0.4 
0.25098 0.65098 0.4 0.25098 0.65098 0.4 
0.25098 0.65098 0.4 0.25098 0.65098 0.4 
0.25098 0.65098 0.4 0.25098 0.65098 0.4 
0.25098 0.65098 0.4 0.25098 0.65098 0.4 
0.25098 0.65098 0.4 0.25098 0.65098 0.4 
0.25098 0.65098 0.4 0.25098 0.65098 0.4 
0.25098 0.65098 0.4 0.25098 0.65098 0.4 
0.25098 0.65098 0.4 0.25098 0.65098 0.4 
0.25098 0.65098 0.4 0.25098 0.65098 0.4 
0.25098 0.65098 0.4 0.25098 0.65098 0.4 
0.25098 0.65098 0.4 0.25098 0.65098 0.4 
0.25098 0.65098 0.4 0.25098 0.65098 0.4 
0.25098 0.65098 0.4 0.25098 0.65098 0.4 
0.25098 0.65098 0.4 0.25098 0.65098 0.4 
0.25098 0.65098 0.4 0.25098 0.65098 0.4 
0.25098 0.65098 0.4 0.25098 0.65098 0.4 
0.25098 0.65098 0.4 0.25098 0.65098 0.4 
0.25098 0.65098 0.4 0.25098 0.65098 0.4 
0.25098 0.65098 0.4 0.25098 0.65098 0.4 
0.25098 0.65098 0.4 0.25098 0.65098 0.4 
0.25098 0.65098 0.4 0.25098 0.65098 0.4 
0.25098 0.65098 0.4 0.25098 0.65098 0.4 
0.25098 0.65098 0.4 0.25098 0.65098 0.4 
0.25098 0.65098 0.4 0.25098 0.65098 0.4 
0.25098 0.65098 0.4 0.25098 0.65098 0.4 
0.25098 0.65098 0.4 0.25098 0.65098 0.4 
0.25098 0.65098 0.4 0.25098 0.65098 0.4 
0.25098 0.65098 0.4 0.25098 0.65098 0.4 
0.25098 0.65098 0.4 0.25098 0.65098 0.4 
0.25098 0.65098 0.4 0.25098 0.65098 0.4 
0.25098 0.65098 0.4 
NORMALS Normals float
0.141416 -0.205328 -0.968422 -0.16176 -0.491436 -0.85576 -0.425553 -0.287095 -0.858185 
-0.304397 -0.380446 -0.873272 -0.614285 -0.501739 -0.609025 -0.540069 -0.230309 -0.809496 
-0.109671 -0.364785 -0.92461 0.00415573 0.0223353 -0.999742 -0.47 -0.0537506 -0.881029 
-0.150132 -0.0665306 -0.986425 -0.284894 -0.17899 -0.9417 0.319396 -0.46795 -0.82402 
0.691593 -0.413304 -0.59235 -0.00809162 -0.500966 -0.865429 0.104363 -0.39077 -0.914553 
0.658249 -0.0712009 -0.749426 0.697753 -0.236147 -0.676295 0.328483 -0.242078 -0.912961 
-0.574746 -0.269156 -0.772801 -0.143966 -0.174456 -0.974084 -0.110462 -0.0289729 -0.993458 
0.274651 0.106513 -0.955626 0.0718625 0.129755 -0.988939 0.566405 -0.583127 -0.582364 
0.550474 -0.615473 -0.564067 0.881094 -0.329661 -0.339112 0.932736 -0.15282 -0.326573 
-0.826676 -0.360897 -0.431693 0.413694 0.0463485 -0.909235 0.477854 0.140594 -0.867115 
0.828327 -0.0961217 -0.551937 0.526824 0.029455 -0.849464 0.876854 -0.0514579 -0.477996 
-0.385649 -0.0411846 -0.921726 0.0452698 0.141896 -0.988846 0.691908 0.0138519 -0.721853 
-0.353564 -0.0256516 -0.935058 0.355497 0.129305 -0.92569 -0.73683 -0.158467 -0.657244 
0.361486 0.29901 -0.883131 0.0473289 0.263423 -0.963519 -0.695537 0.00671791 -0.718459 
-0.31065 0.0532092 -0.949034 -0.932819 -0.0182681 -0.359881 -0.397148 0.0198069 -0.917541 
0.128838 0.309147 -0.942247 0.338077 0.632667 -0.696733 -0.186658 0.264654 -0.946106 
0.347064 0.600563 -0.720327 -0.835242 0.133304 -0.533479 -0.922698 0.384827 0.0231644 
-0.38998 0.244333 -0.887816 -0.000137736 0.548118 -0.836401 0.175943 0.60163 -0.779157 
-0.808395 0.266421 -0.524898 -0.668073 0.692214 0.272982 -0.220501 0.510972 -0.830835 
0.00761963 0.804281 -0.594201 -0.0224848 0.694324 -0.719311 -0.587266 0.726204 -0.357415 
0.563894 -0.770564 -0.297075 0.0130621 -0.701499 -0.71255 0.824193 -0.558711 -0.0924488 
0.720107 -0.519389 -0.460087 -0.424229 -0.589326 -0.68755 -0.759183 -0.502099 -0.414172 
0.876792 -0.412402 -0.247308 0.675171 -0.011287 -0.737575 0.829903 -0.193623 -0.523231 
0.922647 -0.0580872 -0.381246 0.932008 -0.0821307 -0.35301 0.87388 0.171735 -0.454798 
0.451634 0.549843 -0.702637 -0.161234 -0.735711 -0.657824 0.562625 0.295213 -0.772206 
0.372274 0.871366 -0.319583 0.494211 0.85565 -0.153682 -0.940338 0.334505 0.0622133 
0.362821 0.661872 -0.655962 0.312294 0.723756 -0.615345 0.567062 0.75347 -0.332751 
0.494904 0.806872 -0.322534 0.423492 0.815806 -0.393847 0.473155 0.852057 -0.223881 
0.458608 0.887585 0.0432589 0.36641 0.884947 -0.287423 0.347739 0.935117 -0.0680728 
0.252208 0.781689 -0.570398 0.300921 0.944138 -0.134353 -0.191771 0.968513 0.158766 
-0.0891056 0.987293 -0.131577 -0.00298196 0.968399 -0.249388 0.248391 -0.904191 -0.347477 
-0.339467 -0.821223 -0.458645 0.0793245 -0.825424 -0.558913 -0.741807 -0.668958 0.0471039 
-0.612647 -0.732449 -0.296954 0.849588 -0.494486 0.183529 -0.756768 -0.576122 -0.308845 
0.987954 -0.144309 0.0558633 0.930415 -0.184129 -0.316898 -0.867888 -0.137981 -0.477213 
-0.887 -0.0665497 -0.456948 -0.96056 0.0270824 -0.27675 0.992687 0.00765857 -0.120476 
0.961651 0.266852 0.0633763 0.708758 0.703437 0.0532731 0.807117 0.564832 0.171834 
0.761539 0.648114 0.00241116 0.374541 0.919916 -0.116077 0.49942 0.853504 -0.148698 
0.544665 0.826486 -0.142341 0.532829 0.845522 -0.0344287 0.157345 0.970317 0.183652 
-0.216699 -0.899363 -0.379719 0.163221 -0.984336 -0.0666441 -0.540354 -0.826884 -0.155819 
0.744711 -0.608138 0.274907 0.902644 -0.343932 0.258735 -0.892136 -0.451767 2.09448e-05 
0.9598 -0.20092 0.196 -0.927599 -0.363208 -0.0874089 -0.910478 -0.211637 -0.355303 
-0.947041 0.00518051 -0.32107 -0.947938 -0.191998 -0.254065 0.993896 0.0735087 0.0822607 
-0.992486 0.099459 -0.071277 0.571737 0.773205 0.274355 0.850129 0.433263 0.299272 
0.42979 0.902231 0.0355008 -0.968163 0.239722 0.0720702 0.400303 0.891234 0.213211 
-0.782176 0.548202 0.2961 -0.606923 0.693588 0.388047 -0.225229 0.866942 0.444617 
-0.548338 0.731229 0.405746 0.00959722 0.952345 0.304871 -0.299623 -0.944501 -0.134698 
-0.187893 -0.916137 0.354104 -0.44524 -0.876544 0.182842 0.0942388 -0.911586 0.400162 
0.299962 -0.906336 0.297622 -0.576891 -0.813456 -0.0740672 -0.51614 -0.796275 0.315508 
-0.512278 -0.751861 0.415063 0.46832 -0.883559 4.16766e-05 0.317869 -0.881166 0.350008 
-0.701931 -0.665292 0.254324 -0.666812 -0.589875 0.455422 0.544823 -0.720379 0.429211 
0.697578 -0.497105 0.516016 0.765728 -0.473774 0.434969 0.988289 -0.106964 0.10883 
-0.992513 0.0095267 -0.121771 0.385415 0.866409 0.317476 0.094516 0.871714 0.480813 
-0.147573 -0.730214 0.66709 0.323716 -0.766808 0.554268 -0.450997 -0.613861 0.647901 
-0.30235 -0.609235 0.733087 0.514785 -0.491715 0.702291 0.770481 -0.311022 0.556439 
-0.701675 -0.574398 0.421568 -0.97232 -0.232434 -0.0238454 -0.914486 0.366271 0.171933 
-0.749329 0.547007 0.373214 -0.610644 0.645646 0.458536 0.176358 0.834255 0.522414 
-0.297037 0.785827 0.542443 0.216209 -0.598085 0.771717 -0.0804067 -0.585294 0.806825 
0.000382821 -0.463949 0.885862 0.331699 -0.502874 0.798182 -0.277668 -0.587217 0.760314 
0.834177 -0.31314 0.453973 -0.995907 -0.0448163 0.0784935 0.882764 0.278404 0.378442 
0.510341 0.696713 0.504126 -0.735862 0.5047 0.451425 -0.0995025 0.796768 0.596037 
-0.265311 0.758593 0.595102 -0.0329023 0.835795 0.548055 0.894392 -0.208636 0.395643 
-0.922762 0.21951 0.316743 -0.862487 -0.396937 0.313939 0.830671 0.268786 0.487586 
0.587403 0.577634 0.566831 0.266416 0.780341 0.565766 -0.426984 -0.669118 0.608248 
0.612013 -0.492695 0.618621 -0.903067 -0.0190525 0.429076 0.599759 -0.254549 0.758613 
0.798918 -0.0450087 0.599754 0.835817 0.123444 0.53495 0.364798 0.514291 0.776162 
-0.538455 0.61218 0.579053 -0.336517 -0.429333 0.83811 0.12015 -0.61321 0.780729 
-0.561263 -0.399057 0.725078 0.33369 -0.320074 0.886681 -0.775452 -0.135558 0.616683 
0.632021 -0.131021 0.763795 -0.624829 0.0807806 0.776572 0.526395 0.276999 0.803853 
-0.7917 0.139789 0.594702 -0.563504 0.454918 0.689575 0.273594 0.617455 0.737493 
0.0210821 0.629291 0.776884 0.0331432 -0.499895 0.865452 -0.106709 -0.24049 0.964768 
-0.520598 -0.0294728 0.853293 0.206115 -0.26673 0.941473 0.286758 -0.16134 0.944319 
-0.131799 -0.0484603 0.990091 0.128541 0.167832 0.977399 0.351275 0.0213073 0.93603 
-0.178932 0.105376 0.978202 -0.273823 0.320623 0.906764 -0.174258 0.266895 0.94784 
-0.246042 0.564317 0.788042 0.217806 -0.593819 -0.774557 -0.313729 -0.486744 -0.815263 
-0.491113 -0.496002 -0.716093 0.315319 -0.360176 -0.877979 -0.00977614 -0.539262 -0.842081 
-0.529006 -0.163089 -0.832799 -0.741532 -0.228268 -0.630892 0.13576 -0.286758 -0.948335 
0.302431 -0.128397 -0.944484 -0.700316 -0.0335703 -0.713043 -0.308444 -0.0575002 -0.949503 
0.365789 0.0226962 -0.930421 -0.609659 0.0939674 -0.787074 0.631901 -0.0956814 -0.76912 
-0.195678 0.168525 -0.966079 0.113947 0.243398 -0.96321 0.347105 0.195427 -0.917238 
-0.745176 0.137772 -0.652481 -0.282756 0.343875 -0.895432 0.447604 0.449873 -0.772829 
-0.623665 0.435745 -0.648975 0.0423998 0.538234 -0.841729 -0.665824 -0.440927 -0.601882 
0.434693 -0.381171 -0.815936 -0.846182 -0.358485 -0.39429 0.651266 -0.242981 -0.718897 
0.582554 0.205484 -0.786389 -0.451508 0.537342 -0.712323 -0.3956 -0.675585 -0.622163 
0.710232 -0.405069 -0.575752 -0.907955 -0.0751307 -0.412279 0.813388 -0.131711 -0.566614 
-0.955181 0.0833195 -0.284056 0.794228 0.27844 -0.540067 -0.909304 0.268602 -0.317834 
0.382792 0.654188 -0.65231 -0.0503856 0.736245 -0.674837 -0.760605 -0.56537 -0.319121 
-0.926095 -0.305922 -0.220813 0.0623877 0.789376 -0.610731 -0.56384 0.64419 -0.516821 
-0.288937 0.779179 -0.556234 -0.411369 -0.619632 -0.668455 -0.451612 -0.617028 -0.644455 
-0.72502 -0.615794 -0.308454 0.912281 -0.157205 -0.378194 0.25058 0.823269 -0.50935 
-0.187358 0.839115 -0.51067 0.0650395 -0.527133 -0.84729 -0.0265494 -0.607577 -0.793817 
0.448261 -0.490415 -0.747366 -0.465846 -0.637811 -0.613339 0.65793 -0.405855 -0.634358 
-0.715725 -0.591154 -0.371853 -0.700002 -0.572878 -0.426389 -0.999814 -0.0182299 0.00631628 
-0.429027 0.716602 -0.549925 -0.187693 0.797988 -0.5727 -0.25576 -0.507661 -0.822719 
0.151542 -0.70028 -0.697598 0.379337 -0.480208 -0.790888 0.767025 -0.36087 -0.530515 
-0.891206 -0.448943 -0.0648181 0.994946 -0.0523741 -0.0856652 -0.987821 0.0947058 -0.12345 
-0.809078 0.450994 -0.376826 0.0787164 0.764108 -0.640267 -0.161161 -0.931281 -0.326716 
-0.299668 -0.834806 -0.461842 -0.0651681 -0.98988 -0.12606 0.132763 -0.948304 -0.288259 
-0.469006 -0.587718 -0.659258 -0.612666 -0.782362 -0.112026 0.277906 -0.90146 -0.331871 
-0.587577 -0.675248 -0.445863 0.485823 -0.670325 -0.560928 0.608933 -0.514543 -0.603694 
0.740394 -0.398248 -0.541493 0.943365 0.14843 -0.296701 0.617237 0.648667 -0.445252 
0.0545618 0.850198 -0.523627 0.278415 0.856578 -0.434465 -0.43014 -0.894349 0.12296 
-0.203194 -0.952875 0.225257 0.019552 -0.974803 0.222208 0.305267 -0.936497 0.172587 
0.619379 -0.758074 -0.204191 -0.704325 -0.709868 0.00372676 -0.604529 -0.7869 0.123826 
-0.394349 -0.806352 0.440778 -0.789992 -0.504757 -0.348041 0.744111 -0.4862 -0.458159 
-0.822817 -0.539645 -0.178201 0.919974 -0.256336 -0.296547 0.955241 -0.169682 -0.242328 
-0.944039 -0.279477 0.175163 -0.991391 -0.0114198 0.130433 0.758888 0.552736 -0.344343 
0.257549 0.882644 -0.393202 -0.900383 0.391996 -0.188811 -0.688549 0.589938 -0.421751 
0.553727 -0.806783 0.206127 -0.543175 -0.730243 0.414374 0.583052 -0.765006 0.273525 
0.786943 -0.597678 -0.153303 -0.783292 -0.621595 -0.00853064 -0.847272 -0.527044 0.0659921 
0.952169 -0.254776 -0.168712 0.985989 -0.132424 0.101436 -0.921255 -0.0517966 0.385494 
0.985244 -0.014868 0.170509 0.975551 -0.117318 0.185843 0.994363 -0.0872754 0.0602181 
-0.922743 0.013635 0.385174 0.872307 0.474802 -0.116807 0.510511 0.84298 -0.169597 
0.561564 0.821914 0.0954131 0.387729 0.883657 -0.262329 -0.991292 0.127648 0.0323517 
0.347207 0.916078 -0.200621 -0.449751 0.756542 -0.474731 0.123436 -0.81419 0.567325 
-0.829329 -0.44449 0.338588 -0.573118 -0.657863 0.488622 0.962085 -0.272659 0.00707561 
0.915365 -0.294873 0.274147 0.969915 -0.0677284 0.233831 -0.878179 -0.0651281 0.473877 
0.913713 -0.068638 0.400522 0.780658 -0.0137935 0.624806 -0.620414 0.173002 0.764955 
0.988127 0.14748 0.0430599 0.821168 0.202142 0.533688 0.644314 0.764083 0.0321943 
0.812581 0.521331 0.260626 0.5086 0.622299 0.595037 0.497455 0.707226 0.502365 
-0.983825 -0.0307981 0.176462 0.403843 0.898555 0.171786 0.511618 0.842407 0.169108 
0.177432 0.983927 0.020115 -0.952736 0.25585 -0.163815 0.00449832 0.932944 -0.359995 
-0.455049 0.676571 -0.578949 0.659693 -0.669127 0.342161 0.313254 -0.731154 0.606041 
0.778011 -0.54236 0.317088 0.89947 -0.193665 0.391724 0.921481 -0.140166 0.362251 
-0.856306 -0.146395 0.495287 0.779551 -0.0924876 0.619473 0.457551 0.0386324 0.888344 
0.414093 0.142436 0.899021 0.507752 0.250562 0.824261 0.573191 0.229753 0.786553 
0.244951 0.294578 0.923701 0.455726 0.542639 0.705589 0.612761 0.41694 0.671331 
-0.85461 -0.0628752 0.515449 0.416494 0.808456 0.415851 0.47084 0.614783 0.632734 
0.397128 0.863194 0.311745 0.433627 0.766097 0.474409 0.355345 0.690869 0.629627 
-0.840389 -0.00608969 0.54195 0.385181 0.890779 0.24114 0.301121 0.94029 0.158685 