# vtk DataFile Version 4.2
vtk output
ASCII
DATASET POLYDATA
POINTS 1286 float
240.64 59.8905 218.325 240.57 59.6779 218.462 240.766 59.7054 218.421 
237.925 61.1417 217.972 239.946 60.4535 218.101 239.458 60.2258 218.277 
240.318 60.3478 218.147 240.571 60.2382 218.252 240.774 59.9465 218.387 
240.299 60.7587 218.114 240.617 60.5982 218.319 240.768 60.2534 218.436 
239.049 62.1856 217.532 231.333 64.2596 217.797 239.916 63.1711 217.844 
227.219 66.1825 217.887 239.145 65.3788 217.351 224.406 67.4418 217.961 
238.326 66.5725 216.973 240.108 65.5796 218.174 221.083 69.1401 217.838 
224.104 69.0348 217.125 225.831 68.7086 216.939 228.146 71.1031 216.284 
210.143 75.9171 216.95 219.217 75.1839 216.265 233.239 74.2771 216.412 
203.378 77.2896 218.009 234.331 76.3651 216.66 232.351 78.3967 216.598 
197.148 81.1145 217.458 194.542 81.777 217.847 189.246 84.3276 217.723 
188.146 85.3317 217.418 187.361 85.2613 217.694 198.328 84.2692 216.355 
186.146 87.0385 217.093 189.65 86.5707 216.679 179.322 89.4391 217.483 
182.073 89.0283 217.045 177.254 90.3447 217.838 176.877 90.483 218.026 
178.065 89.5941 217.889 176.689 90.8854 218.064 177.621 90.8448 217.48 
179.09 90.7219 217.031 176.884 91.4693 217.766 179.712 91.4591 216.734 
177.255 93.3441 217.438 213.383 93.3446 216.367 177.865 97.173 217.091 
176.508 100.555 217.598 200.782 99.8239 216.135 206.342 99.409 216.386 
175.653 101.681 217.979 176.332 102.837 217.154 177.655 102.376 216.733 
179.297 102.155 216.389 206.368 102.295 216.805 174.86 104.791 217.555 
173.92 107.681 217.544 173.381 108.743 217.826 181.035 108.019 216.081 
173.692 109.451 217.469 174.88 109.315 216.841 176.41 109.183 216.44 
173.566 111.137 217.615 173.16 111.946 218.219 174.061 112.006 217.328 
174.022 112.866 217.495 191.472 113.4 217.195 174.38 115.845 218.254 
179.74 115.712 216.371 176.118 118.119 218.381 177.026 118.126 217.724 
185.493 117.346 217.194 177.317 118.74 218.021 177.776 119.181 218.184 
182.118 118.893 217.168 180.381 119.623 217.571 179.377 119.775 217.934 
240.756 59.5637 218.471 240.777 59.5084 218.519 240.802 59.581 218.521 
239.769 59.881 218.465 240.422 59.5112 218.87 240.828 59.7624 218.53 
238.812 60.1462 218.596 240.842 59.9864 218.528 236.048 61.3987 218.433 
240.828 60.1961 218.659 233.002 62.8197 218.443 230.485 64.1399 218.221 
224.747 66.8379 218.334 240.438 65.0519 218.688 218.606 69.3769 218.732 
216.175 70.8825 218.24 214.608 71.992 217.899 239.914 70.6939 218.35 
212.174 72.6381 218.446 207.694 74.4384 218.845 239.377 73.7411 218.013 
205.016 75.9633 218.479 237.455 75.5066 217.201 239.785 74.263 218.446 
203.677 76.3699 218.829 203.318 76.7612 218.523 204.732 76.4257 218.128 
201.278 77.8483 218.44 199.239 78.9156 218.333 197.649 79.4474 218.731 
239.802 78.198 218.437 240.782 78.9832 219.182 194.485 81.2706 218.401 
241.535 80.1051 219.083 241.443 80.8976 218.542 245.206 82.1059 219.18 
188.972 83.75 218.519 242.641 82.6725 218.426 244.18 82.7902 218.767 
241.996 83.9046 218.341 180.788 87.9827 218.008 179.627 88.3929 218.255 
176.839 89.9854 218.627 176.678 90.4101 218.35 177.235 89.6499 218.498 
225.356 89.4261 216.93 235.308 88.7355 218.18 176.339 91.4323 218.555 
231.868 89.8582 217.733 176.466 92.7425 218.254 226.616 91.7093 217.383 
229.822 91.9078 218.056 228.707 92.7828 218.18 221.705 94.8022 217.364 
176.544 96.4263 218.494 226.508 94.3681 218.413 216.914 96.9661 217.2 
223.591 95.5814 218.032 224.704 95.7674 218.594 176.066 99.2411 218.654 
222.962 96.7118 218.724 211.11 100.459 217.083 219.596 98.1902 218.334 
174.86 102.995 218.337 211.412 101.646 217.517 174.07 105.156 218.262 
208.467 103.516 217.525 212.527 102.228 218.284 206.533 104.544 217.522 
208.847 103.839 217.813 206.137 105.249 217.797 209.797 103.933 218.365 
173.27 107.389 218.59 173.249 108.082 218.203 208.829 104.605 218.542 
205.26 106.554 218.518 204.727 106.971 218.711 172.954 111.194 218.576 
196.513 110.522 217.402 201.14 109.103 218.526 195.377 111.614 217.569 
197.804 110.725 218.101 198.496 110.546 218.371 173.409 114.06 218.657 
193.164 113.224 217.717 195.706 112.287 218.402 193.573 113.558 218.324 
195.108 112.717 218.65 174.483 116.55 218.805 188.37 116.354 217.635 
189.835 115.727 217.892 190.411 115.597 218.186 190.982 115.293 218.462 
175.106 117.383 218.833 175.603 117.794 218.599 183.576 119.053 217.49 
184.241 119.001 217.653 187.13 117.842 218.627 185.126 119.034 218.164 
179.627 120.159 218.344 181.108 120.914 218.77 181.716 120.715 218.369 
182.342 120.683 218.523 181.469 120.917 218.632 240.386 59.359 219.192 
240.315 59.3241 219.378 240.254 59.3456 219.231 240.718 59.5155 218.617 
239.344 59.6002 219.263 240.653 59.7299 219.109 240.741 59.6337 218.715 
240.815 59.9018 218.748 233.031 62.4106 219.012 228.774 64.4401 219.01 
228.17 64.6118 219.256 224.466 66.597 218.804 224.042 66.6548 219.095 
222.408 67.5827 218.789 221.97 67.6362 219.078 220.356 68.5339 218.744 
219.916 68.5872 219.007 240.488 67.3844 219.306 218.647 69.0963 219.313 
214.374 71.238 219.162 212.301 72.1011 219.409 211.826 72.4981 218.924 
207.459 74.3742 219.317 207.025 74.702 218.985 203.45 76.3035 219.297 
204.126 75.989 219.281 240.274 75.1641 219.446 196.91 79.6643 218.992 
198.264 78.9938 219.093 240.621 78.0763 219.676 240.471 77.3248 219.713 
241.149 79.0645 220.001 192.855 81.7542 218.875 242.483 80.4735 219.616 
244.139 81.3027 219.554 245.626 81.8856 219.51 247.698 82.2844 219.915 
247.535 82.1679 219.891 247.721 82.178 220.011 245.817 82.8557 219.266 
247.673 82.5124 219.879 247.893 82.3444 220.086 251 82.0087 220.504 
251 82.0087 220.506 251 82.0088 220.507 251 82.0087 220.507 
188.187 84.0233 218.678 189.408 83.4136 218.93 244.77 83.4308 219.036 
245.43 83.2698 219.233 251 82.0087 220.507 248.001 82.7335 220.079 
243.69 84.0638 218.886 247.713 82.9684 220.039 247.937 82.8479 220.124 
244.609 84.234 219.481 183.49 86.1934 219.072 180.087 87.9138 218.678 
241.592 85.9037 219.077 242.725 85.5344 219.68 239.544 87.1086 218.933 
240.595 86.6176 219.159 176.567 90.4018 218.769 177.104 89.658 218.887 
177.581 89.2834 218.887 176.38 90.916 218.897 235.869 89.459 218.941 
237.241 88.9244 219.32 234.995 90.3796 219.577 234.141 90.97 219.361 
230.604 92.5515 218.715 232.268 91.9962 219.428 228.804 93.6164 218.82 
230.303 92.9504 219.128 225.166 95.7212 219.469 226.633 94.9137 219.329 
176.171 98.4545 219.116 224.335 96.3011 219.024 224.338 96.3817 219.25 
221.392 97.7116 219.362 222.97 96.9148 219.269 219.84 98.6575 219.139 
218.043 99.4149 219.397 216.473 100.388 219.142 213.775 101.854 218.758 
213.495 102.115 219.096 214.027 101.67 219.281 174.106 104.496 219.129 
212.645 102.626 219.233 173.617 106.01 218.809 209.678 104.225 219.071 
211.33 103.229 219.228 207.93 105.309 219.205 208.241 105.011 219.409 
209.237 104.464 218.817 173.216 107.488 219.037 172.975 108.997 218.662 
206.387 106.042 219.296 202.54 108.445 218.754 200.59 109.508 218.677 
200.314 109.664 218.982 198.624 110.604 218.674 198.95 110.418 218.91 
173.051 112.853 219.332 196.837 111.642 218.908 173.612 114.801 219.283 
193.65 113.639 218.633 193.928 113.454 218.894 174.24 116.146 219.205 
190.654 115.546 218.863 175.192 117.52 219.193 175.968 118.207 219.21 
178.233 119.659 218.855 180.044 120.497 219.149 182.929 120.484 219.077 
183.672 120.115 218.708 181.163 120.908 219.033 182.315 120.807 218.852 
182.221 120.822 219.06 181.513 120.961 218.882 240.096 59.3315 219.499 
238.716 59.7818 219.468 234.555 61.6184 220.019 233.922 61.822 219.547 
240.711 61.2857 219.62 231.305 63.1222 219.847 232.108 62.7432 219.849 
240.663 62.9435 219.723 223.188 66.9542 219.876 221.063 67.9151 219.831 
219.089 68.837 219.731 213.696 71.4645 220.035 211.191 72.6126 219.671 
212.495 71.9801 219.976 208.8 73.7245 219.561 209.126 73.6456 220.107 
207.673 74.2723 219.9 205.001 75.5438 220.052 206.221 74.9471 219.822 
240.316 74.6403 219.933 200.824 77.6137 219.46 201.715 77.1718 220.031 
202.258 76.8876 219.802 240.466 77.4311 220.207 196.785 79.5866 219.483 
196.444 79.7641 219.755 197.689 79.1717 219.999 240.731 78.3818 220.398 
194.787 80.6758 219.381 194.445 80.8684 219.671 241.175 79.2638 220.656 
192.741 81.7097 219.325 192.424 81.8952 219.585 241.801 79.8411 220.375 
247.742 82.1404 220.19 190.748 82.7317 219.193 247.963 82.2949 220.328 
251 82.0087 220.513 251 82.0088 220.513 251 82.0087 220.513 
189.028 83.7016 219.765 248.058 82.4994 220.255 248.057 82.6975 220.2 
251 82.0088 220.513 187.017 84.6109 219.795 247.74 83.0115 220.202 
247.943 82.8432 220.309 182.375 86.8271 219.662 244.068 84.8738 220.011 
179.976 87.8841 219.142 179.676 88.0901 219.408 241.62 86.3467 219.986 
242.078 85.9225 220.151 178.061 88.9358 219.103 176.581 90.4809 219.223 
238.619 88.2236 219.832 239.069 87.7573 220.022 238.376 88.4101 219.639 
235.805 89.8062 219.804 235.064 90.2386 219.99 233.593 91.2038 220.056 
231.634 92.4134 219.484 231.228 92.5965 219.657 231.713 92.2732 219.799 
227.361 94.588 219.444 227.667 94.3653 219.694 224.313 96.3084 219.517 
223.886 96.4322 219.814 223.65 96.6535 219.58 219.596 98.7405 219.474 
215.661 100.769 219.603 215.388 100.769 219.89 174.63 103.562 219.677 
212.148 102.219 220.087 211.258 103.169 219.649 211.484 102.942 219.832 
174.145 105.177 219.79 173.766 105.754 219.345 209.694 104.138 219.386 
173.653 106.487 219.595 207.854 105.01 219.766 173.158 107.985 219.244 
173.314 108.239 219.679 173.008 109.773 219.375 200.102 109.446 219.707 
173.022 111.512 219.611 199.869 109.778 219.375 196.692 111.167 219.91 
173.196 113.019 219.773 195.697 112.16 219.478 194.981 112.371 219.783 
193.488 113.086 219.921 194.781 112.744 219.436 173.739 114.842 219.717 
191.721 114.446 219.643 191.675 114.121 219.99 189.86 115.481 219.813 
174.528 116.673 219.333 175.531 117.808 219.385 185.645 118.583 219.373 
176.42 118.474 219.452 177.576 119.141 219.547 183.886 119.422 219.703 
180.056 120.3 219.573 181.502 120.674 219.447 181.01 120.716 219.342 
240.001 59.3594 219.789 239.8 59.4343 219.996 240.331 59.536 219.891 
[...]
POINT_DATA 1286
COLOR_SCALARS scalars 3
0.25098 0.65098 0.4 0.25098 0.65098 0.4 0.25098 0.65098 0.4 
0.25098 0.65098 0.4 0.25098 0.65098 0.4 
0.25098 0.65098 0.4 0.25098 0.65098 0.4 
0.25098 0.65098 0.4 0.25098 0.65098 0.4 
0.25098 0.65098 0.4 0.25098 0.65098 0.4 
0.25098 0.65098 0.4 0.25098 0.65098 0.4 
0.25098 0.65098 0.4 0.25098 0.65098 0.4 
0.25098 0.65098 0.4 0.25098 0.65098 0.4 
0.25098 0.65098 0.4 0.25098 0.65098 0.4 
0.25098 0.65098 0.4 0.25098 0.65098 0.4 
0.25098 0.65098 0.4 0.25098 0.65098 0.4 
0.25098 0.65098 0.4 0.25098 0.65098 0.4 
0.25098 0.65098 0.4 0.25098 0.65098 0.4 
0.25098 0.65098 0.4 0.25098 0.65098 0.4 
0.25098 0.65098 0.4 0.25098 0.65098 0.4 
0.25098 0.65098 0.4 0.25098 0.65098 0.4 
0.25098 0.65098 0.4 0.25098 0.65098 0.4 
0.25098 0.65098 0.4 0.25098 0.65098 0.4 
0.25098 0.65098 0.4 0.25098 0.65098 0.4 
0.25098 0.65098 0.4 0.25098 0.65098 0.4 
0.25098 0.65098 0.4 0.25098 0.65098 0.4 
0.25098 0.65098 0.4 0.25098 0.65098 0.4 
0.25098 0.65098 0.4 0.25098 0.65098 0.4 
0.25098 0.65098 0.4 0.25098 0.65098 0.4 
0.25098 0.65098 0.4 0.25098 0.65098 0.4 
0.25098 0.65098 0.4 0.25098 0.65098 0.4 
0.25098 0.65098 0.4 0.25098 0.65098 0.4 
0.25098 0.65098 0.4 0.25098 0.65098 0.4 
0.25098 0.65098 0.4 0.25098 0.65098 0.4 
0.25098 0.65098 0.4 0.25098 0.65098 0.4 
0.25098 0.65098 0.4 0.25098 0.65098 0.4 
0.25098 0.65098 0.4 0.25098 0.65098 0.4 
0.25098 0.65098 0.4 0.25098 0.65098 0.4 
0.25098 0.65098 0.4 0.25098 0.65098 0.4 
0.25098 0.65098 0.4 0.25098 0.65098 0.4 
0.25098 0.65098 0.4 0.25098 0.65098 0.4 
0.25098 0.65098 0.4 0.25098 0.65098 0.4 
0.25098 0.65098 0.4 0.25098 0.65098 0.4 
0.25098 0.65098 0.4 0.25098 0.65098 0.4 
0.25098 0.65098 0.4 0.25098 0.65098 0.4 
0.25098 0.65098 0.4 0.25098 0.65098 0.4 
0.25098 0.65098 0.4 0.25098 0.65098 0.4 
0.25098 0.65098 0.4 0.25098 0.65098 0.4 
0.25098 0.65098 0.4 0.25098 0.65098 0.4 
0.25098 0.65098 0.4 0.25098 0.65098 0.4 
0.25098 0.65098 0.4 0.25098 0.65098 0.4 
0.25098 0.65098 0.4 0.25098 0.65098 0.4 
0.25098 0.65098 0.4 0.25098 0.65098 0.4 
0.25098 0.65098 0.4 0.25098 0.65098 0.4 
0.25098 0.65098 0.4 0.25098 0.65098 0.4 
0.25098 0.65098 0.4 0.25098 0.65098 0.4 
0.25098 0.65098 0.4 0.25098 0.65098 0.4 
0.25098 0.65098 0.4 0.25098 0.65098 0.4 
0.25098 0.65098 0.4 0.25098 0.65098 0.4 
0.25098 0.65098 0.4 0.25098 0.65098 0.4 
0.25098 0.65098 0.4 0.25098 0.65098 0.4 
0.25098 0.65098 0.4 0.25098 0.65098 0.4 
0.25098 0.65098 0.4 0.25098 0.65098 0.4 
0.25098 0.65098 0.4 0.25098 0.65098 0.4 
0.25098 0.65098 0.4 0.25098 0.65098 0.4 
0.25098 0.65098 0.4 0.25098 0.65098 0.4 
0.25098 0.65098 0.4 0.25098 0.65098 0.4 
0.25098 0.65098 0.4 0.25098 0.65098 0.4 
0.25098 0.65098 0.4 0.25098 0.65098 0.4 
0.25098 0.65098 0.4 0.25098 0.65098 0.4 
0.25098 0.65098 0.4 0.25098 0.65098 0.4 
0.25098 0.65098 0.4 0.25098 0.65098 0.4 
0.25098 0.65098 0.4 0.25098 0.65098 0.4 
0.25098 0.65098 0.4 0.25098 0.65098 0.4 
0.25098 0.65098 0.4 0.25098 0.65098 0.4 
0.25098 0.65098 0.4 0.25098 0.65098 0.4 
0.25098 0.65098 0.4 0.25098 0.65098 0.4 
0.25098 0.65098 0.4 0.25098 0.65098 0.4 
0.25098 0.65098 0.4 0.25098 0.65098 0.4 
0.25098 0.65098 0.4 0.25098 0.65098 0.4 
0.25098 0.65098 0.4 0.25098 0.65098 0.4 
0.25098 0.65098 0.4 0.25098 0.65098 0.4 
0.25098 0.65098 0.4 0.25098 0.65098 0.4 
0.25098 0.65098 0.4 0.25098 0.65098 0.4 
0.25098 0.65098 0.4 0.25098 0.65098 0.4 
0.25098 0.65098 0.4 0.25098 0.65098 0.4 
0.25098 0.65098 0.4 0.25098 0.65098 0.4 
0.25098 0.65098 0.4 0.25098 0.65098 0.4 
0.25098 0.65098 0.4 0.25098 0.65098 0.4 
0.25098 0.65098 0.4 0.25098 0.65098 0.4 
0.25098 0.65098 0.4 0.25098 0.65098 0.4 
0.25098 0.65098 0.4 0.25098 0.65098 0.4 
0.25098 0.65098 0.4 0.25098 0.65098 0.4 
0.25098 0.65098 0.4 0.25098 0.65098 0.4 
0.25098 0.65098 0.4 0.25098 0.65098 0.4 
0.25098 0.65098 0.4 0.25098 0.65098 0.4 
0.25098 0.65098 0.4 0.25098 0.65098 0.4 
0.25098 0.65098 0.4 0.25098 0.65098 0.4 
0.25098 0.65098 0.4 0.25098 0.65098 0.4 
0.25098 0.65098 0.4 0.25098 0.65098 0.4 
0.25098 0.65098 0.4 0.25098 0.65098 0.4 
0.25098 0.65098 0.4 0.25098 0.65098 0.4 
0.25098 0.65098 0.4 0.25098 0.65098 0.4 
0.25098 0.65098 0.4 0.25098 0.65098 0.4 
0.25098 0.65098 0.4 0.25098 0.65098 0.4 
0.25098 0.65098 0.4 0.25098 0.65098 0.4 
0.25098 0.65098 0.4 0.25098 0.65098 0.4 
0.25098 0.65098 0.4 0.25098 0.65098 0.4 
0.25098 0.65098 0.4 0.25098 0.65098 0.4 
0.25098 0.65098 0.4 0.25098 0.65098 0.4 
0.25098 0.65098 0.4 0.25098 0.65098 0.4 
0.25098 0.65098 0.4 0.25098 0.65098 0.4 
0.25098 0.65098 0.4 0.25098 0.65098 0.4 
0.25098 0.65098 0.4 0.25098 0.65098 0.4 
0.25098 0.65098 0.4 0.25098 0.65098 0.4 
0.25098 0.65098 0.4 0.25098 0.65098 0.4 
0.25098 0.65098 0.4 0.25098 0.65098 0.4 
0.25098 0.65098 0.4 0.25098 0.65098 0.4 
0.25098 0.65098 0.4 0.25098 0.65098 0.4 
0.25098 0.65098 0.4 0.25098 0.65098 0.4 
0.25098 0.65098 0.4 0.25098 0.65098 0.4 
0.25098 0.65098 0.4 0.25098 0.65098 0.4 
0.25098 0.65098 0.4 0.25098 0.65098 0.4 
0.25098 0.65098 0.4 0.25098 0.65098 0.4 
0.25098 0.65098 0.4 0.25098 0.65098 0.4 
0.25098 0.65098 0.4 0.25098 0.65098 0.4 
0.25098 0.65098 0.4 0.25098 0.65098 0.4 
0.25098 0.65098 0.4 0.25098 0.65098 0.4 
0.25098 0.65098 0.4 0.25098 0.65098 0.4 
0.25098 0.65098 0.4 0.25098 0.65098 0.4 
0.25098 0.65098 0.4 0.25098 0.65098 0.4 
0.25098 0.65098 0.4 0.25098 0.65098 0.4 
0.25098 0.65098 0.4 0.25098 0.65098 0.4 
0.25098 0.65098 0.4 0.25098 0.65098 0.4 
0.25098 0.65098 0.4 0.25098 0.65098 0.4 
0.25098 0.65098 0.4 0.25098 0.65098 0.4 
0.25098 0.65098 0.4 0.25098 0.65098 0.4 
0.25098 0.65098 0.4 0.25098 0.65098 0.4 
0.25098 0.65098 0.4 0.25098 0.65098 0.4 
0.25098 0.65098 0.4 0.25098 0.65098 0.4 
0.25098 0.65098 0.4 0.25098 0.65098 0.4 
0.25098 0.65098 0.4 0.25098 0.65098 0.4 
0.25098 0.65098 0.4 0.25098 0.65098 0.4 
0.25098 0.65098 0.4 0.25098 0.65098 0.4 
0.25098 0.65098 0.4 0.25098 0.65098 0.4 
0.25098 0.65098 0.4 0.25098 0.65098 0.4 
0.25098 0.65098 0.4 0.25098 0.65098 0.4 
0.25098 0.65098 0.4 0.25098 0.65098 0.4 
0.25098 0.65098 0.4 0.25098 0.65098 0.4 
0.25098 0.65098 0.4 0.25098 0.65098 0.4 
0.25098 0.65098 0.4 0.25098 0.65098 0.4 
0.25098 0.65098 0.4 0.25098 0.65098 0.4 
0.25098 0.65098 0.4 0.25098 0.65098 0.4 
0.25098 0.65098 0.4 0.25098 0.65098 0.4 
0.25098 0.65098 0.4 0.25098 0.65098 0.4 
0.25098 0.65098 0.4 0.25098 0.65098 0.4 
0.25098 0.65098 0.4 0.25098 0.65098 0.4 
0.25098 0.65098 0.4 0.25098 0.65098 0.4 
0.25098 0.65098 0.4 0.25098 0.65098 0.4 
0.25098 0.65098 0.4 0.25098 0.65098 0.4 
0.25098 0.65098 0.4 0.25098 0.65098 0.4 
0.25098 0.65098 0.4 0.25098 0.65098 0.4 
0.25098 0.65098 0.4 0.25098 0.65098 0.4 
0.25098 0.65098 0.4 0.25098 0.65098 0.4 
0.25098 0.65098 0.4 0.25098 0.65098 0.4 
0.25098 0.65098 0.4 0.25098 0.65098 0.4 
0.25098 0.65098 0.4 0.25098 0.65098 0.4 
0.25098 0.65098 0.4 0.25098 0.65098 0.4 
0.25098 0.65098 0.4 0.25098 0.65098 0.4 
0.25098 0.65098 0.4 0.25098 0.65098 0.4 
0.25098 0.65098 0.4 0.25098 0.65098 0.4 
0.25098 0.65098 0.4 0.25098 0.65098 0.4 
0.25098 0.65098 0.4 0.25098 0.65098 0.4 
0.25098 0.65098 0.4 0.25098 0.65098 0.4 
0.25098 0.65098 0.4 0.25098 0.65098 0.4 
0.25098 0.65098 0.4 0.25098 0.65098 0.4 
0.25098 0.65098 0.4 0.25098 0.65098 0.4 
0.25098 0.65098 0.4 0.25098 0.65098 0.4 
0.25098 0.65098 0.4 0.25098 0.65098 0.4 
0.25098 0.65098 0.4 0.25098 0.65098 0.4 
0.25098 0.65098 0.4 0.25098 0.65098 0.4 
0.25098 0.65098 0.4 0.25098 0.65098 0.4 
0.25098 0.65098 0.4 0.25098 0.65098 0.4 
0.25098 0.65098 0.4 0.25098 0.65098 0.4 
0.25098 0.65098 0.4 0.25098 0.65098 0.4 
0.25098 0.65098 0.4 0.25098 0.65098 0.4 
0.25098 0.65098 0.4 0.25098 0.65098 0.4 
0.25098 0.65098 0.4 0.25098 0.65098 0.4 
0.25098 0.65098 0.4 0.25098 0.65098 0.4 
0.25098 0.65098 0.4 0.25098 0.65098 0.4 
0.25098 0.65098 0.4 0.25098 0.65098 0.4 
0.25098 0.65098 0.4 0.25098 0.65098 0.4 
0.25098 0.65098 0.4 0.25098 0.65098 0.4 
0.25098 0.65098 0.4 0.25098 0.65098 0.4 
0.25098 0.65098 0.4 0.25098 0.65098 0.4 
0.25098 0.65098 0.4 0.25098 0.65098 0.4 
0.25098 0.65098 0.4 0.25098 0.65098 0.4 
0.25098 0.65098 0.4 0.25098 0.65098 0.4 
0.25098 0.65098 0.4 0.25098 0.65098 0.4 
0.25098 0.65098 0.4 0.25098 0.65098 0.4 
0.25098 0.65098 0.4 0.25098 0.65098 0.4 
0.25098 0.65098 0.4 0.25098 0.65098 0.4 
0.25098 0.65098 0.4 0.25098 0.65098 0.4 
0.25098 0.65098 0.4 0.25098 0.65098 0.4 
0.25098 0.65098 0.4 0.25098 0.65098 0.4 
0.25098 0.65098 0.4 0.25098 0.65098 0.4 
0.25098 0.65098 0.4 0.25098 0.65098 0.4 
0.25098 0.65098 0.4 0.25098 0.65098 0.4 
0.25098 0.65098 0.4 0.25098 0.65098 0.4 
0.25098 0.65098 0.4 0.25098 0.65098 0.4 
0.25098 0.65098 0.4 0.25098 0.65098 0.4 
0.25098 0.65098 0.4 0.25098 0.65098 0.4 
0.25098 0.65098 0.4 0.25098 0.65098 0.4 
0.25098 0.65098 0.4 0.25098 0.65098 0.4 
0.25098 0.65098 0.4 0.25098 0.65098 0.4 
0.25098 0.65098 0.4 0.25098 0.65098 0.4 
0.25098 0.65098 0.4 0.25098 0.65098 0.4 
0.25098 0.65098 0.4 0.25098 0.65098 0.4 
0.25098 0.65098 0.4 0.25098 0.65098 0.4 
0.25098 0.65098 0.4 0.25098 0.65098 0.4 
0.25098 0.65098 0.4 0.25098 0.65098 0.4 
0.25098 0.65098 0.4 0.25098 0.65098 0.4 
0.25098 0.65098 0.4 0.25098 0.65098 0.4 
0.25098 0.65098 0.4 0.25098 0.65098 0.4 
0.25098 0.65098 0.4 0.25098 0.65098 0.4 
0.25098 0.65098 0.4 0.25098 0.65098 0.4 
0.25098 0.65098 0.4 0.25098 0.65098 0.4 
0.25098 0.65098 0.4 0.25098 0.65098 0.4 
0.25098 0.65098 0.4 0.25098 0.65098 0.4 
0.25098 0.65098 0.4 0.25098 0.65098 0.4 
0.25098 0.65098 0.4 0.25098 0.65098 0.4 
0.25098 0.65098 0.4 0.25098 0.65098 0.4 
0.25098 0.65098 0.4 0.25098 0.65098 0.4 
0.25098 0.65098 0.4 0.25098 0.65098 0.4 
0.25098 0.65098 0.4 0.25098 0.65098 0.4 
0.25098 0.65098 0.4 0.25098 0.65098 0.4 
0.25098 0.65098 0.4 0.25098 0.65098 0.4 
0.25098 0.65098 0.4 0.25098 0.65098 0.4 
0.25098 0.65098 0.4 0.25098 0.65098 0.4 
0.25098 0.65098 0.4 0.25098 0.65098 0.4 
0.25098 0.65098 0.4 0.25098 0.65098 0.4 
0.25098 0.65098 0.4 0.25098 0.65098 0.4 
0.25098 0.65098 0.4 0.25098 0.65098 0.4 
0.25098 0.65098 0.4 0.25098 0.65098 0.4 
0.25098 0.65098 0.4 0.25098 0.65098 0.4 
0.25098 0.65098 0.4 0.25098 0.65098 0.4 
0.25098 0.65098 0.4 0.25098 0.65098 0.4 
0.25098 0.65098 0.4 0.25098 0.65098 0.4 
0.25098 0.65098 0.4 0.25098 0.65098 0.4 
0.25098 0.65098 0.4 0.25098 0.65098 0.4 
0.25098 0.65098 0.4 0.25098 0.65098 0.4 
0.25098 0.65098 0.4 0.25098 0.65098 0.4 
0.25098 0.65098 0.4 0.25098 0.65098 0.4 
0.25098 0.65098 0.4 0.25098 0.65098 0.4 
0.25098 0.65098 0.4 0.25098 0.65098 0.4 
0.25098 0.65098 0.4 0.25098 0.65098 0.4 
0.25098 0.65098 0.4 0.25098 0.65098 0.4 
0.25098 0.65098 0.4 0.25098 0.65098 0.4 
0.25098 0.65098 0.4 0.25098 0.65098 0.4 
0.25098 0.65098 0.4 0.25098 0.65098 0.4 
0.25098 0.65098 0.4 0.25098 0.65098 0.4 
0.25098 0.65098 0.4 0.25098 0.65098 0.4 
0.25098 0.65098 0.4 0.25098 0.65098 0.4 
0.25098 0.65098 0.4 0.25098 0.65098 0.4 
0.25098 0.65098 0.4 0.25098 0.65098 0.4 
0.25098 0.65098 0.4 0.25098 0.65098 0.4 
0.25098 0.65098 0.4 0.25098 0.65098 0.4 
0.25098 0.65098 0.4 0.25098 0.65098 0.4 
0.25098 0.65098 0.4 0.25098 0.65098 0.4 
0.25098 0.65098 0.4 0.25098 0.65098 0.4 
0.25098 0.65098 0.4 0.25098 0.65098 0.4 
0.25098 0.65098 0.4 0.25098 0.65098 0.4 
0.25098 0.65098 0.4 0.25098 0.65098 0.4 
0.25098 0.65098 0.4 0.25098 0.65098 0.4 
0.25098 0.65098 0.4 0.25098 0.65098 0.4 
0.25098 0.65098 0.4 0.25098 0.65098 0.4 
0.25098 0.65098 0.4 0.25098 0.65098 0.4 
0.25098 0.65098 0.4 0.25098 0.65098 0.4 
0.25098 0.65098 0.4 0.25098 0.65098 0.4 
0.25098 0.65098 0.4 0.25098 0.65098 0.4 
0.25098 0.65098 0.4 0.25098 0.65098 0.4 
0.25098 0.65098 0.4 0.25098 0.65098 0.4 
0.25098 0.65098 0.4 0.25098 0.65098 0.4 
0.25098 0.65098 0.4 0.25098 0.65098 0.4 
0.25098 0.65098 0.4 0.25098 0.65098 0.4 
0.25098 0.65098 0.4 0.25098 0.65098 0.4 
0.25098 0.65098 0.4 0.25098 0.65098 0.4 
0.25098 0.65098 0.4 0.25098 0.65098 0.4 
0.25098 0.65098 0.4 0.25098 0.65098 0.4 
0.25098 0.65098 0.4 0.25098 0.65098 0.4 
0.25098 0.65098 0.4 0.25098 0.65098 0.4 
0.25098 0.65098 0.4 0.25098 0.65098 0.4 
0.25098 0.65098 0.4 0.25098 0.65098 0.4 
0.25098 0.65098 0.4 0.25098 0.65098 0.4 
0.25098 0.65098 0.4 0.25098 0.65098 0.4 
0.25098 0.65098 0.4 0.25098 0.65098 0.4 
0.25098 0.65098 0.4 0.25098 0.65098 0.4 
0.25098 0.65098 0.4 0.25098 0.65098 0.4 
0.25098 0.65098 0.4 0.25098 0.65098 0.4 
0.25098 0.65098 0.4 0.25098 0.65098 0.4 
0.25098 0.65098 0.4 0.25098 0.65098 0.4 
0.25098 0.65098 0.4 0.25098 0.65098 0.4 
0.25098 0.65098 0.4 0.25098 0.65098 0.4 
0.25098 0.65098 0.4 0.25098 0.65098 0.4 
0.25098 0.65098 0.4 0.25098 0.65098 0.4 
0.25098 0.65098 0.4 0.25098 0.65098 0.4 
0.25098 0.65098 0.4 0.25098 0.65098 0.4 
0.25098 0.65098 0.4 0.25098 0.65098 0.4 
0.25098 0.65098 0.4 0.25098 0.65098 0.4 
0.25098 0.65098 0.4 0.25098 0.65098 0.4 
0.25098 0.65098 0.4 0.25098 0.65098 0.4 
0.25098 0.65098 0.4 0.25098 0.65098 0.4 
0.25098 0.65098 0.4 0.25098 0.65098 0.4 
0.25098 0.65098 0.4 0.25098 0.65098 0.4 
0.25098 0.65098 0.4 0.25098 0.65098 0.4 
0.25098 0.65098 0.4 0.25098 0.65098 0.4 
0.25098 0.65098 0.4 0.25098 0.65098 0.4 
0.25098 0.65098 0.4 0.25098 0.65098 0.4 
0.25098 0.65098 0.4 0.25098 0.65098 0.4 
0.25098 0.65098 0.4 0.25098 0.65098 0.4 
0.25098 0.65098 0.4 0.25098 0.65098 0.4 
0.25098 0.65098 0.4 0.25098 0.65098 0.4 
0.25098 0.65098 0.4 0.25098 0.65098 0.4 
0.25098 0.65098 0.4 0.25098 0.65098 0.4 
0.25098 0.65098 0.4 0.25098 0.65098 0.4 
0.25098 0.65098 0.4 0.25098 0.65098 0.4 
0.25098 0.65098 0.4 0.25098 0.65098 0.4 
0.25098 0.65098 0.4 0.25098 0.65098 0.4 
0.25098 0.65098 0.4 0.25098 0.65098 0.4 
0.25098 0.65098 0.4 0.25098 0.65098 0.4 
0.25098 0.65098 0.4 0.25098 0.65098 0.4 
0.25098 0.65098 0.4 0.25098 0.65098 0.4 
0.25098 0.65098 0.4 0.25098 0.65098 0.4 
0.25098 0.65098 0.4 0.25098 0.65098 0.4 
0.25098 0.65098 0.4 0.25098 0.65098 0.4 
0.25098 0.65098 0.4 0.25098 0.65098 0.4 
0.25098 0.65098 0.4 0.25098 0.65098 0.4 
0.25098 0.65098 0.4 0.25098 0.65098 0.4 
0.25098 0.65098 0.4 0.25098 0.65098 0.4 
0.25098 0.65098 0.4 0.25098 0.65098 0.4 
0.25098 0.65098 0.4 0.25098 0.65098 0.4 
0.25098 0.65098 0.4 0.25098 0.65098 0.4 
0.25098 0.65098 0.4 0.25098 0.65098 0.4 
0.25098 0.65098 0.4 0.25098 0.65098 0.4 
0.25098 0.65098 0.4 0.25098 0.65098 0.4 
0.25098 0.65098 0.4 0.25098 0.65098 0.4 
0.25098 0.65098 0.4 0.25098 0.65098 0.4 
0.25098 0.65098 0.4 0.25098 0.65098 0.4 
0.25098 0.65098 0.4 0.25098 0.65098 0.4 
0.25098 0.65098 0.4 0.25098 0.65098 0.4 
0.25098 0.65098 0.4 0.25098 0.65098 0.4 
0.25098 0.65098 0.4 0.25098 0.65098 0.4 
0.25098 0.65098 0.4 0.25098 0.65098 0.4 
0.25098 0.65098 0.4 0.25098 0.65098 0.4 
0.25098 0.65098 0.4 0.25098 0.65098 0.4 
0.25098 0.65098 0.4 0.25098 0.65098 0.4 
0.25098 0.65098 0.4 0.25098 0.65098 0.4 
0.25098 0.65098 0.4 0.25098 0.65098 0.4 
0.25098 0.65098 0.4 0.25098 0.65098 0.4 
0.25098 0.65098 0.4 0.25098 0.65098 0.4 
0.25098 0.65098 0.4 0.25098 0.65098 0.4 
0.25098 0.65098 0.4 0.25098 0.65098 0.4 
0.25098 0.65098 0.4 0.25098 0.65098 0.4 
0.25098 0.65098 0.4 0.25098 0.65098 0.4 
0.25098 0.65098 0.4 0.25098 0.65098 0.4 
0.25098 0.65098 0.4 0.25098 0.65098 0.4 
0.25098 0.65098 0.4 0.25098 0.65098 0.4 
0.25098 0.65098 0.4 0.25098 0.65098 0.4 
0.25098 0.65098 0.4 0.25098 0.65098 0.4 
0.25098 0.65098 0.4 0.25098 0.65098 0.4 
0.25098 0.65098 0.4 0.25098 0.65098 0.4 
0.25098 0.65098 0.4 0.25098 0.65098 0.4 
0.25098 0.65098 0.4 0.25098 0.65098 0.4 
0.25098 0.65098 0.4 0.25098 0.65098 0.4 
0.25098 0.65098 0.4 0.25098 0.65098 0.4 
0.25098 0.65098 0.4 0.25098 0.65098 0.4 
0.25098 0.65098 0.4 0.25098 0.65098 0.4 
0.25098 0.65098 0.4 0.25098 0.65098 0.4 
0.25098 0.65098 0.4 0.25098 0.65098 0.4 
0.25098 0.65098 0.4 0.25098 0.65098 0.4 
0.25098 0.65098 0.4 0.25098 0.65098 0.4 
0.25098 0.65098 0.4 0.25098 0.65098 0.4 
0.25098 0.65098 0.4 0.25098 0.65098 0.4 
0.25098 0.65098 0.4 0.25098 0.65098 0.4 
0.25098 0.65098 0.4 0.25098 0.65098 0.4 
0.25098 0.65098 0.4 0.25098 0.65098 0.4 
0.25098 0.65098 0.4 0.25098 0.65098 0.4 
0.25098 0.65098 0.4 0.25098 0.65098 0.4 
0.25098 0.65098 0.4 0.25098 0.65098 0.4 
0.25098 0.65098 0.4 0.25098 0.65098 0.4 
0.25098 0.65098 0.4 0.25098 0.65098 0.4 
0.25098 0.65098 0.4 0.25098 0.65098 0.4 
0.25098 0.65098 0.4 0.25098 0.65098 0.4 
0.25098 0.65098 0.4 0.25098 0.65098 0.4 
0.25098 0.65098 0.4 0.25098 0.65098 0.4 
0.25098 0.65098 0.4 0.25098 0.65098 0.4 
0.25098 0.65098 0.4 0.25098 0.65098 0.4 
0.25098 0.65098 0.4 0.25098 0.65098 0.4 
0.25098 0.65098 0.4 0.25098 0.65098 0.4 
0.25098 0.65098 0.4 0.25098 0.65098 0.4 
0.25098 0.65098 0.4 0.25098 0.65098 0.4 
0.25098 0.65098 0.4 0.25098 0.65098 0.4 
0.25098 0.65098 0.4 0.25098 0.65098 0.4 
0.25098 0.65098 0.4 0.25098 0.65098 0.4 
0.25098 0.65098 0.4 0.25098 0.65098 0.4 
0.25098 0.65098 0.4 0.25098 0.65098 0.4 
0.25098 0.65098 0.4 0.25098 0.65098 0.4 
0.25098 0.65098 0.4 0.25098 0.65098 0.4 
0.25098 0.65098 0.4 0.25098 0.65098 0.4 
0.25098 0.65098 0.4 0.25098 0.65098 0.4 
0.25098 0.65098 0.4 0.25098 0.65098 0.4 
0.25098 0.65098 0.4 0.25098 0.65098 0.4 
0.25098 0.65098 0.4 0.25098 0.65098 0.4 
0.25098 0.65098 0.4 0.25098 0.65098 0.4 
0.25098 0.65098 0.4 0.25098 0.65098 0.4 
0.25098 0.65098 0.4 0.25098 0.65098 0.4 
0.25098 0.65098 0.4 0.25098 0.65098 0.4 
0.25098 0.65098 0.4 0.25098 0.65098 0.4 
0.25098 0.65098 0.4 0.25098 0.65098 0.4 
0.25098 0.65098 0.4 0.25098 0.65098 0.4 
0.25098 0.65098 0.4 0.25098 0.65098 0.4 
0.25098 0.65098 0.4 0.25098 0.65098 0.4 
0.25098 0.65098 0.4 0.25098 0.65098 0.4 
0.25098 0.65098 0.4 0.25098 0.65098 0.4 
0.25098 0.65098 0.4 0.25098 0.65098 0.4 
0.25098 0.65098 0.4 0.25098 0.65098 0.4 
0.25098 0.65098 0.4 0.25098 0.65098 0.4 
0.25098 0.65098 0.4 0.25098 0.65098 0.4 
0.25098 0.65098 0.4 0.25098 0.65098 0.4 
0.25098 0.65098 0.4 0.25098 0.65098 0.4 
0.25098 0.65098 0.4 0.25098 0.65098 0.4 
0.25098 0.65098 0.4 0.25098 0.65098 0.4 
0.25098 0.65098 0.4 0.25098 0.65098 0.4 
0.25098 0.65098 0.4 0.25098 0.65098 0.4 
0.25098 0.65098 0.4 0.25098 0.65098 0.4 
0.25098 0.65098 0.4 0.25098 0.65098 0.4 
0.25098 0.65098 0.4 0.25098 0.65098 0.4 
0.25098 0.65098 0.4 0.25098 0.65098 0.4 
0.25098 0.65098 0.4 0.25098 0.65098 0.4 
0.25098 0.65098 0.4 0.25098 0.65098 0.4 
0.25098 0.65098 0.4 0.25098 0.65098 0.4 
0.25098 0.65098 0.4 0.25098 0.65098 0.4 
0.25098 0.65098 0.4 0.25098 0.65098 0.4 
0.25098 0.65098 0.4 0.25098 0.65098 0.4 
0.25098 0.65098 0.4 0.25098 0.65098 0.4 
0.25098 0.65098 0.4 0.25098 0.65098 0.4 
0.25098 0.65098 0.4 0.25098 0.65098 0.4 
0.25098 0.65098 0.4 0.25098 0.65098 0.4 
0.25098 0.65098 0.4 0.25098 0.65098 0.4 
0.25098 0.65098 0.4 0.25098 0.65098 0.4 
0.25098 0.65098 0.4 0.25098 0.65098 0.4 
0.25098 0.65098 0.4 0.25098 0.65098 0.4 
0.25098 0.65098 0.4 0.25098 0.65098 0.4 
0.25098 0.65098 0.4 0.25098 0.65098 0.4 
0.25098 0.65098 0.4 0.25098 0.65098 0.4 
0.25098 0.65098 0.4 0.25098 0.65098 0.4 
0.25098 0.65098 0.4 0.25098 0.65098 0.4 
0.25098 0.65098 0.4 0.25098 0.65098 0.4 
0.25098 0.65098 0.4 0.25098 0.65098 0.4 
0.25098 0.65098 0.4 0.25098 0.65098 0.4 
0.25098 0.65098 0.4 0.25098 0.65098 0.4 
0.25098 0.65098 0.4 0.25098 0.65098 0.4 
0.25098 0.65098 0.4 0.25098 0.65098 0.4 
0.25098 0.65098 0.4 0.25098 0.65098 0.4 
0.25098 0.65098 0.4 0.25098 0.65098 0.4 
0.25098 0.65098 0.4 0.25098 0.65098 0.4 
0.25098 0.65098 0.4 0.25098 0.65098 0.4 
0.25098 0.65098 0.4 0.25098 0.65098 0.4 
0.25098 0.65098 0.4 0.25098 0.65098 0.4 
0.25098 0.65098 0.4 0.25098 0.65098 0.4 
0.25098 0.65098 0.4 0.25098 0.65098 0.4 
0.25098 0.65098 0.4 0.25098 0.65098 0.4 
0.25098 0.65098 0.4 0.25098 0.65098 0.4 
0.25098 0.65098 0.4 0.25098 0.65098 0.4 
0.25098 0.65098 0.4 0.25098 0.65098 0.4 
0.25098 0.65098 0.4 0.25098 0.65098 0.4 
0.25098 0.65098 0.4 0.25098 0.65098 0.4 
0.25098 0.65098 0.4 0.25098 0.65098 0.4 
0.25098 0.65098 0.4 0.25098 0.65098 0.4 
0.25098 0.65098 0.4 0.25098 0.65098 0.4 
0.25098 0.65098 0.4 0.25098 0.65098 0.4 
0.25098 0.65098 0.4 0.25098 0.65098 0.4 
0.25098 0.65098 0.4 0.25098 0.65098 0.4 
0.25098 0.65098 0.4 0.25098 0.65098 0.4 
0.25098 0.65098 0.4 0.25098 0.65098 0.4 
0.25098 0.65098 0.4 0.25098 0.65098 0.4 
0.25098 0.65098 0.4 0.25098 0.65098 0.4 
0.25098 0.65098 0.4 0.25098 0.65098 0.4 
0.25098 0.65098 0.4 0.25098 0.65098 0.4 
0.25098 0.65098 0.4 0.25098 0.65098 0.4 
0.25098 0.65098 0.4 0.25098 0.65098 0.4 