# vtk DataFile Version 4.2
vtk output
ASCII
DATASET POLYDATA
POINTS 737 float
200.028 239.178 126.663 199.93 239.049 126.655 199.834 239.194 126.661 
200.148 239.143 126.798 200.166 238.929 126.972 199.972 239.356 126.672 
200.012 239.485 126.748 200.114 239.352 126.776 200.109 239.655 126.981 
199.986 238.761 126.896 199.791 238.523 127.011 199.765 239.56 126.773 
200.246 240.319 127.541 197.354 237.418 128.129 197.094 237.877 127.781 
199.483 238.215 127.23 199.833 238.287 127.267 199.981 238.184 127.576 
196.451 238.557 127.603 197.88 238.521 127.291 196.271 238.962 127.564 
200.487 238.855 127.879 200.613 239.336 128.026 197.44 240.398 127.318 
200.669 239.83 128.199 200.021 240.859 127.696 199.441 241.903 127.856 
199.781 242.201 128.151 200.137 242.079 128.412 195.988 237.729 128.18 
196.551 237.158 128.549 199.332 237.5 128.152 200.409 238.383 128.314 
194.803 239.773 128.112 198.509 243.048 128.154 199.385 242.477 128.098 
200.785 241.504 129.151 198.918 243.295 128.292 199.148 243.667 128.519 
199.401 243.213 128.418 193.281 236.976 129.635 196.94 236.67 129.12 
198.893 236.868 128.954 192.559 237.77 129.379 192.677 237.213 129.637 
200.546 238.314 129.049 191.574 239.097 129.476 192.857 239.198 128.957 
201.032 240.303 129.542 199.243 244.232 128.875 198.875 245.79 129.468 
191.93 236.488 130.576 194.491 235.936 130.735 199.848 237.292 129.2 
201.124 239.703 130.224 189.517 236.295 131.626 189.181 236.652 131.442 
199.211 236.512 130.444 188.163 237.079 131.619 189.225 237.236 131.093 
200.481 237.697 130.543 200.832 238.33 130.76 187.922 239.616 131.22 
197.548 247.807 130.182 197.593 250.489 131.126 198.995 250.876 131.525 
191.626 235.124 132.949 193.242 235.107 132.635 187.115 236.56 132.421 
186.599 236.834 132.484 200.643 251.349 133.293 199.334 253.247 132.976 
184.918 235.538 134.076 186.609 235.196 134.193 184.917 237.292 133.046 
184.758 238.167 132.892 184.542 238.804 132.911 184.626 239.558 132.87 
201.582 240.85 133.06 197.819 255.273 134.092 199.917 254.502 134.535 
182.878 236.382 134.218 193.007 252.99 133.509 196.499 255.433 134.195 
198.673 255.82 134.985 191.197 234.488 135.341 180.558 237.964 135.041 
189.184 252.805 135.025 201.064 252.998 135.595 199.596 255.829 135.716 
198.861 256.502 136.072 199.496 256.183 136.174 181.013 235.056 136.274 
183.792 234.421 136.39 180.013 235.686 136.25 185.102 250.698 135.693 
192.484 255.693 135.705 199.971 256.033 136.84 178.939 235.289 137.494 
180.487 234.722 137.437 183.659 234.144 137.809 178.068 235.973 137.432 
197.754 234.903 136.426 199.312 235.56 136.29 178.133 236.492 137.123 
178.781 236.462 136.669 182.051 248.067 136.198 198.399 257.301 137.213 
199.043 257.076 137.291 199.325 257.135 137.814 177.68 235.472 138.173 
178.034 235.194 138.255 199.778 235.843 136.739 201.065 237.586 137.502 
201.724 240.117 137.885 184.771 254.617 137.721 185.142 255.18 137.98 
191.824 257.035 137.448 193.334 257.742 138.004 175.234 237.427 139.281 
201.385 238.367 138.666 185.601 255.854 138.344 175.342 235.468 140.234 
174.727 235.894 140.357 178 251 139.396 194.567 259.075 140.696 
174.689 235.278 141.159 174.337 235.464 141.193 200.678 256.144 141.337 
175.925 234.444 142.134 183.661 259.221 142.006 189.89 259.342 141.39 
173.189 235.13 142.739 174.363 234.394 143.481 172.354 235.516 142.929 
200.396 256.672 144.32 169.306 244.576 145.031 171.248 252.575 144.98 
198.592 258.434 145.346 197.361 259.169 144.876 169.111 234.347 146.522 
167.776 235.967 146.951 168.359 237.068 145.864 188.052 261.722 145.909 
182.817 262.174 147.124 168.213 233.796 147.9 199.338 234.746 146.135 
167.73 234.55 147.507 182.144 233.961 147.123 168.141 242.229 146.837 
169.192 252.525 146.942 174.177 259.82 147.677 166.801 232.761 149.074 
166.804 232.786 149.111 166.841 232.855 149.074 168.025 233.132 149.119 
167.612 233.656 148.29 168.629 233.321 148.666 170.926 233.281 148.747 
167.166 234.094 148.35 167.015 234.25 148.557 167.171 235.187 148.191 
167.542 238.696 148.458 167.785 250.15 147.862 201.114 254.605 148.271 
171.929 258.434 148.185 191.617 261.251 147.351 166.865 232.834 149.187 
167.047 232.92 149.269 167.069 233.005 149.028 166.907 233.13 149.073 
167.501 233.031 149.363 167.013 233.843 148.689 166.901 234.757 149.11 
167.317 237.525 148.79 168.1 253.195 148.59 166.955 232.976 149.322 
167.254 233.156 149.661 166.953 233.266 149.356 167.708 233.102 149.85 
166.937 233.803 149.432 173.314 233.42 149.849 199.169 234.077 149.528 
200.482 234.941 149.871 166.952 235.274 149.611 167.716 243.348 150.735 
166.876 247.493 149.677 167.757 253.947 149.8 169.988 257.77 150.029 
197.256 258.956 149.849 167.358 233.868 150.375 200.104 234.395 150.361 
199.986 234.175 150.917 167.013 234.602 149.941 172.518 233.298 151.043 
200.719 235.034 150.818 201.564 237.311 150.889 166.831 247.745 150.241 
166.96 251.802 150.899 167.158 252.569 150.149 177.961 262.803 151.351 
167.644 233.556 150.515 170.416 233.299 151.698 200.453 234.521 151.655 
172.441 233.332 151.894 195.396 233.603 151.285 166.96 249.812 151.805 
167.011 250.772 151.919 168.089 255.318 151.993 169.233 257.311 152.209 
171.126 259.638 152.24 175.647 262.372 152.256 169.583 233.866 152.441 
170.354 233.619 152.509 200.176 234.168 152.303 169.091 239.987 153.355 
167.195 247.332 152.104 198.983 256.348 153.385 169.679 257.699 153.16 
192.053 261.167 152.289 169.185 234.544 152.845 169.635 234.297 153 
171.108 233.791 153.256 199.55 233.728 153.609 181.627 233.886 153.526 
169.328 237.58 153.553 201.684 247.094 153.857 201.048 252.043 153.892 
197.943 257.249 153.699 170.208 258.394 153.401 177.685 263.255 154.457 
171.159 234.192 153.833 172.36 233.918 153.938 198.947 233.561 153.694 
200.089 233.967 154.134 169.484 235.424 153.439 170.056 235.13 153.823 
170.636 234.884 154.107 175.747 234.205 154.379 201.373 238.421 154.527 
168.388 246.799 154.682 200.738 251.684 155.331 168.369 253.826 154.277 
199.817 254.248 154.777 170.817 258.648 154.284 172.372 260.503 153.968 
175.024 262.277 154.438 200.3 234.024 154.654 200.24 233.935 154.97 
199.164 233.776 155.118 176.6 234.585 155.202 178.775 234.444 155.381 
182.366 233.949 155.185 200.722 235.224 154.982 171.717 235.651 155.082 
173.147 235.319 155.485 171.047 236.644 155.033 196.853 257.066 155.799 
174.738 261.598 155.862 175.12 262.156 155.246 200.236 234.01 155.182 
200.03 233.876 155.113 200.329 234.27 155.277 181.005 234.669 156.552 
197.524 233.898 155.697 200.787 236.994 155.754 201.015 240.579 156.233 
198.561 254.406 156.88 179.56 263.555 157.504 180.827 263.758 157.295 
200.052 234.06 155.415 199.737 234.231 155.745 200.147 234.356 155.579 
182.564 234.885 157.576 184.104 234.103 157.387 192.465 233.719 157.262 
198.817 234.542 156.399 181.774 235.551 157.775 198.855 235.007 156.856 
199.155 235.416 156.974 199.658 235.677 156.755 200.389 237.744 156.639 
171.652 242.435 157.585 200.781 243.426 157.058 199.519 252.245 157.36 
177.69 262.741 157.619 184.822 234.2 158.217 185.85 234.015 158.774 
188.149 233.622 158.553 191.73 233.872 158.269 192.957 233.937 157.846 
193.326 234.168 158.217 193.898 234.375 158.245 183.242 235.199 158.191 
195.866 235.31 158.361 198.504 235.37 157.233 182.367 236.67 158.467 
198.008 237.878 158.772 198.558 237.781 158.404 182.406 239.31 159.033 
198.097 238.445 158.891 198.558 238.458 158.642 184.788 243.208 159.661 
200.281 245.464 157.802 198.937 251.375 158.511 196.439 254.84 158.433 
189.494 260.389 158.277 182.007 263.548 158.386 185.61 234.513 159.288 
186.092 234.241 159.334 189.653 234.009 159.091 193.456 234.475 158.57 
192.393 235.059 159.49 193.05 235.992 159.692 198.613 239.779 158.803 
195.081 241.115 159.865 199.883 240.801 158.032 172.938 245.286 159.509 
198.373 244.765 159.247 199.759 244.572 158.335 198.079 247.299 159.65 
199.018 247.881 159.051 173.011 251.759 160.157 188.975 258.209 160.166 
189.167 257.524 160.322 185.343 262.163 159.491 179.457 262.88 159.438 
186.126 234.64 159.629 186.468 234.356 159.691 187.221 234.01 159.536 
188.714 234.073 159.441 188.866 234.445 159.808 186.602 234.556 159.847 
186.929 234.625 159.966 188.364 234.838 160.063 188.501 234.561 159.959 
190.734 234.967 159.769 190.031 235.577 160.099 176.066 242.549 160.231 
196.653 247.948 160.079 194.688 250.699 160.293 189.128 254.907 160.867 
178.991 261.583 160.4 180.363 262.477 160.709 180.214 262.874 160.106 
187.682 234.147 159.75 175.725 249.039 161.807 176.732 257.203 161.341 
179.872 261.699 160.988 180.89 262.786 160.621 183.021 262.553 160.758 
177.3 247.544 161.992 180.197 260.493 161.835 183.769 259.773 162.425 
184.051 260.13 162.2 182.046 261.298 161.979 183.557 261.861 161.337 
176.975 253.086 162.612 182.415 253.009 162.945 181.439 255.316 163.425 
178.278 256.899 162.469 181.866 258.853 162.904 183.346 260.966 162.015 
180.672 254.493 163.417 179.095 255.539 163.085 180.625 256.065 163.328 
178.782 253.683 291.686 180.738 254.42 291.504 178.339 254.841 291.812 
177.159 250.356 292.428 180.222 252.307 291.864 183.012 252.937 292.223 
180.196 259.174 292.586 181.922 259.685 292.433 181.897 261.097 293.006 
182.674 261.694 293.36 177.362 248.447 292.826 178.205 248.209 292.788 
179.652 248.409 292.79 175.515 252.093 292.905 185.213 252.679 292.964 
179.162 259.69 293.366 184.822 259.728 292.969 184.186 261.516 293.519 
182.316 262.779 294.522 187.634 234.18 295.351 187.192 234.363 295.383 
188.737 234.08 295.273 189.218 233.978 295.468 189.679 234.193 295.336 
187.495 234.467 295.193 187.703 234.735 295.071 187.963 234.415 295.122 
189.17 234.541 295.023 174.703 246.607 294.093 179.601 261.644 294.313 
180.627 262.936 295.219 184.502 262.188 294.589 187.681 233.745 296.079 
190.057 233.956 295.782 191.142 234.116 295.862 192.278 234.556 295.65 
192.704 234.415 295.914 190.574 235.107 295.039 187.79 235.327 295.018 
197.179 246.539 295.154 199.331 248.378 296.333 196.456 249.723 295.024 
197.867 249.519 295.504 199.268 249.314 296.381 173.197 251.088 294.675 
[...]
POINT_DATA 737
COLOR_SCALARS scalars 3
0.501961 0.803922 0.972549 0.501961 0.803922 0.972549 0.501961 0.803922 0.972549 
0.501961 0.803922 0.972549 0.501961 0.803922 0.972549 
0.501961 0.803922 0.972549 0.501961 0.803922 0.972549 
0.501961 0.803922 0.972549 0.501961 0.803922 0.972549 
0.501961 0.803922 0.972549 0.501961 0.803922 0.972549 
0.501961 0.803922 0.972549 0.501961 0.803922 0.972549 
0.501961 0.803922 0.972549 0.501961 0.803922 0.972549 
0.501961 0.803922 0.972549 0.501961 0.803922 0.972549 
0.501961 0.803922 0.972549 0.501961 0.803922 0.972549 
0.501961 0.803922 0.972549 0.501961 0.803922 0.972549 
0.501961 0.803922 0.972549 0.501961 0.803922 0.972549 
0.501961 0.803922 0.972549 0.501961 0.803922 0.972549 
0.501961 0.803922 0.972549 0.501961 0.803922 0.972549 
0.501961 0.803922 0.972549 0.501961 0.803922 0.972549 
0.501961 0.803922 0.972549 0.501961 0.803922 0.972549 
0.501961 0.803922 0.972549 0.501961 0.803922 0.972549 
0.501961 0.803922 0.972549 0.501961 0.803922 0.972549 
0.501961 0.803922 0.972549 0.501961 0.803922 0.972549 
0.501961 0.803922 0.972549 0.501961 0.803922 0.972549 
0.501961 0.803922 0.972549 0.501961 0.803922 0.972549 
0.501961 0.803922 0.972549 0.501961 0.803922 0.972549 
0.501961 0.803922 0.972549 0.501961 0.803922 0.972549 
0.501961 0.803922 0.972549 0.501961 0.803922 0.972549 
0.501961 0.803922 0.972549 0.501961 0.803922 0.972549 
0.501961 0.803922 0.972549 0.501961 0.803922 0.972549 
0.501961 0.803922 0.972549 0.501961 0.803922 0.972549 
0.501961 0.803922 0.972549 0.501961 0.803922 0.972549 
0.501961 0.803922 0.972549 0.501961 0.803922 0.972549 
0.501961 0.803922 0.972549 0.501961 0.803922 0.972549 
0.501961 0.803922 0.972549 0.501961 0.803922 0.972549 
0.501961 0.803922 0.972549 0.501961 0.803922 0.972549 
0.501961 0.803922 0.972549 0.501961 0.803922 0.972549 
0.501961 0.803922 0.972549 0.501961 0.803922 0.972549 
0.501961 0.803922 0.972549 0.501961 0.803922 0.972549 
0.501961 0.803922 0.972549 0.501961 0.803922 0.972549 
0.501961 0.803922 0.972549 0.501961 0.803922 0.972549 
0.501961 0.803922 0.972549 0.501961 0.803922 0.972549 
0.501961 0.803922 0.972549 0.501961 0.803922 0.972549 
0.501961 0.803922 0.972549 0.501961 0.803922 0.972549 
0.501961 0.803922 0.972549 0.501961 0.803922 0.972549 
0.501961 0.803922 0.972549 0.501961 0.803922 0.972549 
0.501961 0.803922 0.972549 0.501961 0.803922 0.972549 
0.501961 0.803922 0.972549 0.501961 0.803922 0.972549 
0.501961 0.803922 0.972549 0.501961 0.803922 0.972549 
0.501961 0.803922 0.972549 0.501961 0.803922 0.972549 
0.501961 0.803922 0.972549 0.501961 0.803922 0.972549 
0.501961 0.803922 0.972549 0.501961 0.803922 0.972549 
0.501961 0.803922 0.972549 0.501961 0.803922 0.972549 
0.501961 0.803922 0.972549 0.501961 0.803922 0.972549 
0.501961 0.803922 0.972549 0.501961 0.803922 0.972549 
0.501961 0.803922 0.972549 0.501961 0.803922 0.972549 
0.501961 0.803922 0.972549 0.501961 0.803922 0.972549 
0.501961 0.803922 0.972549 0.501961 0.803922 0.972549 
0.501961 0.803922 0.972549 0.501961 0.803922 0.972549 
0.501961 0.803922 0.972549 0.501961 0.803922 0.972549 
0.501961 0.803922 0.972549 0.501961 0.803922 0.972549 
0.501961 0.803922 0.972549 0.501961 0.803922 0.972549 
0.501961 0.803922 0.972549 0.501961 0.803922 0.972549 
0.501961 0.803922 0.972549 0.501961 0.803922 0.972549 
0.501961 0.803922 0.972549 0.501961 0.803922 0.972549 
0.501961 0.803922 0.972549 0.501961 0.803922 0.972549 
0.501961 0.803922 0.972549 0.501961 0.803922 0.972549 
0.501961 0.803922 0.972549 0.501961 0.803922 0.972549 
0.501961 0.803922 0.972549 0.501961 0.803922 0.972549 
0.501961 0.803922 0.972549 0.501961 0.803922 0.972549 
0.501961 0.803922 0.972549 0.501961 0.803922 0.972549 
0.501961 0.803922 0.972549 0.501961 0.803922 0.972549 
0.501961 0.803922 0.972549 0.501961 0.803922 0.972549 
0.501961 0.803922 0.972549 0.501961 0.803922 0.972549 
0.501961 0.803922 0.972549 0.501961 0.803922 0.972549 
0.501961 0.803922 0.972549 0.501961 0.803922 0.972549 
0.501961 0.803922 0.972549 0.501961 0.803922 0.972549 
0.501961 0.803922 0.972549 0.501961 0.803922 0.972549 
0.501961 0.803922 0.972549 0.501961 0.803922 0.972549 
0.501961 0.803922 0.972549 0.501961 0.803922 0.972549 
0.501961 0.803922 0.972549 0.501961 0.803922 0.972549 
0.501961 0.803922 0.972549 0.501961 0.803922 0.972549 
0.501961 0.803922 0.972549 0.501961 0.803922 0.972549 
0.501961 0.803922 0.972549 0.501961 0.803922 0.972549 
0.501961 0.803922 0.972549 0.501961 0.803922 0.972549 
0.501961 0.803922 0.972549 0.501961 0.803922 0.972549 
0.501961 0.803922 0.972549 0.501961 0.803922 0.972549 
0.501961 0.803922 0.972549 0.501961 0.803922 0.972549 
0.501961 0.803922 0.972549 0.501961 0.803922 0.972549 
0.501961 0.803922 0.972549 0.501961 0.803922 0.972549 
0.501961 0.803922 0.972549 0.501961 0.803922 0.972549 
0.501961 0.803922 0.972549 0.501961 0.803922 0.972549 
0.501961 0.803922 0.972549 0.501961 0.803922 0.972549 
0.501961 0.803922 0.972549 0.501961 0.803922 0.972549 
0.501961 0.803922 0.972549 0.501961 0.803922 0.972549 
0.501961 0.803922 0.972549 0.501961 0.803922 0.972549 
0.501961 0.803922 0.972549 0.501961 0.803922 0.972549 
0.501961 0.803922 0.972549 0.501961 0.803922 0.972549 
0.501961 0.803922 0.972549 0.501961 0.803922 0.972549 
0.501961 0.803922 0.972549 0.501961 0.803922 0.972549 
0.501961 0.803922 0.972549 0.501961 0.803922 0.972549 
0.501961 0.803922 0.972549 0.501961 0.803922 0.972549 
0.501961 0.803922 0.972549 0.501961 0.803922 0.972549 
0.501961 0.803922 0.972549 0.501961 0.803922 0.972549 
0.501961 0.803922 0.972549 0.501961 0.803922 0.972549 
0.501961 0.803922 0.972549 0.501961 0.803922 0.972549 
0.501961 0.803922 0.972549 0.501961 0.803922 0.972549 
0.501961 0.803922 0.972549 0.501961 0.803922 0.972549 
0.501961 0.803922 0.972549 0.501961 0.803922 0.972549 
0.501961 0.803922 0.972549 0.501961 0.803922 0.972549 
0.501961 0.803922 0.972549 0.501961 0.803922 0.972549 
0.501961 0.803922 0.972549 0.501961 0.803922 0.972549 
0.501961 0.803922 0.972549 0.501961 0.803922 0.972549 
0.501961 0.803922 0.972549 0.501961 0.803922 0.972549 
0.501961 0.803922 0.972549 0.501961 0.803922 0.972549 
0.501961 0.803922 0.972549 0.501961 0.803922 0.972549 
0.501961 0.803922 0.972549 0.501961 0.803922 0.972549 
0.501961 0.803922 0.972549 0.501961 0.803922 0.972549 
0.501961 0.803922 0.972549 0.501961 0.803922 0.972549 
0.501961 0.803922 0.972549 0.501961 0.803922 0.972549 
0.501961 0.803922 0.972549 0.501961 0.803922 0.972549 
0.501961 0.803922 0.972549 0.501961 0.803922 0.972549 
0.501961 0.803922 0.972549 0.501961 0.803922 0.972549 
0.501961 0.803922 0.972549 0.501961 0.803922 0.972549 
0.501961 0.803922 0.972549 0.501961 0.803922 0.972549 
0.501961 0.803922 0.972549 0.501961 0.803922 0.972549 
0.501961 0.803922 0.972549 0.501961 0.803922 0.972549 
0.501961 0.803922 0.972549 0.501961 0.803922 0.972549 
0.501961 0.803922 0.972549 0.501961 0.803922 0.972549 
0.501961 0.803922 0.972549 0.501961 0.803922 0.972549 
0.501961 0.803922 0.972549 0.501961 0.803922 0.972549 
0.501961 0.803922 0.972549 0.501961 0.803922 0.972549 
0.501961 0.803922 0.972549 0.501961 0.803922 0.972549 
0.501961 0.803922 0.972549 0.501961 0.803922 0.972549 
0.501961 0.803922 0.972549 0.501961 0.803922 0.972549 
0.501961 0.803922 0.972549 0.501961 0.803922 0.972549 
0.501961 0.803922 0.972549 0.501961 0.803922 0.972549 
0.501961 0.803922 0.972549 0.501961 0.803922 0.972549 
0.501961 0.803922 0.972549 0.501961 0.803922 0.972549 
0.501961 0.803922 0.972549 0.501961 0.803922 0.972549 
0.501961 0.803922 0.972549 0.501961 0.803922 0.972549 
0.501961 0.803922 0.972549 0.501961 0.803922 0.972549 
0.501961 0.803922 0.972549 0.501961 0.803922 0.972549 
0.501961 0.803922 0.972549 0.501961 0.803922 0.972549 
0.501961 0.803922 0.972549 0.501961 0.803922 0.972549 
0.501961 0.803922 0.972549 0.501961 0.803922 0.972549 
0.501961 0.803922 0.972549 0.501961 0.803922 0.972549 
0.501961 0.803922 0.972549 0.501961 0.803922 0.972549 
0.501961 0.803922 0.972549 0.501961 0.803922 0.972549 
0.501961 0.803922 0.972549 0.501961 0.803922 0.972549 
0.501961 0.803922 0.972549 0.501961 0.803922 0.972549 
0.501961 0.803922 0.972549 0.501961 0.803922 0.972549 
0.501961 0.803922 0.972549 0.501961 0.803922 0.972549 
0.501961 0.803922 0.972549 0.501961 0.803922 0.972549 
0.501961 0.803922 0.972549 0.501961 0.803922 0.972549 
0.501961 0.803922 0.972549 0.501961 0.803922 0.972549 
0.501961 0.803922 0.972549 0.501961 0.803922 0.972549 
0.501961 0.803922 0.972549 0.501961 0.803922 0.972549 
0.501961 0.803922 0.972549 0.501961 0.803922 0.972549 
0.501961 0.803922 0.972549 0.501961 0.803922 0.972549 
0.501961 0.803922 0.972549 0.501961 0.803922 0.972549 
0.501961 0.803922 0.972549 0.501961 0.803922 0.972549 
0.501961 0.803922 0.972549 0.501961 0.803922 0.972549 
0.501961 0.803922 0.972549 0.501961 0.803922 0.972549 
0.501961 0.803922 0.972549 0.501961 0.803922 0.972549 
0.501961 0.803922 0.972549 0.501961 0.803922 0.972549 
0.501961 0.803922 0.972549 0.501961 0.803922 0.972549 
0.501961 0.803922 0.972549 0.501961 0.803922 0.972549 
0.501961 0.803922 0.972549 0.501961 0.803922 0.972549 
0.501961 0.803922 0.972549 0.501961 0.803922 0.972549 
0.501961 0.803922 0.972549 0.501961 0.803922 0.972549 
0.501961 0.803922 0.972549 0.501961 0.803922 0.972549 
0.501961 0.803922 0.972549 0.501961 0.803922 0.972549 
0.501961 0.803922 0.972549 0.501961 0.803922 0.972549 
0.501961 0.803922 0.972549 0.501961 0.803922 0.972549 
0.501961 0.803922 0.972549 0.501961 0.803922 0.972549 
0.501961 0.803922 0.972549 0.501961 0.803922 0.972549 
0.501961 0.803922 0.972549 0.501961 0.803922 0.972549 
0.501961 0.803922 0.972549 0.501961 0.803922 0.972549 
0.501961 0.803922 0.972549 0.501961 0.803922 0.972549 
0.501961 0.803922 0.972549 0.501961 0.803922 0.972549 
0.501961 0.803922 0.972549 0.501961 0.803922 0.972549 
0.501961 0.803922 0.972549 0.501961 0.803922 0.972549 
0.501961 0.803922 0.972549 0.501961 0.803922 0.972549 
0.501961 0.803922 0.972549 0.501961 0.803922 0.972549 
0.501961 0.803922 0.972549 0.501961 0.803922 0.972549 
0.501961 0.803922 0.972549 0.501961 0.803922 0.972549 
0.501961 0.803922 0.972549 0.501961 0.803922 0.972549 
0.501961 0.803922 0.972549 0.501961 0.803922 0.972549 
0.501961 0.803922 0.972549 0.501961 0.803922 0.972549 
0.501961 0.803922 0.972549 0.501961 0.803922 0.972549 
0.501961 0.803922 0.972549 0.501961 0.803922 0.972549 
0.501961 0.803922 0.972549 0.501961 0.803922 0.972549 
0.501961 0.803922 0.972549 0.501961 0.803922 0.972549 
0.501961 0.803922 0.972549 0.501961 0.803922 0.972549 
0.501961 0.803922 0.972549 0.501961 0.803922 0.972549 
0.501961 0.803922 0.972549 0.501961 0.803922 0.972549 
0.501961 0.803922 0.972549 0.501961 0.803922 0.972549 
0.501961 0.803922 0.972549 0.501961 0.803922 0.972549 
0.501961 0.803922 0.972549 0.501961 0.803922 0.972549 
0.501961 0.803922 0.972549 0.501961 0.803922 0.972549 
0.501961 0.803922 0.972549 0.501961 0.803922 0.972549 
0.501961 0.803922 0.972549 0.501961 0.803922 0.972549 
0.501961 0.803922 0.972549 0.501961 0.803922 0.972549 
0.501961 0.803922 0.972549 0.501961 0.803922 0.972549 
0.501961 0.803922 0.972549 0.501961 0.803922 0.972549 
0.501961 0.803922 0.972549 0.501961 0.803922 0.972549 
0.501961 0.803922 0.972549 0.501961 0.803922 0.972549 
0.501961 0.803922 0.972549 0.501961 0.803922 0.972549 
0.501961 0.803922 0.972549 0.501961 0.803922 0.972549 
0.501961 0.803922 0.972549 0.501961 0.803922 0.972549 
0.501961 0.803922 0.972549 0.501961 0.803922 0.972549 
0.501961 0.803922 0.972549 0.501961 0.803922 0.972549 
0.501961 0.803922 0.972549 0.501961 0.803922 0.972549 
0.501961 0.803922 0.972549 0.501961 0.803922 0.972549 
0.501961 0.803922 0.972549 0.501961 0.803922 0.972549 
0.501961 0.803922 0.972549 0.501961 0.803922 0.972549 
0.501961 0.803922 0.972549 0.501961 0.803922 0.972549 
0.501961 0.803922 0.972549 0.501961 0.803922 0.972549 
0.501961 0.803922 0.972549 0.501961 0.803922 0.972549 
0.501961 0.803922 0.972549 0.501961 0.803922 0.972549 
0.501961 0.803922 0.972549 0.501961 0.803922 0.972549 
0.501961 0.803922 0.972549 0.501961 0.803922 0.972549 
0.501961 0.803922 0.972549 0.501961 0.803922 0.972549 
0.501961 0.803922 0.972549 0.501961 0.803922 0.972549 
0.501961 0.803922 0.972549 0.501961 0.803922 0.972549 
0.501961 0.803922 0.972549 0.501961 0.803922 0.972549 
0.501961 0.803922 0.972549 0.501961 0.803922 0.972549 
0.501961 0.803922 0.972549 0.501961 0.803922 0.972549 
0.501961 0.803922 0.972549 0.501961 0.803922 0.972549 
0.501961 0.803922 0.972549 0.501961 0.803922 0.972549 
0.501961 0.803922 0.972549 0.501961 0.803922 0.972549 
0.501961 0.803922 0.972549 0.501961 0.803922 0.972549 
0.501961 0.803922 0.972549 0.501961 0.803922 0.972549 
0.501961 0.803922 0.972549 0.501961 0.803922 0.972549 
0.501961 0.803922 0.972549 0.501961 0.803922 0.972549 
0.501961 0.803922 0.972549 0.501961 0.803922 0.972549 
0.501961 0.803922 0.972549 0.501961 0.803922 0.972549 
0.501961 0.803922 0.972549 0.501961 0.803922 0.972549 
0.501961 0.803922 0.972549 0.501961 0.803922 0.972549 
0.501961 0.803922 0.972549 0.501961 0.803922 0.972549 
0.501961 0.803922 0.972549 0.501961 0.803922 0.972549 
0.501961 0.803922 0.972549 0.501961 0.803922 0.972549 
0.501961 0.803922 0.972549 0.501961 0.803922 0.972549 
0.501961 0.803922 0.972549 0.501961 0.803922 0.972549 
0.501961 0.803922 0.972549 0.501961 0.803922 0.972549 
0.501961 0.803922 0.972549 0.501961 0.803922 0.972549 
0.501961 0.803922 0.972549 0.501961 0.803922 0.972549 
0.501961 0.803922 0.972549 0.501961 0.803922 0.972549 
0.501961 0.803922 0.972549 0.501961 0.803922 0.972549 
0.501961 0.803922 0.972549 0.501961 0.803922 0.972549 
0.501961 0.803922 0.972549 0.501961 0.803922 0.972549 
0.501961 0.803922 0.972549 0.501961 0.803922 0.972549 
0.501961 0.803922 0.972549 0.501961 0.803922 0.972549 
0.501961 0.803922 0.972549 0.501961 0.803922 0.972549 
0.501961 0.803922 0.972549 0.501961 0.803922 0.972549 
0.501961 0.803922 0.972549 0.501961 0.803922 0.972549 
0.501961 0.803922 0.972549 0.501961 0.803922 0.972549 
0.501961 0.803922 0.972549 0.501961 0.803922 0.972549 
0.501961 0.803922 0.972549 0.501961 0.803922 0.972549 
0.501961 0.803922 0.972549 0.501961 0.803922 0.972549 
0.501961 0.803922 0.972549 0.501961 0.803922 0.972549 
0.501961 0.803922 0.972549 0.501961 0.803922 0.972549 
0.501961 0.803922 0.972549 0.501961 0.803922 0.972549 
0.501961 0.803922 0.972549 0.501961 0.803922 0.972549 
0.501961 0.803922 0.972549 0.501961 0.803922 0.972549 
0.501961 0.803922 0.972549 0.501961 0.803922 0.972549 
0.501961 0.803922 0.972549 0.501961 0.803922 0.972549 
0.501961 0.803922 0.972549 0.501961 0.803922 0.972549 
0.501961 0.803922 0.972549 0.501961 0.803922 0.972549 
0.501961 0.803922 0.972549 0.501961 0.803922 0.972549 
0.501961 0.803922 0.972549 0.501961 0.803922 0.972549 
0.501961 0.803922 0.972549 0.501961 0.803922 0.972549 
0.501961 0.803922 0.972549 0.501961 0.803922 0.972549 
0.501961 0.803922 0.972549 0.501961 0.803922 0.972549 
0.501961 0.803922 0.972549 0.501961 0.803922 0.972549 
0.501961 0.803922 0.972549 0.501961 0.803922 0.972549 
0.501961 0.803922 0.972549 0.501961 0.803922 0.972549 
0.501961 0.803922 0.972549 0.501961 0.803922 0.972549 
0.501961 0.803922 0.972549 0.501961 0.803922 0.972549 
0.501961 0.803922 0.972549 0.501961 0.803922 0.972549 
0.501961 0.803922 0.972549 0.501961 0.803922 0.972549 
0.501961 0.803922 0.972549 0.501961 0.803922 0.972549 
0.501961 0.803922 0.972549 0.501961 0.803922 0.972549 
0.501961 0.803922 0.972549 0.501961 0.803922 0.972549 
0.501961 0.803922 0.972549 0.501961 0.803922 0.972549 
0.501961 0.803922 0.972549 0.501961 0.803922 0.972549 
0.501961 0.803922 0.972549 0.501961 0.803922 0.972549 
0.501961 0.803922 0.972549 0.501961 0.803922 0.972549 
0.501961 0.803922 0.972549 0.501961 0.803922 0.972549 
0.501961 0.803922 0.972549 0.501961 0.803922 0.972549 
0.501961 0.803922 0.972549 0.501961 0.803922 0.972549 
0.501961 0.803922 0.972549 0.501961 0.803922 0.972549 
0.501961 0.803922 0.972549 0.501961 0.803922 0.972549 
0.501961 0.803922 0.972549 0.501961 0.803922 0.972549 
0.501961 0.803922 0.972549 0.501961 0.803922 0.972549 
0.501961 0.803922 0.972549 0.501961 0.803922 0.972549 
0.501961 0.803922 0.972549 0.501961 0.803922 0.972549 
0.501961 0.803922 0.972549 0.501961 0.803922 0.972549 
0.501961 0.803922 0.972549 0.501961 0.803922 0.972549 
0.501961 0.803922 0.972549 0.501961 0.803922 0.972549 
0.501961 0.803922 0.972549 0.501961 0.803922 0.972549 
0.501961 0.803922 0.972549 0.501961 0.803922 0.972549 
0.501961 0.803922 0.972549 0.501961 0.803922 0.972549 
0.501961 0.803922 0.972549 0.501961 0.803922 0.972549 
0.501961 0.803922 0.972549 0.501961 0.803922 0.972549 
0.501961 0.803922 0.972549 0.501961 0.803922 0.972549 
0.501961 0.803922 0.972549 0.501961 0.803922 0.972549 
0.501961 0.803922 0.972549 0.501961 0.803922 0.972549 
0.501961 0.803922 0.972549 0.501961 0.803922 0.972549 
0.501961 0.803922 0.972549 0.501961 0.803922 0.972549 
0.501961 0.803922 0.972549 0.501961 0.803922 0.972549 
0.501961 0.803922 0.972549 0.501961 0.803922 0.972549 
0.501961 0.803922 0.972549 0.501961 0.803922 0.972549 
0.501961 0.803922 0.972549 0.501961 0.803922 0.972549 
0.501961 0.803922 0.972549 0.501961 0.803922 0.972549 
0.501961 0.803922 0.972549 0.501961 0.803922 0.972549 
0.501961 0.803922 0.972549 0.501961 0.803922 0.972549 
0.501961 0.803922 0.972549 0.501961 0.803922 0.972549 
0.501961 0.803922 0.972549 0.501961 0.803922 0.972549 
0.501961 0.803922 0.972549 0.501961 0.803922 0.972549 
0.501961 0.803922 0.972549 0.501961 0.803922 0.972549 
0.501961 0.803922 0.972549 0.501961 0.803922 0.972549 
0.501961 0.803922 0.972549 0.501961 0.803922 0.972549 
0.501961 0.803922 0.972549 0.501961 0.803922 0.972549 
0.501961 0.803922 0.972549 0.501961 0.803922 0.972549 
0.501961 0.803922 0.972549 0.501961 0.803922 0.972549 
0.501961 0.803922 0.972549 0.501961 0.803922 0.972549 
0.501961 0.803922 0.972549 0.501961 0.803922 0.972549 
0.501961 0.803922 0.972549 0.501961 0.803922 0.972549 
0.501961 0.803922 0.972549 0.501961 0.803922 0.972549 
0.501961 0.803922 0.972549 0.501961 0.803922 0.972549 
0.501961 0.803922 0.972549 0.501961 0.803922 0.972549 
0.501961 0.803922 0.972549 0.501961 0.803922 0.972549 
0.501961 0.803922 0.972549 0.501961 0.803922 0.972549 
0.501961 0.803922 0.972549 0.501961 0.803922 0.972549 
0.501961 0.803922 0.972549 0.501961 0.803922 0.972549 
0.501961 0.803922 0.972549 0.501961 0.803922 0.972549 
0.501961 0.803922 0.972549 0.501961 0.803922 0.972549 
0.501961 0.803922 0.972549 0.501961 0.803922 0.972549 
0.501961 0.803922 0.972549 0.501961 0.803922 0.972549 
0.501961 0.803922 0.972549 0.501961 0.803922 0.972549 
0.501961 0.803922 0.972549 0.501961 0.803922 0.972549 
0.501961 0.803922 0.972549 0.501961 0.803922 0.972549 
0.501961 0.803922 0.972549 0.501961 0.803922 0.972549 
0.501961 0.803922 0.972549 0.501961 0.803922 0.972549 
0.501961 0.803922 0.972549 0.501961 0.803922 0.972549 
0.501961 0.803922 0.972549 0.501961 0.803922 0.972549 
0.501961 0.803922 0.972549 0.501961 0.803922 0.972549 
0.501961 0.803922 0.972549 0.501961 0.803922 0.972549 
0.501961 0.803922 0.972549 0.501961 0.803922 0.972549 
0.501961 0.803922 0.972549 0.501961 0.803922 0.972549 
0.501961 0.803922 0.972549 0.501961 0.803922 0.972549 
0.501961 0.803922 0.972549 0.501961 0.803922 0.972549 
0.501961 0.803922 0.972549 0.501961 0.803922 0.972549 
0.501961 0.803922 0.972549 0.501961 0.803922 0.972549 
0.501961 0.803922 0.972549 0.501961 0.803922 0.972549 
0.501961 0.803922 0.972549 0.501961 0.803922 0.972549 
0.501961 0.803922 0.972549 0.501961 0.803922 0.972549 
0.501961 0.803922 0.972549 0.501961 0.803922 0.972549 
0.501961 0.803922 0.972549 0.501961 0.803922 0.972549 
0.501961 0.803922 0.972549 0.501961 0.803922 0.972549 
0.501961 0.803922 0.972549 0.501961 0.803922 0.972549 
0.501961 0.803922 0.972549 0.501961 0.803922 0.972549 
0.501961 0.803922 0.972549 0.501961 0.803922 0.972549 
0.501961 0.803922 0.972549 0.501961 0.803922 0.972549 
0.501961 0.803922 0.972549 0.501961 0.803922 0.972549 