# vtk DataFile Version 4.2
vtk output
ASCII
DATASET POLYDATA
POINTS 1097 float
166.759 240.248 148.947 166.521 239.878 148.933 166.537 241.596 148.99 
166.811 241.732 149.138 166.033 237.167 149.491 165.54 238.458 149.219 
166.544 238.439 149.243 165.554 240.284 149.027 167.465 240.234 149.41 
165.653 242.026 149.161 167.455 241.208 149.452 166.052 242.276 149.159 
166.187 242.852 149.385 165.062 232.151 150.663 165.098 234.867 150.056 
164.516 236.407 149.864 166.126 236.507 149.793 166.765 237.721 149.559 
167.631 239.92 149.625 165.121 241.671 149.292 164.765 244.025 149.945 
166.37 243.68 149.811 165.115 244.426 149.975 165.731 244.478 149.992 
166.064 245.185 150.304 164.32 230.719 151.31 164.217 230.583 151.355 
164.37 231.127 151.13 163.848 231.013 151.245 163.809 231.575 150.983 
164.061 233.556 150.439 166.032 234.689 150.312 164.065 243.201 150.089 
166.83 244.51 150.416 165.014 246.466 150.707 165.549 246.343 150.663 
161.777 228.463 152.826 161.791 228.371 152.893 161.642 228.343 152.936 
161.96 228.565 152.846 161.748 228.665 152.79 162.779 230.082 152.012 
164.135 230.508 151.44 163.911 230.338 151.724 164.596 230.38 151.97 
165.946 231.608 151.792 168.606 239.064 151.364 163.182 246.397 151.477 
166.356 247.264 151.4 164.264 249.45 151.81 165.346 248.362 151.437 
165.918 247.905 151.433 164.39 250.346 151.997 164.923 250.768 152.016 
164.703 251.895 152.323 165.033 252.097 152.323 160.369 226.774 153.926 
160.315 226.749 153.99 160.355 226.89 153.939 160.405 226.746 154.014 
160.462 226.87 153.921 161.214 227.765 153.444 160.894 227.932 153.455 
161.042 228.759 153.124 161.818 228.202 153.119 162.422 228.537 153.114 
162.247 229.275 152.553 161.679 229.749 152.558 164.153 229.808 152.449 
162.175 231.027 151.941 167.345 246.372 151.928 165.938 248.869 151.763 
166.49 249.362 152.198 163.994 251.327 152.421 165.907 253.377 152.84 
165.748 254.73 153.272 159 224.009 153.017 159 224.009 153.017 
159 224.009 153.017 159 224.009 153.017 159 224.009 153.017 
160.3 226.71 154.115 160.408 226.695 154.269 160.583 227.209 153.825 
160.27 227.139 154.051 160.667 226.905 154.086 160.448 227.546 153.8 
160.713 229.391 153.29 161.195 230.106 152.804 167.87 232.778 152.974 
167.156 247.935 152.357 163.236 252.564 153.474 164.442 254.24 153.436 
165.25 255.111 153.56 164.955 255.503 153.932 166.316 256.131 153.996 
168.245 257.139 154.662 167.13 257.347 154.56 159 224.009 153.017 
160.224 226.724 154.328 160.287 226.649 154.595 159.976 226.913 154.673 
163.096 253.395 154.02 166.349 257.529 154.79 169.566 257.583 155.213 
166.953 257.944 154.972 169.37 259.324 155.5 169.509 259.765 155.693 
159.29 226.778 155.667 159.343 227.685 155.145 170.243 236.351 154.082 
165.65 257.854 155.478 171.112 259.959 155.951 171.459 259.536 155.97 
171.66 260.625 156.231 170.377 261.059 156.471 172.11 261.632 156.752 
159.484 225.903 156.41 159.258 226.335 156.103 170.674 232.146 155.763 
172.496 233.56 156.267 173.83 234.16 156.889 172.48 237.556 156.018 
161.369 253.176 155.902 172.501 258.21 156.799 171.935 259.403 156.169 
172.599 260.606 156.401 170.463 261.49 156.842 173.624 261.421 157.045 
155.864 217.562 158.892 155.792 217.498 158.973 155.76 217.64 158.913 
155.902 217.49 158.97 155.748 217.91 158.93 155.92 217.98 158.882 
155.848 218.202 158.929 156.914 220.827 158.911 157.115 221.227 158.853 
158.847 226.005 156.876 161.222 225.508 156.98 171.513 231.331 156.914 
174.601 234.062 157.687 174.677 233.788 157.945 174.883 235.658 157.974 
169.67 247.573 155.667 172.43 262.446 157.6 175.857 263.054 158.704 
175.746 263.166 158.847 175.958 263.158 158.815 176.023 263.046 158.788 
176.186 263.239 159.107 155.69 217.578 159.033 155.862 217.452 159.094 
155.468 217.969 159.422 155.589 218.004 159.114 156.95 220.522 158.964 
157.623 220.83 159.006 158.643 224.703 157.818 157.78 225.161 158.153 
159.72 224.418 157.867 173.62 232.34 157.859 175.185 234.942 158.652 
175.792 261.097 158.233 175.679 262.713 158.561 175.083 263.123 158.744 
155.228 218.093 160.19 156.529 217.587 159.826 156.973 217.798 159.951 
155.503 218.272 159.303 156.821 218.659 159.347 155.572 218.753 159.362 
156.661 219.557 159.151 156.091 219.96 159.276 158.057 220.802 159.146 
156.042 221.384 159.413 157.859 222.414 158.728 171.507 229.355 158.963 
175.079 233.985 158.883 175.095 238.451 159.254 173.039 242.337 158.444 
177.398 260.034 159.742 171.005 262.887 158.993 177.627 262.515 159.619 
175.831 263.863 160.189 155.597 217.659 160.144 156.037 217.491 159.913 
156.897 217.495 160.205 156.746 217.48 160.184 157.013 217.603 160.192 
155.022 218.115 160.714 154.82 218.282 161.087 156.482 217.458 160.472 
154.921 218.835 160.458 158.222 219.849 159.636 161.708 224.514 158.277 
169.106 226.2 160.036 171.289 228.36 160.399 172.589 230.3 159.289 
175.384 235.548 159.599 175.335 237.677 160.115 173.853 242.026 159.644 
167.708 261.87 160.061 178.389 262.969 160.45 178.871 262.857 160.805 
156.982 217.534 160.485 156.893 217.467 161.083 154.517 218.739 161.506 
155.519 222.952 160.202 165.887 223.335 160.662 167.427 223.909 161.293 
169.893 226.652 160.629 170.489 227.174 161.103 174.975 233.551 159.899 
175.232 234.798 160.351 173.926 251.322 160.793 159.31 254.799 160.247 
174.897 255.533 160.643 178.814 261.516 160.582 179.192 263.008 161.239 
179.618 262.883 161.598 154.647 218.004 162.366 154.429 218.138 162.767 
158.356 218.029 161.527 154.426 218.247 162.383 159.633 218.504 162.249 
154.45 219.257 161.412 162.006 219.33 162.825 165.096 220.97 163.035 
162.344 221.073 160.927 166.43 222.355 162.407 167.621 223.571 162.44 
170.432 227.07 161.654 172.133 229.255 161.953 175.193 235.16 160.769 
174.14 242.071 161.739 174.179 244.799 161.916 174.511 251.073 161.909 
173.643 264.391 162.634 178.697 263.897 162.404 154.713 217.948 163.421 
154.472 218.095 163.171 160.338 218.548 163.089 163.225 219.806 162.877 
164.092 220.119 163.219 165.474 221.215 163.344 154.102 221.498 162.479 
168.104 224.247 163.196 154.129 225.231 162.535 174.197 245.341 163.483 
174.316 245.653 163.107 174.866 249.597 162.832 174.912 249.324 163.004 
174.878 249.63 163.152 174.724 251.213 162.69 177.674 257.324 162.901 
180.765 260.915 163.433 180.396 262.006 162.464 181.114 261.573 163.884 
180.645 262.435 162.943 181.122 262.254 163.893 180.506 262.869 162.953 
154.69 218.072 163.842 157.606 217.646 163.164 154.155 218.699 163.713 
160.357 218.48 164.208 163.372 219.661 163.807 165.488 221.301 164.612 
170.508 227.954 163.95 173.803 233.321 163.139 173.43 242.289 164.273 
174.771 249.792 163.671 176.559 255.859 163.772 180.198 259.637 163.909 
181.022 261.134 163.818 181.507 262.441 164.857 154.915 218.149 164.212 
155.433 217.973 164.208 156.072 217.828 164.1 154.699 218.558 164.567 
154.344 218.61 164.139 158.319 218.072 164.534 154.019 219.113 163.782 
161.253 218.904 164.998 162.686 219.409 164.797 164.64 220.631 164.907 
153.609 221.749 164.603 153.488 222.28 165.892 153.011 224.03 165.874 
173.904 247.192 165.058 174.685 253.199 165.627 180.897 260.219 165.549 
181.521 261.668 166.329 181.551 262.56 166.04 158.536 218.879 166.19 
156.844 219.295 166.626 156.298 219.813 166.932 162.963 220.221 166.671 
164.251 220.918 166.449 154.138 221.475 166.703 164.776 221.843 167.303 
165.994 222.982 166.787 150.744 230.229 167.217 172.106 234.914 166.26 
175.689 255.512 166.822 179.92 259.169 166.959 158.12 220.967 168.464 
181.232 261.365 167.862 181.397 261.875 167.805 153.942 223.119 168.746 
180.88 261.024 168.686 181.275 262.263 168.257 181.08 262.938 168.353 
163.018 221.571 168.689 162.63 221.761 169.111 164.844 223.483 169.4 
170.085 246.927 170.455 181.015 261.834 168.911 181.109 262.644 168.611 
179.393 264.003 169.255 162.302 222.746 170.497 152.754 224.677 170.076 
159.087 223.096 171.292 169.206 236.568 170.585 170.839 251.984 171.33 
179.753 261.003 170.568 180.392 263.045 169.716 177.9 264.288 170.297 
179.629 263.662 170.03 163.235 223.167 170.645 161.914 223.437 171.738 
167.628 233.153 171.801 172.081 254.497 171.583 176.431 258.519 171.57 
180.22 262.714 170.248 179.488 263.033 171.241 173.639 264.596 171.748 
162.893 223.937 172.121 148.313 229.302 172.701 175.918 258.888 172.753 
178.956 262.473 172.055 179.237 263.295 171.433 179.137 263.543 171.243 
178.728 263.688 171.405 164.079 225.284 173.048 165.04 227.217 173.615 
148.3 228.914 173.95 172.694 256.347 173.66 177.319 261.857 173.689 
178.308 262.682 172.694 178.52 263.441 171.983 157.813 224.798 174.661 
162.947 224.943 174.211 148.787 228.492 174.206 148.312 228.944 174.609 
164.616 233.479 175.169 163.958 233.681 175.706 166.315 240.809 174.776 
158.595 225.101 175.567 161.76 224.65 174.884 153.918 227.795 175.855 
148.136 229.496 175.874 146.686 230.942 176.109 163.588 231.426 176.264 
162.717 233.045 176.485 162.989 235.259 176.491 163.425 236.303 176.494 
147.922 249.616 175.411 176.136 262.922 174.538 175.626 263.081 174.879 
160.156 225.198 176.216 162.63 225.365 175.833 162.429 225.477 176.168 
159.036 225.782 176.42 159.509 225.574 176.435 158.143 226.441 176.4 
163.633 226.878 176.104 157.1 227.583 176.486 147.101 230.379 176.17 
163.752 229.27 176.559 146.626 230.877 176.451 146.804 230.751 176.53 
146.616 230.896 176.571 158.233 229.883 177.136 146.434 231.686 176.857 
162.724 230.544 177.115 161.814 231.303 177.169 159.799 232.387 177.247 
160.86 232.16 177.133 160.374 234.157 177.369 158.802 234.693 177.993 
165.78 247.157 177.873 172.897 258.489 176.55 175.355 262.034 175.602 
162.981 262.683 176.962 175.297 262.888 175.358 174.799 262.978 175.718 
175.055 263.269 175.167 168.855 264.195 176.947 161.944 225.482 176.366 
161.884 225.933 176.834 162.959 226.079 176.393 148.363 230.006 176.955 
146.635 231.034 176.706 146.952 230.941 176.966 148.356 230.438 177.484 
160.762 229.236 177.716 163.338 229.616 176.98 146.096 232.458 177.879 
148.13 251.309 177.722 172.686 259.053 177.477 173.792 260.913 177.202 
173.93 261.797 177.089 174.526 262.648 176.185 173.547 263.189 176.509 
[...]
POINT_DATA 1097
COLOR_SCALARS scalars 3
0.501961 0.803922 0.972549 0.501961 0.803922 0.972549 0.501961 0.803922 0.972549 
0.501961 0.803922 0.972549 0.501961 0.803922 0.972549 
0.501961 0.803922 0.972549 0.501961 0.803922 0.972549 
0.501961 0.803922 0.972549 0.501961 0.803922 0.972549 
0.501961 0.803922 0.972549 0.501961 0.803922 0.972549 
0.501961 0.803922 0.972549 0.501961 0.803922 0.972549 
0.501961 0.803922 0.972549 0.501961 0.803922 0.972549 
0.501961 0.803922 0.972549 0.501961 0.803922 0.972549 
0.501961 0.803922 0.972549 0.501961 0.803922 0.972549 
0.501961 0.803922 0.972549 0.501961 0.803922 0.972549 
0.501961 0.803922 0.972549 0.501961 0.803922 0.972549 
0.501961 0.803922 0.972549 0.501961 0.803922 0.972549 
0.501961 0.803922 0.972549 0.501961 0.803922 0.972549 
0.501961 0.803922 0.972549 0.501961 0.803922 0.972549 
0.501961 0.803922 0.972549 0.501961 0.803922 0.972549 
0.501961 0.803922 0.972549 0.501961 0.803922 0.972549 
0.501961 0.803922 0.972549 0.501961 0.803922 0.972549 
0.501961 0.803922 0.972549 0.501961 0.803922 0.972549 
0.501961 0.803922 0.972549 0.501961 0.803922 0.972549 
0.501961 0.803922 0.972549 0.501961 0.803922 0.972549 
0.501961 0.803922 0.972549 0.501961 0.803922 0.972549 
0.501961 0.803922 0.972549 0.501961 0.803922 0.972549 
0.501961 0.803922 0.972549 0.501961 0.803922 0.972549 
0.501961 0.803922 0.972549 0.501961 0.803922 0.972549 
0.501961 0.803922 0.972549 0.501961 0.803922 0.972549 
0.501961 0.803922 0.972549 0.501961 0.803922 0.972549 
0.501961 0.803922 0.972549 0.501961 0.803922 0.972549 
0.501961 0.803922 0.972549 0.501961 0.803922 0.972549 
0.501961 0.803922 0.972549 0.501961 0.803922 0.972549 
0.501961 0.803922 0.972549 0.501961 0.803922 0.972549 
0.501961 0.803922 0.972549 0.501961 0.803922 0.972549 
0.501961 0.803922 0.972549 0.501961 0.803922 0.972549 
0.501961 0.803922 0.972549 0.501961 0.803922 0.972549 
0.501961 0.803922 0.972549 0.501961 0.803922 0.972549 
0.501961 0.803922 0.972549 0.501961 0.803922 0.972549 
0.501961 0.803922 0.972549 0.501961 0.803922 0.972549 
0.501961 0.803922 0.972549 0.501961 0.803922 0.972549 
0.501961 0.803922 0.972549 0.501961 0.803922 0.972549 
0.501961 0.803922 0.972549 0.501961 0.803922 0.972549 
0.501961 0.803922 0.972549 0.501961 0.803922 0.972549 
0.501961 0.803922 0.972549 0.501961 0.803922 0.972549 
0.501961 0.803922 0.972549 0.501961 0.803922 0.972549 
0.501961 0.803922 0.972549 0.501961 0.803922 0.972549 
0.501961 0.803922 0.972549 0.501961 0.803922 0.972549 
0.501961 0.803922 0.972549 0.501961 0.803922 0.972549 
0.501961 0.803922 0.972549 0.501961 0.803922 0.972549 
0.501961 0.803922 0.972549 0.501961 0.803922 0.972549 
0.501961 0.803922 0.972549 0.501961 0.803922 0.972549 
0.501961 0.803922 0.972549 0.501961 0.803922 0.972549 
0.501961 0.803922 0.972549 0.501961 0.803922 0.972549 
0.501961 0.803922 0.972549 0.501961 0.803922 0.972549 
0.501961 0.803922 0.972549 0.501961 0.803922 0.972549 
0.501961 0.803922 0.972549 0.501961 0.803922 0.972549 
0.501961 0.803922 0.972549 0.501961 0.803922 0.972549 
0.501961 0.803922 0.972549 0.501961 0.803922 0.972549 
0.501961 0.803922 0.972549 0.501961 0.803922 0.972549 
0.501961 0.803922 0.972549 0.501961 0.803922 0.972549 
0.501961 0.803922 0.972549 0.501961 0.803922 0.972549 
0.501961 0.803922 0.972549 0.501961 0.803922 0.972549 
0.501961 0.803922 0.972549 0.501961 0.803922 0.972549 
0.501961 0.803922 0.972549 0.501961 0.803922 0.972549 
0.501961 0.803922 0.972549 0.501961 0.803922 0.972549 
0.501961 0.803922 0.972549 0.501961 0.803922 0.972549 
0.501961 0.803922 0.972549 0.501961 0.803922 0.972549 
0.501961 0.803922 0.972549 0.501961 0.803922 0.972549 
0.501961 0.803922 0.972549 0.501961 0.803922 0.972549 
0.501961 0.803922 0.972549 0.501961 0.803922 0.972549 
0.501961 0.803922 0.972549 0.501961 0.803922 0.972549 
0.501961 0.803922 0.972549 0.501961 0.803922 0.972549 
0.501961 0.803922 0.972549 0.501961 0.803922 0.972549 
0.501961 0.803922 0.972549 0.501961 0.803922 0.972549 
0.501961 0.803922 0.972549 0.501961 0.803922 0.972549 
0.501961 0.803922 0.972549 0.501961 0.803922 0.972549 
0.501961 0.803922 0.972549 0.501961 0.803922 0.972549 
0.501961 0.803922 0.972549 0.501961 0.803922 0.972549 
0.501961 0.803922 0.972549 0.501961 0.803922 0.972549 
0.501961 0.803922 0.972549 0.501961 0.803922 0.972549 
0.501961 0.803922 0.972549 0.501961 0.803922 0.972549 
0.501961 0.803922 0.972549 0.501961 0.803922 0.972549 
0.501961 0.803922 0.972549 0.501961 0.803922 0.972549 
0.501961 0.803922 0.972549 0.501961 0.803922 0.972549 
0.501961 0.803922 0.972549 0.501961 0.803922 0.972549 
0.501961 0.803922 0.972549 0.501961 0.803922 0.972549 
0.501961 0.803922 0.972549 0.501961 0.803922 0.972549 
0.501961 0.803922 0.972549 0.501961 0.803922 0.972549 
0.501961 0.803922 0.972549 0.501961 0.803922 0.972549 
0.501961 0.803922 0.972549 0.501961 0.803922 0.972549 
0.501961 0.803922 0.972549 0.501961 0.803922 0.972549 
0.501961 0.803922 0.972549 0.501961 0.803922 0.972549 
0.501961 0.803922 0.972549 0.501961 0.803922 0.972549 
0.501961 0.803922 0.972549 0.501961 0.803922 0.972549 
0.501961 0.803922 0.972549 0.501961 0.803922 0.972549 
0.501961 0.803922 0.972549 0.501961 0.803922 0.972549 
0.501961 0.803922 0.972549 0.501961 0.803922 0.972549 
0.501961 0.803922 0.972549 0.501961 0.803922 0.972549 
0.501961 0.803922 0.972549 0.501961 0.803922 0.972549 
0.501961 0.803922 0.972549 0.501961 0.803922 0.972549 
0.501961 0.803922 0.972549 0.501961 0.803922 0.972549 
0.501961 0.803922 0.972549 0.501961 0.803922 0.972549 
0.501961 0.803922 0.972549 0.501961 0.803922 0.972549 
0.501961 0.803922 0.972549 0.501961 0.803922 0.972549 
0.501961 0.803922 0.972549 0.501961 0.803922 0.972549 
0.501961 0.803922 0.972549 0.501961 0.803922 0.972549 
0.501961 0.803922 0.972549 0.501961 0.803922 0.972549 
0.501961 0.803922 0.972549 0.501961 0.803922 0.972549 
0.501961 0.803922 0.972549 0.501961 0.803922 0.972549 
0.501961 0.803922 0.972549 0.501961 0.803922 0.972549 
0.501961 0.803922 0.972549 0.501961 0.803922 0.972549 
0.501961 0.803922 0.972549 0.501961 0.803922 0.972549 
0.501961 0.803922 0.972549 0.501961 0.803922 0.972549 
0.501961 0.803922 0.972549 0.501961 0.803922 0.972549 
0.501961 0.803922 0.972549 0.501961 0.803922 0.972549 
0.501961 0.803922 0.972549 0.501961 0.803922 0.972549 
0.501961 0.803922 0.972549 0.501961 0.803922 0.972549 
0.501961 0.803922 0.972549 0.501961 0.803922 0.972549 
0.501961 0.803922 0.972549 0.501961 0.803922 0.972549 
0.501961 0.803922 0.972549 0.501961 0.803922 0.972549 
0.501961 0.803922 0.972549 0.501961 0.803922 0.972549 
0.501961 0.803922 0.972549 0.501961 0.803922 0.972549 
0.501961 0.803922 0.972549 0.501961 0.803922 0.972549 
0.501961 0.803922 0.972549 0.501961 0.803922 0.972549 
0.501961 0.803922 0.972549 0.501961 0.803922 0.972549 
0.501961 0.803922 0.972549 0.501961 0.803922 0.972549 
0.501961 0.803922 0.972549 0.501961 0.803922 0.972549 
0.501961 0.803922 0.972549 0.501961 0.803922 0.972549 
0.501961 0.803922 0.972549 0.501961 0.803922 0.972549 
0.501961 0.803922 0.972549 0.501961 0.803922 0.972549 
0.501961 0.803922 0.972549 0.501961 0.803922 0.972549 
0.501961 0.803922 0.972549 0.501961 0.803922 0.972549 
0.501961 0.803922 0.972549 0.501961 0.803922 0.972549 
0.501961 0.803922 0.972549 0.501961 0.803922 0.972549 
0.501961 0.803922 0.972549 0.501961 0.803922 0.972549 
0.501961 0.803922 0.972549 0.501961 0.803922 0.972549 
0.501961 0.803922 0.972549 0.501961 0.803922 0.972549 
0.501961 0.803922 0.972549 0.501961 0.803922 0.972549 
0.501961 0.803922 0.972549 0.501961 0.803922 0.972549 
0.501961 0.803922 0.972549 0.501961 0.803922 0.972549 
0.501961 0.803922 0.972549 0.501961 0.803922 0.972549 
0.501961 0.803922 0.972549 0.501961 0.803922 0.972549 
0.501961 0.803922 0.972549 0.501961 0.803922 0.972549 
0.501961 0.803922 0.972549 0.501961 0.803922 0.972549 
0.501961 0.803922 0.972549 0.501961 0.803922 0.972549 
0.501961 0.803922 0.972549 0.501961 0.803922 0.972549 
0.501961 0.803922 0.972549 0.501961 0.803922 0.972549 
0.501961 0.803922 0.972549 0.501961 0.803922 0.972549 
0.501961 0.803922 0.972549 0.501961 0.803922 0.972549 
0.501961 0.803922 0.972549 0.501961 0.803922 0.972549 
0.501961 0.803922 0.972549 0.501961 0.803922 0.972549 
0.501961 0.803922 0.972549 0.501961 0.803922 0.972549 
0.501961 0.803922 0.972549 0.501961 0.803922 0.972549 
0.501961 0.803922 0.972549 0.501961 0.803922 0.972549 
0.501961 0.803922 0.972549 0.501961 0.803922 0.972549 
0.501961 0.803922 0.972549 0.501961 0.803922 0.972549 
0.501961 0.803922 0.972549 0.501961 0.803922 0.972549 
0.501961 0.803922 0.972549 0.501961 0.803922 0.972549 
0.501961 0.803922 0.972549 0.501961 0.803922 0.972549 
0.501961 0.803922 0.972549 0.501961 0.803922 0.972549 
0.501961 0.803922 0.972549 0.501961 0.803922 0.972549 
0.501961 0.803922 0.972549 0.501961 0.803922 0.972549 
0.501961 0.803922 0.972549 0.501961 0.803922 0.972549 
0.501961 0.803922 0.972549 0.501961 0.803922 0.972549 
0.501961 0.803922 0.972549 0.501961 0.803922 0.972549 
0.501961 0.803922 0.972549 0.501961 0.803922 0.972549 
0.501961 0.803922 0.972549 0.501961 0.803922 0.972549 
0.501961 0.803922 0.972549 0.501961 0.803922 0.972549 
0.501961 0.803922 0.972549 0.501961 0.803922 0.972549 
0.501961 0.803922 0.972549 0.501961 0.803922 0.972549 
0.501961 0.803922 0.972549 0.501961 0.803922 0.972549 
0.501961 0.803922 0.972549 0.501961 0.803922 0.972549 
0.501961 0.803922 0.972549 0.501961 0.803922 0.972549 
0.501961 0.803922 0.972549 0.501961 0.803922 0.972549 
0.501961 0.803922 0.972549 0.501961 0.803922 0.972549 
0.501961 0.803922 0.972549 0.501961 0.803922 0.972549 
0.501961 0.803922 0.972549 0.501961 0.803922 0.972549 
0.501961 0.803922 0.972549 0.501961 0.803922 0.972549 
0.501961 0.803922 0.972549 0.501961 0.803922 0.972549 
0.501961 0.803922 0.972549 0.501961 0.803922 0.972549 
0.501961 0.803922 0.972549 0.501961 0.803922 0.972549 
0.501961 0.803922 0.972549 0.501961 0.803922 0.972549 
0.501961 0.803922 0.972549 0.501961 0.803922 0.972549 
0.501961 0.803922 0.972549 0.501961 0.803922 0.972549 
0.501961 0.803922 0.972549 0.501961 0.803922 0.972549 
0.501961 0.803922 0.972549 0.501961 0.803922 0.972549 
0.501961 0.803922 0.972549 0.501961 0.803922 0.972549 
0.501961 0.803922 0.972549 0.501961 0.803922 0.972549 
0.501961 0.803922 0.972549 0.501961 0.803922 0.972549 
0.501961 0.803922 0.972549 0.501961 0.803922 0.972549 
0.501961 0.803922 0.972549 0.501961 0.803922 0.972549 
0.501961 0.803922 0.972549 0.501961 0.803922 0.972549 
0.501961 0.803922 0.972549 0.501961 0.803922 0.972549 
0.501961 0.803922 0.972549 0.501961 0.803922 0.972549 
0.501961 0.803922 0.972549 0.501961 0.803922 0.972549 
0.501961 0.803922 0.972549 0.501961 0.803922 0.972549 
0.501961 0.803922 0.972549 0.501961 0.803922 0.972549 
0.501961 0.803922 0.972549 0.501961 0.803922 0.972549 
0.501961 0.803922 0.972549 0.501961 0.803922 0.972549 
0.501961 0.803922 0.972549 0.501961 0.803922 0.972549 
0.501961 0.803922 0.972549 0.501961 0.803922 0.972549 
0.501961 0.803922 0.972549 0.501961 0.803922 0.972549 
0.501961 0.803922 0.972549 0.501961 0.803922 0.972549 
0.501961 0.803922 0.972549 0.501961 0.803922 0.972549 
0.501961 0.803922 0.972549 0.501961 0.803922 0.972549 
0.501961 0.803922 0.972549 0.501961 0.803922 0.972549 
0.501961 0.803922 0.972549 0.501961 0.803922 0.972549 
0.501961 0.803922 0.972549 0.501961 0.803922 0.972549 
0.501961 0.803922 0.972549 0.501961 0.803922 0.972549 
0.501961 0.803922 0.972549 0.501961 0.803922 0.972549 
0.501961 0.803922 0.972549 0.501961 0.803922 0.972549 
0.501961 0.803922 0.972549 0.501961 0.803922 0.972549 
0.501961 0.803922 0.972549 0.501961 0.803922 0.972549 
0.501961 0.803922 0.972549 0.501961 0.803922 0.972549 
0.501961 0.803922 0.972549 0.501961 0.803922 0.972549 
0.501961 0.803922 0.972549 0.501961 0.803922 0.972549 
0.501961 0.803922 0.972549 0.501961 0.803922 0.972549 
0.501961 0.803922 0.972549 0.501961 0.803922 0.972549 
0.501961 0.803922 0.972549 0.501961 0.803922 0.972549 
0.501961 0.803922 0.972549 0.501961 0.803922 0.972549 
0.501961 0.803922 0.972549 0.501961 0.803922 0.972549 
0.501961 0.803922 0.972549 0.501961 0.803922 0.972549 
0.501961 0.803922 0.972549 0.501961 0.803922 0.972549 
0.501961 0.803922 0.972549 0.501961 0.803922 0.972549 
0.501961 0.803922 0.972549 0.501961 0.803922 0.972549 
0.501961 0.803922 0.972549 0.501961 0.803922 0.972549 
0.501961 0.803922 0.972549 0.501961 0.803922 0.972549 
0.501961 0.803922 0.972549 0.501961 0.803922 0.972549 
0.501961 0.803922 0.972549 0.501961 0.803922 0.972549 
0.501961 0.803922 0.972549 0.501961 0.803922 0.972549 
0.501961 0.803922 0.972549 0.501961 0.803922 0.972549 
0.501961 0.803922 0.972549 0.501961 0.803922 0.972549 
0.501961 0.803922 0.972549 0.501961 0.803922 0.972549 
0.501961 0.803922 0.972549 0.501961 0.803922 0.972549 
0.501961 0.803922 0.972549 0.501961 0.803922 0.972549 
0.501961 0.803922 0.972549 0.501961 0.803922 0.972549 
0.501961 0.803922 0.972549 0.501961 0.803922 0.972549 
0.501961 0.803922 0.972549 0.501961 0.803922 0.972549 
0.501961 0.803922 0.972549 0.501961 0.803922 0.972549 
0.501961 0.803922 0.972549 0.501961 0.803922 0.972549 
0.501961 0.803922 0.972549 0.501961 0.803922 0.972549 
0.501961 0.803922 0.972549 0.501961 0.803922 0.972549 
0.501961 0.803922 0.972549 0.501961 0.803922 0.972549 
0.501961 0.803922 0.972549 0.501961 0.803922 0.972549 
0.501961 0.803922 0.972549 0.501961 0.803922 0.972549 
0.501961 0.803922 0.972549 0.501961 0.803922 0.972549 
0.501961 0.803922 0.972549 0.501961 0.803922 0.972549 
0.501961 0.803922 0.972549 0.501961 0.803922 0.972549 
0.501961 0.803922 0.972549 0.501961 0.803922 0.972549 
0.501961 0.803922 0.972549 0.501961 0.803922 0.972549 
0.501961 0.803922 0.972549 0.501961 0.803922 0.972549 
0.501961 0.803922 0.972549 0.501961 0.803922 0.972549 
0.501961 0.803922 0.972549 0.501961 0.803922 0.972549 
0.501961 0.803922 0.972549 0.501961 0.803922 0.972549 
0.501961 0.803922 0.972549 0.501961 0.803922 0.972549 
0.501961 0.803922 0.972549 0.501961 0.803922 0.972549 
0.501961 0.803922 0.972549 0.501961 0.803922 0.972549 
0.501961 0.803922 0.972549 0.501961 0.803922 0.972549 
0.501961 0.803922 0.972549 0.501961 0.803922 0.972549 
0.501961 0.803922 0.972549 0.501961 0.803922 0.972549 
0.501961 0.803922 0.972549 0.501961 0.803922 0.972549 
0.501961 0.803922 0.972549 0.501961 0.803922 0.972549 
0.501961 0.803922 0.972549 0.501961 0.803922 0.972549 
0.501961 0.803922 0.972549 0.501961 0.803922 0.972549 
0.501961 0.803922 0.972549 0.501961 0.803922 0.972549 
0.501961 0.803922 0.972549 0.501961 0.803922 0.972549 
0.501961 0.803922 0.972549 0.501961 0.803922 0.972549 
0.501961 0.803922 0.972549 0.501961 0.803922 0.972549 
0.501961 0.803922 0.972549 0.501961 0.803922 0.972549 
0.501961 0.803922 0.972549 0.501961 0.803922 0.972549 
0.501961 0.803922 0.972549 0.501961 0.803922 0.972549 
0.501961 0.803922 0.972549 0.501961 0.803922 0.972549 
0.501961 0.803922 0.972549 0.501961 0.803922 0.972549 
0.501961 0.803922 0.972549 0.501961 0.803922 0.972549 
0.501961 0.803922 0.972549 0.501961 0.803922 0.972549 
0.501961 0.803922 0.972549 0.501961 0.803922 0.972549 
0.501961 0.803922 0.972549 0.501961 0.803922 0.972549 
0.501961 0.803922 0.972549 0.501961 0.803922 0.972549 
0.501961 0.803922 0.972549 0.501961 0.803922 0.972549 
0.501961 0.803922 0.972549 0.501961 0.803922 0.972549 
0.501961 0.803922 0.972549 0.501961 0.803922 0.972549 
0.501961 0.803922 0.972549 0.501961 0.803922 0.972549 
0.501961 0.803922 0.972549 0.501961 0.803922 0.972549 
0.501961 0.803922 0.972549 0.501961 0.803922 0.972549 
0.501961 0.803922 0.972549 0.501961 0.803922 0.972549 
0.501961 0.803922 0.972549 0.501961 0.803922 0.972549 
0.501961 0.803922 0.972549 0.501961 0.803922 0.972549 
0.501961 0.803922 0.972549 0.501961 0.803922 0.972549 
0.501961 0.803922 0.972549 0.501961 0.803922 0.972549 
0.501961 0.803922 0.972549 0.501961 0.803922 0.972549 
0.501961 0.803922 0.972549 0.501961 0.803922 0.972549 
0.501961 0.803922 0.972549 0.501961 0.803922 0.972549 
0.501961 0.803922 0.972549 0.501961 0.803922 0.972549 
0.501961 0.803922 0.972549 0.501961 0.803922 0.972549 
0.501961 0.803922 0.972549 0.501961 0.803922 0.972549 
0.501961 0.803922 0.972549 0.501961 0.803922 0.972549 
0.501961 0.803922 0.972549 0.501961 0.803922 0.972549 
0.501961 0.803922 0.972549 0.501961 0.803922 0.972549 
0.501961 0.803922 0.972549 0.501961 0.803922 0.972549 
0.501961 0.803922 0.972549 0.501961 0.803922 0.972549 
0.501961 0.803922 0.972549 0.501961 0.803922 0.972549 
0.501961 0.803922 0.972549 0.501961 0.803922 0.972549 
0.501961 0.803922 0.972549 0.501961 0.803922 0.972549 
0.501961 0.803922 0.972549 0.501961 0.803922 0.972549 
0.501961 0.803922 0.972549 0.501961 0.803922 0.972549 
0.501961 0.803922 0.972549 0.501961 0.803922 0.972549 
0.501961 0.803922 0.972549 0.501961 0.803922 0.972549 
0.501961 0.803922 0.972549 0.501961 0.803922 0.972549 
0.501961 0.803922 0.972549 0.501961 0.803922 0.972549 
0.501961 0.803922 0.972549 0.501961 0.803922 0.972549 
0.501961 0.803922 0.972549 0.501961 0.803922 0.972549 
0.501961 0.803922 0.972549 0.501961 0.803922 0.972549 
0.501961 0.803922 0.972549 0.501961 0.803922 0.972549 
0.501961 0.803922 0.972549 0.501961 0.803922 0.972549 
0.501961 0.803922 0.972549 0.501961 0.803922 0.972549 
0.501961 0.803922 0.972549 0.501961 0.803922 0.972549 
0.501961 0.803922 0.972549 0.501961 0.803922 0.972549 
0.501961 0.803922 0.972549 0.501961 0.803922 0.972549 
0.501961 0.803922 0.972549 0.501961 0.803922 0.972549 
0.501961 0.803922 0.972549 0.501961 0.803922 0.972549 
0.501961 0.803922 0.972549 0.501961 0.803922 0.972549 
0.501961 0.803922 0.972549 0.501961 0.803922 0.972549 
0.501961 0.803922 0.972549 0.501961 0.803922 0.972549 
0.501961 0.803922 0.972549 0.501961 0.803922 0.972549 
0.501961 0.803922 0.972549 0.501961 0.803922 0.972549 
0.501961 0.803922 0.972549 0.501961 0.803922 0.972549 
0.501961 0.803922 0.972549 0.501961 0.803922 0.972549 
0.501961 0.803922 0.972549 0.501961 0.803922 0.972549 
0.501961 0.803922 0.972549 0.501961 0.803922 0.972549 
0.501961 0.803922 0.972549 0.501961 0.803922 0.972549 
0.501961 0.803922 0.972549 0.501961 0.803922 0.972549 
0.501961 0.803922 0.972549 0.501961 0.803922 0.972549 
0.501961 0.803922 0.972549 0.501961 0.803922 0.972549 
0.501961 0.803922 0.972549 0.501961 0.803922 0.972549 
0.501961 0.803922 0.972549 0.501961 0.803922 0.972549 
0.501961 0.803922 0.972549 0.501961 0.803922 0.972549 
0.501961 0.803922 0.972549 0.501961 0.803922 0.972549 
0.501961 0.803922 0.972549 0.501961 0.803922 0.972549 
0.501961 0.803922 0.972549 0.501961 0.803922 0.972549 
0.501961 0.803922 0.972549 0.501961 0.803922 0.972549 
0.501961 0.803922 0.972549 0.501961 0.803922 0.972549 
0.501961 0.803922 0.972549 0.501961 0.803922 0.972549 
0.501961 0.803922 0.972549 0.501961 0.803922 0.972549 
0.501961 0.803922 0.972549 0.501961 0.803922 0.972549 
0.501961 0.803922 0.972549 0.501961 0.803922 0.972549 
0.501961 0.803922 0.972549 0.501961 0.803922 0.972549 
0.501961 0.803922 0.972549 0.501961 0.803922 0.972549 
0.501961 0.803922 0.972549 0.501961 0.803922 0.972549 
0.501961 0.803922 0.972549 0.501961 0.803922 0.972549 
0.501961 0.803922 0.972549 0.501961 0.803922 0.972549 
0.501961 0.803922 0.972549 0.501961 0.803922 0.972549 
0.501961 0.803922 0.972549 0.501961 0.803922 0.972549 
0.501961 0.803922 0.972549 0.501961 0.803922 0.972549 
0.501961 0.803922 0.972549 0.501961 0.803922 0.972549 
0.501961 0.803922 0.972549 0.501961 0.803922 0.972549 
0.501961 0.803922 0.972549 0.501961 0.803922 0.972549 
0.501961 0.803922 0.972549 0.501961 0.803922 0.972549 
0.501961 0.803922 0.972549 0.501961 0.803922 0.972549 
0.501961 0.803922 0.972549 0.501961 0.803922 0.972549 
0.501961 0.803922 0.972549 0.501961 0.803922 0.972549 
0.501961 0.803922 0.972549 0.501961 0.803922 0.972549 
0.501961 0.803922 0.972549 0.501961 0.803922 0.972549 
0.501961 0.803922 0.972549 0.501961 0.803922 0.972549 
0.501961 0.803922 0.972549 0.501961 0.803922 0.972549 
0.501961 0.803922 0.972549 0.501961 0.803922 0.972549 