# vtk DataFile Version 4.2
vtk output
ASCII
DATASET POLYDATA
POINTS 1414 float
176.235 203.258 179.346 175.826 203.365 179.381 176.634 203.77 179.16 
176.83 204.026 179.142 177.521 203.829 179.22 172.821 201.49 180.791 
172.691 201.52 180.828 173.1 201.469 180.798 176.915 202.219 180.155 
174.607 203.842 179.7 175.395 205.255 179.655 177.59 205.336 179.509 
183.822 206.025 180.28 183.441 206.262 180.16 183.996 207.028 180.099 
186.177 207.258 180.362 184.668 207.557 180.197 186.713 207.854 180.366 
188.186 208.815 180.511 188.14 208.754 180.494 188.21 208.781 180.533 
188.21 208.828 180.569 172.155 201.201 181.491 172.462 202.113 180.795 
173.617 204.247 180.078 185.333 206.293 180.797 174.834 206.98 180.679 
182.213 206.883 180.202 186.391 207.327 180.424 175.76 207.422 180.74 
178.583 207.173 180.476 182.332 207.387 180.37 183.038 207.42 180.329 
187.44 208.149 180.591 183.505 208.06 180.785 183.765 207.829 180.498 
176.459 207.645 180.805 187.925 208.899 180.727 164.14 227.461 181.293 
164.218 227.255 181.313 163.799 227.844 181.51 164.048 227.983 181.448 
164.27 227.896 181.368 171.179 200.592 182.673 172.046 200.704 181.96 
172.333 200.383 182.196 171.164 201.286 182.074 183.131 204.418 181.213 
172.146 205.265 181.225 184.509 205.508 181.075 174.091 206.872 180.899 
186.84 207.544 180.635 181.989 207.643 180.615 187.706 208.287 180.693 
176.67 207.816 180.986 181.957 208.037 181.096 188.118 208.764 180.813 
182.636 208.314 181.508 184.747 208.507 181.288 186.609 208.778 180.942 
187.662 208.932 180.889 187.917 208.94 180.881 188.064 208.89 180.832 
179.882 224.203 181.801 182.736 224.726 181.941 183.169 224.617 182.135 
178.966 224.753 181.643 182.399 225.601 181.715 163.699 226.772 181.737 
172.141 206.38 181.631 185.4 205.978 181.811 172.54 208.556 182.355 
175.263 208.973 182.077 183.126 208.518 182.401 187.826 208.414 180.987 
188.048 208.719 180.969 186.127 208.735 181.579 187.962 208.909 180.96 
188.03 208.824 180.964 187.821 208.829 181.099 177.522 222.687 182.461 
184.451 224.901 182.549 166.223 225.889 181.868 167.809 226.54 181.835 
162.812 226.423 182.498 179.939 226.631 181.718 168.861 227.928 181.99 
178.578 227.408 181.955 184.38 227.051 182.47 166.691 228.913 181.982 
180.379 228.592 182.36 169.99 199.988 184.334 171.66 199.567 183.624 
172.059 199.301 183.904 169.996 200.905 183.635 183.306 203.584 182.406 
184.153 203.928 183.154 170.404 204.473 182.82 185.722 206.413 182.872 
186.558 207.392 181.762 186.568 207.872 181.991 179.417 209.179 183.209 
184.562 208.423 182.441 185.305 208.335 182.395 185.391 207.839 183.076 
186.104 208.247 182.165 187.929 208.591 181.045 187.561 208.645 181.291 
171.079 210.369 183.494 172.95 210.925 183.153 171.928 211.523 183.403 
170.571 213.178 183.683 169.653 215.168 183.722 170.318 217.044 183.336 
170.919 217.372 183.259 168.664 219.741 183.219 172.248 219.041 183.053 
167.895 222.915 182.651 179.013 222.073 183.024 186.235 224.294 183.781 
171.926 226.052 182.132 185.707 228.122 183.484 165.085 230.613 183.261 
181.298 229.97 183.31 169.464 201.862 184.004 184.971 204.733 184.387 
185.563 207.28 183.39 185.457 206.841 183.869 183.038 208.572 184.04 
183.854 208.258 183.993 184.673 207.866 183.855 175.193 210.626 183.254 
170.435 212.493 183.813 171.021 214.176 183.618 167.535 217.499 184.147 
171.314 216.834 183.355 172.211 216.228 183.556 186.801 224.081 184.471 
164.306 223.996 183.141 187.016 228.679 184.659 187.3 228.362 184.839 
169.205 199.498 185.644 169.753 198.645 186.033 181.416 200.943 184.697 
184.385 203.488 184.805 185.211 206.396 184.751 184.857 207.231 184.885 
184.315 207.858 184.908 177.52 210.765 184.166 174.247 212.328 183.762 
173.751 215.352 183.986 166.588 220.016 183.902 164.83 221.104 184.358 
180.07 221.25 183.983 187.698 228.274 185.324 159.949 228.36 185.636 
187.054 229.368 185.088 163.982 231.238 184.471 170.48 233.814 184.85 
170.566 198.154 186.278 182.964 201.734 185.087 168.882 205.226 185.5 
182.252 209.552 185.93 183.529 208.526 185.664 168.287 211.322 185.704 
166.427 214.293 185.995 165.103 217.307 185.627 159.194 226.136 186.296 
158.907 227.612 186.619 188.241 227.258 186.303 159.36 229.044 186.738 
188.014 229.111 186.087 188.104 228.856 186.188 187.852 229.731 186.809 
185.328 231.596 186.082 168.3 198.08 187.762 168.551 197.661 188.007 
168.017 198.445 187.731 172.061 197.696 187.167 181.533 200.36 186.178 
183.377 201.661 186.657 184.349 207.914 186.723 180.55 211.092 186.099 
165.849 213.924 186.665 179.773 214.433 186.639 180.007 216.286 186.628 
180.179 216.882 186.583 180.249 217.532 186.399 160.261 223.604 186.152 
158.586 228.141 187.163 188.254 229.159 187.657 159.828 229.95 187.043 
188.054 229.817 187.21 188.114 229.813 187.366 188.014 229.921 187.443 
175.596 235.399 187.27 168.292 236.444 187.662 171.648 236.538 187.224 
168.576 197.234 188.561 169.576 197.3 188.021 170.115 197.332 187.879 
180.373 199.553 187.556 182.582 200.72 187.229 185.004 206.57 188.187 
183.017 209.737 187.04 182.98 210.068 187.302 163.678 215.645 187.192 
183.984 219.368 187.408 185.543 220.101 187.906 158.091 225.91 187.467 
184.074 233.602 188.037 172.114 237.363 188.279 166.689 196.515 190.272 
167.621 197.063 189.332 170.579 197.076 188.404 173.267 197.49 188.416 
176.654 198.498 188.561 177.354 198.709 188.556 182.189 200.312 188.231 
184.618 208.826 188.722 166.034 210.697 189.292 183.665 211.419 188.656 
186.426 220.416 188.476 186.994 221.467 188.082 157.068 226.595 188.543 
157.477 228.958 189.283 158.577 229.932 188.882 168.581 237.4 189.715 
169.801 237.997 189.727 171.621 238.065 189.272 168.474 195.992 190.21 
166.75 197.049 189.992 177.348 198.808 188.98 180.481 199.779 188.687 
181.798 200.117 188.432 182.156 200.381 188.575 182.774 201.117 188.701 
183.848 202.923 188.974 183.332 202.851 189.789 184.507 204.235 189.451 
185.239 205.981 189.91 167.058 208.698 189.81 184.628 212.001 189.691 
185.069 217.393 189.317 188.012 222.1 189.88 155.196 224.864 189.846 
161.153 232.164 189.414 164.946 235.051 190.124 171.905 238.174 189.574 
173.081 238.043 189.811 166.228 195.058 192.116 165.492 196.117 192.002 
171.785 196.203 191.002 173.787 197.533 190.14 174.616 197.921 189.881 
177.494 199.103 189.493 179.593 199.902 189.42 181.195 200.185 189.009 
180.438 200.476 189.682 182.402 201.088 189.156 176.4 200.415 191.448 
176.855 200.93 191.446 177.312 201.396 191.432 181.825 202.198 190.322 
178.167 202.38 191.392 182.447 202.893 190.586 183.656 203.421 190.499 
182.934 203.164 190.89 178.36 202.535 191.353 182.389 203.131 191.148 
179.486 203.337 191.344 179.604 203.438 191.398 181.636 203.264 191.097 
179.769 203.511 191.347 180.931 203.49 191.26 185.646 206.601 190.924 
185.665 207.242 190.83 185.707 217.498 189.836 186.887 218.276 190.927 
178.475 236.683 190.208 170.524 238.247 190.726 171.694 238.345 190.578 
167.695 194.549 192.129 173.738 197.471 191.315 174.249 198.022 191.2 
164.916 198.368 191.945 174.364 198.162 191.583 174.575 198.42 191.437 
175.24 199.134 191.421 175.677 199.581 191.572 176.015 200.008 191.513 
165.69 201.869 191.655 176.985 201.067 191.494 176.717 200.713 191.54 
177.693 201.707 191.516 178.397 202.581 191.402 178.655 202.706 191.446 
184.041 203.321 191.781 183.097 203.128 191.297 181.881 203.093 191.453 
181.419 203.287 191.416 185.553 205.528 191.536 179.786 203.493 191.438 
179.94 203.577 191.388 180.313 203.59 191.377 180.074 203.521 191.447 
180.746 203.537 191.362 180.956 203.365 191.457 166.66 208.541 190.937 
186.568 215.294 191.692 187.396 218.595 191.733 186.475 235.41 192.339 
182.533 237.114 191.639 168.47 237.24 191.785 169.196 237.557 191.905 
176.046 237.725 191.65 166.322 194.076 193.896 166.951 193.864 193.808 
169.316 193.995 193.415 169.951 193.996 193.857 174.411 195.793 193.631 
174.131 197.012 192.22 178.754 197.77 193.521 180.456 198.67 193.412 
182.647 199.674 193.801 182.989 199.737 194.034 183.001 199.552 194.31 
181.862 200.094 193.114 183.806 201.204 193.713 182.175 202.061 192.161 
182.828 202.015 192.396 184.437 202.683 193.172 182.894 202.654 191.923 
166.115 205.218 192.239 166.543 207.5 191.659 165.896 208.463 191.941 
155.113 211.806 192.94 187.662 218.577 192.567 148.824 224.973 194.037 
154.045 227.809 192.817 186.585 236.096 193.358 170.798 237.76 192.787 
179.259 237.867 192.713 183.557 237.905 192.68 183.3 238.451 193.105 
184.735 238.016 193.376 166.069 194.021 194.602 168.065 193.606 194.26 
179.916 197.426 194.547 181.078 197.809 194.783 181.67 198.492 194.277 
182.186 198.737 194.481 184.304 201.367 194.488 164.607 202.294 193.105 
185.367 203.654 193.909 165.17 208.007 192.641 149.154 215.613 194.088 
188.301 220.664 193.636 146.778 222.849 194.459 188.655 223.352 193.708 
188.545 228.991 193.994 187.09 235.589 194.477 178.817 238.087 193.763 
180.388 238.556 193.872 182.269 239.03 193.689 183.741 238.83 193.538 
182.235 239.54 194.292 184.573 239.045 194.251 185.107 238.654 194.571 
181.742 239.853 195.178 182.055 240.141 195.47 184.01 239.611 194.34 
182.863 240.554 195.556 183.305 240.178 194.665 183.998 240.192 194.829 
183.729 240.514 195.062 166.532 193.736 195.187 169.103 193.582 195.334 
176.494 195.894 194.909 181.295 197.847 195.057 181.23 197.758 195.394 
183.304 199.655 195.42 183.802 200.287 195.621 163.229 202.062 194.077 
160.397 207.257 194.257 159.998 207.67 194.132 146.338 217.405 195.05 
145.71 219.839 194.993 145.566 222.127 195.253 188.658 224.354 194.664 
187.469 234.454 194.862 187.51 234.106 195.327 177.237 237.688 195.395 
184.648 239.642 195.319 184.395 239.985 195.578 183.866 240.463 195.232 
175.675 195.539 196.031 177.909 196.339 195.819 161.288 198.926 195.587 
160.77 198.597 195.994 150.543 201.928 196.53 161.142 202.942 194.978 
185.365 203.151 195.512 151.196 204.81 196.13 152.779 204.816 195.73 
186.249 205.667 195.719 145.229 217.698 195.876 144.494 218.996 196.386 
145.467 224.215 197.01 188.031 231.207 195.893 186.609 236.368 195.602 
[...]
POINT_DATA 1414
COLOR_SCALARS scalars 3
0.501961 0.803922 0.972549 0.501961 0.803922 0.972549 0.501961 0.803922 0.972549 
0.501961 0.803922 0.972549 0.501961 0.803922 0.972549 
0.501961 0.803922 0.972549 0.501961 0.803922 0.972549 
0.501961 0.803922 0.972549 0.501961 0.803922 0.972549 
0.501961 0.803922 0.972549 0.501961 0.803922 0.972549 
0.501961 0.803922 0.972549 0.501961 0.803922 0.972549 
0.501961 0.803922 0.972549 0.501961 0.803922 0.972549 
0.501961 0.803922 0.972549 0.501961 0.803922 0.972549 
0.501961 0.803922 0.972549 0.501961 0.803922 0.972549 
0.501961 0.803922 0.972549 0.501961 0.803922 0.972549 
0.501961 0.803922 0.972549 0.501961 0.803922 0.972549 
0.501961 0.803922 0.972549 0.501961 0.803922 0.972549 
0.501961 0.803922 0.972549 0.501961 0.803922 0.972549 
0.501961 0.803922 0.972549 0.501961 0.803922 0.972549 
0.501961 0.803922 0.972549 0.501961 0.803922 0.972549 
0.501961 0.803922 0.972549 0.501961 0.803922 0.972549 
0.501961 0.803922 0.972549 0.501961 0.803922 0.972549 
0.501961 0.803922 0.972549 0.501961 0.803922 0.972549 
0.501961 0.803922 0.972549 0.501961 0.803922 0.972549 
0.501961 0.803922 0.972549 0.501961 0.803922 0.972549 
0.501961 0.803922 0.972549 0.501961 0.803922 0.972549 
0.501961 0.803922 0.972549 0.501961 0.803922 0.972549 
0.501961 0.803922 0.972549 0.501961 0.803922 0.972549 
0.501961 0.803922 0.972549 0.501961 0.803922 0.972549 
0.501961 0.803922 0.972549 0.501961 0.803922 0.972549 
0.501961 0.803922 0.972549 0.501961 0.803922 0.972549 
0.501961 0.803922 0.972549 0.501961 0.803922 0.972549 
0.501961 0.803922 0.972549 0.501961 0.803922 0.972549 
0.501961 0.803922 0.972549 0.501961 0.803922 0.972549 
0.501961 0.803922 0.972549 0.501961 0.803922 0.972549 
0.501961 0.803922 0.972549 0.501961 0.803922 0.972549 
0.501961 0.803922 0.972549 0.501961 0.803922 0.972549 
0.501961 0.803922 0.972549 0.501961 0.803922 0.972549 
0.501961 0.803922 0.972549 0.501961 0.803922 0.972549 
0.501961 0.803922 0.972549 0.501961 0.803922 0.972549 
0.501961 0.803922 0.972549 0.501961 0.803922 0.972549 
0.501961 0.803922 0.972549 0.501961 0.803922 0.972549 
0.501961 0.803922 0.972549 0.501961 0.803922 0.972549 
0.501961 0.803922 0.972549 0.501961 0.803922 0.972549 
0.501961 0.803922 0.972549 0.501961 0.803922 0.972549 
0.501961 0.803922 0.972549 0.501961 0.803922 0.972549 
0.501961 0.803922 0.972549 0.501961 0.803922 0.972549 
0.501961 0.803922 0.972549 0.501961 0.803922 0.972549 
0.501961 0.803922 0.972549 0.501961 0.803922 0.972549 
0.501961 0.803922 0.972549 0.501961 0.803922 0.972549 
0.501961 0.803922 0.972549 0.501961 0.803922 0.972549 
0.501961 0.803922 0.972549 0.501961 0.803922 0.972549 
0.501961 0.803922 0.972549 0.501961 0.803922 0.972549 
0.501961 0.803922 0.972549 0.501961 0.803922 0.972549 
0.501961 0.803922 0.972549 0.501961 0.803922 0.972549 
0.501961 0.803922 0.972549 0.501961 0.803922 0.972549 
0.501961 0.803922 0.972549 0.501961 0.803922 0.972549 
0.501961 0.803922 0.972549 0.501961 0.803922 0.972549 
0.501961 0.803922 0.972549 0.501961 0.803922 0.972549 
0.501961 0.803922 0.972549 0.501961 0.803922 0.972549 
0.501961 0.803922 0.972549 0.501961 0.803922 0.972549 
0.501961 0.803922 0.972549 0.501961 0.803922 0.972549 
0.501961 0.803922 0.972549 0.501961 0.803922 0.972549 
0.501961 0.803922 0.972549 0.501961 0.803922 0.972549 
0.501961 0.803922 0.972549 0.501961 0.803922 0.972549 
0.501961 0.803922 0.972549 0.501961 0.803922 0.972549 
0.501961 0.803922 0.972549 0.501961 0.803922 0.972549 
0.501961 0.803922 0.972549 0.501961 0.803922 0.972549 
0.501961 0.803922 0.972549 0.501961 0.803922 0.972549 
0.501961 0.803922 0.972549 0.501961 0.803922 0.972549 
0.501961 0.803922 0.972549 0.501961 0.803922 0.972549 
0.501961 0.803922 0.972549 0.501961 0.803922 0.972549 
0.501961 0.803922 0.972549 0.501961 0.803922 0.972549 
0.501961 0.803922 0.972549 0.501961 0.803922 0.972549 
0.501961 0.803922 0.972549 0.501961 0.803922 0.972549 
0.501961 0.803922 0.972549 0.501961 0.803922 0.972549 
0.501961 0.803922 0.972549 0.501961 0.803922 0.972549 
0.501961 0.803922 0.972549 0.501961 0.803922 0.972549 
0.501961 0.803922 0.972549 0.501961 0.803922 0.972549 
0.501961 0.803922 0.972549 0.501961 0.803922 0.972549 
0.501961 0.803922 0.972549 0.501961 0.803922 0.972549 
0.501961 0.803922 0.972549 0.501961 0.803922 0.972549 
0.501961 0.803922 0.972549 0.501961 0.803922 0.972549 
0.501961 0.803922 0.972549 0.501961 0.803922 0.972549 
0.501961 0.803922 0.972549 0.501961 0.803922 0.972549 
0.501961 0.803922 0.972549 0.501961 0.803922 0.972549 
0.501961 0.803922 0.972549 0.501961 0.803922 0.972549 
0.501961 0.803922 0.972549 0.501961 0.803922 0.972549 
0.501961 0.803922 0.972549 0.501961 0.803922 0.972549 
0.501961 0.803922 0.972549 0.501961 0.803922 0.972549 
0.501961 0.803922 0.972549 0.501961 0.803922 0.972549 
0.501961 0.803922 0.972549 0.501961 0.803922 0.972549 
0.501961 0.803922 0.972549 0.501961 0.803922 0.972549 
0.501961 0.803922 0.972549 0.501961 0.803922 0.972549 
0.501961 0.803922 0.972549 0.501961 0.803922 0.972549 
0.501961 0.803922 0.972549 0.501961 0.803922 0.972549 
0.501961 0.803922 0.972549 0.501961 0.803922 0.972549 
0.501961 0.803922 0.972549 0.501961 0.803922 0.972549 
0.501961 0.803922 0.972549 0.501961 0.803922 0.972549 
0.501961 0.803922 0.972549 0.501961 0.803922 0.972549 
0.501961 0.803922 0.972549 0.501961 0.803922 0.972549 
0.501961 0.803922 0.972549 0.501961 0.803922 0.972549 
0.501961 0.803922 0.972549 0.501961 0.803922 0.972549 
0.501961 0.803922 0.972549 0.501961 0.803922 0.972549 
0.501961 0.803922 0.972549 0.501961 0.803922 0.972549 
0.501961 0.803922 0.972549 0.501961 0.803922 0.972549 
0.501961 0.803922 0.972549 0.501961 0.803922 0.972549 
0.501961 0.803922 0.972549 0.501961 0.803922 0.972549 
0.501961 0.803922 0.972549 0.501961 0.803922 0.972549 
0.501961 0.803922 0.972549 0.501961 0.803922 0.972549 
0.501961 0.803922 0.972549 0.501961 0.803922 0.972549 
0.501961 0.803922 0.972549 0.501961 0.803922 0.972549 
0.501961 0.803922 0.972549 0.501961 0.803922 0.972549 
0.501961 0.803922 0.972549 0.501961 0.803922 0.972549 
0.501961 0.803922 0.972549 0.501961 0.803922 0.972549 
0.501961 0.803922 0.972549 0.501961 0.803922 0.972549 
0.501961 0.803922 0.972549 0.501961 0.803922 0.972549 
0.501961 0.803922 0.972549 0.501961 0.803922 0.972549 
0.501961 0.803922 0.972549 0.501961 0.803922 0.972549 
0.501961 0.803922 0.972549 0.501961 0.803922 0.972549 
0.501961 0.803922 0.972549 0.501961 0.803922 0.972549 
0.501961 0.803922 0.972549 0.501961 0.803922 0.972549 
0.501961 0.803922 0.972549 0.501961 0.803922 0.972549 
0.501961 0.803922 0.972549 0.501961 0.803922 0.972549 
0.501961 0.803922 0.972549 0.501961 0.803922 0.972549 
0.501961 0.803922 0.972549 0.501961 0.803922 0.972549 
0.501961 0.803922 0.972549 0.501961 0.803922 0.972549 
0.501961 0.803922 0.972549 0.501961 0.803922 0.972549 
0.501961 0.803922 0.972549 0.501961 0.803922 0.972549 
0.501961 0.803922 0.972549 0.501961 0.803922 0.972549 
0.501961 0.803922 0.972549 0.501961 0.803922 0.972549 
0.501961 0.803922 0.972549 0.501961 0.803922 0.972549 
0.501961 0.803922 0.972549 0.501961 0.803922 0.972549 
0.501961 0.803922 0.972549 0.501961 0.803922 0.972549 
0.501961 0.803922 0.972549 0.501961 0.803922 0.972549 
0.501961 0.803922 0.972549 0.501961 0.803922 0.972549 
0.501961 0.803922 0.972549 0.501961 0.803922 0.972549 
0.501961 0.803922 0.972549 0.501961 0.803922 0.972549 
0.501961 0.803922 0.972549 0.501961 0.803922 0.972549 
0.501961 0.803922 0.972549 0.501961 0.803922 0.972549 
0.501961 0.803922 0.972549 0.501961 0.803922 0.972549 
0.501961 0.803922 0.972549 0.501961 0.803922 0.972549 
0.501961 0.803922 0.972549 0.501961 0.803922 0.972549 
0.501961 0.803922 0.972549 0.501961 0.803922 0.972549 
0.501961 0.803922 0.972549 0.501961 0.803922 0.972549 
0.501961 0.803922 0.972549 0.501961 0.803922 0.972549 
0.501961 0.803922 0.972549 0.501961 0.803922 0.972549 
0.501961 0.803922 0.972549 0.501961 0.803922 0.972549 
0.501961 0.803922 0.972549 0.501961 0.803922 0.972549 
0.501961 0.803922 0.972549 0.501961 0.803922 0.972549 
0.501961 0.803922 0.972549 0.501961 0.803922 0.972549 
0.501961 0.803922 0.972549 0.501961 0.803922 0.972549 
0.501961 0.803922 0.972549 0.501961 0.803922 0.972549 
0.501961 0.803922 0.972549 0.501961 0.803922 0.972549 
0.501961 0.803922 0.972549 0.501961 0.803922 0.972549 
0.501961 0.803922 0.972549 0.501961 0.803922 0.972549 
0.501961 0.803922 0.972549 0.501961 0.803922 0.972549 
0.501961 0.803922 0.972549 0.501961 0.803922 0.972549 
0.501961 0.803922 0.972549 0.501961 0.803922 0.972549 
0.501961 0.803922 0.972549 0.501961 0.803922 0.972549 
0.501961 0.803922 0.972549 0.501961 0.803922 0.972549 
0.501961 0.803922 0.972549 0.501961 0.803922 0.972549 
0.501961 0.803922 0.972549 0.501961 0.803922 0.972549 
0.501961 0.803922 0.972549 0.501961 0.803922 0.972549 
0.501961 0.803922 0.972549 0.501961 0.803922 0.972549 
0.501961 0.803922 0.972549 0.501961 0.803922 0.972549 
0.501961 0.803922 0.972549 0.501961 0.803922 0.972549 
0.501961 0.803922 0.972549 0.501961 0.803922 0.972549 
0.501961 0.803922 0.972549 0.501961 0.803922 0.972549 
0.501961 0.803922 0.972549 0.501961 0.803922 0.972549 
0.501961 0.803922 0.972549 0.501961 0.803922 0.972549 
0.501961 0.803922 0.972549 0.501961 0.803922 0.972549 
0.501961 0.803922 0.972549 0.501961 0.803922 0.972549 
0.501961 0.803922 0.972549 0.501961 0.803922 0.972549 
0.501961 0.803922 0.972549 0.501961 0.803922 0.972549 
0.501961 0.803922 0.972549 0.501961 0.803922 0.972549 
0.501961 0.803922 0.972549 0.501961 0.803922 0.972549 
0.501961 0.803922 0.972549 0.501961 0.803922 0.972549 
0.501961 0.803922 0.972549 0.501961 0.803922 0.972549 
0.501961 0.803922 0.972549 0.501961 0.803922 0.972549 
0.501961 0.803922 0.972549 0.501961 0.803922 0.972549 
0.501961 0.803922 0.972549 0.501961 0.803922 0.972549 
0.501961 0.803922 0.972549 0.501961 0.803922 0.972549 
0.501961 0.803922 0.972549 0.501961 0.803922 0.972549 
0.501961 0.803922 0.972549 0.501961 0.803922 0.972549 
0.501961 0.803922 0.972549 0.501961 0.803922 0.972549 
0.501961 0.803922 0.972549 0.501961 0.803922 0.972549 
0.501961 0.803922 0.972549 0.501961 0.803922 0.972549 
0.501961 0.803922 0.972549 0.501961 0.803922 0.972549 
0.501961 0.803922 0.972549 0.501961 0.803922 0.972549 
0.501961 0.803922 0.972549 0.501961 0.803922 0.972549 
0.501961 0.803922 0.972549 0.501961 0.803922 0.972549 
0.501961 0.803922 0.972549 0.501961 0.803922 0.972549 
0.501961 0.803922 0.972549 0.501961 0.803922 0.972549 
0.501961 0.803922 0.972549 0.501961 0.803922 0.972549 
0.501961 0.803922 0.972549 0.501961 0.803922 0.972549 
0.501961 0.803922 0.972549 0.501961 0.803922 0.972549 
0.501961 0.803922 0.972549 0.501961 0.803922 0.972549 
0.501961 0.803922 0.972549 0.501961 0.803922 0.972549 
0.501961 0.803922 0.972549 0.501961 0.803922 0.972549 
0.501961 0.803922 0.972549 0.501961 0.803922 0.972549 
0.501961 0.803922 0.972549 0.501961 0.803922 0.972549 
0.501961 0.803922 0.972549 0.501961 0.803922 0.972549 
0.501961 0.803922 0.972549 0.501961 0.803922 0.972549 
0.501961 0.803922 0.972549 0.501961 0.803922 0.972549 
0.501961 0.803922 0.972549 0.501961 0.803922 0.972549 
0.501961 0.803922 0.972549 0.501961 0.803922 0.972549 
0.501961 0.803922 0.972549 0.501961 0.803922 0.972549 
0.501961 0.803922 0.972549 0.501961 0.803922 0.972549 
0.501961 0.803922 0.972549 0.501961 0.803922 0.972549 
0.501961 0.803922 0.972549 0.501961 0.803922 0.972549 
0.501961 0.803922 0.972549 0.501961 0.803922 0.972549 
0.501961 0.803922 0.972549 0.501961 0.803922 0.972549 
0.501961 0.803922 0.972549 0.501961 0.803922 0.972549 
0.501961 0.803922 0.972549 0.501961 0.803922 0.972549 
0.501961 0.803922 0.972549 0.501961 0.803922 0.972549 
0.501961 0.803922 0.972549 0.501961 0.803922 0.972549 
0.501961 0.803922 0.972549 0.501961 0.803922 0.972549 
0.501961 0.803922 0.972549 0.501961 0.803922 0.972549 
0.501961 0.803922 0.972549 0.501961 0.803922 0.972549 
0.501961 0.803922 0.972549 0.501961 0.803922 0.972549 
0.501961 0.803922 0.972549 0.501961 0.803922 0.972549 
0.501961 0.803922 0.972549 0.501961 0.803922 0.972549 
0.501961 0.803922 0.972549 0.501961 0.803922 0.972549 
0.501961 0.803922 0.972549 0.501961 0.803922 0.972549 
0.501961 0.803922 0.972549 0.501961 0.803922 0.972549 
0.501961 0.803922 0.972549 0.501961 0.803922 0.972549 
0.501961 0.803922 0.972549 0.501961 0.803922 0.972549 
0.501961 0.803922 0.972549 0.501961 0.803922 0.972549 
0.501961 0.803922 0.972549 0.501961 0.803922 0.972549 
0.501961 0.803922 0.972549 0.501961 0.803922 0.972549 
0.501961 0.803922 0.972549 0.501961 0.803922 0.972549 
0.501961 0.803922 0.972549 0.501961 0.803922 0.972549 
0.501961 0.803922 0.972549 0.501961 0.803922 0.972549 
0.501961 0.803922 0.972549 0.501961 0.803922 0.972549 
0.501961 0.803922 0.972549 0.501961 0.803922 0.972549 
0.501961 0.803922 0.972549 0.501961 0.803922 0.972549 
0.501961 0.803922 0.972549 0.501961 0.803922 0.972549 
0.501961 0.803922 0.972549 0.501961 0.803922 0.972549 
0.501961 0.803922 0.972549 0.501961 0.803922 0.972549 
0.501961 0.803922 0.972549 0.501961 0.803922 0.972549 
0.501961 0.803922 0.972549 0.501961 0.803922 0.972549 
0.501961 0.803922 0.972549 0.501961 0.803922 0.972549 
0.501961 0.803922 0.972549 0.501961 0.803922 0.972549 
0.501961 0.803922 0.972549 0.501961 0.803922 0.972549 
0.501961 0.803922 0.972549 0.501961 0.803922 0.972549 
0.501961 0.803922 0.972549 0.501961 0.803922 0.972549 
0.501961 0.803922 0.972549 0.501961 0.803922 0.972549 
0.501961 0.803922 0.972549 0.501961 0.803922 0.972549 
0.501961 0.803922 0.972549 0.501961 0.803922 0.972549 
0.501961 0.803922 0.972549 0.501961 0.803922 0.972549 
0.501961 0.803922 0.972549 0.501961 0.803922 0.972549 
0.501961 0.803922 0.972549 0.501961 0.803922 0.972549 
0.501961 0.803922 0.972549 0.501961 0.803922 0.972549 
0.501961 0.803922 0.972549 0.501961 0.803922 0.972549 
0.501961 0.803922 0.972549 0.501961 0.803922 0.972549 
0.501961 0.803922 0.972549 0.501961 0.803922 0.972549 
0.501961 0.803922 0.972549 0.501961 0.803922 0.972549 
0.501961 0.803922 0.972549 0.501961 0.803922 0.972549 
0.501961 0.803922 0.972549 0.501961 0.803922 0.972549 
0.501961 0.803922 0.972549 0.501961 0.803922 0.972549 
0.501961 0.803922 0.972549 0.501961 0.803922 0.972549 
0.501961 0.803922 0.972549 0.501961 0.803922 0.972549 
0.501961 0.803922 0.972549 0.501961 0.803922 0.972549 
0.501961 0.803922 0.972549 0.501961 0.803922 0.972549 
0.501961 0.803922 0.972549 0.501961 0.803922 0.972549 
0.501961 0.803922 0.972549 0.501961 0.803922 0.972549 
0.501961 0.803922 0.972549 0.501961 0.803922 0.972549 
0.501961 0.803922 0.972549 0.501961 0.803922 0.972549 
0.501961 0.803922 0.972549 0.501961 0.803922 0.972549 
0.501961 0.803922 0.972549 0.501961 0.803922 0.972549 
0.501961 0.803922 0.972549 0.501961 0.803922 0.972549 
0.501961 0.803922 0.972549 0.501961 0.803922 0.972549 
0.501961 0.803922 0.972549 0.501961 0.803922 0.972549 
0.501961 0.803922 0.972549 0.501961 0.803922 0.972549 
0.501961 0.803922 0.972549 0.501961 0.803922 0.972549 
0.501961 0.803922 0.972549 0.501961 0.803922 0.972549 
0.501961 0.803922 0.972549 0.501961 0.803922 0.972549 
0.501961 0.803922 0.972549 0.501961 0.803922 0.972549 
0.501961 0.803922 0.972549 0.501961 0.803922 0.972549 
0.501961 0.803922 0.972549 0.501961 0.803922 0.972549 
0.501961 0.803922 0.972549 0.501961 0.803922 0.972549 
0.501961 0.803922 0.972549 0.501961 0.803922 0.972549 
0.501961 0.803922 0.972549 0.501961 0.803922 0.972549 
0.501961 0.803922 0.972549 0.501961 0.803922 0.972549 
0.501961 0.803922 0.972549 0.501961 0.803922 0.972549 
0.501961 0.803922 0.972549 0.501961 0.803922 0.972549 
0.501961 0.803922 0.972549 0.501961 0.803922 0.972549 
0.501961 0.803922 0.972549 0.501961 0.803922 0.972549 
0.501961 0.803922 0.972549 0.501961 0.803922 0.972549 
0.501961 0.803922 0.972549 0.501961 0.803922 0.972549 
0.501961 0.803922 0.972549 0.501961 0.803922 0.972549 
0.501961 0.803922 0.972549 0.501961 0.803922 0.972549 
0.501961 0.803922 0.972549 0.501961 0.803922 0.972549 
0.501961 0.803922 0.972549 0.501961 0.803922 0.972549 
0.501961 0.803922 0.972549 0.501961 0.803922 0.972549 
0.501961 0.803922 0.972549 0.501961 0.803922 0.972549 
0.501961 0.803922 0.972549 0.501961 0.803922 0.972549 
0.501961 0.803922 0.972549 0.501961 0.803922 0.972549 
0.501961 0.803922 0.972549 0.501961 0.803922 0.972549 
0.501961 0.803922 0.972549 0.501961 0.803922 0.972549 
0.501961 0.803922 0.972549 0.501961 0.803922 0.972549 
0.501961 0.803922 0.972549 0.501961 0.803922 0.972549 
0.501961 0.803922 0.972549 0.501961 0.803922 0.972549 
0.501961 0.803922 0.972549 0.501961 0.803922 0.972549 
0.501961 0.803922 0.972549 0.501961 0.803922 0.972549 
0.501961 0.803922 0.972549 0.501961 0.803922 0.972549 
0.501961 0.803922 0.972549 0.501961 0.803922 0.972549 
0.501961 0.803922 0.972549 0.501961 0.803922 0.972549 
0.501961 0.803922 0.972549 0.501961 0.803922 0.972549 
0.501961 0.803922 0.972549 0.501961 0.803922 0.972549 
0.501961 0.803922 0.972549 0.501961 0.803922 0.972549 
0.501961 0.803922 0.972549 0.501961 0.803922 0.972549 
0.501961 0.803922 0.972549 0.501961 0.803922 0.972549 
0.501961 0.803922 0.972549 0.501961 0.803922 0.972549 
0.501961 0.803922 0.972549 0.501961 0.803922 0.972549 
0.501961 0.803922 0.972549 0.501961 0.803922 0.972549 
0.501961 0.803922 0.972549 0.501961 0.803922 0.972549 
0.501961 0.803922 0.972549 0.501961 0.803922 0.972549 
0.501961 0.803922 0.972549 0.501961 0.803922 0.972549 
0.501961 0.803922 0.972549 0.501961 0.803922 0.972549 
0.501961 0.803922 0.972549 0.501961 0.803922 0.972549 
0.501961 0.803922 0.972549 0.501961 0.803922 0.972549 
0.501961 0.803922 0.972549 0.501961 0.803922 0.972549 
0.501961 0.803922 0.972549 0.501961 0.803922 0.972549 
0.501961 0.803922 0.972549 0.501961 0.803922 0.972549 
0.501961 0.803922 0.972549 0.501961 0.803922 0.972549 
0.501961 0.803922 0.972549 0.501961 0.803922 0.972549 
0.501961 0.803922 0.972549 0.501961 0.803922 0.972549 
0.501961 0.803922 0.972549 0.501961 0.803922 0.972549 
0.501961 0.803922 0.972549 0.501961 0.803922 0.972549 
0.501961 0.803922 0.972549 0.501961 0.803922 0.972549 
0.501961 0.803922 0.972549 0.501961 0.803922 0.972549 
0.501961 0.803922 0.972549 0.501961 0.803922 0.972549 
0.501961 0.803922 0.972549 0.501961 0.803922 0.972549 
0.501961 0.803922 0.972549 0.501961 0.803922 0.972549 
0.501961 0.803922 0.972549 0.501961 0.803922 0.972549 
0.501961 0.803922 0.972549 0.501961 0.803922 0.972549 
0.501961 0.803922 0.972549 0.501961 0.803922 0.972549 
0.501961 0.803922 0.972549 0.501961 0.803922 0.972549 
0.501961 0.803922 0.972549 0.501961 0.803922 0.972549 
0.501961 0.803922 0.972549 0.501961 0.803922 0.972549 
0.501961 0.803922 0.972549 0.501961 0.803922 0.972549 
0.501961 0.803922 0.972549 0.501961 0.803922 0.972549 
0.501961 0.803922 0.972549 0.501961 0.803922 0.972549 
0.501961 0.803922 0.972549 0.501961 0.803922 0.972549 
0.501961 0.803922 0.972549 0.501961 0.803922 0.972549 
0.501961 0.803922 0.972549 0.501961 0.803922 0.972549 
0.501961 0.803922 0.972549 0.501961 0.803922 0.972549 
0.501961 0.803922 0.972549 0.501961 0.803922 0.972549 
0.501961 0.803922 0.972549 0.501961 0.803922 0.972549 
0.501961 0.803922 0.972549 0.501961 0.803922 0.972549 
0.501961 0.803922 0.972549 0.501961 0.803922 0.972549 
0.501961 0.803922 0.972549 0.501961 0.803922 0.972549 
0.501961 0.803922 0.972549 0.501961 0.803922 0.972549 
0.501961 0.803922 0.972549 0.501961 0.803922 0.972549 
0.501961 0.803922 0.972549 0.501961 0.803922 0.972549 
0.501961 0.803922 0.972549 0.501961 0.803922 0.972549 
0.501961 0.803922 0.972549 0.501961 0.803922 0.972549 
0.501961 0.803922 0.972549 0.501961 0.803922 0.972549 
0.501961 0.803922 0.972549 0.501961 0.803922 0.972549 
0.501961 0.803922 0.972549 0.501961 0.803922 0.972549 
0.501961 0.803922 0.972549 0.501961 0.803922 0.972549 
0.501961 0.803922 0.972549 0.501961 0.803922 0.972549 
0.501961 0.803922 0.972549 0.501961 0.803922 0.972549 
0.501961 0.803922 0.972549 0.501961 0.803922 0.972549 
0.501961 0.803922 0.972549 0.501961 0.803922 0.972549 