# vtk DataFile Version 4.2
vtk output
ASCII
DATASET POLYDATA
POINTS 3066 float
179.121 187.725 80.0465 179.028 187.62 80.114 179.038 187.776 80.0446 
179.156 187.732 80.1398 179.133 187.851 80.0753 178.208 186.926 80.4774 
178.829 187.363 80.3428 178.759 187.681 80.1119 179.081 187.57 80.2652 
178.113 187.98 80.0513 178.998 188.094 80.1006 179.195 188.013 80.2607 
178.557 189.968 80.1898 178.682 190.289 80.3348 179.094 189.865 80.5227 
176.19 186.25 80.9759 177.573 186.213 81.006 179.058 187.509 80.5882 
177.716 189.641 80.1893 179.264 190.096 80.8778 177.681 191.069 80.531 
178.68 190.841 80.6121 178.167 191.724 80.7868 178.901 191.469 81.1077 
174.237 184.955 82.0835 174.44 184.598 82.3377 177.474 185.979 81.3765 
177.962 186.267 81.2742 178.702 186.885 81.0765 178.802 186.908 81.279 
178.63 186.72 81.3725 178.77 186.805 81.3763 178.945 187.365 81.2281 
179.139 187.647 80.8189 178.795 186.918 81.4237 174.794 189.893 81.2645 
179.294 190.47 81.2288 176.473 192.655 81.4466 177.411 192.064 80.9875 
178.402 192.63 81.4656 178.664 192.741 81.8047 177.754 193.814 82.0003 
177.748 194.057 82.2806 174.934 184.619 82.3698 172.903 185.321 82.2785 
177.215 185.698 81.8681 178.119 186.334 81.9756 178.571 186.857 81.8153 
178.99 188.057 81.8824 178.865 192.531 81.9292 178.901 192.503 82.1957 
176.037 193.703 82.2621 176.263 193.969 82.3717 176.627 194.1 82.3478 
177.982 193.983 82.4749 177.66 194.248 82.6141 173.289 183.499 83.5321 
173.97 183.684 83.3413 171.686 188.587 82.8721 179.209 190.338 82.227 
173.785 192.7 83.2439 178.99 192.203 82.3069 178.931 192.001 82.5779 
175.681 194.321 83.4067 175.846 194.216 83.0557 177.879 194.158 82.737 
177.636 194.277 82.9255 177.874 194.137 82.8984 176.57 194.551 83.3134 
176.577 194.473 82.9933 177.167 194.429 82.8785 176.866 194.57 83.0507 
176.745 194.594 83.1385 169.548 184.447 84.1843 177.702 186.635 83.688 
178.308 188.585 83.7688 178.732 190.896 83.1539 172.72 192.132 83.8821 
178.305 192.892 83.1674 173.695 193.038 83.9234 173.247 192.804 84.4286 
174.655 193.687 84.0814 175.436 194.239 83.6118 175.444 194.2 83.8252 
176.748 194.439 83.548 176.477 194.394 83.7701 177.273 194.311 83.2836 
175.782 194.367 83.6295 176.249 194.432 83.6524 176.911 194.54 83.2027 
169.698 190.987 85.5153 177.856 191.056 84.316 170.55 191.812 85.9821 
172.259 192.165 84.6548 172.228 192.267 85.2945 173.04 192.596 85.0037 
175.188 193.906 84.1496 175.706 193.924 84.2844 175.751 193.526 84.6287 
177.198 193.701 83.9383 175.145 183.89 85.6607 176.025 184.792 84.9175 
175.994 185.442 85.7605 176.211 186.362 85.8967 177.409 190.586 84.8267 
176.855 191.799 85.0112 169.757 191.911 86.7328 171.037 191.926 86.6338 
174.894 191.878 85.8899 170.289 192.031 86.5264 165.174 180.284 88.1221 
165.829 180.22 88.0213 164.297 181.7 87.5756 174.215 182.983 86.1637 
174.988 184.24 87.0269 175.221 185.12 87.1525 175.286 188.352 87.0518 
174.955 189.501 87.0308 168.538 192.059 87.3979 170.312 191.941 87.3927 
171.087 191.774 87.2969 171.958 191.579 87.1696 164.403 179.638 88.9942 
168.991 179.996 88.3916 174.174 182.918 87.4933 174.878 185.967 87.9728 
169.604 192.142 88.1135 166.324 193.153 88.9 169.032 192.402 88.6991 
166.426 179.356 89.1556 166.716 179.119 89.6383 161.044 184.603 89.1756 
171.961 190.253 88.9984 164.197 192.983 89.4343 165.207 193.839 89.6209 
166.916 193.713 89.8203 167.641 193.287 89.7348 165.052 194.655 90.2421 
165.868 194.595 90.3794 160.998 178.892 90.6661 161.388 178.435 90.9341 
160.019 179.52 90.8252 160.508 180.064 90.2929 173.171 181.89 89.5136 
173.642 182.621 89.3352 161.182 188.483 89.8279 168.188 192.922 90.1559 
164.459 194.332 90.1418 164.141 194.526 90.4829 166.195 194.732 90.8016 
166.631 194.449 90.991 158.37 177.492 92.6597 162.49 177.877 91.5171 
163.716 177.864 91.6432 158.906 178.716 91.984 158.823 180.233 92.0603 
173.178 182.065 90.0919 158.612 182.169 92.2183 158.712 183.87 91.2871 
161.069 189.695 90.4343 161.523 191.988 91.4304 167.046 194.031 91.3381 
164.25 196.195 91.9973 164.4 196.481 92.2113 157.235 176.68 93.307 
158.312 176.364 93.3019 156.93 177.041 93.3048 156.508 177.18 93.5099 
157.937 178.229 92.8815 158.453 178.871 92.456 170.559 179.448 91.2927 
172.117 180.739 90.8123 172.005 180.596 91.6095 158.231 183.057 92.5361 
173.057 182.196 90.7406 157.265 184.566 92.7272 159.686 189.306 92.0125 
159.268 188.968 92.5928 160.087 189.453 91.4278 160.89 191.352 92.2487 
163.991 196.571 92.6847 165.374 196.318 92.7318 164.52 196.979 92.8626 
164.418 197.093 93.0806 164.625 197.107 93.1173 156.723 175.731 94.0058 
157.192 175.433 94.2125 156.096 176.184 93.944 155.204 176.523 94.181 
159.975 176.001 93.8085 155.616 177.633 94.0477 156.815 177.922 93.5608 
155.749 178.233 94.328 157.973 178.975 93.2753 158.329 179.787 93.4402 
171.269 179.805 91.7646 158.593 180.587 93.715 158.601 182.271 93.6316 
157.411 184.053 92.9561 157.768 183.607 93.1052 158.193 183.081 93.3282 
156.204 184.584 93.6917 157.241 184.049 93.515 169.677 187.174 93.3711 
158.489 188.075 92.7592 159.805 189.543 93.0935 161.897 193.256 92.9155 
163.228 195.538 92.8563 163.481 195.944 93.2909 163.832 196.473 92.9829 
164.276 197.063 93.2219 164.667 197.164 93.3836 163.67 176.938 93.5374 
154.877 178.701 94.7309 155.539 178.821 94.9132 156.306 178.643 94.7438 
157.233 178.688 94.1639 157.967 179.281 94.1652 153.871 179.831 95.0795 
154.693 179.57 95.2054 158.837 180.967 94.3228 159.005 180.716 94.8533 
171.827 181.597 93.5274 155.521 184.066 94.355 155.092 183.695 94.7291 
154.63 183.554 94.7964 155.497 183.98 94.6901 157.844 183.768 93.7484 
158.451 183.189 93.9648 156.421 184.291 94.0343 157.227 184.271 93.9939 
156.765 184.597 94.2901 157.792 184.306 94.1619 158.329 183.936 94.2439 
157.097 184.972 94.3989 157.839 184.734 94.3548 156.291 185.571 93.584 
155.576 185.686 94.5926 156.513 186.366 94.0077 158.258 187.719 93.773 
157.974 187.26 93.9863 157.98 187.679 93.5186 158.663 187.867 93.8987 
162.67 194.326 93.6443 165.744 195.549 93.4385 165.476 196.119 93.549 
164.036 196.821 93.6065 164.185 196.907 93.8267 164.346 197.111 93.7584 
164.421 197.198 93.6148 164.58 197.186 93.6044 152.533 174.793 95.9852 
153.455 174.255 96.1716 153.945 174.366 95.8341 155.356 174.301 95.6653 
153.041 177.83 94.9367 168.182 177.968 94.1627 156.307 178.838 95.4911 
156.921 178.774 95.1992 157.661 178.989 95.0552 158.251 179.449 94.9179 
170.754 179.57 93.7364 159.047 180.314 95.2691 152.636 181.451 95.4837 
153.92 180.791 95.2931 154.46 180.475 95.5434 153.994 182.24 95.216 
154.377 181.898 95.7072 153.23 182.895 95.3091 154.746 183.176 95.1302 
155.015 183.766 95.2465 159.407 182.908 94.9579 153.441 184.132 95.381 
156.128 184.448 94.496 155.591 184.409 94.9097 156.401 184.952 94.589 
159.094 185.161 94.837 156.296 185.617 94.5927 155.312 185.376 95.0172 
157.401 185.614 94.4565 158.367 186.055 94.5252 154.54 185.384 95.3409 
155.02 185.575 95.0188 154.866 185.529 95.1428 155.161 185.562 94.9673 
154.99 185.563 95.0682 157.089 186.819 93.9301 161.184 190.518 94.009 
165.664 189.839 94.7297 165.81 192.466 94.2577 163.617 195.28 94.3416 
163.849 195.8 94.3675 163.785 196.221 94.0186 164.183 196.65 94.1133 
164.417 196.954 93.983 164.913 196.765 93.9235 165.135 196.431 94.0042 
164.481 197.151 93.775 164.643 197.039 93.8493 152.873 174.181 96.8631 
153.906 174.111 96.257 154.199 173.996 96.5472 156.443 174.094 96.3229 
157.4 174.317 95.9662 157.849 174.264 96.3358 169.433 178.45 94.9798 
157.322 178.742 95.9717 158.271 179.042 95.9877 155.334 179.464 96.0751 
151.95 180.826 95.7485 154.6 180.728 96.2377 154.969 179.944 96.3102 
171.095 181.343 95.1596 170.755 181.475 95.672 160.59 181.663 96.4528 
154.628 183.076 95.6051 154.919 184.935 95.4212 165.813 185.01 96.4144 
154.24 185.126 95.8413 163.868 186.325 96 152.853 185.358 96.4831 
153.623 185.304 95.901 153.905 185.318 95.9169 153.2 185.397 96.2768 
161.312 187.837 95.0451 163.169 191.317 94.7331 163.905 192.496 94.7547 
163.813 194.052 94.7191 163.528 194.786 94.4587 164.946 195.189 94.5115 
164.102 195.996 94.4599 164.417 196.18 94.4865 165.197 196.063 94.1352 
164.598 196.482 94.4206 164.787 196.681 94.2287 164.65 196.672 94.3189 
151.485 174.692 96.9573 151.506 174.564 97.2845 153.387 174.077 97.1848 
158.083 174.214 96.9272 159.241 174.42 96.7396 159.691 174.428 97.1672 
150.591 176.35 96.7027 158.205 178.64 96.6304 169.811 178.984 96.256 
156.204 178.759 96.5892 159.285 179.62 96.35 170.699 179.938 95.2892 
155.176 179.404 97.0398 170.801 180.363 95.4669 170.498 180.612 96.1205 
154.028 182.126 97.0688 170.071 181.863 96.4619 169.23 183.057 96.3228 
154.458 183.869 95.9965 161.285 183.442 96.3379 151.731 184.371 96.9577 
151.575 184.531 97.3233 152.151 185.161 97.1983 152.479 185.371 96.9395 
152.685 185.476 96.7473 152.628 185.484 96.8828 152.993 185.454 96.5831 
152.704 185.55 96.8036 164.186 193.872 94.823 164.52 194.215 94.7825 
164.744 196.525 94.3688 151.489 174.552 97.6874 151.901 174.418 97.8049 
156.297 173.927 97.3014 156.632 174.012 97.5934 159.957 174.482 97.7409 
160.691 174.558 97.8302 160.839 174.617 97.4364 149.732 176.386 97.6712 
164.576 175.623 97.8216 168.378 177.676 97.3749 156.096 178.087 97.6607 
156.65 177.954 97.5764 158.803 178.153 97.5743 148.867 179.211 97.9551 
154.196 180.399 97.7367 169.867 180.728 97.2276 150.002 183.454 98.4492 
153.491 183.514 97.2583 162.514 183.753 96.8034 150.673 183.879 98.2663 
151.362 184.411 97.717 151.628 184.71 97.7176 151.913 185.097 97.4384 
152.012 185.141 97.4324 152.199 185.091 97.4006 152.56 185.271 97.0744 
151.91 185.102 97.5127 153.829 195.652 99.9758 153.813 195.617 99.9971 
153.682 195.539 100.045 153.891 195.704 99.9959 153.776 195.674 100.022 
154.372 196.138 99.84 154.357 196.121 99.861 154.343 196.13 99.8795 
157.004 198.013 98.0087 157.004 198.013 98.0087 157.004 198.013 98.0087 
157.004 198.013 98.0088 157.004 198.013 98.0088 152.814 174.37 98.015 
152.15 174.878 98.5341 160.027 174.714 98.4505 161.039 174.695 98.4441 
[...]
POINT_DATA 3066
COLOR_SCALARS scalars 3
0.129412 0.596078 0.4 0.129412 0.596078 0.4 0.129412 0.596078 0.4 
0.129412 0.596078 0.4 0.129412 0.596078 0.4 
0.129412 0.596078 0.4 0.129412 0.596078 0.4 
0.129412 0.596078 0.4 0.129412 0.596078 0.4 
0.129412 0.596078 0.4 0.129412 0.596078 0.4 
0.129412 0.596078 0.4 0.129412 0.596078 0.4 
0.129412 0.596078 0.4 0.129412 0.596078 0.4 
0.129412 0.596078 0.4 0.129412 0.596078 0.4 
0.129412 0.596078 0.4 0.129412 0.596078 0.4 
0.129412 0.596078 0.4 0.129412 0.596078 0.4 
0.129412 0.596078 0.4 0.129412 0.596078 0.4 
0.129412 0.596078 0.4 0.129412 0.596078 0.4 
0.129412 0.596078 0.4 0.129412 0.596078 0.4 
0.129412 0.596078 0.4 0.129412 0.596078 0.4 
0.129412 0.596078 0.4 0.129412 0.596078 0.4 
0.129412 0.596078 0.4 0.129412 0.596078 0.4 
0.129412 0.596078 0.4 0.129412 0.596078 0.4 
0.129412 0.596078 0.4 0.129412 0.596078 0.4 
0.129412 0.596078 0.4 0.129412 0.596078 0.4 
0.129412 0.596078 0.4 0.129412 0.596078 0.4 
0.129412 0.596078 0.4 0.129412 0.596078 0.4 
0.129412 0.596078 0.4 0.129412 0.596078 0.4 
0.129412 0.596078 0.4 0.129412 0.596078 0.4 
0.129412 0.596078 0.4 0.129412 0.596078 0.4 
0.129412 0.596078 0.4 0.129412 0.596078 0.4 
0.129412 0.596078 0.4 0.129412 0.596078 0.4 
0.129412 0.596078 0.4 0.129412 0.596078 0.4 
0.129412 0.596078 0.4 0.129412 0.596078 0.4 
0.129412 0.596078 0.4 0.129412 0.596078 0.4 
0.129412 0.596078 0.4 0.129412 0.596078 0.4 
0.129412 0.596078 0.4 0.129412 0.596078 0.4 
0.129412 0.596078 0.4 0.129412 0.596078 0.4 
0.129412 0.596078 0.4 0.129412 0.596078 0.4 
0.129412 0.596078 0.4 0.129412 0.596078 0.4 
0.129412 0.596078 0.4 0.129412 0.596078 0.4 
0.129412 0.596078 0.4 0.129412 0.596078 0.4 
0.129412 0.596078 0.4 0.129412 0.596078 0.4 
0.129412 0.596078 0.4 0.129412 0.596078 0.4 
0.129412 0.596078 0.4 0.129412 0.596078 0.4 
0.129412 0.596078 0.4 0.129412 0.596078 0.4 
0.129412 0.596078 0.4 0.129412 0.596078 0.4 
0.129412 0.596078 0.4 0.129412 0.596078 0.4 
0.129412 0.596078 0.4 0.129412 0.596078 0.4 
0.129412 0.596078 0.4 0.129412 0.596078 0.4 
0.129412 0.596078 0.4 0.129412 0.596078 0.4 
0.129412 0.596078 0.4 0.129412 0.596078 0.4 
0.129412 0.596078 0.4 0.129412 0.596078 0.4 
0.129412 0.596078 0.4 0.129412 0.596078 0.4 
0.129412 0.596078 0.4 0.129412 0.596078 0.4 
0.129412 0.596078 0.4 0.129412 0.596078 0.4 
0.129412 0.596078 0.4 0.129412 0.596078 0.4 
0.129412 0.596078 0.4 0.129412 0.596078 0.4 
0.129412 0.596078 0.4 0.129412 0.596078 0.4 
0.129412 0.596078 0.4 0.129412 0.596078 0.4 
0.129412 0.596078 0.4 0.129412 0.596078 0.4 
0.129412 0.596078 0.4 0.129412 0.596078 0.4 
0.129412 0.596078 0.4 0.129412 0.596078 0.4 
0.129412 0.596078 0.4 0.129412 0.596078 0.4 
0.129412 0.596078 0.4 0.129412 0.596078 0.4 
0.129412 0.596078 0.4 0.129412 0.596078 0.4 
0.129412 0.596078 0.4 0.129412 0.596078 0.4 
0.129412 0.596078 0.4 0.129412 0.596078 0.4 
0.129412 0.596078 0.4 0.129412 0.596078 0.4 
0.129412 0.596078 0.4 0.129412 0.596078 0.4 
0.129412 0.596078 0.4 0.129412 0.596078 0.4 
0.129412 0.596078 0.4 0.129412 0.596078 0.4 
0.129412 0.596078 0.4 0.129412 0.596078 0.4 
0.129412 0.596078 0.4 0.129412 0.596078 0.4 
0.129412 0.596078 0.4 0.129412 0.596078 0.4 
0.129412 0.596078 0.4 0.129412 0.596078 0.4 
0.129412 0.596078 0.4 0.129412 0.596078 0.4 
0.129412 0.596078 0.4 0.129412 0.596078 0.4 
0.129412 0.596078 0.4 0.129412 0.596078 0.4 
0.129412 0.596078 0.4 0.129412 0.596078 0.4 
0.129412 0.596078 0.4 0.129412 0.596078 0.4 
0.129412 0.596078 0.4 0.129412 0.596078 0.4 
0.129412 0.596078 0.4 0.129412 0.596078 0.4 
0.129412 0.596078 0.4 0.129412 0.596078 0.4 
0.129412 0.596078 0.4 0.129412 0.596078 0.4 
0.129412 0.596078 0.4 0.129412 0.596078 0.4 
0.129412 0.596078 0.4 0.129412 0.596078 0.4 
0.129412 0.596078 0.4 0.129412 0.596078 0.4 
0.129412 0.596078 0.4 0.129412 0.596078 0.4 
0.129412 0.596078 0.4 0.129412 0.596078 0.4 
0.129412 0.596078 0.4 0.129412 0.596078 0.4 
0.129412 0.596078 0.4 0.129412 0.596078 0.4 
0.129412 0.596078 0.4 0.129412 0.596078 0.4 
0.129412 0.596078 0.4 0.129412 0.596078 0.4 
0.129412 0.596078 0.4 0.129412 0.596078 0.4 
0.129412 0.596078 0.4 0.129412 0.596078 0.4 
0.129412 0.596078 0.4 0.129412 0.596078 0.4 
0.129412 0.596078 0.4 0.129412 0.596078 0.4 
0.129412 0.596078 0.4 0.129412 0.596078 0.4 
0.129412 0.596078 0.4 0.129412 0.596078 0.4 
0.129412 0.596078 0.4 0.129412 0.596078 0.4 
0.129412 0.596078 0.4 0.129412 0.596078 0.4 
0.129412 0.596078 0.4 0.129412 0.596078 0.4 
0.129412 0.596078 0.4 0.129412 0.596078 0.4 
0.129412 0.596078 0.4 0.129412 0.596078 0.4 
0.129412 0.596078 0.4 0.129412 0.596078 0.4 
0.129412 0.596078 0.4 0.129412 0.596078 0.4 
0.129412 0.596078 0.4 0.129412 0.596078 0.4 
0.129412 0.596078 0.4 0.129412 0.596078 0.4 
0.129412 0.596078 0.4 0.129412 0.596078 0.4 
0.129412 0.596078 0.4 0.129412 0.596078 0.4 
0.129412 0.596078 0.4 0.129412 0.596078 0.4 
0.129412 0.596078 0.4 0.129412 0.596078 0.4 
0.129412 0.596078 0.4 0.129412 0.596078 0.4 
0.129412 0.596078 0.4 0.129412 0.596078 0.4 
0.129412 0.596078 0.4 0.129412 0.596078 0.4 
0.129412 0.596078 0.4 0.129412 0.596078 0.4 
0.129412 0.596078 0.4 0.129412 0.596078 0.4 
0.129412 0.596078 0.4 0.129412 0.596078 0.4 
0.129412 0.596078 0.4 0.129412 0.596078 0.4 
0.129412 0.596078 0.4 0.129412 0.596078 0.4 
0.129412 0.596078 0.4 0.129412 0.596078 0.4 
0.129412 0.596078 0.4 0.129412 0.596078 0.4 
0.129412 0.596078 0.4 0.129412 0.596078 0.4 
0.129412 0.596078 0.4 0.129412 0.596078 0.4 
0.129412 0.596078 0.4 0.129412 0.596078 0.4 
0.129412 0.596078 0.4 0.129412 0.596078 0.4 
0.129412 0.596078 0.4 0.129412 0.596078 0.4 
0.129412 0.596078 0.4 0.129412 0.596078 0.4 
0.129412 0.596078 0.4 0.129412 0.596078 0.4 
0.129412 0.596078 0.4 0.129412 0.596078 0.4 
0.129412 0.596078 0.4 0.129412 0.596078 0.4 
0.129412 0.596078 0.4 0.129412 0.596078 0.4 
0.129412 0.596078 0.4 0.129412 0.596078 0.4 
0.129412 0.596078 0.4 0.129412 0.596078 0.4 
0.129412 0.596078 0.4 0.129412 0.596078 0.4 
0.129412 0.596078 0.4 0.129412 0.596078 0.4 
0.129412 0.596078 0.4 0.129412 0.596078 0.4 
0.129412 0.596078 0.4 0.129412 0.596078 0.4 
0.129412 0.596078 0.4 0.129412 0.596078 0.4 
0.129412 0.596078 0.4 0.129412 0.596078 0.4 
0.129412 0.596078 0.4 0.129412 0.596078 0.4 
0.129412 0.596078 0.4 0.129412 0.596078 0.4 
0.129412 0.596078 0.4 0.129412 0.596078 0.4 
0.129412 0.596078 0.4 0.129412 0.596078 0.4 
0.129412 0.596078 0.4 0.129412 0.596078 0.4 
0.129412 0.596078 0.4 0.129412 0.596078 0.4 
0.129412 0.596078 0.4 0.129412 0.596078 0.4 
0.129412 0.596078 0.4 0.129412 0.596078 0.4 
0.129412 0.596078 0.4 0.129412 0.596078 0.4 
0.129412 0.596078 0.4 0.129412 0.596078 0.4 
0.129412 0.596078 0.4 0.129412 0.596078 0.4 
0.129412 0.596078 0.4 0.129412 0.596078 0.4 
0.129412 0.596078 0.4 0.129412 0.596078 0.4 
0.129412 0.596078 0.4 0.129412 0.596078 0.4 
0.129412 0.596078 0.4 0.129412 0.596078 0.4 
0.129412 0.596078 0.4 0.129412 0.596078 0.4 
0.129412 0.596078 0.4 0.129412 0.596078 0.4 
0.129412 0.596078 0.4 0.129412 0.596078 0.4 
0.129412 0.596078 0.4 0.129412 0.596078 0.4 
0.129412 0.596078 0.4 0.129412 0.596078 0.4 
0.129412 0.596078 0.4 0.129412 0.596078 0.4 
0.129412 0.596078 0.4 0.129412 0.596078 0.4 
0.129412 0.596078 0.4 0.129412 0.596078 0.4 
0.129412 0.596078 0.4 0.129412 0.596078 0.4 
0.129412 0.596078 0.4 0.129412 0.596078 0.4 
0.129412 0.596078 0.4 0.129412 0.596078 0.4 
0.129412 0.596078 0.4 0.129412 0.596078 0.4 
0.129412 0.596078 0.4 0.129412 0.596078 0.4 
0.129412 0.596078 0.4 0.129412 0.596078 0.4 
0.129412 0.596078 0.4 0.129412 0.596078 0.4 
0.129412 0.596078 0.4 0.129412 0.596078 0.4 
0.129412 0.596078 0.4 0.129412 0.596078 0.4 
0.129412 0.596078 0.4 0.129412 0.596078 0.4 
0.129412 0.596078 0.4 0.129412 0.596078 0.4 
0.129412 0.596078 0.4 0.129412 0.596078 0.4 
0.129412 0.596078 0.4 0.129412 0.596078 0.4 
0.129412 0.596078 0.4 0.129412 0.596078 0.4 
0.129412 0.596078 0.4 0.129412 0.596078 0.4 
0.129412 0.596078 0.4 0.129412 0.596078 0.4 
0.129412 0.596078 0.4 0.129412 0.596078 0.4 
0.129412 0.596078 0.4 0.129412 0.596078 0.4 
0.129412 0.596078 0.4 0.129412 0.596078 0.4 
0.129412 0.596078 0.4 0.129412 0.596078 0.4 
0.129412 0.596078 0.4 0.129412 0.596078 0.4 
0.129412 0.596078 0.4 0.129412 0.596078 0.4 
0.129412 0.596078 0.4 0.129412 0.596078 0.4 
0.129412 0.596078 0.4 0.129412 0.596078 0.4 
0.129412 0.596078 0.4 0.129412 0.596078 0.4 
0.129412 0.596078 0.4 0.129412 0.596078 0.4 
0.129412 0.596078 0.4 0.129412 0.596078 0.4 
0.129412 0.596078 0.4 0.129412 0.596078 0.4 
0.129412 0.596078 0.4 0.129412 0.596078 0.4 
0.129412 0.596078 0.4 0.129412 0.596078 0.4 
0.129412 0.596078 0.4 0.129412 0.596078 0.4 
0.129412 0.596078 0.4 0.129412 0.596078 0.4 
0.129412 0.596078 0.4 0.129412 0.596078 0.4 
0.129412 0.596078 0.4 0.129412 0.596078 0.4 
0.129412 0.596078 0.4 0.129412 0.596078 0.4 
0.129412 0.596078 0.4 0.129412 0.596078 0.4 
0.129412 0.596078 0.4 0.129412 0.596078 0.4 
0.129412 0.596078 0.4 0.129412 0.596078 0.4 
0.129412 0.596078 0.4 0.129412 0.596078 0.4 
0.129412 0.596078 0.4 0.129412 0.596078 0.4 
0.129412 0.596078 0.4 0.129412 0.596078 0.4 
0.129412 0.596078 0.4 0.129412 0.596078 0.4 
0.129412 0.596078 0.4 0.129412 0.596078 0.4 
0.129412 0.596078 0.4 0.129412 0.596078 0.4 
0.129412 0.596078 0.4 0.129412 0.596078 0.4 
0.129412 0.596078 0.4 0.129412 0.596078 0.4 
0.129412 0.596078 0.4 0.129412 0.596078 0.4 
0.129412 0.596078 0.4 0.129412 0.596078 0.4 
0.129412 0.596078 0.4 0.129412 0.596078 0.4 
0.129412 0.596078 0.4 0.129412 0.596078 0.4 
0.129412 0.596078 0.4 0.129412 0.596078 0.4 
0.129412 0.596078 0.4 0.129412 0.596078 0.4 
0.129412 0.596078 0.4 0.129412 0.596078 0.4 
0.129412 0.596078 0.4 0.129412 0.596078 0.4 
0.129412 0.596078 0.4 0.129412 0.596078 0.4 
0.129412 0.596078 0.4 0.129412 0.596078 0.4 
0.129412 0.596078 0.4 0.129412 0.596078 0.4 
0.129412 0.596078 0.4 0.129412 0.596078 0.4 
0.129412 0.596078 0.4 0.129412 0.596078 0.4 
0.129412 0.596078 0.4 0.129412 0.596078 0.4 
0.129412 0.596078 0.4 0.129412 0.596078 0.4 
0.129412 0.596078 0.4 0.129412 0.596078 0.4 
0.129412 0.596078 0.4 0.129412 0.596078 0.4 
0.129412 0.596078 0.4 0.129412 0.596078 0.4 
0.129412 0.596078 0.4 0.129412 0.596078 0.4 
0.129412 0.596078 0.4 0.129412 0.596078 0.4 
0.129412 0.596078 0.4 0.129412 0.596078 0.4 
0.129412 0.596078 0.4 0.129412 0.596078 0.4 
0.129412 0.596078 0.4 0.129412 0.596078 0.4 
0.129412 0.596078 0.4 0.129412 0.596078 0.4 
0.129412 0.596078 0.4 0.129412 0.596078 0.4 
0.129412 0.596078 0.4 0.129412 0.596078 0.4 
0.129412 0.596078 0.4 0.129412 0.596078 0.4 
0.129412 0.596078 0.4 0.129412 0.596078 0.4 
0.129412 0.596078 0.4 0.129412 0.596078 0.4 
0.129412 0.596078 0.4 0.129412 0.596078 0.4 
0.129412 0.596078 0.4 0.129412 0.596078 0.4 
0.129412 0.596078 0.4 0.129412 0.596078 0.4 
0.129412 0.596078 0.4 0.129412 0.596078 0.4 
0.129412 0.596078 0.4 0.129412 0.596078 0.4 
0.129412 0.596078 0.4 0.129412 0.596078 0.4 
0.129412 0.596078 0.4 0.129412 0.596078 0.4 
0.129412 0.596078 0.4 0.129412 0.596078 0.4 
0.129412 0.596078 0.4 0.129412 0.596078 0.4 
0.129412 0.596078 0.4 0.129412 0.596078 0.4 
0.129412 0.596078 0.4 0.129412 0.596078 0.4 
0.129412 0.596078 0.4 0.129412 0.596078 0.4 
0.129412 0.596078 0.4 0.129412 0.596078 0.4 
0.129412 0.596078 0.4 0.129412 0.596078 0.4 
0.129412 0.596078 0.4 0.129412 0.596078 0.4 
0.129412 0.596078 0.4 0.129412 0.596078 0.4 
0.129412 0.596078 0.4 0.129412 0.596078 0.4 
0.129412 0.596078 0.4 0.129412 0.596078 0.4 
0.129412 0.596078 0.4 0.129412 0.596078 0.4 
0.129412 0.596078 0.4 0.129412 0.596078 0.4 
0.129412 0.596078 0.4 0.129412 0.596078 0.4 
0.129412 0.596078 0.4 0.129412 0.596078 0.4 
0.129412 0.596078 0.4 0.129412 0.596078 0.4 
0.129412 0.596078 0.4 0.129412 0.596078 0.4 
0.129412 0.596078 0.4 0.129412 0.596078 0.4 
0.129412 0.596078 0.4 0.129412 0.596078 0.4 
0.129412 0.596078 0.4 0.129412 0.596078 0.4 
0.129412 0.596078 0.4 0.129412 0.596078 0.4 
0.129412 0.596078 0.4 0.129412 0.596078 0.4 
0.129412 0.596078 0.4 0.129412 0.596078 0.4 
0.129412 0.596078 0.4 0.129412 0.596078 0.4 
0.129412 0.596078 0.4 0.129412 0.596078 0.4 
0.129412 0.596078 0.4 0.129412 0.596078 0.4 
0.129412 0.596078 0.4 0.129412 0.596078 0.4 
0.129412 0.596078 0.4 0.129412 0.596078 0.4 
0.129412 0.596078 0.4 0.129412 0.596078 0.4 
0.129412 0.596078 0.4 0.129412 0.596078 0.4 
0.129412 0.596078 0.4 0.129412 0.596078 0.4 
0.129412 0.596078 0.4 0.129412 0.596078 0.4 
0.129412 0.596078 0.4 0.129412 0.596078 0.4 
0.129412 0.596078 0.4 0.129412 0.596078 0.4 
0.129412 0.596078 0.4 0.129412 0.596078 0.4 
0.129412 0.596078 0.4 0.129412 0.596078 0.4 
0.129412 0.596078 0.4 0.129412 0.596078 0.4 
0.129412 0.596078 0.4 0.129412 0.596078 0.4 
0.129412 0.596078 0.4 0.129412 0.596078 0.4 
0.129412 0.596078 0.4 0.129412 0.596078 0.4 
0.129412 0.596078 0.4 0.129412 0.596078 0.4 
0.129412 0.596078 0.4 0.129412 0.596078 0.4 
0.129412 0.596078 0.4 0.129412 0.596078 0.4 
0.129412 0.596078 0.4 0.129412 0.596078 0.4 
0.129412 0.596078 0.4 0.129412 0.596078 0.4 
0.129412 0.596078 0.4 0.129412 0.596078 0.4 
0.129412 0.596078 0.4 0.129412 0.596078 0.4 
0.129412 0.596078 0.4 0.129412 0.596078 0.4 
0.129412 0.596078 0.4 0.129412 0.596078 0.4 
0.129412 0.596078 0.4 0.129412 0.596078 0.4 
0.129412 0.596078 0.4 0.129412 0.596078 0.4 
0.129412 0.596078 0.4 0.129412 0.596078 0.4 
0.129412 0.596078 0.4 0.129412 0.596078 0.4 
0.129412 0.596078 0.4 0.129412 0.596078 0.4 
0.129412 0.596078 0.4 0.129412 0.596078 0.4 
0.129412 0.596078 0.4 0.129412 0.596078 0.4 
0.129412 0.596078 0.4 0.129412 0.596078 0.4 
0.129412 0.596078 0.4 0.129412 0.596078 0.4 
0.129412 0.596078 0.4 0.129412 0.596078 0.4 
0.129412 0.596078 0.4 0.129412 0.596078 0.4 
0.129412 0.596078 0.4 0.129412 0.596078 0.4 
0.129412 0.596078 0.4 0.129412 0.596078 0.4 
0.129412 0.596078 0.4 0.129412 0.596078 0.4 
0.129412 0.596078 0.4 0.129412 0.596078 0.4 
0.129412 0.596078 0.4 0.129412 0.596078 0.4 
0.129412 0.596078 0.4 0.129412 0.596078 0.4 
0.129412 0.596078 0.4 0.129412 0.596078 0.4 
0.129412 0.596078 0.4 0.129412 0.596078 0.4 
0.129412 0.596078 0.4 0.129412 0.596078 0.4 
0.129412 0.596078 0.4 0.129412 0.596078 0.4 
0.129412 0.596078 0.4 0.129412 0.596078 0.4 
0.129412 0.596078 0.4 0.129412 0.596078 0.4 
0.129412 0.596078 0.4 0.129412 0.596078 0.4 
0.129412 0.596078 0.4 0.129412 0.596078 0.4 
0.129412 0.596078 0.4 0.129412 0.596078 0.4 
0.129412 0.596078 0.4 0.129412 0.596078 0.4 
0.129412 0.596078 0.4 0.129412 0.596078 0.4 
0.129412 0.596078 0.4 0.129412 0.596078 0.4 
0.129412 0.596078 0.4 0.129412 0.596078 0.4 
0.129412 0.596078 0.4 0.129412 0.596078 0.4 
0.129412 0.596078 0.4 0.129412 0.596078 0.4 
0.129412 0.596078 0.4 0.129412 0.596078 0.4 
0.129412 0.596078 0.4 0.129412 0.596078 0.4 
0.129412 0.596078 0.4 0.129412 0.596078 0.4 
0.129412 0.596078 0.4 0.129412 0.596078 0.4 
0.129412 0.596078 0.4 0.129412 0.596078 0.4 
0.129412 0.596078 0.4 0.129412 0.596078 0.4 
0.129412 0.596078 0.4 0.129412 0.596078 0.4 
0.129412 0.596078 0.4 0.129412 0.596078 0.4 
0.129412 0.596078 0.4 0.129412 0.596078 0.4 
0.129412 0.596078 0.4 0.129412 0.596078 0.4 
0.129412 0.596078 0.4 0.129412 0.596078 0.4 
0.129412 0.596078 0.4 0.129412 0.596078 0.4 
0.129412 0.596078 0.4 0.129412 0.596078 0.4 
0.129412 0.596078 0.4 0.129412 0.596078 0.4 
0.129412 0.596078 0.4 0.129412 0.596078 0.4 
0.129412 0.596078 0.4 0.129412 0.596078 0.4 
0.129412 0.596078 0.4 0.129412 0.596078 0.4 
0.129412 0.596078 0.4 0.129412 0.596078 0.4 
0.129412 0.596078 0.4 0.129412 0.596078 0.4 
0.129412 0.596078 0.4 0.129412 0.596078 0.4 
0.129412 0.596078 0.4 0.129412 0.596078 0.4 
0.129412 0.596078 0.4 0.129412 0.596078 0.4 
0.129412 0.596078 0.4 0.129412 0.596078 0.4 
0.129412 0.596078 0.4 0.129412 0.596078 0.4 
0.129412 0.596078 0.4 0.129412 0.596078 0.4 
0.129412 0.596078 0.4 0.129412 0.596078 0.4 
0.129412 0.596078 0.4 0.129412 0.596078 0.4 
0.129412 0.596078 0.4 0.129412 0.596078 0.4 
0.129412 0.596078 0.4 0.129412 0.596078 0.4 
0.129412 0.596078 0.4 0.129412 0.596078 0.4 
0.129412 0.596078 0.4 0.129412 0.596078 0.4 
0.129412 0.596078 0.4 0.129412 0.596078 0.4 
0.129412 0.596078 0.4 0.129412 0.596078 0.4 
0.129412 0.596078 0.4 0.129412 0.596078 0.4 
0.129412 0.596078 0.4 0.129412 0.596078 0.4 
0.129412 0.596078 0.4 0.129412 0.596078 0.4 
0.129412 0.596078 0.4 0.129412 0.596078 0.4 
0.129412 0.596078 0.4 0.129412 0.596078 0.4 
0.129412 0.596078 0.4 0.129412 0.596078 0.4 
0.129412 0.596078 0.4 0.129412 0.596078 0.4 
0.129412 0.596078 0.4 0.129412 0.596078 0.4 
0.129412 0.596078 0.4 0.129412 0.596078 0.4 
0.129412 0.596078 0.4 0.129412 0.596078 0.4 
0.129412 0.596078 0.4 0.129412 0.596078 0.4 
0.129412 0.596078 0.4 0.129412 0.596078 0.4 
0.129412 0.596078 0.4 0.129412 0.596078 0.4 
0.129412 0.596078 0.4 0.129412 0.596078 0.4 
0.129412 0.596078 0.4 0.129412 0.596078 0.4 
0.129412 0.596078 0.4 0.129412 0.596078 0.4 
0.129412 0.596078 0.4 0.129412 0.596078 0.4 
0.129412 0.596078 0.4 0.129412 0.596078 0.4 
0.129412 0.596078 0.4 0.129412 0.596078 0.4 
0.129412 0.596078 0.4 0.129412 0.596078 0.4 
0.129412 0.596078 0.4 0.129412 0.596078 0.4 
0.129412 0.596078 0.4 0.129412 0.596078 0.4 
0.129412 0.596078 0.4 0.129412 0.596078 0.4 
0.129412 0.596078 0.4 0.129412 0.596078 0.4 
0.129412 0.596078 0.4 0.129412 0.596078 0.4 
0.129412 0.596078 0.4 0.129412 0.596078 0.4 
0.129412 0.596078 0.4 0.129412 0.596078 0.4 
0.129412 0.596078 0.4 0.129412 0.596078 0.4 
0.129412 0.596078 0.4 0.129412 0.596078 0.4 
0.129412 0.596078 0.4 0.129412 0.596078 0.4 
0.129412 0.596078 0.4 0.129412 0.596078 0.4 
0.129412 0.596078 0.4 0.129412 0.596078 0.4 
0.129412 0.596078 0.4 0.129412 0.596078 0.4 
0.129412 0.596078 0.4 0.129412 0.596078 0.4 
0.129412 0.596078 0.4 0.129412 0.596078 0.4 
0.129412 0.596078 0.4 0.129412 0.596078 0.4 
0.129412 0.596078 0.4 0.129412 0.596078 0.4 
0.129412 0.596078 0.4 0.129412 0.596078 0.4 
0.129412 0.596078 0.4 0.129412 0.596078 0.4 
0.129412 0.596078 0.4 0.129412 0.596078 0.4 
0.129412 0.596078 0.4 0.129412 0.596078 0.4 
0.129412 0.596078 0.4 0.129412 0.596078 0.4 
0.129412 0.596078 0.4 0.129412 0.596078 0.4 
0.129412 0.596078 0.4 0.129412 0.596078 0.4 
0.129412 0.596078 0.4 0.129412 0.596078 0.4 
0.129412 0.596078 0.4 0.129412 0.596078 0.4 
0.129412 0.596078 0.4 0.129412 0.596078 0.4 
0.129412 0.596078 0.4 0.129412 0.596078 0.4 
0.129412 0.596078 0.4 0.129412 0.596078 0.4 
0.129412 0.596078 0.4 0.129412 0.596078 0.4 
0.129412 0.596078 0.4 0.129412 0.596078 0.4 
0.129412 0.596078 0.4 0.129412 0.596078 0.4 
0.129412 0.596078 0.4 0.129412 0.596078 0.4 
0.129412 0.596078 0.4 0.129412 0.596078 0.4 
0.129412 0.596078 0.4 0.129412 0.596078 0.4 
0.129412 0.596078 0.4 0.129412 0.596078 0.4 
0.129412 0.596078 0.4 0.129412 0.596078 0.4 
0.129412 0.596078 0.4 0.129412 0.596078 0.4 
0.129412 0.596078 0.4 0.129412 0.596078 0.4 
0.129412 0.596078 0.4 0.129412 0.596078 0.4 
0.129412 0.596078 0.4 0.129412 0.596078 0.4 
0.129412 0.596078 0.4 0.129412 0.596078 0.4 
0.129412 0.596078 0.4 0.129412 0.596078 0.4 
0.129412 0.596078 0.4 0.129412 0.596078 0.4 
0.129412 0.596078 0.4 0.129412 0.596078 0.4 
0.129412 0.596078 0.4 0.129412 0.596078 0.4 
0.129412 0.596078 0.4 0.129412 0.596078 0.4 
0.129412 0.596078 0.4 0.129412 0.596078 0.4 
0.129412 0.596078 0.4 0.129412 0.596078 0.4 
0.129412 0.596078 0.4 0.129412 0.596078 0.4 
0.129412 0.596078 0.4 0.129412 0.596078 0.4 
0.129412 0.596078 0.4 0.129412 0.596078 0.4 
0.129412 0.596078 0.4 0.129412 0.596078 0.4 
0.129412 0.596078 0.4 0.129412 0.596078 0.4 
0.129412 0.596078 0.4 0.129412 0.596078 0.4 
0.129412 0.596078 0.4 0.129412 0.596078 0.4 
0.129412 0.596078 0.4 0.129412 0.596078 0.4 
0.129412 0.596078 0.4 0.129412 0.596078 0.4 
0.129412 0.596078 0.4 0.129412 0.596078 0.4 
0.129412 0.596078 0.4 0.129412 0.596078 0.4 
0.129412 0.596078 0.4 0.129412 0.596078 0.4 
0.129412 0.596078 0.4 0.129412 0.596078 0.4 
0.129412 0.596078 0.4 0.129412 0.596078 0.4 
0.129412 0.596078 0.4 0.129412 0.596078 0.4 
0.129412 0.596078 0.4 0.129412 0.596078 0.4 
0.129412 0.596078 0.4 0.129412 0.596078 0.4 
0.129412 0.596078 0.4 0.129412 0.596078 0.4 
0.129412 0.596078 0.4 0.129412 0.596078 0.4 
0.129412 0.596078 0.4 0.129412 0.596078 0.4 