# vtk DataFile Version 4.2
vtk output
ASCII
DATASET POLYDATA
POINTS 1821 float
161.384 168.498 116.637 164.61 168.683 116.876 164.866 168.448 117.095 
162.088 169.277 116.453 163.469 169.008 116.599 166.245 169.659 116.925 
166.633 169.776 117.03 166.811 169.767 117.172 166.172 170.077 116.841 
166.791 169.973 117.095 152.594 164.498 118.742 154.068 165.576 118.137 
155.366 166.037 117.801 156.96 165.823 117.901 160.327 166.445 117.858 
153.002 167.937 118.038 163.54 167.52 117.494 153.176 168.841 117.99 
158.519 168.321 116.867 165.581 168.451 117.556 166.228 168.954 117.348 
166.395 168.985 117.561 166.514 169.233 117.357 166.971 170.018 117.295 
166.866 169.642 117.438 167.07 169.923 117.481 167.112 170.155 117.486 
161.977 170.87 116.511 166.371 171.222 117.071 157.556 171.633 117.228 
162.813 171.756 116.611 166.569 171.878 117.359 155.903 172.18 117.866 
156.441 172.168 117.712 166.827 172.402 117.724 166.374 173.258 117.565 
162.867 175.461 118.108 164.015 175.02 117.687 163.831 176.111 118.444 
164.147 167.474 117.921 152.057 167.704 118.528 165.872 168.519 117.911 
166.321 168.877 117.938 166.65 169.256 118.059 166.931 169.749 117.928 
167.042 169.826 117.614 153.25 170.247 118.235 167.141 171.289 118.245 
154.17 172.138 118.847 167.019 172.649 118.155 155.546 172.779 118.666 
156.899 173.142 118.41 166.278 174.7 117.972 162.633 175.627 118.374 
166.567 175.423 118.443 163.487 176.195 118.647 166.439 176.142 118.643 
165.561 176.714 118.777 166.282 177.044 119.084 166.578 177.074 119.182 
153.061 163.109 120 158.763 165.279 118.811 164.85 167.691 118.437 
165.33 168.015 118.644 152.109 170.34 119.236 167.057 171.301 119.176 
157.375 173.873 119.373 161.375 175.478 119.242 162.155 175.798 119.003 
163.246 176.427 119.265 166.896 176.494 119.359 164.3 177.069 119.88 
164.807 176.95 119.255 166.863 176.88 119.323 166.392 177.283 119.423 
166.686 177.305 119.395 166.666 177.417 119.595 166.797 177.366 119.486 
169.004 180.013 119.009 169.004 180.013 119.009 169.004 180.013 119.009 
169.004 180.013 119.009 169.004 180.013 119.009 154.767 162.993 120.555 
149.917 164.212 120.192 163.806 166.653 119.899 150.441 168.589 120.082 
166.681 170.644 119.867 167.134 172.77 119.278 166.983 172.934 119.881 
156.588 173.854 120.199 162.667 176.469 120.49 166.768 176.644 120.14 
166.876 176.728 119.741 165.166 177.295 120.232 166.414 177.389 119.994 
166.693 177.437 119.721 166.843 177.306 119.534 166.789 177.419 119.603 
169.004 180.013 119.009 158.124 163.901 120.762 164.963 168 121.012 
152.25 172.248 121.515 166.506 173.047 120.989 163.041 176.619 121.192 
166.739 177.096 119.931 166.531 177.185 120.447 165.859 177.365 120.602 
166.316 177.491 120.473 166.462 177.464 120.432 166.423 177.533 120.595 
162.615 165.681 121.616 149.798 170.558 122.294 166.303 176.402 121.161 
166.165 177.091 121.012 166.381 177.441 120.786 166.484 177.482 120.614 
166.433 177.531 120.697 162.975 166.114 122.438 164.718 171.388 123.209 
156.334 173.947 122.506 165.569 176.092 122.325 165.281 176.379 122.584 
165.597 176.848 122.084 165.289 177.017 122.215 166.458 177.506 120.719 
165.443 177.087 122.121 168 181.009 123.017 168 181.009 123.017 
168 181.009 123.017 168 181.009 123.017 168 181.009 123.017 
143.524 156.97 125.724 159.224 163.213 123.657 162.943 166.676 123.644 
150.764 172.001 124.295 159.858 174.653 124.088 163.296 175.851 123.308 
163.919 176.135 123.178 164.572 176.589 122.821 165.33 176.78 122.383 
165.454 176.996 122.192 167 181.009 124.017 167 181.009 124.017 
167 181.009 124.017 168 181.009 123.018 167 181.009 124.017 
167 181.009 124.017 168.004 182.013 124.009 168.004 182.013 124.009 
168.004 182.013 124.009 168.004 182.013 124.009 168.004 182.013 124.009 
143.333 156.227 126.29 142.366 157.061 126.215 144.39 157.53 125.433 
143.352 161.633 125.329 160.045 163.575 124.523 160.859 164.23 124.515 
160.84 164.216 124.928 162.998 167.792 124.509 150.656 171.885 124.917 
151.182 172.13 124.999 155.488 173.264 124.861 163.955 173.057 124.143 
163.876 173.745 124.121 161.6 174.578 125.003 162.578 175.092 124.296 
163.865 174.567 123.956 163.913 175.515 123.603 163.223 175.445 123.901 
164.318 176.055 123.337 164.15 176.073 123.343 164.564 176.296 123.103 
164.371 176.249 123.253 164.296 176.325 123.141 164.829 176.543 122.826 
165 180.009 125.017 165 180.009 125.017 165 180.009 125.017 
165 180.009 125.017 165 180.009 125.017 165.658 182.144 126.596 
165.652 182.16 126.611 165.663 182.137 126.587 167 181.009 124.018 
165.651 182.162 126.612 165.658 182.147 126.597 167.004 182.513 125.011 
167.004 182.513 125.011 167.004 182.513 125.011 168.004 182.013 124.009 
167.004 182.513 125.011 167.004 182.513 125.011 167.004 182.513 125.011 
167.004 182.513 125.011 167.004 182.513 125.011 142.145 158.37 126.104 
142.13 158.992 126.095 144.851 165.896 125.475 161.868 166.459 125.634 
145.821 167.621 125.542 151.543 172.197 125.228 162.604 173.746 125.109 
161.944 173.83 125.893 162.741 174.606 124.577 161.503 174.39 126.319 
161.14 174.442 126.496 162.91 175.218 124.251 163.052 175.304 124.16 
164.287 176.203 123.3 165 180.009 125.018 165.648 182.164 126.618 
165.638 182.184 126.637 165.638 182.193 126.641 167.004 182.513 125.011 
165.616 182.241 126.687 165.603 182.273 126.716 167.004 182.513 125.011 
144.206 155.325 127.281 155.075 159.86 126.6 157.512 161.417 126.173 
160.261 163.849 125.955 146.734 169.402 126.849 149.809 171.147 126.778 
161.633 173.918 126.614 160.577 174.056 127.142 161.536 174.442 126.821 
161.091 174.341 126.928 161.388 174.564 126.767 161.442 174.617 126.997 
163.029 175.22 124.246 165.562 182.331 126.793 165.551 182.35 126.815 
165.632 182.196 126.65 165.561 182.334 126.796 165.517 182.444 126.889 
165.595 182.272 126.728 165.568 182.353 126.79 165.502 182.502 126.928 
165.522 182.47 126.892 165.545 182.416 126.843 165.531 182.452 126.874 
139.366 155.378 128.676 139.449 157.404 128.333 155.926 159.965 127.4 
144.581 167.78 127.949 161.158 169.746 127.793 147.729 170.166 127.556 
161.619 172.783 126.99 160.467 173.688 127.664 161.342 174.169 127.077 
161.525 174.583 127.014 161.507 174.624 127.057 161.559 174.806 127.026 
161.564 174.792 127.056 161.582 174.808 126.994 161.594 174.854 127.049 
163.395 182.087 129.672 163.367 182.065 129.708 165.541 182.379 126.838 
163.419 182.149 129.672 165.483 182.528 126.961 165.467 182.569 126.995 
165.532 182.444 126.87 165.47 182.567 126.99 165.462 182.585 127.007 
156.808 160.376 128.046 157.295 160.771 128.273 157.052 160.438 128.657 
140.968 162.447 128.718 148.463 170.327 128.224 149.013 170.405 128.359 
160.574 173.148 128.017 160.106 173.05 128.579 159.843 173.311 128.339 
161.004 176.013 129.009 161.004 176.013 129.009 161.004 176.013 129.009 
161.572 174.753 127.048 161.004 176.013 129.009 161.004 176.013 129.009 
161.596 174.829 127.043 163.337 182.057 129.749 163.314 182.041 129.789 
163.417 182.183 129.701 163.413 182.202 129.73 163.422 182.237 129.73 
163.427 182.256 129.739 163.429 182.271 129.743 137.13 153.395 130.708 
136.989 154.67 130.481 138.358 158.546 129.846 158.668 163.037 129.396 
143.459 167.318 129.653 144.898 168.764 130.381 145.414 169.082 130.346 
148.4 169.879 129.431 149.727 170.205 128.931 157.325 171.523 130.339 
158.051 171.981 129.727 159.958 172.139 129.146 159.956 172.909 128.925 
159.749 173.171 128.855 159.786 173.133 128.969 161.004 176.013 129.009 
162 180.009 130.017 162 180.009 130.017 162 180.009 130.017 
162 180.009 130.017 162 180.009 130.017 163.233 182.029 129.923 
163.294 182.035 129.831 163.158 182.039 130.047 163.346 182.209 129.841 
163.419 182.268 129.762 163.407 182.263 129.775 137 151.435 131.797 
156.483 159.285 130.581 156.69 159.449 130.674 157.173 160.38 130.062 
157.049 160.235 130.763 143.543 167.637 130.271 153.266 168.931 131.176 
159.139 168.579 130.579 144.772 168.7 131.331 146.733 169.351 130.678 
147.842 169.417 130.509 145.721 169.188 130.59 158.788 171.541 130.166 
158.273 171.12 131.032 157.915 171.417 130.823 159.483 172.824 129.301 
159.813 173.043 129.024 162 180.009 130.017 162.862 181.919 130.483 
162.885 181.929 130.447 162.937 181.948 130.375 163.241 182.032 129.92 
162.985 181.97 130.302 163.112 182.017 130.124 163.09 182.041 130.168 
163.292 182.165 129.913 163.205 182.119 130.029 163.224 182.129 129.997 
163.38 182.24 129.809 136.195 150.156 133.008 135.405 153.132 131.855 
145.266 152.789 131.593 151.076 155.034 131.407 153.288 155.942 131.934 
155.091 157.616 131.351 156.595 159.479 131.286 150.072 167.474 132.568 
143.592 168.078 131.882 143.957 168.347 132.319 144.564 168.565 132.346 
157.369 171.061 131.874 157.927 171.105 131.575 157.657 171.242 131.583 
159.299 172.453 129.633 159.42 172.622 129.516 159.004 175.013 132.009 
159.004 175.013 132.009 159.004 175.013 132.009 159.004 175.013 132.009 
159.004 175.013 132.009 162.835 181.91 130.523 162.838 181.911 130.517 
163.024 182.006 130.263 162.894 181.942 130.442 162.928 181.959 130.394 
163.138 182.078 130.114 137.411 150.053 133.074 133.089 152.153 133.962 
135.333 156.336 132.411 156.692 161.035 133.311 150.712 166.858 133.35 
145.175 168.579 132.915 145.855 168.654 132.582 157.43 170.83 132.264 
157.787 171.087 132.037 157.575 171.16 132.137 157.74 171.228 131.93 
157.674 171.257 132.106 159.004 175.013 132.009 162.821 181.907 130.542 
162.848 181.921 130.506 132.816 149.589 134.935 132.649 150.131 134.784 
153.318 155.452 133.074 154.872 156.93 132.969 155.075 157.119 133.475 
155.82 158.577 133.605 148.747 165.969 134.406 156.704 164.895 134.436 
146.454 167.955 133.845 155.83 169.318 133.937 156.461 169.81 133.118 
157.543 170.384 132.393 157.126 170.302 132.599 157.675 170.908 132.213 
157.714 171.156 132.207 157.724 171.238 132.151 157.671 171.241 132.204 
138.98 148.834 135.295 131.996 150.633 135.488 132.111 152.755 135.464 
133.62 156.945 135.104 155.137 157.25 134.082 155.383 158.205 135.036 
148.625 164.061 136.393 147.557 164.736 136.018 148.555 164.999 135.418 
[...]
POINT_DATA 1821
COLOR_SCALARS scalars 3
0.129412 0.596078 0.4 0.129412 0.596078 0.4 0.129412 0.596078 0.4 
0.129412 0.596078 0.4 0.129412 0.596078 0.4 
0.129412 0.596078 0.4 0.129412 0.596078 0.4 
0.129412 0.596078 0.4 0.129412 0.596078 0.4 
0.129412 0.596078 0.4 0.129412 0.596078 0.4 
0.129412 0.596078 0.4 0.129412 0.596078 0.4 
0.129412 0.596078 0.4 0.129412 0.596078 0.4 
0.129412 0.596078 0.4 0.129412 0.596078 0.4 
0.129412 0.596078 0.4 0.129412 0.596078 0.4 
0.129412 0.596078 0.4 0.129412 0.596078 0.4 
0.129412 0.596078 0.4 0.129412 0.596078 0.4 
0.129412 0.596078 0.4 0.129412 0.596078 0.4 
0.129412 0.596078 0.4 0.129412 0.596078 0.4 
0.129412 0.596078 0.4 0.129412 0.596078 0.4 
0.129412 0.596078 0.4 0.129412 0.596078 0.4 
0.129412 0.596078 0.4 0.129412 0.596078 0.4 
0.129412 0.596078 0.4 0.129412 0.596078 0.4 
0.129412 0.596078 0.4 0.129412 0.596078 0.4 
0.129412 0.596078 0.4 0.129412 0.596078 0.4 
0.129412 0.596078 0.4 0.129412 0.596078 0.4 
0.129412 0.596078 0.4 0.129412 0.596078 0.4 
0.129412 0.596078 0.4 0.129412 0.596078 0.4 
0.129412 0.596078 0.4 0.129412 0.596078 0.4 
0.129412 0.596078 0.4 0.129412 0.596078 0.4 
0.129412 0.596078 0.4 0.129412 0.596078 0.4 
0.129412 0.596078 0.4 0.129412 0.596078 0.4 
0.129412 0.596078 0.4 0.129412 0.596078 0.4 
0.129412 0.596078 0.4 0.129412 0.596078 0.4 
0.129412 0.596078 0.4 0.129412 0.596078 0.4 
0.129412 0.596078 0.4 0.129412 0.596078 0.4 
0.129412 0.596078 0.4 0.129412 0.596078 0.4 
0.129412 0.596078 0.4 0.129412 0.596078 0.4 
0.129412 0.596078 0.4 0.129412 0.596078 0.4 
0.129412 0.596078 0.4 0.129412 0.596078 0.4 
0.129412 0.596078 0.4 0.129412 0.596078 0.4 
0.129412 0.596078 0.4 0.129412 0.596078 0.4 
0.129412 0.596078 0.4 0.129412 0.596078 0.4 
0.129412 0.596078 0.4 0.129412 0.596078 0.4 
0.129412 0.596078 0.4 0.129412 0.596078 0.4 
0.129412 0.596078 0.4 0.129412 0.596078 0.4 
0.129412 0.596078 0.4 0.129412 0.596078 0.4 
0.129412 0.596078 0.4 0.129412 0.596078 0.4 
0.129412 0.596078 0.4 0.129412 0.596078 0.4 
0.129412 0.596078 0.4 0.129412 0.596078 0.4 
0.129412 0.596078 0.4 0.129412 0.596078 0.4 
0.129412 0.596078 0.4 0.129412 0.596078 0.4 
0.129412 0.596078 0.4 0.129412 0.596078 0.4 
0.129412 0.596078 0.4 0.129412 0.596078 0.4 
0.129412 0.596078 0.4 0.129412 0.596078 0.4 
0.129412 0.596078 0.4 0.129412 0.596078 0.4 
0.129412 0.596078 0.4 0.129412 0.596078 0.4 
0.129412 0.596078 0.4 0.129412 0.596078 0.4 
0.129412 0.596078 0.4 0.129412 0.596078 0.4 
0.129412 0.596078 0.4 0.129412 0.596078 0.4 
0.129412 0.596078 0.4 0.129412 0.596078 0.4 
0.129412 0.596078 0.4 0.129412 0.596078 0.4 
0.129412 0.596078 0.4 0.129412 0.596078 0.4 
0.129412 0.596078 0.4 0.129412 0.596078 0.4 
0.129412 0.596078 0.4 0.129412 0.596078 0.4 
0.129412 0.596078 0.4 0.129412 0.596078 0.4 
0.129412 0.596078 0.4 0.129412 0.596078 0.4 
0.129412 0.596078 0.4 0.129412 0.596078 0.4 
0.129412 0.596078 0.4 0.129412 0.596078 0.4 
0.129412 0.596078 0.4 0.129412 0.596078 0.4 
0.129412 0.596078 0.4 0.129412 0.596078 0.4 
0.129412 0.596078 0.4 0.129412 0.596078 0.4 
0.129412 0.596078 0.4 0.129412 0.596078 0.4 
0.129412 0.596078 0.4 0.129412 0.596078 0.4 
0.129412 0.596078 0.4 0.129412 0.596078 0.4 
0.129412 0.596078 0.4 0.129412 0.596078 0.4 
0.129412 0.596078 0.4 0.129412 0.596078 0.4 
0.129412 0.596078 0.4 0.129412 0.596078 0.4 
0.129412 0.596078 0.4 0.129412 0.596078 0.4 
0.129412 0.596078 0.4 0.129412 0.596078 0.4 
0.129412 0.596078 0.4 0.129412 0.596078 0.4 
0.129412 0.596078 0.4 0.129412 0.596078 0.4 
0.129412 0.596078 0.4 0.129412 0.596078 0.4 
0.129412 0.596078 0.4 0.129412 0.596078 0.4 
0.129412 0.596078 0.4 0.129412 0.596078 0.4 
0.129412 0.596078 0.4 0.129412 0.596078 0.4 
0.129412 0.596078 0.4 0.129412 0.596078 0.4 
0.129412 0.596078 0.4 0.129412 0.596078 0.4 
0.129412 0.596078 0.4 0.129412 0.596078 0.4 
0.129412 0.596078 0.4 0.129412 0.596078 0.4 
0.129412 0.596078 0.4 0.129412 0.596078 0.4 
0.129412 0.596078 0.4 0.129412 0.596078 0.4 
0.129412 0.596078 0.4 0.129412 0.596078 0.4 
0.129412 0.596078 0.4 0.129412 0.596078 0.4 
0.129412 0.596078 0.4 0.129412 0.596078 0.4 
0.129412 0.596078 0.4 0.129412 0.596078 0.4 
0.129412 0.596078 0.4 0.129412 0.596078 0.4 
0.129412 0.596078 0.4 0.129412 0.596078 0.4 
0.129412 0.596078 0.4 0.129412 0.596078 0.4 
0.129412 0.596078 0.4 0.129412 0.596078 0.4 
0.129412 0.596078 0.4 0.129412 0.596078 0.4 
0.129412 0.596078 0.4 0.129412 0.596078 0.4 
0.129412 0.596078 0.4 0.129412 0.596078 0.4 
0.129412 0.596078 0.4 0.129412 0.596078 0.4 
0.129412 0.596078 0.4 0.129412 0.596078 0.4 
0.129412 0.596078 0.4 0.129412 0.596078 0.4 
0.129412 0.596078 0.4 0.129412 0.596078 0.4 
0.129412 0.596078 0.4 0.129412 0.596078 0.4 
0.129412 0.596078 0.4 0.129412 0.596078 0.4 
0.129412 0.596078 0.4 0.129412 0.596078 0.4 
0.129412 0.596078 0.4 0.129412 0.596078 0.4 
0.129412 0.596078 0.4 0.129412 0.596078 0.4 
0.129412 0.596078 0.4 0.129412 0.596078 0.4 
0.129412 0.596078 0.4 0.129412 0.596078 0.4 
0.129412 0.596078 0.4 0.129412 0.596078 0.4 
0.129412 0.596078 0.4 0.129412 0.596078 0.4 
0.129412 0.596078 0.4 0.129412 0.596078 0.4 
0.129412 0.596078 0.4 0.129412 0.596078 0.4 
0.129412 0.596078 0.4 0.129412 0.596078 0.4 
0.129412 0.596078 0.4 0.129412 0.596078 0.4 
0.129412 0.596078 0.4 0.129412 0.596078 0.4 
0.129412 0.596078 0.4 0.129412 0.596078 0.4 
0.129412 0.596078 0.4 0.129412 0.596078 0.4 
0.129412 0.596078 0.4 0.129412 0.596078 0.4 
0.129412 0.596078 0.4 0.129412 0.596078 0.4 
0.129412 0.596078 0.4 0.129412 0.596078 0.4 
0.129412 0.596078 0.4 0.129412 0.596078 0.4 
0.129412 0.596078 0.4 0.129412 0.596078 0.4 
0.129412 0.596078 0.4 0.129412 0.596078 0.4 
0.129412 0.596078 0.4 0.129412 0.596078 0.4 
0.129412 0.596078 0.4 0.129412 0.596078 0.4 
0.129412 0.596078 0.4 0.129412 0.596078 0.4 
0.129412 0.596078 0.4 0.129412 0.596078 0.4 
0.129412 0.596078 0.4 0.129412 0.596078 0.4 
0.129412 0.596078 0.4 0.129412 0.596078 0.4 
0.129412 0.596078 0.4 0.129412 0.596078 0.4 
0.129412 0.596078 0.4 0.129412 0.596078 0.4 
0.129412 0.596078 0.4 0.129412 0.596078 0.4 
0.129412 0.596078 0.4 0.129412 0.596078 0.4 
0.129412 0.596078 0.4 0.129412 0.596078 0.4 
0.129412 0.596078 0.4 0.129412 0.596078 0.4 
0.129412 0.596078 0.4 0.129412 0.596078 0.4 
0.129412 0.596078 0.4 0.129412 0.596078 0.4 
0.129412 0.596078 0.4 0.129412 0.596078 0.4 
0.129412 0.596078 0.4 0.129412 0.596078 0.4 
0.129412 0.596078 0.4 0.129412 0.596078 0.4 
0.129412 0.596078 0.4 0.129412 0.596078 0.4 
0.129412 0.596078 0.4 0.129412 0.596078 0.4 
0.129412 0.596078 0.4 0.129412 0.596078 0.4 
0.129412 0.596078 0.4 0.129412 0.596078 0.4 
0.129412 0.596078 0.4 0.129412 0.596078 0.4 
0.129412 0.596078 0.4 0.129412 0.596078 0.4 
0.129412 0.596078 0.4 0.129412 0.596078 0.4 
0.129412 0.596078 0.4 0.129412 0.596078 0.4 
0.129412 0.596078 0.4 0.129412 0.596078 0.4 
0.129412 0.596078 0.4 0.129412 0.596078 0.4 
0.129412 0.596078 0.4 0.129412 0.596078 0.4 
0.129412 0.596078 0.4 0.129412 0.596078 0.4 
0.129412 0.596078 0.4 0.129412 0.596078 0.4 
0.129412 0.596078 0.4 0.129412 0.596078 0.4 
0.129412 0.596078 0.4 0.129412 0.596078 0.4 
0.129412 0.596078 0.4 0.129412 0.596078 0.4 
0.129412 0.596078 0.4 0.129412 0.596078 0.4 
0.129412 0.596078 0.4 0.129412 0.596078 0.4 
0.129412 0.596078 0.4 0.129412 0.596078 0.4 
0.129412 0.596078 0.4 0.129412 0.596078 0.4 
0.129412 0.596078 0.4 0.129412 0.596078 0.4 
0.129412 0.596078 0.4 0.129412 0.596078 0.4 
0.129412 0.596078 0.4 0.129412 0.596078 0.4 
0.129412 0.596078 0.4 0.129412 0.596078 0.4 
0.129412 0.596078 0.4 0.129412 0.596078 0.4 
0.129412 0.596078 0.4 0.129412 0.596078 0.4 
0.129412 0.596078 0.4 0.129412 0.596078 0.4 
0.129412 0.596078 0.4 0.129412 0.596078 0.4 
0.129412 0.596078 0.4 0.129412 0.596078 0.4 
0.129412 0.596078 0.4 0.129412 0.596078 0.4 
0.129412 0.596078 0.4 0.129412 0.596078 0.4 
0.129412 0.596078 0.4 0.129412 0.596078 0.4 
0.129412 0.596078 0.4 0.129412 0.596078 0.4 
0.129412 0.596078 0.4 0.129412 0.596078 0.4 
0.129412 0.596078 0.4 0.129412 0.596078 0.4 
0.129412 0.596078 0.4 0.129412 0.596078 0.4 
0.129412 0.596078 0.4 0.129412 0.596078 0.4 
0.129412 0.596078 0.4 0.129412 0.596078 0.4 
0.129412 0.596078 0.4 0.129412 0.596078 0.4 
0.129412 0.596078 0.4 0.129412 0.596078 0.4 
0.129412 0.596078 0.4 0.129412 0.596078 0.4 
0.129412 0.596078 0.4 0.129412 0.596078 0.4 
0.129412 0.596078 0.4 0.129412 0.596078 0.4 
0.129412 0.596078 0.4 0.129412 0.596078 0.4 
0.129412 0.596078 0.4 0.129412 0.596078 0.4 
0.129412 0.596078 0.4 0.129412 0.596078 0.4 
0.129412 0.596078 0.4 0.129412 0.596078 0.4 
0.129412 0.596078 0.4 0.129412 0.596078 0.4 
0.129412 0.596078 0.4 0.129412 0.596078 0.4 
0.129412 0.596078 0.4 0.129412 0.596078 0.4 
0.129412 0.596078 0.4 0.129412 0.596078 0.4 
0.129412 0.596078 0.4 0.129412 0.596078 0.4 
0.129412 0.596078 0.4 0.129412 0.596078 0.4 
0.129412 0.596078 0.4 0.129412 0.596078 0.4 
0.129412 0.596078 0.4 0.129412 0.596078 0.4 
0.129412 0.596078 0.4 0.129412 0.596078 0.4 
0.129412 0.596078 0.4 0.129412 0.596078 0.4 
0.129412 0.596078 0.4 0.129412 0.596078 0.4 
0.129412 0.596078 0.4 0.129412 0.596078 0.4 
0.129412 0.596078 0.4 0.129412 0.596078 0.4 
0.129412 0.596078 0.4 0.129412 0.596078 0.4 
0.129412 0.596078 0.4 0.129412 0.596078 0.4 
0.129412 0.596078 0.4 0.129412 0.596078 0.4 
0.129412 0.596078 0.4 0.129412 0.596078 0.4 
0.129412 0.596078 0.4 0.129412 0.596078 0.4 
0.129412 0.596078 0.4 0.129412 0.596078 0.4 
0.129412 0.596078 0.4 0.129412 0.596078 0.4 
0.129412 0.596078 0.4 0.129412 0.596078 0.4 
0.129412 0.596078 0.4 0.129412 0.596078 0.4 
0.129412 0.596078 0.4 0.129412 0.596078 0.4 
0.129412 0.596078 0.4 0.129412 0.596078 0.4 
0.129412 0.596078 0.4 0.129412 0.596078 0.4 
0.129412 0.596078 0.4 0.129412 0.596078 0.4 
0.129412 0.596078 0.4 0.129412 0.596078 0.4 
0.129412 0.596078 0.4 0.129412 0.596078 0.4 
0.129412 0.596078 0.4 0.129412 0.596078 0.4 
0.129412 0.596078 0.4 0.129412 0.596078 0.4 
0.129412 0.596078 0.4 0.129412 0.596078 0.4 
0.129412 0.596078 0.4 0.129412 0.596078 0.4 
0.129412 0.596078 0.4 0.129412 0.596078 0.4 
0.129412 0.596078 0.4 0.129412 0.596078 0.4 
0.129412 0.596078 0.4 0.129412 0.596078 0.4 
0.129412 0.596078 0.4 0.129412 0.596078 0.4 
0.129412 0.596078 0.4 0.129412 0.596078 0.4 
0.129412 0.596078 0.4 0.129412 0.596078 0.4 
0.129412 0.596078 0.4 0.129412 0.596078 0.4 
0.129412 0.596078 0.4 0.129412 0.596078 0.4 
0.129412 0.596078 0.4 0.129412 0.596078 0.4 
0.129412 0.596078 0.4 0.129412 0.596078 0.4 
0.129412 0.596078 0.4 0.129412 0.596078 0.4 
0.129412 0.596078 0.4 0.129412 0.596078 0.4 
0.129412 0.596078 0.4 0.129412 0.596078 0.4 
0.129412 0.596078 0.4 0.129412 0.596078 0.4 
0.129412 0.596078 0.4 0.129412 0.596078 0.4 
0.129412 0.596078 0.4 0.129412 0.596078 0.4 
0.129412 0.596078 0.4 0.129412 0.596078 0.4 
0.129412 0.596078 0.4 0.129412 0.596078 0.4 
0.129412 0.596078 0.4 0.129412 0.596078 0.4 
0.129412 0.596078 0.4 0.129412 0.596078 0.4 
0.129412 0.596078 0.4 0.129412 0.596078 0.4 
0.129412 0.596078 0.4 0.129412 0.596078 0.4 
0.129412 0.596078 0.4 0.129412 0.596078 0.4 
0.129412 0.596078 0.4 0.129412 0.596078 0.4 
0.129412 0.596078 0.4 0.129412 0.596078 0.4 
0.129412 0.596078 0.4 0.129412 0.596078 0.4 
0.129412 0.596078 0.4 0.129412 0.596078 0.4 
0.129412 0.596078 0.4 0.129412 0.596078 0.4 
0.129412 0.596078 0.4 0.129412 0.596078 0.4 
0.129412 0.596078 0.4 0.129412 0.596078 0.4 
0.129412 0.596078 0.4 0.129412 0.596078 0.4 
0.129412 0.596078 0.4 0.129412 0.596078 0.4 
0.129412 0.596078 0.4 0.129412 0.596078 0.4 
0.129412 0.596078 0.4 0.129412 0.596078 0.4 
0.129412 0.596078 0.4 0.129412 0.596078 0.4 
0.129412 0.596078 0.4 0.129412 0.596078 0.4 
0.129412 0.596078 0.4 0.129412 0.596078 0.4 
0.129412 0.596078 0.4 0.129412 0.596078 0.4 
0.129412 0.596078 0.4 0.129412 0.596078 0.4 
0.129412 0.596078 0.4 0.129412 0.596078 0.4 
0.129412 0.596078 0.4 0.129412 0.596078 0.4 
0.129412 0.596078 0.4 0.129412 0.596078 0.4 
0.129412 0.596078 0.4 0.129412 0.596078 0.4 
0.129412 0.596078 0.4 0.129412 0.596078 0.4 
0.129412 0.596078 0.4 0.129412 0.596078 0.4 
0.129412 0.596078 0.4 0.129412 0.596078 0.4 
0.129412 0.596078 0.4 0.129412 0.596078 0.4 
0.129412 0.596078 0.4 0.129412 0.596078 0.4 
0.129412 0.596078 0.4 0.129412 0.596078 0.4 
0.129412 0.596078 0.4 0.129412 0.596078 0.4 
0.129412 0.596078 0.4 0.129412 0.596078 0.4 
0.129412 0.596078 0.4 0.129412 0.596078 0.4 
0.129412 0.596078 0.4 0.129412 0.596078 0.4 
0.129412 0.596078 0.4 0.129412 0.596078 0.4 
0.129412 0.596078 0.4 0.129412 0.596078 0.4 
0.129412 0.596078 0.4 0.129412 0.596078 0.4 
0.129412 0.596078 0.4 0.129412 0.596078 0.4 
0.129412 0.596078 0.4 0.129412 0.596078 0.4 
0.129412 0.596078 0.4 0.129412 0.596078 0.4 
0.129412 0.596078 0.4 0.129412 0.596078 0.4 
0.129412 0.596078 0.4 0.129412 0.596078 0.4 
0.129412 0.596078 0.4 0.129412 0.596078 0.4 
0.129412 0.596078 0.4 0.129412 0.596078 0.4 
0.129412 0.596078 0.4 0.129412 0.596078 0.4 
0.129412 0.596078 0.4 0.129412 0.596078 0.4 
0.129412 0.596078 0.4 0.129412 0.596078 0.4 
0.129412 0.596078 0.4 0.129412 0.596078 0.4 
0.129412 0.596078 0.4 0.129412 0.596078 0.4 
0.129412 0.596078 0.4 0.129412 0.596078 0.4 
0.129412 0.596078 0.4 0.129412 0.596078 0.4 
0.129412 0.596078 0.4 0.129412 0.596078 0.4 
0.129412 0.596078 0.4 0.129412 0.596078 0.4 
0.129412 0.596078 0.4 0.129412 0.596078 0.4 
0.129412 0.596078 0.4 0.129412 0.596078 0.4 
0.129412 0.596078 0.4 0.129412 0.596078 0.4 
0.129412 0.596078 0.4 0.129412 0.596078 0.4 
0.129412 0.596078 0.4 0.129412 0.596078 0.4 
0.129412 0.596078 0.4 0.129412 0.596078 0.4 
0.129412 0.596078 0.4 0.129412 0.596078 0.4 
0.129412 0.596078 0.4 0.129412 0.596078 0.4 
0.129412 0.596078 0.4 0.129412 0.596078 0.4 
0.129412 0.596078 0.4 0.129412 0.596078 0.4 
0.129412 0.596078 0.4 0.129412 0.596078 0.4 
0.129412 0.596078 0.4 0.129412 0.596078 0.4 
0.129412 0.596078 0.4 0.129412 0.596078 0.4 
0.129412 0.596078 0.4 0.129412 0.596078 0.4 
0.129412 0.596078 0.4 0.129412 0.596078 0.4 
0.129412 0.596078 0.4 0.129412 0.596078 0.4 
0.129412 0.596078 0.4 0.129412 0.596078 0.4 
0.129412 0.596078 0.4 0.129412 0.596078 0.4 
0.129412 0.596078 0.4 0.129412 0.596078 0.4 
0.129412 0.596078 0.4 0.129412 0.596078 0.4 
0.129412 0.596078 0.4 0.129412 0.596078 0.4 
0.129412 0.596078 0.4 0.129412 0.596078 0.4 
0.129412 0.596078 0.4 0.129412 0.596078 0.4 
0.129412 0.596078 0.4 0.129412 0.596078 0.4 
0.129412 0.596078 0.4 0.129412 0.596078 0.4 
0.129412 0.596078 0.4 0.129412 0.596078 0.4 
0.129412 0.596078 0.4 0.129412 0.596078 0.4 
0.129412 0.596078 0.4 0.129412 0.596078 0.4 
0.129412 0.596078 0.4 0.129412 0.596078 0.4 
0.129412 0.596078 0.4 0.129412 0.596078 0.4 
0.129412 0.596078 0.4 0.129412 0.596078 0.4 
0.129412 0.596078 0.4 0.129412 0.596078 0.4 
0.129412 0.596078 0.4 0.129412 0.596078 0.4 
0.129412 0.596078 0.4 0.129412 0.596078 0.4 
0.129412 0.596078 0.4 0.129412 0.596078 0.4 
0.129412 0.596078 0.4 0.129412 0.596078 0.4 
0.129412 0.596078 0.4 0.129412 0.596078 0.4 
0.129412 0.596078 0.4 0.129412 0.596078 0.4 
0.129412 0.596078 0.4 0.129412 0.596078 0.4 
0.129412 0.596078 0.4 0.129412 0.596078 0.4 
0.129412 0.596078 0.4 0.129412 0.596078 0.4 
0.129412 0.596078 0.4 0.129412 0.596078 0.4 
0.129412 0.596078 0.4 0.129412 0.596078 0.4 
0.129412 0.596078 0.4 0.129412 0.596078 0.4 
0.129412 0.596078 0.4 0.129412 0.596078 0.4 
0.129412 0.596078 0.4 0.129412 0.596078 0.4 
0.129412 0.596078 0.4 0.129412 0.596078 0.4 
0.129412 0.596078 0.4 0.129412 0.596078 0.4 
0.129412 0.596078 0.4 0.129412 0.596078 0.4 
0.129412 0.596078 0.4 0.129412 0.596078 0.4 
0.129412 0.596078 0.4 0.129412 0.596078 0.4 
0.129412 0.596078 0.4 0.129412 0.596078 0.4 
0.129412 0.596078 0.4 0.129412 0.596078 0.4 
0.129412 0.596078 0.4 0.129412 0.596078 0.4 
0.129412 0.596078 0.4 0.129412 0.596078 0.4 
0.129412 0.596078 0.4 0.129412 0.596078 0.4 
0.129412 0.596078 0.4 0.129412 0.596078 0.4 
0.129412 0.596078 0.4 0.129412 0.596078 0.4 
0.129412 0.596078 0.4 0.129412 0.596078 0.4 
0.129412 0.596078 0.4 0.129412 0.596078 0.4 
0.129412 0.596078 0.4 0.129412 0.596078 0.4 
0.129412 0.596078 0.4 0.129412 0.596078 0.4 
0.129412 0.596078 0.4 0.129412 0.596078 0.4 
0.129412 0.596078 0.4 0.129412 0.596078 0.4 
0.129412 0.596078 0.4 0.129412 0.596078 0.4 
0.129412 0.596078 0.4 0.129412 0.596078 0.4 
0.129412 0.596078 0.4 0.129412 0.596078 0.4 
0.129412 0.596078 0.4 0.129412 0.596078 0.4 
0.129412 0.596078 0.4 0.129412 0.596078 0.4 
0.129412 0.596078 0.4 0.129412 0.596078 0.4 
0.129412 0.596078 0.4 0.129412 0.596078 0.4 
0.129412 0.596078 0.4 0.129412 0.596078 0.4 
0.129412 0.596078 0.4 0.129412 0.596078 0.4 
0.129412 0.596078 0.4 0.129412 0.596078 0.4 
0.129412 0.596078 0.4 0.129412 0.596078 0.4 
0.129412 0.596078 0.4 0.129412 0.596078 0.4 
0.129412 0.596078 0.4 0.129412 0.596078 0.4 
0.129412 0.596078 0.4 0.129412 0.596078 0.4 
0.129412 0.596078 0.4 0.129412 0.596078 0.4 
0.129412 0.596078 0.4 0.129412 0.596078 0.4 
0.129412 0.596078 0.4 0.129412 0.596078 0.4 
0.129412 0.596078 0.4 0.129412 0.596078 0.4 
0.129412 0.596078 0.4 0.129412 0.596078 0.4 
0.129412 0.596078 0.4 0.129412 0.596078 0.4 
0.129412 0.596078 0.4 0.129412 0.596078 0.4 
0.129412 0.596078 0.4 0.129412 0.596078 0.4 
0.129412 0.596078 0.4 0.129412 0.596078 0.4 
0.129412 0.596078 0.4 0.129412 0.596078 0.4 
0.129412 0.596078 0.4 0.129412 0.596078 0.4 
0.129412 0.596078 0.4 0.129412 0.596078 0.4 
0.129412 0.596078 0.4 0.129412 0.596078 0.4 
0.129412 0.596078 0.4 0.129412 0.596078 0.4 
0.129412 0.596078 0.4 0.129412 0.596078 0.4 
0.129412 0.596078 0.4 0.129412 0.596078 0.4 
0.129412 0.596078 0.4 0.129412 0.596078 0.4 
0.129412 0.596078 0.4 0.129412 0.596078 0.4 
0.129412 0.596078 0.4 0.129412 0.596078 0.4 
0.129412 0.596078 0.4 0.129412 0.596078 0.4 
0.129412 0.596078 0.4 0.129412 0.596078 0.4 
0.129412 0.596078 0.4 0.129412 0.596078 0.4 
0.129412 0.596078 0.4 0.129412 0.596078 0.4 
0.129412 0.596078 0.4 0.129412 0.596078 0.4 
0.129412 0.596078 0.4 0.129412 0.596078 0.4 
0.129412 0.596078 0.4 0.129412 0.596078 0.4 
0.129412 0.596078 0.4 0.129412 0.596078 0.4 
0.129412 0.596078 0.4 0.129412 0.596078 0.4 
0.129412 0.596078 0.4 0.129412 0.596078 0.4 
0.129412 0.596078 0.4 0.129412 0.596078 0.4 
0.129412 0.596078 0.4 0.129412 0.596078 0.4 
0.129412 0.596078 0.4 0.129412 0.596078 0.4 
0.129412 0.596078 0.4 0.129412 0.596078 0.4 
0.129412 0.596078 0.4 0.129412 0.596078 0.4 
0.129412 0.596078 0.4 0.129412 0.596078 0.4 
0.129412 0.596078 0.4 0.129412 0.596078 0.4 
0.129412 0.596078 0.4 0.129412 0.596078 0.4 
0.129412 0.596078 0.4 0.129412 0.596078 0.4 
0.129412 0.596078 0.4 0.129412 0.596078 0.4 
0.129412 0.596078 0.4 0.129412 0.596078 0.4 
0.129412 0.596078 0.4 0.129412 0.596078 0.4 
0.129412 0.596078 0.4 0.129412 0.596078 0.4 
0.129412 0.596078 0.4 0.129412 0.596078 0.4 
0.129412 0.596078 0.4 0.129412 0.596078 0.4 
0.129412 0.596078 0.4 0.129412 0.596078 0.4 
0.129412 0.596078 0.4 0.129412 0.596078 0.4 
0.129412 0.596078 0.4 0.129412 0.596078 0.4 
0.129412 0.596078 0.4 0.129412 0.596078 0.4 
0.129412 0.596078 0.4 0.129412 0.596078 0.4 
0.129412 0.596078 0.4 0.129412 0.596078 0.4 
0.129412 0.596078 0.4 0.129412 0.596078 0.4 
0.129412 0.596078 0.4 0.129412 0.596078 0.4 
0.129412 0.596078 0.4 0.129412 0.596078 0.4 
0.129412 0.596078 0.4 0.129412 0.596078 0.4 
0.129412 0.596078 0.4 0.129412 0.596078 0.4 
0.129412 0.596078 0.4 0.129412 0.596078 0.4 
0.129412 0.596078 0.4 0.129412 0.596078 0.4 
0.129412 0.596078 0.4 0.129412 0.596078 0.4 
0.129412 0.596078 0.4 0.129412 0.596078 0.4 
0.129412 0.596078 0.4 0.129412 0.596078 0.4 
0.129412 0.596078 0.4 0.129412 0.596078 0.4 
0.129412 0.596078 0.4 0.129412 0.596078 0.4 
0.129412 0.596078 0.4 0.129412 0.596078 0.4 
0.129412 0.596078 0.4 0.129412 0.596078 0.4 
0.129412 0.596078 0.4 0.129412 0.596078 0.4 
0.129412 0.596078 0.4 0.129412 0.596078 0.4 
0.129412 0.596078 0.4 0.129412 0.596078 0.4 
0.129412 0.596078 0.4 0.129412 0.596078 0.4 
0.129412 0.596078 0.4 0.129412 0.596078 0.4 
0.129412 0.596078 0.4 0.129412 0.596078 0.4 
0.129412 0.596078 0.4 0.129412 0.596078 0.4 
0.129412 0.596078 0.4 0.129412 0.596078 0.4 
0.129412 0.596078 0.4 0.129412 0.596078 0.4 
0.129412 0.596078 0.4 0.129412 0.596078 0.4 