# vtk DataFile Version 4.2
vtk output
ASCII
DATASET POLYDATA
POINTS 594 float
129.48 147.942 137.912 129.403 147.793 137.934 129.488 147.796 138.002 
129.604 148.634 137.924 129.526 148.947 137.935 129.737 148.985 138.038 
128.678 146.96 138.533 129.075 147.255 138.319 128.867 147.771 138.047 
129.524 147.714 138.28 129.159 149.034 137.973 129.678 149.618 138.112 
130.007 149.218 138.366 129.562 150.589 138.195 130.08 149.867 138.358 
130.316 150.29 138.625 129.292 151.452 138.312 129.991 151.231 138.474 
129.355 151.947 138.497 129.967 152.762 138.819 129.798 152.963 138.831 
127.965 146.316 138.939 128.58 146.479 139.14 129.287 147.368 138.38 
128.06 148.621 138.316 130.693 151.457 139.242 129.222 153.294 139.084 
130.147 154.666 139.795 129.979 154.839 139.871 126.688 145.199 139.8 
127.159 145.11 139.908 127.898 145.695 139.672 129.078 146.926 139.055 
130.228 148.967 139.65 127.703 149.614 138.662 130.63 150.221 139.495 
131.061 153.477 139.99 131.004 154.274 140.236 130.116 155.86 140.972 
130.681 155.272 140.554 130.485 155.727 140.829 125.609 144.151 140.824 
125.727 144.787 140.429 125.325 146.076 140.278 131.455 152.4 140.759 
131.317 154.404 140.738 131.005 155.428 141.03 130.468 155.97 141.139 
130.598 156.076 141.458 125.511 143.412 141.514 127.901 145.379 140.681 
128.374 145.896 141.015 128.964 146.747 140.814 131.225 151.399 141.438 
128.79 155.473 141.222 131.516 154.951 141.75 131.043 155.68 141.443 
130.02 156.38 142.15 130.851 155.984 141.715 123.169 141.521 142.968 
124.217 141.837 142.713 122.935 142.716 142.488 127.445 145.062 142.189 
126.247 153.275 141.915 127.323 154.8 142.153 128.2 155.695 142.325 
131.427 155.439 142.615 129.94 156.559 142.845 123.516 141.074 143.333 
123.834 141.139 143.429 121.805 141.512 143.445 124.643 142.026 142.736 
125.036 142.278 142.796 121.641 142.079 143.335 131.584 152.655 142.663 
131.74 154.021 142.861 130.814 156.228 143.173 130.493 156.464 143.49 
120.386 139.826 144.765 123.178 140.28 144.267 125.017 142.045 143.507 
125.372 153.724 143.847 128.582 156.469 144.546 129.469 156.721 144.559 
119.317 138.878 145.746 120.353 138.804 145.371 120.681 138.489 145.57 
122.704 139.694 144.73 123.196 139.919 144.874 124.762 141.777 144.889 
119.375 142.974 144.976 126.519 144.895 144.845 120.369 147.496 145.281 
125.862 154.803 145.508 131.427 155.164 144.365 130.143 156.566 144.771 
118.802 137.631 146.63 121.479 138.205 146.098 123.066 139.264 146.123 
118.485 140.015 145.883 123.95 140.584 145.279 123.849 140.447 146.039 
118.222 141.512 145.929 119.71 147.733 146.26 131.415 153.754 144.755 
131.293 155.128 144.836 128.41 156.364 145.791 129.411 156.594 145.637 
129.654 156.66 145.372 118.962 136.665 147.288 121.721 137.962 146.656 
116.94 138.501 147.376 116.828 139.41 147.308 123.875 140.719 146.841 
118.128 145.338 147.057 129.033 149.921 147.388 122.166 151.786 147.159 
130.48 151.829 146.18 123.419 152.856 146.423 130.766 153.073 146.255 
131.244 154.433 145.266 130.178 155.985 145.942 129.321 156.371 146.128 
129.989 156.37 145.697 118.201 135.591 148.336 118.756 135.816 148.121 
120.044 136.598 147.519 119.493 136.109 147.939 120.562 136.669 147.695 
120.746 136.542 148.084 123.485 140.18 147.467 116.326 141.231 147.895 
116.921 142.854 147.546 118.677 147.59 147.923 121.935 151.705 147.83 
124.141 153.579 148.011 128.035 155.769 147.034 129.465 156.032 146.602 
129.613 155.62 146.95 117.863 134.668 149.255 120.959 136.318 148.927 
115.457 137.024 148.995 121.776 137.434 148.806 122.057 137.787 148.245 
122.217 138.287 149.134 115.367 141.508 149.306 118.954 148.684 149.187 
130.098 152.919 147.614 130.035 153.36 147.739 130.087 153.994 147.475 
125.234 154.129 148.414 128.827 154.84 148.063 126.096 154.621 148.088 
128.706 155.369 147.609 129.771 155.094 147.236 115.38 133.783 150.916 
116.527 133.73 150.509 113.964 136.395 150.658 123.024 140.931 149.471 
122.794 142.06 150.453 128.037 150.164 149.478 120.348 150.343 149.456 
129.095 152.407 149.001 122.526 152.053 149.215 129.197 152.932 148.891 
124.123 153.186 149.133 128.459 153.733 149.14 128.251 153.416 149.425 
128.589 153.412 149.256 129.351 153.412 148.588 114.306 134.068 151.397 
118.164 133.878 150.6 118.615 133.798 151.139 119.897 134.646 151.049 
113.815 135.102 151.219 121.089 136.356 150.275 120.956 136.299 151.028 
114.189 139.743 150.692 115.392 143.229 150.708 120.487 150.234 150.404 
128.258 151.117 149.727 127.844 151.071 150.121 122.121 151.526 149.912 
123.972 152.157 150.284 124.811 152.266 150.427 115.259 133.1 152.301 
117.697 133.216 151.952 118.412 133.5 151.792 119.35 134.005 152.028 
121.468 139.176 151.998 113.743 139.895 152.056 114.357 141.325 151.581 
116.41 145.196 151.126 124.4 146.867 150.678 119.728 149.145 151.155 
126.372 149.622 150.636 127.08 150.393 150.529 121.139 150.077 151.151 
121.873 150.223 151.338 122.437 150.794 151.077 123.736 150.613 151.405 
126.841 151.229 150.669 127.885 152.01 150.109 114.034 133.037 153.612 
120.462 136.747 153.488 113.412 139.321 152.538 113.919 140.524 152.751 
121.122 141.374 152.915 120.652 141.666 153.476 115.487 143.308 152.687 
115.673 143.855 152.218 116.076 144.462 152.334 122.013 145.079 152.244 
116.805 145.587 152.031 117.345 146.119 152.212 119.121 147.983 151.785 
124.218 149.295 151.507 115.92 132.501 154.329 117.146 132.68 153.341 
117.946 132.833 153.668 112.619 134.028 154.624 114.948 132.537 154.55 
119.993 135.356 153.905 113.625 139.931 153.219 120.172 140.992 153.995 
114.755 141.792 153.228 115.398 142.736 153.227 120.314 142.306 153.739 
120.556 143.612 153.401 116.705 144.99 152.896 117.251 145.528 152.982 
117.386 145.423 153.164 118.106 145.874 153.124 118.687 145.933 153.188 
120.163 146.539 152.869 119.226 147.325 152.402 120.045 147.363 152.536 
118.786 133.381 153.815 119.318 134.112 154.35 112.394 134.392 155.266 
112.273 134.97 154.556 112.287 134.927 155.138 119.843 135.906 154.739 
112.279 135.987 154.788 112.658 137.313 154.686 113.119 138.504 154.334 
119.89 138.34 154.569 113.561 139.216 154.443 119.286 139.531 154.967 
114.806 141.349 153.939 115.898 142.229 154.224 117.292 142.456 154.629 
119.805 141.669 154.207 116.831 143.402 154.02 118.779 142.835 154.41 
118.065 143.828 154.097 119.461 143.258 154.052 118.756 144.437 153.84 
119.447 144.172 153.795 118.105 145.365 153.419 118.608 133.311 154.763 
113.945 133.199 155.806 118.814 133.839 155.53 112.408 134.557 155.711 
119.173 136.031 155.753 114.295 138.897 155.536 113.773 139.049 154.965 
114.663 140.641 154.485 116.969 140.976 155.213 118.561 141.564 154.835 
119.233 141.981 154.482 115.35 132.625 155.888 117.913 133.03 155.701 
113.303 133.77 156.377 118.636 133.981 156.13 112.508 134.648 156.251 
112.672 135.701 156.1 112.976 135.8 156.441 113.268 136.025 156.551 
113.754 137.13 156.17 113.264 137.895 155.271 116.88 137.91 156.476 
118.105 139.138 155.722 116.719 132.739 156.718 117.174 132.876 156.709 
112.91 134.204 156.676 113.252 134.041 156.702 116.139 133.053 156.892 
118.433 134.112 156.582 112.621 134.542 156.581 112.62 134.772 156.549 
112.872 135.012 156.696 113.967 135.038 157.122 118.285 135.376 156.725 
116.211 135.894 157.269 117.227 133.054 157.133 117.004 133.096 157.23 
117.767 133.304 157.125 112.812 134.429 156.733 113.166 134.339 156.86 
115.201 133.921 157.104 118.066 133.897 156.995 112.747 134.661 156.718 
115.015 134.559 157.267 116.81 133.664 157.376 117.231 133.81 157.403 
117.478 134.29 157.305 115.7 134.97 157.373 117.189 133.244 157.324 
117.515 133.258 157.244 117.432 133.5 157.365 117.76 133.524 157.223 
117.223 133.164 297.544 117.778 133.126 297.547 117.868 133.024 297.658 
117.358 133.318 297.473 117.644 133.338 297.487 117.962 133.143 297.629 
117.795 133.638 297.583 117.063 132.882 297.894 117.422 132.829 298.088 
118.002 133.075 297.764 113.189 133.886 298.458 113.038 133.743 298.783 
112.913 133.996 298.603 114.717 133.406 298.264 116.444 133.763 297.605 
116.331 133.298 297.816 116.656 132.917 298.003 118.286 133.34 298.168 
113.017 134.134 298.424 112.833 134.302 298.615 113.075 134.408 298.372 
113.475 134.693 298.19 115.715 135.251 297.651 116.661 134.834 297.606 
118.363 134.354 298.23 116.76 135.389 297.69 117.013 135.611 297.788 
116.95 132.772 298.17 112.604 134.545 299.034 113.017 135.364 298.603 
113.27 135.665 298.49 113.678 135.74 298.292 115.217 132.705 299.099 
116.346 132.677 298.672 118.504 133.33 299.054 113.744 133.116 299.458 
112.395 134.458 299.523 112.59 135.725 299.334 119.031 135.689 299.221 
112.585 136.594 299.897 112.991 137.21 299.728 114.17 137.861 299.125 
118.878 136.909 299.334 114.04 138.467 299.503 118.543 139.667 299.824 
115.081 132.617 299.464 118.435 133.15 299.663 118.795 133.406 300.189 
112.609 133.845 300.25 112.432 134.138 299.847 119.082 134.04 299.676 
119.062 133.773 300.096 112.165 135.629 300.17 112.573 137.17 300.743 
112.881 137.748 300.493 118.212 142.2 300.409 117.983 132.842 300.545 
117.793 132.816 301.03 112.877 133.648 300.667 119.499 134.384 301.017 
112.116 135.054 300.545 117.084 142.274 300.448 115.021 141.876 301.574 
116.564 143.116 301.07 115.857 143.397 301.841 116.143 144.35 302.36 
119.381 145.064 301.585 114.117 133.062 301.821 114.567 132.734 301.059 
116.669 132.647 301.563 112.322 134.441 300.782 118.529 133.29 301.709 
112.19 134.817 300.78 112.622 137.273 301.653 120.691 139.729 301.828 
113.711 139.979 302.151 120.918 141.964 301.979 121.679 144.781 302.657 
119.131 146.464 302.15 118.204 147.122 303.263 118.934 147.008 302.554 
118.729 147.342 302.978 115.781 132.777 302.138 112.922 135.269 302.517 
112.618 136.435 302.051 112.871 136.04 302.594 120.959 137.746 302.634 
113.352 138.782 302.696 114.651 141.861 302.936 123.156 146.273 303.642 
118.852 147.838 303.542 119.74 148.979 303.9 120.24 149.154 303.669 
122.803 149.534 303.357 126.608 150.357 304.357 124.036 150.653 303.697 
125.451 150.61 303.955 126.897 150.834 304.417 113.601 134.191 302.818 
[...]
POINT_DATA 594
COLOR_SCALARS scalars 3
0.129412 0.596078 0.4 0.129412 0.596078 0.4 0.129412 0.596078 0.4 
0.129412 0.596078 0.4 0.129412 0.596078 0.4 
0.129412 0.596078 0.4 0.129412 0.596078 0.4 
0.129412 0.596078 0.4 0.129412 0.596078 0.4 
0.129412 0.596078 0.4 0.129412 0.596078 0.4 
0.129412 0.596078 0.4 0.129412 0.596078 0.4 
0.129412 0.596078 0.4 0.129412 0.596078 0.4 
0.129412 0.596078 0.4 0.129412 0.596078 0.4 
0.129412 0.596078 0.4 0.129412 0.596078 0.4 
0.129412 0.596078 0.4 0.129412 0.596078 0.4 
0.129412 0.596078 0.4 0.129412 0.596078 0.4 
0.129412 0.596078 0.4 0.129412 0.596078 0.4 
0.129412 0.596078 0.4 0.129412 0.596078 0.4 
0.129412 0.596078 0.4 0.129412 0.596078 0.4 
0.129412 0.596078 0.4 0.129412 0.596078 0.4 
0.129412 0.596078 0.4 0.129412 0.596078 0.4 
0.129412 0.596078 0.4 0.129412 0.596078 0.4 
0.129412 0.596078 0.4 0.129412 0.596078 0.4 
0.129412 0.596078 0.4 0.129412 0.596078 0.4 
0.129412 0.596078 0.4 0.129412 0.596078 0.4 
0.129412 0.596078 0.4 0.129412 0.596078 0.4 
0.129412 0.596078 0.4 0.129412 0.596078 0.4 
0.129412 0.596078 0.4 0.129412 0.596078 0.4 
0.129412 0.596078 0.4 0.129412 0.596078 0.4 
0.129412 0.596078 0.4 0.129412 0.596078 0.4 
0.129412 0.596078 0.4 0.129412 0.596078 0.4 
0.129412 0.596078 0.4 0.129412 0.596078 0.4 
0.129412 0.596078 0.4 0.129412 0.596078 0.4 
0.129412 0.596078 0.4 0.129412 0.596078 0.4 
0.129412 0.596078 0.4 0.129412 0.596078 0.4 
0.129412 0.596078 0.4 0.129412 0.596078 0.4 
0.129412 0.596078 0.4 0.129412 0.596078 0.4 
0.129412 0.596078 0.4 0.129412 0.596078 0.4 
0.129412 0.596078 0.4 0.129412 0.596078 0.4 
0.129412 0.596078 0.4 0.129412 0.596078 0.4 
0.129412 0.596078 0.4 0.129412 0.596078 0.4 
0.129412 0.596078 0.4 0.129412 0.596078 0.4 
0.129412 0.596078 0.4 0.129412 0.596078 0.4 
0.129412 0.596078 0.4 0.129412 0.596078 0.4 
0.129412 0.596078 0.4 0.129412 0.596078 0.4 
0.129412 0.596078 0.4 0.129412 0.596078 0.4 
0.129412 0.596078 0.4 0.129412 0.596078 0.4 
0.129412 0.596078 0.4 0.129412 0.596078 0.4 
0.129412 0.596078 0.4 0.129412 0.596078 0.4 
0.129412 0.596078 0.4 0.129412 0.596078 0.4 
0.129412 0.596078 0.4 0.129412 0.596078 0.4 
0.129412 0.596078 0.4 0.129412 0.596078 0.4 
0.129412 0.596078 0.4 0.129412 0.596078 0.4 
0.129412 0.596078 0.4 0.129412 0.596078 0.4 
0.129412 0.596078 0.4 0.129412 0.596078 0.4 
0.129412 0.596078 0.4 0.129412 0.596078 0.4 
0.129412 0.596078 0.4 0.129412 0.596078 0.4 
0.129412 0.596078 0.4 0.129412 0.596078 0.4 
0.129412 0.596078 0.4 0.129412 0.596078 0.4 
0.129412 0.596078 0.4 0.129412 0.596078 0.4 
0.129412 0.596078 0.4 0.129412 0.596078 0.4 
0.129412 0.596078 0.4 0.129412 0.596078 0.4 
0.129412 0.596078 0.4 0.129412 0.596078 0.4 
0.129412 0.596078 0.4 0.129412 0.596078 0.4 
0.129412 0.596078 0.4 0.129412 0.596078 0.4 
0.129412 0.596078 0.4 0.129412 0.596078 0.4 
0.129412 0.596078 0.4 0.129412 0.596078 0.4 
0.129412 0.596078 0.4 0.129412 0.596078 0.4 
0.129412 0.596078 0.4 0.129412 0.596078 0.4 
0.129412 0.596078 0.4 0.129412 0.596078 0.4 
0.129412 0.596078 0.4 0.129412 0.596078 0.4 
0.129412 0.596078 0.4 0.129412 0.596078 0.4 
0.129412 0.596078 0.4 0.129412 0.596078 0.4 
0.129412 0.596078 0.4 0.129412 0.596078 0.4 
0.129412 0.596078 0.4 0.129412 0.596078 0.4 
0.129412 0.596078 0.4 0.129412 0.596078 0.4 
0.129412 0.596078 0.4 0.129412 0.596078 0.4 
0.129412 0.596078 0.4 0.129412 0.596078 0.4 
0.129412 0.596078 0.4 0.129412 0.596078 0.4 
0.129412 0.596078 0.4 0.129412 0.596078 0.4 
0.129412 0.596078 0.4 0.129412 0.596078 0.4 
0.129412 0.596078 0.4 0.129412 0.596078 0.4 
0.129412 0.596078 0.4 0.129412 0.596078 0.4 
0.129412 0.596078 0.4 0.129412 0.596078 0.4 
0.129412 0.596078 0.4 0.129412 0.596078 0.4 
0.129412 0.596078 0.4 0.129412 0.596078 0.4 
0.129412 0.596078 0.4 0.129412 0.596078 0.4 
0.129412 0.596078 0.4 0.129412 0.596078 0.4 
0.129412 0.596078 0.4 0.129412 0.596078 0.4 
0.129412 0.596078 0.4 0.129412 0.596078 0.4 
0.129412 0.596078 0.4 0.129412 0.596078 0.4 
0.129412 0.596078 0.4 0.129412 0.596078 0.4 
0.129412 0.596078 0.4 0.129412 0.596078 0.4 
0.129412 0.596078 0.4 0.129412 0.596078 0.4 
0.129412 0.596078 0.4 0.129412 0.596078 0.4 
0.129412 0.596078 0.4 0.129412 0.596078 0.4 
0.129412 0.596078 0.4 0.129412 0.596078 0.4 
0.129412 0.596078 0.4 0.129412 0.596078 0.4 
0.129412 0.596078 0.4 0.129412 0.596078 0.4 
0.129412 0.596078 0.4 0.129412 0.596078 0.4 
0.129412 0.596078 0.4 0.129412 0.596078 0.4 
0.129412 0.596078 0.4 0.129412 0.596078 0.4 
0.129412 0.596078 0.4 0.129412 0.596078 0.4 
0.129412 0.596078 0.4 0.129412 0.596078 0.4 
0.129412 0.596078 0.4 0.129412 0.596078 0.4 
0.129412 0.596078 0.4 0.129412 0.596078 0.4 
0.129412 0.596078 0.4 0.129412 0.596078 0.4 
0.129412 0.596078 0.4 0.129412 0.596078 0.4 
0.129412 0.596078 0.4 0.129412 0.596078 0.4 
0.129412 0.596078 0.4 0.129412 0.596078 0.4 
0.129412 0.596078 0.4 0.129412 0.596078 0.4 
0.129412 0.596078 0.4 0.129412 0.596078 0.4 
0.129412 0.596078 0.4 0.129412 0.596078 0.4 
0.129412 0.596078 0.4 0.129412 0.596078 0.4 
0.129412 0.596078 0.4 0.129412 0.596078 0.4 
0.129412 0.596078 0.4 0.129412 0.596078 0.4 
0.129412 0.596078 0.4 0.129412 0.596078 0.4 
0.129412 0.596078 0.4 0.129412 0.596078 0.4 
0.129412 0.596078 0.4 0.129412 0.596078 0.4 
0.129412 0.596078 0.4 0.129412 0.596078 0.4 
0.129412 0.596078 0.4 0.129412 0.596078 0.4 
0.129412 0.596078 0.4 0.129412 0.596078 0.4 
0.129412 0.596078 0.4 0.129412 0.596078 0.4 
0.129412 0.596078 0.4 0.129412 0.596078 0.4 
0.129412 0.596078 0.4 0.129412 0.596078 0.4 
0.129412 0.596078 0.4 0.129412 0.596078 0.4 
0.129412 0.596078 0.4 0.129412 0.596078 0.4 
0.129412 0.596078 0.4 0.129412 0.596078 0.4 
0.129412 0.596078 0.4 0.129412 0.596078 0.4 
0.129412 0.596078 0.4 0.129412 0.596078 0.4 
0.129412 0.596078 0.4 0.129412 0.596078 0.4 
0.129412 0.596078 0.4 0.129412 0.596078 0.4 
0.129412 0.596078 0.4 0.129412 0.596078 0.4 
0.129412 0.596078 0.4 0.129412 0.596078 0.4 
0.129412 0.596078 0.4 0.129412 0.596078 0.4 
0.129412 0.596078 0.4 0.129412 0.596078 0.4 
0.129412 0.596078 0.4 0.129412 0.596078 0.4 
0.129412 0.596078 0.4 0.129412 0.596078 0.4 
0.129412 0.596078 0.4 0.129412 0.596078 0.4 
0.129412 0.596078 0.4 0.129412 0.596078 0.4 
0.129412 0.596078 0.4 0.129412 0.596078 0.4 
0.129412 0.596078 0.4 0.129412 0.596078 0.4 
0.129412 0.596078 0.4 0.129412 0.596078 0.4 
0.129412 0.596078 0.4 0.129412 0.596078 0.4 
0.129412 0.596078 0.4 0.129412 0.596078 0.4 
0.129412 0.596078 0.4 0.129412 0.596078 0.4 
0.129412 0.596078 0.4 0.129412 0.596078 0.4 
0.129412 0.596078 0.4 0.129412 0.596078 0.4 
0.129412 0.596078 0.4 0.129412 0.596078 0.4 
0.129412 0.596078 0.4 0.129412 0.596078 0.4 
0.129412 0.596078 0.4 0.129412 0.596078 0.4 
0.129412 0.596078 0.4 0.129412 0.596078 0.4 
0.129412 0.596078 0.4 0.129412 0.596078 0.4 
0.129412 0.596078 0.4 0.129412 0.596078 0.4 
0.129412 0.596078 0.4 0.129412 0.596078 0.4 
0.129412 0.596078 0.4 0.129412 0.596078 0.4 
0.129412 0.596078 0.4 0.129412 0.596078 0.4 
0.129412 0.596078 0.4 0.129412 0.596078 0.4 
0.129412 0.596078 0.4 0.129412 0.596078 0.4 
0.129412 0.596078 0.4 0.129412 0.596078 0.4 
0.129412 0.596078 0.4 0.129412 0.596078 0.4 
0.129412 0.596078 0.4 0.129412 0.596078 0.4 
0.129412 0.596078 0.4 0.129412 0.596078 0.4 
0.129412 0.596078 0.4 0.129412 0.596078 0.4 
0.129412 0.596078 0.4 0.129412 0.596078 0.4 
0.129412 0.596078 0.4 0.129412 0.596078 0.4 
0.129412 0.596078 0.4 0.129412 0.596078 0.4 
0.129412 0.596078 0.4 0.129412 0.596078 0.4 
0.129412 0.596078 0.4 0.129412 0.596078 0.4 
0.129412 0.596078 0.4 0.129412 0.596078 0.4 
0.129412 0.596078 0.4 0.129412 0.596078 0.4 
0.129412 0.596078 0.4 0.129412 0.596078 0.4 
0.129412 0.596078 0.4 0.129412 0.596078 0.4 
0.129412 0.596078 0.4 0.129412 0.596078 0.4 
0.129412 0.596078 0.4 0.129412 0.596078 0.4 
0.129412 0.596078 0.4 0.129412 0.596078 0.4 
0.129412 0.596078 0.4 0.129412 0.596078 0.4 
0.129412 0.596078 0.4 0.129412 0.596078 0.4 
0.129412 0.596078 0.4 0.129412 0.596078 0.4 
0.129412 0.596078 0.4 0.129412 0.596078 0.4 
0.129412 0.596078 0.4 0.129412 0.596078 0.4 
0.129412 0.596078 0.4 0.129412 0.596078 0.4 
0.129412 0.596078 0.4 0.129412 0.596078 0.4 
0.129412 0.596078 0.4 0.129412 0.596078 0.4 
0.129412 0.596078 0.4 0.129412 0.596078 0.4 
0.129412 0.596078 0.4 0.129412 0.596078 0.4 
0.129412 0.596078 0.4 0.129412 0.596078 0.4 
0.129412 0.596078 0.4 0.129412 0.596078 0.4 
0.129412 0.596078 0.4 0.129412 0.596078 0.4 
0.129412 0.596078 0.4 0.129412 0.596078 0.4 
0.129412 0.596078 0.4 0.129412 0.596078 0.4 
0.129412 0.596078 0.4 0.129412 0.596078 0.4 
0.129412 0.596078 0.4 0.129412 0.596078 0.4 
0.129412 0.596078 0.4 0.129412 0.596078 0.4 
0.129412 0.596078 0.4 0.129412 0.596078 0.4 
0.129412 0.596078 0.4 0.129412 0.596078 0.4 
0.129412 0.596078 0.4 0.129412 0.596078 0.4 
0.129412 0.596078 0.4 0.129412 0.596078 0.4 
0.129412 0.596078 0.4 0.129412 0.596078 0.4 
0.129412 0.596078 0.4 0.129412 0.596078 0.4 
0.129412 0.596078 0.4 0.129412 0.596078 0.4 
0.129412 0.596078 0.4 0.129412 0.596078 0.4 
0.129412 0.596078 0.4 0.129412 0.596078 0.4 
0.129412 0.596078 0.4 0.129412 0.596078 0.4 
0.129412 0.596078 0.4 0.129412 0.596078 0.4 
0.129412 0.596078 0.4 0.129412 0.596078 0.4 
0.129412 0.596078 0.4 0.129412 0.596078 0.4 
0.129412 0.596078 0.4 0.129412 0.596078 0.4 
0.129412 0.596078 0.4 0.129412 0.596078 0.4 
0.129412 0.596078 0.4 0.129412 0.596078 0.4 
0.129412 0.596078 0.4 0.129412 0.596078 0.4 
0.129412 0.596078 0.4 0.129412 0.596078 0.4 
0.129412 0.596078 0.4 0.129412 0.596078 0.4 
0.129412 0.596078 0.4 0.129412 0.596078 0.4 
0.129412 0.596078 0.4 0.129412 0.596078 0.4 
0.129412 0.596078 0.4 0.129412 0.596078 0.4 
0.129412 0.596078 0.4 0.129412 0.596078 0.4 
0.129412 0.596078 0.4 0.129412 0.596078 0.4 
0.129412 0.596078 0.4 0.129412 0.596078 0.4 
0.129412 0.596078 0.4 0.129412 0.596078 0.4 
0.129412 0.596078 0.4 0.129412 0.596078 0.4 
0.129412 0.596078 0.4 0.129412 0.596078 0.4 
0.129412 0.596078 0.4 0.129412 0.596078 0.4 
0.129412 0.596078 0.4 0.129412 0.596078 0.4 
0.129412 0.596078 0.4 0.129412 0.596078 0.4 
0.129412 0.596078 0.4 0.129412 0.596078 0.4 
0.129412 0.596078 0.4 0.129412 0.596078 0.4 
0.129412 0.596078 0.4 0.129412 0.596078 0.4 
0.129412 0.596078 0.4 0.129412 0.596078 0.4 
0.129412 0.596078 0.4 0.129412 0.596078 0.4 
0.129412 0.596078 0.4 0.129412 0.596078 0.4 
0.129412 0.596078 0.4 0.129412 0.596078 0.4 
0.129412 0.596078 0.4 0.129412 0.596078 0.4 
0.129412 0.596078 0.4 0.129412 0.596078 0.4 
0.129412 0.596078 0.4 0.129412 0.596078 0.4 
0.129412 0.596078 0.4 0.129412 0.596078 0.4 
0.129412 0.596078 0.4 0.129412 0.596078 0.4 
0.129412 0.596078 0.4 0.129412 0.596078 0.4 
0.129412 0.596078 0.4 0.129412 0.596078 0.4 
0.129412 0.596078 0.4 0.129412 0.596078 0.4 
0.129412 0.596078 0.4 0.129412 0.596078 0.4 
0.129412 0.596078 0.4 0.129412 0.596078 0.4 
0.129412 0.596078 0.4 0.129412 0.596078 0.4 
0.129412 0.596078 0.4 0.129412 0.596078 0.4 
0.129412 0.596078 0.4 0.129412 0.596078 0.4 
0.129412 0.596078 0.4 0.129412 0.596078 0.4 
0.129412 0.596078 0.4 0.129412 0.596078 0.4 
0.129412 0.596078 0.4 0.129412 0.596078 0.4 
0.129412 0.596078 0.4 0.129412 0.596078 0.4 
0.129412 0.596078 0.4 0.129412 0.596078 0.4 
0.129412 0.596078 0.4 0.129412 0.596078 0.4 
0.129412 0.596078 0.4 0.129412 0.596078 0.4 
0.129412 0.596078 0.4 0.129412 0.596078 0.4 
0.129412 0.596078 0.4 0.129412 0.596078 0.4 
0.129412 0.596078 0.4 0.129412 0.596078 0.4 
0.129412 0.596078 0.4 0.129412 0.596078 0.4 
0.129412 0.596078 0.4 0.129412 0.596078 0.4 
0.129412 0.596078 0.4 0.129412 0.596078 0.4 
0.129412 0.596078 0.4 0.129412 0.596078 0.4 
0.129412 0.596078 0.4 0.129412 0.596078 0.4 
0.129412 0.596078 0.4 0.129412 0.596078 0.4 
0.129412 0.596078 0.4 0.129412 0.596078 0.4 
0.129412 0.596078 0.4 0.129412 0.596078 0.4 
0.129412 0.596078 0.4 0.129412 0.596078 0.4 
0.129412 0.596078 0.4 0.129412 0.596078 0.4 
0.129412 0.596078 0.4 0.129412 0.596078 0.4 
0.129412 0.596078 0.4 0.129412 0.596078 0.4 
0.129412 0.596078 0.4 0.129412 0.596078 0.4 
0.129412 0.596078 0.4 0.129412 0.596078 0.4 
0.129412 0.596078 0.4 0.129412 0.596078 0.4 
0.129412 0.596078 0.4 0.129412 0.596078 0.4 
0.129412 0.596078 0.4 0.129412 0.596078 0.4 
0.129412 0.596078 0.4 0.129412 0.596078 0.4 
0.129412 0.596078 0.4 0.129412 0.596078 0.4 
0.129412 0.596078 0.4 0.129412 0.596078 0.4 
0.129412 0.596078 0.4 0.129412 0.596078 0.4 
0.129412 0.596078 0.4 0.129412 0.596078 0.4 
0.129412 0.596078 0.4 0.129412 0.596078 0.4 
0.129412 0.596078 0.4 0.129412 0.596078 0.4 
0.129412 0.596078 0.4 0.129412 0.596078 0.4 
0.129412 0.596078 0.4 0.129412 0.596078 0.4 
0.129412 0.596078 0.4 0.129412 0.596078 0.4 
0.129412 0.596078 0.4 0.129412 0.596078 0.4 
0.129412 0.596078 0.4 0.129412 0.596078 0.4 
0.129412 0.596078 0.4 0.129412 0.596078 0.4 
0.129412 0.596078 0.4 0.129412 0.596078 0.4 
0.129412 0.596078 0.4 0.129412 0.596078 0.4 
0.129412 0.596078 0.4 0.129412 0.596078 0.4 
0.129412 0.596078 0.4 0.129412 0.596078 0.4 
0.129412 0.596078 0.4 0.129412 0.596078 0.4 
0.129412 0.596078 0.4 0.129412 0.596078 0.4 
0.129412 0.596078 0.4 0.129412 0.596078 0.4 
0.129412 0.596078 0.4 0.129412 0.596078 0.4 
0.129412 0.596078 0.4 0.129412 0.596078 0.4 
0.129412 0.596078 0.4 0.129412 0.596078 0.4 
0.129412 0.596078 0.4 0.129412 0.596078 0.4 
0.129412 0.596078 0.4 0.129412 0.596078 0.4 
0.129412 0.596078 0.4 0.129412 0.596078 0.4 
0.129412 0.596078 0.4 0.129412 0.596078 0.4 
0.129412 0.596078 0.4 0.129412 0.596078 0.4 
0.129412 0.596078 0.4 0.129412 0.596078 0.4 
0.129412 0.596078 0.4 
NORMALS Normals float
0.749383 -0.181761 -0.636701 0.122755 -0.401994 -0.907377 0.722361 -0.526106 -0.448784 
0.138154 0.0256368 -0.990079 0.178218 0.143062 -0.973536 0.661352 0.0327695 -0.74936 
0.242414 -0.721504 -0.648589 0.212337 -0.70256 -0.679208 -0.207579 -0.337514 -0.918148 
0.869992 -0.464424 -0.165602 -0.166595 0.106257 -0.980283 0.309352 0.157689 -0.937782 
0.855414 -0.13382 -0.50036 0.281948 0.11615 -0.952373 0.590139 0.0759137 -0.803724 
0.817086 -0.0515315 -0.574209 -0.0728844 0.220973 -0.972553 0.511819 0.158181 -0.844405 
-0.2158 0.337589 -0.916223 0.416727 0.271456 -0.867554 0.209967 0.398307 -0.892897 
-0.0260206 -0.55725 -0.829937 0.543297 -0.761597 -0.35327 0.664489 -0.686746 -0.294675 
-0.460563 0.00525751 -0.887611 0.864294 -0.0190934 -0.502624 -0.438487 0.467471 -0.767594 
0.337553 0.44748 -0.828142 -0.0149652 0.646509 -0.762759 -0.231285 -0.511058 -0.827845 
0.243651 -0.773643 -0.584903 0.627182 -0.710584 -0.318926 0.752732 -0.649743 -0.105967 
0.944013 -0.281659 0.171779 -0.611762 0.228126 -0.757434 0.961631 -0.266781 -0.0639785 
0.723989 0.220882 -0.653492 0.732445 0.379684 -0.565124 -0.306173 0.838891 -0.450023 
0.539588 0.550516 -0.637006 0.298046 0.706634 -0.641746 -0.0725046 -0.532985 -0.843013 
-0.0963228 -0.586916 -0.803898 -0.551798 -0.129 -0.823941 0.963291 -0.0906126 -0.252707 
0.89149 0.232827 -0.388634 0.736055 0.483815 -0.47344 0.453527 0.749388 -0.482421 
0.251118 0.917737 -0.307731 0.223648 -0.681679 -0.696632 0.69411 -0.710133 -0.117991 
0.793305 -0.608809 -0.00435533 0.840628 -0.532259 0.100227 0.946761 -0.320007 -0.0352089 
-0.503675 0.654716 -0.563612 0.875038 0.419636 -0.241277 0.805202 0.505768 -0.309593 
-0.318688 0.885744 -0.337484 0.668572 0.713223 -0.210534 -0.106562 -0.513843 -0.85124 
0.0842274 -0.520684 -0.849584 -0.33883 -0.347537 -0.874307 0.831345 -0.492916 0.256708 
-0.711235 0.477643 -0.515754 -0.639889 0.657691 -0.397473 -0.553269 0.733121 -0.395509 
0.904562 0.417368 0.0870146 -0.00389031 0.977952 -0.208795 0.0556969 -0.691631 -0.7201 
0.436265 -0.740618 -0.511036 -0.285718 -0.504252 -0.81492 0.451506 -0.618953 -0.642682 
0.720266 -0.532884 -0.44413 -0.481526 -0.23917 -0.843167 0.973698 -0.192837 0.121349 
0.999412 0.00886194 -0.0331202 0.67222 0.737814 0.0612529 0.592297 0.796397 0.122215 
-0.390889 -0.313925 -0.865249 0.339429 -0.751846 -0.565257 0.826721 -0.548936 -0.123293 
-0.730086 0.530223 -0.43109 -0.445784 0.889373 -0.101451 0.0232565 0.99966 -0.0117867 
-0.371867 -0.428698 -0.823367 -0.284584 -0.469619 -0.835745 -0.0597395 -0.672146 -0.738004 
0.279171 -0.741614 -0.609977 0.646512 -0.70257 -0.297351 0.914463 -0.379794 0.139694 
-0.668673 0.0680157 -0.74044 0.830398 -0.476064 0.289485 -0.688941 0.389791 -0.611084 
-0.602986 0.77862 -0.173661 0.916283 0.350141 0.19449 0.508473 0.849386 0.14142 
-0.387865 -0.445255 -0.807037 0.281835 -0.820166 -0.497893 0.717791 -0.672579 -0.180041 
-0.579115 -0.195235 -0.791523 0.774831 -0.622785 -0.108516 0.837654 -0.546175 -0.0053082 
-0.662197 -0.0472092 -0.747842 -0.686098 0.532078 -0.496148 0.966149 -0.0490347 0.253282 
0.877691 0.335672 0.342028 -0.29129 0.93517 0.201512 0.0509408 0.935791 0.348855 
0.0471999 0.983844 0.172692 0.0232661 -0.5756 -0.8174 0.363921 -0.811543 -0.457121 
-0.632353 -0.252602 -0.73234 -0.667576 -0.091098 -0.738948 0.869924 -0.481235 0.107915 
-0.759007 0.342942 -0.553442 0.765707 -0.525673 0.370621 -0.697799 0.684604 -0.210699 
0.893377 -0.330056 0.304862 -0.599578 0.786969 -0.145557 0.922534 -0.0920626 0.374773 
0.912881 0.0679818 0.402526 0.707888 0.487007 0.511585 0.0658578 0.88192 0.466777 
0.538348 0.745942 0.392111 -0.235877 -0.639262 -0.73192 -0.0200504 -0.789212 -0.613793 
0.283893 -0.585756 -0.759141 0.228575 -0.812083 -0.536912 0.471811 -0.59543 -0.650274 
0.502553 -0.771558 -0.390049 0.900408 -0.380063 0.211702 -0.805651 0.104859 -0.583037 
-0.780492 0.181603 -0.598208 -0.776001 0.426679 -0.464508 -0.63719 0.770696 0.00404565 
-0.568387 0.820675 0.058561 -0.0629818 0.839435 0.539798 0.316776 0.736025 0.598265 
0.531888 0.629762 0.566122 0.263077 -0.792833 -0.549733 0.668634 -0.731965 -0.130986 
-0.679708 -0.170399 -0.713415 0.798035 -0.602593 0.00466384 0.80579 -0.588478 -0.0663047 
0.89781 -0.401129 0.181751 -0.829771 0.230387 -0.508333 -0.742658 0.661545 -0.104003 
0.867512 -0.102503 0.48674 0.783384 0.188624 0.592225 0.837148 0.23133 0.495651 
-0.38776 0.881106 0.270728 0.507596 0.488039 0.710045 -0.392364 0.860774 0.324221 
0.102509 0.714163 0.692433 0.644507 0.491147 0.585991 -0.269222 -0.772624 -0.574954 
-0.010861 -0.872564 -0.488379 -0.761448 -0.126851 -0.635693 0.919933 -0.226384 0.320114 
0.784223 -0.195509 0.588873 0.676519 -0.465467 0.570668 -0.696703 0.714755 0.061072 
0.806366 -0.0692448 0.587349 -0.505076 0.810541 0.296515 0.691226 0.140969 0.708755 
-0.398671 0.776168 0.488492 0.412192 0.53157 0.739953 0.251774 0.42094 0.871447 
0.546792 0.288079 0.786148 0.76946 0.186033 0.611002 -0.538631 -0.53916 -0.647444 
0.242226 -0.865932 -0.437594 0.380103 -0.85158 -0.361016 0.644439 -0.728723 -0.231651 
-0.774283 -0.372649 -0.511487 0.863388 -0.496095 0.0919329 0.861922 -0.495549 0.107339 
-0.886556 0.199283 -0.417497 -0.871564 0.431807 -0.232206 -0.545069 0.757239 0.359847 
0.781823 -0.232558 0.578507 0.608244 -0.14472 0.780446 -0.479227 0.80145 0.357797 
-0.265293 0.567759 0.779275 -0.111398 0.603351 0.789657 -0.232938 -0.896779 -0.376202 
0.335472 -0.916332 -0.218618 0.337856 -0.915948 -0.216548 0.617273 -0.786041 -0.0333647 
0.856144 -0.126026 0.501134 -0.886501 0.409487 -0.21549 -0.907669 0.410858 -0.0856312 
-0.83239 0.549454 -0.0723007 0.476511 -0.212842 0.853016 -0.567777 0.634467 0.524482 
0.518381 -0.38986 0.761111 0.516621 -0.234628 0.823439 -0.357631 0.67158 0.648907 
-0.235795 0.636566 0.734292 -0.183687 0.66923 0.719994 0.0415307 0.416632 0.908126 
0.210744 0.210159 0.954683 0.563892 0.101587 0.819577 -0.441398 -0.844805 -0.302443 
0.925412 -0.151648 0.347299 -0.949034 0.280262 -0.14418 -0.887392 0.451414 -0.0936025 
0.806273 -0.032319 0.59066 0.730528 0.0136415 0.682746 -0.820506 0.489546 0.295151 
-0.856599 0.480736 0.187432 -0.82708 0.539298 0.15842 0.579566 -0.0915029 0.809772 
-0.759454 0.606222 0.236058 -0.603368 0.698476 0.384809 -0.565815 0.668529 0.482621 
0.370636 -0.0525096 0.927293 0.00136754 -0.992645 -0.121054 0.0466204 -0.977369 -0.206341 
0.373292 -0.927141 -0.0326084 -0.767287 -0.638449 -0.0604458 -0.333475 -0.942721 -0.00850385 
0.924706 -0.300787 0.233337 -0.858775 0.495365 0.130836 0.635894 0.0446581 0.770483 