# vtk DataFile Version 4.2
vtk output
ASCII
DATASET POLYDATA
POINTS 1448 float
272 189.009 59.0174 272 189.009 59.0175 272 189.009 59.0175 
272 189.009 59.0175 276.477 189.738 60.6334 275.908 189.952 60.6221 
279.081 189.832 60.3041 280.83 189.933 60.1954 281.372 189.64 60.4781 
282.731 190.087 60.1881 283.046 190.125 60.2807 282.913 189.957 60.3225 
283.147 190.023 60.4326 272 189.009 59.0175 277.048 190.235 60.2115 
277.311 190.548 60.0932 279.853 190.849 59.9121 282.296 190.78 60.0077 
283.185 190.571 60.2653 272 189.009 59.0175 278.533 189.098 61.2391 
281.206 189.334 60.9494 283.345 189.988 60.7265 268.322 190.439 61.5907 
269.762 190.527 61.3285 271.283 190.104 61.4065 274.818 190.629 60.566 
269.152 190.978 61.2574 273.689 191.161 60.636 278.341 191.314 59.9849 
279.396 191.487 59.9225 284.015 191.138 60.751 280.958 191.986 59.9682 
283.941 191.574 60.6622 285.322 192.661 61.4705 285.323 192.869 61.4479 
285.458 192.812 61.5247 285.528 192.968 61.6199 283.61 189.918 61.1972 
265.884 190.925 61.9524 261.863 191.655 62.4902 284.184 190.567 61.1577 
262.437 191.836 62.2889 284.796 192.523 61.2106 285.375 193.344 61.5815 
285.795 193.057 62.012 284.246 195.371 61.3392 285.134 195.366 61.6553 
285.983 194.648 62.0967 286.24 195.079 62.3515 285.665 196.261 62.1068 
285.919 196.165 62.2521 264.887 190.515 62.5559 269.872 189.463 62.4804 
256.912 191.983 63.369 259.233 191.69 63.0752 257.299 192.171 63.1525 
258.687 192.172 62.9237 285.409 191.638 62.1421 259.039 192.721 62.7576 
284.527 196.648 61.8927 282.771 197.399 61.999 286.455 196.819 63.0568 
284.289 197.923 62.6676 286.372 197.469 63.5441 282.597 189.141 62.7179 
260.423 190.752 63.7628 263.624 190.329 63.2545 255.929 192.664 63.3443 
250.801 193.189 63.9953 256.402 193.169 63.1685 258.482 193.259 62.8326 
287.028 195.865 63.4713 286.891 196.82 63.8987 286.639 197.341 63.9312 
283.293 199.153 63.686 264.429 189.837 63.9471 249.406 192 65.0586 
249.304 192.614 64.5802 245.878 193.586 64.9384 247.933 193.415 64.5512 
247.433 192.931 64.8604 247.232 194.372 64.5513 287.168 194.746 64.1322 
257.779 195.845 63.5619 287.225 195.348 64.0207 287.163 195.71 63.8045 
286.575 197.583 64.3356 286.33 197.886 64.4535 283.183 199.442 64.079 
283.368 189.308 64.2009 285.327 190.493 64.0821 243.042 192.753 66.04 
245.041 192.66 65.6974 244.609 192.244 66.1874 239.278 193.655 66.1753 
238.778 193.332 66.535 238.771 193.806 66.2675 244.031 193.597 65.4254 
239.105 194.024 66.0894 239.302 194.374 66.011 241.38 194.223 65.6751 
243.514 194.19 65.3766 245.695 194.173 64.9262 287.167 194.159 64.85 
241.42 194.821 65.6093 241.804 195.215 65.5874 244.111 194.993 65.2293 
245.2 194.928 65.032 287.291 195.183 64.3957 287.303 195.242 64.8578 
244.648 196.102 65.3081 287.221 195.848 64.9969 249.564 197.212 64.9666 
285.28 198.688 65.2693 281.522 188.831 65.6241 235.979 193.934 67.2266 
238.601 192.969 66.892 236.312 194.158 66.9854 236.469 194.501 66.8789 
236.879 194.198 66.7863 287.196 194.173 65.4517 237.981 195.267 66.4905 
239.291 195 66.0919 241.89 195.85 65.7489 281.601 200.938 66.3124 
278.259 202.685 66.5936 278.862 188.272 66.1613 279.36 188.342 66.3358 
279.95 188.576 66.7522 282.406 189.211 66.1929 284.006 189.692 65.5737 
285.177 190.546 65.6894 286.205 191.821 65.9383 286.46 192.323 66.0213 
239.76 192.346 67.1804 241.676 192.19 66.8238 242.389 191.597 67.6451 
244.097 191.462 67.4449 233.674 193.833 68.3218 235.841 193.003 68.0766 
286.94 193.819 66.3415 233.145 194.459 68.3059 287.203 194.504 65.6972 
234.011 194.969 67.8046 234.191 195.286 67.7797 234.606 195.047 67.5835 
236.415 195.05 66.9725 234.576 195.478 67.6814 234.861 195.812 67.7482 
237.477 196.71 67.5179 286.669 196.759 66.5959 286.755 196.441 66.6533 
240.618 197.469 67.1128 246.136 198.406 66.0208 280.698 201.602 66.5311 
275.884 203.458 66.4666 271.398 204.447 66.4815 273.318 205.306 67.4092 
274.794 204.91 67.6935 272.229 205.713 67.4686 272.854 205.627 67.6193 
278.168 188.447 68.1629 286.101 191.921 66.3257 285.65 191.767 66.8251 
233.384 193.561 68.7195 232.142 194.365 68.9819 231.993 194.096 69.2606 
231.794 194.372 69.3286 286.394 193.577 67.1805 286.514 194.001 67.1495 
231.974 194.604 69.0601 232.026 194.791 69.0412 286.734 194.377 66.8777 
232.458 195.389 69.0608 234.223 195.699 67.9994 233.919 196.379 68.7864 
286.604 196.166 66.9319 235.078 196.755 68.5541 238.639 197.382 67.9303 
246.946 201.038 67.2293 281.988 200.645 67.5256 246.583 202.393 68.1314 
278.976 202.775 68.2187 260.827 204.947 67.0868 275.829 204.422 67.7263 
277.167 203.731 68.4872 275.321 204.871 68.1402 268.633 206.34 67.4401 
273.742 205.481 67.9899 270.796 206.41 67.7597 271.459 206.32 67.9414 
268.862 207.142 68.3409 269.502 207.129 68.4508 269.934 206.921 68.1209 
273.619 188.348 68.6399 276.879 188.401 68.5691 277.956 188.492 68.456 
279.717 188.962 68.402 275.74 188.492 68.5925 277.333 188.475 68.5043 
281.545 189.567 67.8097 282.671 190.134 67.7896 283.363 190.108 67.2665 
284.476 190.234 66.483 245.278 190.65 69.4165 249.936 190.232 69.0353 
284.916 191.206 67.1724 231.62 194.283 69.6102 286.075 193.774 67.5046 
231.637 194.526 69.6648 232.151 195.438 69.8207 284.045 195.359 68.9865 
232.754 196.066 70.2964 233.511 196.314 69.134 241.046 198.801 69.0068 
242.857 200.16 69.3419 281.824 200.509 68.3037 244.897 202.094 69.1079 
280.129 201.886 68.7966 244.962 202.918 69.9464 277.194 203.696 69.2772 
274.838 205.083 68.9106 274.586 205.225 68.5196 270.985 206.735 69.1436 
272.277 206.135 69.4227 263.647 207.471 68.2278 269.901 207.106 68.8401 
269.534 207.212 69.225 271.631 206.404 68.369 266.066 207.77 68.7347 
262.13 208.594 69.2908 276.192 188.651 69.2664 278.34 188.883 68.9597 
278.995 188.962 68.8217 279.391 189.28 69.0137 276.776 188.747 69.1144 
281.026 190.685 69.2521 237.47 191.775 69.5874 231.605 193.959 70.0357 
231.636 193.834 70.5084 231.524 194.045 70.1781 231.63 194.665 69.9432 
282.05 196.363 69.9758 234.896 197.218 70.0954 235.252 197.319 70.4212 
244.088 201.772 70.4156 244.758 202.821 70.3018 244.672 202.81 70.8244 
246.008 205.486 70.6714 268.171 207.566 70.0252 253.671 209.271 69.9021 
260.118 209.114 69.6443 265.978 208.273 69.91 261.23 209.384 70.5701 
260.114 209.717 70.668 262.69 189.075 70.3004 267.171 188.795 70.6943 
276.048 189.08 69.7663 278.83 189.743 69.5904 279.478 189.682 69.3104 
277.228 190.046 70.3384 240.536 190.929 70.7958 231.703 193.604 70.8974 
231.639 193.633 71.0734 231.538 194.217 70.3354 231.594 193.768 70.9341 
231.62 194.105 71.0372 236.356 197.401 71.4389 281.124 199.019 70.2041 
280.369 200.829 70.2881 244.311 202.11 71.344 280.094 201.217 70.4935 
280.213 201.081 70.523 280.136 201.156 70.5988 277.625 202.843 70.9306 
245.409 205.108 71.9263 246.739 207.91 71.0841 246.18 208.506 71.7858 
246.392 208.997 71.7709 247.352 209.396 71.3665 264.206 208.765 71.134 
249.436 210.028 71.1266 259.364 209.953 71.2678 252.877 210.405 71.0578 
267.484 188.859 71.1161 267.406 188.88 71.2223 267.206 188.89 71.1347 
271.799 189.309 71.162 264.431 189.314 71.4879 265.5 189.236 71.3785 
268.094 188.993 71.1976 244.673 190.351 71.9232 276.386 194.246 72.1336 
231.842 194.729 71.9173 276.767 195.946 72.3268 233.293 196.256 72.47 
240.667 198.516 71.308 242.596 199.896 71.0696 243.715 201.026 71.5857 
243.945 201.489 71.3459 276.359 202.984 71.8161 245.328 204.762 72.5181 
245.686 208.043 72.548 245.737 208.81 72.6162 245.704 209.509 72.5734 
246.109 209.935 72.5063 246.76 210.437 72.397 247.055 210.218 72.0932 
257.939 210.122 72.5643 247.113 210.562 72.3703 247.392 210.729 72.5326 
249.286 210.625 71.8157 254.513 210.665 71.6743 249.789 210.85 72.1701 
267.388 189.002 71.3237 269.469 189.435 71.6364 253.807 189.902 72.982 
253.14 189.831 72.598 256.634 189.64 72.4888 263.24 189.655 72.2926 
245.154 190.325 72.5448 250.123 190.075 72.4968 239.312 190.99 73.1776 
242.017 190.609 72.7363 269.491 191.041 72.9266 272.109 191.262 72.4269 
271.147 192.024 73.0287 232.607 192.933 72.6792 232.456 195.389 72.9632 
233.754 196.293 73.0784 276.895 197.573 72.5253 243.767 200.757 72.1278 
277.542 200.303 72.3052 245.111 202.878 72.9701 245.317 204.296 72.8293 
275.827 202.784 72.4091 271.063 204.715 73.3386 245.706 207.553 73.3947 
245.732 208.799 73.1906 245.704 209.583 72.6711 245.785 209.702 72.9425 
261.291 209.097 73.033 245.714 210.54 73.2787 246.014 210.311 72.8492 
255.601 210.48 72.8983 257.113 210.139 73.0841 245.748 210.7 73.3032 
245.947 210.619 73.0783 250.591 210.967 72.8115 251.943 210.874 73.0988 
245.881 210.749 73.2489 246.186 210.769 73.1627 247.411 210.835 72.8989 
251.25 190.281 73.6172 263.032 190.014 72.8825 239.488 191.092 73.8935 
241.016 190.823 73.4472 242.766 190.584 73.2347 264.545 191.042 73.7062 
232.357 193.382 73.5024 232.104 193.703 73.1677 232.722 192.991 73.4836 
232.09 194.043 73.4352 236.112 196.753 73.1239 241.913 198.068 73.1597 
273.451 197.965 74.0543 243.762 199.93 72.9464 244.297 200.421 73.1597 
275.17 200.663 73.5816 275.504 201.701 73.2217 275.351 202.117 73.1478 
277 204.009 74.0174 277 204.009 74.0175 277 204.009 74.0175 
277 204.009 74.0175 268.905 204.882 74.4917 277 204.009 74.0175 
246.102 206.895 74.2431 245.842 208.718 73.6178 246.01 208.29 73.9491 
258.544 209.55 73.7255 245.764 210.418 73.3932 245.922 210.032 73.5108 
245.779 210.625 73.3927 249.404 210.895 73.2519 250.024 210.735 73.6628 
245.845 210.742 73.3616 254.255 190.418 73.8546 242.762 190.866 74.1909 
244.323 190.764 73.9767 245.771 191.102 74.3772 256.946 190.804 74.1515 
240.224 191.194 74.2886 232.628 193.295 74.02 232.237 194.032 73.8513 
232.378 194.269 74.026 241.618 194.912 75.0411 232.691 194.973 73.966 
238.135 195.894 74.3614 242.135 196.452 74.4176 233.28 195.457 74.0318 
236.972 196.052 74.2386 236.779 196.308 73.9197 243.012 197.351 74.1676 
244.073 197.305 74.5171 253.425 199.455 76.3304 272.17 200.982 75.0124 
247.873 200.897 75.4587 246.275 203.142 74.5979 277 204.009 74.0175 
270.887 203.979 74.3156 246.764 207.359 74.9693 258.109 208.942 74.8939 
[...]
POINT_DATA 1448
COLOR_SCALARS scalars 3
0.129412 0.596078 0.4 0.129412 0.596078 0.4 0.129412 0.596078 0.4 
0.129412 0.596078 0.4 0.129412 0.596078 0.4 
0.129412 0.596078 0.4 0.129412 0.596078 0.4 
0.129412 0.596078 0.4 0.129412 0.596078 0.4 
0.129412 0.596078 0.4 0.129412 0.596078 0.4 
0.129412 0.596078 0.4 0.129412 0.596078 0.4 
0.129412 0.596078 0.4 0.129412 0.596078 0.4 
0.129412 0.596078 0.4 0.129412 0.596078 0.4 
0.129412 0.596078 0.4 0.129412 0.596078 0.4 
0.129412 0.596078 0.4 0.129412 0.596078 0.4 
0.129412 0.596078 0.4 0.129412 0.596078 0.4 
0.129412 0.596078 0.4 0.129412 0.596078 0.4 
0.129412 0.596078 0.4 0.129412 0.596078 0.4 
0.129412 0.596078 0.4 0.129412 0.596078 0.4 
0.129412 0.596078 0.4 0.129412 0.596078 0.4 
0.129412 0.596078 0.4 0.129412 0.596078 0.4 
0.129412 0.596078 0.4 0.129412 0.596078 0.4 
0.129412 0.596078 0.4 0.129412 0.596078 0.4 
0.129412 0.596078 0.4 0.129412 0.596078 0.4 
0.129412 0.596078 0.4 0.129412 0.596078 0.4 
0.129412 0.596078 0.4 0.129412 0.596078 0.4 
0.129412 0.596078 0.4 0.129412 0.596078 0.4 
0.129412 0.596078 0.4 0.129412 0.596078 0.4 
0.129412 0.596078 0.4 0.129412 0.596078 0.4 
0.129412 0.596078 0.4 0.129412 0.596078 0.4 
0.129412 0.596078 0.4 0.129412 0.596078 0.4 
0.129412 0.596078 0.4 0.129412 0.596078 0.4 
0.129412 0.596078 0.4 0.129412 0.596078 0.4 
0.129412 0.596078 0.4 0.129412 0.596078 0.4 
0.129412 0.596078 0.4 0.129412 0.596078 0.4 
0.129412 0.596078 0.4 0.129412 0.596078 0.4 
0.129412 0.596078 0.4 0.129412 0.596078 0.4 
0.129412 0.596078 0.4 0.129412 0.596078 0.4 
0.129412 0.596078 0.4 0.129412 0.596078 0.4 
0.129412 0.596078 0.4 0.129412 0.596078 0.4 
0.129412 0.596078 0.4 0.129412 0.596078 0.4 
0.129412 0.596078 0.4 0.129412 0.596078 0.4 
0.129412 0.596078 0.4 0.129412 0.596078 0.4 
0.129412 0.596078 0.4 0.129412 0.596078 0.4 
0.129412 0.596078 0.4 0.129412 0.596078 0.4 
0.129412 0.596078 0.4 0.129412 0.596078 0.4 
0.129412 0.596078 0.4 0.129412 0.596078 0.4 
0.129412 0.596078 0.4 0.129412 0.596078 0.4 
0.129412 0.596078 0.4 0.129412 0.596078 0.4 
0.129412 0.596078 0.4 0.129412 0.596078 0.4 
0.129412 0.596078 0.4 0.129412 0.596078 0.4 
0.129412 0.596078 0.4 0.129412 0.596078 0.4 
0.129412 0.596078 0.4 0.129412 0.596078 0.4 
0.129412 0.596078 0.4 0.129412 0.596078 0.4 
0.129412 0.596078 0.4 0.129412 0.596078 0.4 
0.129412 0.596078 0.4 0.129412 0.596078 0.4 
0.129412 0.596078 0.4 0.129412 0.596078 0.4 
0.129412 0.596078 0.4 0.129412 0.596078 0.4 
0.129412 0.596078 0.4 0.129412 0.596078 0.4 
0.129412 0.596078 0.4 0.129412 0.596078 0.4 
0.129412 0.596078 0.4 0.129412 0.596078 0.4 
0.129412 0.596078 0.4 0.129412 0.596078 0.4 
0.129412 0.596078 0.4 0.129412 0.596078 0.4 
0.129412 0.596078 0.4 0.129412 0.596078 0.4 
0.129412 0.596078 0.4 0.129412 0.596078 0.4 
0.129412 0.596078 0.4 0.129412 0.596078 0.4 
0.129412 0.596078 0.4 0.129412 0.596078 0.4 
0.129412 0.596078 0.4 0.129412 0.596078 0.4 
0.129412 0.596078 0.4 0.129412 0.596078 0.4 
0.129412 0.596078 0.4 0.129412 0.596078 0.4 
0.129412 0.596078 0.4 0.129412 0.596078 0.4 
0.129412 0.596078 0.4 0.129412 0.596078 0.4 
0.129412 0.596078 0.4 0.129412 0.596078 0.4 
0.129412 0.596078 0.4 0.129412 0.596078 0.4 
0.129412 0.596078 0.4 0.129412 0.596078 0.4 
0.129412 0.596078 0.4 0.129412 0.596078 0.4 
0.129412 0.596078 0.4 0.129412 0.596078 0.4 
0.129412 0.596078 0.4 0.129412 0.596078 0.4 
0.129412 0.596078 0.4 0.129412 0.596078 0.4 
0.129412 0.596078 0.4 0.129412 0.596078 0.4 
0.129412 0.596078 0.4 0.129412 0.596078 0.4 
0.129412 0.596078 0.4 0.129412 0.596078 0.4 
0.129412 0.596078 0.4 0.129412 0.596078 0.4 
0.129412 0.596078 0.4 0.129412 0.596078 0.4 
0.129412 0.596078 0.4 0.129412 0.596078 0.4 
0.129412 0.596078 0.4 0.129412 0.596078 0.4 
0.129412 0.596078 0.4 0.129412 0.596078 0.4 
0.129412 0.596078 0.4 0.129412 0.596078 0.4 
0.129412 0.596078 0.4 0.129412 0.596078 0.4 
0.129412 0.596078 0.4 0.129412 0.596078 0.4 
0.129412 0.596078 0.4 0.129412 0.596078 0.4 
0.129412 0.596078 0.4 0.129412 0.596078 0.4 
0.129412 0.596078 0.4 0.129412 0.596078 0.4 
0.129412 0.596078 0.4 0.129412 0.596078 0.4 
0.129412 0.596078 0.4 0.129412 0.596078 0.4 
0.129412 0.596078 0.4 0.129412 0.596078 0.4 
0.129412 0.596078 0.4 0.129412 0.596078 0.4 
0.129412 0.596078 0.4 0.129412 0.596078 0.4 
0.129412 0.596078 0.4 0.129412 0.596078 0.4 
0.129412 0.596078 0.4 0.129412 0.596078 0.4 
0.129412 0.596078 0.4 0.129412 0.596078 0.4 
0.129412 0.596078 0.4 0.129412 0.596078 0.4 
0.129412 0.596078 0.4 0.129412 0.596078 0.4 
0.129412 0.596078 0.4 0.129412 0.596078 0.4 
0.129412 0.596078 0.4 0.129412 0.596078 0.4 
0.129412 0.596078 0.4 0.129412 0.596078 0.4 
0.129412 0.596078 0.4 0.129412 0.596078 0.4 
0.129412 0.596078 0.4 0.129412 0.596078 0.4 
0.129412 0.596078 0.4 0.129412 0.596078 0.4 
0.129412 0.596078 0.4 0.129412 0.596078 0.4 
0.129412 0.596078 0.4 0.129412 0.596078 0.4 
0.129412 0.596078 0.4 0.129412 0.596078 0.4 
0.129412 0.596078 0.4 0.129412 0.596078 0.4 
0.129412 0.596078 0.4 0.129412 0.596078 0.4 
0.129412 0.596078 0.4 0.129412 0.596078 0.4 
0.129412 0.596078 0.4 0.129412 0.596078 0.4 
0.129412 0.596078 0.4 0.129412 0.596078 0.4 
0.129412 0.596078 0.4 0.129412 0.596078 0.4 
0.129412 0.596078 0.4 0.129412 0.596078 0.4 
0.129412 0.596078 0.4 0.129412 0.596078 0.4 
0.129412 0.596078 0.4 0.129412 0.596078 0.4 
0.129412 0.596078 0.4 0.129412 0.596078 0.4 
0.129412 0.596078 0.4 0.129412 0.596078 0.4 
0.129412 0.596078 0.4 0.129412 0.596078 0.4 
0.129412 0.596078 0.4 0.129412 0.596078 0.4 
0.129412 0.596078 0.4 0.129412 0.596078 0.4 
0.129412 0.596078 0.4 0.129412 0.596078 0.4 
0.129412 0.596078 0.4 0.129412 0.596078 0.4 
0.129412 0.596078 0.4 0.129412 0.596078 0.4 
0.129412 0.596078 0.4 0.129412 0.596078 0.4 
0.129412 0.596078 0.4 0.129412 0.596078 0.4 
0.129412 0.596078 0.4 0.129412 0.596078 0.4 
0.129412 0.596078 0.4 0.129412 0.596078 0.4 
0.129412 0.596078 0.4 0.129412 0.596078 0.4 
0.129412 0.596078 0.4 0.129412 0.596078 0.4 
0.129412 0.596078 0.4 0.129412 0.596078 0.4 
0.129412 0.596078 0.4 0.129412 0.596078 0.4 
0.129412 0.596078 0.4 0.129412 0.596078 0.4 
0.129412 0.596078 0.4 0.129412 0.596078 0.4 
0.129412 0.596078 0.4 0.129412 0.596078 0.4 
0.129412 0.596078 0.4 0.129412 0.596078 0.4 
0.129412 0.596078 0.4 0.129412 0.596078 0.4 
0.129412 0.596078 0.4 0.129412 0.596078 0.4 
0.129412 0.596078 0.4 0.129412 0.596078 0.4 
0.129412 0.596078 0.4 0.129412 0.596078 0.4 
0.129412 0.596078 0.4 0.129412 0.596078 0.4 
0.129412 0.596078 0.4 0.129412 0.596078 0.4 
0.129412 0.596078 0.4 0.129412 0.596078 0.4 
0.129412 0.596078 0.4 0.129412 0.596078 0.4 
0.129412 0.596078 0.4 0.129412 0.596078 0.4 
0.129412 0.596078 0.4 0.129412 0.596078 0.4 
0.129412 0.596078 0.4 0.129412 0.596078 0.4 
0.129412 0.596078 0.4 0.129412 0.596078 0.4 
0.129412 0.596078 0.4 0.129412 0.596078 0.4 
0.129412 0.596078 0.4 0.129412 0.596078 0.4 
0.129412 0.596078 0.4 0.129412 0.596078 0.4 
0.129412 0.596078 0.4 0.129412 0.596078 0.4 
0.129412 0.596078 0.4 0.129412 0.596078 0.4 
0.129412 0.596078 0.4 0.129412 0.596078 0.4 
0.129412 0.596078 0.4 0.129412 0.596078 0.4 
0.129412 0.596078 0.4 0.129412 0.596078 0.4 
0.129412 0.596078 0.4 0.129412 0.596078 0.4 
0.129412 0.596078 0.4 0.129412 0.596078 0.4 
0.129412 0.596078 0.4 0.129412 0.596078 0.4 
0.129412 0.596078 0.4 0.129412 0.596078 0.4 
0.129412 0.596078 0.4 0.129412 0.596078 0.4 
0.129412 0.596078 0.4 0.129412 0.596078 0.4 
0.129412 0.596078 0.4 0.129412 0.596078 0.4 
0.129412 0.596078 0.4 0.129412 0.596078 0.4 
0.129412 0.596078 0.4 0.129412 0.596078 0.4 
0.129412 0.596078 0.4 0.129412 0.596078 0.4 
0.129412 0.596078 0.4 0.129412 0.596078 0.4 
0.129412 0.596078 0.4 0.129412 0.596078 0.4 
0.129412 0.596078 0.4 0.129412 0.596078 0.4 
0.129412 0.596078 0.4 0.129412 0.596078 0.4 
0.129412 0.596078 0.4 0.129412 0.596078 0.4 
0.129412 0.596078 0.4 0.129412 0.596078 0.4 
0.129412 0.596078 0.4 0.129412 0.596078 0.4 
0.129412 0.596078 0.4 0.129412 0.596078 0.4 
0.129412 0.596078 0.4 0.129412 0.596078 0.4 
0.129412 0.596078 0.4 0.129412 0.596078 0.4 
0.129412 0.596078 0.4 0.129412 0.596078 0.4 
0.129412 0.596078 0.4 0.129412 0.596078 0.4 
0.129412 0.596078 0.4 0.129412 0.596078 0.4 
0.129412 0.596078 0.4 0.129412 0.596078 0.4 
0.129412 0.596078 0.4 0.129412 0.596078 0.4 
0.129412 0.596078 0.4 0.129412 0.596078 0.4 
0.129412 0.596078 0.4 0.129412 0.596078 0.4 
0.129412 0.596078 0.4 0.129412 0.596078 0.4 
0.129412 0.596078 0.4 0.129412 0.596078 0.4 
0.129412 0.596078 0.4 0.129412 0.596078 0.4 
0.129412 0.596078 0.4 0.129412 0.596078 0.4 
0.129412 0.596078 0.4 0.129412 0.596078 0.4 
0.129412 0.596078 0.4 0.129412 0.596078 0.4 
0.129412 0.596078 0.4 0.129412 0.596078 0.4 
0.129412 0.596078 0.4 0.129412 0.596078 0.4 
0.129412 0.596078 0.4 0.129412 0.596078 0.4 
0.129412 0.596078 0.4 0.129412 0.596078 0.4 
0.129412 0.596078 0.4 0.129412 0.596078 0.4 
0.129412 0.596078 0.4 0.129412 0.596078 0.4 
0.129412 0.596078 0.4 0.129412 0.596078 0.4 
0.129412 0.596078 0.4 0.129412 0.596078 0.4 
0.129412 0.596078 0.4 0.129412 0.596078 0.4 
0.129412 0.596078 0.4 0.129412 0.596078 0.4 
0.129412 0.596078 0.4 0.129412 0.596078 0.4 
0.129412 0.596078 0.4 0.129412 0.596078 0.4 
0.129412 0.596078 0.4 0.129412 0.596078 0.4 
0.129412 0.596078 0.4 0.129412 0.596078 0.4 
0.129412 0.596078 0.4 0.129412 0.596078 0.4 
0.129412 0.596078 0.4 0.129412 0.596078 0.4 
0.129412 0.596078 0.4 0.129412 0.596078 0.4 
0.129412 0.596078 0.4 0.129412 0.596078 0.4 
0.129412 0.596078 0.4 0.129412 0.596078 0.4 
0.129412 0.596078 0.4 0.129412 0.596078 0.4 
0.129412 0.596078 0.4 0.129412 0.596078 0.4 
0.129412 0.596078 0.4 0.129412 0.596078 0.4 
0.129412 0.596078 0.4 0.129412 0.596078 0.4 
0.129412 0.596078 0.4 0.129412 0.596078 0.4 
0.129412 0.596078 0.4 0.129412 0.596078 0.4 
0.129412 0.596078 0.4 0.129412 0.596078 0.4 
0.129412 0.596078 0.4 0.129412 0.596078 0.4 
0.129412 0.596078 0.4 0.129412 0.596078 0.4 
0.129412 0.596078 0.4 0.129412 0.596078 0.4 
0.129412 0.596078 0.4 0.129412 0.596078 0.4 
0.129412 0.596078 0.4 0.129412 0.596078 0.4 
0.129412 0.596078 0.4 0.129412 0.596078 0.4 
0.129412 0.596078 0.4 0.129412 0.596078 0.4 
0.129412 0.596078 0.4 0.129412 0.596078 0.4 
0.129412 0.596078 0.4 0.129412 0.596078 0.4 
0.129412 0.596078 0.4 0.129412 0.596078 0.4 
0.129412 0.596078 0.4 0.129412 0.596078 0.4 
0.129412 0.596078 0.4 0.129412 0.596078 0.4 
0.129412 0.596078 0.4 0.129412 0.596078 0.4 
0.129412 0.596078 0.4 0.129412 0.596078 0.4 
0.129412 0.596078 0.4 0.129412 0.596078 0.4 
0.129412 0.596078 0.4 0.129412 0.596078 0.4 
0.129412 0.596078 0.4 0.129412 0.596078 0.4 
0.129412 0.596078 0.4 0.129412 0.596078 0.4 
0.129412 0.596078 0.4 0.129412 0.596078 0.4 
0.129412 0.596078 0.4 0.129412 0.596078 0.4 
0.129412 0.596078 0.4 0.129412 0.596078 0.4 
0.129412 0.596078 0.4 0.129412 0.596078 0.4 
0.129412 0.596078 0.4 0.129412 0.596078 0.4 
0.129412 0.596078 0.4 0.129412 0.596078 0.4 
0.129412 0.596078 0.4 0.129412 0.596078 0.4 
0.129412 0.596078 0.4 0.129412 0.596078 0.4 
0.129412 0.596078 0.4 0.129412 0.596078 0.4 
0.129412 0.596078 0.4 0.129412 0.596078 0.4 
0.129412 0.596078 0.4 0.129412 0.596078 0.4 
0.129412 0.596078 0.4 0.129412 0.596078 0.4 
0.129412 0.596078 0.4 0.129412 0.596078 0.4 
0.129412 0.596078 0.4 0.129412 0.596078 0.4 
0.129412 0.596078 0.4 0.129412 0.596078 0.4 
0.129412 0.596078 0.4 0.129412 0.596078 0.4 
0.129412 0.596078 0.4 0.129412 0.596078 0.4 
0.129412 0.596078 0.4 0.129412 0.596078 0.4 
0.129412 0.596078 0.4 0.129412 0.596078 0.4 
0.129412 0.596078 0.4 0.129412 0.596078 0.4 
0.129412 0.596078 0.4 0.129412 0.596078 0.4 
0.129412 0.596078 0.4 0.129412 0.596078 0.4 
0.129412 0.596078 0.4 0.129412 0.596078 0.4 
0.129412 0.596078 0.4 0.129412 0.596078 0.4 
0.129412 0.596078 0.4 0.129412 0.596078 0.4 
0.129412 0.596078 0.4 0.129412 0.596078 0.4 
0.129412 0.596078 0.4 0.129412 0.596078 0.4 
0.129412 0.596078 0.4 0.129412 0.596078 0.4 
0.129412 0.596078 0.4 0.129412 0.596078 0.4 
0.129412 0.596078 0.4 0.129412 0.596078 0.4 
0.129412 0.596078 0.4 0.129412 0.596078 0.4 
0.129412 0.596078 0.4 0.129412 0.596078 0.4 
0.129412 0.596078 0.4 0.129412 0.596078 0.4 
0.129412 0.596078 0.4 0.129412 0.596078 0.4 
0.129412 0.596078 0.4 0.129412 0.596078 0.4 
0.129412 0.596078 0.4 0.129412 0.596078 0.4 
0.129412 0.596078 0.4 0.129412 0.596078 0.4 
0.129412 0.596078 0.4 0.129412 0.596078 0.4 
0.129412 0.596078 0.4 0.129412 0.596078 0.4 
0.129412 0.596078 0.4 0.129412 0.596078 0.4 
0.129412 0.596078 0.4 0.129412 0.596078 0.4 
0.129412 0.596078 0.4 0.129412 0.596078 0.4 
0.129412 0.596078 0.4 0.129412 0.596078 0.4 
0.129412 0.596078 0.4 0.129412 0.596078 0.4 
0.129412 0.596078 0.4 0.129412 0.596078 0.4 
0.129412 0.596078 0.4 0.129412 0.596078 0.4 
0.129412 0.596078 0.4 0.129412 0.596078 0.4 
0.129412 0.596078 0.4 0.129412 0.596078 0.4 
0.129412 0.596078 0.4 0.129412 0.596078 0.4 
0.129412 0.596078 0.4 0.129412 0.596078 0.4 
0.129412 0.596078 0.4 0.129412 0.596078 0.4 
0.129412 0.596078 0.4 0.129412 0.596078 0.4 
0.129412 0.596078 0.4 0.129412 0.596078 0.4 
0.129412 0.596078 0.4 0.129412 0.596078 0.4 
0.129412 0.596078 0.4 0.129412 0.596078 0.4 
0.129412 0.596078 0.4 0.129412 0.596078 0.4 
0.129412 0.596078 0.4 0.129412 0.596078 0.4 
0.129412 0.596078 0.4 0.129412 0.596078 0.4 
0.129412 0.596078 0.4 0.129412 0.596078 0.4 
0.129412 0.596078 0.4 0.129412 0.596078 0.4 
0.129412 0.596078 0.4 0.129412 0.596078 0.4 
0.129412 0.596078 0.4 0.129412 0.596078 0.4 
0.129412 0.596078 0.4 0.129412 0.596078 0.4 
0.129412 0.596078 0.4 0.129412 0.596078 0.4 
0.129412 0.596078 0.4 0.129412 0.596078 0.4 
0.129412 0.596078 0.4 0.129412 0.596078 0.4 
0.129412 0.596078 0.4 0.129412 0.596078 0.4 
0.129412 0.596078 0.4 0.129412 0.596078 0.4 
0.129412 0.596078 0.4 0.129412 0.596078 0.4 
0.129412 0.596078 0.4 0.129412 0.596078 0.4 
0.129412 0.596078 0.4 0.129412 0.596078 0.4 
0.129412 0.596078 0.4 0.129412 0.596078 0.4 
0.129412 0.596078 0.4 0.129412 0.596078 0.4 
0.129412 0.596078 0.4 0.129412 0.596078 0.4 
0.129412 0.596078 0.4 0.129412 0.596078 0.4 
0.129412 0.596078 0.4 0.129412 0.596078 0.4 
0.129412 0.596078 0.4 0.129412 0.596078 0.4 
0.129412 0.596078 0.4 0.129412 0.596078 0.4 
0.129412 0.596078 0.4 0.129412 0.596078 0.4 
0.129412 0.596078 0.4 0.129412 0.596078 0.4 
0.129412 0.596078 0.4 0.129412 0.596078 0.4 
0.129412 0.596078 0.4 0.129412 0.596078 0.4 
0.129412 0.596078 0.4 0.129412 0.596078 0.4 
0.129412 0.596078 0.4 0.129412 0.596078 0.4 
0.129412 0.596078 0.4 0.129412 0.596078 0.4 
0.129412 0.596078 0.4 0.129412 0.596078 0.4 
0.129412 0.596078 0.4 0.129412 0.596078 0.4 
0.129412 0.596078 0.4 0.129412 0.596078 0.4 
0.129412 0.596078 0.4 0.129412 0.596078 0.4 
0.129412 0.596078 0.4 0.129412 0.596078 0.4 
0.129412 0.596078 0.4 0.129412 0.596078 0.4 
0.129412 0.596078 0.4 0.129412 0.596078 0.4 
0.129412 0.596078 0.4 0.129412 0.596078 0.4 
0.129412 0.596078 0.4 0.129412 0.596078 0.4 
0.129412 0.596078 0.4 0.129412 0.596078 0.4 
0.129412 0.596078 0.4 0.129412 0.596078 0.4 
0.129412 0.596078 0.4 0.129412 0.596078 0.4 
0.129412 0.596078 0.4 0.129412 0.596078 0.4 
0.129412 0.596078 0.4 0.129412 0.596078 0.4 
0.129412 0.596078 0.4 0.129412 0.596078 0.4 
0.129412 0.596078 0.4 0.129412 0.596078 0.4 
0.129412 0.596078 0.4 0.129412 0.596078 0.4 
0.129412 0.596078 0.4 0.129412 0.596078 0.4 
0.129412 0.596078 0.4 0.129412 0.596078 0.4 
0.129412 0.596078 0.4 0.129412 0.596078 0.4 
0.129412 0.596078 0.4 0.129412 0.596078 0.4 
0.129412 0.596078 0.4 0.129412 0.596078 0.4 
0.129412 0.596078 0.4 0.129412 0.596078 0.4 
0.129412 0.596078 0.4 0.129412 0.596078 0.4 
0.129412 0.596078 0.4 0.129412 0.596078 0.4 
0.129412 0.596078 0.4 0.129412 0.596078 0.4 
0.129412 0.596078 0.4 0.129412 0.596078 0.4 
0.129412 0.596078 0.4 0.129412 0.596078 0.4 
0.129412 0.596078 0.4 0.129412 0.596078 0.4 
0.129412 0.596078 0.4 0.129412 0.596078 0.4 
0.129412 0.596078 0.4 0.129412 0.596078 0.4 
0.129412 0.596078 0.4 0.129412 0.596078 0.4 
0.129412 0.596078 0.4 0.129412 0.596078 0.4 
0.129412 0.596078 0.4 0.129412 0.596078 0.4 
0.129412 0.596078 0.4 0.129412 0.596078 0.4 
0.129412 0.596078 0.4 0.129412 0.596078 0.4 
0.129412 0.596078 0.4 0.129412 0.596078 0.4 
0.129412 0.596078 0.4 0.129412 0.596078 0.4 
0.129412 0.596078 0.4 0.129412 0.596078 0.4 
0.129412 0.596078 0.4 0.129412 0.596078 0.4 
0.129412 0.596078 0.4 0.129412 0.596078 0.4 
0.129412 0.596078 0.4 0.129412 0.596078 0.4 
0.129412 0.596078 0.4 0.129412 0.596078 0.4 
0.129412 0.596078 0.4 0.129412 0.596078 0.4 
0.129412 0.596078 0.4 0.129412 0.596078 0.4 
0.129412 0.596078 0.4 0.129412 0.596078 0.4 
0.129412 0.596078 0.4 0.129412 0.596078 0.4 
0.129412 0.596078 0.4 0.129412 0.596078 0.4 
0.129412 0.596078 0.4 0.129412 0.596078 0.4 
0.129412 0.596078 0.4 0.129412 0.596078 0.4 
0.129412 0.596078 0.4 0.129412 0.596078 0.4 
0.129412 0.596078 0.4 0.129412 0.596078 0.4 
0.129412 0.596078 0.4 0.129412 0.596078 0.4 
0.129412 0.596078 0.4 0.129412 0.596078 0.4 
0.129412 0.596078 0.4 0.129412 0.596078 0.4 
0.129412 0.596078 0.4 0.129412 0.596078 0.4 
0.129412 0.596078 0.4 0.129412 0.596078 0.4 
0.129412 0.596078 0.4 0.129412 0.596078 0.4 
0.129412 0.596078 0.4 0.129412 0.596078 0.4 
0.129412 0.596078 0.4 0.129412 0.596078 0.4 
0.129412 0.596078 0.4 0.129412 0.596078 0.4 
0.129412 0.596078 0.4 0.129412 0.596078 0.4 
0.129412 0.596078 0.4 0.129412 0.596078 0.4 
0.129412 0.596078 0.4 0.129412 0.596078 0.4 
0.129412 0.596078 0.4 0.129412 0.596078 0.4 
0.129412 0.596078 0.4 0.129412 0.596078 0.4 
0.129412 0.596078 0.4 0.129412 0.596078 0.4 
0.129412 0.596078 0.4 0.129412 0.596078 0.4 
0.129412 0.596078 0.4 0.129412 0.596078 0.4 
0.129412 0.596078 0.4 0.129412 0.596078 0.4 
0.129412 0.596078 0.4 0.129412 0.596078 0.4 
0.129412 0.596078 0.4 0.129412 0.596078 0.4 
0.129412 0.596078 0.4 0.129412 0.596078 0.4 
0.129412 0.596078 0.4 0.129412 0.596078 0.4 
0.129412 0.596078 0.4 0.129412 0.596078 0.4 
0.129412 0.596078 0.4 0.129412 0.596078 0.4 
0.129412 0.596078 0.4 0.129412 0.596078 0.4 
0.129412 0.596078 0.4 0.129412 0.596078 0.4 
0.129412 0.596078 0.4 0.129412 0.596078 0.4 
0.129412 0.596078 0.4 0.129412 0.596078 0.4 
0.129412 0.596078 0.4 0.129412 0.596078 0.4 
0.129412 0.596078 0.4 0.129412 0.596078 0.4 
0.129412 0.596078 0.4 0.129412 0.596078 0.4 
0.129412 0.596078 0.4 0.129412 0.596078 0.4 
0.129412 0.596078 0.4 0.129412 0.596078 0.4 
0.129412 0.596078 0.4 0.129412 0.596078 0.4 
0.129412 0.596078 0.4 0.129412 0.596078 0.4 
0.129412 0.596078 0.4 0.129412 0.596078 0.4 
0.129412 0.596078 0.4 0.129412 0.596078 0.4 
0.129412 0.596078 0.4 0.129412 0.596078 0.4 
0.129412 0.596078 0.4 0.129412 0.596078 0.4 
0.129412 0.596078 0.4 0.129412 0.596078 0.4 
0.129412 0.596078 0.4 0.129412 0.596078 0.4 
0.129412 0.596078 0.4 0.129412 0.596078 0.4 
0.129412 0.596078 0.4 0.129412 0.596078 0.4 
0.129412 0.596078 0.4 0.129412 0.596078 0.4 
0.129412 0.596078 0.4 0.129412 0.596078 0.4 
0.129412 0.596078 0.4 0.129412 0.596078 0.4 
0.129412 0.596078 0.4 0.129412 0.596078 0.4 
0.129412 0.596078 0.4 0.129412 0.596078 0.4 
0.129412 0.596078 0.4 0.129412 0.596078 0.4 
0.129412 0.596078 0.4 0.129412 0.596078 0.4 
0.129412 0.596078 0.4 0.129412 0.596078 0.4 
0.129412 0.596078 0.4 0.129412 0.596078 0.4 
0.129412 0.596078 0.4 0.129412 0.596078 0.4 
0.129412 0.596078 0.4 0.129412 0.596078 0.4 
0.129412 0.596078 0.4 0.129412 0.596078 0.4 
0.129412 0.596078 0.4 0.129412 0.596078 0.4 
0.129412 0.596078 0.4 0.129412 0.596078 0.4 
0.129412 0.596078 0.4 0.129412 0.596078 0.4 
0.129412 0.596078 0.4 0.129412 0.596078 0.4 
0.129412 0.596078 0.4 0.129412 0.596078 0.4 
0.129412 0.596078 0.4 0.129412 0.596078 0.4 
0.129412 0.596078 0.4 0.129412 0.596078 0.4 
0.129412 0.596078 0.4 0.129412 0.596078 0.4 
0.129412 0.596078 0.4 0.129412 0.596078 0.4 
0.129412 0.596078 0.4 0.129412 0.596078 0.4 
0.129412 0.596078 0.4 0.129412 0.596078 0.4 
0.129412 0.596078 0.4 0.129412 0.596078 0.4 
0.129412 0.596078 0.4 0.129412 0.596078 0.4 
0.129412 0.596078 0.4 0.129412 0.596078 0.4 
0.129412 0.596078 0.4 0.129412 0.596078 0.4 
0.129412 0.596078 0.4 0.129412 0.596078 0.4 
0.129412 0.596078 0.4 0.129412 0.596078 0.4 
0.129412 0.596078 0.4 0.129412 0.596078 0.4 