# vtk DataFile Version 4.2
vtk output
ASCII
DATASET POLYDATA
POINTS 2522 float
229.046 194.803 70.0442 229.035 194.934 70.0163 229.189 194.909 70.0778 
238.668 199.387 69.6519 238.722 199.839 69.362 240.33 199.901 69.339 
240.516 199.7 69.5113 239.212 200.066 69.2288 239.685 200.217 69.1599 
239.935 200.509 69.1359 240.689 200.26 69.2882 241.077 200.416 69.366 
241.037 200.186 69.4422 225.492 194.819 70.5498 225.716 194.784 70.5892 
227.715 195.092 70.0924 228.762 195 70.0324 228.464 194.629 70.3135 
225.578 194.929 70.487 228.069 195.46 69.9118 229.32 195.324 70.0501 
229.456 194.876 70.3279 227.913 195.857 69.8471 229.836 197.271 69.7301 
231.784 197.572 70.0774 232.615 197.752 70.2647 231.6 198.13 69.8686 
234.022 198.908 69.8884 240.811 199.713 69.6491 234.292 199.69 69.6698 
236.899 201.362 69.384 241.97 201.085 69.8736 240.535 201.723 69.3642 
241.984 202.699 69.9679 242.345 202.607 70.1898 225.753 195.28 70.4041 
225.246 196.384 70.4046 238.01 198.708 70.3772 239.372 198.747 70.4467 
239.676 198.677 70.7058 232.126 199.843 69.8321 234.521 200.346 69.6096 
242.064 200.542 70.1603 241.487 203.736 70.0648 242.099 204.813 70.5658 
243.403 204.111 71.3418 243.1 204.71 71.1508 227.881 193.929 71.3312 
228.722 194.045 71.1566 223.151 194.741 71.6766 221.707 194.826 71.9762 
221.929 195.386 71.659 232.609 196.577 71.547 226.082 198.063 70.4155 
234.356 197.582 71.4 241.14 199.317 70.6587 242.203 200.412 70.4783 
232.047 201.177 70.0856 243.09 201.583 71.1374 228.608 193.798 72.0402 
222.348 194.344 72.2273 218.496 195.45 72.7628 219.646 196.88 72.1437 
233.599 196.9 72.3426 235.287 197.702 72.0351 240.878 198.928 71.7464 
242.156 200 71.1556 243.04 201.07 71.6467 244.388 204.454 72.5863 
243.267 207.822 72.6439 216.432 194.729 74.185 216.223 195.199 73.8992 
217.601 195.133 73.3526 222.572 193.7 73.3336 216.492 195.636 73.565 
216.195 196.028 73.5658 231.99 195.712 73.1023 216.631 196.81 73.3064 
218.289 197.197 72.7223 234.241 197.178 72.9061 237.952 198.316 72.6158 
241.026 198.997 72.17 242.282 199.989 72.0837 243.88 202.396 72.9709 
244.238 203.049 73.037 244.399 203.606 72.9379 244.863 204.778 73.6453 
228.229 205.747 72.9848 244.322 206.704 73.1537 237.791 209.383 72.8777 
239.857 210.138 73.2927 241.755 209.603 73.0169 242.716 209.356 73.3847 
240.973 210.186 73.4016 241.234 210.283 73.6281 241.912 209.947 73.4161 
228.496 193.744 73.4369 229.763 194.222 73.4092 215.931 194.405 74.7844 
219.063 193.704 74.458 214.155 195.211 74.9186 214.344 196.07 74.487 
234.337 197.404 73.9917 241.343 199.201 72.3791 240.96 199.057 72.5407 
242.746 200.58 72.8009 243.02 200.897 72.6061 243.942 202.44 73.7031 
244.336 203.017 73.9044 243.979 208.186 73.9329 237.359 210.149 73.7069 
237.408 210.443 74.1054 237.717 210.558 74.3609 238.939 210.397 73.8432 
242.202 209.976 73.7322 242.583 209.784 73.9261 239.436 210.523 74.1681 
241.222 210.363 74.0304 241.841 210.207 74.0067 219.034 193.418 74.9203 
219.179 193.405 74.9666 225.937 193.444 74.6643 212.079 194.729 76.3791 
211.942 195.01 76.2378 212.83 194.933 75.8335 212.504 194.596 76.2829 
213.855 194.8 75.3728 213.736 194.402 75.8533 217.253 193.814 75.1283 
219.612 193.429 75.0655 212.105 195.27 76.0368 212.591 195.521 75.7266 
212.551 196.248 75.7069 231.857 195.799 74.2492 212.536 196.764 75.7783 
212.729 197.224 75.7057 213.058 197.579 75.5125 213.292 198.063 75.5084 
213.608 197.844 75.1781 215.236 198.027 74.2045 240.41 199.579 73.9615 
241.761 199.815 73.0729 243.473 202.055 74.2566 245.163 204.713 74.7212 
245.271 206.083 74.9972 245.476 205.555 75.5868 244.775 207.342 74.9407 
244.279 208.054 74.8648 241.859 210.088 74.8585 242.714 209.675 74.3022 
234.963 210.453 74.7466 235.439 210.608 75.0616 220.076 193.337 75.6811 
220.578 193.347 75.9389 221.477 193.327 75.5287 229.107 194.206 74.504 
211.962 194.637 76.7077 211.853 194.855 76.4707 212.77 194.184 76.7698 
216.051 193.75 75.9019 216.797 193.684 75.7074 230.271 194.754 74.5516 
211.892 195.268 76.2004 211.783 195.097 76.4085 211.876 195.757 76.5577 
232.224 196.538 75.0326 212.418 197.027 76.0668 212.413 197.439 76.3886 
212.188 197.244 76.7537 234.923 199.05 75.7069 213.506 199.308 76.2996 
214.027 200.417 76.5167 214.225 200.316 76.1471 216.69 203.44 76.0026 
240.905 202.036 76.2854 241.826 202.196 76.1228 243.089 202.516 75.7527 
243.78 202.856 75.499 244.237 203.362 75.9632 244.932 207.313 75.6596 
225.277 208.595 75.5141 244.426 207.888 75.5368 226.18 209.372 75.8125 
241.876 209.57 75.7794 228.709 210.129 75.7431 229.025 210.36 75.9291 
229.459 210.454 75.96 229.73 210.576 76.1639 230.923 210.454 75.7097 
236.358 210.588 75.8455 236.172 210.643 75.5948 238.993 210.504 75.2697 
231.396 210.613 76.156 229.507 192.004 77.0175 229.507 192.004 77.0175 
229.506 192.005 77.0175 229.507 192.004 77.0174 229.507 192.004 77.0174 
229.507 192.004 77.0173 213.101 193.792 77.6019 218.097 193.5 77.0392 
220.999 193.5 76.4637 222.805 193.554 76.1909 224.655 193.876 76.2273 
229.506 192.005 77.0175 228.72 194.778 75.6304 229.507 192.004 77.0174 
211.783 194.934 76.706 212.228 194.335 77.0511 213.417 193.831 77.1635 
215.793 193.625 76.4367 227.371 195.15 76.5443 211.753 195.259 76.5978 
212.056 196.96 77.094 211.981 196.612 77.5357 230.94 197.214 76.2752 
230.139 198.055 76.8835 212.561 198.063 77.5832 212.865 198.696 77.2738 
228.68 199.893 77.7266 214.126 200.931 77.1719 215.624 203.502 77.2323 
235.101 203.211 78.0291 245.445 204.3 77.1587 245.978 205.054 77.1455 
246.001 205.748 77.0671 245.859 206.217 77.1427 245.414 206.767 76.8593 
243.687 208.288 76.3138 244.254 207.956 76.1377 221.963 209.079 77.0653 
227.712 210.212 76.1963 233.564 210.44 76.6066 226.126 210.292 77.2206 
226.891 210.441 77.3364 231.429 210.593 76.8413 231.265 210.643 76.612 
229.656 210.645 76.586 229.506 192.004 77.0175 229.507 192.004 77.0174 
212.464 194.145 77.907 212.116 194.404 77.5078 213.352 193.737 77.9223 
218.893 193.678 77.4145 221.722 193.837 76.9901 222.642 193.854 76.7997 
215.842 193.53 77.0667 223.979 195.009 77.4493 226.042 195.364 77.0459 
211.794 195.772 77.641 225.407 196.38 77.613 213.464 199.575 78.1042 
213.755 200.327 77.9207 227.676 201.089 78.3833 214.975 202.911 77.9869 
246.555 204.132 78.7139 215.698 204.654 78.5029 244.262 203.76 77.9513 
216.042 205.779 78.7941 241.1 204.141 78.8453 246.772 205.141 78.6752 
246.53 205.597 78.4958 218.891 207.831 77.3314 242.605 207.519 78.125 
243.913 207.555 77.4785 218.867 208.4 77.7545 222.436 209.934 78.1829 
223.358 210.076 77.8642 227.174 210.383 77.7819 229.5 210.468 77.422 
223.995 210.273 78.0992 223.946 210.235 77.8679 230.844 210.588 76.9331 
224.307 210.313 77.9491 224.693 210.325 77.9421 212.429 194.345 78.3762 
214.237 193.767 78.3723 215.049 193.554 77.8995 215.423 193.596 78.1037 
216.544 193.716 78.1019 219.655 194.003 77.746 220.694 194.421 77.8888 
211.926 194.897 77.9966 219.341 194.687 78.46 221.13 194.945 78.1502 
220.453 195.731 78.6282 212.667 197.541 78.4683 214.351 201.254 78.5127 
246.929 203.824 79.4194 246.717 203.884 79.1605 247.086 203.997 79.4144 
215.523 204.086 79.0004 245.542 203.915 78.4394 215.93 205.736 79.3328 
237.353 206.901 79.0717 239.684 206.851 78.9756 246.07 205.994 78.6788 
246.414 205.722 78.7361 224.174 209.785 79.2762 219.703 209.758 78.6897 
221.211 210.004 78.603 223.673 210.134 78.4467 221.328 210.13 78.9862 
228.384 210.714 77.1882 220.5 210.204 79.1524 212.152 194.681 78.3606 
212.797 194.344 78.8094 213.265 194.115 78.7366 213.969 194.104 78.8559 
215.699 193.837 78.4901 212.008 195.019 78.3126 216.271 194.618 79.1655 
216.958 194.917 79.1493 212.387 195.52 78.8308 216.585 195.672 79.473 
212.866 196.847 78.9542 213.191 197.406 79.0248 216.599 197.262 79.7019 
244 197.009 80.0174 244 197.009 80.0175 244 197.009 80.0175 
244 197.009 80.0175 244 197.009 80.0175 213.672 198.845 78.9528 
213.667 199.178 78.824 214.231 200.077 78.9472 215.339 202.58 79.2773 
246.707 203.753 79.4043 246.529 203.669 79.6398 247.336 204.129 79.8438 
247.245 204.426 79.7307 215.9 205.275 79.6525 241.172 204.452 80.5786 
240.537 204.861 80.1809 247.235 204.452 80.0569 233.967 205.161 79.549 
238.879 205.161 79.1541 239.793 204.882 79.3278 246.517 205.4 79.3616 
247.029 204.7 80.0173 240.308 206.221 79.3839 216.249 207.271 79.9585 
230.872 207.88 79.8771 223.277 209.059 80.4073 218.22 209.959 79.7501 
221.729 210.06 79.3096 218.489 210.302 80.0927 212.896 194.538 79.1399 
213.308 194.96 79.4847 232 194.009 81.0174 232 194.009 81.0175 
232 194.009 81.0175 232 194.009 81.0175 212.73 195.502 79.2122 
213.804 195.868 79.5687 213.253 195.791 79.4742 232 194.009 81.0175 
234 195.009 81.0174 234 195.009 81.0175 234 195.009 81.0175 
234 195.009 81.0175 234 195.009 81.0175 235.004 196.013 81.0087 
235.004 196.013 81.0087 235.004 196.013 81.0087 235.004 196.013 81.0088 
213.87 197.594 79.3419 235.004 196.013 81.0088 244 197.009 80.0175 
214.627 198.408 79.4972 217.159 202.125 80.1744 246.61 203.549 80.2894 
247.399 203.723 80.3362 247.34 203.621 80.3806 247.382 203.664 80.4866 
247.382 203.898 80.1269 247.385 203.859 80.4639 216.502 204.835 80.5375 
242.929 204.307 80.8685 247.286 204.189 80.435 216.096 205.665 80.1066 
216.306 205.385 80.4301 238.837 204.462 82.1218 238.128 204.421 82.4395 
239.672 204.523 81.6654 239.138 204.358 81.9828 240.351 204.591 81.0626 
240.129 204.357 81.5636 241.307 204.385 81.2591 242.075 204.403 80.7883 
247.017 204.358 80.5587 247.134 204.477 80.2816 226.221 205.385 81.3711 
227.228 205.178 81.2637 239.34 204.585 81.9484 238.514 205.764 79.2424 
240.229 204.715 81.3111 239.744 205.54 79.5122 240.969 205.538 80.02 
240.914 205.001 80.7645 241.84 205.11 80.7012 231.511 206.902 80.3422 
220.109 209.29 81.2405 218.616 210.138 80.6351 218.362 210.048 80.894 
219.839 210.042 80.3792 217.316 209.918 80.8786 217.702 210.133 80.7276 
217.373 210.045 80.801 217.491 210.107 80.7994 227 192.009 82.0174 
227 192.009 82.0175 227 192.009 82.0175 227 192.009 82.0175 
213.105 194.709 79.3383 227 192.009 82.0175 232 194.009 81.0175 
[...]
POINT_DATA 2522
COLOR_SCALARS scalars 3
0.129412 0.596078 0.4 0.129412 0.596078 0.4 0.129412 0.596078 0.4 
0.129412 0.596078 0.4 0.129412 0.596078 0.4 
0.129412 0.596078 0.4 0.129412 0.596078 0.4 
0.129412 0.596078 0.4 0.129412 0.596078 0.4 
0.129412 0.596078 0.4 0.129412 0.596078 0.4 
0.129412 0.596078 0.4 0.129412 0.596078 0.4 
0.129412 0.596078 0.4 0.129412 0.596078 0.4 
0.129412 0.596078 0.4 0.129412 0.596078 0.4 
0.129412 0.596078 0.4 0.129412 0.596078 0.4 
0.129412 0.596078 0.4 0.129412 0.596078 0.4 
0.129412 0.596078 0.4 0.129412 0.596078 0.4 
0.129412 0.596078 0.4 0.129412 0.596078 0.4 
0.129412 0.596078 0.4 0.129412 0.596078 0.4 
0.129412 0.596078 0.4 0.129412 0.596078 0.4 
0.129412 0.596078 0.4 0.129412 0.596078 0.4 
0.129412 0.596078 0.4 0.129412 0.596078 0.4 
0.129412 0.596078 0.4 0.129412 0.596078 0.4 
0.129412 0.596078 0.4 0.129412 0.596078 0.4 
0.129412 0.596078 0.4 0.129412 0.596078 0.4 
0.129412 0.596078 0.4 0.129412 0.596078 0.4 
0.129412 0.596078 0.4 0.129412 0.596078 0.4 
0.129412 0.596078 0.4 0.129412 0.596078 0.4 
0.129412 0.596078 0.4 0.129412 0.596078 0.4 
0.129412 0.596078 0.4 0.129412 0.596078 0.4 
0.129412 0.596078 0.4 0.129412 0.596078 0.4 
0.129412 0.596078 0.4 0.129412 0.596078 0.4 
0.129412 0.596078 0.4 0.129412 0.596078 0.4 
0.129412 0.596078 0.4 0.129412 0.596078 0.4 
0.129412 0.596078 0.4 0.129412 0.596078 0.4 
0.129412 0.596078 0.4 0.129412 0.596078 0.4 
0.129412 0.596078 0.4 0.129412 0.596078 0.4 
0.129412 0.596078 0.4 0.129412 0.596078 0.4 
0.129412 0.596078 0.4 0.129412 0.596078 0.4 
0.129412 0.596078 0.4 0.129412 0.596078 0.4 
0.129412 0.596078 0.4 0.129412 0.596078 0.4 
0.129412 0.596078 0.4 0.129412 0.596078 0.4 
0.129412 0.596078 0.4 0.129412 0.596078 0.4 
0.129412 0.596078 0.4 0.129412 0.596078 0.4 
0.129412 0.596078 0.4 0.129412 0.596078 0.4 
0.129412 0.596078 0.4 0.129412 0.596078 0.4 
0.129412 0.596078 0.4 0.129412 0.596078 0.4 
0.129412 0.596078 0.4 0.129412 0.596078 0.4 
0.129412 0.596078 0.4 0.129412 0.596078 0.4 
0.129412 0.596078 0.4 0.129412 0.596078 0.4 
0.129412 0.596078 0.4 0.129412 0.596078 0.4 
0.129412 0.596078 0.4 0.129412 0.596078 0.4 
0.129412 0.596078 0.4 0.129412 0.596078 0.4 
0.129412 0.596078 0.4 0.129412 0.596078 0.4 
0.129412 0.596078 0.4 0.129412 0.596078 0.4 
0.129412 0.596078 0.4 0.129412 0.596078 0.4 
0.129412 0.596078 0.4 0.129412 0.596078 0.4 
0.129412 0.596078 0.4 0.129412 0.596078 0.4 
0.129412 0.596078 0.4 0.129412 0.596078 0.4 
0.129412 0.596078 0.4 0.129412 0.596078 0.4 
0.129412 0.596078 0.4 0.129412 0.596078 0.4 
0.129412 0.596078 0.4 0.129412 0.596078 0.4 
0.129412 0.596078 0.4 0.129412 0.596078 0.4 
0.129412 0.596078 0.4 0.129412 0.596078 0.4 
0.129412 0.596078 0.4 0.129412 0.596078 0.4 
0.129412 0.596078 0.4 0.129412 0.596078 0.4 
0.129412 0.596078 0.4 0.129412 0.596078 0.4 
0.129412 0.596078 0.4 0.129412 0.596078 0.4 
0.129412 0.596078 0.4 0.129412 0.596078 0.4 
0.129412 0.596078 0.4 0.129412 0.596078 0.4 
0.129412 0.596078 0.4 0.129412 0.596078 0.4 
0.129412 0.596078 0.4 0.129412 0.596078 0.4 
0.129412 0.596078 0.4 0.129412 0.596078 0.4 
0.129412 0.596078 0.4 0.129412 0.596078 0.4 
0.129412 0.596078 0.4 0.129412 0.596078 0.4 
0.129412 0.596078 0.4 0.129412 0.596078 0.4 
0.129412 0.596078 0.4 0.129412 0.596078 0.4 
0.129412 0.596078 0.4 0.129412 0.596078 0.4 
0.129412 0.596078 0.4 0.129412 0.596078 0.4 
0.129412 0.596078 0.4 0.129412 0.596078 0.4 
0.129412 0.596078 0.4 0.129412 0.596078 0.4 
0.129412 0.596078 0.4 0.129412 0.596078 0.4 
0.129412 0.596078 0.4 0.129412 0.596078 0.4 
0.129412 0.596078 0.4 0.129412 0.596078 0.4 
0.129412 0.596078 0.4 0.129412 0.596078 0.4 
0.129412 0.596078 0.4 0.129412 0.596078 0.4 
0.129412 0.596078 0.4 0.129412 0.596078 0.4 
0.129412 0.596078 0.4 0.129412 0.596078 0.4 
0.129412 0.596078 0.4 0.129412 0.596078 0.4 
0.129412 0.596078 0.4 0.129412 0.596078 0.4 
0.129412 0.596078 0.4 0.129412 0.596078 0.4 
0.129412 0.596078 0.4 0.129412 0.596078 0.4 
0.129412 0.596078 0.4 0.129412 0.596078 0.4 
0.129412 0.596078 0.4 0.129412 0.596078 0.4 
0.129412 0.596078 0.4 0.129412 0.596078 0.4 
0.129412 0.596078 0.4 0.129412 0.596078 0.4 
0.129412 0.596078 0.4 0.129412 0.596078 0.4 
0.129412 0.596078 0.4 0.129412 0.596078 0.4 
0.129412 0.596078 0.4 0.129412 0.596078 0.4 
0.129412 0.596078 0.4 0.129412 0.596078 0.4 
0.129412 0.596078 0.4 0.129412 0.596078 0.4 
0.129412 0.596078 0.4 0.129412 0.596078 0.4 
0.129412 0.596078 0.4 0.129412 0.596078 0.4 
0.129412 0.596078 0.4 0.129412 0.596078 0.4 
0.129412 0.596078 0.4 0.129412 0.596078 0.4 
0.129412 0.596078 0.4 0.129412 0.596078 0.4 
0.129412 0.596078 0.4 0.129412 0.596078 0.4 
0.129412 0.596078 0.4 0.129412 0.596078 0.4 
0.129412 0.596078 0.4 0.129412 0.596078 0.4 
0.129412 0.596078 0.4 0.129412 0.596078 0.4 
0.129412 0.596078 0.4 0.129412 0.596078 0.4 
0.129412 0.596078 0.4 0.129412 0.596078 0.4 
0.129412 0.596078 0.4 0.129412 0.596078 0.4 
0.129412 0.596078 0.4 0.129412 0.596078 0.4 
0.129412 0.596078 0.4 0.129412 0.596078 0.4 
0.129412 0.596078 0.4 0.129412 0.596078 0.4 
0.129412 0.596078 0.4 0.129412 0.596078 0.4 
0.129412 0.596078 0.4 0.129412 0.596078 0.4 
0.129412 0.596078 0.4 0.129412 0.596078 0.4 
0.129412 0.596078 0.4 0.129412 0.596078 0.4 
0.129412 0.596078 0.4 0.129412 0.596078 0.4 
0.129412 0.596078 0.4 0.129412 0.596078 0.4 
0.129412 0.596078 0.4 0.129412 0.596078 0.4 
0.129412 0.596078 0.4 0.129412 0.596078 0.4 
0.129412 0.596078 0.4 0.129412 0.596078 0.4 
0.129412 0.596078 0.4 0.129412 0.596078 0.4 
0.129412 0.596078 0.4 0.129412 0.596078 0.4 
0.129412 0.596078 0.4 0.129412 0.596078 0.4 
0.129412 0.596078 0.4 0.129412 0.596078 0.4 
0.129412 0.596078 0.4 0.129412 0.596078 0.4 
0.129412 0.596078 0.4 0.129412 0.596078 0.4 
0.129412 0.596078 0.4 0.129412 0.596078 0.4 
0.129412 0.596078 0.4 0.129412 0.596078 0.4 
0.129412 0.596078 0.4 0.129412 0.596078 0.4 
0.129412 0.596078 0.4 0.129412 0.596078 0.4 
0.129412 0.596078 0.4 0.129412 0.596078 0.4 
0.129412 0.596078 0.4 0.129412 0.596078 0.4 
0.129412 0.596078 0.4 0.129412 0.596078 0.4 
0.129412 0.596078 0.4 0.129412 0.596078 0.4 
0.129412 0.596078 0.4 0.129412 0.596078 0.4 
0.129412 0.596078 0.4 0.129412 0.596078 0.4 
0.129412 0.596078 0.4 0.129412 0.596078 0.4 
0.129412 0.596078 0.4 0.129412 0.596078 0.4 
0.129412 0.596078 0.4 0.129412 0.596078 0.4 
0.129412 0.596078 0.4 0.129412 0.596078 0.4 
0.129412 0.596078 0.4 0.129412 0.596078 0.4 
0.129412 0.596078 0.4 0.129412 0.596078 0.4 
0.129412 0.596078 0.4 0.129412 0.596078 0.4 
0.129412 0.596078 0.4 0.129412 0.596078 0.4 
0.129412 0.596078 0.4 0.129412 0.596078 0.4 
0.129412 0.596078 0.4 0.129412 0.596078 0.4 
0.129412 0.596078 0.4 0.129412 0.596078 0.4 
0.129412 0.596078 0.4 0.129412 0.596078 0.4 
0.129412 0.596078 0.4 0.129412 0.596078 0.4 
0.129412 0.596078 0.4 0.129412 0.596078 0.4 
0.129412 0.596078 0.4 0.129412 0.596078 0.4 
0.129412 0.596078 0.4 0.129412 0.596078 0.4 
0.129412 0.596078 0.4 0.129412 0.596078 0.4 
0.129412 0.596078 0.4 0.129412 0.596078 0.4 
0.129412 0.596078 0.4 0.129412 0.596078 0.4 
0.129412 0.596078 0.4 0.129412 0.596078 0.4 
0.129412 0.596078 0.4 0.129412 0.596078 0.4 
0.129412 0.596078 0.4 0.129412 0.596078 0.4 
0.129412 0.596078 0.4 0.129412 0.596078 0.4 
0.129412 0.596078 0.4 0.129412 0.596078 0.4 
0.129412 0.596078 0.4 0.129412 0.596078 0.4 
0.129412 0.596078 0.4 0.129412 0.596078 0.4 
0.129412 0.596078 0.4 0.129412 0.596078 0.4 
0.129412 0.596078 0.4 0.129412 0.596078 0.4 
0.129412 0.596078 0.4 0.129412 0.596078 0.4 
0.129412 0.596078 0.4 0.129412 0.596078 0.4 
0.129412 0.596078 0.4 0.129412 0.596078 0.4 
0.129412 0.596078 0.4 0.129412 0.596078 0.4 
0.129412 0.596078 0.4 0.129412 0.596078 0.4 
0.129412 0.596078 0.4 0.129412 0.596078 0.4 
0.129412 0.596078 0.4 0.129412 0.596078 0.4 
0.129412 0.596078 0.4 0.129412 0.596078 0.4 
0.129412 0.596078 0.4 0.129412 0.596078 0.4 
0.129412 0.596078 0.4 0.129412 0.596078 0.4 
0.129412 0.596078 0.4 0.129412 0.596078 0.4 
0.129412 0.596078 0.4 0.129412 0.596078 0.4 
0.129412 0.596078 0.4 0.129412 0.596078 0.4 
0.129412 0.596078 0.4 0.129412 0.596078 0.4 
0.129412 0.596078 0.4 0.129412 0.596078 0.4 
0.129412 0.596078 0.4 0.129412 0.596078 0.4 
0.129412 0.596078 0.4 0.129412 0.596078 0.4 
0.129412 0.596078 0.4 0.129412 0.596078 0.4 
0.129412 0.596078 0.4 0.129412 0.596078 0.4 
0.129412 0.596078 0.4 0.129412 0.596078 0.4 
0.129412 0.596078 0.4 0.129412 0.596078 0.4 
0.129412 0.596078 0.4 0.129412 0.596078 0.4 
0.129412 0.596078 0.4 0.129412 0.596078 0.4 
0.129412 0.596078 0.4 0.129412 0.596078 0.4 
0.129412 0.596078 0.4 0.129412 0.596078 0.4 
0.129412 0.596078 0.4 0.129412 0.596078 0.4 
0.129412 0.596078 0.4 0.129412 0.596078 0.4 
0.129412 0.596078 0.4 0.129412 0.596078 0.4 
0.129412 0.596078 0.4 0.129412 0.596078 0.4 
0.129412 0.596078 0.4 0.129412 0.596078 0.4 
0.129412 0.596078 0.4 0.129412 0.596078 0.4 
0.129412 0.596078 0.4 0.129412 0.596078 0.4 
0.129412 0.596078 0.4 0.129412 0.596078 0.4 
0.129412 0.596078 0.4 0.129412 0.596078 0.4 
0.129412 0.596078 0.4 0.129412 0.596078 0.4 
0.129412 0.596078 0.4 0.129412 0.596078 0.4 
0.129412 0.596078 0.4 0.129412 0.596078 0.4 
0.129412 0.596078 0.4 0.129412 0.596078 0.4 
0.129412 0.596078 0.4 0.129412 0.596078 0.4 
0.129412 0.596078 0.4 0.129412 0.596078 0.4 
0.129412 0.596078 0.4 0.129412 0.596078 0.4 
0.129412 0.596078 0.4 0.129412 0.596078 0.4 
0.129412 0.596078 0.4 0.129412 0.596078 0.4 
0.129412 0.596078 0.4 0.129412 0.596078 0.4 
0.129412 0.596078 0.4 0.129412 0.596078 0.4 
0.129412 0.596078 0.4 0.129412 0.596078 0.4 
0.129412 0.596078 0.4 0.129412 0.596078 0.4 
0.129412 0.596078 0.4 0.129412 0.596078 0.4 
0.129412 0.596078 0.4 0.129412 0.596078 0.4 
0.129412 0.596078 0.4 0.129412 0.596078 0.4 
0.129412 0.596078 0.4 0.129412 0.596078 0.4 
0.129412 0.596078 0.4 0.129412 0.596078 0.4 
0.129412 0.596078 0.4 0.129412 0.596078 0.4 
0.129412 0.596078 0.4 0.129412 0.596078 0.4 
0.129412 0.596078 0.4 0.129412 0.596078 0.4 
0.129412 0.596078 0.4 0.129412 0.596078 0.4 
0.129412 0.596078 0.4 0.129412 0.596078 0.4 
0.129412 0.596078 0.4 0.129412 0.596078 0.4 
0.129412 0.596078 0.4 0.129412 0.596078 0.4 
0.129412 0.596078 0.4 0.129412 0.596078 0.4 
0.129412 0.596078 0.4 0.129412 0.596078 0.4 
0.129412 0.596078 0.4 0.129412 0.596078 0.4 
0.129412 0.596078 0.4 0.129412 0.596078 0.4 
0.129412 0.596078 0.4 0.129412 0.596078 0.4 
0.129412 0.596078 0.4 0.129412 0.596078 0.4 
0.129412 0.596078 0.4 0.129412 0.596078 0.4 
0.129412 0.596078 0.4 0.129412 0.596078 0.4 
0.129412 0.596078 0.4 0.129412 0.596078 0.4 
0.129412 0.596078 0.4 0.129412 0.596078 0.4 
0.129412 0.596078 0.4 0.129412 0.596078 0.4 
0.129412 0.596078 0.4 0.129412 0.596078 0.4 
0.129412 0.596078 0.4 0.129412 0.596078 0.4 
0.129412 0.596078 0.4 0.129412 0.596078 0.4 
0.129412 0.596078 0.4 0.129412 0.596078 0.4 
0.129412 0.596078 0.4 0.129412 0.596078 0.4 
0.129412 0.596078 0.4 0.129412 0.596078 0.4 
0.129412 0.596078 0.4 0.129412 0.596078 0.4 
0.129412 0.596078 0.4 0.129412 0.596078 0.4 
0.129412 0.596078 0.4 0.129412 0.596078 0.4 
0.129412 0.596078 0.4 0.129412 0.596078 0.4 
0.129412 0.596078 0.4 0.129412 0.596078 0.4 
0.129412 0.596078 0.4 0.129412 0.596078 0.4 
0.129412 0.596078 0.4 0.129412 0.596078 0.4 
0.129412 0.596078 0.4 0.129412 0.596078 0.4 
0.129412 0.596078 0.4 0.129412 0.596078 0.4 
0.129412 0.596078 0.4 0.129412 0.596078 0.4 
0.129412 0.596078 0.4 0.129412 0.596078 0.4 
0.129412 0.596078 0.4 0.129412 0.596078 0.4 
0.129412 0.596078 0.4 0.129412 0.596078 0.4 
0.129412 0.596078 0.4 0.129412 0.596078 0.4 
0.129412 0.596078 0.4 0.129412 0.596078 0.4 
0.129412 0.596078 0.4 0.129412 0.596078 0.4 
0.129412 0.596078 0.4 0.129412 0.596078 0.4 
0.129412 0.596078 0.4 0.129412 0.596078 0.4 
0.129412 0.596078 0.4 0.129412 0.596078 0.4 
0.129412 0.596078 0.4 0.129412 0.596078 0.4 
0.129412 0.596078 0.4 0.129412 0.596078 0.4 
0.129412 0.596078 0.4 0.129412 0.596078 0.4 
0.129412 0.596078 0.4 0.129412 0.596078 0.4 
0.129412 0.596078 0.4 0.129412 0.596078 0.4 
0.129412 0.596078 0.4 0.129412 0.596078 0.4 
0.129412 0.596078 0.4 0.129412 0.596078 0.4 
0.129412 0.596078 0.4 0.129412 0.596078 0.4 
0.129412 0.596078 0.4 0.129412 0.596078 0.4 
0.129412 0.596078 0.4 0.129412 0.596078 0.4 
0.129412 0.596078 0.4 0.129412 0.596078 0.4 
0.129412 0.596078 0.4 0.129412 0.596078 0.4 
0.129412 0.596078 0.4 0.129412 0.596078 0.4 
0.129412 0.596078 0.4 0.129412 0.596078 0.4 
0.129412 0.596078 0.4 0.129412 0.596078 0.4 
0.129412 0.596078 0.4 0.129412 0.596078 0.4 
0.129412 0.596078 0.4 0.129412 0.596078 0.4 
0.129412 0.596078 0.4 0.129412 0.596078 0.4 
0.129412 0.596078 0.4 0.129412 0.596078 0.4 
0.129412 0.596078 0.4 0.129412 0.596078 0.4 
0.129412 0.596078 0.4 0.129412 0.596078 0.4 
0.129412 0.596078 0.4 0.129412 0.596078 0.4 
0.129412 0.596078 0.4 0.129412 0.596078 0.4 
0.129412 0.596078 0.4 0.129412 0.596078 0.4 
0.129412 0.596078 0.4 0.129412 0.596078 0.4 
0.129412 0.596078 0.4 0.129412 0.596078 0.4 
0.129412 0.596078 0.4 0.129412 0.596078 0.4 
0.129412 0.596078 0.4 0.129412 0.596078 0.4 
0.129412 0.596078 0.4 0.129412 0.596078 0.4 
0.129412 0.596078 0.4 0.129412 0.596078 0.4 
0.129412 0.596078 0.4 0.129412 0.596078 0.4 
0.129412 0.596078 0.4 0.129412 0.596078 0.4 
0.129412 0.596078 0.4 0.129412 0.596078 0.4 
0.129412 0.596078 0.4 0.129412 0.596078 0.4 
0.129412 0.596078 0.4 0.129412 0.596078 0.4 
0.129412 0.596078 0.4 0.129412 0.596078 0.4 
0.129412 0.596078 0.4 0.129412 0.596078 0.4 
0.129412 0.596078 0.4 0.129412 0.596078 0.4 
0.129412 0.596078 0.4 0.129412 0.596078 0.4 
0.129412 0.596078 0.4 0.129412 0.596078 0.4 
0.129412 0.596078 0.4 0.129412 0.596078 0.4 
0.129412 0.596078 0.4 0.129412 0.596078 0.4 
0.129412 0.596078 0.4 0.129412 0.596078 0.4 
0.129412 0.596078 0.4 0.129412 0.596078 0.4 
0.129412 0.596078 0.4 0.129412 0.596078 0.4 
0.129412 0.596078 0.4 0.129412 0.596078 0.4 
0.129412 0.596078 0.4 0.129412 0.596078 0.4 
0.129412 0.596078 0.4 0.129412 0.596078 0.4 
0.129412 0.596078 0.4 0.129412 0.596078 0.4 
0.129412 0.596078 0.4 0.129412 0.596078 0.4 
0.129412 0.596078 0.4 0.129412 0.596078 0.4 
0.129412 0.596078 0.4 0.129412 0.596078 0.4 
0.129412 0.596078 0.4 0.129412 0.596078 0.4 
0.129412 0.596078 0.4 0.129412 0.596078 0.4 
0.129412 0.596078 0.4 0.129412 0.596078 0.4 
0.129412 0.596078 0.4 0.129412 0.596078 0.4 
0.129412 0.596078 0.4 0.129412 0.596078 0.4 
0.129412 0.596078 0.4 0.129412 0.596078 0.4 
0.129412 0.596078 0.4 0.129412 0.596078 0.4 
0.129412 0.596078 0.4 0.129412 0.596078 0.4 
0.129412 0.596078 0.4 0.129412 0.596078 0.4 
0.129412 0.596078 0.4 0.129412 0.596078 0.4 
0.129412 0.596078 0.4 0.129412 0.596078 0.4 
0.129412 0.596078 0.4 0.129412 0.596078 0.4 
0.129412 0.596078 0.4 0.129412 0.596078 0.4 
0.129412 0.596078 0.4 0.129412 0.596078 0.4 
0.129412 0.596078 0.4 0.129412 0.596078 0.4 
0.129412 0.596078 0.4 0.129412 0.596078 0.4 
0.129412 0.596078 0.4 0.129412 0.596078 0.4 
0.129412 0.596078 0.4 0.129412 0.596078 0.4 
0.129412 0.596078 0.4 0.129412 0.596078 0.4 
0.129412 0.596078 0.4 0.129412 0.596078 0.4 
0.129412 0.596078 0.4 0.129412 0.596078 0.4 
0.129412 0.596078 0.4 0.129412 0.596078 0.4 
0.129412 0.596078 0.4 0.129412 0.596078 0.4 
0.129412 0.596078 0.4 0.129412 0.596078 0.4 
0.129412 0.596078 0.4 0.129412 0.596078 0.4 
0.129412 0.596078 0.4 0.129412 0.596078 0.4 
0.129412 0.596078 0.4 0.129412 0.596078 0.4 
0.129412 0.596078 0.4 0.129412 0.596078 0.4 
0.129412 0.596078 0.4 0.129412 0.596078 0.4 
0.129412 0.596078 0.4 0.129412 0.596078 0.4 
0.129412 0.596078 0.4 0.129412 0.596078 0.4 
0.129412 0.596078 0.4 0.129412 0.596078 0.4 
0.129412 0.596078 0.4 0.129412 0.596078 0.4 
0.129412 0.596078 0.4 0.129412 0.596078 0.4 
0.129412 0.596078 0.4 0.129412 0.596078 0.4 
0.129412 0.596078 0.4 0.129412 0.596078 0.4 
0.129412 0.596078 0.4 0.129412 0.596078 0.4 
0.129412 0.596078 0.4 0.129412 0.596078 0.4 
0.129412 0.596078 0.4 0.129412 0.596078 0.4 
0.129412 0.596078 0.4 0.129412 0.596078 0.4 
0.129412 0.596078 0.4 0.129412 0.596078 0.4 
0.129412 0.596078 0.4 0.129412 0.596078 0.4 
0.129412 0.596078 0.4 0.129412 0.596078 0.4 
0.129412 0.596078 0.4 0.129412 0.596078 0.4 
0.129412 0.596078 0.4 0.129412 0.596078 0.4 
0.129412 0.596078 0.4 0.129412 0.596078 0.4 
0.129412 0.596078 0.4 0.129412 0.596078 0.4 
0.129412 0.596078 0.4 0.129412 0.596078 0.4 
0.129412 0.596078 0.4 0.129412 0.596078 0.4 
0.129412 0.596078 0.4 0.129412 0.596078 0.4 
0.129412 0.596078 0.4 0.129412 0.596078 0.4 
0.129412 0.596078 0.4 0.129412 0.596078 0.4 
0.129412 0.596078 0.4 0.129412 0.596078 0.4 
0.129412 0.596078 0.4 0.129412 0.596078 0.4 
0.129412 0.596078 0.4 0.129412 0.596078 0.4 
0.129412 0.596078 0.4 0.129412 0.596078 0.4 
0.129412 0.596078 0.4 0.129412 0.596078 0.4 
0.129412 0.596078 0.4 0.129412 0.596078 0.4 
0.129412 0.596078 0.4 0.129412 0.596078 0.4 
0.129412 0.596078 0.4 0.129412 0.596078 0.4 
0.129412 0.596078 0.4 0.129412 0.596078 0.4 
0.129412 0.596078 0.4 0.129412 0.596078 0.4 
0.129412 0.596078 0.4 0.129412 0.596078 0.4 
0.129412 0.596078 0.4 0.129412 0.596078 0.4 
0.129412 0.596078 0.4 0.129412 0.596078 0.4 
0.129412 0.596078 0.4 0.129412 0.596078 0.4 
0.129412 0.596078 0.4 0.129412 0.596078 0.4 
0.129412 0.596078 0.4 0.129412 0.596078 0.4 
0.129412 0.596078 0.4 0.129412 0.596078 0.4 
0.129412 0.596078 0.4 0.129412 0.596078 0.4 
0.129412 0.596078 0.4 0.129412 0.596078 0.4 
0.129412 0.596078 0.4 0.129412 0.596078 0.4 
0.129412 0.596078 0.4 0.129412 0.596078 0.4 
0.129412 0.596078 0.4 0.129412 0.596078 0.4 
0.129412 0.596078 0.4 0.129412 0.596078 0.4 
0.129412 0.596078 0.4 0.129412 0.596078 0.4 
0.129412 0.596078 0.4 0.129412 0.596078 0.4 
0.129412 0.596078 0.4 0.129412 0.596078 0.4 
0.129412 0.596078 0.4 0.129412 0.596078 0.4 
0.129412 0.596078 0.4 0.129412 0.596078 0.4 
0.129412 0.596078 0.4 0.129412 0.596078 0.4 
0.129412 0.596078 0.4 0.129412 0.596078 0.4 
0.129412 0.596078 0.4 0.129412 0.596078 0.4 
0.129412 0.596078 0.4 0.129412 0.596078 0.4 
0.129412 0.596078 0.4 0.129412 0.596078 0.4 
0.129412 0.596078 0.4 0.129412 0.596078 0.4 
0.129412 0.596078 0.4 0.129412 0.596078 0.4 
0.129412 0.596078 0.4 0.129412 0.596078 0.4 
0.129412 0.596078 0.4 0.129412 0.596078 0.4 
0.129412 0.596078 0.4 0.129412 0.596078 0.4 
0.129412 0.596078 0.4 0.129412 0.596078 0.4 
0.129412 0.596078 0.4 0.129412 0.596078 0.4 
0.129412 0.596078 0.4 0.129412 0.596078 0.4 
0.129412 0.596078 0.4 0.129412 0.596078 0.4 
0.129412 0.596078 0.4 0.129412 0.596078 0.4 
0.129412 0.596078 0.4 0.129412 0.596078 0.4 
0.129412 0.596078 0.4 0.129412 0.596078 0.4 
0.129412 0.596078 0.4 0.129412 0.596078 0.4 
0.129412 0.596078 0.4 0.129412 0.596078 0.4 
0.129412 0.596078 0.4 0.129412 0.596078 0.4 
0.129412 0.596078 0.4 0.129412 0.596078 0.4 
0.129412 0.596078 0.4 0.129412 0.596078 0.4 
0.129412 0.596078 0.4 0.129412 0.596078 0.4 
0.129412 0.596078 0.4 0.129412 0.596078 0.4 
0.129412 0.596078 0.4 0.129412 0.596078 0.4 
0.129412 0.596078 0.4 0.129412 0.596078 0.4 
0.129412 0.596078 0.4 0.129412 0.596078 0.4 
0.129412 0.596078 0.4 0.129412 0.596078 0.4 
0.129412 0.596078 0.4 0.129412 0.596078 0.4 
0.129412 0.596078 0.4 0.129412 0.596078 0.4 
0.129412 0.596078 0.4 0.129412 0.596078 0.4 
0.129412 0.596078 0.4 0.129412 0.596078 0.4 
0.129412 0.596078 0.4 0.129412 0.596078 0.4 
0.129412 0.596078 0.4 0.129412 0.596078 0.4 
0.129412 0.596078 0.4 0.129412 0.596078 0.4 
0.129412 0.596078 0.4 0.129412 0.596078 0.4 
0.129412 0.596078 0.4 0.129412 0.596078 0.4 
0.129412 0.596078 0.4 0.129412 0.596078 0.4 
0.129412 0.596078 0.4 0.129412 0.596078 0.4 
0.129412 0.596078 0.4 0.129412 0.596078 0.4 
0.129412 0.596078 0.4 0.129412 0.596078 0.4 
0.129412 0.596078 0.4 0.129412 0.596078 0.4 
0.129412 0.596078 0.4 0.129412 0.596078 0.4 
0.129412 0.596078 0.4 0.129412 0.596078 0.4 
0.129412 0.596078 0.4 0.129412 0.596078 0.4 
0.129412 0.596078 0.4 0.129412 0.596078 0.4 
0.129412 0.596078 0.4 0.129412 0.596078 0.4 
0.129412 0.596078 0.4 0.129412 0.596078 0.4 
0.129412 0.596078 0.4 0.129412 0.596078 0.4 
0.129412 0.596078 0.4 0.129412 0.596078 0.4 
0.129412 0.596078 0.4 0.129412 0.596078 0.4 
0.129412 0.596078 0.4 0.129412 0.596078 0.4 
0.129412 0.596078 0.4 0.129412 0.596078 0.4 