# vtk DataFile Version 4.2
vtk output
ASCII
DATASET POLYDATA
POINTS 726 float
294.464 130.926 28.6273 296.309 130.956 28.8739 297.376 130.568 29.3926 
297.95 130.578 29.6742 298.557 130.958 29.5579 298.538 131.367 29.2534 
299.554 131.561 29.4118 299.742 131.52 29.5249 298.191 131.738 29.088 
299.663 131.651 29.4985 293.476 133.304 28.3678 298.805 132.232 29.4066 
299.282 132.053 29.584 299.599 131.807 29.5974 290.968 136.043 28.3949 
291.294 136.836 28.5747 291.924 136.809 28.8378 293.379 135.848 29.2925 
289.598 142.565 28.4465 290.007 143.034 28.6928 288.709 144.566 28.537 
290.983 142.975 29.4319 289.784 145.772 29.4371 288.423 146.629 29.096 
288.954 146.606 29.2675 288.942 147.096 29.5378 292.824 128.243 29.8589 
296.165 129.639 29.8079 296.615 129.798 29.8239 292.878 130.191 28.8081 
299.051 131.015 29.8034 299.856 131.488 29.6421 299.765 131.401 29.6068 
299.869 131.427 29.6799 291.107 131.805 28.4833 299.636 131.952 29.9366 
289.861 133.717 28.3875 297.613 133.229 29.48 286.253 140.094 28.3692 
291.878 139.369 29.7339 291.24 142.666 29.6321 286.662 144.452 28.4701 
284.256 145.649 29.3419 283.405 146.804 30.4827 284.086 146.864 30.1872 
284.697 147.361 30.4722 289.109 147.312 29.8799 288.246 147.603 30.0676 
288.835 147.559 30.0989 291.339 126.53 30.8045 295.807 129.22 30.3041 
296.572 129.616 30.1661 298.84 130.672 30.6046 299.301 131.018 30.302 
299.725 131.341 30.0879 299.808 131.664 30.3443 299.155 132.631 30.0666 
299.412 132.546 30.3668 299.663 132.214 30.5305 281.639 137.122 29.9603 
281.19 137.464 30.172 292.296 138.915 30.3681 280.776 140.068 30.2974 
280.85 142.084 30.2427 282.056 141.617 29.4822 280.004 142.181 31.1011 
280.9 143.676 30.3776 282.186 143.484 29.563 280.029 144.566 31.4191 
291.11 144.273 30.7433 280.093 144.981 31.5706 290.362 146.128 30.428 
286.624 148.14 31.1471 289.605 147.3 30.5956 293.299 127.221 31.3518 
299.823 131.969 31.0102 279.94 135.746 31.1622 294.742 135.928 30.9728 
293.088 137.614 30.9026 279.898 137.578 31.2045 279.752 139.313 31.4098 
279.544 140.694 31.8583 279.927 141.368 31.1885 279.529 143.615 32.0203 
279.473 143.84 32.2627 279.579 144.252 32.2676 280.248 145.355 31.7526 
281.036 146.19 31.985 290.441 146.432 31.2576 289.349 147.574 30.8089 
287.274 121.665 32.3302 291.746 125.407 32.2723 293.952 127.295 32.3622 
281.669 129.707 31.0339 279.746 130.911 31.7287 278.357 131.637 32.9072 
278.496 133.06 32.8033 299.538 132.812 31.583 298.742 133.653 31.6891 
296.618 134.979 31.7321 293.645 137.156 32.582 279.449 143.853 32.751 
291.353 143.811 32.1076 279.947 145.129 32.3847 284.994 148.14 32.2786 
288.441 148.209 32.1659 287.803 118.985 33.9197 287.657 119.209 33.7049 
288.077 118.957 34.1437 288.209 119.693 33.6608 288.392 119.376 34.0479 
286.116 121.103 32.634 289.05 120.979 33.3672 289.561 121.364 33.5717 
279.617 124.567 33.2361 291.806 124.771 33.2994 278.206 127.889 33.7752 
278.166 130.506 33.6807 299.929 132.186 32.3262 299.932 132.139 32.6569 
278.141 132.912 33.6951 299.891 132.369 32.6616 296.742 134.992 32.2979 
296.62 135.054 32.816 292.845 138.263 32.4099 279.29 143.196 32.9906 
290.457 146.213 33.2151 283.012 147.603 33.2676 286.262 148.422 33.3335 
289.412 147.713 32.7314 287.624 148.456 33.0131 287.614 118.514 34.4706 
287.987 118.651 34.5091 278.543 123.687 34.4241 278.074 124.715 34.6916 
277.848 128.614 34.655 295.783 128.769 33.3944 299.875 132.231 32.9308 
299.561 132.979 32.8214 299.392 133.096 33.2089 297.143 134.716 33.197 
292.985 137.353 34.2265 278.963 139.227 34.9025 279.107 141.334 34.1278 
279.245 142.985 33.4347 280.643 145.921 34.5447 283.244 147.575 34.2622 
285.545 148.278 33.553 286.836 148.42 33.8347 288.657 148.133 33.5514 
285.491 118.299 35.0819 281.337 120.091 34.6422 289.519 120.015 34.9412 
278.461 121.352 35.8492 279.008 121.751 34.9451 292.362 125.204 35.0658 
293.535 126.819 34.6299 293.996 127.374 34.5686 277.744 129.54 35.4883 
299.061 131.819 33.9117 299.099 132.275 34.1172 298.894 133.472 33.6583 
278.577 135.859 35.1974 295.191 135.657 34.0973 293.242 136.725 34.7766 
291.991 138.708 34.5762 291.676 139.636 34.5662 279.851 143.713 35.0042 
280.238 144.719 35.2702 280.749 146.028 34.9365 280.971 146.222 35.0441 
289.995 146.405 34.4337 285.471 148.103 34.2917 288.968 147.809 34.2022 
282.787 118.276 36.1322 282.58 118.367 36.0996 284.174 118.098 36.0135 
287.393 118.12 35.6704 280.902 118.808 36.8161 281.533 118.907 35.9414 
282.317 118.611 35.8546 288.947 118.995 35.8239 278.795 120.261 36.4598 
277.891 122.158 36.4348 277.53 124.035 36.1734 277.504 126.271 35.7565 
277.724 129.243 36.4063 298.255 131.364 34.4637 298.011 131.545 34.7817 
298.807 132.499 34.4261 299.075 132.991 33.96 297.45 133.585 34.9154 
295.438 135.09 34.8486 292.427 136.934 35.5147 279.325 139.207 36.28 
290.664 143.18 35.0015 280.441 144.876 35.8376 280.647 145.097 36.0451 
280.817 145.989 35.2296 282.777 147.175 35.1126 289.497 146.558 35.0178 
286.236 147.884 35.1041 286.613 148.069 34.8788 288.408 148.077 34.691 
288.36 147.958 34.9014 288.54 147.995 34.818 285.04 117.901 36.6088 
288.47 118.559 36.299 280.9 118.748 37.2145 278.768 119.867 37.6793 
290.455 121.214 37.0877 277.389 123.938 36.7586 291.311 123.203 36.7869 
293.875 127.905 35.8782 277.809 129.192 37.1113 294.49 129.152 36.0974 
277.98 130.472 36.9181 295.711 133.566 35.9264 294.041 134.735 36.0805 
279.422 138.067 37.0852 290.232 138.363 36.7184 279.621 139.028 36.9819 
288.433 141.415 37.1012 290.916 141.019 35.4153 289.786 141.982 36.2339 
280.418 143.667 36.431 286.934 143.754 37.1945 288.883 144.019 36.3861 
288.087 145.026 36.5012 289.878 144.379 35.5569 288.96 145.985 35.7586 
287.644 147.164 35.6684 283.229 146.955 35.8505 287.43 118.064 36.8265 
282.722 118.345 37.5859 286.359 118.049 38.0082 289.342 119.366 37.3612 
277.613 121.885 37.853 277.656 121.55 38.5327 290.474 121.402 38.0863 
277.446 122.743 37.9778 277.427 122.971 37.4661 277.38 123.625 37.2859 
291.949 126.393 37.7932 292.678 127.075 37.0694 292.716 127.605 37.2735 
293.571 129.633 37.1149 292.265 131.34 37.9095 293.77 131.226 37.1802 
279.164 135.867 37.7125 279.74 137.501 37.8334 280.529 141.36 37.1622 
280.48 142.073 36.9018 280.662 142.802 36.9349 282.934 145.068 37.2076 
284.509 144.911 37.2867 281.643 145.596 36.6366 278.507 120.092 38.603 
279.503 119.511 38.9046 283.052 118.594 39.0956 277.955 120.987 38.8526 
277.74 121.282 39.0084 277.647 121.362 38.941 277.69 121.311 38.8471 
290.384 121.252 38.5917 290.447 121.355 38.6984 277.629 121.489 38.8505 
277.649 121.871 38.8675 290.478 121.843 38.7212 290.465 121.473 38.7238 
278.411 129.651 38.8759 278.877 131.988 38.7575 279.564 136.857 37.9702 
282.785 138.352 38.9116 280.643 138.296 38.286 280.903 139.256 38.0491 
280.958 140.426 37.7168 281.525 139.013 38.4767 283.337 139.994 38.4997 
284.061 139.822 38.517 285.539 139.618 38.3318 282.383 141.026 38.1303 
281.653 144.108 37.2072 282.11 143.646 37.4843 281.804 145.351 36.8638 
287.527 118.52 38.7292 280.37 119.479 40.0835 288.947 119.454 38.8347 
277.681 121.461 39.0112 277.911 121.413 39.3295 290.32 121.341 38.8264 
277.826 123.978 39.7492 277.852 125.371 39.5849 278.243 126.668 40.1091 
279.502 133.6 39.1121 279.73 135.331 38.731 281.93 136.044 39.52 
281.523 136.396 39.3717 280.915 137.63 38.7572 281.794 138.407 38.774 
284.073 119.069 40.7093 289.124 120.227 39.7138 278.36 121.061 39.8955 
279.073 128.711 40.6951 279.395 129.73 40.6972 279 134.009 41.0174 
279 134.009 41.0175 279 134.009 41.0175 279 134.009 41.0175 
279 134.009 41.0175 280.753 135.901 39.2418 281.908 119.378 40.9213 
284.502 119.249 41.0372 286.788 119.626 41.0145 287.987 119.708 40.3768 
288.807 120.449 40.3252 280.559 120.195 41.5565 283.699 119.844 41.9754 
284.754 119.688 41.6199 289.482 123.074 40.5224 287.966 122.915 41.6845 
280.185 130.238 41.1888 280.899 132.175 40.5723 279 134.009 41.0175 
282.192 120.08 42.1822 283.315 120.122 42.3915 282.925 120.297 42.56 
286.766 120.497 41.7606 288.331 120.662 40.8791 279.915 121.309 42.3121 
287.774 121.519 41.6391 285.488 122.981 42.8759 283.984 126.55 42.4622 
283.05 127.418 42.3867 283.897 120.536 42.7119 284.514 121.268 42.9881 
284.393 121.749 43.1839 283.323 122.685 43.5488 280.748 126.6 42.8552 
280.169 127.637 42.2886 280.125 122.1 43.2857 282.444 121.703 43.4424 
283.273 121.301 43.2063 279.675 122.861 43.1137 281.303 122.574 43.7704 
281.424 122.188 43.7109 282.569 122.229 43.6144 282.005 122.944 43.7518 
280.431 122.206 43.5168 280.789 121.918 43.525 280.37 122.74 43.6118 
280.479 121.81 411.503 280.148 121.935 411.65 281.713 121.665 411.294 
281.716 121.287 411.516 280.29 122.147 411.479 281.757 122.004 411.201 
280.285 122.54 411.461 279.913 122.956 411.781 280.631 122.682 411.309 
281.084 122.538 411.217 284.873 120.875 412.194 281.051 120.985 411.937 
282.742 121.598 411.497 283.659 121.35 411.711 284.156 122.063 411.623 
280.85 123.167 411.33 282.155 122.813 411.219 282.127 123.347 411.279 
282.726 123.361 411.337 279.884 125.074 412.167 279.511 125.495 412.578 
280.598 125.683 412.027 282.277 120.35 412.381 287.206 120.779 413.087 
279.765 121.086 412.802 280.221 120.941 412.487 279.093 124.893 412.843 
281.846 124.771 411.584 287.305 119.595 414.042 287.978 119.9 414.051 
288.536 120.357 414.063 288.382 120.081 414.109 288.637 120.121 414.321 
279.297 120.768 413.665 280.002 120.306 413.554 280.732 120.266 413.039 
287.314 121.82 412.889 278.716 123.539 413.277 287.929 122.972 413.271 
281.086 128.194 412.922 280.236 128.676 413.39 279.71 129.395 414.003 
279.883 129.846 414.081 285.446 119.048 414.179 286.169 119.39 413.848 
289.64 121.228 415.225 289.102 123.533 414.218 289.619 123.464 414.651 
289.887 123.177 414.961 285.871 127.995 413.719 279.742 130.309 414.423 
280.708 131.008 414.232 279 134.009 414.017 279 134.009 414.017 
279 134.009 414.017 279 134.009 414.017 279 134.009 414.017 
282.137 118.808 415.422 277.994 121.578 415.317 290.16 121.161 416.129 
290.223 123.179 415.473 289.113 127.651 415.035 278.571 128.834 415.353 
[...]
POINT_DATA 726
COLOR_SCALARS scalars 3
0.00392157 0.576471 0.6 0.00392157 0.576471 0.6 0.00392157 0.576471 0.6 
0.00392157 0.576471 0.6 0.00392157 0.576471 0.6 
0.00392157 0.576471 0.6 0.00392157 0.576471 0.6 
0.00392157 0.576471 0.6 0.00392157 0.576471 0.6 
0.00392157 0.576471 0.6 0.00392157 0.576471 0.6 
0.00392157 0.576471 0.6 0.00392157 0.576471 0.6 
0.00392157 0.576471 0.6 0.00392157 0.576471 0.6 
0.00392157 0.576471 0.6 0.00392157 0.576471 0.6 
0.00392157 0.576471 0.6 0.00392157 0.576471 0.6 
0.00392157 0.576471 0.6 0.00392157 0.576471 0.6 
0.00392157 0.576471 0.6 0.00392157 0.576471 0.6 
0.00392157 0.576471 0.6 0.00392157 0.576471 0.6 
0.00392157 0.576471 0.6 0.00392157 0.576471 0.6 
0.00392157 0.576471 0.6 0.00392157 0.576471 0.6 
0.00392157 0.576471 0.6 0.00392157 0.576471 0.6 
0.00392157 0.576471 0.6 0.00392157 0.576471 0.6 
0.00392157 0.576471 0.6 0.00392157 0.576471 0.6 
0.00392157 0.576471 0.6 0.00392157 0.576471 0.6 
0.00392157 0.576471 0.6 0.00392157 0.576471 0.6 
0.00392157 0.576471 0.6 0.00392157 0.576471 0.6 
0.00392157 0.576471 0.6 0.00392157 0.576471 0.6 
0.00392157 0.576471 0.6 0.00392157 0.576471 0.6 
0.00392157 0.576471 0.6 0.00392157 0.576471 0.6 
0.00392157 0.576471 0.6 0.00392157 0.576471 0.6 
0.00392157 0.576471 0.6 0.00392157 0.576471 0.6 
0.00392157 0.576471 0.6 0.00392157 0.576471 0.6 
0.00392157 0.576471 0.6 0.00392157 0.576471 0.6 
0.00392157 0.576471 0.6 0.00392157 0.576471 0.6 
0.00392157 0.576471 0.6 0.00392157 0.576471 0.6 
0.00392157 0.576471 0.6 0.00392157 0.576471 0.6 
0.00392157 0.576471 0.6 0.00392157 0.576471 0.6 
0.00392157 0.576471 0.6 0.00392157 0.576471 0.6 
0.00392157 0.576471 0.6 0.00392157 0.576471 0.6 
0.00392157 0.576471 0.6 0.00392157 0.576471 0.6 
0.00392157 0.576471 0.6 0.00392157 0.576471 0.6 
0.00392157 0.576471 0.6 0.00392157 0.576471 0.6 
0.00392157 0.576471 0.6 0.00392157 0.576471 0.6 
0.00392157 0.576471 0.6 0.00392157 0.576471 0.6 
0.00392157 0.576471 0.6 0.00392157 0.576471 0.6 
0.00392157 0.576471 0.6 0.00392157 0.576471 0.6 
0.00392157 0.576471 0.6 0.00392157 0.576471 0.6 
0.00392157 0.576471 0.6 0.00392157 0.576471 0.6 
0.00392157 0.576471 0.6 0.00392157 0.576471 0.6 
0.00392157 0.576471 0.6 0.00392157 0.576471 0.6 
0.00392157 0.576471 0.6 0.00392157 0.576471 0.6 
0.00392157 0.576471 0.6 0.00392157 0.576471 0.6 
0.00392157 0.576471 0.6 0.00392157 0.576471 0.6 
0.00392157 0.576471 0.6 0.00392157 0.576471 0.6 
0.00392157 0.576471 0.6 0.00392157 0.576471 0.6 
0.00392157 0.576471 0.6 0.00392157 0.576471 0.6 
0.00392157 0.576471 0.6 0.00392157 0.576471 0.6 
0.00392157 0.576471 0.6 0.00392157 0.576471 0.6 
0.00392157 0.576471 0.6 0.00392157 0.576471 0.6 
0.00392157 0.576471 0.6 0.00392157 0.576471 0.6 
0.00392157 0.576471 0.6 0.00392157 0.576471 0.6 
0.00392157 0.576471 0.6 0.00392157 0.576471 0.6 
0.00392157 0.576471 0.6 0.00392157 0.576471 0.6 
0.00392157 0.576471 0.6 0.00392157 0.576471 0.6 
0.00392157 0.576471 0.6 0.00392157 0.576471 0.6 
0.00392157 0.576471 0.6 0.00392157 0.576471 0.6 
0.00392157 0.576471 0.6 0.00392157 0.576471 0.6 
0.00392157 0.576471 0.6 0.00392157 0.576471 0.6 
0.00392157 0.576471 0.6 0.00392157 0.576471 0.6 
0.00392157 0.576471 0.6 0.00392157 0.576471 0.6 
0.00392157 0.576471 0.6 0.00392157 0.576471 0.6 
0.00392157 0.576471 0.6 0.00392157 0.576471 0.6 
0.00392157 0.576471 0.6 0.00392157 0.576471 0.6 
0.00392157 0.576471 0.6 0.00392157 0.576471 0.6 
0.00392157 0.576471 0.6 0.00392157 0.576471 0.6 
0.00392157 0.576471 0.6 0.00392157 0.576471 0.6 
0.00392157 0.576471 0.6 0.00392157 0.576471 0.6 
0.00392157 0.576471 0.6 0.00392157 0.576471 0.6 
0.00392157 0.576471 0.6 0.00392157 0.576471 0.6 
0.00392157 0.576471 0.6 0.00392157 0.576471 0.6 
0.00392157 0.576471 0.6 0.00392157 0.576471 0.6 
0.00392157 0.576471 0.6 0.00392157 0.576471 0.6 
0.00392157 0.576471 0.6 0.00392157 0.576471 0.6 
0.00392157 0.576471 0.6 0.00392157 0.576471 0.6 
0.00392157 0.576471 0.6 0.00392157 0.576471 0.6 
0.00392157 0.576471 0.6 0.00392157 0.576471 0.6 
0.00392157 0.576471 0.6 0.00392157 0.576471 0.6 
0.00392157 0.576471 0.6 0.00392157 0.576471 0.6 
0.00392157 0.576471 0.6 0.00392157 0.576471 0.6 
0.00392157 0.576471 0.6 0.00392157 0.576471 0.6 
0.00392157 0.576471 0.6 0.00392157 0.576471 0.6 
0.00392157 0.576471 0.6 0.00392157 0.576471 0.6 
0.00392157 0.576471 0.6 0.00392157 0.576471 0.6 
0.00392157 0.576471 0.6 0.00392157 0.576471 0.6 
0.00392157 0.576471 0.6 0.00392157 0.576471 0.6 
0.00392157 0.576471 0.6 0.00392157 0.576471 0.6 
0.00392157 0.576471 0.6 0.00392157 0.576471 0.6 
0.00392157 0.576471 0.6 0.00392157 0.576471 0.6 
0.00392157 0.576471 0.6 0.00392157 0.576471 0.6 
0.00392157 0.576471 0.6 0.00392157 0.576471 0.6 
0.00392157 0.576471 0.6 0.00392157 0.576471 0.6 
0.00392157 0.576471 0.6 0.00392157 0.576471 0.6 
0.00392157 0.576471 0.6 0.00392157 0.576471 0.6 
0.00392157 0.576471 0.6 0.00392157 0.576471 0.6 
0.00392157 0.576471 0.6 0.00392157 0.576471 0.6 
0.00392157 0.576471 0.6 0.00392157 0.576471 0.6 
0.00392157 0.576471 0.6 0.00392157 0.576471 0.6 
0.00392157 0.576471 0.6 0.00392157 0.576471 0.6 
0.00392157 0.576471 0.6 0.00392157 0.576471 0.6 
0.00392157 0.576471 0.6 0.00392157 0.576471 0.6 
0.00392157 0.576471 0.6 0.00392157 0.576471 0.6 
0.00392157 0.576471 0.6 0.00392157 0.576471 0.6 
0.00392157 0.576471 0.6 0.00392157 0.576471 0.6 
0.00392157 0.576471 0.6 0.00392157 0.576471 0.6 
0.00392157 0.576471 0.6 0.00392157 0.576471 0.6 
0.00392157 0.576471 0.6 0.00392157 0.576471 0.6 
0.00392157 0.576471 0.6 0.00392157 0.576471 0.6 
0.00392157 0.576471 0.6 0.00392157 0.576471 0.6 
0.00392157 0.576471 0.6 0.00392157 0.576471 0.6 
0.00392157 0.576471 0.6 0.00392157 0.576471 0.6 
0.00392157 0.576471 0.6 0.00392157 0.576471 0.6 
0.00392157 0.576471 0.6 0.00392157 0.576471 0.6 
0.00392157 0.576471 0.6 0.00392157 0.576471 0.6 
0.00392157 0.576471 0.6 0.00392157 0.576471 0.6 
0.00392157 0.576471 0.6 0.00392157 0.576471 0.6 
0.00392157 0.576471 0.6 0.00392157 0.576471 0.6 
0.00392157 0.576471 0.6 0.00392157 0.576471 0.6 
0.00392157 0.576471 0.6 0.00392157 0.576471 0.6 
0.00392157 0.576471 0.6 0.00392157 0.576471 0.6 
0.00392157 0.576471 0.6 0.00392157 0.576471 0.6 
0.00392157 0.576471 0.6 0.00392157 0.576471 0.6 
0.00392157 0.576471 0.6 0.00392157 0.576471 0.6 
0.00392157 0.576471 0.6 0.00392157 0.576471 0.6 
0.00392157 0.576471 0.6 0.00392157 0.576471 0.6 
0.00392157 0.576471 0.6 0.00392157 0.576471 0.6 
0.00392157 0.576471 0.6 0.00392157 0.576471 0.6 
0.00392157 0.576471 0.6 0.00392157 0.576471 0.6 
0.00392157 0.576471 0.6 0.00392157 0.576471 0.6 
0.00392157 0.576471 0.6 0.00392157 0.576471 0.6 
0.00392157 0.576471 0.6 0.00392157 0.576471 0.6 
0.00392157 0.576471 0.6 0.00392157 0.576471 0.6 
0.00392157 0.576471 0.6 0.00392157 0.576471 0.6 
0.00392157 0.576471 0.6 0.00392157 0.576471 0.6 
0.00392157 0.576471 0.6 0.00392157 0.576471 0.6 
0.00392157 0.576471 0.6 0.00392157 0.576471 0.6 
0.00392157 0.576471 0.6 0.00392157 0.576471 0.6 
0.00392157 0.576471 0.6 0.00392157 0.576471 0.6 
0.00392157 0.576471 0.6 0.00392157 0.576471 0.6 
0.00392157 0.576471 0.6 0.00392157 0.576471 0.6 
0.00392157 0.576471 0.6 0.00392157 0.576471 0.6 
0.00392157 0.576471 0.6 0.00392157 0.576471 0.6 
0.00392157 0.576471 0.6 0.00392157 0.576471 0.6 
0.00392157 0.576471 0.6 0.00392157 0.576471 0.6 
0.00392157 0.576471 0.6 0.00392157 0.576471 0.6 
0.00392157 0.576471 0.6 0.00392157 0.576471 0.6 
0.00392157 0.576471 0.6 0.00392157 0.576471 0.6 
0.00392157 0.576471 0.6 0.00392157 0.576471 0.6 
0.00392157 0.576471 0.6 0.00392157 0.576471 0.6 
0.00392157 0.576471 0.6 0.00392157 0.576471 0.6 
0.00392157 0.576471 0.6 0.00392157 0.576471 0.6 
0.00392157 0.576471 0.6 0.00392157 0.576471 0.6 
0.00392157 0.576471 0.6 0.00392157 0.576471 0.6 
0.00392157 0.576471 0.6 0.00392157 0.576471 0.6 
0.00392157 0.576471 0.6 0.00392157 0.576471 0.6 
0.00392157 0.576471 0.6 0.00392157 0.576471 0.6 
0.00392157 0.576471 0.6 0.00392157 0.576471 0.6 
0.00392157 0.576471 0.6 0.00392157 0.576471 0.6 
0.00392157 0.576471 0.6 0.00392157 0.576471 0.6 
0.00392157 0.576471 0.6 0.00392157 0.576471 0.6 
0.00392157 0.576471 0.6 0.00392157 0.576471 0.6 
0.00392157 0.576471 0.6 0.00392157 0.576471 0.6 
0.00392157 0.576471 0.6 0.00392157 0.576471 0.6 
0.00392157 0.576471 0.6 0.00392157 0.576471 0.6 
0.00392157 0.576471 0.6 0.00392157 0.576471 0.6 
0.00392157 0.576471 0.6 0.00392157 0.576471 0.6 
0.00392157 0.576471 0.6 0.00392157 0.576471 0.6 
0.00392157 0.576471 0.6 0.00392157 0.576471 0.6 
0.00392157 0.576471 0.6 0.00392157 0.576471 0.6 
0.00392157 0.576471 0.6 0.00392157 0.576471 0.6 
0.00392157 0.576471 0.6 0.00392157 0.576471 0.6 
0.00392157 0.576471 0.6 0.00392157 0.576471 0.6 
0.00392157 0.576471 0.6 0.00392157 0.576471 0.6 
0.00392157 0.576471 0.6 0.00392157 0.576471 0.6 
0.00392157 0.576471 0.6 0.00392157 0.576471 0.6 
0.00392157 0.576471 0.6 0.00392157 0.576471 0.6 
0.00392157 0.576471 0.6 0.00392157 0.576471 0.6 
0.00392157 0.576471 0.6 0.00392157 0.576471 0.6 
0.00392157 0.576471 0.6 0.00392157 0.576471 0.6 
0.00392157 0.576471 0.6 0.00392157 0.576471 0.6 
0.00392157 0.576471 0.6 0.00392157 0.576471 0.6 
0.00392157 0.576471 0.6 0.00392157 0.576471 0.6 
0.00392157 0.576471 0.6 0.00392157 0.576471 0.6 
0.00392157 0.576471 0.6 0.00392157 0.576471 0.6 
0.00392157 0.576471 0.6 0.00392157 0.576471 0.6 
0.00392157 0.576471 0.6 0.00392157 0.576471 0.6 
0.00392157 0.576471 0.6 0.00392157 0.576471 0.6 
0.00392157 0.576471 0.6 0.00392157 0.576471 0.6 
0.00392157 0.576471 0.6 0.00392157 0.576471 0.6 
0.00392157 0.576471 0.6 0.00392157 0.576471 0.6 
0.00392157 0.576471 0.6 0.00392157 0.576471 0.6 
0.00392157 0.576471 0.6 0.00392157 0.576471 0.6 
0.00392157 0.576471 0.6 0.00392157 0.576471 0.6 
0.00392157 0.576471 0.6 0.00392157 0.576471 0.6 
0.00392157 0.576471 0.6 0.00392157 0.576471 0.6 
0.00392157 0.576471 0.6 0.00392157 0.576471 0.6 
0.00392157 0.576471 0.6 0.00392157 0.576471 0.6 
0.00392157 0.576471 0.6 0.00392157 0.576471 0.6 
0.00392157 0.576471 0.6 0.00392157 0.576471 0.6 
0.00392157 0.576471 0.6 0.00392157 0.576471 0.6 
0.00392157 0.576471 0.6 0.00392157 0.576471 0.6 
0.00392157 0.576471 0.6 0.00392157 0.576471 0.6 
0.00392157 0.576471 0.6 0.00392157 0.576471 0.6 
0.00392157 0.576471 0.6 0.00392157 0.576471 0.6 
0.00392157 0.576471 0.6 0.00392157 0.576471 0.6 
0.00392157 0.576471 0.6 0.00392157 0.576471 0.6 
0.00392157 0.576471 0.6 0.00392157 0.576471 0.6 
0.00392157 0.576471 0.6 0.00392157 0.576471 0.6 
0.00392157 0.576471 0.6 0.00392157 0.576471 0.6 
0.00392157 0.576471 0.6 0.00392157 0.576471 0.6 
0.00392157 0.576471 0.6 0.00392157 0.576471 0.6 
0.00392157 0.576471 0.6 0.00392157 0.576471 0.6 
0.00392157 0.576471 0.6 0.00392157 0.576471 0.6 
0.00392157 0.576471 0.6 0.00392157 0.576471 0.6 
0.00392157 0.576471 0.6 0.00392157 0.576471 0.6 
0.00392157 0.576471 0.6 0.00392157 0.576471 0.6 
0.00392157 0.576471 0.6 0.00392157 0.576471 0.6 
0.00392157 0.576471 0.6 0.00392157 0.576471 0.6 
0.00392157 0.576471 0.6 0.00392157 0.576471 0.6 
0.00392157 0.576471 0.6 0.00392157 0.576471 0.6 
0.00392157 0.576471 0.6 0.00392157 0.576471 0.6 
0.00392157 0.576471 0.6 0.00392157 0.576471 0.6 
0.00392157 0.576471 0.6 0.00392157 0.576471 0.6 
0.00392157 0.576471 0.6 0.00392157 0.576471 0.6 
0.00392157 0.576471 0.6 0.00392157 0.576471 0.6 
0.00392157 0.576471 0.6 0.00392157 0.576471 0.6 
0.00392157 0.576471 0.6 0.00392157 0.576471 0.6 
0.00392157 0.576471 0.6 0.00392157 0.576471 0.6 
0.00392157 0.576471 0.6 0.00392157 0.576471 0.6 
0.00392157 0.576471 0.6 0.00392157 0.576471 0.6 
0.00392157 0.576471 0.6 0.00392157 0.576471 0.6 
0.00392157 0.576471 0.6 0.00392157 0.576471 0.6 
0.00392157 0.576471 0.6 0.00392157 0.576471 0.6 
0.00392157 0.576471 0.6 0.00392157 0.576471 0.6 
0.00392157 0.576471 0.6 0.00392157 0.576471 0.6 
0.00392157 0.576471 0.6 0.00392157 0.576471 0.6 
0.00392157 0.576471 0.6 0.00392157 0.576471 0.6 
0.00392157 0.576471 0.6 0.00392157 0.576471 0.6 
0.00392157 0.576471 0.6 0.00392157 0.576471 0.6 
0.00392157 0.576471 0.6 0.00392157 0.576471 0.6 
0.00392157 0.576471 0.6 0.00392157 0.576471 0.6 
0.00392157 0.576471 0.6 0.00392157 0.576471 0.6 
0.00392157 0.576471 0.6 0.00392157 0.576471 0.6 
0.00392157 0.576471 0.6 0.00392157 0.576471 0.6 
0.00392157 0.576471 0.6 0.00392157 0.576471 0.6 
0.00392157 0.576471 0.6 0.00392157 0.576471 0.6 
0.00392157 0.576471 0.6 0.00392157 0.576471 0.6 
0.00392157 0.576471 0.6 0.00392157 0.576471 0.6 
0.00392157 0.576471 0.6 0.00392157 0.576471 0.6 
0.00392157 0.576471 0.6 0.00392157 0.576471 0.6 
0.00392157 0.576471 0.6 0.00392157 0.576471 0.6 
0.00392157 0.576471 0.6 0.00392157 0.576471 0.6 
0.00392157 0.576471 0.6 0.00392157 0.576471 0.6 
0.00392157 0.576471 0.6 0.00392157 0.576471 0.6 
0.00392157 0.576471 0.6 0.00392157 0.576471 0.6 
0.00392157 0.576471 0.6 0.00392157 0.576471 0.6 
0.00392157 0.576471 0.6 0.00392157 0.576471 0.6 
0.00392157 0.576471 0.6 0.00392157 0.576471 0.6 
0.00392157 0.576471 0.6 0.00392157 0.576471 0.6 
0.00392157 0.576471 0.6 0.00392157 0.576471 0.6 
0.00392157 0.576471 0.6 0.00392157 0.576471 0.6 
0.00392157 0.576471 0.6 0.00392157 0.576471 0.6 
0.00392157 0.576471 0.6 0.00392157 0.576471 0.6 
0.00392157 0.576471 0.6 0.00392157 0.576471 0.6 
0.00392157 0.576471 0.6 0.00392157 0.576471 0.6 
0.00392157 0.576471 0.6 0.00392157 0.576471 0.6 
0.00392157 0.576471 0.6 0.00392157 0.576471 0.6 
0.00392157 0.576471 0.6 0.00392157 0.576471 0.6 
0.00392157 0.576471 0.6 0.00392157 0.576471 0.6 
0.00392157 0.576471 0.6 0.00392157 0.576471 0.6 
0.00392157 0.576471 0.6 0.00392157 0.576471 0.6 
0.00392157 0.576471 0.6 0.00392157 0.576471 0.6 
0.00392157 0.576471 0.6 0.00392157 0.576471 0.6 
0.00392157 0.576471 0.6 0.00392157 0.576471 0.6 
0.00392157 0.576471 0.6 0.00392157 0.576471 0.6 
0.00392157 0.576471 0.6 0.00392157 0.576471 0.6 
0.00392157 0.576471 0.6 0.00392157 0.576471 0.6 
0.00392157 0.576471 0.6 0.00392157 0.576471 0.6 
0.00392157 0.576471 0.6 0.00392157 0.576471 0.6 
0.00392157 0.576471 0.6 0.00392157 0.576471 0.6 
0.00392157 0.576471 0.6 0.00392157 0.576471 0.6 
0.00392157 0.576471 0.6 0.00392157 0.576471 0.6 
0.00392157 0.576471 0.6 0.00392157 0.576471 0.6 
0.00392157 0.576471 0.6 0.00392157 0.576471 0.6 
0.00392157 0.576471 0.6 0.00392157 0.576471 0.6 
0.00392157 0.576471 0.6 0.00392157 0.576471 0.6 
0.00392157 0.576471 0.6 0.00392157 0.576471 0.6 
0.00392157 0.576471 0.6 0.00392157 0.576471 0.6 
0.00392157 0.576471 0.6 0.00392157 0.576471 0.6 
0.00392157 0.576471 0.6 0.00392157 0.576471 0.6 
0.00392157 0.576471 0.6 0.00392157 0.576471 0.6 
0.00392157 0.576471 0.6 0.00392157 0.576471 0.6 
0.00392157 0.576471 0.6 0.00392157 0.576471 0.6 
0.00392157 0.576471 0.6 0.00392157 0.576471 0.6 
0.00392157 0.576471 0.6 0.00392157 0.576471 0.6 
0.00392157 0.576471 0.6 0.00392157 0.576471 0.6 
0.00392157 0.576471 0.6 0.00392157 0.576471 0.6 
0.00392157 0.576471 0.6 0.00392157 0.576471 0.6 
0.00392157 0.576471 0.6 0.00392157 0.576471 0.6 
0.00392157 0.576471 0.6 0.00392157 0.576471 0.6 
0.00392157 0.576471 0.6 0.00392157 0.576471 0.6 
0.00392157 0.576471 0.6 0.00392157 0.576471 0.6 
0.00392157 0.576471 0.6 0.00392157 0.576471 0.6 
0.00392157 0.576471 0.6 0.00392157 0.576471 0.6 
0.00392157 0.576471 0.6 0.00392157 0.576471 0.6 
0.00392157 0.576471 0.6 0.00392157 0.576471 0.6 
0.00392157 0.576471 0.6 0.00392157 0.576471 0.6 
0.00392157 0.576471 0.6 0.00392157 0.576471 0.6 
0.00392157 0.576471 0.6 0.00392157 0.576471 0.6 
0.00392157 0.576471 0.6 0.00392157 0.576471 0.6 
0.00392157 0.576471 0.6 0.00392157 0.576471 0.6 
0.00392157 0.576471 0.6 0.00392157 0.576471 0.6 
0.00392157 0.576471 0.6 0.00392157 0.576471 0.6 
0.00392157 0.576471 0.6 0.00392157 0.576471 0.6 
0.00392157 0.576471 0.6 0.00392157 0.576471 0.6 
0.00392157 0.576471 0.6 0.00392157 0.576471 0.6 
0.00392157 0.576471 0.6 0.00392157 0.576471 0.6 
0.00392157 0.576471 0.6 0.00392157 0.576471 0.6 
0.00392157 0.576471 0.6 0.00392157 0.576471 0.6 
0.00392157 0.576471 0.6 0.00392157 0.576471 0.6 
0.00392157 0.576471 0.6 0.00392157 0.576471 0.6 
0.00392157 0.576471 0.6 0.00392157 0.576471 0.6 
0.00392157 0.576471 0.6 0.00392157 0.576471 0.6 
0.00392157 0.576471 0.6 0.00392157 0.576471 0.6 
0.00392157 0.576471 0.6 0.00392157 0.576471 0.6 
0.00392157 0.576471 0.6 0.00392157 0.576471 0.6 
0.00392157 0.576471 0.6 0.00392157 0.576471 0.6 
0.00392157 0.576471 0.6 0.00392157 0.576471 0.6 
0.00392157 0.576471 0.6 0.00392157 0.576471 0.6 
0.00392157 0.576471 0.6 0.00392157 0.576471 0.6 
0.00392157 0.576471 0.6 0.00392157 0.576471 0.6 
0.00392157 0.576471 0.6 0.00392157 0.576471 0.6 
0.00392157 0.576471 0.6 0.00392157 0.576471 0.6 
0.00392157 0.576471 0.6 0.00392157 0.576471 0.6 
0.00392157 0.576471 0.6 0.00392157 0.576471 0.6 
0.00392157 0.576471 0.6 0.00392157 0.576471 0.6 
0.00392157 0.576471 0.6 0.00392157 0.576471 0.6 
0.00392157 0.576471 0.6 0.00392157 0.576471 0.6 
0.00392157 0.576471 0.6 0.00392157 0.576471 0.6 
0.00392157 0.576471 0.6 0.00392157 0.576471 0.6 
0.00392157 0.576471 0.6 0.00392157 0.576471 0.6 
0.00392157 0.576471 0.6 0.00392157 0.576471 0.6 
0.00392157 0.576471 0.6 0.00392157 0.576471 0.6 
0.00392157 0.576471 0.6 0.00392157 0.576471 0.6 
0.00392157 0.576471 0.6 0.00392157 0.576471 0.6 
0.00392157 0.576471 0.6 0.00392157 0.576471 0.6 
0.00392157 0.576471 0.6 0.00392157 0.576471 0.6 
0.00392157 0.576471 0.6 0.00392157 0.576471 0.6 
0.00392157 0.576471 0.6 0.00392157 0.576471 0.6 
0.00392157 0.576471 0.6 0.00392157 0.576471 0.6 
0.00392157 0.576471 0.6 0.00392157 0.576471 0.6 
0.00392157 0.576471 0.6 0.00392157 0.576471 0.6 
0.00392157 0.576471 0.6 0.00392157 0.576471 0.6 
0.00392157 0.576471 0.6 0.00392157 0.576471 0.6 
0.00392157 0.576471 0.6 0.00392157 0.576471 0.6 
0.00392157 0.576471 0.6 0.00392157 0.576471 0.6 
0.00392157 0.576471 0.6 0.00392157 0.576471 0.6 
0.00392157 0.576471 0.6 0.00392157 0.576471 0.6 
0.00392157 0.576471 0.6 0.00392157 0.576471 0.6 
0.00392157 0.576471 0.6 
NORMALS Normals float
0.045226 -0.217004 -0.975123 0.16471 -0.442476 -0.881525 0.375034 -0.740522 -0.557653 
0.254892 -0.653114 -0.713072 0.313448 -0.813938 -0.489137 0.169964 -0.497974 -0.850373 
0.353874 -0.152741 -0.922737 0.700486 0.0867123 -0.708378 0.22318 0.0462861 -0.973678 
0.573305 0.475527 -0.66723 0.159711 0.158872 -0.974296 0.402155 0.437525 -0.804266 
0.497247 0.535489 -0.682639 0.635119 0.630299 -0.446483 0.0131404 0.110016 -0.993843 
-0.00139817 0.140247 -0.990116 0.563613 0.191278 -0.803588 0.535993 0.491705 -0.686249 
0.376435 0.0996709 -0.921066 0.48335 0.186058 -0.855427 0.226358 0.194658 -0.954395 
0.802247 0.311914 -0.509027 0.588295 0.297601 -0.751893 0.0890846 0.425679 -0.900478 
0.395858 0.339503 -0.853249 0.371284 0.605702 -0.703757 0.138824 -0.57815 -0.804034 
0.115518 -0.748582 -0.652901 0.335138 -0.725683 -0.600888 -0.0510134 -0.38765 -0.920394 
0.304142 -0.919554 -0.248834 0.851672 0.0695457 -0.519441 0.446929 -0.703419 -0.552681 
0.960443 -0.248775 -0.12514 -0.0678065 -0.255598 -0.964402 0.812772 0.521201 -0.260291 
-0.272597 -0.0576133 -0.960402 0.399829 0.604855 -0.688685 -0.196153 -0.00331515 -0.980568 
0.838814 0.206195 -0.503861 0.776291 0.146738 -0.613059 -0.0350934 0.164962 -0.985675 
-0.265978 0.376487 -0.887419 -0.442953 0.683278 -0.580451 -0.26525 0.608965 -0.747531 
-0.199912 0.749927 -0.630591 0.531134 0.691961 -0.488965 0.0457138 0.887419 -0.458691 
0.220552 0.876222 -0.428476 0.266344 -0.674014 -0.689033 0.152158 -0.708942 -0.688658 
0.447674 -0.81509 -0.367718 0.455496 -0.882497 -0.117142 0.49916 -0.864705 -0.0558973 
0.73235 -0.67867 0.0554117 0.994819 0.0903475 -0.0466088 0.619646 0.642389 -0.450972 
0.785303 0.567982 -0.246367 0.866745 0.438062 -0.238441 -0.432393 -0.148856 -0.889313 
-0.542478 -0.0637043 -0.837651 0.86026 0.358122 -0.362909 -0.614699 -0.0379497 -0.787848 
-0.634182 0.0265514 -0.772728 -0.470186 -0.0476 -0.881283 -0.695821 0.13149 -0.706076 
-0.658739 0.148092 -0.737653 -0.4595 0.217894 -0.861036 -0.851917 0.208455 -0.4804 
0.872646 0.30517 -0.381263 -0.622493 0.460604 -0.63273 0.791095 0.429923 -0.435127 