# vtk DataFile Version 4.2
vtk output
ASCII
DATASET POLYDATA
POINTS 884 float
269.369 225.016 86.1741 270.396 227.793 86.0653 269.629 228.849 85.8929 
269.338 233.878 86.1596 269.445 221.18 87.3285 270.976 220.591 88.495 
271.364 223.378 87.1688 271.914 223.38 87.5002 272.322 223.056 87.9827 
272.325 223.439 87.8278 272.691 224.033 88.1181 272.411 224.75 87.531 
272.789 228.326 87.3847 272.333 229.742 86.9389 272.973 231.377 87.4329 
273.504 231.934 87.9819 273.037 233.435 87.4638 271.753 234.913 86.7337 
272.35 235.555 87.0556 273.336 235.801 87.786 272.403 242.52 87.5044 
273.199 244.359 87.6732 273.708 243.977 87.9892 272.569 244.888 87.8393 
273.28 245.019 87.8033 273.774 245.056 87.6953 273.948 244.979 87.8106 
273.561 245.478 88.2615 273.897 245.463 87.7531 274.136 245.638 87.6791 
274.254 245.721 87.5818 274.196 245.67 87.5939 274.244 245.669 87.5699 
274.274 245.726 87.5614 268.569 218.61 88.7189 269.89 218.864 88.9142 
262.156 224.492 87.8935 273.622 228.416 88.5038 274.034 234.974 88.4061 
273.821 236.946 88.5423 268.102 241.016 87.6352 274.021 242.139 88.9505 
273.973 244.908 88.1891 273.295 245.984 88.7953 272.976 246.243 88.9212 
275.004 248.013 88.0087 275.004 248.013 88.0087 275.004 248.013 88.0087 
275.004 248.013 88.0088 274.221 245.639 87.6303 275.004 248.013 88.0088 
266.117 218 89.4042 268.179 217.349 89.8468 269.761 217.702 90.1896 
270.444 218.812 89.3887 264.063 218.897 89.4241 272.068 221.783 89.2944 
273.174 224.638 89.1552 273.428 226.03 89.027 273.943 228.869 89.0735 
274.323 232.847 89.2645 272.315 246.233 88.8478 270.958 247.414 89.5631 
272.979 246.716 89.4908 275.004 248.013 88.0088 272.117 247.761 89.8293 
272.414 248.024 90.1024 273.178 247.617 90.4813 272.703 247.947 90.2366 
275.004 250.013 89.0087 275.004 250.013 89.0087 275.004 250.013 89.0087 
275.004 250.013 89.0088 275.004 250.013 89.0088 267.295 216.814 90.4458 
270.38 218.412 89.8439 271.04 219.167 89.9342 271.227 219.268 90.3607 
273.605 226.137 89.9328 274.18 228.135 89.9786 274.481 240.634 90.3083 
272.001 248.221 90.1236 271.459 248.809 90.4619 275.004 250.013 89.0088 
272.586 248.999 91.1269 275.004 251.013 90.0087 275.004 251.013 90.0087 
275.004 251.013 90.0087 275.004 251.013 90.0088 275.004 251.013 90.0088 
268.334 216.138 91.5164 269.048 216.236 91.5917 259.86 220.204 91.1714 
259.273 221.122 90.8404 273.872 226.993 90.3707 274.202 228.208 90.1765 
274.605 230.595 90.471 274.784 230.271 91.3966 274.596 237.939 90.8526 
271.085 249.114 90.8043 271.963 249.788 91.5051 275.004 251.013 90.0088 
273.219 249.663 92.3537 275.004 252.013 91.0087 275.004 252.013 91.0087 
275.004 252.013 91.0087 275.004 252.013 91.0088 275.004 252.013 91.0088 
267.811 215.933 92.1686 257.326 221.057 92.4575 255.721 224.84 91.5161 
274.787 230.519 91.9897 275.004 252.013 91.0088 272.982 250.789 93.2113 
268.462 215.782 93.2883 269.312 216.097 92.5936 265.878 216.209 93.1567 
270.844 217.446 92.9659 253.776 222.984 93.5706 274.141 249.712 93.8503 
270.356 216.736 93.5173 259.823 218.964 94.5871 253.548 222.404 94.5192 
252.008 223.672 95.068 251.941 225.284 94.0579 251.622 226.732 93.9968 
274.605 230.189 93.1987 275.304 242.669 93.9061 267.665 215.815 94.7245 
268.836 215.901 94.3875 263.23 217.323 94.7122 271.117 217.816 94.5469 
256.918 220.297 95.4279 252.885 222.489 95.8357 250.579 225.117 95.8672 
250.25 226.345 95.4496 275.411 241.309 95.1215 275.485 244.616 94.2551 
268.706 252.671 95.1452 269.314 216.127 94.7952 267.848 216.062 95.6496 
272.332 220.523 95.4292 249.778 227.356 95.7462 249.765 231.173 95.9044 
274.77 239.051 96.1384 276.591 242.936 96.4716 275.983 245.92 95.6182 
269.656 253.693 96.8101 272.005 253.098 96.2128 269.245 216.255 95.4676 
268.902 216.365 96.0367 270.474 217.13 95.7681 256.661 220.569 96.6985 
252.508 222.786 96.5589 250.844 224.512 97.3173 248.434 228.396 97.2623 
274.783 239.095 96.9966 277.848 243.062 97.8267 264.438 252.943 97.3494 
273.793 252.237 97.0734 272.786 252.869 96.654 269.209 216.829 96.8162 
272.152 219.688 97.4517 257.523 220.547 97.4948 255.315 221.489 97.5905 
248.186 227.888 98.0988 248.097 227.89 98.4754 275.653 240.237 98.2513 
276.138 240.797 97.9932 273.583 252.562 97.403 267.476 254.337 98.6468 
271.423 218.415 97.3675 267.312 217.913 98.7078 252.724 223.724 98.8314 
249.808 225.842 98.5061 273.621 226.337 98.7244 272.8 231.401 99.1336 
273.803 237.787 99.0956 276.812 241.05 99.0835 279.604 243.561 99.5085 
280.163 244.004 99.8941 280.225 243.841 99.9647 280.403 244.208 100.337 
279.793 245.678 100.023 276.155 249.493 98.3414 270.865 218.246 98.1725 
269.442 218.634 99.4872 250.1 226.559 100.038 246.096 232.744 99.9585 
273.902 238.555 100.315 275.416 240.104 100.345 280.303 243.701 100.663 
280.57 244.056 100.792 280.631 244.252 100.747 280.7 244.266 101.077 
280.358 244.96 100.322 280.654 244.527 100.841 277.453 248.623 99.7119 
257.092 249.991 99.7652 262.992 253.804 100.172 268.544 254.688 99.7339 
264.192 221.226 101.09 273.014 226.513 101.021 272.559 227.854 100.813 
271.341 229.349 101.804 245.31 232.2 101.611 277.339 241.276 100.48 
278.883 242.36 100.464 280.709 244.234 101.518 280.605 245.455 101.326 
279.217 247.409 101.352 277.536 249.064 100.931 257.486 250.852 100.9 
277.228 249.405 101.21 270.897 254.413 100.409 265.663 254.713 101.5 
268.044 254.827 101.08 271.215 220.627 100.823 272.861 221.971 100.766 
273.483 223.806 101.716 273.505 224.102 101.734 273.427 224.443 101.765 
251.218 226.747 101.013 244.281 233.165 102.854 244.075 233.68 102.646 
275.865 240.922 102.038 276.641 241.119 101.544 277.862 241.763 101.671 
279.423 242.686 101.463 280.257 243.466 101.739 280.787 244.928 101.918 
252.103 246.689 101.933 280.228 246.274 101.951 278.979 247.622 101.893 
257.014 250.786 102.22 276.867 249.626 101.808 274.306 252.331 100.927 
264.054 254.397 101.936 266.985 254.77 102.016 267.854 254.791 101.783 
271.488 221.721 101.698 272.191 221.875 101.401 270.922 222.727 102.62 
271.666 222.828 102.435 273.343 223.625 101.85 273.39 224.189 101.954 
260.421 225.663 103.174 270.693 227.221 102.994 246.136 231.26 102.156 
243.163 233.917 103.641 243.641 233.785 103.174 243.59 233.558 103.611 
242.933 234.165 103.75 243.505 234.962 103.242 272.748 238.643 102.944 
274.02 240.407 103.132 276.191 241.522 102.822 277.258 241.549 101.949 
280.634 244.204 102.384 280.716 244.529 102.54 280.354 245.85 102.731 
279.782 246.686 102.666 274.906 250.573 103.196 276.214 249.833 102.574 
257.998 251.39 103.308 265.752 254.599 102.583 266.234 254.484 103.184 
270.61 254.271 101.996 272.729 223.721 102.377 273.176 223.701 102.068 
267.586 224 103.317 272.597 224.08 102.635 269.538 224.479 103.443 
272.6 225.032 102.573 272.265 224.962 102.862 271.258 225.701 103.136 
264.081 226.33 104.181 269.064 227.007 103.806 245.466 232.213 103.11 
242.929 233.933 104.251 242.793 234.056 104.178 245.409 232.611 103.779 
242.659 234.353 104.285 276.1 241.981 103.421 279.951 243.536 103.019 
280.538 244.67 103.163 280.626 244.945 102.979 280.496 245.351 102.976 
251.85 247.204 103.949 279.318 247.004 102.931 279.624 246.609 103.101 
278.875 247.186 103.215 275.813 249.559 103.264 270.475 253.715 103.446 
270.141 224.933 103.44 268.664 229.499 104.6 242.747 234.168 104.468 
242.53 234.656 104.546 242.566 234.519 104.733 242.463 234.741 104.781 
243.824 233.918 104.994 248.2 233.038 105.267 242.484 234.973 104.778 
242.419 235.48 105.366 246.489 241.61 104.298 278.903 243.34 103.582 
247.239 242.859 104.405 273.448 243.056 105.364 276.006 242.996 104.189 
277.392 243.832 104.253 280.123 244.168 103.486 279.924 244.268 103.678 
248.646 244.756 104.556 273.774 245.508 105.613 280.156 244.426 103.586 
280.297 244.7 103.49 280.283 245.338 103.383 277.595 246.21 104.333 
280.005 245.434 103.599 252.535 247.745 104.813 273.76 247.662 105.392 
264.666 253.592 104.865 266.486 253.982 104.411 267.419 228.581 104.896 
265.976 229.638 105.837 242.484 234.897 105.078 242.947 234.554 105.328 
242.636 235.123 105.683 242.401 235.681 105.999 269.598 235.287 106.159 
242.458 236.503 105.665 271.57 241 106.157 246.941 243.261 106.065 
277.936 244.481 104.314 278.738 244.302 104.082 278.064 245.137 104.37 
278.51 245.532 104.23 279.71 245.182 103.824 242.632 235.895 106.812 
242.14 236.76 106.957 244.846 240.538 106.235 271.835 243.044 106.877 
249.76 245.932 106.799 252.629 247.57 106.361 271.235 249.825 106.94 
270.296 251.224 106.819 266.657 252.374 106.78 269.706 252.184 106.187 
267.585 233.438 107.266 267.002 233.792 107.748 267.577 235.455 108.151 
241.914 237.284 107.496 241.948 237.149 107.912 241.837 237.629 107.654 
244.822 240.929 107.506 246.6 243.066 107.298 246.388 242.784 107.817 
271.645 245.418 107.817 251.269 246.607 107.185 254.378 247.864 107.171 
257.047 248.973 107.143 263.558 234.238 108.541 265.73 234.352 108.503 
241.555 237.573 108.277 241.588 237.551 108.511 241.373 237.682 108.558 
242.268 237.162 108.279 243.974 237.314 108.727 241.397 237.765 108.471 
241.291 237.812 108.672 241.647 237.843 108.149 241.746 238.222 108.465 
242.622 239.068 108.642 243.58 239.797 108.304 245.156 241.239 108.49 
246.032 242.275 108.205 246.938 243.235 108.284 247.839 244.229 107.887 
249.359 245.383 107.791 264.271 249.84 108.969 265.681 236.222 109.448 
241.526 237.736 108.76 241.351 237.744 108.717 241.281 237.855 108.791 
241.307 237.922 108.749 241.361 237.953 108.826 246.095 238.273 109.268 
241.493 238.071 108.737 241.848 238.335 108.778 242.043 238.565 108.761 
242.872 239.218 108.739 243.007 239.179 108.881 243.999 239.95 108.751 
244.356 240.373 108.624 253.092 240.723 109.602 245.357 241.361 108.647 
245.646 241.448 108.816 250.66 241.897 109.813 246.053 242.016 108.664 
246.555 242.449 108.746 248.71 243.994 108.822 249.54 244.11 109.039 
252.056 244.989 109.181 253.087 244.598 109.564 250.919 245.431 108.524 
260.094 247.394 109.622 241.617 238.065 108.858 242.167 238.27 108.925 
262.092 238.492 110.351 244.849 239.061 109.439 245.555 239.046 109.605 
[...]
POINT_DATA 884
COLOR_SCALARS scalars 3
0.615686 0.905882 0.611765 0.615686 0.905882 0.611765 0.615686 0.905882 0.611765 
0.615686 0.905882 0.611765 0.615686 0.905882 0.611765 
0.615686 0.905882 0.611765 0.615686 0.905882 0.611765 
0.615686 0.905882 0.611765 0.615686 0.905882 0.611765 
0.615686 0.905882 0.611765 0.615686 0.905882 0.611765 
0.615686 0.905882 0.611765 0.615686 0.905882 0.611765 
0.615686 0.905882 0.611765 0.615686 0.905882 0.611765 
0.615686 0.905882 0.611765 0.615686 0.905882 0.611765 
0.615686 0.905882 0.611765 0.615686 0.905882 0.611765 
0.615686 0.905882 0.611765 0.615686 0.905882 0.611765 
0.615686 0.905882 0.611765 0.615686 0.905882 0.611765 
0.615686 0.905882 0.611765 0.615686 0.905882 0.611765 
0.615686 0.905882 0.611765 0.615686 0.905882 0.611765 
0.615686 0.905882 0.611765 0.615686 0.905882 0.611765 
0.615686 0.905882 0.611765 0.615686 0.905882 0.611765 
0.615686 0.905882 0.611765 0.615686 0.905882 0.611765 
0.615686 0.905882 0.611765 0.615686 0.905882 0.611765 
0.615686 0.905882 0.611765 0.615686 0.905882 0.611765 
0.615686 0.905882 0.611765 0.615686 0.905882 0.611765 
0.615686 0.905882 0.611765 0.615686 0.905882 0.611765 
0.615686 0.905882 0.611765 0.615686 0.905882 0.611765 
0.615686 0.905882 0.611765 0.615686 0.905882 0.611765 
0.615686 0.905882 0.611765 0.615686 0.905882 0.611765 
0.615686 0.905882 0.611765 0.615686 0.905882 0.611765 
0.615686 0.905882 0.611765 0.615686 0.905882 0.611765 
0.615686 0.905882 0.611765 0.615686 0.905882 0.611765 
0.615686 0.905882 0.611765 0.615686 0.905882 0.611765 
0.615686 0.905882 0.611765 0.615686 0.905882 0.611765 
0.615686 0.905882 0.611765 0.615686 0.905882 0.611765 
0.615686 0.905882 0.611765 0.615686 0.905882 0.611765 
0.615686 0.905882 0.611765 0.615686 0.905882 0.611765 
0.615686 0.905882 0.611765 0.615686 0.905882 0.611765 
0.615686 0.905882 0.611765 0.615686 0.905882 0.611765 
0.615686 0.905882 0.611765 0.615686 0.905882 0.611765 
0.615686 0.905882 0.611765 0.615686 0.905882 0.611765 
0.615686 0.905882 0.611765 0.615686 0.905882 0.611765 
0.615686 0.905882 0.611765 0.615686 0.905882 0.611765 
0.615686 0.905882 0.611765 0.615686 0.905882 0.611765 
0.615686 0.905882 0.611765 0.615686 0.905882 0.611765 
0.615686 0.905882 0.611765 0.615686 0.905882 0.611765 
0.615686 0.905882 0.611765 0.615686 0.905882 0.611765 
0.615686 0.905882 0.611765 0.615686 0.905882 0.611765 
0.615686 0.905882 0.611765 0.615686 0.905882 0.611765 
0.615686 0.905882 0.611765 0.615686 0.905882 0.611765 
0.615686 0.905882 0.611765 0.615686 0.905882 0.611765 
0.615686 0.905882 0.611765 0.615686 0.905882 0.611765 
0.615686 0.905882 0.611765 0.615686 0.905882 0.611765 
0.615686 0.905882 0.611765 0.615686 0.905882 0.611765 
0.615686 0.905882 0.611765 0.615686 0.905882 0.611765 
0.615686 0.905882 0.611765 0.615686 0.905882 0.611765 
0.615686 0.905882 0.611765 0.615686 0.905882 0.611765 
0.615686 0.905882 0.611765 0.615686 0.905882 0.611765 
0.615686 0.905882 0.611765 0.615686 0.905882 0.611765 
0.615686 0.905882 0.611765 0.615686 0.905882 0.611765 
0.615686 0.905882 0.611765 0.615686 0.905882 0.611765 
0.615686 0.905882 0.611765 0.615686 0.905882 0.611765 
0.615686 0.905882 0.611765 0.615686 0.905882 0.611765 
0.615686 0.905882 0.611765 0.615686 0.905882 0.611765 
0.615686 0.905882 0.611765 0.615686 0.905882 0.611765 
0.615686 0.905882 0.611765 0.615686 0.905882 0.611765 
0.615686 0.905882 0.611765 0.615686 0.905882 0.611765 
0.615686 0.905882 0.611765 0.615686 0.905882 0.611765 
0.615686 0.905882 0.611765 0.615686 0.905882 0.611765 
0.615686 0.905882 0.611765 0.615686 0.905882 0.611765 
0.615686 0.905882 0.611765 0.615686 0.905882 0.611765 
0.615686 0.905882 0.611765 0.615686 0.905882 0.611765 
0.615686 0.905882 0.611765 0.615686 0.905882 0.611765 
0.615686 0.905882 0.611765 0.615686 0.905882 0.611765 
0.615686 0.905882 0.611765 0.615686 0.905882 0.611765 
0.615686 0.905882 0.611765 0.615686 0.905882 0.611765 
0.615686 0.905882 0.611765 0.615686 0.905882 0.611765 
0.615686 0.905882 0.611765 0.615686 0.905882 0.611765 
0.615686 0.905882 0.611765 0.615686 0.905882 0.611765 
0.615686 0.905882 0.611765 0.615686 0.905882 0.611765 
0.615686 0.905882 0.611765 0.615686 0.905882 0.611765 
0.615686 0.905882 0.611765 0.615686 0.905882 0.611765 
0.615686 0.905882 0.611765 0.615686 0.905882 0.611765 
0.615686 0.905882 0.611765 0.615686 0.905882 0.611765 
0.615686 0.905882 0.611765 0.615686 0.905882 0.611765 
0.615686 0.905882 0.611765 0.615686 0.905882 0.611765 
0.615686 0.905882 0.611765 0.615686 0.905882 0.611765 
0.615686 0.905882 0.611765 0.615686 0.905882 0.611765 
0.615686 0.905882 0.611765 0.615686 0.905882 0.611765 
0.615686 0.905882 0.611765 0.615686 0.905882 0.611765 
0.615686 0.905882 0.611765 0.615686 0.905882 0.611765 
0.615686 0.905882 0.611765 0.615686 0.905882 0.611765 
0.615686 0.905882 0.611765 0.615686 0.905882 0.611765 
0.615686 0.905882 0.611765 0.615686 0.905882 0.611765 
0.615686 0.905882 0.611765 0.615686 0.905882 0.611765 
0.615686 0.905882 0.611765 0.615686 0.905882 0.611765 
0.615686 0.905882 0.611765 0.615686 0.905882 0.611765 
0.615686 0.905882 0.611765 0.615686 0.905882 0.611765 
0.615686 0.905882 0.611765 0.615686 0.905882 0.611765 
0.615686 0.905882 0.611765 0.615686 0.905882 0.611765 
0.615686 0.905882 0.611765 0.615686 0.905882 0.611765 
0.615686 0.905882 0.611765 0.615686 0.905882 0.611765 
0.615686 0.905882 0.611765 0.615686 0.905882 0.611765 
0.615686 0.905882 0.611765 0.615686 0.905882 0.611765 
0.615686 0.905882 0.611765 0.615686 0.905882 0.611765 
0.615686 0.905882 0.611765 0.615686 0.905882 0.611765 
0.615686 0.905882 0.611765 0.615686 0.905882 0.611765 
0.615686 0.905882 0.611765 0.615686 0.905882 0.611765 
0.615686 0.905882 0.611765 0.615686 0.905882 0.611765 
0.615686 0.905882 0.611765 0.615686 0.905882 0.611765 
0.615686 0.905882 0.611765 0.615686 0.905882 0.611765 
0.615686 0.905882 0.611765 0.615686 0.905882 0.611765 
0.615686 0.905882 0.611765 0.615686 0.905882 0.611765 
0.615686 0.905882 0.611765 0.615686 0.905882 0.611765 
0.615686 0.905882 0.611765 0.615686 0.905882 0.611765 
0.615686 0.905882 0.611765 0.615686 0.905882 0.611765 
0.615686 0.905882 0.611765 0.615686 0.905882 0.611765 
0.615686 0.905882 0.611765 0.615686 0.905882 0.611765 
0.615686 0.905882 0.611765 0.615686 0.905882 0.611765 
0.615686 0.905882 0.611765 0.615686 0.905882 0.611765 
0.615686 0.905882 0.611765 0.615686 0.905882 0.611765 
0.615686 0.905882 0.611765 0.615686 0.905882 0.611765 
0.615686 0.905882 0.611765 0.615686 0.905882 0.611765 
0.615686 0.905882 0.611765 0.615686 0.905882 0.611765 
0.615686 0.905882 0.611765 0.615686 0.905882 0.611765 
0.615686 0.905882 0.611765 0.615686 0.905882 0.611765 
0.615686 0.905882 0.611765 0.615686 0.905882 0.611765 
0.615686 0.905882 0.611765 0.615686 0.905882 0.611765 
0.615686 0.905882 0.611765 0.615686 0.905882 0.611765 
0.615686 0.905882 0.611765 0.615686 0.905882 0.611765 
0.615686 0.905882 0.611765 0.615686 0.905882 0.611765 
0.615686 0.905882 0.611765 0.615686 0.905882 0.611765 
0.615686 0.905882 0.611765 0.615686 0.905882 0.611765 
0.615686 0.905882 0.611765 0.615686 0.905882 0.611765 
0.615686 0.905882 0.611765 0.615686 0.905882 0.611765 
0.615686 0.905882 0.611765 0.615686 0.905882 0.611765 
0.615686 0.905882 0.611765 0.615686 0.905882 0.611765 
0.615686 0.905882 0.611765 0.615686 0.905882 0.611765 
0.615686 0.905882 0.611765 0.615686 0.905882 0.611765 
0.615686 0.905882 0.611765 0.615686 0.905882 0.611765 
0.615686 0.905882 0.611765 0.615686 0.905882 0.611765 
0.615686 0.905882 0.611765 0.615686 0.905882 0.611765 
0.615686 0.905882 0.611765 0.615686 0.905882 0.611765 
0.615686 0.905882 0.611765 0.615686 0.905882 0.611765 
0.615686 0.905882 0.611765 0.615686 0.905882 0.611765 
0.615686 0.905882 0.611765 0.615686 0.905882 0.611765 
0.615686 0.905882 0.611765 0.615686 0.905882 0.611765 
0.615686 0.905882 0.611765 0.615686 0.905882 0.611765 
0.615686 0.905882 0.611765 0.615686 0.905882 0.611765 
0.615686 0.905882 0.611765 0.615686 0.905882 0.611765 
0.615686 0.905882 0.611765 0.615686 0.905882 0.611765 
0.615686 0.905882 0.611765 0.615686 0.905882 0.611765 
0.615686 0.905882 0.611765 0.615686 0.905882 0.611765 
0.615686 0.905882 0.611765 0.615686 0.905882 0.611765 
0.615686 0.905882 0.611765 0.615686 0.905882 0.611765 
0.615686 0.905882 0.611765 0.615686 0.905882 0.611765 
0.615686 0.905882 0.611765 0.615686 0.905882 0.611765 
0.615686 0.905882 0.611765 0.615686 0.905882 0.611765 
0.615686 0.905882 0.611765 0.615686 0.905882 0.611765 
0.615686 0.905882 0.611765 0.615686 0.905882 0.611765 
0.615686 0.905882 0.611765 0.615686 0.905882 0.611765 
0.615686 0.905882 0.611765 0.615686 0.905882 0.611765 
0.615686 0.905882 0.611765 0.615686 0.905882 0.611765 
0.615686 0.905882 0.611765 0.615686 0.905882 0.611765 
0.615686 0.905882 0.611765 0.615686 0.905882 0.611765 
0.615686 0.905882 0.611765 0.615686 0.905882 0.611765 
0.615686 0.905882 0.611765 0.615686 0.905882 0.611765 
0.615686 0.905882 0.611765 0.615686 0.905882 0.611765 
0.615686 0.905882 0.611765 0.615686 0.905882 0.611765 
0.615686 0.905882 0.611765 0.615686 0.905882 0.611765 
0.615686 0.905882 0.611765 0.615686 0.905882 0.611765 
0.615686 0.905882 0.611765 0.615686 0.905882 0.611765 
0.615686 0.905882 0.611765 0.615686 0.905882 0.611765 
0.615686 0.905882 0.611765 0.615686 0.905882 0.611765 
0.615686 0.905882 0.611765 0.615686 0.905882 0.611765 
0.615686 0.905882 0.611765 0.615686 0.905882 0.611765 
0.615686 0.905882 0.611765 0.615686 0.905882 0.611765 
0.615686 0.905882 0.611765 0.615686 0.905882 0.611765 
0.615686 0.905882 0.611765 0.615686 0.905882 0.611765 
0.615686 0.905882 0.611765 0.615686 0.905882 0.611765 
0.615686 0.905882 0.611765 0.615686 0.905882 0.611765 
0.615686 0.905882 0.611765 0.615686 0.905882 0.611765 
0.615686 0.905882 0.611765 0.615686 0.905882 0.611765 
0.615686 0.905882 0.611765 0.615686 0.905882 0.611765 
0.615686 0.905882 0.611765 0.615686 0.905882 0.611765 
0.615686 0.905882 0.611765 0.615686 0.905882 0.611765 
0.615686 0.905882 0.611765 0.615686 0.905882 0.611765 
0.615686 0.905882 0.611765 0.615686 0.905882 0.611765 
0.615686 0.905882 0.611765 0.615686 0.905882 0.611765 
0.615686 0.905882 0.611765 0.615686 0.905882 0.611765 
0.615686 0.905882 0.611765 0.615686 0.905882 0.611765 
0.615686 0.905882 0.611765 0.615686 0.905882 0.611765 
0.615686 0.905882 0.611765 0.615686 0.905882 0.611765 
0.615686 0.905882 0.611765 0.615686 0.905882 0.611765 
0.615686 0.905882 0.611765 0.615686 0.905882 0.611765 
0.615686 0.905882 0.611765 0.615686 0.905882 0.611765 
0.615686 0.905882 0.611765 0.615686 0.905882 0.611765 
0.615686 0.905882 0.611765 0.615686 0.905882 0.611765 
0.615686 0.905882 0.611765 0.615686 0.905882 0.611765 
0.615686 0.905882 0.611765 0.615686 0.905882 0.611765 
0.615686 0.905882 0.611765 0.615686 0.905882 0.611765 
0.615686 0.905882 0.611765 0.615686 0.905882 0.611765 
0.615686 0.905882 0.611765 0.615686 0.905882 0.611765 
0.615686 0.905882 0.611765 0.615686 0.905882 0.611765 
0.615686 0.905882 0.611765 0.615686 0.905882 0.611765 
0.615686 0.905882 0.611765 0.615686 0.905882 0.611765 
0.615686 0.905882 0.611765 0.615686 0.905882 0.611765 
0.615686 0.905882 0.611765 0.615686 0.905882 0.611765 
0.615686 0.905882 0.611765 0.615686 0.905882 0.611765 
0.615686 0.905882 0.611765 0.615686 0.905882 0.611765 
0.615686 0.905882 0.611765 0.615686 0.905882 0.611765 
0.615686 0.905882 0.611765 0.615686 0.905882 0.611765 
0.615686 0.905882 0.611765 0.615686 0.905882 0.611765 
0.615686 0.905882 0.611765 0.615686 0.905882 0.611765 
0.615686 0.905882 0.611765 0.615686 0.905882 0.611765 
0.615686 0.905882 0.611765 0.615686 0.905882 0.611765 
0.615686 0.905882 0.611765 0.615686 0.905882 0.611765 
0.615686 0.905882 0.611765 0.615686 0.905882 0.611765 
0.615686 0.905882 0.611765 0.615686 0.905882 0.611765 
0.615686 0.905882 0.611765 0.615686 0.905882 0.611765 
0.615686 0.905882 0.611765 0.615686 0.905882 0.611765 
0.615686 0.905882 0.611765 0.615686 0.905882 0.611765 
0.615686 0.905882 0.611765 0.615686 0.905882 0.611765 
0.615686 0.905882 0.611765 0.615686 0.905882 0.611765 
0.615686 0.905882 0.611765 0.615686 0.905882 0.611765 
0.615686 0.905882 0.611765 0.615686 0.905882 0.611765 
0.615686 0.905882 0.611765 0.615686 0.905882 0.611765 
0.615686 0.905882 0.611765 0.615686 0.905882 0.611765 
0.615686 0.905882 0.611765 0.615686 0.905882 0.611765 
0.615686 0.905882 0.611765 0.615686 0.905882 0.611765 
0.615686 0.905882 0.611765 0.615686 0.905882 0.611765 
0.615686 0.905882 0.611765 0.615686 0.905882 0.611765 
0.615686 0.905882 0.611765 0.615686 0.905882 0.611765 
0.615686 0.905882 0.611765 0.615686 0.905882 0.611765 
0.615686 0.905882 0.611765 0.615686 0.905882 0.611765 
0.615686 0.905882 0.611765 0.615686 0.905882 0.611765 
0.615686 0.905882 0.611765 0.615686 0.905882 0.611765 
0.615686 0.905882 0.611765 0.615686 0.905882 0.611765 
0.615686 0.905882 0.611765 0.615686 0.905882 0.611765 
0.615686 0.905882 0.611765 0.615686 0.905882 0.611765 
0.615686 0.905882 0.611765 0.615686 0.905882 0.611765 
0.615686 0.905882 0.611765 0.615686 0.905882 0.611765 
0.615686 0.905882 0.611765 0.615686 0.905882 0.611765 
0.615686 0.905882 0.611765 0.615686 0.905882 0.611765 
0.615686 0.905882 0.611765 0.615686 0.905882 0.611765 
0.615686 0.905882 0.611765 0.615686 0.905882 0.611765 
0.615686 0.905882 0.611765 0.615686 0.905882 0.611765 
0.615686 0.905882 0.611765 0.615686 0.905882 0.611765 
0.615686 0.905882 0.611765 0.615686 0.905882 0.611765 
0.615686 0.905882 0.611765 0.615686 0.905882 0.611765 
0.615686 0.905882 0.611765 0.615686 0.905882 0.611765 
0.615686 0.905882 0.611765 0.615686 0.905882 0.611765 
0.615686 0.905882 0.611765 0.615686 0.905882 0.611765 
0.615686 0.905882 0.611765 0.615686 0.905882 0.611765 
0.615686 0.905882 0.611765 0.615686 0.905882 0.611765 
0.615686 0.905882 0.611765 0.615686 0.905882 0.611765 
0.615686 0.905882 0.611765 0.615686 0.905882 0.611765 
0.615686 0.905882 0.611765 0.615686 0.905882 0.611765 
0.615686 0.905882 0.611765 0.615686 0.905882 0.611765 
0.615686 0.905882 0.611765 0.615686 0.905882 0.611765 
0.615686 0.905882 0.611765 0.615686 0.905882 0.611765 
0.615686 0.905882 0.611765 0.615686 0.905882 0.611765 
0.615686 0.905882 0.611765 0.615686 0.905882 0.611765 
0.615686 0.905882 0.611765 0.615686 0.905882 0.611765 
0.615686 0.905882 0.611765 0.615686 0.905882 0.611765 
0.615686 0.905882 0.611765 0.615686 0.905882 0.611765 
0.615686 0.905882 0.611765 0.615686 0.905882 0.611765 
0.615686 0.905882 0.611765 0.615686 0.905882 0.611765 
0.615686 0.905882 0.611765 0.615686 0.905882 0.611765 
0.615686 0.905882 0.611765 0.615686 0.905882 0.611765 
0.615686 0.905882 0.611765 0.615686 0.905882 0.611765 
0.615686 0.905882 0.611765 0.615686 0.905882 0.611765 
0.615686 0.905882 0.611765 0.615686 0.905882 0.611765 
0.615686 0.905882 0.611765 0.615686 0.905882 0.611765 
0.615686 0.905882 0.611765 0.615686 0.905882 0.611765 
0.615686 0.905882 0.611765 0.615686 0.905882 0.611765 
0.615686 0.905882 0.611765 0.615686 0.905882 0.611765 
0.615686 0.905882 0.611765 0.615686 0.905882 0.611765 
0.615686 0.905882 0.611765 0.615686 0.905882 0.611765 
0.615686 0.905882 0.611765 0.615686 0.905882 0.611765 
0.615686 0.905882 0.611765 0.615686 0.905882 0.611765 
0.615686 0.905882 0.611765 0.615686 0.905882 0.611765 
0.615686 0.905882 0.611765 0.615686 0.905882 0.611765 
0.615686 0.905882 0.611765 0.615686 0.905882 0.611765 
0.615686 0.905882 0.611765 0.615686 0.905882 0.611765 
0.615686 0.905882 0.611765 0.615686 0.905882 0.611765 
0.615686 0.905882 0.611765 0.615686 0.905882 0.611765 
0.615686 0.905882 0.611765 0.615686 0.905882 0.611765 
0.615686 0.905882 0.611765 0.615686 0.905882 0.611765 
0.615686 0.905882 0.611765 0.615686 0.905882 0.611765 
0.615686 0.905882 0.611765 0.615686 0.905882 0.611765 
0.615686 0.905882 0.611765 0.615686 0.905882 0.611765 
0.615686 0.905882 0.611765 0.615686 0.905882 0.611765 
0.615686 0.905882 0.611765 0.615686 0.905882 0.611765 
0.615686 0.905882 0.611765 0.615686 0.905882 0.611765 
0.615686 0.905882 0.611765 0.615686 0.905882 0.611765 
0.615686 0.905882 0.611765 0.615686 0.905882 0.611765 
0.615686 0.905882 0.611765 0.615686 0.905882 0.611765 
0.615686 0.905882 0.611765 0.615686 0.905882 0.611765 
0.615686 0.905882 0.611765 0.615686 0.905882 0.611765 
0.615686 0.905882 0.611765 0.615686 0.905882 0.611765 
0.615686 0.905882 0.611765 0.615686 0.905882 0.611765 
0.615686 0.905882 0.611765 0.615686 0.905882 0.611765 
0.615686 0.905882 0.611765 0.615686 0.905882 0.611765 
0.615686 0.905882 0.611765 0.615686 0.905882 0.611765 
0.615686 0.905882 0.611765 0.615686 0.905882 0.611765 
0.615686 0.905882 0.611765 0.615686 0.905882 0.611765 
0.615686 0.905882 0.611765 0.615686 0.905882 0.611765 
0.615686 0.905882 0.611765 0.615686 0.905882 0.611765 
0.615686 0.905882 0.611765 0.615686 0.905882 0.611765 
0.615686 0.905882 0.611765 0.615686 0.905882 0.611765 
0.615686 0.905882 0.611765 0.615686 0.905882 0.611765 
0.615686 0.905882 0.611765 0.615686 0.905882 0.611765 
0.615686 0.905882 0.611765 0.615686 0.905882 0.611765 
0.615686 0.905882 0.611765 0.615686 0.905882 0.611765 
0.615686 0.905882 0.611765 0.615686 0.905882 0.611765 
0.615686 0.905882 0.611765 0.615686 0.905882 0.611765 
0.615686 0.905882 0.611765 0.615686 0.905882 0.611765 
0.615686 0.905882 0.611765 0.615686 0.905882 0.611765 
0.615686 0.905882 0.611765 0.615686 0.905882 0.611765 
0.615686 0.905882 0.611765 0.615686 0.905882 0.611765 
0.615686 0.905882 0.611765 0.615686 0.905882 0.611765 
0.615686 0.905882 0.611765 0.615686 0.905882 0.611765 
0.615686 0.905882 0.611765 0.615686 0.905882 0.611765 
0.615686 0.905882 0.611765 0.615686 0.905882 0.611765 
0.615686 0.905882 0.611765 0.615686 0.905882 0.611765 
0.615686 0.905882 0.611765 0.615686 0.905882 0.611765 
0.615686 0.905882 0.611765 0.615686 0.905882 0.611765 
0.615686 0.905882 0.611765 0.615686 0.905882 0.611765 
0.615686 0.905882 0.611765 0.615686 0.905882 0.611765 
0.615686 0.905882 0.611765 0.615686 0.905882 0.611765 
0.615686 0.905882 0.611765 0.615686 0.905882 0.611765 
0.615686 0.905882 0.611765 0.615686 0.905882 0.611765 
0.615686 0.905882 0.611765 0.615686 0.905882 0.611765 
0.615686 0.905882 0.611765 0.615686 0.905882 0.611765 
0.615686 0.905882 0.611765 0.615686 0.905882 0.611765 
0.615686 0.905882 0.611765 0.615686 0.905882 0.611765 
0.615686 0.905882 0.611765 0.615686 0.905882 0.611765 
0.615686 0.905882 0.611765 0.615686 0.905882 0.611765 
0.615686 0.905882 0.611765 0.615686 0.905882 0.611765 
0.615686 0.905882 0.611765 0.615686 0.905882 0.611765 
0.615686 0.905882 0.611765 0.615686 0.905882 0.611765 
0.615686 0.905882 0.611765 0.615686 0.905882 0.611765 
0.615686 0.905882 0.611765 0.615686 0.905882 0.611765 
0.615686 0.905882 0.611765 0.615686 0.905882 0.611765 
0.615686 0.905882 0.611765 0.615686 0.905882 0.611765 
0.615686 0.905882 0.611765 0.615686 0.905882 0.611765 
0.615686 0.905882 0.611765 0.615686 0.905882 0.611765 
0.615686 0.905882 0.611765 0.615686 0.905882 0.611765 
0.615686 0.905882 0.611765 0.615686 0.905882 0.611765 
0.615686 0.905882 0.611765 0.615686 0.905882 0.611765 
0.615686 0.905882 0.611765 0.615686 0.905882 0.611765 
0.615686 0.905882 0.611765 0.615686 0.905882 0.611765 
0.615686 0.905882 0.611765 0.615686 0.905882 0.611765 
0.615686 0.905882 0.611765 0.615686 0.905882 0.611765 
0.615686 0.905882 0.611765 0.615686 0.905882 0.611765 
0.615686 0.905882 0.611765 0.615686 0.905882 0.611765 
0.615686 0.905882 0.611765 0.615686 0.905882 0.611765 
0.615686 0.905882 0.611765 0.615686 0.905882 0.611765 
0.615686 0.905882 0.611765 0.615686 0.905882 0.611765 
0.615686 0.905882 0.611765 0.615686 0.905882 0.611765 
0.615686 0.905882 0.611765 0.615686 0.905882 0.611765 
0.615686 0.905882 0.611765 0.615686 0.905882 0.611765 
0.615686 0.905882 0.611765 0.615686 0.905882 0.611765 
0.615686 0.905882 0.611765 0.615686 0.905882 0.611765 
0.615686 0.905882 0.611765 0.615686 0.905882 0.611765 
0.615686 0.905882 0.611765 0.615686 0.905882 0.611765 
0.615686 0.905882 0.611765 0.615686 0.905882 0.611765 