# vtk DataFile Version 4.2
vtk output
ASCII
DATASET POLYDATA
POINTS 845 float
273.207 218.958 89.0655 272.434 219.469 89.4791 274.215 218.913 88.7652 
274.737 219.584 88.5743 274.508 220.758 88.5595 272.947 222.079 89.5014 
273.439 222.399 89.17 274.942 222.016 88.6586 273.856 222.847 89.0851 
274.408 222.836 88.9345 273.744 223.255 89.2995 272.764 217.089 90.1832 
272.141 217.463 90.481 278.095 217.397 89.6725 272.195 218.62 89.9067 
279.615 218.287 89.52 272.134 219.102 89.6744 272.062 218.993 89.7627 
272.046 219.135 89.7208 280.183 219.931 89.2352 276.602 221.029 88.6777 
272.25 221.352 90.3363 272.9 222.773 89.992 274.588 225.054 89.9277 
272.631 216.811 90.5088 272.316 216.847 90.8573 275.849 216.6 90.0585 
277.198 216.574 90.1458 280.87 217.288 90.4944 271.983 217.96 90.3843 
272.019 219.144 89.9001 271.779 219.025 90.6055 282.98 218.572 90.4359 
273.611 215.891 91.3073 275.175 215.753 91.1497 275.79 215.431 91.7706 
276.689 215.458 91.7283 277.905 215.989 90.9801 271.66 217.941 91.0159 
271.57 218.231 91.3663 286.13 218.14 91.897 271.489 218.889 91.2083 
271.542 218.782 91.1076 287.894 219.312 91.8859 271.561 219.048 91.0791 
271.66 219.551 91.2282 286.853 220.228 91.2267 271.895 221.273 91.7306 
272.459 222.878 91.1024 276.148 227.35 91.0069 277.615 227.736 91.0194 
279.099 227.341 90.8995 274.724 215.267 92.5417 280.468 215.678 92.1164 
282.872 216.17 92.5846 271.649 217.217 91.9536 271.524 218.041 92.2111 
271.512 219.003 91.3472 290.233 219.906 92.504 290.132 222.818 92.1422 
274.876 228.017 92.2679 275.984 230.856 92.9194 276.263 215.05 93.1934 
281.548 215.514 93.1389 290.461 218.883 93.2309 293.113 219.352 93.7765 
293.451 219.715 93.6481 295.905 221.181 93.7281 294.282 222 93.2894 
283.897 228.252 92.2833 275.212 229.618 92.9727 277.784 233.15 93.2682 
272.545 215.878 94.2021 275.203 215.066 93.9967 277.915 215.013 93.8789 
278.849 215.073 93.8398 271.837 216.647 93.4348 271.698 216.936 93.0543 
283.626 215.929 94.0478 290.031 217.787 94.2228 290.949 218.056 94.2581 
271.86 220.866 94.0625 278.176 234.611 93.842 274.945 236.566 95.3842 
275.029 237.451 95.7403 276.071 236.927 94.9057 276.426 236.621 94.701 
275.587 237.615 95.435 275.932 237.954 95.4848 274.234 215.284 94.7533 
282.585 215.587 94.9979 290.444 217.368 95.219 301.206 220.503 95.3196 
272.214 221.721 95.4167 301.41 222.515 95.2032 302.849 222.279 95.6038 
289.49 229.57 94.7817 280.068 236.465 95.0615 274.534 237.355 96.0923 
274.244 237.04 96.2839 278.308 237.219 94.9786 276.187 238.832 96.1259 
272.561 216.081 95.1548 272.874 215.895 95.245 275.706 215.21 95.4478 
282.41 215.594 95.4249 290.901 217.172 96.0194 299.897 218.708 96.1615 
303.664 219.525 96.5178 304.696 220.373 96.7305 273.666 228.697 95.3216 
274.788 238.406 96.8278 273.892 215.799 95.9805 279.12 215.322 96.0053 
276.173 215.675 96.8124 291.109 217.025 96.9249 298.531 218.129 96.5428 
300.495 218.287 96.7765 302.023 218.074 97.5441 303.142 218.673 97.1273 
303.561 218.5 97.6119 305.144 219.98 97.3927 305.301 224.688 97.7266 
273.25 227.85 97.098 272.937 234.26 97.5032 273.367 236.239 97.3801 
282.673 237.883 96.6791 278.529 239.822 97.0376 275.064 216.226 97.3383 
289.85 216.938 97.9633 294.323 217.096 97.6397 304.487 218.905 97.8268 
304.664 218.794 98.2129 306.268 222.986 98.4145 293.912 232.036 97.5582 
272.893 217.453 96.9028 276.294 216.896 98.5879 291.94 217.002 99.0507 
299.507 217.164 98.6339 303.053 217.54 99.3154 304.885 218.857 98.4669 
304.611 218.594 98.6499 305.854 219.936 98.6385 273.095 220.613 98.0577 
273.39 225.333 98.683 305.833 226.921 99.4622 305.525 227.792 99.6983 
295.158 232.613 98.4207 272.549 236.133 99.1753 290.365 217.253 99.7836 
301.663 217.055 100.127 275.734 218.037 99.4345 280.051 217.741 99.8361 
289.048 217.622 100.295 291.058 217.417 100.593 273.452 219.938 98.557 
307.106 222.339 100.275 307.179 223.127 100.262 272.957 227.11 99.9217 
305.333 228.538 100.087 303.807 230.015 100.433 291.21 237.003 99.9619 
288.302 239.445 100.466 275.245 240.281 100.28 285.4 241.33 100.574 
294.026 217.144 101.278 298.847 216.651 100.785 307.181 221.803 101.531 
274.509 223.291 100.923 273.343 226.016 100.834 271.808 228.211 101.304 
271.111 229.338 101.592 271.036 230.048 101.466 305.08 229.106 100.747 
299.533 232.782 101.49 292.832 236.487 100.808 284.22 242.402 101.551 
274.894 220.834 100.346 306.609 220.592 101.668 307.382 225.733 101.879 
271.251 227.929 102.649 274.834 240.895 102.069 287.255 240.622 101.494 
284.445 242.547 102.151 282.797 243.512 102.709 282.839 243.636 103.077 
300.108 216.538 102.012 300.251 216.556 102.368 277.076 222.588 102.879 
307.635 224.797 102.973 270.451 228.653 103.24 270.572 228.325 103.478 
274.817 241.65 103.055 285.02 242.382 103.138 275.242 250.531 104.31 
275.569 250.147 104.364 274.437 250.912 104.325 274.299 250.755 104.325 
275.122 250.852 104.429 275.48 250.767 104.54 275.783 250.548 104.6 
274.289 251.147 104.463 274.001 251.177 104.596 274.444 251.252 104.561 
275.244 250.957 104.648 274.141 251.316 104.668 299.962 216.626 102.571 
302.52 217.403 103.411 305.063 219.195 103.538 285.014 221.463 104.029 
275.894 223.615 102.969 274.693 224.918 103.276 272.823 226.501 104.111 
271.142 227.683 103.568 270.221 228.748 104.188 306.315 227.84 103.58 
269.898 229.923 104.315 305.532 228.775 103.863 288.376 240.012 103.808 
273.071 240.818 103.602 281.43 244.146 104.015 276.706 248.177 104.565 
277.572 247.709 104.821 273.981 249.176 104.707 275.16 249.251 104.361 
276.072 249.54 104.518 277.13 249.062 104.991 277.554 248.719 105.18 
273.563 250.51 104.776 273.757 251.013 104.709 274.577 251.285 105.039 
274.023 251.404 104.932 299.938 217.109 103.964 305.155 228.778 104.967 
269.829 230.17 104.922 292.078 237.565 104.563 271.17 239.636 104.948 
288.053 239.973 105.009 272.714 243.226 105.306 277.515 243.586 103.782 
276.452 244.076 104.138 283.93 243.079 105.211 274.143 245.179 104.937 
275.996 246.749 104.575 278.379 246.934 105.065 278.791 246.399 105.118 
279.203 246.745 105.415 273.098 247.845 105.514 278.046 247.585 105.104 
278.997 247.015 105.597 279.218 246.744 105.48 278.353 247.801 105.708 
277.864 248.458 105.419 272.988 250.594 105.733 275.262 250.965 105.37 
273.976 251.417 105.188 274.782 251.136 105.466 273.473 251.173 105.244 
273.738 251.354 105.19 301.252 217.635 104.874 297.198 218.208 105.749 
304.745 219.897 105.345 305.577 221.402 105.936 307.183 224.074 104.634 
307.099 225.654 104.722 270.384 228.56 104.847 272.503 227.483 105.619 
270.553 228.718 105.537 271.564 228.153 105.839 270.344 229.097 105.639 
270.054 229.603 105.383 295.688 234.992 105.748 269.785 235.797 105.383 
278.87 243.921 103.877 278.599 245.166 104.598 279.366 244.951 104.63 
280.199 244.659 104.582 279.388 246.362 105.579 279.27 246.641 105.452 
281.006 245.116 106.194 276.62 249.845 105.831 272.912 250.693 106.219 
273.208 251.02 106.037 273.701 251.155 105.96 273.799 251.341 105.453 
305.645 226.715 106.458 270.708 229.304 106.436 271.609 229.017 106.882 
273.163 228.601 107.237 270.401 229.913 106.633 300.798 231.19 106.489 
269.188 233.646 106.431 269.097 234.299 106.625 271.96 244.514 106.517 
281.453 244.816 106.559 272.782 250.314 106.889 274.522 250.668 106.712 
272.804 250.712 106.557 272.786 250.683 106.673 272.818 250.793 106.576 
272.94 250.859 106.41 297.477 219.112 106.932 300.385 219.032 106.983 
302.009 219.361 106.974 302.963 219.985 107.094 304.626 221.864 107.295 
302.182 229.224 107.66 269.408 232.021 107.019 269.341 232.266 107.459 
268.823 233.575 108.15 269.127 233.108 106.854 270.529 241.867 107.396 
271.381 244.58 107.69 280.583 245.342 108.2 278.809 247.075 108.083 
272.714 249.57 107.568 272.685 250.045 107.356 272.701 250.061 107.443 
272.916 250.743 106.644 272.757 250.166 107.313 273.187 250.631 106.869 
272.983 250.279 107.26 301.329 220.847 108.316 304.416 223.441 108.066 
303.973 224.41 108.563 284.169 227.349 109.052 269.167 232.975 108.272 
269.654 232.516 108.438 298.435 231.174 108.713 268.877 233.538 108.582 
268.67 233.826 108.63 268.612 234.063 108.716 268.585 234.35 108.694 
268.604 235.07 109.017 293.2 235.309 108.597 269.76 241.049 108.581 
270.376 242.347 108.331 271.44 245.205 108.373 278.167 247.307 108.519 
271 250.009 109.017 271 250.009 109.017 271 250.009 109.017 
271 250.009 109.017 273.172 248.952 108.458 273.119 249.434 108.027 
272.847 249.956 107.546 271 250.009 109.017 298.829 222.402 109.529 
302.787 223.802 109.134 296.418 223.507 109.891 290.366 225.186 109.382 
299.451 228.768 109.674 268.749 233.928 108.821 268.653 234.316 108.887 
268.507 235.679 109.612 268.998 234.84 109.549 268.485 236.361 109.835 
268.7 237.633 110.027 269.354 240.375 109.425 269.589 240.909 109.213 
283.016 241.362 109.825 270.279 242.359 108.988 271.445 245.073 109.328 
279.313 245.584 109.638 272.098 246.409 109.134 272.749 247.394 109.26 
275.771 247.679 109.505 273.628 248.118 109.298 271 250.009 109.018 
300.758 223.487 109.719 295.156 225.157 110.424 300.931 224.816 109.856 
299.032 225.923 110.47 296.078 226.229 110.808 298.486 227.21 110.547 
285.403 230.519 111.047 294.914 230.976 110.724 295.94 231.7 109.913 
273.377 234.508 111.123 268.83 237.055 110.335 268.899 237.548 110.583 
268.836 237.727 110.562 268.769 237.566 110.412 268.998 238.395 110.478 
283.975 239.552 110.41 269.121 239.642 110.098 270.028 241.6 109.992 
270.3 242.309 109.657 270.701 243.004 109.94 278.748 244.53 110.91 
271.737 245.53 109.518 274.562 246.953 110.32 273.907 246.943 110.32 
273.04 247.008 109.898 273.307 247.546 109.619 293.131 231.026 111.283 
289.976 231.105 111.656 291.852 231.97 111.446 291.888 232.549 111.247 
286.174 233.034 111.754 283.335 234.115 111.845 286.556 235.382 111.464 
269.057 237.927 110.709 269.771 237.859 111.129 269.297 239.018 110.737 
283.202 238.321 111.394 280.715 241.657 111.333 271 242.927 110.547 
273.17 246.561 110.33 284.145 235.052 111.863 279.882 240.63 112.008 
271.658 243.029 111.095 273.551 241.845 112.393 273.946 244.241 111.729 
[...]
POINT_DATA 845
COLOR_SCALARS scalars 3
0.615686 0.905882 0.611765 0.615686 0.905882 0.611765 0.615686 0.905882 0.611765 
0.615686 0.905882 0.611765 0.615686 0.905882 0.611765 
0.615686 0.905882 0.611765 0.615686 0.905882 0.611765 
0.615686 0.905882 0.611765 0.615686 0.905882 0.611765 
0.615686 0.905882 0.611765 0.615686 0.905882 0.611765 
0.615686 0.905882 0.611765 0.615686 0.905882 0.611765 
0.615686 0.905882 0.611765 0.615686 0.905882 0.611765 
0.615686 0.905882 0.611765 0.615686 0.905882 0.611765 
0.615686 0.905882 0.611765 0.615686 0.905882 0.611765 
0.615686 0.905882 0.611765 0.615686 0.905882 0.611765 
0.615686 0.905882 0.611765 0.615686 0.905882 0.611765 
0.615686 0.905882 0.611765 0.615686 0.905882 0.611765 
0.615686 0.905882 0.611765 0.615686 0.905882 0.611765 
0.615686 0.905882 0.611765 0.615686 0.905882 0.611765 
0.615686 0.905882 0.611765 0.615686 0.905882 0.611765 
0.615686 0.905882 0.611765 0.615686 0.905882 0.611765 
0.615686 0.905882 0.611765 0.615686 0.905882 0.611765 
0.615686 0.905882 0.611765 0.615686 0.905882 0.611765 
0.615686 0.905882 0.611765 0.615686 0.905882 0.611765 
0.615686 0.905882 0.611765 0.615686 0.905882 0.611765 
0.615686 0.905882 0.611765 0.615686 0.905882 0.611765 
0.615686 0.905882 0.611765 0.615686 0.905882 0.611765 
0.615686 0.905882 0.611765 0.615686 0.905882 0.611765 
0.615686 0.905882 0.611765 0.615686 0.905882 0.611765 
0.615686 0.905882 0.611765 0.615686 0.905882 0.611765 
0.615686 0.905882 0.611765 0.615686 0.905882 0.611765 
0.615686 0.905882 0.611765 0.615686 0.905882 0.611765 
0.615686 0.905882 0.611765 0.615686 0.905882 0.611765 
0.615686 0.905882 0.611765 0.615686 0.905882 0.611765 
0.615686 0.905882 0.611765 0.615686 0.905882 0.611765 
0.615686 0.905882 0.611765 0.615686 0.905882 0.611765 
0.615686 0.905882 0.611765 0.615686 0.905882 0.611765 
0.615686 0.905882 0.611765 0.615686 0.905882 0.611765 
0.615686 0.905882 0.611765 0.615686 0.905882 0.611765 
0.615686 0.905882 0.611765 0.615686 0.905882 0.611765 
0.615686 0.905882 0.611765 0.615686 0.905882 0.611765 
0.615686 0.905882 0.611765 0.615686 0.905882 0.611765 
0.615686 0.905882 0.611765 0.615686 0.905882 0.611765 
0.615686 0.905882 0.611765 0.615686 0.905882 0.611765 
0.615686 0.905882 0.611765 0.615686 0.905882 0.611765 
0.615686 0.905882 0.611765 0.615686 0.905882 0.611765 
0.615686 0.905882 0.611765 0.615686 0.905882 0.611765 
0.615686 0.905882 0.611765 0.615686 0.905882 0.611765 
0.615686 0.905882 0.611765 0.615686 0.905882 0.611765 
0.615686 0.905882 0.611765 0.615686 0.905882 0.611765 
0.615686 0.905882 0.611765 0.615686 0.905882 0.611765 
0.615686 0.905882 0.611765 0.615686 0.905882 0.611765 
0.615686 0.905882 0.611765 0.615686 0.905882 0.611765 
0.615686 0.905882 0.611765 0.615686 0.905882 0.611765 
0.615686 0.905882 0.611765 0.615686 0.905882 0.611765 
0.615686 0.905882 0.611765 0.615686 0.905882 0.611765 
0.615686 0.905882 0.611765 0.615686 0.905882 0.611765 
0.615686 0.905882 0.611765 0.615686 0.905882 0.611765 
0.615686 0.905882 0.611765 0.615686 0.905882 0.611765 
0.615686 0.905882 0.611765 0.615686 0.905882 0.611765 
0.615686 0.905882 0.611765 0.615686 0.905882 0.611765 
0.615686 0.905882 0.611765 0.615686 0.905882 0.611765 
0.615686 0.905882 0.611765 0.615686 0.905882 0.611765 
0.615686 0.905882 0.611765 0.615686 0.905882 0.611765 
0.615686 0.905882 0.611765 0.615686 0.905882 0.611765 
0.615686 0.905882 0.611765 0.615686 0.905882 0.611765 
0.615686 0.905882 0.611765 0.615686 0.905882 0.611765 
0.615686 0.905882 0.611765 0.615686 0.905882 0.611765 
0.615686 0.905882 0.611765 0.615686 0.905882 0.611765 
0.615686 0.905882 0.611765 0.615686 0.905882 0.611765 
0.615686 0.905882 0.611765 0.615686 0.905882 0.611765 
0.615686 0.905882 0.611765 0.615686 0.905882 0.611765 
0.615686 0.905882 0.611765 0.615686 0.905882 0.611765 
0.615686 0.905882 0.611765 0.615686 0.905882 0.611765 
0.615686 0.905882 0.611765 0.615686 0.905882 0.611765 
0.615686 0.905882 0.611765 0.615686 0.905882 0.611765 
0.615686 0.905882 0.611765 0.615686 0.905882 0.611765 
0.615686 0.905882 0.611765 0.615686 0.905882 0.611765 
0.615686 0.905882 0.611765 0.615686 0.905882 0.611765 
0.615686 0.905882 0.611765 0.615686 0.905882 0.611765 
0.615686 0.905882 0.611765 0.615686 0.905882 0.611765 
0.615686 0.905882 0.611765 0.615686 0.905882 0.611765 
0.615686 0.905882 0.611765 0.615686 0.905882 0.611765 
0.615686 0.905882 0.611765 0.615686 0.905882 0.611765 
0.615686 0.905882 0.611765 0.615686 0.905882 0.611765 
0.615686 0.905882 0.611765 0.615686 0.905882 0.611765 
0.615686 0.905882 0.611765 0.615686 0.905882 0.611765 
0.615686 0.905882 0.611765 0.615686 0.905882 0.611765 
0.615686 0.905882 0.611765 0.615686 0.905882 0.611765 
0.615686 0.905882 0.611765 0.615686 0.905882 0.611765 
0.615686 0.905882 0.611765 0.615686 0.905882 0.611765 
0.615686 0.905882 0.611765 0.615686 0.905882 0.611765 
0.615686 0.905882 0.611765 0.615686 0.905882 0.611765 
0.615686 0.905882 0.611765 0.615686 0.905882 0.611765 
0.615686 0.905882 0.611765 0.615686 0.905882 0.611765 
0.615686 0.905882 0.611765 0.615686 0.905882 0.611765 
0.615686 0.905882 0.611765 0.615686 0.905882 0.611765 
0.615686 0.905882 0.611765 0.615686 0.905882 0.611765 
0.615686 0.905882 0.611765 0.615686 0.905882 0.611765 
0.615686 0.905882 0.611765 0.615686 0.905882 0.611765 
0.615686 0.905882 0.611765 0.615686 0.905882 0.611765 
0.615686 0.905882 0.611765 0.615686 0.905882 0.611765 
0.615686 0.905882 0.611765 0.615686 0.905882 0.611765 
0.615686 0.905882 0.611765 0.615686 0.905882 0.611765 
0.615686 0.905882 0.611765 0.615686 0.905882 0.611765 
0.615686 0.905882 0.611765 0.615686 0.905882 0.611765 
0.615686 0.905882 0.611765 0.615686 0.905882 0.611765 
0.615686 0.905882 0.611765 0.615686 0.905882 0.611765 
0.615686 0.905882 0.611765 0.615686 0.905882 0.611765 
0.615686 0.905882 0.611765 0.615686 0.905882 0.611765 
0.615686 0.905882 0.611765 0.615686 0.905882 0.611765 
0.615686 0.905882 0.611765 0.615686 0.905882 0.611765 
0.615686 0.905882 0.611765 0.615686 0.905882 0.611765 
0.615686 0.905882 0.611765 0.615686 0.905882 0.611765 
0.615686 0.905882 0.611765 0.615686 0.905882 0.611765 
0.615686 0.905882 0.611765 0.615686 0.905882 0.611765 
0.615686 0.905882 0.611765 0.615686 0.905882 0.611765 
0.615686 0.905882 0.611765 0.615686 0.905882 0.611765 
0.615686 0.905882 0.611765 0.615686 0.905882 0.611765 
0.615686 0.905882 0.611765 0.615686 0.905882 0.611765 
0.615686 0.905882 0.611765 0.615686 0.905882 0.611765 
0.615686 0.905882 0.611765 0.615686 0.905882 0.611765 
0.615686 0.905882 0.611765 0.615686 0.905882 0.611765 
0.615686 0.905882 0.611765 0.615686 0.905882 0.611765 
0.615686 0.905882 0.611765 0.615686 0.905882 0.611765 
0.615686 0.905882 0.611765 0.615686 0.905882 0.611765 
0.615686 0.905882 0.611765 0.615686 0.905882 0.611765 
0.615686 0.905882 0.611765 0.615686 0.905882 0.611765 
0.615686 0.905882 0.611765 0.615686 0.905882 0.611765 
0.615686 0.905882 0.611765 0.615686 0.905882 0.611765 
0.615686 0.905882 0.611765 0.615686 0.905882 0.611765 
0.615686 0.905882 0.611765 0.615686 0.905882 0.611765 
0.615686 0.905882 0.611765 0.615686 0.905882 0.611765 
0.615686 0.905882 0.611765 0.615686 0.905882 0.611765 
0.615686 0.905882 0.611765 0.615686 0.905882 0.611765 
0.615686 0.905882 0.611765 0.615686 0.905882 0.611765 
0.615686 0.905882 0.611765 0.615686 0.905882 0.611765 
0.615686 0.905882 0.611765 0.615686 0.905882 0.611765 
0.615686 0.905882 0.611765 0.615686 0.905882 0.611765 
0.615686 0.905882 0.611765 0.615686 0.905882 0.611765 
0.615686 0.905882 0.611765 0.615686 0.905882 0.611765 
0.615686 0.905882 0.611765 0.615686 0.905882 0.611765 
0.615686 0.905882 0.611765 0.615686 0.905882 0.611765 
0.615686 0.905882 0.611765 0.615686 0.905882 0.611765 
0.615686 0.905882 0.611765 0.615686 0.905882 0.611765 
0.615686 0.905882 0.611765 0.615686 0.905882 0.611765 
0.615686 0.905882 0.611765 0.615686 0.905882 0.611765 
0.615686 0.905882 0.611765 0.615686 0.905882 0.611765 
0.615686 0.905882 0.611765 0.615686 0.905882 0.611765 
0.615686 0.905882 0.611765 0.615686 0.905882 0.611765 
0.615686 0.905882 0.611765 0.615686 0.905882 0.611765 
0.615686 0.905882 0.611765 0.615686 0.905882 0.611765 
0.615686 0.905882 0.611765 0.615686 0.905882 0.611765 
0.615686 0.905882 0.611765 0.615686 0.905882 0.611765 
0.615686 0.905882 0.611765 0.615686 0.905882 0.611765 
0.615686 0.905882 0.611765 0.615686 0.905882 0.611765 
0.615686 0.905882 0.611765 0.615686 0.905882 0.611765 
0.615686 0.905882 0.611765 0.615686 0.905882 0.611765 
0.615686 0.905882 0.611765 0.615686 0.905882 0.611765 
0.615686 0.905882 0.611765 0.615686 0.905882 0.611765 
0.615686 0.905882 0.611765 0.615686 0.905882 0.611765 
0.615686 0.905882 0.611765 0.615686 0.905882 0.611765 
0.615686 0.905882 0.611765 0.615686 0.905882 0.611765 
0.615686 0.905882 0.611765 0.615686 0.905882 0.611765 
0.615686 0.905882 0.611765 0.615686 0.905882 0.611765 
0.615686 0.905882 0.611765 0.615686 0.905882 0.611765 
0.615686 0.905882 0.611765 0.615686 0.905882 0.611765 
0.615686 0.905882 0.611765 0.615686 0.905882 0.611765 
0.615686 0.905882 0.611765 0.615686 0.905882 0.611765 
0.615686 0.905882 0.611765 0.615686 0.905882 0.611765 
0.615686 0.905882 0.611765 0.615686 0.905882 0.611765 
0.615686 0.905882 0.611765 0.615686 0.905882 0.611765 
0.615686 0.905882 0.611765 0.615686 0.905882 0.611765 
0.615686 0.905882 0.611765 0.615686 0.905882 0.611765 
0.615686 0.905882 0.611765 0.615686 0.905882 0.611765 
0.615686 0.905882 0.611765 0.615686 0.905882 0.611765 
0.615686 0.905882 0.611765 0.615686 0.905882 0.611765 
0.615686 0.905882 0.611765 0.615686 0.905882 0.611765 
0.615686 0.905882 0.611765 0.615686 0.905882 0.611765 
0.615686 0.905882 0.611765 0.615686 0.905882 0.611765 
0.615686 0.905882 0.611765 0.615686 0.905882 0.611765 
0.615686 0.905882 0.611765 0.615686 0.905882 0.611765 
0.615686 0.905882 0.611765 0.615686 0.905882 0.611765 
0.615686 0.905882 0.611765 0.615686 0.905882 0.611765 
0.615686 0.905882 0.611765 0.615686 0.905882 0.611765 
0.615686 0.905882 0.611765 0.615686 0.905882 0.611765 
0.615686 0.905882 0.611765 0.615686 0.905882 0.611765 
0.615686 0.905882 0.611765 0.615686 0.905882 0.611765 
0.615686 0.905882 0.611765 0.615686 0.905882 0.611765 
0.615686 0.905882 0.611765 0.615686 0.905882 0.611765 
0.615686 0.905882 0.611765 0.615686 0.905882 0.611765 
0.615686 0.905882 0.611765 0.615686 0.905882 0.611765 
0.615686 0.905882 0.611765 0.615686 0.905882 0.611765 
0.615686 0.905882 0.611765 0.615686 0.905882 0.611765 
0.615686 0.905882 0.611765 0.615686 0.905882 0.611765 
0.615686 0.905882 0.611765 0.615686 0.905882 0.611765 
0.615686 0.905882 0.611765 0.615686 0.905882 0.611765 
0.615686 0.905882 0.611765 0.615686 0.905882 0.611765 
0.615686 0.905882 0.611765 0.615686 0.905882 0.611765 
0.615686 0.905882 0.611765 0.615686 0.905882 0.611765 
0.615686 0.905882 0.611765 0.615686 0.905882 0.611765 
0.615686 0.905882 0.611765 0.615686 0.905882 0.611765 
0.615686 0.905882 0.611765 0.615686 0.905882 0.611765 
0.615686 0.905882 0.611765 0.615686 0.905882 0.611765 
0.615686 0.905882 0.611765 0.615686 0.905882 0.611765 
0.615686 0.905882 0.611765 0.615686 0.905882 0.611765 
0.615686 0.905882 0.611765 0.615686 0.905882 0.611765 
0.615686 0.905882 0.611765 0.615686 0.905882 0.611765 
0.615686 0.905882 0.611765 0.615686 0.905882 0.611765 
0.615686 0.905882 0.611765 0.615686 0.905882 0.611765 
0.615686 0.905882 0.611765 0.615686 0.905882 0.611765 
0.615686 0.905882 0.611765 0.615686 0.905882 0.611765 
0.615686 0.905882 0.611765 0.615686 0.905882 0.611765 
0.615686 0.905882 0.611765 0.615686 0.905882 0.611765 
0.615686 0.905882 0.611765 0.615686 0.905882 0.611765 
0.615686 0.905882 0.611765 0.615686 0.905882 0.611765 
0.615686 0.905882 0.611765 0.615686 0.905882 0.611765 
0.615686 0.905882 0.611765 0.615686 0.905882 0.611765 
0.615686 0.905882 0.611765 0.615686 0.905882 0.611765 
0.615686 0.905882 0.611765 0.615686 0.905882 0.611765 
0.615686 0.905882 0.611765 0.615686 0.905882 0.611765 
0.615686 0.905882 0.611765 0.615686 0.905882 0.611765 
0.615686 0.905882 0.611765 0.615686 0.905882 0.611765 
0.615686 0.905882 0.611765 0.615686 0.905882 0.611765 
0.615686 0.905882 0.611765 0.615686 0.905882 0.611765 
0.615686 0.905882 0.611765 0.615686 0.905882 0.611765 
0.615686 0.905882 0.611765 0.615686 0.905882 0.611765 
0.615686 0.905882 0.611765 0.615686 0.905882 0.611765 
0.615686 0.905882 0.611765 0.615686 0.905882 0.611765 
0.615686 0.905882 0.611765 0.615686 0.905882 0.611765 
0.615686 0.905882 0.611765 0.615686 0.905882 0.611765 
0.615686 0.905882 0.611765 0.615686 0.905882 0.611765 
0.615686 0.905882 0.611765 0.615686 0.905882 0.611765 
0.615686 0.905882 0.611765 0.615686 0.905882 0.611765 
0.615686 0.905882 0.611765 0.615686 0.905882 0.611765 
0.615686 0.905882 0.611765 0.615686 0.905882 0.611765 
0.615686 0.905882 0.611765 0.615686 0.905882 0.611765 
0.615686 0.905882 0.611765 0.615686 0.905882 0.611765 
0.615686 0.905882 0.611765 0.615686 0.905882 0.611765 
0.615686 0.905882 0.611765 0.615686 0.905882 0.611765 
0.615686 0.905882 0.611765 0.615686 0.905882 0.611765 
0.615686 0.905882 0.611765 0.615686 0.905882 0.611765 
0.615686 0.905882 0.611765 0.615686 0.905882 0.611765 
0.615686 0.905882 0.611765 0.615686 0.905882 0.611765 
0.615686 0.905882 0.611765 0.615686 0.905882 0.611765 
0.615686 0.905882 0.611765 0.615686 0.905882 0.611765 
0.615686 0.905882 0.611765 0.615686 0.905882 0.611765 
0.615686 0.905882 0.611765 0.615686 0.905882 0.611765 
0.615686 0.905882 0.611765 0.615686 0.905882 0.611765 
0.615686 0.905882 0.611765 0.615686 0.905882 0.611765 
0.615686 0.905882 0.611765 0.615686 0.905882 0.611765 
0.615686 0.905882 0.611765 0.615686 0.905882 0.611765 
0.615686 0.905882 0.611765 0.615686 0.905882 0.611765 
0.615686 0.905882 0.611765 0.615686 0.905882 0.611765 
0.615686 0.905882 0.611765 0.615686 0.905882 0.611765 
0.615686 0.905882 0.611765 0.615686 0.905882 0.611765 
0.615686 0.905882 0.611765 0.615686 0.905882 0.611765 
0.615686 0.905882 0.611765 0.615686 0.905882 0.611765 
0.615686 0.905882 0.611765 0.615686 0.905882 0.611765 
0.615686 0.905882 0.611765 0.615686 0.905882 0.611765 
0.615686 0.905882 0.611765 0.615686 0.905882 0.611765 
0.615686 0.905882 0.611765 0.615686 0.905882 0.611765 
0.615686 0.905882 0.611765 0.615686 0.905882 0.611765 
0.615686 0.905882 0.611765 0.615686 0.905882 0.611765 
0.615686 0.905882 0.611765 0.615686 0.905882 0.611765 
0.615686 0.905882 0.611765 0.615686 0.905882 0.611765 
0.615686 0.905882 0.611765 0.615686 0.905882 0.611765 
0.615686 0.905882 0.611765 0.615686 0.905882 0.611765 
0.615686 0.905882 0.611765 0.615686 0.905882 0.611765 
0.615686 0.905882 0.611765 0.615686 0.905882 0.611765 
0.615686 0.905882 0.611765 0.615686 0.905882 0.611765 
0.615686 0.905882 0.611765 0.615686 0.905882 0.611765 
0.615686 0.905882 0.611765 0.615686 0.905882 0.611765 
0.615686 0.905882 0.611765 0.615686 0.905882 0.611765 
0.615686 0.905882 0.611765 0.615686 0.905882 0.611765 
0.615686 0.905882 0.611765 0.615686 0.905882 0.611765 
0.615686 0.905882 0.611765 0.615686 0.905882 0.611765 
0.615686 0.905882 0.611765 0.615686 0.905882 0.611765 
0.615686 0.905882 0.611765 0.615686 0.905882 0.611765 
0.615686 0.905882 0.611765 0.615686 0.905882 0.611765 
0.615686 0.905882 0.611765 0.615686 0.905882 0.611765 
0.615686 0.905882 0.611765 0.615686 0.905882 0.611765 
0.615686 0.905882 0.611765 0.615686 0.905882 0.611765 
0.615686 0.905882 0.611765 0.615686 0.905882 0.611765 
0.615686 0.905882 0.611765 0.615686 0.905882 0.611765 
0.615686 0.905882 0.611765 0.615686 0.905882 0.611765 
0.615686 0.905882 0.611765 0.615686 0.905882 0.611765 
0.615686 0.905882 0.611765 0.615686 0.905882 0.611765 
0.615686 0.905882 0.611765 0.615686 0.905882 0.611765 
0.615686 0.905882 0.611765 0.615686 0.905882 0.611765 
0.615686 0.905882 0.611765 0.615686 0.905882 0.611765 
0.615686 0.905882 0.611765 0.615686 0.905882 0.611765 
0.615686 0.905882 0.611765 0.615686 0.905882 0.611765 
0.615686 0.905882 0.611765 0.615686 0.905882 0.611765 
0.615686 0.905882 0.611765 0.615686 0.905882 0.611765 
0.615686 0.905882 0.611765 0.615686 0.905882 0.611765 
0.615686 0.905882 0.611765 0.615686 0.905882 0.611765 
0.615686 0.905882 0.611765 0.615686 0.905882 0.611765 
0.615686 0.905882 0.611765 0.615686 0.905882 0.611765 
0.615686 0.905882 0.611765 0.615686 0.905882 0.611765 
0.615686 0.905882 0.611765 0.615686 0.905882 0.611765 
0.615686 0.905882 0.611765 0.615686 0.905882 0.611765 
0.615686 0.905882 0.611765 0.615686 0.905882 0.611765 
0.615686 0.905882 0.611765 0.615686 0.905882 0.611765 
0.615686 0.905882 0.611765 0.615686 0.905882 0.611765 
0.615686 0.905882 0.611765 0.615686 0.905882 0.611765 
0.615686 0.905882 0.611765 0.615686 0.905882 0.611765 
0.615686 0.905882 0.611765 0.615686 0.905882 0.611765 
0.615686 0.905882 0.611765 0.615686 0.905882 0.611765 
0.615686 0.905882 0.611765 0.615686 0.905882 0.611765 
0.615686 0.905882 0.611765 0.615686 0.905882 0.611765 
0.615686 0.905882 0.611765 0.615686 0.905882 0.611765 
0.615686 0.905882 0.611765 0.615686 0.905882 0.611765 
0.615686 0.905882 0.611765 0.615686 0.905882 0.611765 
0.615686 0.905882 0.611765 0.615686 0.905882 0.611765 
0.615686 0.905882 0.611765 0.615686 0.905882 0.611765 
0.615686 0.905882 0.611765 0.615686 0.905882 0.611765 
0.615686 0.905882 0.611765 0.615686 0.905882 0.611765 
0.615686 0.905882 0.611765 0.615686 0.905882 0.611765 
0.615686 0.905882 0.611765 0.615686 0.905882 0.611765 
0.615686 0.905882 0.611765 0.615686 0.905882 0.611765 
0.615686 0.905882 0.611765 0.615686 0.905882 0.611765 
0.615686 0.905882 0.611765 0.615686 0.905882 0.611765 
0.615686 0.905882 0.611765 0.615686 0.905882 0.611765 
0.615686 0.905882 0.611765 0.615686 0.905882 0.611765 
0.615686 0.905882 0.611765 0.615686 0.905882 0.611765 
0.615686 0.905882 0.611765 0.615686 0.905882 0.611765 
0.615686 0.905882 0.611765 0.615686 0.905882 0.611765 
0.615686 0.905882 0.611765 0.615686 0.905882 0.611765 
0.615686 0.905882 0.611765 0.615686 0.905882 0.611765 
0.615686 0.905882 0.611765 0.615686 0.905882 0.611765 
0.615686 0.905882 0.611765 0.615686 0.905882 0.611765 
0.615686 0.905882 0.611765 0.615686 0.905882 0.611765 
0.615686 0.905882 0.611765 0.615686 0.905882 0.611765 
0.615686 0.905882 0.611765 0.615686 0.905882 0.611765 
0.615686 0.905882 0.611765 0.615686 0.905882 0.611765 
0.615686 0.905882 0.611765 0.615686 0.905882 0.611765 
0.615686 0.905882 0.611765 0.615686 0.905882 0.611765 
0.615686 0.905882 0.611765 0.615686 0.905882 0.611765 
0.615686 0.905882 0.611765 0.615686 0.905882 0.611765 
0.615686 0.905882 0.611765 0.615686 0.905882 0.611765 
0.615686 0.905882 0.611765 0.615686 0.905882 0.611765 
0.615686 0.905882 0.611765 0.615686 0.905882 0.611765 
0.615686 0.905882 0.611765 0.615686 0.905882 0.611765 
0.615686 0.905882 0.611765 0.615686 0.905882 0.611765 
0.615686 0.905882 0.611765 0.615686 0.905882 0.611765 
0.615686 0.905882 0.611765 0.615686 0.905882 0.611765 
0.615686 0.905882 0.611765 0.615686 0.905882 0.611765 
0.615686 0.905882 0.611765 0.615686 0.905882 0.611765 
0.615686 0.905882 0.611765 0.615686 0.905882 0.611765 
0.615686 0.905882 0.611765 0.615686 0.905882 0.611765 
0.615686 0.905882 0.611765 0.615686 0.905882 0.611765 
0.615686 0.905882 0.611765 0.615686 0.905882 0.611765 
0.615686 0.905882 0.611765 0.615686 0.905882 0.611765 
0.615686 0.905882 0.611765 0.615686 0.905882 0.611765 
0.615686 0.905882 0.611765 0.615686 0.905882 0.611765 
0.615686 0.905882 0.611765 0.615686 0.905882 0.611765 
0.615686 0.905882 0.611765 0.615686 0.905882 0.611765 
0.615686 0.905882 0.611765 0.615686 0.905882 0.611765 
0.615686 0.905882 0.611765 0.615686 0.905882 0.611765 
0.615686 0.905882 0.611765 0.615686 0.905882 0.611765 
0.615686 0.905882 0.611765 0.615686 0.905882 0.611765 
0.615686 0.905882 0.611765 0.615686 0.905882 0.611765 
0.615686 0.905882 0.611765 0.615686 0.905882 0.611765 
0.615686 0.905882 0.611765 0.615686 0.905882 0.611765 
0.615686 0.905882 0.611765 0.615686 0.905882 0.611765 
0.615686 0.905882 0.611765 0.615686 0.905882 0.611765 