# vtk DataFile Version 4.2
vtk output
ASCII
DATASET POLYDATA
POINTS 1188 float
281.758 265.46 90.5377 281.492 265.256 90.7187 281.801 265.271 90.685 
282.176 265.803 90.5207 282.253 266.873 90.424 281.932 269.01 90.3067 
282.705 268.184 90.7625 282.301 270.007 90.6024 282.066 270.349 90.6033 
282.647 269.938 90.877 280.662 265.381 90.8363 281.641 265.087 90.9587 
281.982 265.244 90.8156 282.186 265.421 90.7572 282.254 265.627 90.6609 
281.065 267.201 90.2178 280.385 269.251 90.4005 281.415 271.045 90.6863 
280.942 271.878 90.9171 281.472 272.417 91.29 278.912 264.561 91.8026 
280.174 264.943 91.3063 281.039 264.681 91.7303 281.513 264.9 91.4133 
282.165 265.305 90.9633 282.229 265.323 91.3049 279.331 265.623 91.0886 
282.542 265.737 91.4318 283.173 267.015 91.679 283.361 268.217 91.6693 
283.498 267.826 92.0772 278.642 271.141 91.3079 282.942 271.171 91.7743 
282.36 272 91.5362 279.411 273.108 91.6631 280.489 273.898 91.9329 
277.764 263.585 92.9155 276.946 263.71 92.8859 278.934 263.816 92.7099 
278.27 264.593 91.9374 278.082 265.213 91.6984 283.339 266.974 92.1265 
283.367 270.974 92.7568 278.231 272.518 91.9405 281.755 273.585 92.3271 
282.219 273.373 92.66 280.546 274.67 92.6244 280.752 274.77 92.8497 
275.486 262.652 93.6111 276.083 261.887 94.0798 276.685 262.207 94.1158 
278.806 263.49 93.7086 280.168 264.091 93.3214 281.336 264.669 92.6335 
281.879 265.005 92.2533 275.996 264.946 92.632 283.186 266.514 92.6681 
275.923 267.754 92.3421 283.633 268.788 93.2255 283.514 270.234 93.4971 
282.219 273.676 93.1351 280.397 275.01 93.2086 280.818 275.013 93.1773 
280.698 275.138 93.3608 280.958 275.069 93.3728 276.875 261.827 94.7982 
277.312 262.518 94.2844 279.322 263.76 94.168 281.222 264.656 93.3295 
282.655 273.141 93.777 281.977 274.041 93.4007 277.661 274.562 94.2211 
278.269 274.77 94.0261 279.905 275.005 93.655 280.452 275.1 93.7269 
281.186 274.913 93.4462 280.745 275.148 93.5583 280.99 275.06 93.5818 
273.744 258.345 95.6819 273.51 258.55 95.6489 274.27 259.03 95.2957 
275.111 258.592 95.6474 275.851 260.198 95.1748 276.214 260.697 95.1192 
272.452 263.27 94.8168 277.667 262.617 94.9355 278.263 263.272 95.3283 
278.813 263.576 94.8055 281.569 265.196 94.2449 296.942 267.762 95.7791 
296.743 268.026 95.6933 297.271 267.775 95.7979 297.157 268.533 95.5815 
297.464 268.034 95.7338 272.547 269.224 94.9052 296.111 269.114 95.7157 
296.172 269.534 95.7608 296.835 269.285 95.6185 297.669 269.106 95.7286 
283.105 270.779 94.5675 296.587 269.647 95.7352 297.493 269.476 95.7532 
282.849 272.721 94.0615 282.656 273.12 94.1741 274.377 273.531 95.6742 
282.513 273.175 94.4328 275.473 274.146 95.6666 279.431 274.859 94.2161 
280.532 274.522 94.5633 281.376 274.534 93.9292 276.398 274.382 95.1455 
274.465 255.835 97.2561 274.879 256.898 96.4874 275.71 256.917 96.58 
276.166 257.284 96.5855 272.512 259.191 95.9541 276.618 260.268 95.9496 
277.041 261.16 96.1931 277.387 262.124 96.437 279.565 264.404 95.3419 
282.045 265.716 94.369 296.92 266.022 96.7127 270.716 266.335 96.1349 
281.408 265.889 95.2203 282.946 266.797 94.2508 283.059 267.263 94.4077 
297.551 266.314 96.6031 298.331 266.936 96.5898 297.676 267.715 95.966 
298.931 267.451 96.8128 270.85 267.973 96.1555 298.919 267.967 96.6823 
295.661 268.733 95.8703 282.885 270.159 95.0053 298.284 269.294 96.059 
298.762 269.058 96.4695 298.734 269.371 96.3743 294.592 270.429 96.3531 
296.813 269.999 95.9102 297.45 269.861 95.9275 298.518 269.669 96.3042 
298.67 269.531 96.3656 272.227 271.692 96.1451 294.494 271.237 96.7552 
297.761 270.083 96.1848 298.119 270.016 96.3092 298.36 269.858 96.3416 
273.275 272.605 95.7169 295.178 271.339 96.9165 295.747 270.995 96.5523 
297.511 270.354 96.4215 297.884 270.199 96.4367 279.357 273.834 95.7109 
296.109 271.045 96.6551 296.5 270.921 96.6945 273.873 273.429 96.4805 
277.233 274.262 95.6656 276.622 274.116 95.9908 275.257 274.195 95.9933 
275.14 274.125 96.1636 275.307 274.201 96.0914 277.981 253.98 98.2038 
272.052 257.096 97.9394 277.227 259.363 96.9233 277.105 260.278 96.741 
277.676 263.016 96.659 278.225 264.573 96.9123 297.978 264.937 97.8475 
298.372 265.22 97.7241 298.521 265.495 97.6026 298.657 265.758 97.6898 
282.773 266.861 94.589 295.254 266.486 96.7081 279.335 266.874 96.9634 
281.66 267.196 95.6652 282.704 267.924 95.0617 299.093 268.033 96.8793 
299.138 267.878 97.0122 298.936 268.52 96.8643 299.101 268.098 96.9888 
270.527 270.112 97.1935 298.725 269.278 96.7443 298.736 269.411 96.4766 
281.864 270.482 95.9045 286.545 270.985 97.9485 287.335 271.58 97.5252 
291.268 270.71 97.0078 298.347 269.784 96.8593 298.551 269.681 96.5031 
297.676 270.266 97.2492 271.934 272.169 97.0322 278.319 272.346 96.9266 
285.482 272.366 98.28 285.264 272.963 98.3674 291.01 272.065 97.2451 
292.338 272.024 97.2626 295.415 271.48 97.4885 296.403 271.012 97.4954 
272.149 272.529 97.2281 287.491 273.504 97.5443 293.085 272.219 97.5073 
273.835 273.427 96.9637 274.297 273.493 96.912 274.812 273.849 96.4423 
275.643 273.574 96.827 284.737 274.105 98.6288 285.968 274.27 97.8919 
293.269 272.462 97.9903 273.661 273.354 97.1497 284.787 275.614 98.6877 
286.266 275.509 98.175 285.176 276.085 98.5782 285.059 276.242 98.8065 
285.482 275.989 98.4205 285.849 275.897 98.3389 285.694 276.151 98.5418 
281.063 252.396 98.9893 282.059 252.664 98.5506 283.468 252.559 98.5376 
283.737 252.353 98.6887 284.222 252.331 98.7528 284.818 252.466 98.6231 
284.976 252.426 98.6529 284.905 252.363 98.658 284.977 252.398 98.7076 
284.94 252.611 98.6891 285.006 252.498 98.729 282.825 253.356 98.2869 
284.997 252.707 98.8434 283.505 254.135 98.3947 274.476 254.937 98.5816 
280.919 255 97.9598 282.877 255.373 98.3438 278.264 257.278 97.4388 
282.086 256.097 98.2486 269.654 259.564 98.7124 277.482 260.668 97.4769 
278.457 259.513 98.1035 277.459 261.353 97.807 277.544 263.348 97.2998 
277.217 263.37 98.1413 297.521 264.313 98.4176 297.905 264.623 98.1494 
297.773 264.456 98.435 298.534 265.358 97.7862 298.348 265.082 97.9626 
277.368 267.883 98.2191 299.018 267.951 97.2386 286.926 269.45 98.2503 
277.024 270.287 98.0781 297.208 270.186 98.154 270.289 271.002 98.2992 
296.422 270.915 97.9768 271.254 271.908 98.0034 275.283 272.748 97.6073 
294.565 271.909 97.7501 295.114 271.64 98.0379 272.067 272.535 97.5513 
271.758 272.277 98.0395 284.631 273.639 98.8067 288.853 274.672 98.6314 
290.362 273.873 98.5792 284.803 276.237 99.1241 286.138 276.027 98.557 
286.69 275.996 98.8361 287.317 275.792 98.9445 285.158 276.367 99.0892 
282.184 252.205 99.0683 284.157 252.282 99.0075 284.578 252.376 98.9226 
284.853 252.367 98.7482 279.157 252.664 99.5066 284.72 252.621 99.1831 
284.916 252.539 98.8832 284.986 253.062 99.2079 276.278 253.791 99.2087 
284.947 253.756 99.0672 285.246 253.828 99.5922 284.576 254.402 98.8903 
285.587 254.935 100 271.881 256.484 99.2419 269.569 259.074 99.388 
277.988 260.903 98.6508 277.164 262.603 98.9739 277.708 261.764 99.4536 
297.35 264.147 98.7305 297.23 263.963 98.9547 297.044 263.936 98.9861 
276.455 263.926 99.4531 296.834 264.069 98.7739 296.587 263.842 99.3645 
297.636 264.46 98.9367 298.031 264.697 98.4964 276.627 265.162 98.8794 
298.246 265.36 98.776 287.756 266.253 99.0905 297.937 268.019 98.9185 
276.683 268.936 98.4995 285.849 268.976 99.0962 285.321 269.023 99.6496 
297.329 269.258 98.9564 295.23 271.395 98.6795 272.886 272.148 98.7042 
290.012 274.178 98.9969 287.743 275.621 99.0796 287.446 275.848 99.2872 
284.5 276.128 99.4738 284.193 276.099 100.083 285.861 276.406 99.3011 
285.374 276.453 99.5169 282.867 252.171 99.506 278.989 252.578 100.074 
284.24 252.633 99.7954 284.687 252.883 99.652 276.935 253.312 100.461 
285.217 253.597 100.111 285.136 253.617 100.349 285.323 253.874 100.332 
285.717 255.371 100.209 270.33 257.72 100.455 280.179 259.86 99.2223 
284.887 259.746 100.199 283.368 260.429 100.128 284.145 260.397 100.2 
276.991 262.623 100.082 296.504 263.716 99.68 296.479 263.7 99.7761 
296.29 263.732 99.8299 297.092 263.922 99.1087 295.375 263.671 99.8517 
296.849 264.028 99.5877 297.149 264.056 99.2354 286.515 264.375 100.109 
293.703 263.792 99.9139 297.246 264.308 99.3959 268.198 264.97 99.4928 
285.295 265.396 100.575 297.706 265.509 99.4246 274.748 266.647 100.318 
286.34 265.633 99.8431 298.109 266.064 99.0891 285.328 267.213 100.244 
285.049 268.151 100.341 269.268 270.108 99.9575 284.368 271.171 100.285 
269.477 270.449 100.072 272.242 271.059 99.8366 270.015 271.005 99.7661 
270.734 271.309 99.6485 271.866 271.674 99.2612 284.011 272.345 100.369 
269.995 270.961 100.012 290.142 273.998 100.253 283.782 275.88 100.659 
287.344 275.918 99.6099 281.184 252.184 99.9958 278.503 252.727 100.26 
279.407 252.487 100.45 284.818 253.464 100.528 273.561 255.033 101.338 
285.394 254.514 101.013 285.921 256.022 100.72 285.962 256.649 100.871 
285.969 257.655 100.812 269.071 259.675 100.564 285.678 258.871 100.475 
279.249 261.016 100.042 282.858 261.113 100.508 277.35 262.293 101.589 
278.248 261.913 101.233 281.294 261.379 100.86 283.285 261.884 100.925 
286.66 261.813 100.645 294.982 263.549 100.272 294.974 263.483 100.471 
275.368 263.596 101.616 285.284 263.379 100.669 287.1 262.85 100.437 
294.231 263.477 100.754 295.512 263.724 100.324 296.411 264.009 99.9979 
290.34 263.237 100.572 288.953 264.045 99.9321 268.907 269.506 100.442 
272.161 270.568 100.204 283.974 270.812 101.705 269.459 270.142 100.919 
283.54 273.964 101.181 283.419 275.222 101.291 283.322 274.964 101.641 
283.545 276.284 101.677 285.378 276.508 101 283.873 276.427 101.256 
279.153 252.622 100.801 276.261 253.636 101.506 279.286 252.835 101.342 
282.913 253.651 101.994 284.378 254.007 101.595 285.233 254.668 101.428 
285.941 256.175 101.361 286.192 257.346 101.716 269.615 258.405 101.531 
286.415 259.478 100.97 268.243 261.789 101.715 288.053 261.078 101.377 
277.094 262.322 102.58 278.902 261.978 102.094 281.93 262.181 101.677 
274.71 263.554 102.463 283.658 263.235 101.541 289.719 262.499 101.092 
[...]
POINT_DATA 1188
COLOR_SCALARS scalars 3
0.615686 0.905882 0.611765 0.615686 0.905882 0.611765 0.615686 0.905882 0.611765 
0.615686 0.905882 0.611765 0.615686 0.905882 0.611765 
0.615686 0.905882 0.611765 0.615686 0.905882 0.611765 
0.615686 0.905882 0.611765 0.615686 0.905882 0.611765 
0.615686 0.905882 0.611765 0.615686 0.905882 0.611765 
0.615686 0.905882 0.611765 0.615686 0.905882 0.611765 
0.615686 0.905882 0.611765 0.615686 0.905882 0.611765 
0.615686 0.905882 0.611765 0.615686 0.905882 0.611765 
0.615686 0.905882 0.611765 0.615686 0.905882 0.611765 
0.615686 0.905882 0.611765 0.615686 0.905882 0.611765 
0.615686 0.905882 0.611765 0.615686 0.905882 0.611765 
0.615686 0.905882 0.611765 0.615686 0.905882 0.611765 
0.615686 0.905882 0.611765 0.615686 0.905882 0.611765 
0.615686 0.905882 0.611765 0.615686 0.905882 0.611765 
0.615686 0.905882 0.611765 0.615686 0.905882 0.611765 
0.615686 0.905882 0.611765 0.615686 0.905882 0.611765 
0.615686 0.905882 0.611765 0.615686 0.905882 0.611765 
0.615686 0.905882 0.611765 0.615686 0.905882 0.611765 
0.615686 0.905882 0.611765 0.615686 0.905882 0.611765 
0.615686 0.905882 0.611765 0.615686 0.905882 0.611765 
0.615686 0.905882 0.611765 0.615686 0.905882 0.611765 
0.615686 0.905882 0.611765 0.615686 0.905882 0.611765 
0.615686 0.905882 0.611765 0.615686 0.905882 0.611765 
0.615686 0.905882 0.611765 0.615686 0.905882 0.611765 
0.615686 0.905882 0.611765 0.615686 0.905882 0.611765 
0.615686 0.905882 0.611765 0.615686 0.905882 0.611765 
0.615686 0.905882 0.611765 0.615686 0.905882 0.611765 
0.615686 0.905882 0.611765 0.615686 0.905882 0.611765 
0.615686 0.905882 0.611765 0.615686 0.905882 0.611765 
0.615686 0.905882 0.611765 0.615686 0.905882 0.611765 
0.615686 0.905882 0.611765 0.615686 0.905882 0.611765 
0.615686 0.905882 0.611765 0.615686 0.905882 0.611765 
0.615686 0.905882 0.611765 0.615686 0.905882 0.611765 
0.615686 0.905882 0.611765 0.615686 0.905882 0.611765 
0.615686 0.905882 0.611765 0.615686 0.905882 0.611765 
0.615686 0.905882 0.611765 0.615686 0.905882 0.611765 
0.615686 0.905882 0.611765 0.615686 0.905882 0.611765 
0.615686 0.905882 0.611765 0.615686 0.905882 0.611765 
0.615686 0.905882 0.611765 0.615686 0.905882 0.611765 
0.615686 0.905882 0.611765 0.615686 0.905882 0.611765 
0.615686 0.905882 0.611765 0.615686 0.905882 0.611765 
0.615686 0.905882 0.611765 0.615686 0.905882 0.611765 
0.615686 0.905882 0.611765 0.615686 0.905882 0.611765 
0.615686 0.905882 0.611765 0.615686 0.905882 0.611765 
0.615686 0.905882 0.611765 0.615686 0.905882 0.611765 
0.615686 0.905882 0.611765 0.615686 0.905882 0.611765 
0.615686 0.905882 0.611765 0.615686 0.905882 0.611765 
0.615686 0.905882 0.611765 0.615686 0.905882 0.611765 
0.615686 0.905882 0.611765 0.615686 0.905882 0.611765 
0.615686 0.905882 0.611765 0.615686 0.905882 0.611765 
0.615686 0.905882 0.611765 0.615686 0.905882 0.611765 
0.615686 0.905882 0.611765 0.615686 0.905882 0.611765 
0.615686 0.905882 0.611765 0.615686 0.905882 0.611765 
0.615686 0.905882 0.611765 0.615686 0.905882 0.611765 
0.615686 0.905882 0.611765 0.615686 0.905882 0.611765 
0.615686 0.905882 0.611765 0.615686 0.905882 0.611765 
0.615686 0.905882 0.611765 0.615686 0.905882 0.611765 
0.615686 0.905882 0.611765 0.615686 0.905882 0.611765 
0.615686 0.905882 0.611765 0.615686 0.905882 0.611765 
0.615686 0.905882 0.611765 0.615686 0.905882 0.611765 
0.615686 0.905882 0.611765 0.615686 0.905882 0.611765 
0.615686 0.905882 0.611765 0.615686 0.905882 0.611765 
0.615686 0.905882 0.611765 0.615686 0.905882 0.611765 
0.615686 0.905882 0.611765 0.615686 0.905882 0.611765 
0.615686 0.905882 0.611765 0.615686 0.905882 0.611765 
0.615686 0.905882 0.611765 0.615686 0.905882 0.611765 
0.615686 0.905882 0.611765 0.615686 0.905882 0.611765 
0.615686 0.905882 0.611765 0.615686 0.905882 0.611765 
0.615686 0.905882 0.611765 0.615686 0.905882 0.611765 
0.615686 0.905882 0.611765 0.615686 0.905882 0.611765 
0.615686 0.905882 0.611765 0.615686 0.905882 0.611765 
0.615686 0.905882 0.611765 0.615686 0.905882 0.611765 
0.615686 0.905882 0.611765 0.615686 0.905882 0.611765 
0.615686 0.905882 0.611765 0.615686 0.905882 0.611765 
0.615686 0.905882 0.611765 0.615686 0.905882 0.611765 
0.615686 0.905882 0.611765 0.615686 0.905882 0.611765 
0.615686 0.905882 0.611765 0.615686 0.905882 0.611765 
0.615686 0.905882 0.611765 0.615686 0.905882 0.611765 
0.615686 0.905882 0.611765 0.615686 0.905882 0.611765 
0.615686 0.905882 0.611765 0.615686 0.905882 0.611765 
0.615686 0.905882 0.611765 0.615686 0.905882 0.611765 
0.615686 0.905882 0.611765 0.615686 0.905882 0.611765 
0.615686 0.905882 0.611765 0.615686 0.905882 0.611765 
0.615686 0.905882 0.611765 0.615686 0.905882 0.611765 
0.615686 0.905882 0.611765 0.615686 0.905882 0.611765 
0.615686 0.905882 0.611765 0.615686 0.905882 0.611765 
0.615686 0.905882 0.611765 0.615686 0.905882 0.611765 
0.615686 0.905882 0.611765 0.615686 0.905882 0.611765 
0.615686 0.905882 0.611765 0.615686 0.905882 0.611765 
0.615686 0.905882 0.611765 0.615686 0.905882 0.611765 
0.615686 0.905882 0.611765 0.615686 0.905882 0.611765 
0.615686 0.905882 0.611765 0.615686 0.905882 0.611765 
0.615686 0.905882 0.611765 0.615686 0.905882 0.611765 
0.615686 0.905882 0.611765 0.615686 0.905882 0.611765 
0.615686 0.905882 0.611765 0.615686 0.905882 0.611765 
0.615686 0.905882 0.611765 0.615686 0.905882 0.611765 
0.615686 0.905882 0.611765 0.615686 0.905882 0.611765 
0.615686 0.905882 0.611765 0.615686 0.905882 0.611765 
0.615686 0.905882 0.611765 0.615686 0.905882 0.611765 
0.615686 0.905882 0.611765 0.615686 0.905882 0.611765 
0.615686 0.905882 0.611765 0.615686 0.905882 0.611765 
0.615686 0.905882 0.611765 0.615686 0.905882 0.611765 
0.615686 0.905882 0.611765 0.615686 0.905882 0.611765 
0.615686 0.905882 0.611765 0.615686 0.905882 0.611765 
0.615686 0.905882 0.611765 0.615686 0.905882 0.611765 
0.615686 0.905882 0.611765 0.615686 0.905882 0.611765 
0.615686 0.905882 0.611765 0.615686 0.905882 0.611765 
0.615686 0.905882 0.611765 0.615686 0.905882 0.611765 
0.615686 0.905882 0.611765 0.615686 0.905882 0.611765 
0.615686 0.905882 0.611765 0.615686 0.905882 0.611765 
0.615686 0.905882 0.611765 0.615686 0.905882 0.611765 
0.615686 0.905882 0.611765 0.615686 0.905882 0.611765 
0.615686 0.905882 0.611765 0.615686 0.905882 0.611765 
0.615686 0.905882 0.611765 0.615686 0.905882 0.611765 
0.615686 0.905882 0.611765 0.615686 0.905882 0.611765 
0.615686 0.905882 0.611765 0.615686 0.905882 0.611765 
0.615686 0.905882 0.611765 0.615686 0.905882 0.611765 
0.615686 0.905882 0.611765 0.615686 0.905882 0.611765 
0.615686 0.905882 0.611765 0.615686 0.905882 0.611765 
0.615686 0.905882 0.611765 0.615686 0.905882 0.611765 
0.615686 0.905882 0.611765 0.615686 0.905882 0.611765 
0.615686 0.905882 0.611765 0.615686 0.905882 0.611765 
0.615686 0.905882 0.611765 0.615686 0.905882 0.611765 
0.615686 0.905882 0.611765 0.615686 0.905882 0.611765 
0.615686 0.905882 0.611765 0.615686 0.905882 0.611765 
0.615686 0.905882 0.611765 0.615686 0.905882 0.611765 
0.615686 0.905882 0.611765 0.615686 0.905882 0.611765 
0.615686 0.905882 0.611765 0.615686 0.905882 0.611765 
0.615686 0.905882 0.611765 0.615686 0.905882 0.611765 
0.615686 0.905882 0.611765 0.615686 0.905882 0.611765 
0.615686 0.905882 0.611765 0.615686 0.905882 0.611765 
0.615686 0.905882 0.611765 0.615686 0.905882 0.611765 
0.615686 0.905882 0.611765 0.615686 0.905882 0.611765 
0.615686 0.905882 0.611765 0.615686 0.905882 0.611765 
0.615686 0.905882 0.611765 0.615686 0.905882 0.611765 
0.615686 0.905882 0.611765 0.615686 0.905882 0.611765 
0.615686 0.905882 0.611765 0.615686 0.905882 0.611765 
0.615686 0.905882 0.611765 0.615686 0.905882 0.611765 
0.615686 0.905882 0.611765 0.615686 0.905882 0.611765 
0.615686 0.905882 0.611765 0.615686 0.905882 0.611765 
0.615686 0.905882 0.611765 0.615686 0.905882 0.611765 
0.615686 0.905882 0.611765 0.615686 0.905882 0.611765 
0.615686 0.905882 0.611765 0.615686 0.905882 0.611765 
0.615686 0.905882 0.611765 0.615686 0.905882 0.611765 
0.615686 0.905882 0.611765 0.615686 0.905882 0.611765 
0.615686 0.905882 0.611765 0.615686 0.905882 0.611765 
0.615686 0.905882 0.611765 0.615686 0.905882 0.611765 
0.615686 0.905882 0.611765 0.615686 0.905882 0.611765 
0.615686 0.905882 0.611765 0.615686 0.905882 0.611765 
0.615686 0.905882 0.611765 0.615686 0.905882 0.611765 
0.615686 0.905882 0.611765 0.615686 0.905882 0.611765 
0.615686 0.905882 0.611765 0.615686 0.905882 0.611765 
0.615686 0.905882 0.611765 0.615686 0.905882 0.611765 
0.615686 0.905882 0.611765 0.615686 0.905882 0.611765 
0.615686 0.905882 0.611765 0.615686 0.905882 0.611765 
0.615686 0.905882 0.611765 0.615686 0.905882 0.611765 
0.615686 0.905882 0.611765 0.615686 0.905882 0.611765 
0.615686 0.905882 0.611765 0.615686 0.905882 0.611765 
0.615686 0.905882 0.611765 0.615686 0.905882 0.611765 
0.615686 0.905882 0.611765 0.615686 0.905882 0.611765 
0.615686 0.905882 0.611765 0.615686 0.905882 0.611765 
0.615686 0.905882 0.611765 0.615686 0.905882 0.611765 
0.615686 0.905882 0.611765 0.615686 0.905882 0.611765 
0.615686 0.905882 0.611765 0.615686 0.905882 0.611765 
0.615686 0.905882 0.611765 0.615686 0.905882 0.611765 
0.615686 0.905882 0.611765 0.615686 0.905882 0.611765 
0.615686 0.905882 0.611765 0.615686 0.905882 0.611765 
0.615686 0.905882 0.611765 0.615686 0.905882 0.611765 
0.615686 0.905882 0.611765 0.615686 0.905882 0.611765 
0.615686 0.905882 0.611765 0.615686 0.905882 0.611765 
0.615686 0.905882 0.611765 0.615686 0.905882 0.611765 
0.615686 0.905882 0.611765 0.615686 0.905882 0.611765 
0.615686 0.905882 0.611765 0.615686 0.905882 0.611765 
0.615686 0.905882 0.611765 0.615686 0.905882 0.611765 
0.615686 0.905882 0.611765 0.615686 0.905882 0.611765 
0.615686 0.905882 0.611765 0.615686 0.905882 0.611765 
0.615686 0.905882 0.611765 0.615686 0.905882 0.611765 
0.615686 0.905882 0.611765 0.615686 0.905882 0.611765 
0.615686 0.905882 0.611765 0.615686 0.905882 0.611765 
0.615686 0.905882 0.611765 0.615686 0.905882 0.611765 
0.615686 0.905882 0.611765 0.615686 0.905882 0.611765 
0.615686 0.905882 0.611765 0.615686 0.905882 0.611765 
0.615686 0.905882 0.611765 0.615686 0.905882 0.611765 
0.615686 0.905882 0.611765 0.615686 0.905882 0.611765 
0.615686 0.905882 0.611765 0.615686 0.905882 0.611765 
0.615686 0.905882 0.611765 0.615686 0.905882 0.611765 
0.615686 0.905882 0.611765 0.615686 0.905882 0.611765 
0.615686 0.905882 0.611765 0.615686 0.905882 0.611765 
0.615686 0.905882 0.611765 0.615686 0.905882 0.611765 
0.615686 0.905882 0.611765 0.615686 0.905882 0.611765 
0.615686 0.905882 0.611765 0.615686 0.905882 0.611765 
0.615686 0.905882 0.611765 0.615686 0.905882 0.611765 
0.615686 0.905882 0.611765 0.615686 0.905882 0.611765 
0.615686 0.905882 0.611765 0.615686 0.905882 0.611765 
0.615686 0.905882 0.611765 0.615686 0.905882 0.611765 
0.615686 0.905882 0.611765 0.615686 0.905882 0.611765 
0.615686 0.905882 0.611765 0.615686 0.905882 0.611765 
0.615686 0.905882 0.611765 0.615686 0.905882 0.611765 
0.615686 0.905882 0.611765 0.615686 0.905882 0.611765 
0.615686 0.905882 0.611765 0.615686 0.905882 0.611765 
0.615686 0.905882 0.611765 0.615686 0.905882 0.611765 
0.615686 0.905882 0.611765 0.615686 0.905882 0.611765 
0.615686 0.905882 0.611765 0.615686 0.905882 0.611765 
0.615686 0.905882 0.611765 0.615686 0.905882 0.611765 
0.615686 0.905882 0.611765 0.615686 0.905882 0.611765 
0.615686 0.905882 0.611765 0.615686 0.905882 0.611765 
0.615686 0.905882 0.611765 0.615686 0.905882 0.611765 
0.615686 0.905882 0.611765 0.615686 0.905882 0.611765 
0.615686 0.905882 0.611765 0.615686 0.905882 0.611765 
0.615686 0.905882 0.611765 0.615686 0.905882 0.611765 
0.615686 0.905882 0.611765 0.615686 0.905882 0.611765 
0.615686 0.905882 0.611765 0.615686 0.905882 0.611765 
0.615686 0.905882 0.611765 0.615686 0.905882 0.611765 
0.615686 0.905882 0.611765 0.615686 0.905882 0.611765 
0.615686 0.905882 0.611765 0.615686 0.905882 0.611765 
0.615686 0.905882 0.611765 0.615686 0.905882 0.611765 
0.615686 0.905882 0.611765 0.615686 0.905882 0.611765 
0.615686 0.905882 0.611765 0.615686 0.905882 0.611765 
0.615686 0.905882 0.611765 0.615686 0.905882 0.611765 
0.615686 0.905882 0.611765 0.615686 0.905882 0.611765 
0.615686 0.905882 0.611765 0.615686 0.905882 0.611765 
0.615686 0.905882 0.611765 0.615686 0.905882 0.611765 
0.615686 0.905882 0.611765 0.615686 0.905882 0.611765 
0.615686 0.905882 0.611765 0.615686 0.905882 0.611765 
0.615686 0.905882 0.611765 0.615686 0.905882 0.611765 
0.615686 0.905882 0.611765 0.615686 0.905882 0.611765 
0.615686 0.905882 0.611765 0.615686 0.905882 0.611765 
0.615686 0.905882 0.611765 0.615686 0.905882 0.611765 
0.615686 0.905882 0.611765 0.615686 0.905882 0.611765 
0.615686 0.905882 0.611765 0.615686 0.905882 0.611765 
0.615686 0.905882 0.611765 0.615686 0.905882 0.611765 
0.615686 0.905882 0.611765 0.615686 0.905882 0.611765 
0.615686 0.905882 0.611765 0.615686 0.905882 0.611765 
0.615686 0.905882 0.611765 0.615686 0.905882 0.611765 
0.615686 0.905882 0.611765 0.615686 0.905882 0.611765 
0.615686 0.905882 0.611765 0.615686 0.905882 0.611765 
0.615686 0.905882 0.611765 0.615686 0.905882 0.611765 
0.615686 0.905882 0.611765 0.615686 0.905882 0.611765 
0.615686 0.905882 0.611765 0.615686 0.905882 0.611765 
0.615686 0.905882 0.611765 0.615686 0.905882 0.611765 
0.615686 0.905882 0.611765 0.615686 0.905882 0.611765 
0.615686 0.905882 0.611765 0.615686 0.905882 0.611765 
0.615686 0.905882 0.611765 0.615686 0.905882 0.611765 
0.615686 0.905882 0.611765 0.615686 0.905882 0.611765 
0.615686 0.905882 0.611765 0.615686 0.905882 0.611765 
0.615686 0.905882 0.611765 0.615686 0.905882 0.611765 
0.615686 0.905882 0.611765 0.615686 0.905882 0.611765 
0.615686 0.905882 0.611765 0.615686 0.905882 0.611765 
0.615686 0.905882 0.611765 0.615686 0.905882 0.611765 
0.615686 0.905882 0.611765 0.615686 0.905882 0.611765 
0.615686 0.905882 0.611765 0.615686 0.905882 0.611765 
0.615686 0.905882 0.611765 0.615686 0.905882 0.611765 
0.615686 0.905882 0.611765 0.615686 0.905882 0.611765 
0.615686 0.905882 0.611765 0.615686 0.905882 0.611765 
0.615686 0.905882 0.611765 0.615686 0.905882 0.611765 
0.615686 0.905882 0.611765 0.615686 0.905882 0.611765 
0.615686 0.905882 0.611765 0.615686 0.905882 0.611765 
0.615686 0.905882 0.611765 0.615686 0.905882 0.611765 
0.615686 0.905882 0.611765 0.615686 0.905882 0.611765 
0.615686 0.905882 0.611765 0.615686 0.905882 0.611765 
0.615686 0.905882 0.611765 0.615686 0.905882 0.611765 
0.615686 0.905882 0.611765 0.615686 0.905882 0.611765 
0.615686 0.905882 0.611765 0.615686 0.905882 0.611765 
0.615686 0.905882 0.611765 0.615686 0.905882 0.611765 
0.615686 0.905882 0.611765 0.615686 0.905882 0.611765 
0.615686 0.905882 0.611765 0.615686 0.905882 0.611765 
0.615686 0.905882 0.611765 0.615686 0.905882 0.611765 
0.615686 0.905882 0.611765 0.615686 0.905882 0.611765 
0.615686 0.905882 0.611765 0.615686 0.905882 0.611765 
0.615686 0.905882 0.611765 0.615686 0.905882 0.611765 
0.615686 0.905882 0.611765 0.615686 0.905882 0.611765 
0.615686 0.905882 0.611765 0.615686 0.905882 0.611765 
0.615686 0.905882 0.611765 0.615686 0.905882 0.611765 
0.615686 0.905882 0.611765 0.615686 0.905882 0.611765 
0.615686 0.905882 0.611765 0.615686 0.905882 0.611765 
0.615686 0.905882 0.611765 0.615686 0.905882 0.611765 
0.615686 0.905882 0.611765 0.615686 0.905882 0.611765 
0.615686 0.905882 0.611765 0.615686 0.905882 0.611765 
0.615686 0.905882 0.611765 0.615686 0.905882 0.611765 
0.615686 0.905882 0.611765 0.615686 0.905882 0.611765 
0.615686 0.905882 0.611765 0.615686 0.905882 0.611765 
0.615686 0.905882 0.611765 0.615686 0.905882 0.611765 
0.615686 0.905882 0.611765 0.615686 0.905882 0.611765 
0.615686 0.905882 0.611765 0.615686 0.905882 0.611765 
0.615686 0.905882 0.611765 0.615686 0.905882 0.611765 
0.615686 0.905882 0.611765 0.615686 0.905882 0.611765 
0.615686 0.905882 0.611765 0.615686 0.905882 0.611765 
0.615686 0.905882 0.611765 0.615686 0.905882 0.611765 
0.615686 0.905882 0.611765 0.615686 0.905882 0.611765 
0.615686 0.905882 0.611765 0.615686 0.905882 0.611765 
0.615686 0.905882 0.611765 0.615686 0.905882 0.611765 
0.615686 0.905882 0.611765 0.615686 0.905882 0.611765 
0.615686 0.905882 0.611765 0.615686 0.905882 0.611765 
0.615686 0.905882 0.611765 0.615686 0.905882 0.611765 
0.615686 0.905882 0.611765 0.615686 0.905882 0.611765 
0.615686 0.905882 0.611765 0.615686 0.905882 0.611765 
0.615686 0.905882 0.611765 0.615686 0.905882 0.611765 
0.615686 0.905882 0.611765 0.615686 0.905882 0.611765 
0.615686 0.905882 0.611765 0.615686 0.905882 0.611765 
0.615686 0.905882 0.611765 0.615686 0.905882 0.611765 
0.615686 0.905882 0.611765 0.615686 0.905882 0.611765 
0.615686 0.905882 0.611765 0.615686 0.905882 0.611765 
0.615686 0.905882 0.611765 0.615686 0.905882 0.611765 
0.615686 0.905882 0.611765 0.615686 0.905882 0.611765 
0.615686 0.905882 0.611765 0.615686 0.905882 0.611765 
0.615686 0.905882 0.611765 0.615686 0.905882 0.611765 
0.615686 0.905882 0.611765 0.615686 0.905882 0.611765 
0.615686 0.905882 0.611765 0.615686 0.905882 0.611765 
0.615686 0.905882 0.611765 0.615686 0.905882 0.611765 
0.615686 0.905882 0.611765 0.615686 0.905882 0.611765 
0.615686 0.905882 0.611765 0.615686 0.905882 0.611765 
0.615686 0.905882 0.611765 0.615686 0.905882 0.611765 
0.615686 0.905882 0.611765 0.615686 0.905882 0.611765 
0.615686 0.905882 0.611765 0.615686 0.905882 0.611765 
0.615686 0.905882 0.611765 0.615686 0.905882 0.611765 
0.615686 0.905882 0.611765 0.615686 0.905882 0.611765 
0.615686 0.905882 0.611765 0.615686 0.905882 0.611765 
0.615686 0.905882 0.611765 0.615686 0.905882 0.611765 
0.615686 0.905882 0.611765 0.615686 0.905882 0.611765 
0.615686 0.905882 0.611765 0.615686 0.905882 0.611765 
0.615686 0.905882 0.611765 0.615686 0.905882 0.611765 
0.615686 0.905882 0.611765 0.615686 0.905882 0.611765 
0.615686 0.905882 0.611765 0.615686 0.905882 0.611765 
0.615686 0.905882 0.611765 0.615686 0.905882 0.611765 
0.615686 0.905882 0.611765 0.615686 0.905882 0.611765 
0.615686 0.905882 0.611765 0.615686 0.905882 0.611765 
0.615686 0.905882 0.611765 0.615686 0.905882 0.611765 
0.615686 0.905882 0.611765 0.615686 0.905882 0.611765 
0.615686 0.905882 0.611765 0.615686 0.905882 0.611765 
0.615686 0.905882 0.611765 0.615686 0.905882 0.611765 
0.615686 0.905882 0.611765 0.615686 0.905882 0.611765 
0.615686 0.905882 0.611765 0.615686 0.905882 0.611765 
0.615686 0.905882 0.611765 0.615686 0.905882 0.611765 
0.615686 0.905882 0.611765 0.615686 0.905882 0.611765 
0.615686 0.905882 0.611765 0.615686 0.905882 0.611765 
0.615686 0.905882 0.611765 0.615686 0.905882 0.611765 
0.615686 0.905882 0.611765 0.615686 0.905882 0.611765 
0.615686 0.905882 0.611765 0.615686 0.905882 0.611765 
0.615686 0.905882 0.611765 0.615686 0.905882 0.611765 
0.615686 0.905882 0.611765 0.615686 0.905882 0.611765 
0.615686 0.905882 0.611765 0.615686 0.905882 0.611765 
0.615686 0.905882 0.611765 0.615686 0.905882 0.611765 
0.615686 0.905882 0.611765 0.615686 0.905882 0.611765 
0.615686 0.905882 0.611765 0.615686 0.905882 0.611765 
0.615686 0.905882 0.611765 0.615686 0.905882 0.611765 
0.615686 0.905882 0.611765 0.615686 0.905882 0.611765 
0.615686 0.905882 0.611765 0.615686 0.905882 0.611765 
0.615686 0.905882 0.611765 0.615686 0.905882 0.611765 
0.615686 0.905882 0.611765 0.615686 0.905882 0.611765 
0.615686 0.905882 0.611765 0.615686 0.905882 0.611765 
0.615686 0.905882 0.611765 0.615686 0.905882 0.611765 
0.615686 0.905882 0.611765 0.615686 0.905882 0.611765 
0.615686 0.905882 0.611765 0.615686 0.905882 0.611765 
0.615686 0.905882 0.611765 0.615686 0.905882 0.611765 
0.615686 0.905882 0.611765 0.615686 0.905882 0.611765 
0.615686 0.905882 0.611765 0.615686 0.905882 0.611765 
0.615686 0.905882 0.611765 0.615686 0.905882 0.611765 
0.615686 0.905882 0.611765 0.615686 0.905882 0.611765 
0.615686 0.905882 0.611765 0.615686 0.905882 0.611765 
0.615686 0.905882 0.611765 0.615686 0.905882 0.611765 
0.615686 0.905882 0.611765 0.615686 0.905882 0.611765 
0.615686 0.905882 0.611765 0.615686 0.905882 0.611765 