# vtk DataFile Version 4.2
vtk output
ASCII
DATASET POLYDATA
POINTS 991 float
267.576 260.754 105.464 264.975 262.675 105 267.246 262.13 105.102 
267.947 265.896 105.188 264.716 267.706 105.186 265.407 267.826 105.192 
266.101 258.614 106.772 265.27 258.978 106.373 266.842 259.001 106.532 
262.541 260.244 106.518 262.195 260.757 106.329 260.845 261.953 106.413 
260.217 264.541 106.096 260.797 266.486 105.885 263.197 266.858 105.277 
264.017 267.701 105.274 264.467 271.619 106.179 264.709 258.427 107.318 
265.171 258.541 106.846 265.7 258.256 107.292 263.916 258.678 107.668 
263.204 259.087 107.476 276.733 258.3 108.423 273.555 259.311 107.493 
277.054 259.292 107.928 260.806 260.14 107.801 258.559 261.965 107.936 
259.569 260.894 108.134 274.566 260.873 106.983 258.279 263.593 107.291 
258.499 268.093 106.982 269.943 269.804 106.359 260.968 270.715 106.781 
260.593 271.832 107.49 269.406 272.471 106.979 266.23 273.924 107.102 
268.013 274.09 107.298 265.574 258.193 107.641 276.787 257.805 108.86 
278.723 258.215 109.18 260.817 259.91 108.233 260.558 259.83 108.772 
278.87 259.953 108.612 256.245 263.813 108.784 256.07 266.25 108.187 
255.952 266.814 108.249 256.217 268.014 108.315 257.267 268.783 107.897 
257.781 270.424 108.632 259.814 272.425 108.933 263.792 275.288 108.677 
264.424 275.446 108.6 278 256.841 110.002 279.194 256.627 110.6 
261.109 259.428 109.407 272.49 258.34 108.64 280.204 258.358 109.993 
279.626 261.491 108.845 256.403 262.819 109.393 254.59 266.716 109.689 
254.585 267.448 109.92 254.749 267.779 109.916 255.158 268.172 109.682 
256.229 268.495 108.582 255.603 269.118 110.354 259.177 272.105 109.753 
260.851 273.439 109.376 272.102 275.092 109.501 263.594 275.792 110.022 
264.653 276.102 109.65 267.477 276.664 109.651 266.819 258.082 109.565 
280.458 257.582 110.668 267.435 258.104 110.278 255.608 269.252 111.206 
276.7 271.57 109.779 261.984 274.608 110.267 262.846 275.36 110.264 
263.961 276.008 110.327 265.602 276.726 110.508 266.275 276.859 110.318 
268.58 277.106 110.367 267.634 277.262 110.811 279.074 255.663 111.947 
268.279 258.087 111.167 255.412 263.089 110.886 254.592 264.821 110.792 
283.063 265.602 110.78 283.236 267.619 111.102 254.945 268.391 111.446 
284.423 267.859 112.02 279.589 270.904 110.626 282.002 270.534 111.505 
276.327 273.267 110.504 262.175 274.578 111.141 276.504 274.628 111.733 
274.76 275.306 111.361 272.386 276.07 110.806 269.587 277.361 111.419 
274.59 256.931 111.243 281.472 257.321 112.079 283.882 261.86 112.065 
284.776 263.236 112.421 254.307 265.499 111.73 285.315 268.682 113.362 
257.664 270.802 111.972 283.056 271.294 112.738 280.339 272.462 111.902 
274.985 275.453 111.758 264.607 276.273 112.05 273.147 276.291 111.894 
269.435 277.457 111.918 279.552 255.011 113.659 278.292 255.113 113.353 
280.891 255.884 113.191 274.923 256.451 113.002 245.54 270.825 115.2 
245.492 270.885 115.206 245.59 270.897 115.234 281.902 272.601 113.184 
278.281 274.419 112.854 276.394 275.247 112.593 278.507 274.523 113.399 
267.187 277.345 112.795 277.624 255.153 113.902 285.264 262.001 113.793 
286.104 267.532 114.407 245.309 270.927 115.313 244.982 271.018 115.482 
245.24 271.173 115.326 244.97 271.285 115.462 245.518 271.073 115.284 
245.739 270.979 115.46 245.177 271.414 115.406 245.437 271.375 115.367 
245.583 271.634 115.547 246.098 272.061 115.92 246.141 272.165 115.995 
265.117 276.124 113.544 266.789 277.052 113.679 268.585 277.455 113.459 
272.887 257.191 115.15 283.265 257.487 115.023 286.573 265.212 115.221 
255.324 267.879 114.957 244.685 270.866 115.769 244.579 270.562 116.205 
243.626 271.238 116.224 245.95 270.988 115.773 245.987 271.296 115.76 
260.418 271.805 114.366 243.809 271.787 116.17 244.193 271.666 115.976 
245.936 271.781 115.81 246.293 271.591 116.228 244.274 272.363 116.338 
245.435 272.02 115.854 245.073 272.927 116.753 245.875 272.509 116.332 
246.45 272.46 116.674 279.151 254.523 115.541 280.975 254.744 116.17 
254.95 262.264 116.362 254.582 263.079 115.662 254.474 263.56 115.282 
286.732 263.464 116.385 286.865 266.195 116.724 286.47 267.627 116.097 
243.106 270.958 116.945 242.977 270.81 117.45 242.796 271.132 117.263 
244.243 270.278 116.938 245.979 270.845 116.021 243.008 271.463 116.777 
243.271 271.886 116.637 281.099 273.686 115.774 246.444 273.231 117.296 
246.741 273.308 117.587 268.005 276.605 115.962 272.691 257.33 116.718 
256.384 260.972 117.255 264.242 259.706 117.698 254.798 262.545 116.522 
254.617 263.023 116.384 254.452 264.129 116.176 286.806 267.02 117.686 
256.331 269.107 117.219 257.588 269.992 116.753 258.902 270.655 116.461 
242.591 271.389 117.581 243.256 272.65 117.576 244.094 273.287 118.065 
247.143 272.812 117.732 247.055 273.19 117.818 278.623 274.757 116.315 
285.654 259.739 117.174 244.119 269.979 117.924 243.85 270.059 118.241 
244.722 269.789 118.484 245.451 269.957 117.864 286.255 268.544 118.257 
242.633 270.996 118.264 242.829 270.787 118.586 243.374 270.378 118.567 
246.149 270.438 117.634 246.589 270.819 117.884 259.373 271.031 117.548 
247.362 271.838 118.341 247.726 272.405 118.721 247.022 273.654 118.518 
280.139 253.663 118.467 279.208 253.731 118.479 254.575 265.082 118.831 
243.886 270.015 118.719 244.184 269.884 119.004 245.121 269.795 118.849 
242.534 271.252 119.278 247.389 271.31 119.054 257.001 270.611 118.778 
257.761 270.924 118.676 261.983 272.269 118.368 284.931 270.468 119.506 
242.204 271.984 119.015 242.19 272.093 118.891 242.532 272.445 118.732 
242.43 272.378 119.193 244.072 273.45 119.274 247.092 273.716 118.897 
247.377 273.643 119.281 247.709 273.328 119.1 247.381 273.591 118.946 
269.626 275.901 118.47 278.338 253.512 119.951 255.144 262.508 119.799 
246.193 270.07 119.752 254.338 269.199 120.303 246.576 270.384 119.261 
255.78 269.947 119.17 242.437 271.454 119.445 258.186 271.453 119.143 
242.229 272.151 119.065 242.312 272.039 119.433 255.533 271.563 120.044 
257.945 271.839 119.626 283.639 271.578 119.91 242.465 272.339 119.655 
248.491 272.439 120.062 253.919 272.226 120.777 255.031 272.417 120.443 
243.237 272.969 119.653 243.696 273.223 119.856 248.212 273.099 119.85 
254.477 273.135 120.761 254.192 273.338 121.072 255.729 272.9 120.617 
264.403 273.727 119.472 245.198 273.632 119.975 254.386 273.565 120.807 
255.347 273.274 120.863 254.46 273.55 120.789 279.049 252.493 121.922 
279.73 252.722 121.215 280.378 252.734 121.567 259.168 259.81 120.906 
259.272 259.815 121.36 286.785 260.815 120.3 245.387 269.873 120.237 
245.199 270 120.805 253.13 270.021 121.332 242.427 271.931 119.915 
242.67 271.715 120.269 248.686 271.778 120.644 253.157 271.357 121.082 
260.728 272.501 120.04 262.665 272.94 120.056 242.567 272.028 120.226 
249.192 272.034 120.911 249.067 272.669 120.637 257.043 272.737 120.516 
245.337 273.547 120.588 249.73 272.573 121.07 249.454 272.922 121.01 
250.149 272.669 121.278 251.891 272.792 121.607 253.342 272.922 121.304 
248.922 273.304 121.14 252.595 273.099 121.765 253.653 273.327 121.679 
254.755 273.511 121.074 255.509 273.479 121.396 258.183 273.353 121.563 
257.353 273.442 121.383 279.223 252.368 122.461 279.632 252.343 122.351 
282.156 253.59 121.886 275.37 255.597 121.828 258.973 259.817 121.557 
259.592 259.92 121.844 286.666 260.223 121.471 265.956 260.389 122.408 
286.684 266.085 122.061 243.994 271.113 121.827 248.015 270.864 121.005 
248.379 270.796 121.561 251.606 270.808 121.965 242.66 272.228 120.283 
251.139 271.768 121.609 250.558 271.49 121.735 251.82 271.973 121.479 
242.963 272.403 120.488 244.176 272.821 121.139 246.429 273.501 121.229 
248.391 273.44 121.648 251.088 272.519 121.517 250.009 273.269 121.862 
251.305 273.104 121.949 257.532 273.465 121.546 266.52 274.462 120.926 
279.943 252.349 122.556 257.736 260.114 122.615 258.845 259.863 121.82 
255.785 261.265 122.895 253.01 267.071 122.835 252.475 268.807 122.514 
244.969 270.441 122.18 245.116 270.648 122.735 250.776 270.147 122.828 
283.221 270.786 122.854 243.463 271.967 121.311 248.94 270.772 122.01 
250.198 270.577 122.509 243.284 272.302 120.934 245.616 272.4 122.909 
279.547 272.451 122.735 251.256 273.302 123.31 255.755 273.599 123.263 
261.688 273.447 122.319 279.72 252.3 123.491 278.461 252.766 123.838 
277.072 253.888 123.605 256.803 260.43 123.678 286.51 260.241 122.915 
255.606 261.255 124.046 286.745 263.535 123.148 286.493 264.491 123.584 
285.765 267.056 123.616 251.725 268.532 123.772 247.929 269.994 123.607 
284.529 268.977 124.08 248.745 270.153 123.105 249.438 270.021 123.397 
245.037 271.357 123.271 244.965 271.776 123.019 249.16 272.921 124.16 
279.39 252.492 124.368 280.173 252.413 124.242 277.315 254.145 124.935 
283.526 254.664 124.199 285.519 258.058 124.106 271.954 258.728 124.571 
285.828 259.327 124.359 286.105 261.217 124.416 286.132 262.18 124.467 
250.243 269.391 124.197 255.25 273.057 125.44 266.249 273.038 125.455 
280.048 252.672 124.935 280.749 252.842 124.842 277.526 254.426 125.655 
283.177 254.739 125.004 285.178 257.797 124.723 256.012 261.208 125.464 
257.831 260.605 125.097 253.871 263.351 125.67 285.348 265.53 124.999 
252.453 266.382 125.71 285.163 266.432 124.962 284.745 266.68 125.359 
251.636 267.469 125.995 246.981 270.534 125.419 247.193 270.634 125.907 
279.963 270.318 125.665 248.073 272.034 125.478 279.767 252.794 125.08 
281.03 254.112 126.127 281.88 253.94 125.411 282.839 255.77 126.269 
283.511 256.636 126.153 272.495 259.024 125.797 284.507 258.978 126.004 
271.756 259.86 126.591 254.823 262.33 126.291 259.499 261.225 126.464 
284.019 261.192 126.644 285.175 260.695 125.628 284.635 261.947 126.202 
254.02 263.735 127.009 263.317 262.119 127.83 283.533 265.956 126.507 
249.94 268.805 126.276 280.615 268.437 126.832 248.104 269.902 127.161 
247.768 270.193 126.719 247.697 270.556 126.754 247.83 271.061 126.588 
278.981 254.375 126.392 277.576 255.079 126.448 276.7 256.945 126.98 
273.688 259.561 127.074 263.019 262.403 128.356 252.64 266.272 127.734 
252.057 266.977 127.851 276.556 268.331 127.975 248.032 270.166 127.456 
[...]
POINT_DATA 991
COLOR_SCALARS scalars 3
0.517647 0.917647 0.505882 0.517647 0.917647 0.505882 0.517647 0.917647 0.505882 
0.517647 0.917647 0.505882 0.517647 0.917647 0.505882 
0.517647 0.917647 0.505882 0.517647 0.917647 0.505882 
0.517647 0.917647 0.505882 0.517647 0.917647 0.505882 
0.517647 0.917647 0.505882 0.517647 0.917647 0.505882 
0.517647 0.917647 0.505882 0.517647 0.917647 0.505882 
0.517647 0.917647 0.505882 0.517647 0.917647 0.505882 
0.517647 0.917647 0.505882 0.517647 0.917647 0.505882 
0.517647 0.917647 0.505882 0.517647 0.917647 0.505882 
0.517647 0.917647 0.505882 0.517647 0.917647 0.505882 
0.517647 0.917647 0.505882 0.517647 0.917647 0.505882 
0.517647 0.917647 0.505882 0.517647 0.917647 0.505882 
0.517647 0.917647 0.505882 0.517647 0.917647 0.505882 
0.517647 0.917647 0.505882 0.517647 0.917647 0.505882 
0.517647 0.917647 0.505882 0.517647 0.917647 0.505882 
0.517647 0.917647 0.505882 0.517647 0.917647 0.505882 
0.517647 0.917647 0.505882 0.517647 0.917647 0.505882 
0.517647 0.917647 0.505882 0.517647 0.917647 0.505882 
0.517647 0.917647 0.505882 0.517647 0.917647 0.505882 
0.517647 0.917647 0.505882 0.517647 0.917647 0.505882 
0.517647 0.917647 0.505882 0.517647 0.917647 0.505882 
0.517647 0.917647 0.505882 0.517647 0.917647 0.505882 
0.517647 0.917647 0.505882 0.517647 0.917647 0.505882 
0.517647 0.917647 0.505882 0.517647 0.917647 0.505882 
0.517647 0.917647 0.505882 0.517647 0.917647 0.505882 
0.517647 0.917647 0.505882 0.517647 0.917647 0.505882 
0.517647 0.917647 0.505882 0.517647 0.917647 0.505882 
0.517647 0.917647 0.505882 0.517647 0.917647 0.505882 
0.517647 0.917647 0.505882 0.517647 0.917647 0.505882 
0.517647 0.917647 0.505882 0.517647 0.917647 0.505882 
0.517647 0.917647 0.505882 0.517647 0.917647 0.505882 
0.517647 0.917647 0.505882 0.517647 0.917647 0.505882 
0.517647 0.917647 0.505882 0.517647 0.917647 0.505882 
0.517647 0.917647 0.505882 0.517647 0.917647 0.505882 
0.517647 0.917647 0.505882 0.517647 0.917647 0.505882 
0.517647 0.917647 0.505882 0.517647 0.917647 0.505882 
0.517647 0.917647 0.505882 0.517647 0.917647 0.505882 
0.517647 0.917647 0.505882 0.517647 0.917647 0.505882 
0.517647 0.917647 0.505882 0.517647 0.917647 0.505882 
0.517647 0.917647 0.505882 0.517647 0.917647 0.505882 
0.517647 0.917647 0.505882 0.517647 0.917647 0.505882 
0.517647 0.917647 0.505882 0.517647 0.917647 0.505882 
0.517647 0.917647 0.505882 0.517647 0.917647 0.505882 
0.517647 0.917647 0.505882 0.517647 0.917647 0.505882 
0.517647 0.917647 0.505882 0.517647 0.917647 0.505882 
0.517647 0.917647 0.505882 0.517647 0.917647 0.505882 
0.517647 0.917647 0.505882 0.517647 0.917647 0.505882 
0.517647 0.917647 0.505882 0.517647 0.917647 0.505882 
0.517647 0.917647 0.505882 0.517647 0.917647 0.505882 
0.517647 0.917647 0.505882 0.517647 0.917647 0.505882 
0.517647 0.917647 0.505882 0.517647 0.917647 0.505882 
0.517647 0.917647 0.505882 0.517647 0.917647 0.505882 
0.517647 0.917647 0.505882 0.517647 0.917647 0.505882 
0.517647 0.917647 0.505882 0.517647 0.917647 0.505882 
0.517647 0.917647 0.505882 0.517647 0.917647 0.505882 
0.517647 0.917647 0.505882 0.517647 0.917647 0.505882 
0.517647 0.917647 0.505882 0.517647 0.917647 0.505882 
0.517647 0.917647 0.505882 0.517647 0.917647 0.505882 
0.517647 0.917647 0.505882 0.517647 0.917647 0.505882 
0.517647 0.917647 0.505882 0.517647 0.917647 0.505882 
0.517647 0.917647 0.505882 0.517647 0.917647 0.505882 
0.517647 0.917647 0.505882 0.517647 0.917647 0.505882 
0.517647 0.917647 0.505882 0.517647 0.917647 0.505882 
0.517647 0.917647 0.505882 0.517647 0.917647 0.505882 
0.517647 0.917647 0.505882 0.517647 0.917647 0.505882 
0.517647 0.917647 0.505882 0.517647 0.917647 0.505882 
0.517647 0.917647 0.505882 0.517647 0.917647 0.505882 
0.517647 0.917647 0.505882 0.517647 0.917647 0.505882 
0.517647 0.917647 0.505882 0.517647 0.917647 0.505882 
0.517647 0.917647 0.505882 0.517647 0.917647 0.505882 
0.517647 0.917647 0.505882 0.517647 0.917647 0.505882 
0.517647 0.917647 0.505882 0.517647 0.917647 0.505882 
0.517647 0.917647 0.505882 0.517647 0.917647 0.505882 
0.517647 0.917647 0.505882 0.517647 0.917647 0.505882 
0.517647 0.917647 0.505882 0.517647 0.917647 0.505882 
0.517647 0.917647 0.505882 0.517647 0.917647 0.505882 
0.517647 0.917647 0.505882 0.517647 0.917647 0.505882 
0.517647 0.917647 0.505882 0.517647 0.917647 0.505882 
0.517647 0.917647 0.505882 0.517647 0.917647 0.505882 
0.517647 0.917647 0.505882 0.517647 0.917647 0.505882 
0.517647 0.917647 0.505882 0.517647 0.917647 0.505882 
0.517647 0.917647 0.505882 0.517647 0.917647 0.505882 
0.517647 0.917647 0.505882 0.517647 0.917647 0.505882 
0.517647 0.917647 0.505882 0.517647 0.917647 0.505882 
0.517647 0.917647 0.505882 0.517647 0.917647 0.505882 
0.517647 0.917647 0.505882 0.517647 0.917647 0.505882 
0.517647 0.917647 0.505882 0.517647 0.917647 0.505882 
0.517647 0.917647 0.505882 0.517647 0.917647 0.505882 
0.517647 0.917647 0.505882 0.517647 0.917647 0.505882 
0.517647 0.917647 0.505882 0.517647 0.917647 0.505882 
0.517647 0.917647 0.505882 0.517647 0.917647 0.505882 
0.517647 0.917647 0.505882 0.517647 0.917647 0.505882 
0.517647 0.917647 0.505882 0.517647 0.917647 0.505882 
0.517647 0.917647 0.505882 0.517647 0.917647 0.505882 
0.517647 0.917647 0.505882 0.517647 0.917647 0.505882 
0.517647 0.917647 0.505882 0.517647 0.917647 0.505882 
0.517647 0.917647 0.505882 0.517647 0.917647 0.505882 
0.517647 0.917647 0.505882 0.517647 0.917647 0.505882 
0.517647 0.917647 0.505882 0.517647 0.917647 0.505882 
0.517647 0.917647 0.505882 0.517647 0.917647 0.505882 
0.517647 0.917647 0.505882 0.517647 0.917647 0.505882 
0.517647 0.917647 0.505882 0.517647 0.917647 0.505882 
0.517647 0.917647 0.505882 0.517647 0.917647 0.505882 
0.517647 0.917647 0.505882 0.517647 0.917647 0.505882 
0.517647 0.917647 0.505882 0.517647 0.917647 0.505882 
0.517647 0.917647 0.505882 0.517647 0.917647 0.505882 
0.517647 0.917647 0.505882 0.517647 0.917647 0.505882 
0.517647 0.917647 0.505882 0.517647 0.917647 0.505882 
0.517647 0.917647 0.505882 0.517647 0.917647 0.505882 
0.517647 0.917647 0.505882 0.517647 0.917647 0.505882 
0.517647 0.917647 0.505882 0.517647 0.917647 0.505882 
0.517647 0.917647 0.505882 0.517647 0.917647 0.505882 
0.517647 0.917647 0.505882 0.517647 0.917647 0.505882 
0.517647 0.917647 0.505882 0.517647 0.917647 0.505882 
0.517647 0.917647 0.505882 0.517647 0.917647 0.505882 
0.517647 0.917647 0.505882 0.517647 0.917647 0.505882 
0.517647 0.917647 0.505882 0.517647 0.917647 0.505882 
0.517647 0.917647 0.505882 0.517647 0.917647 0.505882 
0.517647 0.917647 0.505882 0.517647 0.917647 0.505882 
0.517647 0.917647 0.505882 0.517647 0.917647 0.505882 
0.517647 0.917647 0.505882 0.517647 0.917647 0.505882 
0.517647 0.917647 0.505882 0.517647 0.917647 0.505882 
0.517647 0.917647 0.505882 0.517647 0.917647 0.505882 
0.517647 0.917647 0.505882 0.517647 0.917647 0.505882 
0.517647 0.917647 0.505882 0.517647 0.917647 0.505882 
0.517647 0.917647 0.505882 0.517647 0.917647 0.505882 
0.517647 0.917647 0.505882 0.517647 0.917647 0.505882 
0.517647 0.917647 0.505882 0.517647 0.917647 0.505882 
0.517647 0.917647 0.505882 0.517647 0.917647 0.505882 
0.517647 0.917647 0.505882 0.517647 0.917647 0.505882 
0.517647 0.917647 0.505882 0.517647 0.917647 0.505882 
0.517647 0.917647 0.505882 0.517647 0.917647 0.505882 
0.517647 0.917647 0.505882 0.517647 0.917647 0.505882 
0.517647 0.917647 0.505882 0.517647 0.917647 0.505882 
0.517647 0.917647 0.505882 0.517647 0.917647 0.505882 
0.517647 0.917647 0.505882 0.517647 0.917647 0.505882 
0.517647 0.917647 0.505882 0.517647 0.917647 0.505882 
0.517647 0.917647 0.505882 0.517647 0.917647 0.505882 
0.517647 0.917647 0.505882 0.517647 0.917647 0.505882 
0.517647 0.917647 0.505882 0.517647 0.917647 0.505882 
0.517647 0.917647 0.505882 0.517647 0.917647 0.505882 
0.517647 0.917647 0.505882 0.517647 0.917647 0.505882 
0.517647 0.917647 0.505882 0.517647 0.917647 0.505882 
0.517647 0.917647 0.505882 0.517647 0.917647 0.505882 
0.517647 0.917647 0.505882 0.517647 0.917647 0.505882 
0.517647 0.917647 0.505882 0.517647 0.917647 0.505882 
0.517647 0.917647 0.505882 0.517647 0.917647 0.505882 
0.517647 0.917647 0.505882 0.517647 0.917647 0.505882 
0.517647 0.917647 0.505882 0.517647 0.917647 0.505882 
0.517647 0.917647 0.505882 0.517647 0.917647 0.505882 
0.517647 0.917647 0.505882 0.517647 0.917647 0.505882 
0.517647 0.917647 0.505882 0.517647 0.917647 0.505882 
0.517647 0.917647 0.505882 0.517647 0.917647 0.505882 
0.517647 0.917647 0.505882 0.517647 0.917647 0.505882 
0.517647 0.917647 0.505882 0.517647 0.917647 0.505882 
0.517647 0.917647 0.505882 0.517647 0.917647 0.505882 
0.517647 0.917647 0.505882 0.517647 0.917647 0.505882 
0.517647 0.917647 0.505882 0.517647 0.917647 0.505882 
0.517647 0.917647 0.505882 0.517647 0.917647 0.505882 
0.517647 0.917647 0.505882 0.517647 0.917647 0.505882 
0.517647 0.917647 0.505882 0.517647 0.917647 0.505882 
0.517647 0.917647 0.505882 0.517647 0.917647 0.505882 
0.517647 0.917647 0.505882 0.517647 0.917647 0.505882 
0.517647 0.917647 0.505882 0.517647 0.917647 0.505882 
0.517647 0.917647 0.505882 0.517647 0.917647 0.505882 
0.517647 0.917647 0.505882 0.517647 0.917647 0.505882 
0.517647 0.917647 0.505882 0.517647 0.917647 0.505882 
0.517647 0.917647 0.505882 0.517647 0.917647 0.505882 
0.517647 0.917647 0.505882 0.517647 0.917647 0.505882 
0.517647 0.917647 0.505882 0.517647 0.917647 0.505882 
0.517647 0.917647 0.505882 0.517647 0.917647 0.505882 
0.517647 0.917647 0.505882 0.517647 0.917647 0.505882 
0.517647 0.917647 0.505882 0.517647 0.917647 0.505882 
0.517647 0.917647 0.505882 0.517647 0.917647 0.505882 
0.517647 0.917647 0.505882 0.517647 0.917647 0.505882 
0.517647 0.917647 0.505882 0.517647 0.917647 0.505882 
0.517647 0.917647 0.505882 0.517647 0.917647 0.505882 
0.517647 0.917647 0.505882 0.517647 0.917647 0.505882 
0.517647 0.917647 0.505882 0.517647 0.917647 0.505882 
0.517647 0.917647 0.505882 0.517647 0.917647 0.505882 
0.517647 0.917647 0.505882 0.517647 0.917647 0.505882 
0.517647 0.917647 0.505882 0.517647 0.917647 0.505882 
0.517647 0.917647 0.505882 0.517647 0.917647 0.505882 
0.517647 0.917647 0.505882 0.517647 0.917647 0.505882 
0.517647 0.917647 0.505882 0.517647 0.917647 0.505882 
0.517647 0.917647 0.505882 0.517647 0.917647 0.505882 
0.517647 0.917647 0.505882 0.517647 0.917647 0.505882 
0.517647 0.917647 0.505882 0.517647 0.917647 0.505882 
0.517647 0.917647 0.505882 0.517647 0.917647 0.505882 
0.517647 0.917647 0.505882 0.517647 0.917647 0.505882 
0.517647 0.917647 0.505882 0.517647 0.917647 0.505882 
0.517647 0.917647 0.505882 0.517647 0.917647 0.505882 
0.517647 0.917647 0.505882 0.517647 0.917647 0.505882 
0.517647 0.917647 0.505882 0.517647 0.917647 0.505882 
0.517647 0.917647 0.505882 0.517647 0.917647 0.505882 
0.517647 0.917647 0.505882 0.517647 0.917647 0.505882 
0.517647 0.917647 0.505882 0.517647 0.917647 0.505882 
0.517647 0.917647 0.505882 0.517647 0.917647 0.505882 
0.517647 0.917647 0.505882 0.517647 0.917647 0.505882 
0.517647 0.917647 0.505882 0.517647 0.917647 0.505882 
0.517647 0.917647 0.505882 0.517647 0.917647 0.505882 
0.517647 0.917647 0.505882 0.517647 0.917647 0.505882 
0.517647 0.917647 0.505882 0.517647 0.917647 0.505882 
0.517647 0.917647 0.505882 0.517647 0.917647 0.505882 
0.517647 0.917647 0.505882 0.517647 0.917647 0.505882 
0.517647 0.917647 0.505882 0.517647 0.917647 0.505882 
0.517647 0.917647 0.505882 0.517647 0.917647 0.505882 
0.517647 0.917647 0.505882 0.517647 0.917647 0.505882 
0.517647 0.917647 0.505882 0.517647 0.917647 0.505882 
0.517647 0.917647 0.505882 0.517647 0.917647 0.505882 
0.517647 0.917647 0.505882 0.517647 0.917647 0.505882 
0.517647 0.917647 0.505882 0.517647 0.917647 0.505882 
0.517647 0.917647 0.505882 0.517647 0.917647 0.505882 
0.517647 0.917647 0.505882 0.517647 0.917647 0.505882 
0.517647 0.917647 0.505882 0.517647 0.917647 0.505882 
0.517647 0.917647 0.505882 0.517647 0.917647 0.505882 
0.517647 0.917647 0.505882 0.517647 0.917647 0.505882 
0.517647 0.917647 0.505882 0.517647 0.917647 0.505882 
0.517647 0.917647 0.505882 0.517647 0.917647 0.505882 
0.517647 0.917647 0.505882 0.517647 0.917647 0.505882 
0.517647 0.917647 0.505882 0.517647 0.917647 0.505882 
0.517647 0.917647 0.505882 0.517647 0.917647 0.505882 
0.517647 0.917647 0.505882 0.517647 0.917647 0.505882 
0.517647 0.917647 0.505882 0.517647 0.917647 0.505882 
0.517647 0.917647 0.505882 0.517647 0.917647 0.505882 
0.517647 0.917647 0.505882 0.517647 0.917647 0.505882 
0.517647 0.917647 0.505882 0.517647 0.917647 0.505882 
0.517647 0.917647 0.505882 0.517647 0.917647 0.505882 
0.517647 0.917647 0.505882 0.517647 0.917647 0.505882 
0.517647 0.917647 0.505882 0.517647 0.917647 0.505882 
0.517647 0.917647 0.505882 0.517647 0.917647 0.505882 
0.517647 0.917647 0.505882 0.517647 0.917647 0.505882 
0.517647 0.917647 0.505882 0.517647 0.917647 0.505882 
0.517647 0.917647 0.505882 0.517647 0.917647 0.505882 
0.517647 0.917647 0.505882 0.517647 0.917647 0.505882 
0.517647 0.917647 0.505882 0.517647 0.917647 0.505882 
0.517647 0.917647 0.505882 0.517647 0.917647 0.505882 
0.517647 0.917647 0.505882 0.517647 0.917647 0.505882 
0.517647 0.917647 0.505882 0.517647 0.917647 0.505882 
0.517647 0.917647 0.505882 0.517647 0.917647 0.505882 
0.517647 0.917647 0.505882 0.517647 0.917647 0.505882 
0.517647 0.917647 0.505882 0.517647 0.917647 0.505882 
0.517647 0.917647 0.505882 0.517647 0.917647 0.505882 
0.517647 0.917647 0.505882 0.517647 0.917647 0.505882 
0.517647 0.917647 0.505882 0.517647 0.917647 0.505882 
0.517647 0.917647 0.505882 0.517647 0.917647 0.505882 
0.517647 0.917647 0.505882 0.517647 0.917647 0.505882 
0.517647 0.917647 0.505882 0.517647 0.917647 0.505882 
0.517647 0.917647 0.505882 0.517647 0.917647 0.505882 
0.517647 0.917647 0.505882 0.517647 0.917647 0.505882 
0.517647 0.917647 0.505882 0.517647 0.917647 0.505882 
0.517647 0.917647 0.505882 0.517647 0.917647 0.505882 
0.517647 0.917647 0.505882 0.517647 0.917647 0.505882 
0.517647 0.917647 0.505882 0.517647 0.917647 0.505882 
0.517647 0.917647 0.505882 0.517647 0.917647 0.505882 
0.517647 0.917647 0.505882 0.517647 0.917647 0.505882 
0.517647 0.917647 0.505882 0.517647 0.917647 0.505882 
0.517647 0.917647 0.505882 0.517647 0.917647 0.505882 
0.517647 0.917647 0.505882 0.517647 0.917647 0.505882 
0.517647 0.917647 0.505882 0.517647 0.917647 0.505882 
0.517647 0.917647 0.505882 0.517647 0.917647 0.505882 
0.517647 0.917647 0.505882 0.517647 0.917647 0.505882 
0.517647 0.917647 0.505882 0.517647 0.917647 0.505882 
0.517647 0.917647 0.505882 0.517647 0.917647 0.505882 
0.517647 0.917647 0.505882 0.517647 0.917647 0.505882 
0.517647 0.917647 0.505882 0.517647 0.917647 0.505882 
0.517647 0.917647 0.505882 0.517647 0.917647 0.505882 
0.517647 0.917647 0.505882 0.517647 0.917647 0.505882 
0.517647 0.917647 0.505882 0.517647 0.917647 0.505882 
0.517647 0.917647 0.505882 0.517647 0.917647 0.505882 
0.517647 0.917647 0.505882 0.517647 0.917647 0.505882 
0.517647 0.917647 0.505882 0.517647 0.917647 0.505882 
0.517647 0.917647 0.505882 0.517647 0.917647 0.505882 
0.517647 0.917647 0.505882 0.517647 0.917647 0.505882 
0.517647 0.917647 0.505882 0.517647 0.917647 0.505882 
0.517647 0.917647 0.505882 0.517647 0.917647 0.505882 
0.517647 0.917647 0.505882 0.517647 0.917647 0.505882 
0.517647 0.917647 0.505882 0.517647 0.917647 0.505882 
0.517647 0.917647 0.505882 0.517647 0.917647 0.505882 
0.517647 0.917647 0.505882 0.517647 0.917647 0.505882 
0.517647 0.917647 0.505882 0.517647 0.917647 0.505882 
0.517647 0.917647 0.505882 0.517647 0.917647 0.505882 
0.517647 0.917647 0.505882 0.517647 0.917647 0.505882 
0.517647 0.917647 0.505882 0.517647 0.917647 0.505882 
0.517647 0.917647 0.505882 0.517647 0.917647 0.505882 
0.517647 0.917647 0.505882 0.517647 0.917647 0.505882 
0.517647 0.917647 0.505882 0.517647 0.917647 0.505882 
0.517647 0.917647 0.505882 0.517647 0.917647 0.505882 
0.517647 0.917647 0.505882 0.517647 0.917647 0.505882 
0.517647 0.917647 0.505882 0.517647 0.917647 0.505882 
0.517647 0.917647 0.505882 0.517647 0.917647 0.505882 
0.517647 0.917647 0.505882 0.517647 0.917647 0.505882 
0.517647 0.917647 0.505882 0.517647 0.917647 0.505882 
0.517647 0.917647 0.505882 0.517647 0.917647 0.505882 
0.517647 0.917647 0.505882 0.517647 0.917647 0.505882 
0.517647 0.917647 0.505882 0.517647 0.917647 0.505882 
0.517647 0.917647 0.505882 0.517647 0.917647 0.505882 
0.517647 0.917647 0.505882 0.517647 0.917647 0.505882 
0.517647 0.917647 0.505882 0.517647 0.917647 0.505882 
0.517647 0.917647 0.505882 0.517647 0.917647 0.505882 
0.517647 0.917647 0.505882 0.517647 0.917647 0.505882 
0.517647 0.917647 0.505882 0.517647 0.917647 0.505882 
0.517647 0.917647 0.505882 0.517647 0.917647 0.505882 
0.517647 0.917647 0.505882 0.517647 0.917647 0.505882 
0.517647 0.917647 0.505882 0.517647 0.917647 0.505882 
0.517647 0.917647 0.505882 0.517647 0.917647 0.505882 
0.517647 0.917647 0.505882 0.517647 0.917647 0.505882 
0.517647 0.917647 0.505882 0.517647 0.917647 0.505882 
0.517647 0.917647 0.505882 0.517647 0.917647 0.505882 
0.517647 0.917647 0.505882 0.517647 0.917647 0.505882 
0.517647 0.917647 0.505882 0.517647 0.917647 0.505882 
0.517647 0.917647 0.505882 0.517647 0.917647 0.505882 
0.517647 0.917647 0.505882 0.517647 0.917647 0.505882 
0.517647 0.917647 0.505882 0.517647 0.917647 0.505882 
0.517647 0.917647 0.505882 0.517647 0.917647 0.505882 
0.517647 0.917647 0.505882 0.517647 0.917647 0.505882 
0.517647 0.917647 0.505882 0.517647 0.917647 0.505882 
0.517647 0.917647 0.505882 0.517647 0.917647 0.505882 
0.517647 0.917647 0.505882 0.517647 0.917647 0.505882 
0.517647 0.917647 0.505882 0.517647 0.917647 0.505882 
0.517647 0.917647 0.505882 0.517647 0.917647 0.505882 
0.517647 0.917647 0.505882 0.517647 0.917647 0.505882 
0.517647 0.917647 0.505882 0.517647 0.917647 0.505882 
0.517647 0.917647 0.505882 0.517647 0.917647 0.505882 
0.517647 0.917647 0.505882 0.517647 0.917647 0.505882 
0.517647 0.917647 0.505882 0.517647 0.917647 0.505882 
0.517647 0.917647 0.505882 0.517647 0.917647 0.505882 
0.517647 0.917647 0.505882 0.517647 0.917647 0.505882 
0.517647 0.917647 0.505882 0.517647 0.917647 0.505882 
0.517647 0.917647 0.505882 0.517647 0.917647 0.505882 
0.517647 0.917647 0.505882 0.517647 0.917647 0.505882 
0.517647 0.917647 0.505882 0.517647 0.917647 0.505882 
0.517647 0.917647 0.505882 0.517647 0.917647 0.505882 
0.517647 0.917647 0.505882 0.517647 0.917647 0.505882 
0.517647 0.917647 0.505882 0.517647 0.917647 0.505882 
0.517647 0.917647 0.505882 0.517647 0.917647 0.505882 
0.517647 0.917647 0.505882 0.517647 0.917647 0.505882 
0.517647 0.917647 0.505882 0.517647 0.917647 0.505882 
0.517647 0.917647 0.505882 0.517647 0.917647 0.505882 
0.517647 0.917647 0.505882 0.517647 0.917647 0.505882 
0.517647 0.917647 0.505882 0.517647 0.917647 0.505882 
0.517647 0.917647 0.505882 0.517647 0.917647 0.505882 
0.517647 0.917647 0.505882 0.517647 0.917647 0.505882 
0.517647 0.917647 0.505882 0.517647 0.917647 0.505882 
0.517647 0.917647 0.505882 0.517647 0.917647 0.505882 
0.517647 0.917647 0.505882 0.517647 0.917647 0.505882 
0.517647 0.917647 0.505882 0.517647 0.917647 0.505882 
0.517647 0.917647 0.505882 0.517647 0.917647 0.505882 
0.517647 0.917647 0.505882 0.517647 0.917647 0.505882 
0.517647 0.917647 0.505882 0.517647 0.917647 0.505882 
0.517647 0.917647 0.505882 0.517647 0.917647 0.505882 
0.517647 0.917647 0.505882 0.517647 0.917647 0.505882 
0.517647 0.917647 0.505882 0.517647 0.917647 0.505882 
0.517647 0.917647 0.505882 0.517647 0.917647 0.505882 
0.517647 0.917647 0.505882 0.517647 0.917647 0.505882 
0.517647 0.917647 0.505882 0.517647 0.917647 0.505882 
0.517647 0.917647 0.505882 0.517647 0.917647 0.505882 
0.517647 0.917647 0.505882 0.517647 0.917647 0.505882 
0.517647 0.917647 0.505882 0.517647 0.917647 0.505882 
0.517647 0.917647 0.505882 0.517647 0.917647 0.505882 
0.517647 0.917647 0.505882 0.517647 0.917647 0.505882 
0.517647 0.917647 0.505882 0.517647 0.917647 0.505882 