# vtk DataFile Version 4.2
vtk output
ASCII
DATASET POLYDATA
POINTS 557 float
249.106 261.916 113.913 246.963 262.048 113.144 247.19 263.359 113.09 
247.653 264.261 113.483 245.616 265.397 113.268 245.954 265.615 113.407 
244.781 262.236 113.174 249.534 262.286 114.185 248.695 263.338 113.814 
249.64 262.583 114.403 248.826 263.539 114.057 245.049 264.448 113.095 
247.671 264.529 113.637 246.811 265.427 113.619 244.071 266.07 113.622 
245.461 265.997 113.542 244.612 266.857 113.937 245.658 266.52 113.885 
244.565 267.259 114.23 244.272 267.457 114.486 245.242 267.334 114.435 
243.657 259.576 114.228 245.186 259.306 114.199 250.978 261.363 115.427 
241.928 263.279 114.053 248.732 263.895 114.256 242.37 265.956 114.207 
246.505 266.257 114.157 242.628 267.205 114.756 243.079 267.438 114.776 
243.384 267.727 115.047 245.27 267.563 114.821 243.291 257.999 115.235 
242.79 257.49 115.765 251.331 260.884 115.82 251.827 261.186 116.167 
250.891 262.396 115.687 251.446 262.12 116.065 251.785 261.642 116.183 
240.636 267.221 115.622 246.621 266.871 115.193 244.749 267.996 115.584 
245.003 256.486 116.124 240.552 257.993 116.562 240.285 258.367 116.5 
239.96 259.921 115.927 253.004 261.21 117.324 251.632 262.334 116.432 
251.511 262.675 116.735 238.014 264.057 116.257 249.33 264.521 116.4 
243.419 255.788 117.337 240.6 256.905 118.022 236.363 262.346 117.828 
236.334 262.888 117.583 238.081 268.763 117.786 241.712 255.752 118.972 
242.433 255.7 118.099 248.992 256.073 117.583 239.857 257.544 118.176 
236.754 261.235 118.313 253.34 260.073 117.879 253.873 260.532 118.334 
251.408 263.411 118.384 235.405 266.38 118.04 236.912 267.747 117.697 
245.755 268.103 118.197 244.577 254.405 118.965 247.86 254.08 119.378 
252.876 258.589 118.325 255.103 260.101 119.583 255.341 260.18 119.862 
255.293 260.424 119.924 255.53 260.193 120.221 235.847 261.25 119.215 
232.577 263.593 119.706 253.302 262.314 119.311 246.933 267.287 118.978 
243.486 269.368 118.717 238.663 271.045 120.072 243.637 254.006 120.933 
241.418 255.741 120 231.357 264.221 120.443 232.68 267.169 120.308 
246.295 267.904 119.82 240.985 270.795 119.852 238.12 271.207 120.729 
239.505 271.241 120.237 245.32 253.153 121.506 249.268 253.497 120.768 
242.552 254.735 121.26 255.863 259.391 120.996 255.878 259.336 121.164 
255.875 259.586 121.035 231.156 262.658 121.152 253.267 262.412 120.789 
233.741 268.652 120.66 234.099 269.406 121.363 237.978 271.487 121.852 
240 271.648 121.108 245.196 253.042 122.193 248.802 252.597 122.155 
251.375 253.581 122.062 255.888 259.405 121.298 237.481 258.992 121.28 
255.906 259.567 121.301 231.963 260.785 122.258 235.458 260.317 120.954 
255.724 260.041 121.401 254.88 261.057 121.411 229.943 262.991 122.051 
229.351 264.121 122.444 242.142 271.091 121.44 244.209 253.504 123.147 
253.029 254.449 122.825 242.812 254.564 122.729 255.002 257.584 122.188 
255.02 257.487 122.637 255.067 257.955 121.534 255.149 257.923 122.719 
255.375 258.597 122.538 255.808 259.469 121.543 255.38 259.812 122.46 
255.529 259.484 122.305 228.894 261.879 123.791 229.732 267.213 123.401 
233.371 269.76 123.208 244.288 270.035 122.087 235.68 270.821 123.085 
242.349 271.333 123.029 248.773 251.8 124.06 250.714 252.391 123.563 
253.03 254.099 123.593 253.962 255.488 123.411 254.692 256.962 123.431 
229.933 260.314 124.723 229.43 260.821 124.577 255.107 259.783 123.105 
255.015 259.457 123.562 227.936 262.8 124.766 233.127 269.957 124.762 
238.283 271.52 123.978 238.939 271.604 124.02 246.364 252.132 125.694 
247.712 251.641 125.568 252.106 252.831 125.002 243.789 254.204 125.159 
253.41 254.624 124.852 242.713 255.057 124.849 254.245 256.082 123.969 
254.046 256.052 124.565 230.566 259.646 125.707 254.525 259.119 124.473 
229.13 260.828 125.433 252.922 261.551 124.682 249.413 264.45 124.609 
227.868 264.487 124.797 228.222 266.276 125.339 246.597 268.217 124.754 
247.03 267.587 125.296 236.765 271.115 124.828 239.6 271.6 124.182 
240.443 271.568 124.232 246.243 252.282 126.213 249.052 251.476 126.046 
249.75 251.526 125.892 251.255 252.047 125.315 253.889 256.628 125.233 
234.463 258.202 125.824 239.576 256.758 125.759 227.925 262.349 126.28 
228.726 267.145 125.983 245.41 269.721 125.118 251.789 252.555 126.309 
245.606 253.171 127.095 252.49 253.822 126.544 237.328 256.84 127.531 
242.521 255.648 126.763 232.021 258.761 127.781 232.544 258.53 127.492 
227.641 265.442 127.34 227.878 266.067 127.664 230.293 268.632 127.633 
232.486 269.747 127.353 242.897 270.844 126.671 245.04 270.02 125.836 
246.568 252.47 127.473 251.425 252.32 126.722 246.783 252.652 128.088 
251.562 252.953 127.548 251.763 253.671 127.794 235.975 256.967 128.325 
228.242 262.193 127.884 227.532 263.813 127.363 227.911 266.08 128.513 
228.611 267.15 128.611 244.631 270.011 127.579 247.871 252.161 128.571 
248.836 251.765 128.112 250.562 252.103 127.654 246.166 253.533 128.249 
246.8 253.145 128.576 251.088 253.263 128.531 245.915 254.503 128.76 
235.554 257.034 129.069 238.527 256.433 129.365 243.987 255.538 128.316 
244.6 255.17 128.328 251.587 256.026 128.238 240.536 256.463 128.725 
250.838 257.592 128.629 230.231 260.479 129.171 227.844 263.102 128.124 
227.565 264.488 128.189 227.761 265.544 128.837 233.758 269.804 128.937 
237.521 270.274 128.564 247.601 252.473 128.786 248.412 252.143 128.936 
247.884 252.649 129.157 247.599 253.74 129.395 250.295 254.055 129.349 
238.031 256.374 130.115 237.837 256.453 130.089 250.555 255.027 129.169 
236.039 256.909 129.755 238.49 256.441 129.982 242.423 256.57 129.507 
245.333 256.588 129.931 250.193 257.024 129.158 233.326 258.356 129.759 
232.054 259.107 129.486 247.745 260.367 130.051 229.484 261.891 130.149 
228.621 266.857 129.757 245.853 268.338 128.815 248.3 252.432 129.261 
248.911 252.177 129.145 248.617 252.551 129.496 249.978 252.88 129.216 
249.552 252.818 129.497 248.315 253.424 129.581 248.667 252.904 129.632 
249.177 253.232 129.698 249.33 252.947 129.643 238.059 256.406 130.231 
247.194 255.248 129.647 238.204 256.545 130.531 238.801 256.551 130.527 
249.248 255.587 129.672 246.888 257.134 130.168 248.218 256.518 129.908 
246.714 257.861 130.366 246.582 258.86 130.624 227.923 264.563 129.55 
228.002 265.582 129.832 228.415 266.141 130.265 229.485 266.88 131.239 
230.998 268.336 130.877 244.963 268.151 129.89 241.279 269.061 130.478 
248.922 252.402 129.449 249.21 252.334 129.314 248.9 252.645 129.609 
237.231 257.157 131.533 231.096 261.8 132.044 245.279 262.898 131.714 
228.56 265.829 130.678 242.487 266.556 132.076 241.585 267.337 131.878 
241.139 267.877 131.614 231.704 268.288 131.536 238.218 268.419 131.689 
243.276 268.268 130.734 231.961 261.532 132.517 242.168 263.462 133.234 
229.683 264.74 132.168 229.845 266.089 132.254 230.582 267.34 132.126 
241.168 258.45 132.865 235.311 259.333 133.022 230.366 266.601 132.555 
236.396 266.604 133.531 231.444 267.075 132.844 231.66 267.424 132.609 
233.37 267.51 132.859 237.755 258.604 133.248 239.248 259.296 133.844 
236.472 260.439 134.118 237.112 263.049 134.636 232.267 264.679 133.888 
232.623 264.302 134.007 236.959 264.608 134.314 235.154 265.333 134.311 
232.969 265.848 133.929 233.35 266.368 133.717 232.031 267 133.04 
238.888 260.468 134.368 235.789 262.619 134.572 233.496 264.835 134.295 
239.638 259.277 321.184 236.784 260.641 320.657 239.173 260.564 320.666 
238.056 261.257 320.468 233.749 262.694 320.766 232.968 263.971 320.797 
234.428 263.754 320.412 233.365 265.155 320.728 239.696 257.883 322.219 
235.474 260.457 321.093 242.465 259.982 321.802 240.371 262.035 320.879 
231.559 262.974 321.798 230.898 264.337 321.874 236.634 266.272 321.245 
233.901 266.83 321.556 237.367 257.948 322.375 244.204 261.498 322.453 
230.21 265.319 322.508 230.321 266.506 322.7 233.164 268.051 322.772 
236.93 257.311 323.487 235.315 258.722 322.56 243.139 258.973 322.593 
230.419 262.242 323.289 242.626 266.208 322.818 233.554 268.94 323.876 
249.872 252.41 325.574 250.113 252.355 325.731 249.093 252.895 325.423 
249.719 252.675 325.405 249.435 252.942 325.313 249.196 253.285 325.316 
249.707 253.022 325.311 238.658 256.653 324.476 243.348 257.879 323.561 
244.66 258.583 323.639 246.096 259.176 324.097 229.536 263.066 323.641 
228.637 264.74 324.29 228.358 265.24 324.771 246.175 265.116 324.47 
229.889 267.217 323.91 244.232 267.549 324.165 239.911 268.627 323.685 
240.947 268.522 323.784 242.466 268.517 324.119 232.682 269.208 324.754 
241.354 269.085 324.409 244.937 268.361 325.237 249.862 251.977 326.25 
248.731 252.753 325.677 250.356 253.033 325.626 250.479 254.16 325.617 
237.487 256.542 325.094 246.756 255.362 325.423 248.982 255.046 325.272 
245.84 256.526 325.016 242.563 256.962 324.427 228.259 266.151 325.555 
228.492 266.529 325.614 229.051 267.114 325.389 230.972 268.779 325.508 
242.658 269.397 325.076 244.996 269.021 326.083 247.781 252.384 326.671 
248.787 251.756 327.066 250.327 251.941 326.621 251.021 252.518 326.425 
251.214 252.859 326.413 251.465 253.113 326.637 246.351 254.058 326.305 
244.476 255.076 326.733 244.19 255.677 326.099 241.811 256.318 325.769 
243.116 256.536 325.151 232.257 258.733 325.879 250.408 259.005 326.354 
229.581 261.297 325.387 228.093 262.966 325.922 227.681 265.189 326.925 
228.128 266.062 325.998 246.177 268.328 327.012 241.163 270.265 326.181 
244.205 269.656 326.294 251.346 252.358 327.247 251.662 252.715 327.315 
246.447 252.892 327.319 240.704 256.177 327.177 230.657 259.556 326.947 
228.17 262.253 326.778 227.697 263.381 327.007 244.46 270.052 327.605 
249.59 251.526 327.96 250.688 251.831 327.635 251.939 252.743 328.14 
252.402 254.348 327.821 241.403 255.918 327.972 252.826 256.897 328.134 
229.684 260.108 328.225 227.487 264.122 327.945 227.865 266.023 328.757 
231.688 269.46 327.7 246.477 268.502 328.399 251.303 252.104 328.427 
242.991 255.101 328.557 253.733 256.603 329.451 230.603 259.522 329.099 
229.107 260.64 328.988 228.68 261.17 329.228 228.33 261.653 328.723 
[...]
POINT_DATA 557
COLOR_SCALARS scalars 3
0.517647 0.917647 0.505882 0.517647 0.917647 0.505882 0.517647 0.917647 0.505882 
0.517647 0.917647 0.505882 0.517647 0.917647 0.505882 
0.517647 0.917647 0.505882 0.517647 0.917647 0.505882 
0.517647 0.917647 0.505882 0.517647 0.917647 0.505882 
0.517647 0.917647 0.505882 0.517647 0.917647 0.505882 
0.517647 0.917647 0.505882 0.517647 0.917647 0.505882 
0.517647 0.917647 0.505882 0.517647 0.917647 0.505882 
0.517647 0.917647 0.505882 0.517647 0.917647 0.505882 
0.517647 0.917647 0.505882 0.517647 0.917647 0.505882 
0.517647 0.917647 0.505882 0.517647 0.917647 0.505882 
0.517647 0.917647 0.505882 0.517647 0.917647 0.505882 
0.517647 0.917647 0.505882 0.517647 0.917647 0.505882 
0.517647 0.917647 0.505882 0.517647 0.917647 0.505882 
0.517647 0.917647 0.505882 0.517647 0.917647 0.505882 
0.517647 0.917647 0.505882 0.517647 0.917647 0.505882 
0.517647 0.917647 0.505882 0.517647 0.917647 0.505882 
0.517647 0.917647 0.505882 0.517647 0.917647 0.505882 
0.517647 0.917647 0.505882 0.517647 0.917647 0.505882 
0.517647 0.917647 0.505882 0.517647 0.917647 0.505882 
0.517647 0.917647 0.505882 0.517647 0.917647 0.505882 
0.517647 0.917647 0.505882 0.517647 0.917647 0.505882 
0.517647 0.917647 0.505882 0.517647 0.917647 0.505882 
0.517647 0.917647 0.505882 0.517647 0.917647 0.505882 
0.517647 0.917647 0.505882 0.517647 0.917647 0.505882 
0.517647 0.917647 0.505882 0.517647 0.917647 0.505882 
0.517647 0.917647 0.505882 0.517647 0.917647 0.505882 
0.517647 0.917647 0.505882 0.517647 0.917647 0.505882 
0.517647 0.917647 0.505882 0.517647 0.917647 0.505882 
0.517647 0.917647 0.505882 0.517647 0.917647 0.505882 
0.517647 0.917647 0.505882 0.517647 0.917647 0.505882 
0.517647 0.917647 0.505882 0.517647 0.917647 0.505882 
0.517647 0.917647 0.505882 0.517647 0.917647 0.505882 
0.517647 0.917647 0.505882 0.517647 0.917647 0.505882 
0.517647 0.917647 0.505882 0.517647 0.917647 0.505882 
0.517647 0.917647 0.505882 0.517647 0.917647 0.505882 
0.517647 0.917647 0.505882 0.517647 0.917647 0.505882 
0.517647 0.917647 0.505882 0.517647 0.917647 0.505882 
0.517647 0.917647 0.505882 0.517647 0.917647 0.505882 
0.517647 0.917647 0.505882 0.517647 0.917647 0.505882 
0.517647 0.917647 0.505882 0.517647 0.917647 0.505882 
0.517647 0.917647 0.505882 0.517647 0.917647 0.505882 
0.517647 0.917647 0.505882 0.517647 0.917647 0.505882 
0.517647 0.917647 0.505882 0.517647 0.917647 0.505882 
0.517647 0.917647 0.505882 0.517647 0.917647 0.505882 
0.517647 0.917647 0.505882 0.517647 0.917647 0.505882 
0.517647 0.917647 0.505882 0.517647 0.917647 0.505882 
0.517647 0.917647 0.505882 0.517647 0.917647 0.505882 
0.517647 0.917647 0.505882 0.517647 0.917647 0.505882 
0.517647 0.917647 0.505882 0.517647 0.917647 0.505882 
0.517647 0.917647 0.505882 0.517647 0.917647 0.505882 
0.517647 0.917647 0.505882 0.517647 0.917647 0.505882 
0.517647 0.917647 0.505882 0.517647 0.917647 0.505882 
0.517647 0.917647 0.505882 0.517647 0.917647 0.505882 
0.517647 0.917647 0.505882 0.517647 0.917647 0.505882 
0.517647 0.917647 0.505882 0.517647 0.917647 0.505882 
0.517647 0.917647 0.505882 0.517647 0.917647 0.505882 
0.517647 0.917647 0.505882 0.517647 0.917647 0.505882 
0.517647 0.917647 0.505882 0.517647 0.917647 0.505882 
0.517647 0.917647 0.505882 0.517647 0.917647 0.505882 
0.517647 0.917647 0.505882 0.517647 0.917647 0.505882 
0.517647 0.917647 0.505882 0.517647 0.917647 0.505882 
0.517647 0.917647 0.505882 0.517647 0.917647 0.505882 
0.517647 0.917647 0.505882 0.517647 0.917647 0.505882 
0.517647 0.917647 0.505882 0.517647 0.917647 0.505882 
0.517647 0.917647 0.505882 0.517647 0.917647 0.505882 
0.517647 0.917647 0.505882 0.517647 0.917647 0.505882 
0.517647 0.917647 0.505882 0.517647 0.917647 0.505882 
0.517647 0.917647 0.505882 0.517647 0.917647 0.505882 
0.517647 0.917647 0.505882 0.517647 0.917647 0.505882 
0.517647 0.917647 0.505882 0.517647 0.917647 0.505882 
0.517647 0.917647 0.505882 0.517647 0.917647 0.505882 
0.517647 0.917647 0.505882 0.517647 0.917647 0.505882 
0.517647 0.917647 0.505882 0.517647 0.917647 0.505882 
0.517647 0.917647 0.505882 0.517647 0.917647 0.505882 
0.517647 0.917647 0.505882 0.517647 0.917647 0.505882 
0.517647 0.917647 0.505882 0.517647 0.917647 0.505882 
0.517647 0.917647 0.505882 0.517647 0.917647 0.505882 
0.517647 0.917647 0.505882 0.517647 0.917647 0.505882 
0.517647 0.917647 0.505882 0.517647 0.917647 0.505882 
0.517647 0.917647 0.505882 0.517647 0.917647 0.505882 
0.517647 0.917647 0.505882 0.517647 0.917647 0.505882 
0.517647 0.917647 0.505882 0.517647 0.917647 0.505882 
0.517647 0.917647 0.505882 0.517647 0.917647 0.505882 
0.517647 0.917647 0.505882 0.517647 0.917647 0.505882 
0.517647 0.917647 0.505882 0.517647 0.917647 0.505882 
0.517647 0.917647 0.505882 0.517647 0.917647 0.505882 
0.517647 0.917647 0.505882 0.517647 0.917647 0.505882 
0.517647 0.917647 0.505882 0.517647 0.917647 0.505882 
0.517647 0.917647 0.505882 0.517647 0.917647 0.505882 
0.517647 0.917647 0.505882 0.517647 0.917647 0.505882 
0.517647 0.917647 0.505882 0.517647 0.917647 0.505882 
0.517647 0.917647 0.505882 0.517647 0.917647 0.505882 
0.517647 0.917647 0.505882 0.517647 0.917647 0.505882 
0.517647 0.917647 0.505882 0.517647 0.917647 0.505882 
0.517647 0.917647 0.505882 0.517647 0.917647 0.505882 
0.517647 0.917647 0.505882 0.517647 0.917647 0.505882 
0.517647 0.917647 0.505882 0.517647 0.917647 0.505882 
0.517647 0.917647 0.505882 0.517647 0.917647 0.505882 
0.517647 0.917647 0.505882 0.517647 0.917647 0.505882 
0.517647 0.917647 0.505882 0.517647 0.917647 0.505882 
0.517647 0.917647 0.505882 0.517647 0.917647 0.505882 
0.517647 0.917647 0.505882 0.517647 0.917647 0.505882 
0.517647 0.917647 0.505882 0.517647 0.917647 0.505882 
0.517647 0.917647 0.505882 0.517647 0.917647 0.505882 
0.517647 0.917647 0.505882 0.517647 0.917647 0.505882 
0.517647 0.917647 0.505882 0.517647 0.917647 0.505882 
0.517647 0.917647 0.505882 0.517647 0.917647 0.505882 
0.517647 0.917647 0.505882 0.517647 0.917647 0.505882 
0.517647 0.917647 0.505882 0.517647 0.917647 0.505882 
0.517647 0.917647 0.505882 0.517647 0.917647 0.505882 
0.517647 0.917647 0.505882 0.517647 0.917647 0.505882 
0.517647 0.917647 0.505882 0.517647 0.917647 0.505882 
0.517647 0.917647 0.505882 0.517647 0.917647 0.505882 
0.517647 0.917647 0.505882 0.517647 0.917647 0.505882 
0.517647 0.917647 0.505882 0.517647 0.917647 0.505882 
0.517647 0.917647 0.505882 0.517647 0.917647 0.505882 
0.517647 0.917647 0.505882 0.517647 0.917647 0.505882 
0.517647 0.917647 0.505882 0.517647 0.917647 0.505882 
0.517647 0.917647 0.505882 0.517647 0.917647 0.505882 
0.517647 0.917647 0.505882 0.517647 0.917647 0.505882 
0.517647 0.917647 0.505882 0.517647 0.917647 0.505882 
0.517647 0.917647 0.505882 0.517647 0.917647 0.505882 
0.517647 0.917647 0.505882 0.517647 0.917647 0.505882 
0.517647 0.917647 0.505882 0.517647 0.917647 0.505882 
0.517647 0.917647 0.505882 0.517647 0.917647 0.505882 
0.517647 0.917647 0.505882 0.517647 0.917647 0.505882 
0.517647 0.917647 0.505882 0.517647 0.917647 0.505882 
0.517647 0.917647 0.505882 0.517647 0.917647 0.505882 
0.517647 0.917647 0.505882 0.517647 0.917647 0.505882 
0.517647 0.917647 0.505882 0.517647 0.917647 0.505882 
0.517647 0.917647 0.505882 0.517647 0.917647 0.505882 
0.517647 0.917647 0.505882 0.517647 0.917647 0.505882 
0.517647 0.917647 0.505882 0.517647 0.917647 0.505882 
0.517647 0.917647 0.505882 0.517647 0.917647 0.505882 
0.517647 0.917647 0.505882 0.517647 0.917647 0.505882 
0.517647 0.917647 0.505882 0.517647 0.917647 0.505882 
0.517647 0.917647 0.505882 0.517647 0.917647 0.505882 
0.517647 0.917647 0.505882 0.517647 0.917647 0.505882 
0.517647 0.917647 0.505882 0.517647 0.917647 0.505882 
0.517647 0.917647 0.505882 0.517647 0.917647 0.505882 
0.517647 0.917647 0.505882 0.517647 0.917647 0.505882 
0.517647 0.917647 0.505882 0.517647 0.917647 0.505882 
0.517647 0.917647 0.505882 0.517647 0.917647 0.505882 
0.517647 0.917647 0.505882 0.517647 0.917647 0.505882 
0.517647 0.917647 0.505882 0.517647 0.917647 0.505882 
0.517647 0.917647 0.505882 0.517647 0.917647 0.505882 
0.517647 0.917647 0.505882 0.517647 0.917647 0.505882 
0.517647 0.917647 0.505882 0.517647 0.917647 0.505882 
0.517647 0.917647 0.505882 0.517647 0.917647 0.505882 
0.517647 0.917647 0.505882 0.517647 0.917647 0.505882 
0.517647 0.917647 0.505882 0.517647 0.917647 0.505882 
0.517647 0.917647 0.505882 0.517647 0.917647 0.505882 
0.517647 0.917647 0.505882 0.517647 0.917647 0.505882 
0.517647 0.917647 0.505882 0.517647 0.917647 0.505882 
0.517647 0.917647 0.505882 0.517647 0.917647 0.505882 
0.517647 0.917647 0.505882 0.517647 0.917647 0.505882 
0.517647 0.917647 0.505882 0.517647 0.917647 0.505882 
0.517647 0.917647 0.505882 0.517647 0.917647 0.505882 
0.517647 0.917647 0.505882 0.517647 0.917647 0.505882 
0.517647 0.917647 0.505882 0.517647 0.917647 0.505882 
0.517647 0.917647 0.505882 0.517647 0.917647 0.505882 
0.517647 0.917647 0.505882 0.517647 0.917647 0.505882 
0.517647 0.917647 0.505882 0.517647 0.917647 0.505882 
0.517647 0.917647 0.505882 0.517647 0.917647 0.505882 
0.517647 0.917647 0.505882 0.517647 0.917647 0.505882 
0.517647 0.917647 0.505882 0.517647 0.917647 0.505882 
0.517647 0.917647 0.505882 0.517647 0.917647 0.505882 
0.517647 0.917647 0.505882 0.517647 0.917647 0.505882 
0.517647 0.917647 0.505882 0.517647 0.917647 0.505882 
0.517647 0.917647 0.505882 0.517647 0.917647 0.505882 
0.517647 0.917647 0.505882 0.517647 0.917647 0.505882 
0.517647 0.917647 0.505882 0.517647 0.917647 0.505882 
0.517647 0.917647 0.505882 0.517647 0.917647 0.505882 
0.517647 0.917647 0.505882 0.517647 0.917647 0.505882 
0.517647 0.917647 0.505882 0.517647 0.917647 0.505882 
0.517647 0.917647 0.505882 0.517647 0.917647 0.505882 
0.517647 0.917647 0.505882 0.517647 0.917647 0.505882 
0.517647 0.917647 0.505882 0.517647 0.917647 0.505882 
0.517647 0.917647 0.505882 0.517647 0.917647 0.505882 
0.517647 0.917647 0.505882 0.517647 0.917647 0.505882 
0.517647 0.917647 0.505882 0.517647 0.917647 0.505882 
0.517647 0.917647 0.505882 0.517647 0.917647 0.505882 
0.517647 0.917647 0.505882 0.517647 0.917647 0.505882 
0.517647 0.917647 0.505882 0.517647 0.917647 0.505882 
0.517647 0.917647 0.505882 0.517647 0.917647 0.505882 
0.517647 0.917647 0.505882 0.517647 0.917647 0.505882 
0.517647 0.917647 0.505882 0.517647 0.917647 0.505882 
0.517647 0.917647 0.505882 0.517647 0.917647 0.505882 
0.517647 0.917647 0.505882 0.517647 0.917647 0.505882 
0.517647 0.917647 0.505882 0.517647 0.917647 0.505882 
0.517647 0.917647 0.505882 0.517647 0.917647 0.505882 
0.517647 0.917647 0.505882 0.517647 0.917647 0.505882 
0.517647 0.917647 0.505882 0.517647 0.917647 0.505882 
0.517647 0.917647 0.505882 0.517647 0.917647 0.505882 
0.517647 0.917647 0.505882 0.517647 0.917647 0.505882 
0.517647 0.917647 0.505882 0.517647 0.917647 0.505882 
0.517647 0.917647 0.505882 0.517647 0.917647 0.505882 
0.517647 0.917647 0.505882 0.517647 0.917647 0.505882 
0.517647 0.917647 0.505882 0.517647 0.917647 0.505882 
0.517647 0.917647 0.505882 0.517647 0.917647 0.505882 
0.517647 0.917647 0.505882 0.517647 0.917647 0.505882 
0.517647 0.917647 0.505882 0.517647 0.917647 0.505882 
0.517647 0.917647 0.505882 0.517647 0.917647 0.505882 
0.517647 0.917647 0.505882 0.517647 0.917647 0.505882 
0.517647 0.917647 0.505882 0.517647 0.917647 0.505882 
0.517647 0.917647 0.505882 0.517647 0.917647 0.505882 
0.517647 0.917647 0.505882 0.517647 0.917647 0.505882 
0.517647 0.917647 0.505882 0.517647 0.917647 0.505882 
0.517647 0.917647 0.505882 0.517647 0.917647 0.505882 
0.517647 0.917647 0.505882 0.517647 0.917647 0.505882 
0.517647 0.917647 0.505882 0.517647 0.917647 0.505882 
0.517647 0.917647 0.505882 0.517647 0.917647 0.505882 
0.517647 0.917647 0.505882 0.517647 0.917647 0.505882 
0.517647 0.917647 0.505882 0.517647 0.917647 0.505882 
0.517647 0.917647 0.505882 0.517647 0.917647 0.505882 
0.517647 0.917647 0.505882 0.517647 0.917647 0.505882 
0.517647 0.917647 0.505882 0.517647 0.917647 0.505882 
0.517647 0.917647 0.505882 0.517647 0.917647 0.505882 
0.517647 0.917647 0.505882 0.517647 0.917647 0.505882 
0.517647 0.917647 0.505882 0.517647 0.917647 0.505882 
0.517647 0.917647 0.505882 0.517647 0.917647 0.505882 
0.517647 0.917647 0.505882 0.517647 0.917647 0.505882 
0.517647 0.917647 0.505882 0.517647 0.917647 0.505882 
0.517647 0.917647 0.505882 0.517647 0.917647 0.505882 
0.517647 0.917647 0.505882 0.517647 0.917647 0.505882 
0.517647 0.917647 0.505882 0.517647 0.917647 0.505882 
0.517647 0.917647 0.505882 0.517647 0.917647 0.505882 
0.517647 0.917647 0.505882 0.517647 0.917647 0.505882 
0.517647 0.917647 0.505882 0.517647 0.917647 0.505882 
0.517647 0.917647 0.505882 0.517647 0.917647 0.505882 
0.517647 0.917647 0.505882 0.517647 0.917647 0.505882 
0.517647 0.917647 0.505882 0.517647 0.917647 0.505882 
0.517647 0.917647 0.505882 0.517647 0.917647 0.505882 
0.517647 0.917647 0.505882 0.517647 0.917647 0.505882 
0.517647 0.917647 0.505882 0.517647 0.917647 0.505882 
0.517647 0.917647 0.505882 0.517647 0.917647 0.505882 
0.517647 0.917647 0.505882 0.517647 0.917647 0.505882 
0.517647 0.917647 0.505882 0.517647 0.917647 0.505882 
0.517647 0.917647 0.505882 0.517647 0.917647 0.505882 
0.517647 0.917647 0.505882 0.517647 0.917647 0.505882 
0.517647 0.917647 0.505882 0.517647 0.917647 0.505882 
0.517647 0.917647 0.505882 0.517647 0.917647 0.505882 
0.517647 0.917647 0.505882 0.517647 0.917647 0.505882 
0.517647 0.917647 0.505882 0.517647 0.917647 0.505882 
0.517647 0.917647 0.505882 0.517647 0.917647 0.505882 
0.517647 0.917647 0.505882 0.517647 0.917647 0.505882 
0.517647 0.917647 0.505882 0.517647 0.917647 0.505882 
0.517647 0.917647 0.505882 0.517647 0.917647 0.505882 
0.517647 0.917647 0.505882 0.517647 0.917647 0.505882 
0.517647 0.917647 0.505882 0.517647 0.917647 0.505882 
0.517647 0.917647 0.505882 0.517647 0.917647 0.505882 
0.517647 0.917647 0.505882 0.517647 0.917647 0.505882 
0.517647 0.917647 0.505882 0.517647 0.917647 0.505882 
0.517647 0.917647 0.505882 0.517647 0.917647 0.505882 
0.517647 0.917647 0.505882 0.517647 0.917647 0.505882 
0.517647 0.917647 0.505882 0.517647 0.917647 0.505882 
0.517647 0.917647 0.505882 0.517647 0.917647 0.505882 
0.517647 0.917647 0.505882 0.517647 0.917647 0.505882 
0.517647 0.917647 0.505882 0.517647 0.917647 0.505882 
0.517647 0.917647 0.505882 0.517647 0.917647 0.505882 
0.517647 0.917647 0.505882 0.517647 0.917647 0.505882 
0.517647 0.917647 0.505882 0.517647 0.917647 0.505882 
0.517647 0.917647 0.505882 0.517647 0.917647 0.505882 
0.517647 0.917647 0.505882 0.517647 0.917647 0.505882 
0.517647 0.917647 0.505882 0.517647 0.917647 0.505882 
0.517647 0.917647 0.505882 0.517647 0.917647 0.505882 
0.517647 0.917647 0.505882 0.517647 0.917647 0.505882 
0.517647 0.917647 0.505882 0.517647 0.917647 0.505882 
0.517647 0.917647 0.505882 0.517647 0.917647 0.505882 
0.517647 0.917647 0.505882 0.517647 0.917647 0.505882 
0.517647 0.917647 0.505882 0.517647 0.917647 0.505882 
0.517647 0.917647 0.505882 0.517647 0.917647 0.505882 
0.517647 0.917647 0.505882 0.517647 0.917647 0.505882 
0.517647 0.917647 0.505882 0.517647 0.917647 0.505882 
0.517647 0.917647 0.505882 0.517647 0.917647 0.505882 
0.517647 0.917647 0.505882 0.517647 0.917647 0.505882 
0.517647 0.917647 0.505882 0.517647 0.917647 0.505882 
0.517647 0.917647 0.505882 0.517647 0.917647 0.505882 

NORMALS Normals float
0.490928 0.00147447 -0.871199 0.170187 -0.310745 -0.935133 0.205632 0.17247 -0.963312 
0.382915 0.404068 -0.830725 0.0159205 0.196072 -0.98046 0.244365 0.467618 -0.849481 
-0.230988 -0.153461 -0.960778 0.58248 0.0445881 -0.811621 0.572477 0.290531 -0.766722 
0.607097 0.458472 -0.649027 0.664028 0.344905 -0.663406 -0.0374309 0.0891225 -0.995317 
0.363389 0.479592 -0.798711 0.448196 0.426805 -0.785467 -0.186509 0.40348 -0.895778 
0.144334 0.492131 -0.858472 0.0184951 0.5318 -0.846668 0.263219 0.575967 -0.773937 
-0.040357 0.742099 -0.669075 -0.159317 0.671788 -0.723408 0.292356 0.708608 -0.642186 
-0.296816 -0.380924 -0.875669 0.0548958 -0.539354 -0.840288 0.595363 -0.0501049 -0.801893 
-0.442115 -0.00228762 -0.896955 0.661393 0.519251 -0.541237 -0.336381 0.225574 -0.914311 
0.478516 0.606366 -0.635093 -0.298919 0.59929 -0.74263 -0.268514 0.709846 -0.651167 
-0.180266 0.815266 -0.550313 0.278138 0.86338 -0.420969 -0.094189 -0.622885 -0.776623 
-0.270396 -0.622589 -0.73435 0.560838 -0.245861 -0.790578 0.668005 -0.0203391 -0.743879 
0.636149 0.510276 -0.578733 0.618082 0.431264 -0.657257 0.687586 0.134283 -0.713578 
-0.418683 0.483081 -0.768984 0.548666 0.756703 -0.35548 0.259322 0.898848 -0.353304 
0.0767218 -0.674734 -0.734062 -0.502114 -0.567101 -0.6529 -0.667923 -0.448299 -0.594059 
-0.529673 -0.3392 -0.777425 0.748857 0.203233 -0.6308 0.654635 0.514307 -0.554023 
0.586289 0.675998 -0.446422 -0.588863 0.0929476 -0.80287 0.751394 0.638958 -0.164742 
-0.207613 -0.776413 -0.595046 -0.510149 -0.72799 -0.458015 -0.530567 -0.423396 -0.734326 
-0.541828 -0.123653 -0.831344 -0.356681 0.690684 -0.629074 -0.500332 -0.844918 -0.189161 
-0.387101 -0.855435 -0.34407 0.373911 -0.60439 -0.703493 -0.705127 -0.641127 -0.302906 
-0.555446 -0.566703 -0.608545 0.655684 -0.253469 -0.711218 0.73587 -0.131047 -0.664321 
0.512359 0.831812 -0.213489 -0.572357 0.337834 -0.747178 -0.523717 0.406026 -0.748908 
0.555353 0.822883 -0.120196 -0.227324 -0.840172 -0.492377 -0.0168585 -0.857814 -0.513683 
0.591095 -0.534601 -0.603994 0.749572 -0.215484 -0.625866 0.831117 -0.0716214 -0.551465 
0.7751 0.449895 -0.443638 0.921293 0.287968 -0.261329 -0.574494 -0.597858 -0.559037 
-0.494145 -0.445892 -0.746325 0.59381 0.789177 -0.156812 0.660635 0.750623 0.011283 
0.4638 0.859836 -0.213475 -0.223731 0.800099 -0.556584 -0.399182 -0.882563 -0.248466 
-0.527769 -0.847028 -0.0632694 -0.620858 0.0569568 -0.781851 -0.613491 0.465456 -0.637949 
0.778614 0.611702 0.139932 0.111313 0.850591 -0.513911 -0.303075 0.862961 -0.404281 
-0.0334591 0.845341 -0.533178 -0.361041 -0.890694 -0.276249 0.34288 -0.797631 -0.496203 
-0.623816 -0.771383 -0.125782 0.852759 -0.309107 -0.421016 0.921778 -0.375454 0.0967435 
0.986901 0.0546424 -0.151794 -0.582097 -0.351623 -0.73316 0.624504 0.780273 0.0341892 
-0.563313 0.632654 -0.531438 -0.531364 0.748211 -0.397281 -0.222651 0.964697 -0.140662 
0.0504236 0.967184 -0.249023 -0.374503 -0.909741 -0.179215 0.146418 -0.893305 -0.424933 
0.424751 -0.759209 -0.493142 0.94782 -0.284276 0.144309 -0.5633 -0.765868 -0.310062 
0.982707 0.132271 0.12958 -0.408683 -0.710489 -0.572873 -0.405267 -0.784068 -0.470103 
0.867283 0.446719 0.219687 0.712038 0.686429 0.147709 -0.643352 -0.353023 -0.679318 
-0.754581 -0.0072438 -0.656167 0.315721 0.918185 -0.239285 -0.571784 -0.820366 -0.00790072 
0.704993 -0.610598 -0.36077 -0.622147 -0.782658 0.0194814 0.809741 -0.538244 -0.233694 
0.895369 -0.444099 -0.0330285 0.771485 -0.578368 -0.265145 0.950892 -0.250869 0.1813 
0.951666 -0.164538 0.259344 0.850303 -0.382301 0.361705 0.871259 0.197073 0.449522 
0.915763 -0.0129502 0.401509 -0.704633 -0.420899 -0.571258 -0.705014 0.529454 -0.47184 
-0.50936 0.836116 -0.203622 0.731738 0.661379 -0.164732 -0.315127 0.935481 -0.159909 
0.337837 0.939286 -0.0600703 0.0378527 -0.94419 -0.327218 0.349993 -0.862864 -0.364652 
0.790483 -0.587325 -0.173739 0.847282 -0.531144 -0.000180172 0.919635 -0.315036 0.23457 
-0.52966 -0.757931 -0.380789 -0.727504 -0.617435 -0.299185 0.84107 0.385717 0.379242 
0.834329 0.225799 0.502902 -0.936456 -0.241591 -0.25433 -0.316662 0.94853 -0.00404425 
-0.15906 0.980594 0.114606 -0.0847636 0.996383 -0.00600174 -0.568688 -0.821711 0.0372166 
-0.281406 -0.959541 0.00957259 0.698123 -0.702653 -0.137485 -0.621023 -0.746941 0.237506 
0.899949 -0.394425 0.185798 -0.604782 -0.784513 0.137033 0.908075 -0.375188 0.186102 
0.893071 -0.34873 0.284274 -0.543803 -0.836371 -0.0689967 0.79428 0.215146 0.568182 
-0.716943 -0.692859 -0.0770666 0.734647 0.541307 0.408999 0.599589 0.791818 -0.11626 