# vtk DataFile Version 4.2
vtk output
ASCII
DATASET POLYDATA
POINTS 560 float
310.508 255.248 89.3737 314.562 250.219 90.3289 316.577 251.482 90.4107 
316.959 251.209 90.5752 306.849 253.561 90.4122 316.26 252.82 90.3198 
307.604 257.008 90.4829 312.587 256.586 89.8303 308.117 258.218 90.547 
308.811 258.875 90.5234 309.249 259.023 90.4887 313.349 249.414 90.5896 
305.616 251.075 90.9234 320.106 251.838 91.96 318.24 252.911 91.1899 
319.585 253.384 92.1507 306.69 257.348 91.1362 307.179 260.123 91.8563 
313.641 259.813 92.0224 308.005 261.461 92.0555 308.496 261.545 91.9603 
310.58 261.564 91.9676 303.283 248.73 92.4746 321.327 248.657 92.5321 
302.838 250.257 92.3434 303.864 252.115 91.7191 320.52 252.09 92.3093 
304.375 254.072 91.8474 320.467 252.927 92.6886 304.578 254.813 91.9522 
319.57 254.139 92.5653 316.772 257.207 92.4387 306.34 259.183 92.1622 
307.573 261.839 92.6789 308.255 262.481 92.9242 308.543 262.773 93.23 
308.843 262.452 92.7482 321.039 246.822 93.0169 302 247.814 94.1639 
322.341 246.766 93.5174 301.544 248.848 93.9529 322.774 248.077 93.5872 
322.902 248.788 93.7091 301.73 250.334 93.3182 322.283 249.819 93.2726 
301.524 251.431 93.5619 301.897 251.673 93.2457 321.363 251.766 92.9709 
301.768 252.194 93.6003 303.086 252.634 92.4611 321.631 251.968 93.4725 
303.029 253.516 92.877 320.776 253.052 93.2022 319.839 254.305 93.1365 
318.711 255.443 92.767 305.119 257.549 92.8593 314.664 259.536 92.7571 
311.232 262.002 92.6481 306.998 262.236 93.8497 307.234 262.591 93.9898 
307.703 262.9 93.995 305.579 245.128 93.7588 301.68 248.037 94.4767 
301.021 249.886 94.6115 323.249 249.624 94.3324 301.106 250.926 94.2431 
301.795 252.726 93.977 302.049 253.649 94.7753 303.377 255.528 94.2059 
319.205 255.277 93.4032 314.078 260.317 93.5766 306.923 262.509 94.6701 
311.186 262.432 93.5917 307.627 263.119 94.515 308.43 263.333 94.487 
307.83 263.31 94.8283 308.166 263.396 94.7433 324.473 244.54 95.5393 
325.067 245.228 95.8079 301.073 251.373 94.7682 319.581 255.203 94.4103 
310.892 262.716 94.5673 323.336 242.984 95.7286 325.901 245.715 96.7348 
301.458 247.799 95.7179 323.571 250.606 96.121 322.59 251.874 96.1409 
319.224 255.632 95.3901 307.425 262.749 96.0894 311.006 262.561 95.6489 
307.661 263.087 95.9084 308.835 263.099 96.0835 307.738 263.254 95.6367 
308.006 263.333 95.5731 306.138 239.477 97.5681 307.386 239.058 97.3094 
305.995 240.323 96.8799 326.126 244.169 97.2522 326.226 246.438 97.4593 
302.73 254.669 97.629 319.134 255.44 96.852 307.193 261.971 97.0631 
307.87 262.884 96.3846 310.346 262.52 96.8715 308.236 263.169 96.0213 
310.062 237.077 98.1791 305.968 238.923 98.7185 326.805 243.072 98.3949 
327.12 244.26 98.6365 327.097 244.728 98.6617 301.91 246.282 98.2795 
326.644 246.218 98.4353 308.47 262.073 98.0959 309.643 262.313 97.8271 
308.741 262.482 97.4743 308.573 236.638 100.098 323.567 237.436 99.275 
326.463 241.159 98.8521 326.85 241.603 99.1305 326.523 246.8 99.5667 
309.776 261.68 98.7603 308.425 261.523 98.8706 309.198 261.869 98.6479 
309.49 261.813 98.7051 313.633 233.401 100.683 316.977 232.941 100.288 
311.762 234.434 100.995 312.811 234.587 99.8158 319.268 234.227 99.6689 
306.807 237.927 100.123 305.024 239.783 100.055 325.755 238.697 99.9183 
326.829 240.339 99.9376 327.564 244.276 100.441 327.219 245.617 100.574 
324.703 249.209 99.7477 308.377 260.84 99.711 308.957 261.559 99.0418 
318.882 231.542 101.916 322.235 233.568 101.464 311.461 234.561 101.263 
327.26 240.091 101.121 327.685 242.846 101.101 326.589 246.624 101.168 
323.897 249.525 101.369 301.992 250.864 101.131 309.962 259.776 100.964 
308.687 260.523 100.257 314.819 230.975 102.975 315.396 230.659 103.113 
316.664 230.866 102.452 317.577 230.665 102.816 321.295 232.438 102.084 
321.962 232.601 102.522 323.364 233.594 102.488 326.317 237.89 101.339 
302.989 243.838 101.516 327.177 245.537 101.564 302.551 251.933 102.095 
303.157 253.243 102.024 307.071 258.457 101.451 308.83 260.216 100.634 
315.946 230.07 103.946 313.152 232.326 103.113 322.35 232.575 103.421 
326.037 236.659 102.366 327.577 240.486 102.636 327.653 241.406 102.676 
325.782 246.949 102.871 311.041 257.613 102.904 307.631 257.961 102.535 
309.002 258.686 102.329 316.291 229.959 104.689 321.844 232.193 104.52 
325.975 236.212 103.514 327.488 242.714 103.37 327.32 244.088 103.15 
319.584 251.733 103.292 312.457 256.208 103.523 309.887 257.446 103.523 
317.489 230.21 104.742 319.895 231.119 104.702 324.535 234.442 105.23 
327.107 238.429 103.974 327.379 241.416 104.292 327.254 240.945 104.707 
326.985 242.471 104.759 303.583 244.465 104.575 302.516 248.691 103.873 
303.342 251.447 104.551 308.915 257.107 103.932 315.228 230.069 105.524 
315.98 229.987 105.791 321.125 231.999 106.274 305.424 242.155 105.876 
326.335 243.011 105.548 324.888 245.42 105.63 311.416 254.473 105.834 
309.007 255.52 105.63 307.603 255.744 105.237 314.913 230.28 105.842 
315.681 230.025 105.977 314.201 230.888 106.171 317.172 230.454 106.833 
312.892 232.444 107.082 323.808 234.26 106.993 326.209 237.251 106.095 
326.474 237.91 105.932 326.514 239.383 106.235 303.872 248.103 106.312 
304.321 250.13 106.522 304.242 251.174 106.032 316.495 230.633 107.576 
313.687 231.582 107.194 317.183 230.731 107.476 320.901 232.542 107.846 
323.754 234.629 107.59 325.082 236.133 107.408 325.645 239.87 107.292 
304.913 246.382 107.544 305.37 246.77 108.018 306.556 253.447 106.7 
314.778 231.048 107.944 314.197 231.32 107.772 316.024 230.722 107.808 
313.203 232.197 107.957 324.151 236.403 108.635 324.266 238.963 108.736 
306.297 244.135 108.761 305.435 245.503 108.039 306.018 248.119 108.412 
306.732 250.388 108.256 307.886 251.826 108.075 323.936 237.592 109.011 
315.077 232.035 110.208 318.954 233.793 110.701 320.838 238.368 110.947 
307.203 244.002 109.876 308.351 246.364 110.485 313.983 232.497 110.273 
315.277 232.665 111.046 319.143 236.357 111.736 311.708 245.05 111.88 
313.047 234.175 111.997 316.237 236.397 112.978 315.918 240.836 112.61 
308.667 242.499 111.966 309.241 243.091 112.365 313.81 234.478 112.718 
314.478 234.268 112.534 313.855 235.187 113.286 311.678 235.727 112.691 
314.364 235.735 113.467 310.45 238.082 113.423 314.104 238.565 113.859 
312.548 240.802 113.925 311.245 242.194 113.578 310.611 242.688 113.305 
313.3 235.275 113.263 312.403 236.618 113.908 312.05 238.838 114.387 
309.929 239.934 113.874 311.361 240.193 114.377 309.725 240.41 113.687 
309.685 241.214 113.498 310.698 241.365 113.91 310.223 241.394 113.802 
309.883 241.537 113.546 311.632 236.758 113.742 312.006 236.539 113.807 
310.59 238.757 114.285 310.337 238.915 114.063 310.904 238.571 114.345 
310.962 238.882 114.5 310.703 239.55 114.502 310.769 239.18 114.53 
310.246 239.674 114.265 310.452 239.055 114.326 310.43 239.707 114.406 
310.728 238.459 340.657 310.626 238.335 340.835 310.563 238.626 340.737 
310.937 238.468 340.564 310.91 238.054 340.793 311.201 238.161 340.608 
310.983 238.813 340.51 310.519 239.27 340.734 311.965 236.335 341.157 
311.64 236.502 341.226 312.32 236.193 341.146 312.21 235.79 341.486 
311.004 237.451 341.163 312.546 237.094 340.846 312.358 237.879 340.704 
310.331 240.519 341.031 309.743 241.407 341.745 310.315 241.001 341.152 
313.046 234.276 342.49 312.758 234.742 342.144 313.488 234.224 342.379 
312.269 235.147 342.105 313.648 234.529 342.066 313.98 234.687 341.958 
311.431 236.374 341.603 310.254 238.509 341.482 312.46 240.929 341.126 
310.439 242.774 341.827 312.858 234.055 342.956 315.48 234.107 342.623 
315.035 239.406 341.613 314.194 240.664 341.65 308.957 242.485 342.889 
308.655 242.398 343.339 309.037 242.921 342.866 314.109 232.934 343.694 
313.989 232.546 344.242 315.041 232.73 343.759 312.368 234.3 343.228 
317.849 234.134 343.514 319.451 236.55 343.389 318.819 238.871 343.133 
314.642 231.779 345.137 313.253 232.817 344.601 311.928 234.538 343.91 
321.111 236.069 344.384 319.308 240.786 343.821 308.09 242.213 344.466 
313.726 244.63 343.357 313.95 231.743 345.929 315.404 231.391 345.737 
313.425 232.133 345.981 313.16 232.651 345.236 317.458 231.612 345.819 
317.374 232.12 345.154 322.795 239.103 345.241 321.08 241.401 344.919 
307.365 244.444 345.06 314.801 230.882 347.167 315.921 230.702 347.001 
323.73 235.808 346.201 324.591 237.314 346.507 323.625 240.761 346.162 
307.673 241.364 346.21 313.396 248.097 345.292 306.878 251.068 346.893 
323.129 234.186 347.021 323.392 234.089 347.459 324.779 235.674 347.413 
321.723 245.021 346.991 305.579 249.925 347.358 307.223 252.519 347.578 
306.697 252.913 347.978 317.358 230.397 348.378 324.019 234.231 348.189 
325.995 236.941 348.529 304.762 243.946 348.41 323.876 244.394 347.961 
311.922 252.02 347.489 315.452 230.013 349.607 315.153 230.151 349.262 
316.12 230 349.185 319.634 231.305 348.36 321.358 232.045 349.056 
323.576 233.556 348.985 325.943 236.291 349.119 326.829 238.062 349.916 
326.56 241.836 349.356 303.68 245.961 349.25 325.023 245.863 349.917 
304.053 250.047 348.928 315.848 229.951 349.975 316.311 229.981 350.371 
318.167 230.373 349.962 314.202 230.873 350.046 321.927 232.234 350.099 
327.157 238.456 350.766 327.388 240.455 350.779 327.234 241.614 350.566 
302.816 248.227 350.629 319.555 250.467 350.215 307.948 256.294 350.129 
315.399 230.142 350.715 315.002 230.27 350.318 320.616 231.521 350.816 
327.442 239.81 351.606 327.539 241.397 351.711 327.537 242.283 351.953 
303.495 243.851 351.496 303.496 252.09 350.884 315.418 230.254 351.162 
316.117 230.218 351.414 313.233 232.233 351.365 324.59 234.321 351.192 
325.797 235.949 351.563 327.351 243.647 352.083 302.104 248.743 352.646 
304.073 254.179 352.162 307.536 257.582 352.004 306.942 257.735 352.754 
315.441 230.733 351.981 317.564 230.613 352.04 320.134 231.54 352.149 
322.116 232.492 351.876 323.572 233.683 352.164 325.655 236.145 352.595 
326.332 237.243 352.64 327.5 241.151 353.059 327.334 244.474 352.94 
314.682 231.445 352.465 316.787 230.869 352.528 315.735 231.518 353.129 
[...]
POINT_DATA 560
COLOR_SCALARS scalars 3
0.517647 0.917647 0.505882 0.517647 0.917647 0.505882 0.517647 0.917647 0.505882 
0.517647 0.917647 0.505882 0.517647 0.917647 0.505882 
0.517647 0.917647 0.505882 0.517647 0.917647 0.505882 
0.517647 0.917647 0.505882 0.517647 0.917647 0.505882 
0.517647 0.917647 0.505882 0.517647 0.917647 0.505882 
0.517647 0.917647 0.505882 0.517647 0.917647 0.505882 
0.517647 0.917647 0.505882 0.517647 0.917647 0.505882 
0.517647 0.917647 0.505882 0.517647 0.917647 0.505882 
0.517647 0.917647 0.505882 0.517647 0.917647 0.505882 
0.517647 0.917647 0.505882 0.517647 0.917647 0.505882 
0.517647 0.917647 0.505882 0.517647 0.917647 0.505882 
0.517647 0.917647 0.505882 0.517647 0.917647 0.505882 
0.517647 0.917647 0.505882 0.517647 0.917647 0.505882 
0.517647 0.917647 0.505882 0.517647 0.917647 0.505882 
0.517647 0.917647 0.505882 0.517647 0.917647 0.505882 
0.517647 0.917647 0.505882 0.517647 0.917647 0.505882 
0.517647 0.917647 0.505882 0.517647 0.917647 0.505882 
0.517647 0.917647 0.505882 0.517647 0.917647 0.505882 
0.517647 0.917647 0.505882 0.517647 0.917647 0.505882 
0.517647 0.917647 0.505882 0.517647 0.917647 0.505882 
0.517647 0.917647 0.505882 0.517647 0.917647 0.505882 
0.517647 0.917647 0.505882 0.517647 0.917647 0.505882 
0.517647 0.917647 0.505882 0.517647 0.917647 0.505882 
0.517647 0.917647 0.505882 0.517647 0.917647 0.505882 
0.517647 0.917647 0.505882 0.517647 0.917647 0.505882 
0.517647 0.917647 0.505882 0.517647 0.917647 0.505882 
0.517647 0.917647 0.505882 0.517647 0.917647 0.505882 
0.517647 0.917647 0.505882 0.517647 0.917647 0.505882 
0.517647 0.917647 0.505882 0.517647 0.917647 0.505882 
0.517647 0.917647 0.505882 0.517647 0.917647 0.505882 
0.517647 0.917647 0.505882 0.517647 0.917647 0.505882 
0.517647 0.917647 0.505882 0.517647 0.917647 0.505882 
0.517647 0.917647 0.505882 0.517647 0.917647 0.505882 
0.517647 0.917647 0.505882 0.517647 0.917647 0.505882 
0.517647 0.917647 0.505882 0.517647 0.917647 0.505882 
0.517647 0.917647 0.505882 0.517647 0.917647 0.505882 
0.517647 0.917647 0.505882 0.517647 0.917647 0.505882 
0.517647 0.917647 0.505882 0.517647 0.917647 0.505882 
0.517647 0.917647 0.505882 0.517647 0.917647 0.505882 
0.517647 0.917647 0.505882 0.517647 0.917647 0.505882 
0.517647 0.917647 0.505882 0.517647 0.917647 0.505882 
0.517647 0.917647 0.505882 0.517647 0.917647 0.505882 
0.517647 0.917647 0.505882 0.517647 0.917647 0.505882 
0.517647 0.917647 0.505882 0.517647 0.917647 0.505882 
0.517647 0.917647 0.505882 0.517647 0.917647 0.505882 
0.517647 0.917647 0.505882 0.517647 0.917647 0.505882 
0.517647 0.917647 0.505882 0.517647 0.917647 0.505882 
0.517647 0.917647 0.505882 0.517647 0.917647 0.505882 
0.517647 0.917647 0.505882 0.517647 0.917647 0.505882 
0.517647 0.917647 0.505882 0.517647 0.917647 0.505882 
0.517647 0.917647 0.505882 0.517647 0.917647 0.505882 
0.517647 0.917647 0.505882 0.517647 0.917647 0.505882 
0.517647 0.917647 0.505882 0.517647 0.917647 0.505882 
0.517647 0.917647 0.505882 0.517647 0.917647 0.505882 
0.517647 0.917647 0.505882 0.517647 0.917647 0.505882 
0.517647 0.917647 0.505882 0.517647 0.917647 0.505882 
0.517647 0.917647 0.505882 0.517647 0.917647 0.505882 
0.517647 0.917647 0.505882 0.517647 0.917647 0.505882 
0.517647 0.917647 0.505882 0.517647 0.917647 0.505882 
0.517647 0.917647 0.505882 0.517647 0.917647 0.505882 
0.517647 0.917647 0.505882 0.517647 0.917647 0.505882 
0.517647 0.917647 0.505882 0.517647 0.917647 0.505882 
0.517647 0.917647 0.505882 0.517647 0.917647 0.505882 
0.517647 0.917647 0.505882 0.517647 0.917647 0.505882 
0.517647 0.917647 0.505882 0.517647 0.917647 0.505882 
0.517647 0.917647 0.505882 0.517647 0.917647 0.505882 
0.517647 0.917647 0.505882 0.517647 0.917647 0.505882 
0.517647 0.917647 0.505882 0.517647 0.917647 0.505882 
0.517647 0.917647 0.505882 0.517647 0.917647 0.505882 
0.517647 0.917647 0.505882 0.517647 0.917647 0.505882 
0.517647 0.917647 0.505882 0.517647 0.917647 0.505882 
0.517647 0.917647 0.505882 0.517647 0.917647 0.505882 
0.517647 0.917647 0.505882 0.517647 0.917647 0.505882 
0.517647 0.917647 0.505882 0.517647 0.917647 0.505882 
0.517647 0.917647 0.505882 0.517647 0.917647 0.505882 
0.517647 0.917647 0.505882 0.517647 0.917647 0.505882 
0.517647 0.917647 0.505882 0.517647 0.917647 0.505882 
0.517647 0.917647 0.505882 0.517647 0.917647 0.505882 
0.517647 0.917647 0.505882 0.517647 0.917647 0.505882 
0.517647 0.917647 0.505882 0.517647 0.917647 0.505882 
0.517647 0.917647 0.505882 0.517647 0.917647 0.505882 
0.517647 0.917647 0.505882 0.517647 0.917647 0.505882 
0.517647 0.917647 0.505882 0.517647 0.917647 0.505882 
0.517647 0.917647 0.505882 0.517647 0.917647 0.505882 
0.517647 0.917647 0.505882 0.517647 0.917647 0.505882 
0.517647 0.917647 0.505882 0.517647 0.917647 0.505882 
0.517647 0.917647 0.505882 0.517647 0.917647 0.505882 
0.517647 0.917647 0.505882 0.517647 0.917647 0.505882 
0.517647 0.917647 0.505882 0.517647 0.917647 0.505882 
0.517647 0.917647 0.505882 0.517647 0.917647 0.505882 
0.517647 0.917647 0.505882 0.517647 0.917647 0.505882 
0.517647 0.917647 0.505882 0.517647 0.917647 0.505882 
0.517647 0.917647 0.505882 0.517647 0.917647 0.505882 
0.517647 0.917647 0.505882 0.517647 0.917647 0.505882 
0.517647 0.917647 0.505882 0.517647 0.917647 0.505882 
0.517647 0.917647 0.505882 0.517647 0.917647 0.505882 
0.517647 0.917647 0.505882 0.517647 0.917647 0.505882 
0.517647 0.917647 0.505882 0.517647 0.917647 0.505882 
0.517647 0.917647 0.505882 0.517647 0.917647 0.505882 
0.517647 0.917647 0.505882 0.517647 0.917647 0.505882 
0.517647 0.917647 0.505882 0.517647 0.917647 0.505882 
0.517647 0.917647 0.505882 0.517647 0.917647 0.505882 
0.517647 0.917647 0.505882 0.517647 0.917647 0.505882 
0.517647 0.917647 0.505882 0.517647 0.917647 0.505882 
0.517647 0.917647 0.505882 0.517647 0.917647 0.505882 
0.517647 0.917647 0.505882 0.517647 0.917647 0.505882 
0.517647 0.917647 0.505882 0.517647 0.917647 0.505882 
0.517647 0.917647 0.505882 0.517647 0.917647 0.505882 
0.517647 0.917647 0.505882 0.517647 0.917647 0.505882 
0.517647 0.917647 0.505882 0.517647 0.917647 0.505882 
0.517647 0.917647 0.505882 0.517647 0.917647 0.505882 
0.517647 0.917647 0.505882 0.517647 0.917647 0.505882 
0.517647 0.917647 0.505882 0.517647 0.917647 0.505882 
0.517647 0.917647 0.505882 0.517647 0.917647 0.505882 
0.517647 0.917647 0.505882 0.517647 0.917647 0.505882 
0.517647 0.917647 0.505882 0.517647 0.917647 0.505882 
0.517647 0.917647 0.505882 0.517647 0.917647 0.505882 
0.517647 0.917647 0.505882 0.517647 0.917647 0.505882 
0.517647 0.917647 0.505882 0.517647 0.917647 0.505882 
0.517647 0.917647 0.505882 0.517647 0.917647 0.505882 
0.517647 0.917647 0.505882 0.517647 0.917647 0.505882 
0.517647 0.917647 0.505882 0.517647 0.917647 0.505882 
0.517647 0.917647 0.505882 0.517647 0.917647 0.505882 
0.517647 0.917647 0.505882 0.517647 0.917647 0.505882 
0.517647 0.917647 0.505882 0.517647 0.917647 0.505882 
0.517647 0.917647 0.505882 0.517647 0.917647 0.505882 
0.517647 0.917647 0.505882 0.517647 0.917647 0.505882 
0.517647 0.917647 0.505882 0.517647 0.917647 0.505882 
0.517647 0.917647 0.505882 0.517647 0.917647 0.505882 
0.517647 0.917647 0.505882 0.517647 0.917647 0.505882 
0.517647 0.917647 0.505882 0.517647 0.917647 0.505882 
0.517647 0.917647 0.505882 0.517647 0.917647 0.505882 
0.517647 0.917647 0.505882 0.517647 0.917647 0.505882 
0.517647 0.917647 0.505882 0.517647 0.917647 0.505882 
0.517647 0.917647 0.505882 0.517647 0.917647 0.505882 
0.517647 0.917647 0.505882 0.517647 0.917647 0.505882 
0.517647 0.917647 0.505882 0.517647 0.917647 0.505882 
0.517647 0.917647 0.505882 0.517647 0.917647 0.505882 
0.517647 0.917647 0.505882 0.517647 0.917647 0.505882 
0.517647 0.917647 0.505882 0.517647 0.917647 0.505882 
0.517647 0.917647 0.505882 0.517647 0.917647 0.505882 
0.517647 0.917647 0.505882 0.517647 0.917647 0.505882 
0.517647 0.917647 0.505882 0.517647 0.917647 0.505882 
0.517647 0.917647 0.505882 0.517647 0.917647 0.505882 
0.517647 0.917647 0.505882 0.517647 0.917647 0.505882 
0.517647 0.917647 0.505882 0.517647 0.917647 0.505882 
0.517647 0.917647 0.505882 0.517647 0.917647 0.505882 
0.517647 0.917647 0.505882 0.517647 0.917647 0.505882 
0.517647 0.917647 0.505882 0.517647 0.917647 0.505882 
0.517647 0.917647 0.505882 0.517647 0.917647 0.505882 
0.517647 0.917647 0.505882 0.517647 0.917647 0.505882 
0.517647 0.917647 0.505882 0.517647 0.917647 0.505882 
0.517647 0.917647 0.505882 0.517647 0.917647 0.505882 
0.517647 0.917647 0.505882 0.517647 0.917647 0.505882 
0.517647 0.917647 0.505882 0.517647 0.917647 0.505882 
0.517647 0.917647 0.505882 0.517647 0.917647 0.505882 
0.517647 0.917647 0.505882 0.517647 0.917647 0.505882 
0.517647 0.917647 0.505882 0.517647 0.917647 0.505882 
0.517647 0.917647 0.505882 0.517647 0.917647 0.505882 
0.517647 0.917647 0.505882 0.517647 0.917647 0.505882 
0.517647 0.917647 0.505882 0.517647 0.917647 0.505882 
0.517647 0.917647 0.505882 0.517647 0.917647 0.505882 
0.517647 0.917647 0.505882 0.517647 0.917647 0.505882 
0.517647 0.917647 0.505882 0.517647 0.917647 0.505882 
0.517647 0.917647 0.505882 0.517647 0.917647 0.505882 
0.517647 0.917647 0.505882 0.517647 0.917647 0.505882 
0.517647 0.917647 0.505882 0.517647 0.917647 0.505882 
0.517647 0.917647 0.505882 0.517647 0.917647 0.505882 
0.517647 0.917647 0.505882 0.517647 0.917647 0.505882 
0.517647 0.917647 0.505882 0.517647 0.917647 0.505882 
0.517647 0.917647 0.505882 0.517647 0.917647 0.505882 
0.517647 0.917647 0.505882 0.517647 0.917647 0.505882 
0.517647 0.917647 0.505882 0.517647 0.917647 0.505882 
0.517647 0.917647 0.505882 0.517647 0.917647 0.505882 
0.517647 0.917647 0.505882 0.517647 0.917647 0.505882 
0.517647 0.917647 0.505882 0.517647 0.917647 0.505882 
0.517647 0.917647 0.505882 0.517647 0.917647 0.505882 
0.517647 0.917647 0.505882 0.517647 0.917647 0.505882 
0.517647 0.917647 0.505882 0.517647 0.917647 0.505882 
0.517647 0.917647 0.505882 0.517647 0.917647 0.505882 
0.517647 0.917647 0.505882 0.517647 0.917647 0.505882 
0.517647 0.917647 0.505882 0.517647 0.917647 0.505882 
0.517647 0.917647 0.505882 0.517647 0.917647 0.505882 
0.517647 0.917647 0.505882 0.517647 0.917647 0.505882 
0.517647 0.917647 0.505882 0.517647 0.917647 0.505882 
0.517647 0.917647 0.505882 0.517647 0.917647 0.505882 
0.517647 0.917647 0.505882 0.517647 0.917647 0.505882 
0.517647 0.917647 0.505882 0.517647 0.917647 0.505882 
0.517647 0.917647 0.505882 0.517647 0.917647 0.505882 
0.517647 0.917647 0.505882 0.517647 0.917647 0.505882 
0.517647 0.917647 0.505882 0.517647 0.917647 0.505882 
0.517647 0.917647 0.505882 0.517647 0.917647 0.505882 
0.517647 0.917647 0.505882 0.517647 0.917647 0.505882 
0.517647 0.917647 0.505882 0.517647 0.917647 0.505882 
0.517647 0.917647 0.505882 0.517647 0.917647 0.505882 
0.517647 0.917647 0.505882 0.517647 0.917647 0.505882 
0.517647 0.917647 0.505882 0.517647 0.917647 0.505882 
0.517647 0.917647 0.505882 0.517647 0.917647 0.505882 
0.517647 0.917647 0.505882 0.517647 0.917647 0.505882 
0.517647 0.917647 0.505882 0.517647 0.917647 0.505882 
0.517647 0.917647 0.505882 0.517647 0.917647 0.505882 
0.517647 0.917647 0.505882 0.517647 0.917647 0.505882 
0.517647 0.917647 0.505882 0.517647 0.917647 0.505882 
0.517647 0.917647 0.505882 0.517647 0.917647 0.505882 
0.517647 0.917647 0.505882 0.517647 0.917647 0.505882 
0.517647 0.917647 0.505882 0.517647 0.917647 0.505882 
0.517647 0.917647 0.505882 0.517647 0.917647 0.505882 
0.517647 0.917647 0.505882 0.517647 0.917647 0.505882 
0.517647 0.917647 0.505882 0.517647 0.917647 0.505882 
0.517647 0.917647 0.505882 0.517647 0.917647 0.505882 
0.517647 0.917647 0.505882 0.517647 0.917647 0.505882 
0.517647 0.917647 0.505882 0.517647 0.917647 0.505882 
0.517647 0.917647 0.505882 0.517647 0.917647 0.505882 
0.517647 0.917647 0.505882 0.517647 0.917647 0.505882 
0.517647 0.917647 0.505882 0.517647 0.917647 0.505882 
0.517647 0.917647 0.505882 0.517647 0.917647 0.505882 
0.517647 0.917647 0.505882 0.517647 0.917647 0.505882 
0.517647 0.917647 0.505882 0.517647 0.917647 0.505882 
0.517647 0.917647 0.505882 0.517647 0.917647 0.505882 
0.517647 0.917647 0.505882 0.517647 0.917647 0.505882 
0.517647 0.917647 0.505882 0.517647 0.917647 0.505882 
0.517647 0.917647 0.505882 0.517647 0.917647 0.505882 
0.517647 0.917647 0.505882 0.517647 0.917647 0.505882 
0.517647 0.917647 0.505882 0.517647 0.917647 0.505882 
0.517647 0.917647 0.505882 0.517647 0.917647 0.505882 
0.517647 0.917647 0.505882 0.517647 0.917647 0.505882 
0.517647 0.917647 0.505882 0.517647 0.917647 0.505882 
0.517647 0.917647 0.505882 0.517647 0.917647 0.505882 
0.517647 0.917647 0.505882 0.517647 0.917647 0.505882 
0.517647 0.917647 0.505882 0.517647 0.917647 0.505882 
0.517647 0.917647 0.505882 0.517647 0.917647 0.505882 
0.517647 0.917647 0.505882 0.517647 0.917647 0.505882 
0.517647 0.917647 0.505882 0.517647 0.917647 0.505882 
0.517647 0.917647 0.505882 0.517647 0.917647 0.505882 
0.517647 0.917647 0.505882 0.517647 0.917647 0.505882 
0.517647 0.917647 0.505882 0.517647 0.917647 0.505882 
0.517647 0.917647 0.505882 0.517647 0.917647 0.505882 
0.517647 0.917647 0.505882 0.517647 0.917647 0.505882 
0.517647 0.917647 0.505882 0.517647 0.917647 0.505882 
0.517647 0.917647 0.505882 0.517647 0.917647 0.505882 
0.517647 0.917647 0.505882 0.517647 0.917647 0.505882 
0.517647 0.917647 0.505882 0.517647 0.917647 0.505882 
0.517647 0.917647 0.505882 0.517647 0.917647 0.505882 
0.517647 0.917647 0.505882 0.517647 0.917647 0.505882 
0.517647 0.917647 0.505882 0.517647 0.917647 0.505882 
0.517647 0.917647 0.505882 0.517647 0.917647 0.505882 
0.517647 0.917647 0.505882 0.517647 0.917647 0.505882 
0.517647 0.917647 0.505882 0.517647 0.917647 0.505882 
0.517647 0.917647 0.505882 0.517647 0.917647 0.505882 
0.517647 0.917647 0.505882 0.517647 0.917647 0.505882 
0.517647 0.917647 0.505882 0.517647 0.917647 0.505882 
0.517647 0.917647 0.505882 0.517647 0.917647 0.505882 
0.517647 0.917647 0.505882 0.517647 0.917647 0.505882 
0.517647 0.917647 0.505882 0.517647 0.917647 0.505882 
0.517647 0.917647 0.505882 0.517647 0.917647 0.505882 
0.517647 0.917647 0.505882 0.517647 0.917647 0.505882 
0.517647 0.917647 0.505882 0.517647 0.917647 0.505882 
0.517647 0.917647 0.505882 0.517647 0.917647 0.505882 
0.517647 0.917647 0.505882 0.517647 0.917647 0.505882 
0.517647 0.917647 0.505882 0.517647 0.917647 0.505882 
0.517647 0.917647 0.505882 0.517647 0.917647 0.505882 
0.517647 0.917647 0.505882 0.517647 0.917647 0.505882 
0.517647 0.917647 0.505882 0.517647 0.917647 0.505882 
0.517647 0.917647 0.505882 0.517647 0.917647 0.505882 
0.517647 0.917647 0.505882 0.517647 0.917647 0.505882 
0.517647 0.917647 0.505882 0.517647 0.917647 0.505882 
0.517647 0.917647 0.505882 0.517647 0.917647 0.505882 
0.517647 0.917647 0.505882 0.517647 0.917647 0.505882 
0.517647 0.917647 0.505882 0.517647 0.917647 0.505882 
0.517647 0.917647 0.505882 0.517647 0.917647 0.505882 
0.517647 0.917647 0.505882 0.517647 0.917647 0.505882 
0.517647 0.917647 0.505882 0.517647 0.917647 0.505882 
0.517647 0.917647 0.505882 0.517647 0.917647 0.505882 
0.517647 0.917647 0.505882 0.517647 0.917647 0.505882 
0.517647 0.917647 0.505882 0.517647 0.917647 0.505882 
0.517647 0.917647 0.505882 0.517647 0.917647 0.505882 
0.517647 0.917647 0.505882 0.517647 0.917647 0.505882 
0.517647 0.917647 0.505882 0.517647 0.917647 0.505882 
0.517647 0.917647 0.505882 0.517647 0.917647 0.505882 
0.517647 0.917647 0.505882 
NORMALS Normals float
-0.126072 0.0184042 -0.99185 0.150718 -0.289761 -0.945158 0.277836 -0.0685284 -0.958181 
0.334464 -0.285025 -0.898273 -0.39571 0.115496 -0.911084 0.272821 0.127063 -0.953637 
-0.364828 0.13509 -0.921223 0.241243 0.364901 -0.899249 -0.351969 0.27742 -0.893955 
-0.379986 0.367758 -0.848743 -0.0738452 0.284127 -0.955939 0.0607469 -0.451276 -0.890314 
-0.202598 -0.120716 -0.971793 0.533378 0.170619 -0.82849 0.439761 0.204812 -0.874449 
0.63804 0.387775 -0.665233 -0.590897 0.335663 -0.733601 -0.685812 0.512961 -0.516269 
0.43933 0.559919 -0.702481 -0.563741 0.351087 -0.747619 -0.113828 0.575015 -0.810186 
0.155132 0.594528 -0.788968 -0.455528 -0.371835 -0.808847 0.47157 -0.0783677 -0.878339 
-0.588024 -0.0695588 -0.805847 -0.423937 0.27929 -0.861554 0.652976 0.339739 -0.676904 
-0.604771 0.259194 -0.753041 0.602028 0.35575 -0.714846 -0.565216 0.220487 -0.794932 
0.637638 0.465035 -0.614134 0.60544 0.596261 -0.527177 -0.706811 0.459549 -0.537803 
-0.507273 0.520299 -0.686996 -0.342179 0.751972 -0.563429 -0.0600322 0.871073 -0.487471 
-0.0680575 0.736093 -0.673451 0.293365 -0.327827 -0.898035 -0.699672 -0.540188 -0.467606 
0.607667 -0.2706 -0.746671 -0.708108 -0.333928 -0.622153 0.742729 -0.168174 -0.648129 
0.724126 0.0963709 -0.682901 -0.765542 -0.0674539 -0.63984 0.700535 0.134716 -0.700787 
-0.827275 0.181126 -0.531798 -0.580252 0.245613 -0.776519 0.687535 0.26754 -0.675069 
-0.690709 0.403008 -0.600421 -0.648347 0.234031 -0.724483 0.77604 0.492034 -0.394543 
-0.609754 0.415549 -0.674922 0.724967 0.474413 -0.499354 0.766855 0.50463 -0.396588 
0.486076 0.491085 -0.722887 -0.816405 0.48968 -0.3061 0.627033 0.698036 -0.345798 
0.171701 0.85466 -0.489974 -0.759705 0.452105 -0.467386 -0.580134 0.695961 -0.423181 
-0.437652 0.769511 -0.465095 -0.162268 -0.494663 -0.853802 -0.845625 -0.438445 -0.30444 
-0.994223 -0.0887186 -0.0604085 0.803755 0.103992 -0.585801 -0.923685 0.0537742 -0.379361 
-0.784517 0.453739 -0.422675 -0.892131 0.430024 -0.138496 -0.799376 0.483876 -0.356176 
0.697631 0.650479 -0.300313 0.612387 0.782587 -0.111977 -0.756909 0.6502 -0.0657881 
0.433553 0.880606 -0.19122 -0.470663 0.826245 -0.309508 -0.104139 0.921816 -0.373376 
-0.541999 0.826058 -0.154481 -0.0778337 0.994283 -0.0730935 0.622911 -0.277422 -0.73145 
0.694941 -0.178447 -0.696573 -0.956174 0.26026 -0.134152 0.718761 0.685591 -0.115534 
0.276846 0.959788 -0.0465181 0.333423 -0.469088 -0.817793 0.833375 -0.0639637 -0.548995 
-0.868003 -0.465889 -0.171808 0.800417 0.598608 -0.0316439 0.778134 0.625765 0.0540906 
0.724749 0.687069 -0.0517195 -0.725358 0.644857 0.240866 0.456691 0.872791 0.172249 
-0.391034 0.812739 0.431913 0.134975 0.941437 0.308995 -0.501804 0.853154 0.142553 
-0.0124605 0.968337 0.249338 -0.555703 -0.651625 -0.516313 -0.265361 -0.634011 -0.726371 
-0.470218 -0.575593 -0.66902 0.758518 -0.163728 -0.630749 0.861881 0.397101 -0.31539 
-0.876857 0.478266 0.0488258 0.649364 0.710223 0.271864 -0.66961 0.606705 0.428406 
-0.295888 0.799504 0.522727 0.385849 0.83707 0.387859 -0.0811962 0.881372 0.465394 
-0.252299 -0.685281 -0.68318 -0.634283 -0.6901 -0.348491 0.767879 -0.189479 -0.611931 
0.863008 -0.027281 -0.504454 0.84384 0.102434 -0.526727 -0.949873 -0.311805 0.0227651 
0.917697 0.22902 -0.324626 -0.172678 0.875431 0.451446 0.132916 0.875608 0.464374 
-0.118549 0.889527 0.441235 -0.439943 -0.76457 -0.471044 0.486888 -0.518136 -0.703189 
0.587964 -0.437549 -0.680331 0.82221 -0.226693 -0.522093 0.820376 0.570414 -0.040137 
0.261934 0.693352 0.671307 -0.282103 0.758004 0.588088 -0.0773752 0.756774 0.649081 
0.0513442 0.778003 0.626159 -0.393227 -0.749803 -0.532135 -0.0537118 -0.611213 -0.789642 
-0.594837 -0.65012 -0.472772 -0.411089 -0.676137 -0.611429 0.195384 -0.603918 -0.772728 
-0.641625 -0.76009 -0.102863 -0.833328 -0.55006 -0.054767 0.644023 -0.459517 -0.61162 
0.711124 -0.399794 -0.578332 0.977452 0.0570473 -0.203307 0.905522 0.422281 0.0413382 
0.766341 0.641562 0.0334564 -0.422931 0.667585 0.612748 -0.0696745 0.756418 0.650368 
0.267231 -0.82741 -0.493944 0.449514 -0.6377 -0.62552 -0.504803 -0.716747 -0.48109 
0.913702 -0.260455 -0.311948 0.998643 0.0434271 -0.028747 0.781706 0.603857 0.155862 
0.652719 0.694719 0.302198 -0.95398 0.25362 0.16 0.126418 0.771397 0.62367 
-0.0489402 0.813801 0.57908 -0.528693 -0.774382 -0.347587 -0.187976 -0.847905 -0.495703 
-0.053511 -0.758083 -0.649959 0.128023 -0.904282 -0.407288 0.38167 -0.83022 -0.406278 
0.54745 -0.759334 -0.351725 0.640751 -0.683104 -0.350439 0.827541 -0.455378 -0.32834 