# vtk DataFile Version 4.2
vtk output
ASCII
DATASET POLYDATA
POINTS 521 float
264.253 212.357 110.274 262.844 214.466 109.492 265.359 213.191 110.399 
265.425 213.766 110.272 263.415 215.742 109.362 265.17 216.793 109.594 
265.434 212.501 110.822 266.677 215.582 110.704 256.833 217.842 109.933 
267.831 218.909 110.596 253.007 219.435 110.425 269.351 219.714 111.462 
270.711 221.526 111.091 269.958 221.776 110.73 270.35 222.206 110.803 
271.134 222.042 111.107 271.654 222.2 111.362 272.125 222.426 111.714 
264.007 210.573 111.692 264.263 210.407 112.017 259.992 211.664 111.242 
252.526 216.014 111.307 266.925 214.933 111.403 268.788 221.96 110.524 
272.45 222.395 112.236 272.183 223.031 111.59 273.179 223.311 112.438 
273.601 224.165 112.551 273.38 224.29 112.312 263.466 210.166 112.159 
264.171 210.185 112.386 261.106 210.528 112.054 253.643 214.046 111.994 
267.098 214.346 112.214 251.027 216.099 112.304 273.374 223.289 112.967 
248.976 223.902 112.814 273.575 223.733 112.743 249.372 224.149 112.61 
269.708 224.818 111.462 273.503 224.709 112.545 273.945 224.907 112.927 
274.17 224.874 113.189 249.621 224.619 112.725 250.208 224.649 112.538 
272.682 225.399 112.428 274.077 225.127 113.159 271.693 225.819 112.383 
265.273 210.707 112.618 252.773 213.227 113.396 268.349 216.904 113.064 
248.51 218.965 113.579 247.951 221.768 113.768 272.158 221.801 113.121 
273.493 223.365 113.56 248.565 223.557 113.141 274.157 224.565 113.283 
274.293 224.863 113.473 248.719 225.124 113.606 273.479 225.682 113.158 
268.668 226.619 112.554 249.217 226.224 113.97 266.762 227.704 113.423 
261.787 209.618 113.862 265.314 210.556 113.501 260.066 209.755 114.395 
255.303 211.41 114.144 251.025 214.552 113.598 272.368 222.006 113.727 
273.208 223.033 113.898 274.058 224.398 114.017 274.245 224.66 113.685 
247.75 224.634 114.646 274.304 225.325 113.841 248.695 225.926 114.101 
248.313 225.784 114.476 251.705 226.83 113.661 273.465 226.129 113.915 
273.812 225.89 114.053 249.014 227.129 114.96 272.111 226.899 113.753 
272.395 226.841 113.98 272.878 226.539 114.157 265.427 228.448 114.266 
271.263 227.322 114.05 268.634 228.356 114.568 263.672 209.705 114.679 
257.018 210.371 115.184 255.203 211.007 115.318 252.319 212.638 114.825 
249.628 215.163 114.711 270.987 220.587 114.543 272.189 222.18 114.977 
247.056 222.638 115.681 274.288 225.406 114.086 274.133 225.501 114.287 
274.272 225.337 114.219 252.823 228.069 114.59 272.018 227.085 114.51 
262.595 228.473 114.645 262.772 228.911 115.26 268.041 228.623 114.897 
268.585 228.543 115.035 266.082 228.893 115.384 267.655 228.751 115.221 
259.927 209.591 115.467 260.041 209.602 116.015 266.334 211.552 114.99 
266.251 211.49 115.521 254.014 211.383 115.837 250.415 213.629 115.851 
267.569 214.268 115.707 268.315 216.22 115.414 269.571 218.975 115.849 
271.198 221.173 115.609 273.35 225.732 115.116 273.012 225.971 115.27 
271.868 227.049 114.93 272.39 226.623 115.107 255.625 229.06 115.465 
270.531 227.684 115.344 250.474 229.284 116.287 262.515 229.133 115.75 
268.728 228.524 115.335 268.503 228.512 115.702 263.27 229.219 116.193 
264.134 229.169 116.304 259.852 209.722 116.537 262.692 209.771 116.29 
262.396 209.889 116.675 255.752 210.565 116.813 257 210.275 117.148 
258.638 209.99 116.767 250.543 213.216 117.316 267.464 214.148 116.354 
268.01 215.973 116.598 246.822 221.141 117.065 273.468 224.56 115.175 
271.15 226.121 116.563 247.486 227.296 118.039 270.08 227.412 116.237 
269.391 227.613 116.546 248.607 229.328 117.953 249.259 229.315 117.121 
250.065 229.637 116.929 257.502 229.887 116.579 267.309 228.48 116.716 
258.96 229.979 117.172 259.834 229.893 117.574 264.618 229.064 116.811 
260.898 209.91 116.98 264.045 210.65 117.132 265.801 211.287 116.286 
253.934 211.398 118.119 266.075 211.697 116.526 251.744 212.377 117.953 
267.056 213.512 116.815 249.686 213.981 117.869 248.676 215.329 117.789 
267.499 215.443 117.378 247.124 218.779 118.001 270.769 221.34 116.74 
270.642 221.557 117.024 271.255 222.605 116.763 269.726 225.056 117.799 
268.168 226.782 117.857 266.401 228.228 117.549 264.645 228.911 117.378 
265.058 228.683 117.619 261.472 229.478 117.794 251.457 231.115 118.309 
253.213 231.193 118.199 258.613 230.308 118.276 255.747 210.759 117.896 
256.88 210.64 118.198 258.144 210.589 118.211 257.767 210.777 118.497 
254.044 211.558 118.84 261.399 211.339 118.674 266.034 211.934 116.879 
264.412 212.737 118.67 265.62 213.135 118.212 267.94 217.987 118.133 
268.443 219.306 118.149 246.783 220.526 118.589 269.41 221.362 117.997 
268.674 221.146 118.476 270.618 222.132 117.231 247.197 227.306 119.635 
263.925 228.035 118.861 262.629 228.94 118.417 263.054 228.626 118.666 
259.69 229.988 118.512 249.902 231.032 119.185 250.744 231.49 119.4 
252.773 211.959 118.931 253.144 211.95 119.251 254.553 211.7 119.297 
258.74 211.449 119.162 263.073 213.227 119.37 248.665 215.616 119.891 
263.874 215.037 119.746 267.022 216.517 118.459 266.437 222.726 119.593 
248.917 230.565 120.37 251.109 231.886 120.441 253.41 231.845 119.934 
253.962 231.751 120.092 253.017 231.943 120.369 253.347 212.233 119.799 
250.314 214.078 120.622 254.477 212.881 120.717 246.921 220.707 120.237 
261.945 224.99 120.843 247.145 226.777 121.044 261.536 226.428 120.657 
260.919 227.502 120.52 258.467 229.351 120.574 248.603 230.133 121.333 
249.508 231.018 121.155 250.748 231.778 120.635 250.698 231.748 120.996 
255.107 231.306 120.482 251.654 231.958 120.99 250.55 214.132 121.013 
250.607 214.439 121.45 255.717 214.691 121.827 247.063 225.216 121.546 
256.515 229.913 121.286 249.565 230.979 121.638 254.621 231.014 121.465 
250.952 231.796 121.233 253.87 231.557 121.148 253.325 231.663 121.304 
251.95 231.833 121.33 250.1 215.145 121.855 252.037 214.853 122.247 
249.345 216.521 122.21 256.016 219.641 123.153 248.231 228.866 122.643 
248.128 229.229 122.159 249.838 231.076 121.833 249.967 230.938 122.107 
250.942 231.339 121.937 250.016 216.404 122.701 250.409 216.632 123.026 
251.557 216.587 123.32 251.918 216.914 123.485 253.052 217.205 123.497 
248.643 218.614 122.786 247.521 223.584 122.638 247.729 225.558 122.895 
247.961 227.937 122.777 248.616 229.41 122.62 252.384 228.851 123.601 
250.733 218.086 123.665 250.439 220.563 124.365 251.111 221.174 124.531 
251.817 221.251 124.452 249.04 222.312 124.1 248.583 223.626 123.902 
251.98 224.218 124.567 249.154 225.49 124.168 250.497 225.948 124.462 
250.69 225.462 124.564 249.408 226.062 124.168 251.853 226.73 124.315 
249.469 227.922 123.641 249.535 229.5 123.033 250.809 229.053 123.524 
250.279 221.062 124.457 250.726 222.18 124.629 249.491 224.353 124.438 
249.884 220.889 330.645 250.831 220.803 330.485 249.604 222.38 330.562 
250.787 222.058 330.361 249.471 223.91 330.548 251.329 223.538 330.346 
249.08 224.862 330.842 249.306 225.512 330.852 250.619 225.302 330.44 
250.047 217.202 331.748 251.015 217.984 331.212 252.893 219.162 330.998 
248.626 222.79 331.04 248.082 223.593 331.565 251.787 225.258 330.494 
248.242 227.362 332.03 250.877 227.355 330.906 252.982 228.196 331.318 
248.951 228.996 332.126 250.038 215.35 332.878 252.565 215.958 331.995 
248.989 217.765 332.171 248.431 218.216 332.55 247.697 221.433 332.131 
247.319 222.864 332.706 247.224 225.384 333.144 249.072 230.143 333.019 
249.823 230.922 333.235 252.264 230.974 332.69 252.916 214.143 333.242 
250.25 214.889 333.209 248.909 216.212 333.145 247.454 218.882 333.699 
256.85 226.309 332.301 247.277 227.17 334.042 247.879 228.221 333.129 
248.666 230.204 334.026 249.548 230.915 333.519 255.515 230.573 333.553 
251.319 231.68 333.56 251.116 231.819 333.876 253.563 231.551 333.552 
251.677 231.917 333.913 250.417 213.96 334.276 251.508 213.037 334.964 
248.779 215.511 334.516 257.84 229.628 334.206 255.233 230.915 333.822 
250.77 231.768 334.082 250.739 231.818 334.421 253.39 231.757 333.763 
251.674 232.048 334.346 253.354 231.852 334.104 251.936 212.401 335.928 
255.472 212.535 334.599 265.117 219.493 334.937 261.887 225.161 334.156 
260.98 226.074 334.012 260.849 228.699 335.215 248.594 230.299 335.249 
251.009 231.931 334.631 251.15 231.91 334.948 254.466 231.531 335.078 
255.527 231.179 334.941 252.581 232.022 334.652 257.668 210.787 336.436 
249.51 214.29 335.97 248.472 215.59 336.07 264.935 215.12 335.635 
266.538 214.502 336.662 266.411 215.825 336.254 265.775 216.992 335.614 
266.594 218.936 335.681 268.112 218.173 337.079 265.471 224.92 335.368 
267.595 224.302 336.044 249.839 231.201 335.599 251.949 231.768 335.626 
255.572 210.743 337.3 263.98 210.667 337.552 266.263 212.031 337.914 
265.941 211.558 337.949 266.397 212.618 337.622 266.78 213.314 337.579 
269.108 219.085 337.946 269.636 222.488 336.94 269.902 224.711 337.199 
264.242 228.392 336.503 267.372 227.685 337.304 248.079 228.996 337.22 
264.86 228.835 337.302 259.35 230.058 336.347 249.853 230.868 336.43 
251.936 231.194 336.765 255.547 230.964 336.811 258.239 230.393 336.781 
259.513 209.837 338.282 262.974 209.825 338.507 256.087 210.435 338.452 
265.983 211.316 338.273 252.038 212.353 338.75 267.201 213.431 338.358 
267.625 214.936 338.324 272.44 224.765 338.891 269.802 226.758 337.965 
271.044 226.327 338.446 269.372 227.688 338.449 248.788 229.374 337.8 
250.682 230.711 337.154 258.882 230.164 337.354 263.997 229.212 338.115 
263.978 209.854 339.216 265.117 210.28 339.269 265.805 210.894 338.974 
266.269 211.384 339.182 246.798 222.556 338.278 273.087 224.795 339.435 
273.515 224.466 339.842 273.998 224.979 340.343 273.829 225.406 340.214 
271.398 227.07 339.423 269.397 227.921 338.798 271.555 227.233 339.902 
249.638 229.195 338.66 257.053 229.873 338.556 258.659 229.713 338.661 
267.647 228.732 339.121 265.368 210.46 340.177 256.683 210.399 339.76 
248.272 217.255 339.713 247.794 218.523 339.642 270.1 219.468 340.685 
246.971 223.616 339.094 273.255 223.68 339.912 273.407 223.506 340.396 
274.014 224.445 340.596 274.221 224.788 340.673 274.246 224.961 340.634 
[...]
POINT_DATA 521
COLOR_SCALARS scalars 3
0.501961 0.752941 0.886275 0.501961 0.752941 0.886275 0.501961 0.752941 0.886275 
0.501961 0.752941 0.886275 0.501961 0.752941 0.886275 
0.501961 0.752941 0.886275 0.501961 0.752941 0.886275 
0.501961 0.752941 0.886275 0.501961 0.752941 0.886275 
0.501961 0.752941 0.886275 0.501961 0.752941 0.886275 
0.501961 0.752941 0.886275 0.501961 0.752941 0.886275 
0.501961 0.752941 0.886275 0.501961 0.752941 0.886275 
0.501961 0.752941 0.886275 0.501961 0.752941 0.886275 
0.501961 0.752941 0.886275 0.501961 0.752941 0.886275 
0.501961 0.752941 0.886275 0.501961 0.752941 0.886275 
0.501961 0.752941 0.886275 0.501961 0.752941 0.886275 
0.501961 0.752941 0.886275 0.501961 0.752941 0.886275 
0.501961 0.752941 0.886275 0.501961 0.752941 0.886275 
0.501961 0.752941 0.886275 0.501961 0.752941 0.886275 
0.501961 0.752941 0.886275 0.501961 0.752941 0.886275 
0.501961 0.752941 0.886275 0.501961 0.752941 0.886275 
0.501961 0.752941 0.886275 0.501961 0.752941 0.886275 
0.501961 0.752941 0.886275 0.501961 0.752941 0.886275 
0.501961 0.752941 0.886275 0.501961 0.752941 0.886275 
0.501961 0.752941 0.886275 0.501961 0.752941 0.886275 
0.501961 0.752941 0.886275 0.501961 0.752941 0.886275 
0.501961 0.752941 0.886275 0.501961 0.752941 0.886275 
0.501961 0.752941 0.886275 0.501961 0.752941 0.886275 
0.501961 0.752941 0.886275 0.501961 0.752941 0.886275 
0.501961 0.752941 0.886275 0.501961 0.752941 0.886275 
0.501961 0.752941 0.886275 0.501961 0.752941 0.886275 
0.501961 0.752941 0.886275 0.501961 0.752941 0.886275 
0.501961 0.752941 0.886275 0.501961 0.752941 0.886275 
0.501961 0.752941 0.886275 0.501961 0.752941 0.886275 
0.501961 0.752941 0.886275 0.501961 0.752941 0.886275 
0.501961 0.752941 0.886275 0.501961 0.752941 0.886275 
0.501961 0.752941 0.886275 0.501961 0.752941 0.886275 
0.501961 0.752941 0.886275 0.501961 0.752941 0.886275 
0.501961 0.752941 0.886275 0.501961 0.752941 0.886275 
0.501961 0.752941 0.886275 0.501961 0.752941 0.886275 
0.501961 0.752941 0.886275 0.501961 0.752941 0.886275 
0.501961 0.752941 0.886275 0.501961 0.752941 0.886275 
0.501961 0.752941 0.886275 0.501961 0.752941 0.886275 
0.501961 0.752941 0.886275 0.501961 0.752941 0.886275 
0.501961 0.752941 0.886275 0.501961 0.752941 0.886275 
0.501961 0.752941 0.886275 0.501961 0.752941 0.886275 
0.501961 0.752941 0.886275 0.501961 0.752941 0.886275 
0.501961 0.752941 0.886275 0.501961 0.752941 0.886275 
0.501961 0.752941 0.886275 0.501961 0.752941 0.886275 
0.501961 0.752941 0.886275 0.501961 0.752941 0.886275 
0.501961 0.752941 0.886275 0.501961 0.752941 0.886275 
0.501961 0.752941 0.886275 0.501961 0.752941 0.886275 
0.501961 0.752941 0.886275 0.501961 0.752941 0.886275 
0.501961 0.752941 0.886275 0.501961 0.752941 0.886275 
0.501961 0.752941 0.886275 0.501961 0.752941 0.886275 
0.501961 0.752941 0.886275 0.501961 0.752941 0.886275 
0.501961 0.752941 0.886275 0.501961 0.752941 0.886275 
0.501961 0.752941 0.886275 0.501961 0.752941 0.886275 
0.501961 0.752941 0.886275 0.501961 0.752941 0.886275 
0.501961 0.752941 0.886275 0.501961 0.752941 0.886275 
0.501961 0.752941 0.886275 0.501961 0.752941 0.886275 
0.501961 0.752941 0.886275 0.501961 0.752941 0.886275 
0.501961 0.752941 0.886275 0.501961 0.752941 0.886275 
0.501961 0.752941 0.886275 0.501961 0.752941 0.886275 
0.501961 0.752941 0.886275 0.501961 0.752941 0.886275 
0.501961 0.752941 0.886275 0.501961 0.752941 0.886275 
0.501961 0.752941 0.886275 0.501961 0.752941 0.886275 
0.501961 0.752941 0.886275 0.501961 0.752941 0.886275 
0.501961 0.752941 0.886275 0.501961 0.752941 0.886275 
0.501961 0.752941 0.886275 0.501961 0.752941 0.886275 
0.501961 0.752941 0.886275 0.501961 0.752941 0.886275 
0.501961 0.752941 0.886275 0.501961 0.752941 0.886275 
0.501961 0.752941 0.886275 0.501961 0.752941 0.886275 
0.501961 0.752941 0.886275 0.501961 0.752941 0.886275 
0.501961 0.752941 0.886275 0.501961 0.752941 0.886275 
0.501961 0.752941 0.886275 0.501961 0.752941 0.886275 
0.501961 0.752941 0.886275 0.501961 0.752941 0.886275 
0.501961 0.752941 0.886275 0.501961 0.752941 0.886275 
0.501961 0.752941 0.886275 0.501961 0.752941 0.886275 
0.501961 0.752941 0.886275 0.501961 0.752941 0.886275 
0.501961 0.752941 0.886275 0.501961 0.752941 0.886275 
0.501961 0.752941 0.886275 0.501961 0.752941 0.886275 
0.501961 0.752941 0.886275 0.501961 0.752941 0.886275 
0.501961 0.752941 0.886275 0.501961 0.752941 0.886275 
0.501961 0.752941 0.886275 0.501961 0.752941 0.886275 
0.501961 0.752941 0.886275 0.501961 0.752941 0.886275 
0.501961 0.752941 0.886275 0.501961 0.752941 0.886275 
0.501961 0.752941 0.886275 0.501961 0.752941 0.886275 
0.501961 0.752941 0.886275 0.501961 0.752941 0.886275 
0.501961 0.752941 0.886275 0.501961 0.752941 0.886275 
0.501961 0.752941 0.886275 0.501961 0.752941 0.886275 
0.501961 0.752941 0.886275 0.501961 0.752941 0.886275 
0.501961 0.752941 0.886275 0.501961 0.752941 0.886275 
0.501961 0.752941 0.886275 0.501961 0.752941 0.886275 
0.501961 0.752941 0.886275 0.501961 0.752941 0.886275 
0.501961 0.752941 0.886275 0.501961 0.752941 0.886275 
0.501961 0.752941 0.886275 0.501961 0.752941 0.886275 
0.501961 0.752941 0.886275 0.501961 0.752941 0.886275 
0.501961 0.752941 0.886275 0.501961 0.752941 0.886275 
0.501961 0.752941 0.886275 0.501961 0.752941 0.886275 
0.501961 0.752941 0.886275 0.501961 0.752941 0.886275 
0.501961 0.752941 0.886275 0.501961 0.752941 0.886275 
0.501961 0.752941 0.886275 0.501961 0.752941 0.886275 
0.501961 0.752941 0.886275 0.501961 0.752941 0.886275 
0.501961 0.752941 0.886275 0.501961 0.752941 0.886275 
0.501961 0.752941 0.886275 0.501961 0.752941 0.886275 
0.501961 0.752941 0.886275 0.501961 0.752941 0.886275 
0.501961 0.752941 0.886275 0.501961 0.752941 0.886275 
0.501961 0.752941 0.886275 0.501961 0.752941 0.886275 
0.501961 0.752941 0.886275 0.501961 0.752941 0.886275 
0.501961 0.752941 0.886275 0.501961 0.752941 0.886275 
0.501961 0.752941 0.886275 0.501961 0.752941 0.886275 
0.501961 0.752941 0.886275 0.501961 0.752941 0.886275 
0.501961 0.752941 0.886275 0.501961 0.752941 0.886275 
0.501961 0.752941 0.886275 0.501961 0.752941 0.886275 
0.501961 0.752941 0.886275 0.501961 0.752941 0.886275 
0.501961 0.752941 0.886275 0.501961 0.752941 0.886275 
0.501961 0.752941 0.886275 0.501961 0.752941 0.886275 
0.501961 0.752941 0.886275 0.501961 0.752941 0.886275 
0.501961 0.752941 0.886275 0.501961 0.752941 0.886275 
0.501961 0.752941 0.886275 0.501961 0.752941 0.886275 
0.501961 0.752941 0.886275 0.501961 0.752941 0.886275 
0.501961 0.752941 0.886275 0.501961 0.752941 0.886275 
0.501961 0.752941 0.886275 0.501961 0.752941 0.886275 
0.501961 0.752941 0.886275 0.501961 0.752941 0.886275 
0.501961 0.752941 0.886275 0.501961 0.752941 0.886275 
0.501961 0.752941 0.886275 0.501961 0.752941 0.886275 
0.501961 0.752941 0.886275 0.501961 0.752941 0.886275 
0.501961 0.752941 0.886275 0.501961 0.752941 0.886275 
0.501961 0.752941 0.886275 0.501961 0.752941 0.886275 
0.501961 0.752941 0.886275 0.501961 0.752941 0.886275 
0.501961 0.752941 0.886275 0.501961 0.752941 0.886275 
0.501961 0.752941 0.886275 0.501961 0.752941 0.886275 
0.501961 0.752941 0.886275 0.501961 0.752941 0.886275 
0.501961 0.752941 0.886275 0.501961 0.752941 0.886275 
0.501961 0.752941 0.886275 0.501961 0.752941 0.886275 
0.501961 0.752941 0.886275 0.501961 0.752941 0.886275 
0.501961 0.752941 0.886275 0.501961 0.752941 0.886275 
0.501961 0.752941 0.886275 0.501961 0.752941 0.886275 
0.501961 0.752941 0.886275 0.501961 0.752941 0.886275 
0.501961 0.752941 0.886275 0.501961 0.752941 0.886275 
0.501961 0.752941 0.886275 0.501961 0.752941 0.886275 
0.501961 0.752941 0.886275 0.501961 0.752941 0.886275 
0.501961 0.752941 0.886275 0.501961 0.752941 0.886275 
0.501961 0.752941 0.886275 0.501961 0.752941 0.886275 
0.501961 0.752941 0.886275 0.501961 0.752941 0.886275 
0.501961 0.752941 0.886275 0.501961 0.752941 0.886275 
0.501961 0.752941 0.886275 0.501961 0.752941 0.886275 
0.501961 0.752941 0.886275 0.501961 0.752941 0.886275 
0.501961 0.752941 0.886275 0.501961 0.752941 0.886275 
0.501961 0.752941 0.886275 0.501961 0.752941 0.886275 
0.501961 0.752941 0.886275 0.501961 0.752941 0.886275 
0.501961 0.752941 0.886275 0.501961 0.752941 0.886275 
0.501961 0.752941 0.886275 0.501961 0.752941 0.886275 
0.501961 0.752941 0.886275 0.501961 0.752941 0.886275 
0.501961 0.752941 0.886275 0.501961 0.752941 0.886275 
0.501961 0.752941 0.886275 0.501961 0.752941 0.886275 
0.501961 0.752941 0.886275 0.501961 0.752941 0.886275 
0.501961 0.752941 0.886275 0.501961 0.752941 0.886275 
0.501961 0.752941 0.886275 0.501961 0.752941 0.886275 
0.501961 0.752941 0.886275 0.501961 0.752941 0.886275 
0.501961 0.752941 0.886275 0.501961 0.752941 0.886275 
0.501961 0.752941 0.886275 0.501961 0.752941 0.886275 
0.501961 0.752941 0.886275 0.501961 0.752941 0.886275 
0.501961 0.752941 0.886275 0.501961 0.752941 0.886275 
0.501961 0.752941 0.886275 0.501961 0.752941 0.886275 
0.501961 0.752941 0.886275 0.501961 0.752941 0.886275 
0.501961 0.752941 0.886275 0.501961 0.752941 0.886275 
0.501961 0.752941 0.886275 0.501961 0.752941 0.886275 
0.501961 0.752941 0.886275 0.501961 0.752941 0.886275 
0.501961 0.752941 0.886275 0.501961 0.752941 0.886275 
0.501961 0.752941 0.886275 0.501961 0.752941 0.886275 
0.501961 0.752941 0.886275 0.501961 0.752941 0.886275 
0.501961 0.752941 0.886275 0.501961 0.752941 0.886275 
0.501961 0.752941 0.886275 0.501961 0.752941 0.886275 
0.501961 0.752941 0.886275 0.501961 0.752941 0.886275 
0.501961 0.752941 0.886275 0.501961 0.752941 0.886275 
0.501961 0.752941 0.886275 0.501961 0.752941 0.886275 
0.501961 0.752941 0.886275 0.501961 0.752941 0.886275 
0.501961 0.752941 0.886275 0.501961 0.752941 0.886275 
0.501961 0.752941 0.886275 0.501961 0.752941 0.886275 
0.501961 0.752941 0.886275 0.501961 0.752941 0.886275 
0.501961 0.752941 0.886275 0.501961 0.752941 0.886275 
0.501961 0.752941 0.886275 0.501961 0.752941 0.886275 
0.501961 0.752941 0.886275 0.501961 0.752941 0.886275 
0.501961 0.752941 0.886275 0.501961 0.752941 0.886275 
0.501961 0.752941 0.886275 0.501961 0.752941 0.886275 
0.501961 0.752941 0.886275 0.501961 0.752941 0.886275 
0.501961 0.752941 0.886275 0.501961 0.752941 0.886275 
0.501961 0.752941 0.886275 0.501961 0.752941 0.886275 
0.501961 0.752941 0.886275 0.501961 0.752941 0.886275 
0.501961 0.752941 0.886275 0.501961 0.752941 0.886275 
0.501961 0.752941 0.886275 0.501961 0.752941 0.886275 
0.501961 0.752941 0.886275 0.501961 0.752941 0.886275 
0.501961 0.752941 0.886275 0.501961 0.752941 0.886275 
0.501961 0.752941 0.886275 0.501961 0.752941 0.886275 
0.501961 0.752941 0.886275 0.501961 0.752941 0.886275 
0.501961 0.752941 0.886275 0.501961 0.752941 0.886275 
0.501961 0.752941 0.886275 0.501961 0.752941 0.886275 
0.501961 0.752941 0.886275 0.501961 0.752941 0.886275 
0.501961 0.752941 0.886275 0.501961 0.752941 0.886275 
0.501961 0.752941 0.886275 0.501961 0.752941 0.886275 
0.501961 0.752941 0.886275 0.501961 0.752941 0.886275 
0.501961 0.752941 0.886275 0.501961 0.752941 0.886275 
0.501961 0.752941 0.886275 0.501961 0.752941 0.886275 
0.501961 0.752941 0.886275 0.501961 0.752941 0.886275 
0.501961 0.752941 0.886275 0.501961 0.752941 0.886275 
0.501961 0.752941 0.886275 0.501961 0.752941 0.886275 
0.501961 0.752941 0.886275 0.501961 0.752941 0.886275 
0.501961 0.752941 0.886275 0.501961 0.752941 0.886275 
0.501961 0.752941 0.886275 0.501961 0.752941 0.886275 
0.501961 0.752941 0.886275 0.501961 0.752941 0.886275 
0.501961 0.752941 0.886275 0.501961 0.752941 0.886275 
0.501961 0.752941 0.886275 0.501961 0.752941 0.886275 
0.501961 0.752941 0.886275 0.501961 0.752941 0.886275 
0.501961 0.752941 0.886275 0.501961 0.752941 0.886275 
0.501961 0.752941 0.886275 0.501961 0.752941 0.886275 
0.501961 0.752941 0.886275 0.501961 0.752941 0.886275 
0.501961 0.752941 0.886275 0.501961 0.752941 0.886275 
0.501961 0.752941 0.886275 0.501961 0.752941 0.886275 
0.501961 0.752941 0.886275 0.501961 0.752941 0.886275 
0.501961 0.752941 0.886275 0.501961 0.752941 0.886275 
0.501961 0.752941 0.886275 0.501961 0.752941 0.886275 
0.501961 0.752941 0.886275 0.501961 0.752941 0.886275 
0.501961 0.752941 0.886275 0.501961 0.752941 0.886275 
0.501961 0.752941 0.886275 0.501961 0.752941 0.886275 
0.501961 0.752941 0.886275 0.501961 0.752941 0.886275 
0.501961 0.752941 0.886275 0.501961 0.752941 0.886275 
0.501961 0.752941 0.886275 0.501961 0.752941 0.886275 
0.501961 0.752941 0.886275 0.501961 0.752941 0.886275 
0.501961 0.752941 0.886275 0.501961 0.752941 0.886275 
0.501961 0.752941 0.886275 0.501961 0.752941 0.886275 
0.501961 0.752941 0.886275 0.501961 0.752941 0.886275 
0.501961 0.752941 0.886275 0.501961 0.752941 0.886275 
0.501961 0.752941 0.886275 0.501961 0.752941 0.886275 
0.501961 0.752941 0.886275 0.501961 0.752941 0.886275 
0.501961 0.752941 0.886275 0.501961 0.752941 0.886275 
0.501961 0.752941 0.886275 0.501961 0.752941 0.886275 
0.501961 0.752941 0.886275 0.501961 0.752941 0.886275 
0.501961 0.752941 0.886275 0.501961 0.752941 0.886275 
0.501961 0.752941 0.886275 0.501961 0.752941 0.886275 
0.501961 0.752941 0.886275 0.501961 0.752941 0.886275 
0.501961 0.752941 0.886275 0.501961 0.752941 0.886275 
0.501961 0.752941 0.886275 0.501961 0.752941 0.886275 
0.501961 0.752941 0.886275 0.501961 0.752941 0.886275 
0.501961 0.752941 0.886275 0.501961 0.752941 0.886275 
0.501961 0.752941 0.886275 0.501961 0.752941 0.886275 
0.501961 0.752941 0.886275 0.501961 0.752941 0.886275 
0.501961 0.752941 0.886275 0.501961 0.752941 0.886275 
0.501961 0.752941 0.886275 0.501961 0.752941 0.886275 
0.501961 0.752941 0.886275 0.501961 0.752941 0.886275 
0.501961 0.752941 0.886275 0.501961 0.752941 0.886275 
0.501961 0.752941 0.886275 0.501961 0.752941 0.886275 
0.501961 0.752941 0.886275 0.501961 0.752941 0.886275 
0.501961 0.752941 0.886275 0.501961 0.752941 0.886275 
0.501961 0.752941 0.886275 0.501961 0.752941 0.886275 
0.501961 0.752941 0.886275 0.501961 0.752941 0.886275 
0.501961 0.752941 0.886275 0.501961 0.752941 0.886275 
0.501961 0.752941 0.886275 0.501961 0.752941 0.886275 
0.501961 0.752941 0.886275 0.501961 0.752941 0.886275 
0.501961 0.752941 0.886275 0.501961 0.752941 0.886275 
0.501961 0.752941 0.886275 0.501961 0.752941 0.886275 
0.501961 0.752941 0.886275 0.501961 0.752941 0.886275 
0.501961 0.752941 0.886275 0.501961 0.752941 0.886275 
0.501961 0.752941 0.886275 0.501961 0.752941 0.886275 

NORMALS Normals float
0.139178 -0.521458 -0.84185 0.00344381 -0.256431 -0.966556 0.612849 -0.332298 -0.716934 
0.430854 -0.231028 -0.872348 0.0925173 -0.0557558 -0.994149 0.288846 -0.0483604 -0.956153 
0.622482 -0.476961 -0.620503 0.810928 -0.138315 -0.568564 -0.105336 0.035226 -0.993813 
0.576514 -0.332419 -0.746411 -0.387293 0.0279839 -0.921532 0.680308 -0.617934 -0.394129 
0.431783 -0.472632 -0.768234 0.135048 -0.17011 -0.976128 0.266603 0.0346153 -0.963185 
0.499371 -0.261623 -0.825943 0.530517 -0.335173 -0.778595 0.72764 -0.359951 -0.583931 
0.127889 -0.754745 -0.643431 0.569668 -0.709832 -0.414267 -0.258624 -0.611304 -0.747944 
-0.425647 -0.369381 -0.826065 0.884162 -0.13499 -0.447253 0.0577584 0.073704 -0.995606 
0.714227 -0.601518 -0.357849 0.578321 -0.100573 -0.809586 0.72079 -0.512 -0.467244 
0.759459 -0.119028 -0.639574 0.511501 0.0603617 -0.85716 -0.00250457 -0.865904 -0.500203 
0.410978 -0.85687 -0.311242 -0.18164 -0.788644 -0.587408 -0.390429 -0.573469 -0.720207 
0.919577 -0.328825 -0.215065 -0.612629 -0.382318 -0.69175 0.725044 -0.66634 -0.174077 
-0.654743 0.288721 -0.698535 0.830297 -0.425186 -0.360311 -0.421856 0.297502 -0.856463 
0.131938 0.332581 -0.9338 0.63383 0.146386 -0.759493 0.610107 0.278497 -0.741761 
0.822676 -0.0141471 -0.568335 -0.585609 0.453126 -0.672115 -0.0638849 0.471576 -0.879508 
0.374115 0.446387 -0.812881 0.752327 0.402395 -0.521615 0.26631 0.591166 -0.761316 
0.59601 -0.710393 -0.374318 -0.45063 -0.717221 -0.531532 0.863198 -0.434849 -0.256507 
-0.751132 -0.244422 -0.613237 -0.875008 -0.084197 -0.47673 0.678421 -0.733736 -0.0371077 
0.843982 -0.535679 -0.0272484 -0.709076 0.161399 -0.686413 0.88735 -0.371381 -0.273288 
0.981615 -0.0282073 -0.188775 -0.57276 0.386 -0.723153 0.484523 0.68472 -0.544422 
0.0637928 0.640899 -0.76497 -0.356281 0.69924 -0.61978 -0.0275333 0.726998 -0.686087 
-0.104508 -0.944042 -0.31283 0.69069 -0.718642 -0.0806313 -0.0502045 -0.972684 -0.226641 
-0.284109 -0.872902 -0.39664 -0.606023 -0.570101 -0.554725 0.705398 -0.707618 0.0411166 
0.768513 -0.62219 0.14922 0.86137 -0.474154 0.182262 0.935446 -0.347575 0.0642891 
-0.836146 0.239152 -0.493625 0.859458 0.448252 -0.245769 -0.604668 0.485969 -0.631039 
-0.780059 0.51361 -0.357369 -0.0433241 0.592339 -0.804523 0.574598 0.814142 0.0837209 
0.613893 0.775656 0.14661 -0.35539 0.652763 -0.669028 0.352306 0.819459 -0.45207 
0.531626 0.810203 -0.24687 0.576554 0.81704 -0.00568176 0.0213737 0.847492 -0.530378 
0.328324 0.934947 -0.134451 0.267549 0.849452 -0.454806 0.409744 -0.9122 4.83226e-05 
-0.25997 -0.935649 -0.238696 -0.303298 -0.903194 -0.303727 -0.631799 -0.763077 -0.136173 
-0.770537 -0.499161 -0.396372 0.760217 -0.644409 0.0825001 0.730489 -0.617587 0.2915 
-0.982032 0.127837 -0.138819 0.859205 0.495378 0.127931 0.629571 0.52561 0.572167 
0.944445 -0.013329 0.328398 0.140365 0.52932 -0.836731 0.447481 0.893298 0.0421821 
-0.0630886 0.849909 -0.52314 -0.00305506 0.906328 -0.422563 0.122431 0.965407 -0.230216 
0.33724 0.918914 -0.204615 0.0693611 0.946105 -0.316344 0.117661 0.987282 -0.106916 
-0.00500194 -0.999552 -0.0295134 0.0450093 -0.994405 0.0955618 0.880681 -0.472563 -0.0329553 
0.74732 -0.646392 0.153917 -0.540412 -0.84072 -0.033834 -0.607509 -0.758666 -0.235283 
0.911643 -0.410664 0.016205 0.910452 -0.393779 0.126552 0.809097 -0.489796 0.32475 
0.74959 -0.557598 0.356649 0.659933 0.462554 0.592058 0.620867 0.534995 0.572978 
0.431176 0.840513 0.328062 0.553623 0.754722 0.351988 0.0796666 0.597631 -0.797804 
0.473236 0.854636 0.213647 -0.2388 0.734311 -0.635423 -0.0059728 0.943647 -0.3309 
0.384338 0.916056 0.114565 0.288126 0.932299 0.218636 0.114804 0.986776 -0.114422 
0.0616396 0.998096 0.00217856 -0.1738 -0.964254 0.20002 0.172493 -0.959781 0.221508 
0.152902 -0.848777 0.50616 -0.347056 -0.93521 0.0702411 -0.0630095 -0.978705 0.195365 
-0.139673 -0.911989 0.385703 -0.612721 -0.787302 -0.0687608 0.927388 -0.326704 0.182254 
0.881595 -0.329233 0.338226 -0.990693 -0.0438492 -0.128858 0.696022 -0.0649994 0.715073 
0.512886 0.500616 0.697374 -0.870738 0.362831 -0.331918 0.456019 0.658047 0.599183 
0.44503 0.677225 0.585931 -0.700451 0.625964 -0.342838 -0.593264 0.614982 -0.519457 
-0.363205 0.782881 -0.505153 0.142351 0.824658 -0.547426 0.288694 0.835042 0.468359 
0.285072 0.709 -0.645022 0.213224 0.912163 -0.349992 0.187922 0.958664 0.213656 
0.121207 -0.925703 0.358305 0.357217 -0.74825 0.559033 0.546699 -0.794968 0.262956 
-0.297454 -0.947606 0.116466 0.722266 -0.559812 0.406132 -0.50386 -0.861368 0.0645709 
0.831915 -0.455611 0.31676 -0.714326 -0.698826 0.037161 -0.881291 -0.469746 -0.0516163 
0.884424 -0.321542 0.338239 -0.954397 -0.285947 -0.0857966 0.754618 -0.447733 0.479673 
0.677087 -0.38126 0.62944 0.709393 -0.165287 0.685159 0.496242 0.204764 0.843692 
0.35722 0.474567 0.804475 0.29666 0.745033 0.597427 0.176603 0.910148 0.374756 
0.287975 0.786121 0.546886 0.256264 0.95804 0.128407 -0.170592 0.861141 -0.478889 
-0.0099008 0.863693 -0.503921 0.240549 0.969483 -0.0473207 -0.165895 -0.907368 0.386214 
-0.145663 -0.861456 0.486493 0.0128468 -0.914409 0.404588 -0.0520056 -0.817959 0.572922 
-0.134771 -0.92236 0.362063 0.084208 -0.636002 0.767079 0.726797 -0.491013 0.480284 
0.367859 -0.420223 0.829513 0.554236 -0.44088 0.706008 0.828115 -0.310668 0.466595 
0.599492 -0.260986 0.756634 -0.974872 -0.199257 0.099609 0.525628 -0.0339006 0.850039 
0.517375 -0.204514 0.830961 0.642475 0.00901308 0.766253 -0.934934 0.353234 -0.0335341 
0.327101 0.71081 0.622699 0.279255 0.911928 0.300671 0.414907 0.659409 0.626922 
0.29822 0.933781 0.197782 -0.453862 0.822892 -0.341845 -0.162165 0.928897 -0.332946 