# vtk DataFile Version 4.2
vtk output
ASCII
DATASET POLYDATA
POINTS 472 float
284.836 207.837 105.622 282.453 208.336 105.602 285.774 208.724 105.282 
281.734 208.979 105.512 291.182 208.563 106.123 291.899 209.398 106.029 
282.086 209.785 105.319 283.859 211.122 105.186 291.256 210.443 105.646 
280.743 207.847 106.16 282.009 207.034 106.457 278.398 208.271 106.562 
277.565 209.103 106.46 279.88 209.41 105.864 294.378 210.146 106.968 
280.346 211.01 105.686 294.657 210.94 107.049 291.646 211.61 105.81 
280.276 212.626 105.866 293.683 212.335 106.66 284.49 214.025 105.897 
284.876 205.79 107.435 279.911 206.297 107.683 284.71 206.231 106.874 
289.974 206.529 107.702 292.899 208.558 107.118 295.411 210.23 108.06 
295.757 210.786 108.208 296.045 211.334 108.354 294.808 212.188 107.292 
294.262 212.731 107.11 292.25 214.74 107.111 294.289 214.293 107.912 
282.595 205.337 108.795 288.348 205.608 108.321 279.216 205.786 108.701 
290.177 206.368 108.306 273.117 208.381 108.283 271.81 209.569 108.201 
295.696 210.407 108.335 295.854 210.512 108.676 296.297 211.532 108.659 
296.379 211.829 108.698 296.456 211.744 108.979 296.036 212.781 108.455 
295.324 213.755 108.324 287.544 216.774 107.31 275.283 217.334 107.813 
289.835 217.145 108.127 280.222 218.341 107.82 285.267 218.316 108.018 
279.777 205.323 109.822 285.283 205.211 109.155 290.73 206.506 109.205 
272.953 207.41 109.553 291.996 207.276 108.595 269.116 209.076 109.894 
295.145 209.621 108.758 295.862 210.416 109.037 296.499 211.819 109.268 
267.644 212.523 109.811 267.24 212.377 110.25 268.253 212.685 109.317 
296.439 212.366 108.977 296.494 212.139 109.187 267.484 212.944 110.048 
267.501 213.51 110.295 269.403 215.536 109.16 268.074 215.646 110.408 
270.118 216.502 109.096 293.267 216.312 109.116 269.061 217.448 110.576 
269.506 217.742 110.187 270.885 218.838 109.948 286.633 219.356 109.196 
279.288 220.355 108.992 277.572 205.607 110.283 284.152 205.161 109.964 
287.533 205.373 109.418 275.515 206.401 109.662 270.409 207.885 110.393 
267.603 209.778 110.408 267.399 209.993 110.508 296.216 211.11 109.608 
267.043 212.382 110.599 296.127 213.142 109.582 296.32 212.671 109.658 
267.862 215.569 110.72 294.696 215.137 109.453 293.74 216.215 109.827 
294.086 215.861 110.081 292.729 217.101 109.923 270.835 219.514 110.878 
283.219 220.685 109.631 287.025 219.924 110.167 289.006 205.778 109.902 
288.913 205.863 110.314 290.373 206.447 110.268 292.459 207.604 109.832 
293.008 208.074 110.114 267.465 209.704 110.702 295.384 210.292 110.306 
266.888 211.135 111.2 266.842 211.71 111.142 266.856 212.059 111.459 
296.073 212.247 110.285 296.318 212.334 109.861 295.916 213.37 110.037 
294.976 214.759 110.234 294.591 215.055 110.627 268.012 216.286 112.038 
294.08 215.691 110.624 293.12 216.717 110.636 291.34 218.153 110.397 
289.554 219.037 110.576 286.579 220.357 110.691 273.271 221.481 111.514 
284.35 221.218 110.857 287.486 220.152 111.315 278.706 222.531 111.033 
280.353 222.452 111.169 275.561 222.789 112.036 277.325 205.68 111.518 
278.605 205.512 111.826 273.967 206.547 111.221 269.644 207.764 112.099 
291.748 207.465 110.766 292.018 207.837 111.032 267.604 209.186 111.679 
294.111 209.7 111.036 266.799 211.012 111.732 295.199 211.251 111.033 
295.788 212.091 110.655 294.718 213.927 111.281 292.931 216.638 111.144 
290.625 218.411 111.409 287.948 219.912 111.58 275.372 222.887 112.528 
278.025 223.119 111.956 280.819 222.678 112.052 277.864 205.788 112.309 
282.937 205.631 112.052 270.778 207.498 112.905 289.133 207.266 112.262 
289.615 207.71 112.451 290.819 207.416 111.454 291.796 208.177 111.523 
291.517 216.598 112.557 289.585 218.499 112.533 271.534 220.763 113.294 
288.613 219.331 112.241 286.446 220.501 112.405 274.579 222.651 113.445 
283.188 221.991 112.474 281.324 222.576 112.559 276.883 223.516 113.246 
276.997 223.569 113.449 278.185 205.952 112.644 278.368 206.391 113.167 
282.817 206.46 113.217 267.422 209.449 112.821 286.237 207.893 113.688 
287.879 208.258 113.401 267.02 210.152 112.706 289.349 211.114 113.969 
267.234 213.455 113.561 290.606 214.678 113.622 290.209 216.4 113.391 
288.742 217.899 113.512 287.893 218.758 113.462 285.269 220.546 113.487 
282.173 222.172 113.201 282.583 221.906 113.415 283.275 221.651 113.273 
275.114 222.873 113.791 275.664 223.022 114.096 276.787 223.429 113.832 
277.497 223.303 113.86 276.961 223.539 113.645 282.16 206.971 113.701 
270.974 207.9 113.918 277.959 207.61 114.246 267.402 210.361 113.826 
287.862 209.978 114.086 267.315 212.178 114.285 268.399 216.506 114.806 
285.509 217.859 114.824 285.52 219.427 114.232 271.102 220.283 115.064 
282.343 220.289 114.892 281.404 221.052 114.79 282.702 221.493 113.835 
279.26 222.363 114.597 279.597 222.012 114.781 280.868 222.117 114.01 
279.125 222.723 114.158 279.934 222.652 113.778 268.1 209.69 114.35 
269.323 209.124 114.702 281.151 209.73 115.127 268.428 215.838 115.506 
270.288 219.316 115.739 271.628 220.547 115.447 278.016 221.351 115.695 
276.929 221.897 115.589 275.766 222.584 115.015 276.665 222.737 114.877 
269.705 210.147 115.667 271.641 211.917 116.872 268.871 215.237 116.4 
270.461 219.319 116.141 271.617 220.249 116.092 276.198 222.459 115.18 
268.928 212.4 116.35 270.118 213.207 117.158 268.631 214.026 116.382 
269.786 217.239 116.756 273.788 216.914 117.428 272.456 219.607 116.965 
271.365 219.705 116.652 271.587 219.993 116.489 269.94 216.038 117.115 
270.423 215.652 117.369 271.068 216.191 117.523 270.237 217.585 117.014 
270.324 218.201 116.848 271.419 219.324 116.891 269.829 212.979 337.875 
269.488 212.371 338.148 270.284 212.935 337.757 271.638 214.449 337.423 
270.454 216.882 337.79 270.459 218.417 338.334 271.728 218.312 337.77 
271.351 219.717 338.502 271.638 219.999 338.565 271.704 219.687 338.337 
271.998 220.111 338.539 268.764 211.352 338.912 269.698 211.069 338.574 
268.265 212.579 339.034 270.453 219.266 339.008 274.207 221.276 339.004 
268.847 209.623 340.012 270.144 209.971 339.206 268.055 210.556 339.881 
278.802 213.003 338.782 268.451 214.155 338.838 278.115 220.885 339.114 
274.431 222.111 339.829 277.279 221.699 339.328 275.472 222.505 339.962 
272.181 208.515 340.052 274.119 208.755 339.826 278.926 208.916 340.002 
267.526 211.902 340.198 284.051 219.22 340.185 271.177 220.471 340.472 
273.503 221.86 340.293 274.668 222.397 340.167 274.625 222.528 340.639 
279.383 222.11 340.163 275.839 222.996 340.808 277.086 222.645 340.094 
279.07 222.437 340.338 280.586 206.392 341.781 271.055 207.802 341.326 
273.549 207.285 341.454 274.821 207.602 340.821 278.592 207.572 340.769 
267.704 209.302 341.591 267.418 209.459 342.005 268.763 208.489 341.638 
273.532 208.247 340.257 288.338 209.122 341.27 267.049 211.373 341.396 
290.046 212.439 341.113 268.368 217.021 341.172 287.935 217.445 340.991 
269.21 218.406 340.933 287.306 219.691 341.855 284.961 220.879 341.612 
283.696 221.574 341.816 284.586 221.237 341.917 279.019 222.737 340.71 
280.904 222.558 341.682 277.018 223.414 341.206 277.343 223.423 341.246 
277.909 223.298 341.325 277.159 223.538 341.423 278.393 205.839 342.674 
281.181 205.934 342.319 275.179 206.614 342.103 285.748 206.169 342.421 
270.099 207.781 342.022 287.44 206.836 342.236 289.695 207.466 342.642 
268.253 208.547 342.607 290.194 208.511 342.208 267.233 209.859 341.844 
292.31 210.625 342.406 292.815 212.708 342.27 292.489 214.977 342.329 
291.12 216.84 342.192 287.224 220.179 342.508 282.484 222.137 341.839 
283.509 221.885 342.275 285.071 221.205 342.369 275.21 222.892 341.71 
275.844 223.122 342.076 280.048 222.908 341.871 281.442 222.534 342.222 
283.073 222.09 342.419 276.508 223.36 341.797 276.977 223.53 341.787 
278.469 223.286 341.771 277.142 223.577 341.618 279.705 205.297 343.787 
287.944 206.146 343.151 288.279 205.875 343.699 274.204 206.566 342.769 
273.593 206.651 343.059 289.995 206.536 343.772 269.477 207.89 342.896 
267.48 209.188 343.078 267.687 208.949 343.283 293.984 209.194 344.302 
266.967 210.436 342.413 294.019 210.164 343.697 294.43 209.699 344.269 
295.329 210.895 344.262 295.074 214.05 344.02 293.472 216.012 343.722 
268.581 217.603 343.014 291.4 217.129 342.631 293.109 216.531 343.915 
291.713 217.635 343.535 269.422 218.729 342.901 271.698 220.672 343.006 
288.354 219.661 343.257 274.73 222.494 342.739 284.292 221.597 343.076 
280.547 222.681 343.163 277.282 223.542 341.823 277.953 205.431 344.447 
280.404 205.159 344.396 289.175 205.946 344.043 274.031 206.464 343.963 
290.865 206.746 344.233 269.782 207.898 344.093 267.822 208.907 343.623 
268.095 208.727 343.797 269.084 208.173 343.888 267.026 210.548 343.763 
296.051 212.349 344.529 296.307 212.204 344.833 295.905 213.247 344.511 
296.107 213.116 344.717 295 214.496 344.164 295.073 214.681 344.462 
293.221 216.63 344.501 290.999 218.241 344.001 270.495 219.566 343.635 
287.63 220.085 343.421 289.012 219.318 343.822 285.874 220.893 343.64 
280.486 222.504 343.694 280.802 222.155 344.168 284.336 221.468 343.618 
275.402 222.714 342.982 278.07 222.942 343.419 278.935 223.119 342.823 
286.786 205.312 344.739 289.526 205.898 344.638 272.186 207.451 345.036 
293.443 208.307 345.02 267.347 210.111 344.366 267.654 209.979 344.753 
267.389 210.378 344.67 296.091 211.316 344.858 296.471 212.347 345.119 
296.54 212.49 345.438 296.259 213.139 345.1 296.464 212.884 345.454 
295.281 214.592 344.929 294.255 215.726 345.089 268.434 217.124 343.93 
291.072 218.21 344.516 270.122 218.993 344.336 272.263 220.696 343.869 
274.044 221.67 343.821 276.529 222.453 343.936 277.699 205.598 345.48 
289.348 205.789 345.463 275.538 206.353 345.561 293.035 207.94 345.926 
267.937 209.777 344.946 294.268 208.956 345.922 295.103 209.656 345.414 
295.878 210.605 345.315 295.68 210.324 345.481 296.413 211.693 345.342 
267.415 211.961 344.951 296.498 212.238 345.746 296.436 212.959 345.688 
295.997 213.686 345.588 267.801 215.469 344.391 268.054 215.849 344.601 
293.821 216.055 345.377 269.061 217.528 344.676 292.643 217.042 345.219 
[...]
POINT_DATA 472
COLOR_SCALARS scalars 3
0.501961 0.752941 0.886275 0.501961 0.752941 0.886275 0.501961 0.752941 0.886275 
0.501961 0.752941 0.886275 0.501961 0.752941 0.886275 
0.501961 0.752941 0.886275 0.501961 0.752941 0.886275 
0.501961 0.752941 0.886275 0.501961 0.752941 0.886275 
0.501961 0.752941 0.886275 0.501961 0.752941 0.886275 
0.501961 0.752941 0.886275 0.501961 0.752941 0.886275 
0.501961 0.752941 0.886275 0.501961 0.752941 0.886275 
0.501961 0.752941 0.886275 0.501961 0.752941 0.886275 
0.501961 0.752941 0.886275 0.501961 0.752941 0.886275 
0.501961 0.752941 0.886275 0.501961 0.752941 0.886275 
0.501961 0.752941 0.886275 0.501961 0.752941 0.886275 
0.501961 0.752941 0.886275 0.501961 0.752941 0.886275 
0.501961 0.752941 0.886275 0.501961 0.752941 0.886275 
0.501961 0.752941 0.886275 0.501961 0.752941 0.886275 
0.501961 0.752941 0.886275 0.501961 0.752941 0.886275 
0.501961 0.752941 0.886275 0.501961 0.752941 0.886275 
0.501961 0.752941 0.886275 0.501961 0.752941 0.886275 
0.501961 0.752941 0.886275 0.501961 0.752941 0.886275 
0.501961 0.752941 0.886275 0.501961 0.752941 0.886275 
0.501961 0.752941 0.886275 0.501961 0.752941 0.886275 
0.501961 0.752941 0.886275 0.501961 0.752941 0.886275 
0.501961 0.752941 0.886275 0.501961 0.752941 0.886275 
0.501961 0.752941 0.886275 0.501961 0.752941 0.886275 
0.501961 0.752941 0.886275 0.501961 0.752941 0.886275 
0.501961 0.752941 0.886275 0.501961 0.752941 0.886275 
0.501961 0.752941 0.886275 0.501961 0.752941 0.886275 
0.501961 0.752941 0.886275 0.501961 0.752941 0.886275 
0.501961 0.752941 0.886275 0.501961 0.752941 0.886275 
0.501961 0.752941 0.886275 0.501961 0.752941 0.886275 
0.501961 0.752941 0.886275 0.501961 0.752941 0.886275 
0.501961 0.752941 0.886275 0.501961 0.752941 0.886275 
0.501961 0.752941 0.886275 0.501961 0.752941 0.886275 
0.501961 0.752941 0.886275 0.501961 0.752941 0.886275 
0.501961 0.752941 0.886275 0.501961 0.752941 0.886275 
0.501961 0.752941 0.886275 0.501961 0.752941 0.886275 
0.501961 0.752941 0.886275 0.501961 0.752941 0.886275 
0.501961 0.752941 0.886275 0.501961 0.752941 0.886275 
0.501961 0.752941 0.886275 0.501961 0.752941 0.886275 
0.501961 0.752941 0.886275 0.501961 0.752941 0.886275 
0.501961 0.752941 0.886275 0.501961 0.752941 0.886275 
0.501961 0.752941 0.886275 0.501961 0.752941 0.886275 
0.501961 0.752941 0.886275 0.501961 0.752941 0.886275 
0.501961 0.752941 0.886275 0.501961 0.752941 0.886275 
0.501961 0.752941 0.886275 0.501961 0.752941 0.886275 
0.501961 0.752941 0.886275 0.501961 0.752941 0.886275 
0.501961 0.752941 0.886275 0.501961 0.752941 0.886275 
0.501961 0.752941 0.886275 0.501961 0.752941 0.886275 
0.501961 0.752941 0.886275 0.501961 0.752941 0.886275 
0.501961 0.752941 0.886275 0.501961 0.752941 0.886275 
0.501961 0.752941 0.886275 0.501961 0.752941 0.886275 
0.501961 0.752941 0.886275 0.501961 0.752941 0.886275 
0.501961 0.752941 0.886275 0.501961 0.752941 0.886275 
0.501961 0.752941 0.886275 0.501961 0.752941 0.886275 
0.501961 0.752941 0.886275 0.501961 0.752941 0.886275 
0.501961 0.752941 0.886275 0.501961 0.752941 0.886275 
0.501961 0.752941 0.886275 0.501961 0.752941 0.886275 
0.501961 0.752941 0.886275 0.501961 0.752941 0.886275 
0.501961 0.752941 0.886275 0.501961 0.752941 0.886275 
0.501961 0.752941 0.886275 0.501961 0.752941 0.886275 
0.501961 0.752941 0.886275 0.501961 0.752941 0.886275 
0.501961 0.752941 0.886275 0.501961 0.752941 0.886275 
0.501961 0.752941 0.886275 0.501961 0.752941 0.886275 
0.501961 0.752941 0.886275 0.501961 0.752941 0.886275 
0.501961 0.752941 0.886275 0.501961 0.752941 0.886275 
0.501961 0.752941 0.886275 0.501961 0.752941 0.886275 
0.501961 0.752941 0.886275 0.501961 0.752941 0.886275 
0.501961 0.752941 0.886275 0.501961 0.752941 0.886275 
0.501961 0.752941 0.886275 0.501961 0.752941 0.886275 
0.501961 0.752941 0.886275 0.501961 0.752941 0.886275 
0.501961 0.752941 0.886275 0.501961 0.752941 0.886275 
0.501961 0.752941 0.886275 0.501961 0.752941 0.886275 
0.501961 0.752941 0.886275 0.501961 0.752941 0.886275 
0.501961 0.752941 0.886275 0.501961 0.752941 0.886275 
0.501961 0.752941 0.886275 0.501961 0.752941 0.886275 
0.501961 0.752941 0.886275 0.501961 0.752941 0.886275 
0.501961 0.752941 0.886275 0.501961 0.752941 0.886275 
0.501961 0.752941 0.886275 0.501961 0.752941 0.886275 
0.501961 0.752941 0.886275 0.501961 0.752941 0.886275 
0.501961 0.752941 0.886275 0.501961 0.752941 0.886275 
0.501961 0.752941 0.886275 0.501961 0.752941 0.886275 
0.501961 0.752941 0.886275 0.501961 0.752941 0.886275 
0.501961 0.752941 0.886275 0.501961 0.752941 0.886275 
0.501961 0.752941 0.886275 0.501961 0.752941 0.886275 
0.501961 0.752941 0.886275 0.501961 0.752941 0.886275 
0.501961 0.752941 0.886275 0.501961 0.752941 0.886275 
0.501961 0.752941 0.886275 0.501961 0.752941 0.886275 
0.501961 0.752941 0.886275 0.501961 0.752941 0.886275 
0.501961 0.752941 0.886275 0.501961 0.752941 0.886275 
0.501961 0.752941 0.886275 0.501961 0.752941 0.886275 
0.501961 0.752941 0.886275 0.501961 0.752941 0.886275 
0.501961 0.752941 0.886275 0.501961 0.752941 0.886275 
0.501961 0.752941 0.886275 0.501961 0.752941 0.886275 
0.501961 0.752941 0.886275 0.501961 0.752941 0.886275 
0.501961 0.752941 0.886275 0.501961 0.752941 0.886275 
0.501961 0.752941 0.886275 0.501961 0.752941 0.886275 
0.501961 0.752941 0.886275 0.501961 0.752941 0.886275 
0.501961 0.752941 0.886275 0.501961 0.752941 0.886275 
0.501961 0.752941 0.886275 0.501961 0.752941 0.886275 
0.501961 0.752941 0.886275 0.501961 0.752941 0.886275 
0.501961 0.752941 0.886275 0.501961 0.752941 0.886275 
0.501961 0.752941 0.886275 0.501961 0.752941 0.886275 
0.501961 0.752941 0.886275 0.501961 0.752941 0.886275 
0.501961 0.752941 0.886275 0.501961 0.752941 0.886275 
0.501961 0.752941 0.886275 0.501961 0.752941 0.886275 
0.501961 0.752941 0.886275 0.501961 0.752941 0.886275 
0.501961 0.752941 0.886275 0.501961 0.752941 0.886275 
0.501961 0.752941 0.886275 0.501961 0.752941 0.886275 
0.501961 0.752941 0.886275 0.501961 0.752941 0.886275 
0.501961 0.752941 0.886275 0.501961 0.752941 0.886275 
0.501961 0.752941 0.886275 0.501961 0.752941 0.886275 
0.501961 0.752941 0.886275 0.501961 0.752941 0.886275 
0.501961 0.752941 0.886275 0.501961 0.752941 0.886275 
0.501961 0.752941 0.886275 0.501961 0.752941 0.886275 
0.501961 0.752941 0.886275 0.501961 0.752941 0.886275 
0.501961 0.752941 0.886275 0.501961 0.752941 0.886275 
0.501961 0.752941 0.886275 0.501961 0.752941 0.886275 
0.501961 0.752941 0.886275 0.501961 0.752941 0.886275 
0.501961 0.752941 0.886275 0.501961 0.752941 0.886275 
0.501961 0.752941 0.886275 0.501961 0.752941 0.886275 
0.501961 0.752941 0.886275 0.501961 0.752941 0.886275 
0.501961 0.752941 0.886275 0.501961 0.752941 0.886275 
0.501961 0.752941 0.886275 0.501961 0.752941 0.886275 
0.501961 0.752941 0.886275 0.501961 0.752941 0.886275 
0.501961 0.752941 0.886275 0.501961 0.752941 0.886275 
0.501961 0.752941 0.886275 0.501961 0.752941 0.886275 
0.501961 0.752941 0.886275 0.501961 0.752941 0.886275 
0.501961 0.752941 0.886275 0.501961 0.752941 0.886275 
0.501961 0.752941 0.886275 0.501961 0.752941 0.886275 
0.501961 0.752941 0.886275 0.501961 0.752941 0.886275 
0.501961 0.752941 0.886275 0.501961 0.752941 0.886275 
0.501961 0.752941 0.886275 0.501961 0.752941 0.886275 
0.501961 0.752941 0.886275 0.501961 0.752941 0.886275 
0.501961 0.752941 0.886275 0.501961 0.752941 0.886275 
0.501961 0.752941 0.886275 0.501961 0.752941 0.886275 
0.501961 0.752941 0.886275 0.501961 0.752941 0.886275 
0.501961 0.752941 0.886275 0.501961 0.752941 0.886275 
0.501961 0.752941 0.886275 0.501961 0.752941 0.886275 
0.501961 0.752941 0.886275 0.501961 0.752941 0.886275 
0.501961 0.752941 0.886275 0.501961 0.752941 0.886275 
0.501961 0.752941 0.886275 0.501961 0.752941 0.886275 
0.501961 0.752941 0.886275 0.501961 0.752941 0.886275 
0.501961 0.752941 0.886275 0.501961 0.752941 0.886275 
0.501961 0.752941 0.886275 0.501961 0.752941 0.886275 
0.501961 0.752941 0.886275 0.501961 0.752941 0.886275 
0.501961 0.752941 0.886275 0.501961 0.752941 0.886275 
0.501961 0.752941 0.886275 0.501961 0.752941 0.886275 
0.501961 0.752941 0.886275 0.501961 0.752941 0.886275 
0.501961 0.752941 0.886275 0.501961 0.752941 0.886275 
0.501961 0.752941 0.886275 0.501961 0.752941 0.886275 
0.501961 0.752941 0.886275 0.501961 0.752941 0.886275 
0.501961 0.752941 0.886275 0.501961 0.752941 0.886275 
0.501961 0.752941 0.886275 0.501961 0.752941 0.886275 
0.501961 0.752941 0.886275 0.501961 0.752941 0.886275 
0.501961 0.752941 0.886275 0.501961 0.752941 0.886275 
0.501961 0.752941 0.886275 0.501961 0.752941 0.886275 
0.501961 0.752941 0.886275 0.501961 0.752941 0.886275 
0.501961 0.752941 0.886275 0.501961 0.752941 0.886275 
0.501961 0.752941 0.886275 0.501961 0.752941 0.886275 
0.501961 0.752941 0.886275 0.501961 0.752941 0.886275 
0.501961 0.752941 0.886275 0.501961 0.752941 0.886275 
0.501961 0.752941 0.886275 0.501961 0.752941 0.886275 
0.501961 0.752941 0.886275 0.501961 0.752941 0.886275 
0.501961 0.752941 0.886275 0.501961 0.752941 0.886275 
0.501961 0.752941 0.886275 0.501961 0.752941 0.886275 
0.501961 0.752941 0.886275 0.501961 0.752941 0.886275 
0.501961 0.752941 0.886275 0.501961 0.752941 0.886275 
0.501961 0.752941 0.886275 0.501961 0.752941 0.886275 
0.501961 0.752941 0.886275 0.501961 0.752941 0.886275 
0.501961 0.752941 0.886275 0.501961 0.752941 0.886275 
0.501961 0.752941 0.886275 0.501961 0.752941 0.886275 
0.501961 0.752941 0.886275 0.501961 0.752941 0.886275 
0.501961 0.752941 0.886275 0.501961 0.752941 0.886275 
0.501961 0.752941 0.886275 0.501961 0.752941 0.886275 
0.501961 0.752941 0.886275 0.501961 0.752941 0.886275 
0.501961 0.752941 0.886275 0.501961 0.752941 0.886275 
0.501961 0.752941 0.886275 0.501961 0.752941 0.886275 
0.501961 0.752941 0.886275 0.501961 0.752941 0.886275 
0.501961 0.752941 0.886275 0.501961 0.752941 0.886275 
0.501961 0.752941 0.886275 0.501961 0.752941 0.886275 
0.501961 0.752941 0.886275 0.501961 0.752941 0.886275 
0.501961 0.752941 0.886275 0.501961 0.752941 0.886275 
0.501961 0.752941 0.886275 0.501961 0.752941 0.886275 
0.501961 0.752941 0.886275 0.501961 0.752941 0.886275 
0.501961 0.752941 0.886275 0.501961 0.752941 0.886275 
0.501961 0.752941 0.886275 0.501961 0.752941 0.886275 
0.501961 0.752941 0.886275 0.501961 0.752941 0.886275 
0.501961 0.752941 0.886275 0.501961 0.752941 0.886275 
0.501961 0.752941 0.886275 0.501961 0.752941 0.886275 
0.501961 0.752941 0.886275 0.501961 0.752941 0.886275 
0.501961 0.752941 0.886275 0.501961 0.752941 0.886275 
0.501961 0.752941 0.886275 0.501961 0.752941 0.886275 
0.501961 0.752941 0.886275 0.501961 0.752941 0.886275 
0.501961 0.752941 0.886275 0.501961 0.752941 0.886275 
0.501961 0.752941 0.886275 0.501961 0.752941 0.886275 
0.501961 0.752941 0.886275 0.501961 0.752941 0.886275 
0.501961 0.752941 0.886275 0.501961 0.752941 0.886275 
0.501961 0.752941 0.886275 0.501961 0.752941 0.886275 
0.501961 0.752941 0.886275 0.501961 0.752941 0.886275 
0.501961 0.752941 0.886275 0.501961 0.752941 0.886275 
0.501961 0.752941 0.886275 0.501961 0.752941 0.886275 
0.501961 0.752941 0.886275 0.501961 0.752941 0.886275 
0.501961 0.752941 0.886275 0.501961 0.752941 0.886275 
0.501961 0.752941 0.886275 0.501961 0.752941 0.886275 
0.501961 0.752941 0.886275 0.501961 0.752941 0.886275 
0.501961 0.752941 0.886275 0.501961 0.752941 0.886275 
0.501961 0.752941 0.886275 0.501961 0.752941 0.886275 
0.501961 0.752941 0.886275 0.501961 0.752941 0.886275 
0.501961 0.752941 0.886275 0.501961 0.752941 0.886275 
0.501961 0.752941 0.886275 0.501961 0.752941 0.886275 
0.501961 0.752941 0.886275 0.501961 0.752941 0.886275 
0.501961 0.752941 0.886275 0.501961 0.752941 0.886275 
0.501961 0.752941 0.886275 0.501961 0.752941 0.886275 
0.501961 0.752941 0.886275 0.501961 0.752941 0.886275 
0.501961 0.752941 0.886275 0.501961 0.752941 0.886275 
0.501961 0.752941 0.886275 0.501961 0.752941 0.886275 
0.501961 0.752941 0.886275 0.501961 0.752941 0.886275 
0.501961 0.752941 0.886275 0.501961 0.752941 0.886275 
0.501961 0.752941 0.886275 0.501961 0.752941 0.886275 
0.501961 0.752941 0.886275 0.501961 0.752941 0.886275 
0.501961 0.752941 0.886275 0.501961 0.752941 0.886275 
0.501961 0.752941 0.886275 0.501961 0.752941 0.886275 
0.501961 0.752941 0.886275 0.501961 0.752941 0.886275 
0.501961 0.752941 0.886275 0.501961 0.752941 0.886275 
0.501961 0.752941 0.886275 0.501961 0.752941 0.886275 
0.501961 0.752941 0.886275 0.501961 0.752941 0.886275 
0.501961 0.752941 0.886275 0.501961 0.752941 0.886275 
0.501961 0.752941 0.886275 0.501961 0.752941 0.886275 
0.501961 0.752941 0.886275 0.501961 0.752941 0.886275 
0.501961 0.752941 0.886275 0.501961 0.752941 0.886275 
0.501961 0.752941 0.886275 0.501961 0.752941 0.886275 
0.501961 0.752941 0.886275 0.501961 0.752941 0.886275 
0.501961 0.752941 0.886275 0.501961 0.752941 0.886275 
0.501961 0.752941 0.886275 0.501961 0.752941 0.886275 
0.501961 0.752941 0.886275 0.501961 0.752941 0.886275 
0.501961 0.752941 0.886275 0.501961 0.752941 0.886275 
0.501961 0.752941 0.886275 
NORMALS Normals float
0.0428227 -0.519993 -0.853096 -0.108532 -0.393635 -0.912838 0.0839884 -0.183133 -0.979494 
-0.273927 -0.270871 -0.922818 0.214018 -0.523474 -0.824725 0.422736 -0.317124 -0.848956 
-0.200943 -0.00427228 -0.979594 -0.0160564 0.137882 -0.990319 0.206393 -0.102615 -0.973073 
-0.239125 -0.33402 -0.911729 -0.143132 -0.630873 -0.76257 -0.345749 -0.508222 -0.788777 
-0.360727 -0.3799 -0.851793 -0.259147 -0.0276712 -0.965441 0.508894 -0.314006 -0.801516 
-0.23928 -0.0373837 -0.970231 0.585388 0.0165046 -0.810585 0.222754 0.148502 -0.963498 
-0.181951 0.217883 -0.958864 0.390226 0.176682 -0.903608 0.0407159 0.297557 -0.953836 
-0.00885767 -0.922073 -0.386915 -0.229884 -0.763219 -0.603863 0.0262783 -0.688873 -0.724406 
0.434949 -0.744023 -0.507197 0.46413 -0.678117 -0.569861 0.656569 -0.46286 -0.595549 
0.728223 -0.191427 -0.658063 0.748065 -0.132807 -0.6502 0.610274 0.160626 -0.775735 
0.486927 0.266956 -0.831647 0.265116 0.52648 -0.807795 0.500582 0.498699 -0.707614 
-0.0793003 -0.960065 -0.268302 0.243911 -0.895874 -0.371373 -0.15306 -0.947439 -0.280948 
0.456015 -0.86885 -0.192743 -0.282344 -0.659375 -0.696783 -0.40096 -0.296304 -0.866854 
0.798006 -0.510042 -0.321005 0.893049 -0.373141 -0.251453 0.878688 -0.388335 -0.277677 
0.891556 -0.0129004 -0.452727 0.959141 -0.224843 -0.171739 0.750102 0.244538 -0.61445 
0.682119 0.516654 -0.517477 0.252224 0.520521 -0.815746 -0.213851 0.376256 -0.901498 
0.27344 0.566056 -0.777696 0.0529579 0.477801 -0.87687 0.0398126 0.553973 -0.831582 
-0.117705 -0.966839 -0.226644 0.00522473 -0.979747 -0.200169 0.48845 -0.84212 -0.228581 
-0.362382 -0.806148 -0.467765 0.555215 -0.827314 -0.0853706 -0.44939 -0.574669 -0.683963 
0.677059 -0.733933 -0.0541615 0.831385 -0.548257 -0.090626 0.958436 -0.1898 0.213016 
-0.544941 -0.0682499 -0.835692 -0.807687 -0.12834 -0.575473 -0.432272 -0.107188 -0.89535 
0.886808 0.408989 -0.215175 0.994574 0.0801597 -0.0663107 -0.669433 0.245902 -0.700993 
-0.782062 0.275424 -0.559035 -0.569275 0.291836 -0.768607 -0.753911 0.421378 -0.504042 
-0.31161 0.20407 -0.928038 0.576814 0.7004 -0.420387 -0.735245 0.563228 -0.377079 
-0.647787 0.524489 -0.552525 -0.4535 0.599791 -0.659233 0.249988 0.729456 -0.63671 
0.022933 0.612102 -0.790446 -0.122051 -0.931759 -0.341949 -0.0245232 -0.999531 -0.0183498 
0.133818 -0.983101 0.124923 -0.248738 -0.879977 -0.404685 -0.363122 -0.868955 -0.336245 
-0.566978 -0.392432 -0.724246 -0.680818 -0.209653 -0.701807 0.865406 -0.311351 0.392598 
-0.938244 0.158307 -0.307631 0.87712 0.468204 0.106982 0.924197 0.267727 0.272365 
-0.941637 0.300108 -0.152497 0.747878 0.648897 -0.14004 0.72096 0.692152 0.0337853 
0.754914 0.652637 -0.0645721 0.483154 0.821157 -0.30375 -0.703743 0.676994 -0.215466 
0.16609 0.800276 -0.57617 0.387278 0.818756 -0.423857 0.129249 -0.9785 0.160722 
0.16694 -0.859271 0.483513 0.422353 -0.886359 0.189699 0.544555 -0.815041 0.197907 
0.636146 -0.703672 0.316487 -0.756715 -0.575612 -0.309925 0.745034 -0.490546 0.451984 
-0.956706 -0.198686 -0.21269 -0.965045 -0.0386563 -0.259217 -0.991814 0.119405 0.0452507 
0.803856 0.15018 0.575554 0.891321 -0.166628 0.421642 0.821734 0.357887 0.443474 
0.805617 0.515386 0.292161 0.73387 0.572334 0.365881 -0.853887 0.516176 -0.066626 
0.70073 0.591936 0.398233 0.652504 0.751302 0.0989165 0.504555 0.852959 -0.133735 
0.369626 0.900402 -0.229464 0.302921 0.899878 -0.313781 -0.370962 0.771226 -0.517298 
0.255282 0.866833 -0.428288 0.39419 0.918966 0.0107305 -0.0741902 0.76031 -0.64531 
0.113412 0.733826 -0.669803 -0.355269 0.813647 -0.460177 -0.17076 -0.981981 0.0809579 
-0.0420345 -0.957872 0.284104 -0.270811 -0.962543 -0.0131439 -0.447582 -0.892438 0.0567775 
0.46727 -0.788549 0.399812 0.543656 -0.675468 0.498178 -0.706481 -0.696216 -0.127153 
0.518258 -0.485016 0.704392 -0.984293 -0.167554 -0.0556196 0.528242 -0.163458 0.833212 
0.793444 -0.101913 0.600051 0.646931 0.282035 0.708475 0.636775 0.666453 0.38776 
0.528011 0.804951 0.270663 0.441187 0.895174 0.0633906 -0.350696 0.927045 -0.132666 
-0.0385579 0.888636 -0.45699 0.266296 0.955168 -0.129386 -0.194319 -0.801614 0.565381 
0.0329863 -0.909087 0.415299 -0.325399 -0.932715 0.15543 0.218124 -0.738253 0.638283 
0.34309 -0.708798 0.616356 0.479715 -0.561769 0.674009 0.47272 -0.565589 0.675755 
0.554927 0.381411 0.739312 0.492181 0.593359 0.636932 -0.607588 0.794119 -0.0145524 
0.418265 0.760527 0.496641 0.419614 0.883147 0.209703 -0.508674 0.853442 -0.113518 
0.338422 0.940507 0.0302871 0.30077 0.953307 0.0272418 -0.265591 0.950536 -0.161066 
0.10869 0.992902 0.0482946 -0.0449297 -0.80597 0.590248 -0.0739831 -0.746437 0.661331 
0.108416 -0.531101 0.840344 -0.675403 -0.701453 0.227583 0.0703995 -0.722129 0.688166 
0.343377 -0.39936 0.850061 -0.93423 -0.278159 0.223252 0.271574 -0.118057 0.955149 
-0.965786 0.20849 0.15424 0.381547 0.115688 0.917081 0.354935 0.272469 0.894305 
0.431093 0.477081 0.765867 0.439052 0.558731 0.7036 0.260123 0.700382 0.664681 
0.355503 0.866612 0.350144 0.300839 0.782177 0.545615 0.418405 0.751862 0.50955 
-0.426868 0.889557 0.162702 -0.236954 0.915809 0.324264 -0.152892 0.913903 0.376039 
0.17855 0.773732 0.607831 -0.190532 0.958918 0.210174 0.0466039 -0.668985 0.741813 
-0.158158 -0.824589 0.543175 -0.0824272 -0.605541 0.791534 -0.899163 -0.184473 0.396832 
0.15615 -0.2333 0.959786 -0.890463 -0.0431255 0.453008 -0.910793 0.282825 0.300775 
0.156575 0.198767 0.967458 0.00413771 0.456605 0.88966 -0.656574 0.740704 0.142363 
0.285237 0.349215 0.892574 0.30021 0.604808 0.737618 0.333313 0.649441 0.683468 
0.161273 0.656867 0.736558 0.238953 0.616157 0.750502 0.26719 0.837008 0.477521 
0.299532 0.878203 0.372881 0.308843 0.869867 0.384639 -0.608469 -0.606311 0.512008 
-0.380072 -0.723961 0.575696 0.214833 -0.167617 0.96216 -0.875975 0.252984 0.41069 
-0.772198 0.593137 0.227812 -0.57076 0.768874 0.288211 0.201924 0.483743 0.851598 
0.100401 0.622651 0.776032 -0.133139 0.809114 0.57237 0.0465633 0.784615 0.618232 
-0.263572 -0.521548 0.811491 -0.0372982 -0.390685 0.919769 -0.659229 0.222332 0.718322 
-0.678237 0.593825 0.432859 -0.327764 0.765554 0.553622 -0.0373741 0.725788 0.686902 
-0.520603 -0.254638 0.814943 -0.251003 -0.205654 0.945888 -0.814248 0.00308681 0.580509 
-0.679091 0.264514 0.684739 0.22065 0.0740457 0.972538 0.0833529 0.402671 0.911542 
-0.541727 0.666055 0.512741 -0.210593 0.688715 0.693774 -0.469472 0.115829 0.875317 
-0.353129 -0.0263409 0.935204 -0.20173 0.110437 0.973195 -0.435306 0.197946 0.878252 
-0.565448 0.369616 0.737328 -0.227961 0.392577 0.89102 -0.348288 -0.0725182 -0.934578 
-0.44995 -0.222909 -0.864787 -0.020644 -0.308867 -0.950881 0.0323128 -0.136973 -0.990048 
-0.608697 0.156846 -0.777745 -0.656921 0.366366 -0.658962 -0.136888 0.290409 -0.947061 
-0.593231 0.552695 -0.585325 -0.416918 0.694551 -0.586327 -0.302786 0.34056 -0.890134 
-0.156819 0.607615 -0.778596 -0.516291 -0.378109 -0.768425 -0.225782 -0.413659 -0.881992 