# vtk DataFile Version 4.2
vtk output
ASCII
DATASET POLYDATA
POINTS 2150 float
295.265 216.956 112.037 295.229 216.868 112.04 295.175 216.997 111.991 
295.264 216.821 112.215 294.764 218.167 111.724 295.232 217.156 112.084 
294.958 218.049 111.896 294.069 220.048 111.5 293.104 220.762 111.338 
292.232 222.19 111.303 291.423 223.099 111.363 291.431 222.92 111.371 
292.18 222.364 111.333 291.613 223.057 111.404 290.821 223.788 111.568 
295.058 216.715 112.09 294.827 216.231 112.237 294.906 217.312 111.917 
295.18 217.579 112.096 295.381 217.29 112.493 294.143 219.408 111.593 
292.395 221.044 111.434 293.513 220.958 111.548 292.782 221.513 111.427 
291.421 222.575 111.407 290.452 223.779 111.711 291.111 223.494 111.531 
290.635 224.262 111.918 288.374 225.757 112.358 288.36 225.593 112.314 
282.121 228.789 112.682 280.152 230.363 112.724 279.926 230.172 112.682 
280.674 230.144 112.82 282.359 229.241 112.775 277.424 230.914 112.412 
275.593 232.209 112.446 276.093 231.951 112.488 273.079 233.034 112.454 
275.206 232.648 112.514 271.266 234.236 112.461 271.093 234.222 112.488 
273.267 233.164 112.447 271.07 234.465 112.516 293 208.009 112.017 
293 208.009 112.017 293 208.009 112.017 293 208.009 112.017 
293 208.009 112.017 295 210.009 112.017 295 210.009 112.017 
295 210.009 112.017 295 210.009 112.017 295 210.009 112.017 
296.004 211.013 112.009 296.004 211.013 112.009 296.004 211.013 112.009 
296.004 211.013 112.009 296.004 211.013 112.009 294.748 215.757 112.471 
294.434 215.229 112.617 295.29 218.829 112.507 288.675 224.064 112.182 
293.664 223.103 112.474 286.637 225.631 112.455 287.709 226.988 112.896 
289.156 226.053 112.655 279.447 229.927 112.663 283.64 229.112 113.071 
276.927 230.86 112.523 279.729 230.989 112.89 275.44 231.584 112.534 
277.07 231.526 112.563 272.217 233.497 112.523 272.752 232.224 112.828 
270.808 234.099 112.611 269.213 235.168 112.806 267.502 236.1 112.972 
267.936 236.214 112.862 266.091 237.158 113.221 265.9 237.242 113.329 
264 238.009 112.017 264 238.009 112.017 264 238.009 112.017 
264 238.009 112.017 264 238.009 112.017 277.207 204.58 114.265 
280.239 205.052 114.042 280.776 204.912 114.211 282.578 205.153 113.89 
282.615 205.123 113.905 273.769 205.489 114.64 275.37 205.417 114.265 
278.923 205.321 113.938 285.093 206.138 113.967 285.663 206.161 113.872 
285.9 206.161 113.847 286.519 206.254 113.749 273.047 206.069 114.678 
272.569 206.044 114.916 275.307 205.904 114.16 286.767 206.34 113.728 
286.825 206.385 113.711 286.931 206.32 113.664 286.998 206.322 113.648 
274.994 206.317 114.215 287.019 206.533 113.741 287.015 206.384 113.676 
289.995 208.569 113.758 290.88 208.765 113.791 290.408 208.85 113.645 
291.16 208.982 113.838 293 208.009 112.018 291.525 209.765 113.525 
292.467 210.064 113.922 291.803 210.835 113.324 292.742 210.425 113.807 
292.838 210.826 113.628 295 210.009 112.018 292.988 211.525 113.406 
296.004 211.013 112.009 294.116 212.259 113.912 294.605 214.167 113.532 
295.654 219.158 113.767 289.32 220.503 112.632 288.92 222.963 112.222 
280.488 228.03 112.951 282.372 227.543 112.779 276.458 230.073 112.866 
281.659 230.966 113.589 270.384 233.72 112.84 264 238.009 112.018 
269.389 237.552 113.175 264.255 238.549 114.625 264.598 238.74 114.288 
264.547 239.005 114.436 276.556 204.225 114.712 277.54 204.161 114.692 
278.529 204.235 114.798 275.402 204.439 114.942 275.045 204.641 114.835 
276.292 204.463 114.54 282.268 205.13 114.101 283.132 205.5 114.096 
273.545 205.35 114.852 283.055 205.8 113.96 284.128 206 114.024 
284.545 205.979 114.116 271.806 206.64 115.125 272.603 205.697 115.213 
276.279 206.292 114.062 283.878 206.314 114.046 285.027 206.463 114.065 
286.992 206.51 113.754 287.301 207.066 113.943 269.964 207.227 115.642 
269.888 207.331 115.737 270.098 207.107 115.647 284.386 206.717 114.24 
285.005 206.759 114.344 285.438 207.131 114.501 285.907 207.035 114.183 
288.119 207.833 113.952 288.513 207.897 114.031 289.612 208.345 113.956 
290.751 208.714 113.891 290.523 208.692 114.055 286.545 208.019 114.339 
287.781 208.132 114.112 291.227 209.188 114.2 287.162 208.243 114.396 
287.782 208.512 114.42 288.201 209.055 114.486 288.741 209.056 114.033 
291.759 209.519 114.121 292.233 209.847 114.066 292.534 210.136 114.116 
288.97 209.887 113.983 292.855 210.457 114.01 293.521 211.253 114.046 
293.707 211.565 114.231 291.238 212.812 113.185 294.504 213.411 114.153 
287.894 219.182 113.48 295.687 219.532 114.322 295.604 221.14 114.602 
277.062 228.865 113.373 269.43 233.469 113.314 267.379 235.457 113.273 
266.868 235.26 113.602 265.399 237.117 113.812 264.589 237.811 114.397 
264.484 239.27 114.703 264.925 239.337 114.435 265.497 239.536 114.314 
276.452 204.123 114.92 276.164 204.147 115.113 278.208 204.15 114.954 
278.081 204.166 115.2 281.4 205.036 114.85 273.004 205.36 115.33 
274.28 204.767 115.45 271.066 206.747 115.487 271.242 206.301 115.897 
272.041 205.83 115.719 277.36 207.035 114.126 283.914 206.309 114.85 
284.745 206.545 114.504 284.498 206.812 114.643 285.711 206.829 114.423 
269.888 207.152 116.058 269.809 207.395 115.96 270.303 206.915 115.835 
271.615 207.167 115.185 284.268 207.326 114.312 284.992 207.39 114.536 
284.877 207.089 115.077 285.72 207.224 114.822 289.963 208.551 114.159 
269.968 207.538 115.804 285.014 208.128 114.34 286.531 207.887 115.108 
287.533 208.218 114.631 287.228 208.478 114.914 288.614 208.548 114.596 
286.851 208.749 114.435 287.575 208.959 114.644 287.834 208.874 115.131 
288.656 208.99 115.094 287.731 209.703 114.28 292.929 211.003 114.767 
293.601 212 115.004 294.512 213.811 115.029 295.102 215.546 114.733 
287.287 215.69 114.019 295.648 219.032 114.948 282.599 221.033 115.237 
282.62 223.576 114.325 281.755 224.44 114.343 279.921 225.795 114.422 
280.893 225.263 114.294 294.91 224.618 115.37 285.203 230.578 114.888 
263.796 237.832 115.499 264.426 240.338 115.795 270.175 241.056 115.218 
265.097 241.061 115.845 276.761 204.062 115.413 276.261 204.144 115.4 
277.119 204.085 115.477 276.925 204.115 115.598 277.574 204.131 115.376 
275.169 204.501 115.857 272.414 205.53 116.061 269.808 207.213 116.332 
269.744 207.353 116.2 284.482 207.287 115.99 269.883 207.665 116.022 
270.73 208.103 115.81 271.505 208.283 115.564 269.986 207.924 116.218 
273.491 209.382 115.419 288.732 209.467 116.02 292.042 210.999 115.617 
292.462 211.504 115.743 281.008 216.959 115.878 283.331 216.534 114.997 
295.416 218.512 115.715 281.518 220.22 116.186 277.049 226.142 115.785 
295.096 224.622 116.048 292.553 228.206 116.303 263.512 237.153 116.175 
263.413 237.589 116.049 263.411 237.736 115.998 263.503 237.886 115.919 
263.62 238.374 116.094 264.272 240.336 116.161 264.345 240.634 116.554 
264.66 241.078 116.556 267.672 242.466 116.204 269.301 242.242 116.037 
271.938 242.177 116.72 266.773 242.611 116.688 267.381 242.712 116.548 
274.648 204.715 116.13 275.071 204.676 116.295 277.178 204.606 116.326 
272.401 205.596 117.009 280.196 205.199 116.183 279.971 205.306 116.47 
279.454 205.62 116.95 269.737 207.435 116.46 269.773 207.697 116.598 
269.902 207.906 116.967 271.979 211.329 117.292 274.373 213.711 117.301 
278.621 214.71 116.108 293.801 214.677 116.568 277.7 215.458 116.824 
294.188 215.911 116.864 294.794 215.87 115.889 276.146 215.703 117.982 
277.602 216.078 117.33 276.79 216.238 118.166 294.917 217.793 116.681 
295.056 218.421 116.608 280.494 222.57 116.774 295.333 223.772 116.542 
278.912 224.304 116.88 294.87 225.424 116.906 293.952 227.042 116.689 
293.066 228.421 117.483 264.171 232.602 117.612 263.553 234.437 117.165 
263.442 237.76 116.159 263.46 237.737 116.788 273.936 240.226 116.269 
264.406 240.832 117.508 264.86 241.389 116.875 265.972 242.573 117.44 
275.353 204.818 116.605 272.743 205.663 117.45 277.577 205.409 117.22 
280.147 205.297 116.41 269.8 207.541 116.769 281.259 207.062 117.546 
270.065 208.144 117.612 280.451 207.539 118.213 270.285 209.281 117.937 
270.529 209.751 117.865 289.452 211.432 117.763 271.332 211.316 118.363 
271.09 211.102 118.795 272.647 213.061 118.591 275.101 215.362 118.762 
280.618 221.058 117.382 295.197 221.695 117.131 278.826 223.742 118.152 
294.954 225.136 117.178 293.434 228.004 117.956 292.314 229.332 117.787 
292.612 229.153 117.994 263.769 233.231 118.148 263.323 235.251 117.49 
279.358 236.562 117.798 264.149 240.343 117.544 270.489 207.163 117.981 
270.184 208.106 118.159 276.426 207.668 119.346 270.396 209.042 118.675 
270.892 210.624 119.035 271.074 211.098 119.173 272.474 213.184 119.623 
273.454 214.176 119.631 276.701 216.49 119.032 279.038 218.182 118.872 
279.853 219.344 118.663 280.002 221.911 118.624 275.519 225.231 118.961 
266.862 227.574 119.219 294.359 226.005 118.13 266.079 228.33 119.13 
292.73 229.107 118.379 291.61 230.357 119.058 292.588 229.28 118.896 
289.207 231.896 118.721 290.214 231.441 118.951 263.705 233.472 118.577 
286.178 233.918 119.477 264.331 240.404 118.344 271.526 206.866 118.69 
270.802 209.818 119.505 272.113 212.59 120.04 273.886 214.354 120.238 
274.965 215.247 120.049 276.892 216.492 119.798 280.061 220.112 119.587 
279.892 221.949 119.627 266.884 226.535 120.94 267.837 226.024 121.374 
266.16 227.064 121.067 265.977 227.412 120.681 275.992 224.877 119.707 
265.75 227.921 120.238 265.406 228.415 120.33 293.079 228.41 119.272 
292.809 228.929 119.243 291.949 229.905 119.776 291.147 230.796 119.932 
289.704 232.061 120.009 290.29 231.608 119.867 268.944 245.304 120.393 
268.177 245.195 120.947 270.919 209.583 119.765 272.241 212.454 120.415 
272.662 212.892 120.535 274.383 214.621 120.45 275.398 215.172 120.626 
286.829 216.489 121.176 280.244 220.406 120.256 279.89 222.238 120.635 
279.147 223.107 121.008 267.044 226.308 122.099 276.777 224.417 121.008 
265.902 227.374 121.141 293.285 225.459 120.02 293.113 227.378 119.94 
292.393 229.061 120.113 291.492 230.226 120.286 289.661 232.131 120.538 
288.196 233.14 120.287 287.349 233.762 121.028 282.5 236.617 120.754 
279.797 238.875 121.331 275.475 242.92 120.475 270.747 245.542 120.991 
[...]
POINT_DATA 2150
COLOR_SCALARS scalars 3
0.501961 0.752941 0.886275 0.501961 0.752941 0.886275 0.501961 0.752941 0.886275 
0.501961 0.752941 0.886275 0.501961 0.752941 0.886275 
0.501961 0.752941 0.886275 0.501961 0.752941 0.886275 
0.501961 0.752941 0.886275 0.501961 0.752941 0.886275 
0.501961 0.752941 0.886275 0.501961 0.752941 0.886275 
0.501961 0.752941 0.886275 0.501961 0.752941 0.886275 
0.501961 0.752941 0.886275 0.501961 0.752941 0.886275 
0.501961 0.752941 0.886275 0.501961 0.752941 0.886275 
0.501961 0.752941 0.886275 0.501961 0.752941 0.886275 
0.501961 0.752941 0.886275 0.501961 0.752941 0.886275 
0.501961 0.752941 0.886275 0.501961 0.752941 0.886275 
0.501961 0.752941 0.886275 0.501961 0.752941 0.886275 
0.501961 0.752941 0.886275 0.501961 0.752941 0.886275 
0.501961 0.752941 0.886275 0.501961 0.752941 0.886275 
0.501961 0.752941 0.886275 0.501961 0.752941 0.886275 
0.501961 0.752941 0.886275 0.501961 0.752941 0.886275 
0.501961 0.752941 0.886275 0.501961 0.752941 0.886275 
0.501961 0.752941 0.886275 0.501961 0.752941 0.886275 
0.501961 0.752941 0.886275 0.501961 0.752941 0.886275 
0.501961 0.752941 0.886275 0.501961 0.752941 0.886275 
0.501961 0.752941 0.886275 0.501961 0.752941 0.886275 
0.501961 0.752941 0.886275 0.501961 0.752941 0.886275 
0.501961 0.752941 0.886275 0.501961 0.752941 0.886275 
0.501961 0.752941 0.886275 0.501961 0.752941 0.886275 
0.501961 0.752941 0.886275 0.501961 0.752941 0.886275 
0.501961 0.752941 0.886275 0.501961 0.752941 0.886275 
0.501961 0.752941 0.886275 0.501961 0.752941 0.886275 
0.501961 0.752941 0.886275 0.501961 0.752941 0.886275 
0.501961 0.752941 0.886275 0.501961 0.752941 0.886275 
0.501961 0.752941 0.886275 0.501961 0.752941 0.886275 
0.501961 0.752941 0.886275 0.501961 0.752941 0.886275 
0.501961 0.752941 0.886275 0.501961 0.752941 0.886275 
0.501961 0.752941 0.886275 0.501961 0.752941 0.886275 
0.501961 0.752941 0.886275 0.501961 0.752941 0.886275 
0.501961 0.752941 0.886275 0.501961 0.752941 0.886275 
0.501961 0.752941 0.886275 0.501961 0.752941 0.886275 
0.501961 0.752941 0.886275 0.501961 0.752941 0.886275 
0.501961 0.752941 0.886275 0.501961 0.752941 0.886275 
0.501961 0.752941 0.886275 0.501961 0.752941 0.886275 
0.501961 0.752941 0.886275 0.501961 0.752941 0.886275 
0.501961 0.752941 0.886275 0.501961 0.752941 0.886275 
0.501961 0.752941 0.886275 0.501961 0.752941 0.886275 
0.501961 0.752941 0.886275 0.501961 0.752941 0.886275 
0.501961 0.752941 0.886275 0.501961 0.752941 0.886275 
0.501961 0.752941 0.886275 0.501961 0.752941 0.886275 
0.501961 0.752941 0.886275 0.501961 0.752941 0.886275 
0.501961 0.752941 0.886275 0.501961 0.752941 0.886275 
0.501961 0.752941 0.886275 0.501961 0.752941 0.886275 
0.501961 0.752941 0.886275 0.501961 0.752941 0.886275 
0.501961 0.752941 0.886275 0.501961 0.752941 0.886275 
0.501961 0.752941 0.886275 0.501961 0.752941 0.886275 
0.501961 0.752941 0.886275 0.501961 0.752941 0.886275 
0.501961 0.752941 0.886275 0.501961 0.752941 0.886275 
0.501961 0.752941 0.886275 0.501961 0.752941 0.886275 
0.501961 0.752941 0.886275 0.501961 0.752941 0.886275 
0.501961 0.752941 0.886275 0.501961 0.752941 0.886275 
0.501961 0.752941 0.886275 0.501961 0.752941 0.886275 
0.501961 0.752941 0.886275 0.501961 0.752941 0.886275 
0.501961 0.752941 0.886275 0.501961 0.752941 0.886275 
0.501961 0.752941 0.886275 0.501961 0.752941 0.886275 
0.501961 0.752941 0.886275 0.501961 0.752941 0.886275 
0.501961 0.752941 0.886275 0.501961 0.752941 0.886275 
0.501961 0.752941 0.886275 0.501961 0.752941 0.886275 
0.501961 0.752941 0.886275 0.501961 0.752941 0.886275 
0.501961 0.752941 0.886275 0.501961 0.752941 0.886275 
0.501961 0.752941 0.886275 0.501961 0.752941 0.886275 
0.501961 0.752941 0.886275 0.501961 0.752941 0.886275 
0.501961 0.752941 0.886275 0.501961 0.752941 0.886275 
0.501961 0.752941 0.886275 0.501961 0.752941 0.886275 
0.501961 0.752941 0.886275 0.501961 0.752941 0.886275 
0.501961 0.752941 0.886275 0.501961 0.752941 0.886275 
0.501961 0.752941 0.886275 0.501961 0.752941 0.886275 
0.501961 0.752941 0.886275 0.501961 0.752941 0.886275 
0.501961 0.752941 0.886275 0.501961 0.752941 0.886275 
0.501961 0.752941 0.886275 0.501961 0.752941 0.886275 
0.501961 0.752941 0.886275 0.501961 0.752941 0.886275 
0.501961 0.752941 0.886275 0.501961 0.752941 0.886275 
0.501961 0.752941 0.886275 0.501961 0.752941 0.886275 
0.501961 0.752941 0.886275 0.501961 0.752941 0.886275 
0.501961 0.752941 0.886275 0.501961 0.752941 0.886275 
0.501961 0.752941 0.886275 0.501961 0.752941 0.886275 
0.501961 0.752941 0.886275 0.501961 0.752941 0.886275 
0.501961 0.752941 0.886275 0.501961 0.752941 0.886275 
0.501961 0.752941 0.886275 0.501961 0.752941 0.886275 
0.501961 0.752941 0.886275 0.501961 0.752941 0.886275 
0.501961 0.752941 0.886275 0.501961 0.752941 0.886275 
0.501961 0.752941 0.886275 0.501961 0.752941 0.886275 
0.501961 0.752941 0.886275 0.501961 0.752941 0.886275 
0.501961 0.752941 0.886275 0.501961 0.752941 0.886275 
0.501961 0.752941 0.886275 0.501961 0.752941 0.886275 
0.501961 0.752941 0.886275 0.501961 0.752941 0.886275 
0.501961 0.752941 0.886275 0.501961 0.752941 0.886275 
0.501961 0.752941 0.886275 0.501961 0.752941 0.886275 
0.501961 0.752941 0.886275 0.501961 0.752941 0.886275 
0.501961 0.752941 0.886275 0.501961 0.752941 0.886275 
0.501961 0.752941 0.886275 0.501961 0.752941 0.886275 
0.501961 0.752941 0.886275 0.501961 0.752941 0.886275 
0.501961 0.752941 0.886275 0.501961 0.752941 0.886275 
0.501961 0.752941 0.886275 0.501961 0.752941 0.886275 
0.501961 0.752941 0.886275 0.501961 0.752941 0.886275 
0.501961 0.752941 0.886275 0.501961 0.752941 0.886275 
0.501961 0.752941 0.886275 0.501961 0.752941 0.886275 
0.501961 0.752941 0.886275 0.501961 0.752941 0.886275 
0.501961 0.752941 0.886275 0.501961 0.752941 0.886275 
0.501961 0.752941 0.886275 0.501961 0.752941 0.886275 
0.501961 0.752941 0.886275 0.501961 0.752941 0.886275 
0.501961 0.752941 0.886275 0.501961 0.752941 0.886275 
0.501961 0.752941 0.886275 0.501961 0.752941 0.886275 
0.501961 0.752941 0.886275 0.501961 0.752941 0.886275 
0.501961 0.752941 0.886275 0.501961 0.752941 0.886275 
0.501961 0.752941 0.886275 0.501961 0.752941 0.886275 
0.501961 0.752941 0.886275 0.501961 0.752941 0.886275 
0.501961 0.752941 0.886275 0.501961 0.752941 0.886275 
0.501961 0.752941 0.886275 0.501961 0.752941 0.886275 
0.501961 0.752941 0.886275 0.501961 0.752941 0.886275 
0.501961 0.752941 0.886275 0.501961 0.752941 0.886275 
0.501961 0.752941 0.886275 0.501961 0.752941 0.886275 
0.501961 0.752941 0.886275 0.501961 0.752941 0.886275 
0.501961 0.752941 0.886275 0.501961 0.752941 0.886275 
0.501961 0.752941 0.886275 0.501961 0.752941 0.886275 
0.501961 0.752941 0.886275 0.501961 0.752941 0.886275 
0.501961 0.752941 0.886275 0.501961 0.752941 0.886275 
0.501961 0.752941 0.886275 0.501961 0.752941 0.886275 
0.501961 0.752941 0.886275 0.501961 0.752941 0.886275 
0.501961 0.752941 0.886275 0.501961 0.752941 0.886275 
0.501961 0.752941 0.886275 0.501961 0.752941 0.886275 
0.501961 0.752941 0.886275 0.501961 0.752941 0.886275 
0.501961 0.752941 0.886275 0.501961 0.752941 0.886275 
0.501961 0.752941 0.886275 0.501961 0.752941 0.886275 
0.501961 0.752941 0.886275 0.501961 0.752941 0.886275 
0.501961 0.752941 0.886275 0.501961 0.752941 0.886275 
0.501961 0.752941 0.886275 0.501961 0.752941 0.886275 
0.501961 0.752941 0.886275 0.501961 0.752941 0.886275 
0.501961 0.752941 0.886275 0.501961 0.752941 0.886275 
0.501961 0.752941 0.886275 0.501961 0.752941 0.886275 
0.501961 0.752941 0.886275 0.501961 0.752941 0.886275 
0.501961 0.752941 0.886275 0.501961 0.752941 0.886275 
0.501961 0.752941 0.886275 0.501961 0.752941 0.886275 
0.501961 0.752941 0.886275 0.501961 0.752941 0.886275 
0.501961 0.752941 0.886275 0.501961 0.752941 0.886275 
0.501961 0.752941 0.886275 0.501961 0.752941 0.886275 
0.501961 0.752941 0.886275 0.501961 0.752941 0.886275 
0.501961 0.752941 0.886275 0.501961 0.752941 0.886275 
0.501961 0.752941 0.886275 0.501961 0.752941 0.886275 
0.501961 0.752941 0.886275 0.501961 0.752941 0.886275 
0.501961 0.752941 0.886275 0.501961 0.752941 0.886275 
0.501961 0.752941 0.886275 0.501961 0.752941 0.886275 
0.501961 0.752941 0.886275 0.501961 0.752941 0.886275 
0.501961 0.752941 0.886275 0.501961 0.752941 0.886275 
0.501961 0.752941 0.886275 0.501961 0.752941 0.886275 
0.501961 0.752941 0.886275 0.501961 0.752941 0.886275 
0.501961 0.752941 0.886275 0.501961 0.752941 0.886275 
0.501961 0.752941 0.886275 0.501961 0.752941 0.886275 
0.501961 0.752941 0.886275 0.501961 0.752941 0.886275 
0.501961 0.752941 0.886275 0.501961 0.752941 0.886275 
0.501961 0.752941 0.886275 0.501961 0.752941 0.886275 
0.501961 0.752941 0.886275 0.501961 0.752941 0.886275 
0.501961 0.752941 0.886275 0.501961 0.752941 0.886275 
0.501961 0.752941 0.886275 0.501961 0.752941 0.886275 
0.501961 0.752941 0.886275 0.501961 0.752941 0.886275 
0.501961 0.752941 0.886275 0.501961 0.752941 0.886275 
0.501961 0.752941 0.886275 0.501961 0.752941 0.886275 
0.501961 0.752941 0.886275 0.501961 0.752941 0.886275 
0.501961 0.752941 0.886275 0.501961 0.752941 0.886275 
0.501961 0.752941 0.886275 0.501961 0.752941 0.886275 
0.501961 0.752941 0.886275 0.501961 0.752941 0.886275 
0.501961 0.752941 0.886275 0.501961 0.752941 0.886275 
0.501961 0.752941 0.886275 0.501961 0.752941 0.886275 
0.501961 0.752941 0.886275 0.501961 0.752941 0.886275 
0.501961 0.752941 0.886275 0.501961 0.752941 0.886275 
0.501961 0.752941 0.886275 0.501961 0.752941 0.886275 
0.501961 0.752941 0.886275 0.501961 0.752941 0.886275 
0.501961 0.752941 0.886275 0.501961 0.752941 0.886275 
0.501961 0.752941 0.886275 0.501961 0.752941 0.886275 
0.501961 0.752941 0.886275 0.501961 0.752941 0.886275 
0.501961 0.752941 0.886275 0.501961 0.752941 0.886275 
0.501961 0.752941 0.886275 0.501961 0.752941 0.886275 
0.501961 0.752941 0.886275 0.501961 0.752941 0.886275 
0.501961 0.752941 0.886275 0.501961 0.752941 0.886275 
0.501961 0.752941 0.886275 0.501961 0.752941 0.886275 
0.501961 0.752941 0.886275 0.501961 0.752941 0.886275 
0.501961 0.752941 0.886275 0.501961 0.752941 0.886275 
0.501961 0.752941 0.886275 0.501961 0.752941 0.886275 
0.501961 0.752941 0.886275 0.501961 0.752941 0.886275 
0.501961 0.752941 0.886275 0.501961 0.752941 0.886275 
0.501961 0.752941 0.886275 0.501961 0.752941 0.886275 
0.501961 0.752941 0.886275 0.501961 0.752941 0.886275 
0.501961 0.752941 0.886275 0.501961 0.752941 0.886275 
0.501961 0.752941 0.886275 0.501961 0.752941 0.886275 
0.501961 0.752941 0.886275 0.501961 0.752941 0.886275 
0.501961 0.752941 0.886275 0.501961 0.752941 0.886275 
0.501961 0.752941 0.886275 0.501961 0.752941 0.886275 
0.501961 0.752941 0.886275 0.501961 0.752941 0.886275 
0.501961 0.752941 0.886275 0.501961 0.752941 0.886275 
0.501961 0.752941 0.886275 0.501961 0.752941 0.886275 
0.501961 0.752941 0.886275 0.501961 0.752941 0.886275 
0.501961 0.752941 0.886275 0.501961 0.752941 0.886275 
0.501961 0.752941 0.886275 0.501961 0.752941 0.886275 
0.501961 0.752941 0.886275 0.501961 0.752941 0.886275 
0.501961 0.752941 0.886275 0.501961 0.752941 0.886275 
0.501961 0.752941 0.886275 0.501961 0.752941 0.886275 
0.501961 0.752941 0.886275 0.501961 0.752941 0.886275 
0.501961 0.752941 0.886275 0.501961 0.752941 0.886275 
0.501961 0.752941 0.886275 0.501961 0.752941 0.886275 
0.501961 0.752941 0.886275 0.501961 0.752941 0.886275 
0.501961 0.752941 0.886275 0.501961 0.752941 0.886275 
0.501961 0.752941 0.886275 0.501961 0.752941 0.886275 
0.501961 0.752941 0.886275 0.501961 0.752941 0.886275 
0.501961 0.752941 0.886275 0.501961 0.752941 0.886275 
0.501961 0.752941 0.886275 0.501961 0.752941 0.886275 
0.501961 0.752941 0.886275 0.501961 0.752941 0.886275 
0.501961 0.752941 0.886275 0.501961 0.752941 0.886275 
0.501961 0.752941 0.886275 0.501961 0.752941 0.886275 
0.501961 0.752941 0.886275 0.501961 0.752941 0.886275 
0.501961 0.752941 0.886275 0.501961 0.752941 0.886275 
0.501961 0.752941 0.886275 0.501961 0.752941 0.886275 
0.501961 0.752941 0.886275 0.501961 0.752941 0.886275 
0.501961 0.752941 0.886275 0.501961 0.752941 0.886275 
0.501961 0.752941 0.886275 0.501961 0.752941 0.886275 
0.501961 0.752941 0.886275 0.501961 0.752941 0.886275 
0.501961 0.752941 0.886275 0.501961 0.752941 0.886275 
0.501961 0.752941 0.886275 0.501961 0.752941 0.886275 
0.501961 0.752941 0.886275 0.501961 0.752941 0.886275 
0.501961 0.752941 0.886275 0.501961 0.752941 0.886275 
0.501961 0.752941 0.886275 0.501961 0.752941 0.886275 
0.501961 0.752941 0.886275 0.501961 0.752941 0.886275 
0.501961 0.752941 0.886275 0.501961 0.752941 0.886275 
0.501961 0.752941 0.886275 0.501961 0.752941 0.886275 
0.501961 0.752941 0.886275 0.501961 0.752941 0.886275 
0.501961 0.752941 0.886275 0.501961 0.752941 0.886275 
0.501961 0.752941 0.886275 0.501961 0.752941 0.886275 
0.501961 0.752941 0.886275 0.501961 0.752941 0.886275 
0.501961 0.752941 0.886275 0.501961 0.752941 0.886275 
0.501961 0.752941 0.886275 0.501961 0.752941 0.886275 
0.501961 0.752941 0.886275 0.501961 0.752941 0.886275 
0.501961 0.752941 0.886275 0.501961 0.752941 0.886275 
0.501961 0.752941 0.886275 0.501961 0.752941 0.886275 
0.501961 0.752941 0.886275 0.501961 0.752941 0.886275 
0.501961 0.752941 0.886275 0.501961 0.752941 0.886275 
0.501961 0.752941 0.886275 0.501961 0.752941 0.886275 
0.501961 0.752941 0.886275 0.501961 0.752941 0.886275 
0.501961 0.752941 0.886275 0.501961 0.752941 0.886275 
0.501961 0.752941 0.886275 0.501961 0.752941 0.886275 
0.501961 0.752941 0.886275 0.501961 0.752941 0.886275 
0.501961 0.752941 0.886275 0.501961 0.752941 0.886275 
0.501961 0.752941 0.886275 0.501961 0.752941 0.886275 
0.501961 0.752941 0.886275 0.501961 0.752941 0.886275 
0.501961 0.752941 0.886275 0.501961 0.752941 0.886275 
0.501961 0.752941 0.886275 0.501961 0.752941 0.886275 
0.501961 0.752941 0.886275 0.501961 0.752941 0.886275 
0.501961 0.752941 0.886275 0.501961 0.752941 0.886275 
0.501961 0.752941 0.886275 0.501961 0.752941 0.886275 
0.501961 0.752941 0.886275 0.501961 0.752941 0.886275 
0.501961 0.752941 0.886275 0.501961 0.752941 0.886275 
0.501961 0.752941 0.886275 0.501961 0.752941 0.886275 
0.501961 0.752941 0.886275 0.501961 0.752941 0.886275 
0.501961 0.752941 0.886275 0.501961 0.752941 0.886275 
0.501961 0.752941 0.886275 0.501961 0.752941 0.886275 
0.501961 0.752941 0.886275 0.501961 0.752941 0.886275 
0.501961 0.752941 0.886275 0.501961 0.752941 0.886275 
0.501961 0.752941 0.886275 0.501961 0.752941 0.886275 
0.501961 0.752941 0.886275 0.501961 0.752941 0.886275 
0.501961 0.752941 0.886275 0.501961 0.752941 0.886275 
0.501961 0.752941 0.886275 0.501961 0.752941 0.886275 
0.501961 0.752941 0.886275 0.501961 0.752941 0.886275 
0.501961 0.752941 0.886275 0.501961 0.752941 0.886275 
0.501961 0.752941 0.886275 0.501961 0.752941 0.886275 
0.501961 0.752941 0.886275 0.501961 0.752941 0.886275 
0.501961 0.752941 0.886275 0.501961 0.752941 0.886275 
0.501961 0.752941 0.886275 0.501961 0.752941 0.886275 
0.501961 0.752941 0.886275 0.501961 0.752941 0.886275 
0.501961 0.752941 0.886275 0.501961 0.752941 0.886275 
0.501961 0.752941 0.886275 0.501961 0.752941 0.886275 
0.501961 0.752941 0.886275 0.501961 0.752941 0.886275 
0.501961 0.752941 0.886275 0.501961 0.752941 0.886275 
0.501961 0.752941 0.886275 0.501961 0.752941 0.886275 
0.501961 0.752941 0.886275 0.501961 0.752941 0.886275 
0.501961 0.752941 0.886275 0.501961 0.752941 0.886275 
0.501961 0.752941 0.886275 0.501961 0.752941 0.886275 
0.501961 0.752941 0.886275 0.501961 0.752941 0.886275 
0.501961 0.752941 0.886275 0.501961 0.752941 0.886275 
0.501961 0.752941 0.886275 0.501961 0.752941 0.886275 
0.501961 0.752941 0.886275 0.501961 0.752941 0.886275 
0.501961 0.752941 0.886275 0.501961 0.752941 0.886275 
0.501961 0.752941 0.886275 0.501961 0.752941 0.886275 
0.501961 0.752941 0.886275 0.501961 0.752941 0.886275 
0.501961 0.752941 0.886275 0.501961 0.752941 0.886275 
0.501961 0.752941 0.886275 0.501961 0.752941 0.886275 
0.501961 0.752941 0.886275 0.501961 0.752941 0.886275 
0.501961 0.752941 0.886275 0.501961 0.752941 0.886275 
0.501961 0.752941 0.886275 0.501961 0.752941 0.886275 
0.501961 0.752941 0.886275 0.501961 0.752941 0.886275 
0.501961 0.752941 0.886275 0.501961 0.752941 0.886275 
0.501961 0.752941 0.886275 0.501961 0.752941 0.886275 
0.501961 0.752941 0.886275 0.501961 0.752941 0.886275 
0.501961 0.752941 0.886275 0.501961 0.752941 0.886275 
0.501961 0.752941 0.886275 0.501961 0.752941 0.886275 
0.501961 0.752941 0.886275 0.501961 0.752941 0.886275 
0.501961 0.752941 0.886275 0.501961 0.752941 0.886275 
0.501961 0.752941 0.886275 0.501961 0.752941 0.886275 
0.501961 0.752941 0.886275 0.501961 0.752941 0.886275 
0.501961 0.752941 0.886275 0.501961 0.752941 0.886275 
0.501961 0.752941 0.886275 0.501961 0.752941 0.886275 
0.501961 0.752941 0.886275 0.501961 0.752941 0.886275 
0.501961 0.752941 0.886275 0.501961 0.752941 0.886275 
0.501961 0.752941 0.886275 0.501961 0.752941 0.886275 
0.501961 0.752941 0.886275 0.501961 0.752941 0.886275 
0.501961 0.752941 0.886275 0.501961 0.752941 0.886275 
0.501961 0.752941 0.886275 0.501961 0.752941 0.886275 
0.501961 0.752941 0.886275 0.501961 0.752941 0.886275 
0.501961 0.752941 0.886275 0.501961 0.752941 0.886275 
0.501961 0.752941 0.886275 0.501961 0.752941 0.886275 
0.501961 0.752941 0.886275 0.501961 0.752941 0.886275 
0.501961 0.752941 0.886275 0.501961 0.752941 0.886275 
0.501961 0.752941 0.886275 0.501961 0.752941 0.886275 
0.501961 0.752941 0.886275 0.501961 0.752941 0.886275 
0.501961 0.752941 0.886275 0.501961 0.752941 0.886275 
0.501961 0.752941 0.886275 0.501961 0.752941 0.886275 
0.501961 0.752941 0.886275 0.501961 0.752941 0.886275 
0.501961 0.752941 0.886275 0.501961 0.752941 0.886275 
0.501961 0.752941 0.886275 0.501961 0.752941 0.886275 
0.501961 0.752941 0.886275 0.501961 0.752941 0.886275 
0.501961 0.752941 0.886275 0.501961 0.752941 0.886275 
0.501961 0.752941 0.886275 0.501961 0.752941 0.886275 
0.501961 0.752941 0.886275 0.501961 0.752941 0.886275 
0.501961 0.752941 0.886275 0.501961 0.752941 0.886275 
0.501961 0.752941 0.886275 0.501961 0.752941 0.886275 
0.501961 0.752941 0.886275 0.501961 0.752941 0.886275 
0.501961 0.752941 0.886275 0.501961 0.752941 0.886275 
0.501961 0.752941 0.886275 0.501961 0.752941 0.886275 
0.501961 0.752941 0.886275 0.501961 0.752941 0.886275 
0.501961 0.752941 0.886275 0.501961 0.752941 0.886275 
0.501961 0.752941 0.886275 0.501961 0.752941 0.886275 
0.501961 0.752941 0.886275 0.501961 0.752941 0.886275 
0.501961 0.752941 0.886275 0.501961 0.752941 0.886275 
0.501961 0.752941 0.886275 0.501961 0.752941 0.886275 
0.501961 0.752941 0.886275 0.501961 0.752941 0.886275 
0.501961 0.752941 0.886275 0.501961 0.752941 0.886275 
0.501961 0.752941 0.886275 0.501961 0.752941 0.886275 
0.501961 0.752941 0.886275 0.501961 0.752941 0.886275 
0.501961 0.752941 0.886275 0.501961 0.752941 0.886275 
0.501961 0.752941 0.886275 0.501961 0.752941 0.886275 
0.501961 0.752941 0.886275 0.501961 0.752941 0.886275 
0.501961 0.752941 0.886275 0.501961 0.752941 0.886275 
0.501961 0.752941 0.886275 0.501961 0.752941 0.886275 
0.501961 0.752941 0.886275 0.501961 0.752941 0.886275 
0.501961 0.752941 0.886275 0.501961 0.752941 0.886275 
0.501961 0.752941 0.886275 0.501961 0.752941 0.886275 
0.501961 0.752941 0.886275 0.501961 0.752941 0.886275 
0.501961 0.752941 0.886275 0.501961 0.752941 0.886275 
0.501961 0.752941 0.886275 0.501961 0.752941 0.886275 
0.501961 0.752941 0.886275 0.501961 0.752941 0.886275 
0.501961 0.752941 0.886275 0.501961 0.752941 0.886275 
0.501961 0.752941 0.886275 0.501961 0.752941 0.886275 
0.501961 0.752941 0.886275 0.501961 0.752941 0.886275 
0.501961 0.752941 0.886275 0.501961 0.752941 0.886275 
0.501961 0.752941 0.886275 0.501961 0.752941 0.886275 
0.501961 0.752941 0.886275 0.501961 0.752941 0.886275 
0.501961 0.752941 0.886275 0.501961 0.752941 0.886275 
0.501961 0.752941 0.886275 0.501961 0.752941 0.886275 
0.501961 0.752941 0.886275 0.501961 0.752941 0.886275 
0.501961 0.752941 0.886275 0.501961 0.752941 0.886275 