# vtk DataFile Version 4.2
vtk output
ASCII
DATASET POLYDATA
POINTS 716 float
261.469 240.745 116.233 261.379 240.632 116.28 261.567 240.838 116.273 
261.785 240.268 116.434 261.766 239.92 116.511 261.123 240.615 116.431 
261.884 240.822 116.401 261.544 241.097 116.391 261.841 241.263 116.479 
262.167 241.178 116.54 259.523 242.686 117.136 259.507 242.655 117.193 
259.539 242.699 117.203 259.542 242.633 117.155 262.384 241.403 116.723 
259.573 242.677 117.165 261.338 239.351 116.743 260.913 240.048 116.645 
259.534 242.487 117.29 259.481 242.678 117.387 259.653 242.57 117.196 
260.81 241.781 116.871 259.687 242.707 117.338 260.559 238.425 117.307 
262.005 237.314 117.732 259.948 240.289 117.128 259.411 242.041 117.473 
259.249 242.452 117.664 259.997 242.256 117.224 259.457 242.96 117.852 
260.202 242.977 117.599 261.172 243.52 117.963 262.177 242.962 117.735 
263.193 243.006 118.367 261.125 233.42 118.684 261.785 233.724 118.657 
262.002 233.312 118.847 262.242 234.685 118.597 258.911 241.232 117.865 
263.677 240.629 117.988 262.676 231.472 119.574 259.856 232.344 119.226 
260.507 244.829 119.41 263.672 244.638 120.031 264.208 244.42 120.274 
264.228 224.968 121.639 264.04 225.091 121.538 264.304 225.224 121.688 
262.594 229.823 120.009 263.57 232.044 120.088 264.722 241.898 119.819 
257.387 244.246 120.451 258.948 244.62 119.805 261.568 220.721 122.562 
260.881 221.832 121.905 260.99 224.409 121.16 263.502 224.899 121.421 
247.91 231.453 122.964 247.832 231.202 123.119 247.776 231.488 123.075 
247.908 231.77 122.944 247.892 232.124 122.99 247.791 232.414 123.249 
248.147 232.132 122.853 264.526 233.63 121.073 257.121 245.4 121.608 
262.454 246.284 121.616 258.553 221.605 122.186 262.604 220.652 123.047 
258.975 224.074 121.594 247.961 230.67 123.329 247.67 231.204 123.402 
247.573 232.4 123.675 249.028 232.589 122.688 248.527 233.306 122.91 
248.377 233.703 123.161 252.124 235.038 121.954 264.99 236.189 121.594 
265.344 245.451 122.505 253.62 214.83 124.884 253.625 214.754 125.034 
253.541 214.868 124.901 253.779 214.799 124.953 253.636 215.038 124.816 
254.591 215.29 124.602 254.815 215.299 124.678 254.667 215.5 124.524 
255.949 216.052 124.536 256 217.345 123.835 255.721 218.584 123.41 
258.039 219.941 122.8 247.705 229.554 124.062 265.342 231.727 123.005 
249.513 234.1 122.732 247.868 234.404 124.173 265.513 236.755 123.162 
266.664 244.922 123.837 253 247.009 123.017 253 247.009 123.017 
253 247.009 123.017 253 247.009 123.017 255.63 245.984 123.64 
264.473 246.437 123.035 253 247.009 123.017 265.879 246.25 124.049 
266.371 245.949 124.204 253.38 214.982 125.03 254.021 214.55 125.371 
252.582 215.724 125.011 253.3 215.519 124.77 252.969 215.306 125.152 
253.901 215.498 124.598 255.166 215.683 124.582 252.533 216.51 124.874 
254.484 215.979 124.376 253.588 217.013 124.217 265.092 222.114 123.769 
247.841 228.671 124.36 249.211 237.412 123.929 266.833 243.168 123.729 
253 247.009 123.018 266.78 245.734 124.572 261.144 247.499 124.185 
254.096 214.293 125.673 254.113 214.213 125.842 253.653 214.521 125.774 
254.938 214.684 125.421 252.301 216.02 125.379 256.272 215.364 125.241 
250.863 217.432 126.16 250.316 219.462 125.617 249.037 226.184 124.783 
247.448 228.301 125.201 247.412 229.198 125.107 247.377 234.037 125.404 
247.578 235.76 125.591 247.893 237.887 125.853 248.689 238.642 125.022 
266.974 245.891 125.077 254.234 214.157 126.048 254.983 214.13 126.566 
249.88 218.803 126.381 267.666 223.073 126.202 248.083 224.324 126.339 
248.208 224.892 125.836 268.542 224.685 127.033 247.725 226.359 126.203 
247.459 228.224 125.851 267.195 227.693 126.266 247.593 237.135 126.315 
267.084 241.334 125.82 250.641 242.041 125.035 267.496 243.02 126.112 
267.507 244.02 125.4 251.763 245.026 126.401 267.517 245.733 125.941 
267.465 245.861 126.178 258.63 247.861 126.608 264.514 247.569 125.571 
265.551 247.253 125.923 255.151 213.926 127.108 254.471 214.097 127.103 
250.552 217.08 127.542 249.47 218.695 127.374 248.285 221.566 127.659 
266.649 221.251 126.422 248.167 222.683 127.057 247.788 225.502 126.795 
247.56 227.636 126.698 247.432 229.439 126.451 247.417 234.499 126.832 
247.592 234.058 127.433 265.346 234.798 126.458 265.489 236.33 126.463 
265.894 237.994 126.51 247.522 239.248 127.273 247.565 239.66 127.186 
266.453 239.385 126.223 247.744 240.016 127.008 247.591 239.985 127.287 
267.115 241.381 126.367 248.874 242.744 127.074 267.673 245.275 126.327 
267.646 245.221 126.642 267.61 245.598 126.181 267.322 245.953 126.451 
265.723 247.205 126.295 265.98 247.018 126.526 266.928 246.233 126.607 
264.313 247.654 126.854 265.571 247.201 126.73 251.034 216.498 128.019 
248.683 219.893 128.235 248.434 220.642 128.217 248.219 221.158 128.115 
248.236 221.061 128.352 248.165 221.211 128.236 248.173 221.395 128.125 
248.196 221.823 128.264 268.15 222.63 127.165 247.897 224.778 127.446 
268.967 224.223 127.965 266.51 229.766 127.443 265.241 232.22 128.121 
247.507 237.531 127.595 247.623 240.19 127.505 266.649 240.708 127.053 
267.113 241.97 127.043 267.462 243.225 127.209 267.439 243.435 127.402 
248.403 242.96 128.664 248.695 243.102 127.79 267.485 243.736 127.379 
248.612 243.383 128.521 248.896 243.65 128.193 267.593 244.911 126.857 
267.403 244.079 127.387 249.499 244.246 128.045 249.513 244.448 128.476 
267.259 245.779 126.819 254.772 247.046 128.053 260.066 247.968 128.016 
263.338 247.784 127.569 264.038 247.609 127.49 255.36 213.882 128.321 
256.026 213.904 128.126 262.301 216.884 128.947 248.191 221.298 128.361 
248.367 221.08 128.835 268.562 222.348 128.554 269.285 224.871 129.036 
248.535 227.133 128.961 267.783 227.93 129.006 265.457 231.523 128.471 
265.748 230.699 129.248 264.322 233.07 129.076 248.473 234.689 129.173 
263.214 235.588 129.378 264.429 235.2 128.291 263.691 236.257 128.995 
247.633 237.539 128.238 266.148 240.295 127.59 248.822 243.549 129.101 
266.819 243.482 128.049 249.419 244.38 129.043 250.355 244.995 129.246 
252.679 246.273 128.859 255.851 247.265 129.082 262.296 247.789 128.303 
264.434 247.186 128.092 259.213 215.119 129.522 250.574 217.189 130.005 
262.978 217.133 129.678 248.943 219.482 129.555 268.52 222.086 129.142 
248.438 222.028 129.365 268.982 223.402 129.599 269.013 225.906 129.469 
269.053 225.666 129.626 249.691 227.901 130.3 249.145 233.675 129.73 
248.154 241.384 129.139 265.396 241.374 128.786 248.359 242.536 129.152 
263.778 244.408 129.949 251.015 245.266 129.636 252.205 245.988 129.507 
255.788 247.078 129.601 258.584 247.536 129.337 251.85 216.264 130.893 
264.065 217.746 130.251 266.63 219.959 130.52 266.458 229.668 130.278 
262.651 231.911 131.308 251.667 233.069 131.168 249.473 234.956 130.163 
251.301 234.767 131.123 259.788 234.959 131.173 248.663 238.456 129.895 
249.241 242.082 130.288 250.318 244.479 129.98 259.308 245.307 131.135 
260.785 245.313 130.849 252.568 245.893 130.03 261.908 245.958 130.53 
263.33 246.69 129.705 256.688 247.093 129.9 258.189 247.191 129.872 
260.847 247.297 129.638 262.662 247.243 129.316 252.442 216.507 132.023 
263.923 217.844 131.277 249.966 218.825 131.4 266.283 220.062 131.772 
267.241 228.213 131.504 255.321 233.193 131.982 257.383 232.914 132.066 
252.348 235.761 131.546 251.324 237.383 131.445 249.822 238.519 130.829 
250.397 238.183 131.135 251.974 238.044 131.729 255.459 238.371 132.174 
250.975 241.508 131.45 251.961 242.095 131.799 252.274 244.758 130.829 
253.791 244.826 131.451 259.144 246.317 130.655 260.024 246.403 130.534 
262.874 246.596 130.021 262.555 246.555 130.219 260.445 246.891 130.127 
262.906 246.906 129.714 266.622 221.495 132.821 252.498 226.244 133.645 
267.239 226.782 132.919 253.751 230.291 132.446 254.317 229.525 133.028 
257.767 242.108 132.221 255.463 243.079 132.358 255.017 244.278 131.877 
262.485 246.423 130.338 252.149 218.084 133.903 254.093 226.955 134.522 
255.165 227.885 134.489 254.543 228.999 133.417 266.113 227.926 133.663 
261.502 229.455 134.182 256.457 217.219 134.773 251.52 219.328 134.138 
262.505 219.834 135.172 266.056 226.085 134.647 263.541 228.777 134.604 
264.639 228.623 134.262 253.578 217.754 134.77 258.003 218.064 135.528 
252.079 220.876 135.158 265.344 223.921 135.381 265.122 227.774 134.719 
259.345 220.162 137.013 255.791 224.843 137.075 264.856 226.731 135.513 
263.573 227.5 135.753 254.156 219.725 136.536 257.758 220.34 137.567 
253.579 221.089 136.672 262.198 222.913 137.179 256.895 225.336 137.18 
260.305 225.445 137.598 262.779 225.966 136.925 255.997 221.082 137.806 
256.775 221.038 137.956 255.201 222.594 137.643 260.238 223.54 138.14 
260.596 224.269 137.991 260.064 224.404 138.077 255.888 221.695 137.935 
258.41 222.774 138.487 257.995 223.471 138.419 257.273 222.078 138.547 
258.283 223.177 138.512 258.674 223.182 138.508 257.455 221.906 316.491 
258.722 222.86 316.518 259.135 222.848 316.617 255.986 221.817 316.915 
255.696 222.242 317.024 259.565 222.41 316.858 259.568 223.824 316.824 
260.388 223.415 316.967 259.19 224.199 316.921 254.187 219.639 318.406 
255.214 219.448 318.047 254.391 220.493 317.926 254.876 220.299 317.736 
256.993 220.192 317.405 254.959 220.984 317.528 258.415 221.313 316.93 
254.71 222.299 317.602 259.56 221.729 317.07 255.241 222.488 317.283 
255.712 222.775 317.113 256.298 223.792 317.243 259.627 224.759 317.182 
260.631 224.746 317.285 261.014 225.436 317.573 261.936 225.729 317.8 
263.493 225.295 318.233 259.791 220.958 317.538 253.921 221.73 318.128 
263.574 223.828 318.2 262.182 226.905 318.541 263.883 226.491 318.816 
256.846 218.287 318.975 258.379 219.276 318.398 260.736 219.079 319.502 
259.633 226.974 318.604 264.853 226.788 319.533 263.616 227.549 319.351 
265.092 227.704 320.195 251.562 218.211 321.655 266.907 223.396 321.379 
266.568 226.214 320.862 266.381 227.491 321.251 257.79 216.129 321.783 
260.745 217.058 321.733 264.915 220.026 321.463 258.276 230.605 321.88 
255.723 243.636 322.844 259.772 215.789 323.171 250.948 217.611 323.282 
264.995 218.721 323.561 267.149 228.14 322.963 255.123 230.132 322.094 
[...]
POINT_DATA 716
COLOR_SCALARS scalars 3
0.501961 0.752941 0.886275 0.501961 0.752941 0.886275 0.501961 0.752941 0.886275 
0.501961 0.752941 0.886275 0.501961 0.752941 0.886275 
0.501961 0.752941 0.886275 0.501961 0.752941 0.886275 
0.501961 0.752941 0.886275 0.501961 0.752941 0.886275 
0.501961 0.752941 0.886275 0.501961 0.752941 0.886275 
0.501961 0.752941 0.886275 0.501961 0.752941 0.886275 
0.501961 0.752941 0.886275 0.501961 0.752941 0.886275 
0.501961 0.752941 0.886275 0.501961 0.752941 0.886275 
0.501961 0.752941 0.886275 0.501961 0.752941 0.886275 
0.501961 0.752941 0.886275 0.501961 0.752941 0.886275 
0.501961 0.752941 0.886275 0.501961 0.752941 0.886275 
0.501961 0.752941 0.886275 0.501961 0.752941 0.886275 
0.501961 0.752941 0.886275 0.501961 0.752941 0.886275 
0.501961 0.752941 0.886275 0.501961 0.752941 0.886275 
0.501961 0.752941 0.886275 0.501961 0.752941 0.886275 
0.501961 0.752941 0.886275 0.501961 0.752941 0.886275 
0.501961 0.752941 0.886275 0.501961 0.752941 0.886275 
0.501961 0.752941 0.886275 0.501961 0.752941 0.886275 
0.501961 0.752941 0.886275 0.501961 0.752941 0.886275 
0.501961 0.752941 0.886275 0.501961 0.752941 0.886275 
0.501961 0.752941 0.886275 0.501961 0.752941 0.886275 
0.501961 0.752941 0.886275 0.501961 0.752941 0.886275 
0.501961 0.752941 0.886275 0.501961 0.752941 0.886275 
0.501961 0.752941 0.886275 0.501961 0.752941 0.886275 
0.501961 0.752941 0.886275 0.501961 0.752941 0.886275 
0.501961 0.752941 0.886275 0.501961 0.752941 0.886275 
0.501961 0.752941 0.886275 0.501961 0.752941 0.886275 
0.501961 0.752941 0.886275 0.501961 0.752941 0.886275 
0.501961 0.752941 0.886275 0.501961 0.752941 0.886275 
0.501961 0.752941 0.886275 0.501961 0.752941 0.886275 
0.501961 0.752941 0.886275 0.501961 0.752941 0.886275 
0.501961 0.752941 0.886275 0.501961 0.752941 0.886275 
0.501961 0.752941 0.886275 0.501961 0.752941 0.886275 
0.501961 0.752941 0.886275 0.501961 0.752941 0.886275 
0.501961 0.752941 0.886275 0.501961 0.752941 0.886275 
0.501961 0.752941 0.886275 0.501961 0.752941 0.886275 
0.501961 0.752941 0.886275 0.501961 0.752941 0.886275 
0.501961 0.752941 0.886275 0.501961 0.752941 0.886275 
0.501961 0.752941 0.886275 0.501961 0.752941 0.886275 
0.501961 0.752941 0.886275 0.501961 0.752941 0.886275 
0.501961 0.752941 0.886275 0.501961 0.752941 0.886275 
0.501961 0.752941 0.886275 0.501961 0.752941 0.886275 
0.501961 0.752941 0.886275 0.501961 0.752941 0.886275 
0.501961 0.752941 0.886275 0.501961 0.752941 0.886275 
0.501961 0.752941 0.886275 0.501961 0.752941 0.886275 
0.501961 0.752941 0.886275 0.501961 0.752941 0.886275 
0.501961 0.752941 0.886275 0.501961 0.752941 0.886275 
0.501961 0.752941 0.886275 0.501961 0.752941 0.886275 
0.501961 0.752941 0.886275 0.501961 0.752941 0.886275 
0.501961 0.752941 0.886275 0.501961 0.752941 0.886275 
0.501961 0.752941 0.886275 0.501961 0.752941 0.886275 
0.501961 0.752941 0.886275 0.501961 0.752941 0.886275 
0.501961 0.752941 0.886275 0.501961 0.752941 0.886275 
0.501961 0.752941 0.886275 0.501961 0.752941 0.886275 
0.501961 0.752941 0.886275 0.501961 0.752941 0.886275 
0.501961 0.752941 0.886275 0.501961 0.752941 0.886275 
0.501961 0.752941 0.886275 0.501961 0.752941 0.886275 
0.501961 0.752941 0.886275 0.501961 0.752941 0.886275 
0.501961 0.752941 0.886275 0.501961 0.752941 0.886275 
0.501961 0.752941 0.886275 0.501961 0.752941 0.886275 
0.501961 0.752941 0.886275 0.501961 0.752941 0.886275 
0.501961 0.752941 0.886275 0.501961 0.752941 0.886275 
0.501961 0.752941 0.886275 0.501961 0.752941 0.886275 
0.501961 0.752941 0.886275 0.501961 0.752941 0.886275 
0.501961 0.752941 0.886275 0.501961 0.752941 0.886275 
0.501961 0.752941 0.886275 0.501961 0.752941 0.886275 
0.501961 0.752941 0.886275 0.501961 0.752941 0.886275 
0.501961 0.752941 0.886275 0.501961 0.752941 0.886275 
0.501961 0.752941 0.886275 0.501961 0.752941 0.886275 
0.501961 0.752941 0.886275 0.501961 0.752941 0.886275 
0.501961 0.752941 0.886275 0.501961 0.752941 0.886275 
0.501961 0.752941 0.886275 0.501961 0.752941 0.886275 
0.501961 0.752941 0.886275 0.501961 0.752941 0.886275 
0.501961 0.752941 0.886275 0.501961 0.752941 0.886275 
0.501961 0.752941 0.886275 0.501961 0.752941 0.886275 
0.501961 0.752941 0.886275 0.501961 0.752941 0.886275 
0.501961 0.752941 0.886275 0.501961 0.752941 0.886275 
0.501961 0.752941 0.886275 0.501961 0.752941 0.886275 
0.501961 0.752941 0.886275 0.501961 0.752941 0.886275 
0.501961 0.752941 0.886275 0.501961 0.752941 0.886275 
0.501961 0.752941 0.886275 0.501961 0.752941 0.886275 
0.501961 0.752941 0.886275 0.501961 0.752941 0.886275 
0.501961 0.752941 0.886275 0.501961 0.752941 0.886275 
0.501961 0.752941 0.886275 0.501961 0.752941 0.886275 
0.501961 0.752941 0.886275 0.501961 0.752941 0.886275 
0.501961 0.752941 0.886275 0.501961 0.752941 0.886275 
0.501961 0.752941 0.886275 0.501961 0.752941 0.886275 
0.501961 0.752941 0.886275 0.501961 0.752941 0.886275 
0.501961 0.752941 0.886275 0.501961 0.752941 0.886275 
0.501961 0.752941 0.886275 0.501961 0.752941 0.886275 
0.501961 0.752941 0.886275 0.501961 0.752941 0.886275 
0.501961 0.752941 0.886275 0.501961 0.752941 0.886275 
0.501961 0.752941 0.886275 0.501961 0.752941 0.886275 
0.501961 0.752941 0.886275 0.501961 0.752941 0.886275 
0.501961 0.752941 0.886275 0.501961 0.752941 0.886275 
0.501961 0.752941 0.886275 0.501961 0.752941 0.886275 
0.501961 0.752941 0.886275 0.501961 0.752941 0.886275 
0.501961 0.752941 0.886275 0.501961 0.752941 0.886275 
0.501961 0.752941 0.886275 0.501961 0.752941 0.886275 
0.501961 0.752941 0.886275 0.501961 0.752941 0.886275 
0.501961 0.752941 0.886275 0.501961 0.752941 0.886275 
0.501961 0.752941 0.886275 0.501961 0.752941 0.886275 
0.501961 0.752941 0.886275 0.501961 0.752941 0.886275 
0.501961 0.752941 0.886275 0.501961 0.752941 0.886275 
0.501961 0.752941 0.886275 0.501961 0.752941 0.886275 
0.501961 0.752941 0.886275 0.501961 0.752941 0.886275 
0.501961 0.752941 0.886275 0.501961 0.752941 0.886275 
0.501961 0.752941 0.886275 0.501961 0.752941 0.886275 
0.501961 0.752941 0.886275 0.501961 0.752941 0.886275 
0.501961 0.752941 0.886275 0.501961 0.752941 0.886275 
0.501961 0.752941 0.886275 0.501961 0.752941 0.886275 
0.501961 0.752941 0.886275 0.501961 0.752941 0.886275 
0.501961 0.752941 0.886275 0.501961 0.752941 0.886275 
0.501961 0.752941 0.886275 0.501961 0.752941 0.886275 
0.501961 0.752941 0.886275 0.501961 0.752941 0.886275 
0.501961 0.752941 0.886275 0.501961 0.752941 0.886275 
0.501961 0.752941 0.886275 0.501961 0.752941 0.886275 
0.501961 0.752941 0.886275 0.501961 0.752941 0.886275 
0.501961 0.752941 0.886275 0.501961 0.752941 0.886275 
0.501961 0.752941 0.886275 0.501961 0.752941 0.886275 
0.501961 0.752941 0.886275 0.501961 0.752941 0.886275 
0.501961 0.752941 0.886275 0.501961 0.752941 0.886275 
0.501961 0.752941 0.886275 0.501961 0.752941 0.886275 
0.501961 0.752941 0.886275 0.501961 0.752941 0.886275 
0.501961 0.752941 0.886275 0.501961 0.752941 0.886275 
0.501961 0.752941 0.886275 0.501961 0.752941 0.886275 
0.501961 0.752941 0.886275 0.501961 0.752941 0.886275 
0.501961 0.752941 0.886275 0.501961 0.752941 0.886275 
0.501961 0.752941 0.886275 0.501961 0.752941 0.886275 
0.501961 0.752941 0.886275 0.501961 0.752941 0.886275 
0.501961 0.752941 0.886275 0.501961 0.752941 0.886275 
0.501961 0.752941 0.886275 0.501961 0.752941 0.886275 
0.501961 0.752941 0.886275 0.501961 0.752941 0.886275 
0.501961 0.752941 0.886275 0.501961 0.752941 0.886275 
0.501961 0.752941 0.886275 0.501961 0.752941 0.886275 
0.501961 0.752941 0.886275 0.501961 0.752941 0.886275 
0.501961 0.752941 0.886275 0.501961 0.752941 0.886275 
0.501961 0.752941 0.886275 0.501961 0.752941 0.886275 
0.501961 0.752941 0.886275 0.501961 0.752941 0.886275 
0.501961 0.752941 0.886275 0.501961 0.752941 0.886275 
0.501961 0.752941 0.886275 0.501961 0.752941 0.886275 
0.501961 0.752941 0.886275 0.501961 0.752941 0.886275 
0.501961 0.752941 0.886275 0.501961 0.752941 0.886275 
0.501961 0.752941 0.886275 0.501961 0.752941 0.886275 
0.501961 0.752941 0.886275 0.501961 0.752941 0.886275 
0.501961 0.752941 0.886275 0.501961 0.752941 0.886275 
0.501961 0.752941 0.886275 0.501961 0.752941 0.886275 
0.501961 0.752941 0.886275 0.501961 0.752941 0.886275 
0.501961 0.752941 0.886275 0.501961 0.752941 0.886275 
0.501961 0.752941 0.886275 0.501961 0.752941 0.886275 
0.501961 0.752941 0.886275 0.501961 0.752941 0.886275 
0.501961 0.752941 0.886275 0.501961 0.752941 0.886275 
0.501961 0.752941 0.886275 0.501961 0.752941 0.886275 
0.501961 0.752941 0.886275 0.501961 0.752941 0.886275 
0.501961 0.752941 0.886275 0.501961 0.752941 0.886275 
0.501961 0.752941 0.886275 0.501961 0.752941 0.886275 
0.501961 0.752941 0.886275 0.501961 0.752941 0.886275 
0.501961 0.752941 0.886275 0.501961 0.752941 0.886275 
0.501961 0.752941 0.886275 0.501961 0.752941 0.886275 
0.501961 0.752941 0.886275 0.501961 0.752941 0.886275 
0.501961 0.752941 0.886275 0.501961 0.752941 0.886275 
0.501961 0.752941 0.886275 0.501961 0.752941 0.886275 
0.501961 0.752941 0.886275 0.501961 0.752941 0.886275 
0.501961 0.752941 0.886275 0.501961 0.752941 0.886275 
0.501961 0.752941 0.886275 0.501961 0.752941 0.886275 
0.501961 0.752941 0.886275 0.501961 0.752941 0.886275 
0.501961 0.752941 0.886275 0.501961 0.752941 0.886275 
0.501961 0.752941 0.886275 0.501961 0.752941 0.886275 
0.501961 0.752941 0.886275 0.501961 0.752941 0.886275 
0.501961 0.752941 0.886275 0.501961 0.752941 0.886275 
0.501961 0.752941 0.886275 0.501961 0.752941 0.886275 
0.501961 0.752941 0.886275 0.501961 0.752941 0.886275 
0.501961 0.752941 0.886275 0.501961 0.752941 0.886275 
0.501961 0.752941 0.886275 0.501961 0.752941 0.886275 
0.501961 0.752941 0.886275 0.501961 0.752941 0.886275 
0.501961 0.752941 0.886275 0.501961 0.752941 0.886275 
0.501961 0.752941 0.886275 0.501961 0.752941 0.886275 
0.501961 0.752941 0.886275 0.501961 0.752941 0.886275 
0.501961 0.752941 0.886275 0.501961 0.752941 0.886275 
0.501961 0.752941 0.886275 0.501961 0.752941 0.886275 
0.501961 0.752941 0.886275 0.501961 0.752941 0.886275 
0.501961 0.752941 0.886275 0.501961 0.752941 0.886275 
0.501961 0.752941 0.886275 0.501961 0.752941 0.886275 
0.501961 0.752941 0.886275 0.501961 0.752941 0.886275 
0.501961 0.752941 0.886275 0.501961 0.752941 0.886275 
0.501961 0.752941 0.886275 0.501961 0.752941 0.886275 
0.501961 0.752941 0.886275 0.501961 0.752941 0.886275 
0.501961 0.752941 0.886275 0.501961 0.752941 0.886275 
0.501961 0.752941 0.886275 0.501961 0.752941 0.886275 
0.501961 0.752941 0.886275 0.501961 0.752941 0.886275 
0.501961 0.752941 0.886275 0.501961 0.752941 0.886275 
0.501961 0.752941 0.886275 0.501961 0.752941 0.886275 
0.501961 0.752941 0.886275 0.501961 0.752941 0.886275 
0.501961 0.752941 0.886275 0.501961 0.752941 0.886275 
0.501961 0.752941 0.886275 0.501961 0.752941 0.886275 
0.501961 0.752941 0.886275 0.501961 0.752941 0.886275 
0.501961 0.752941 0.886275 0.501961 0.752941 0.886275 
0.501961 0.752941 0.886275 0.501961 0.752941 0.886275 
0.501961 0.752941 0.886275 0.501961 0.752941 0.886275 
0.501961 0.752941 0.886275 0.501961 0.752941 0.886275 
0.501961 0.752941 0.886275 0.501961 0.752941 0.886275 
0.501961 0.752941 0.886275 0.501961 0.752941 0.886275 
0.501961 0.752941 0.886275 0.501961 0.752941 0.886275 
0.501961 0.752941 0.886275 0.501961 0.752941 0.886275 
0.501961 0.752941 0.886275 0.501961 0.752941 0.886275 
0.501961 0.752941 0.886275 0.501961 0.752941 0.886275 
0.501961 0.752941 0.886275 0.501961 0.752941 0.886275 
0.501961 0.752941 0.886275 0.501961 0.752941 0.886275 
0.501961 0.752941 0.886275 0.501961 0.752941 0.886275 
0.501961 0.752941 0.886275 0.501961 0.752941 0.886275 
0.501961 0.752941 0.886275 0.501961 0.752941 0.886275 
0.501961 0.752941 0.886275 0.501961 0.752941 0.886275 
0.501961 0.752941 0.886275 0.501961 0.752941 0.886275 
0.501961 0.752941 0.886275 0.501961 0.752941 0.886275 
0.501961 0.752941 0.886275 0.501961 0.752941 0.886275 
0.501961 0.752941 0.886275 0.501961 0.752941 0.886275 
0.501961 0.752941 0.886275 0.501961 0.752941 0.886275 
0.501961 0.752941 0.886275 0.501961 0.752941 0.886275 
0.501961 0.752941 0.886275 0.501961 0.752941 0.886275 
0.501961 0.752941 0.886275 0.501961 0.752941 0.886275 
0.501961 0.752941 0.886275 0.501961 0.752941 0.886275 
0.501961 0.752941 0.886275 0.501961 0.752941 0.886275 
0.501961 0.752941 0.886275 0.501961 0.752941 0.886275 
0.501961 0.752941 0.886275 0.501961 0.752941 0.886275 
0.501961 0.752941 0.886275 0.501961 0.752941 0.886275 
0.501961 0.752941 0.886275 0.501961 0.752941 0.886275 
0.501961 0.752941 0.886275 0.501961 0.752941 0.886275 
0.501961 0.752941 0.886275 0.501961 0.752941 0.886275 
0.501961 0.752941 0.886275 0.501961 0.752941 0.886275 
0.501961 0.752941 0.886275 0.501961 0.752941 0.886275 
0.501961 0.752941 0.886275 0.501961 0.752941 0.886275 
0.501961 0.752941 0.886275 0.501961 0.752941 0.886275 
0.501961 0.752941 0.886275 0.501961 0.752941 0.886275 
0.501961 0.752941 0.886275 0.501961 0.752941 0.886275 
0.501961 0.752941 0.886275 0.501961 0.752941 0.886275 
0.501961 0.752941 0.886275 0.501961 0.752941 0.886275 
0.501961 0.752941 0.886275 0.501961 0.752941 0.886275 
0.501961 0.752941 0.886275 0.501961 0.752941 0.886275 
0.501961 0.752941 0.886275 0.501961 0.752941 0.886275 
0.501961 0.752941 0.886275 0.501961 0.752941 0.886275 
0.501961 0.752941 0.886275 0.501961 0.752941 0.886275 
0.501961 0.752941 0.886275 0.501961 0.752941 0.886275 
0.501961 0.752941 0.886275 0.501961 0.752941 0.886275 
0.501961 0.752941 0.886275 0.501961 0.752941 0.886275 
0.501961 0.752941 0.886275 0.501961 0.752941 0.886275 
0.501961 0.752941 0.886275 0.501961 0.752941 0.886275 
0.501961 0.752941 0.886275 0.501961 0.752941 0.886275 
0.501961 0.752941 0.886275 0.501961 0.752941 0.886275 
0.501961 0.752941 0.886275 0.501961 0.752941 0.886275 
0.501961 0.752941 0.886275 0.501961 0.752941 0.886275 
0.501961 0.752941 0.886275 0.501961 0.752941 0.886275 
0.501961 0.752941 0.886275 0.501961 0.752941 0.886275 
0.501961 0.752941 0.886275 0.501961 0.752941 0.886275 
0.501961 0.752941 0.886275 0.501961 0.752941 0.886275 
0.501961 0.752941 0.886275 0.501961 0.752941 0.886275 
0.501961 0.752941 0.886275 0.501961 0.752941 0.886275 
0.501961 0.752941 0.886275 0.501961 0.752941 0.886275 
0.501961 0.752941 0.886275 0.501961 0.752941 0.886275 
0.501961 0.752941 0.886275 0.501961 0.752941 0.886275 
0.501961 0.752941 0.886275 0.501961 0.752941 0.886275 
0.501961 0.752941 0.886275 0.501961 0.752941 0.886275 
0.501961 0.752941 0.886275 0.501961 0.752941 0.886275 
0.501961 0.752941 0.886275 0.501961 0.752941 0.886275 
0.501961 0.752941 0.886275 0.501961 0.752941 0.886275 
0.501961 0.752941 0.886275 0.501961 0.752941 0.886275 
0.501961 0.752941 0.886275 0.501961 0.752941 0.886275 
0.501961 0.752941 0.886275 0.501961 0.752941 0.886275 
0.501961 0.752941 0.886275 0.501961 0.752941 0.886275 
0.501961 0.752941 0.886275 0.501961 0.752941 0.886275 
0.501961 0.752941 0.886275 0.501961 0.752941 0.886275 
0.501961 0.752941 0.886275 0.501961 0.752941 0.886275 
0.501961 0.752941 0.886275 0.501961 0.752941 0.886275 
0.501961 0.752941 0.886275 0.501961 0.752941 0.886275 
0.501961 0.752941 0.886275 0.501961 0.752941 0.886275 
0.501961 0.752941 0.886275 0.501961 0.752941 0.886275 
0.501961 0.752941 0.886275 0.501961 0.752941 0.886275 
0.501961 0.752941 0.886275 0.501961 0.752941 0.886275 
0.501961 0.752941 0.886275 0.501961 0.752941 0.886275 
0.501961 0.752941 0.886275 0.501961 0.752941 0.886275 
0.501961 0.752941 0.886275 0.501961 0.752941 0.886275 
0.501961 0.752941 0.886275 0.501961 0.752941 0.886275 
0.501961 0.752941 0.886275 0.501961 0.752941 0.886275 
0.501961 0.752941 0.886275 0.501961 0.752941 0.886275 
0.501961 0.752941 0.886275 0.501961 0.752941 0.886275 
0.501961 0.752941 0.886275 0.501961 0.752941 0.886275 
0.501961 0.752941 0.886275 0.501961 0.752941 0.886275 
0.501961 0.752941 0.886275 0.501961 0.752941 0.886275 
0.501961 0.752941 0.886275 0.501961 0.752941 0.886275 
0.501961 0.752941 0.886275 0.501961 0.752941 0.886275 
0.501961 0.752941 0.886275 0.501961 0.752941 0.886275 
0.501961 0.752941 0.886275 0.501961 0.752941 0.886275 
0.501961 0.752941 0.886275 0.501961 0.752941 0.886275 
0.501961 0.752941 0.886275 0.501961 0.752941 0.886275 
0.501961 0.752941 0.886275 0.501961 0.752941 0.886275 
0.501961 0.752941 0.886275 0.501961 0.752941 0.886275 
0.501961 0.752941 0.886275 0.501961 0.752941 0.886275 
0.501961 0.752941 0.886275 0.501961 0.752941 0.886275 
0.501961 0.752941 0.886275 0.501961 0.752941 0.886275 
0.501961 0.752941 0.886275 0.501961 0.752941 0.886275 
0.501961 0.752941 0.886275 0.501961 0.752941 0.886275 
0.501961 0.752941 0.886275 0.501961 0.752941 0.886275 
0.501961 0.752941 0.886275 0.501961 0.752941 0.886275 
0.501961 0.752941 0.886275 0.501961 0.752941 0.886275 
0.501961 0.752941 0.886275 0.501961 0.752941 0.886275 
0.501961 0.752941 0.886275 0.501961 0.752941 0.886275 
0.501961 0.752941 0.886275 0.501961 0.752941 0.886275 
0.501961 0.752941 0.886275 0.501961 0.752941 0.886275 
0.501961 0.752941 0.886275 0.501961 0.752941 0.886275 
0.501961 0.752941 0.886275 0.501961 0.752941 0.886275 
0.501961 0.752941 0.886275 0.501961 0.752941 0.886275 
0.501961 0.752941 0.886275 0.501961 0.752941 0.886275 
0.501961 0.752941 0.886275 0.501961 0.752941 0.886275 
0.501961 0.752941 0.886275 0.501961 0.752941 0.886275 
0.501961 0.752941 0.886275 0.501961 0.752941 0.886275 
0.501961 0.752941 0.886275 0.501961 0.752941 0.886275 
0.501961 0.752941 0.886275 0.501961 0.752941 0.886275 
0.501961 0.752941 0.886275 0.501961 0.752941 0.886275 
0.501961 0.752941 0.886275 0.501961 0.752941 0.886275 
0.501961 0.752941 0.886275 0.501961 0.752941 0.886275 
0.501961 0.752941 0.886275 0.501961 0.752941 0.886275 
0.501961 0.752941 0.886275 0.501961 0.752941 0.886275 
0.501961 0.752941 0.886275 0.501961 0.752941 0.886275 
0.501961 0.752941 0.886275 0.501961 0.752941 0.886275 
0.501961 0.752941 0.886275 0.501961 0.752941 0.886275 
0.501961 0.752941 0.886275 0.501961 0.752941 0.886275 
0.501961 0.752941 0.886275 0.501961 0.752941 0.886275 
0.501961 0.752941 0.886275 0.501961 0.752941 0.886275 
0.501961 0.752941 0.886275 0.501961 0.752941 0.886275 
0.501961 0.752941 0.886275 0.501961 0.752941 0.886275 
0.501961 0.752941 0.886275 0.501961 0.752941 0.886275 
0.501961 0.752941 0.886275 0.501961 0.752941 0.886275 
0.501961 0.752941 0.886275 0.501961 0.752941 0.886275 
0.501961 0.752941 0.886275 0.501961 0.752941 0.886275 
0.501961 0.752941 0.886275 0.501961 0.752941 0.886275 
0.501961 0.752941 0.886275 0.501961 0.752941 0.886275 
0.501961 0.752941 0.886275 0.501961 0.752941 0.886275 
0.501961 0.752941 0.886275 0.501961 0.752941 0.886275 
0.501961 0.752941 0.886275 0.501961 0.752941 0.886275 
0.501961 0.752941 0.886275 0.501961 0.752941 0.886275 
0.501961 0.752941 0.886275 0.501961 0.752941 0.886275 
0.501961 0.752941 0.886275 0.501961 0.752941 0.886275 
0.501961 0.752941 0.886275 0.501961 0.752941 0.886275 
0.501961 0.752941 0.886275 0.501961 0.752941 0.886275 
0.501961 0.752941 0.886275 0.501961 0.752941 0.886275 
0.501961 0.752941 0.886275 0.501961 0.752941 0.886275 
0.501961 0.752941 0.886275 0.501961 0.752941 0.886275 
0.501961 0.752941 0.886275 0.501961 0.752941 0.886275 
0.501961 0.752941 0.886275 0.501961 0.752941 0.886275 
0.501961 0.752941 0.886275 0.501961 0.752941 0.886275 
0.501961 0.752941 0.886275 0.501961 0.752941 0.886275 
0.501961 0.752941 0.886275 0.501961 0.752941 0.886275 
0.501961 0.752941 0.886275 0.501961 0.752941 0.886275 
0.501961 0.752941 0.886275 0.501961 0.752941 0.886275 
0.501961 0.752941 0.886275 0.501961 0.752941 0.886275 
0.501961 0.752941 0.886275 0.501961 0.752941 0.886275 
0.501961 0.752941 0.886275 0.501961 0.752941 0.886275 
0.501961 0.752941 0.886275 0.501961 0.752941 0.886275 
0.501961 0.752941 0.886275 
NORMALS Normals float
-0.0925192 0.0557235 -0.99415 -0.362835 -0.202075 -0.909679 0.247 0.28869 -0.925013 
0.339105 -0.221743 -0.914241 0.394131 -0.27153 -0.878027 -0.464713 -0.119567 -0.877351 