# vtk DataFile Version 4.2
vtk output
ASCII
DATASET POLYDATA
POINTS 1459 float
256.191 173.667 76.1615 255.73 174.897 75.6496 257.058 176.403 76.402 
255.836 178.983 75.6002 256.937 178.677 76.4185 256.217 179.541 75.9275 
252.393 167.741 76.2934 252.999 167.461 76.5273 254.334 168.04 76.9323 
255.782 180.795 76.0993 254.04 182.929 76.2326 252.761 162.93 77.7611 
253.554 163.313 78.1128 251.322 165.502 76.7423 250.577 167.962 76.1298 
242.844 173.493 76.4246 257.354 179.861 77.371 247.835 184.838 76.3392 
251.086 188.685 77.4436 252.494 188.602 77.8712 253.332 159.784 78.7076 
253.774 159.217 79.0523 252.386 159.784 78.4108 250.856 162.325 77.5978 
253.832 161.421 78.773 254.125 163.432 78.5948 257.86 176.636 77.9924 
257.83 179.311 78.5911 243.313 188.302 77.7182 254.111 188.228 78.736 
255.651 154.348 80.1099 256.384 153.962 80.6622 255.149 154.55 79.9066 
255.962 155.141 80.3468 256.383 154.631 80.6906 253.149 157.417 79.0551 
255.031 156.777 79.9017 254.271 159.575 79.3737 251.657 159.65 78.3526 
254.458 162.668 79.1897 233.355 170.83 78.9372 250.687 190.965 78.4502 
251.947 191.428 79.174 252.501 191.271 79.4332 252.069 192.413 79.9424 
256.034 151.825 80.7433 256.942 151.601 81.3796 257.003 152.295 81.3671 
252.597 153.644 79.961 254.627 160.141 79.7233 254.24 189.71 80.1178 
249.957 194.681 80.2607 250.89 194.47 80.6742 256.218 149.364 81.739 
256.895 149.781 81.8792 257.104 149.373 82.2762 255.493 149.883 81.3468 
256.413 150.574 81.3031 255.05 151.019 80.8521 255.636 151.069 80.8847 
256.702 151.03 81.3285 256.573 155.85 81.4432 255.373 159.826 80.8914 
255.299 162.999 80.4754 229.502 168.328 80.7352 255.58 188.075 81.05 
229.467 188.354 80.9239 245.879 196.574 80.924 251.048 194.961 81.4942 
249.529 196.451 81.7905 249.875 196.273 81.658 250.004 196.168 81.6214 
256.846 148.87 82.3419 254.914 148.935 81.8087 257.514 150.334 82.4211 
257.317 153.976 82.2322 256.401 157.229 82.1844 223.49 175.686 81.6253 
223.501 177.404 81.6385 223.654 181.278 81.9007 225.136 185.975 82.203 
256.453 186.856 82.1789 252.34 193.603 81.6967 249.993 196.314 82.1809 
246.846 198.271 82.4553 256.147 146.868 83.2641 256.126 146.721 83.3717 
255.926 146.744 83.4087 256.197 146.751 83.3842 255.414 146.732 83.4441 
256.279 146.886 83.47 251.001 148.058 83.0586 251.139 149.016 82.3841 
257.948 149.772 83.8057 257.165 155.48 83.2258 259.123 173.082 83.0337 
220.706 176.206 82.8656 221.335 177.985 82.6973 220.698 179.1 83.396 
221.429 179.93 83.0388 221.501 180.926 83.3028 256.9 186.312 83.0135 
223.815 186.885 84.6084 225.487 189.06 84.2086 226.467 189.978 83.7458 
226.88 190.625 83.9698 228.148 191.439 83.1701 227.712 191.785 84.0359 
231.899 193.122 81.97 230.623 194.682 83.6256 232.44 195.743 83.4286 
234.648 196.391 83.1272 234.817 196.875 83.5595 235.243 197.201 83.857 
246.263 198.415 82.4144 247.892 198.156 83.2049 242.206 199.319 83.6889 
244.985 199.236 83.2096 245.414 199.371 83.585 254.826 146.407 83.9971 
255.328 146.533 83.7506 255.104 146.439 83.8919 256.099 146.71 83.489 
255.351 146.473 83.9119 253.546 146.491 84.1633 255.805 146.672 83.8728 
251.563 146.971 83.8999 257.218 147.721 84.1616 257.425 147.988 84.3965 
244.259 150.068 83.7302 257.369 154.981 84.006 218.106 174.918 84.6314 
218.722 176.643 84.4674 218.496 177.534 85.2264 219.089 178.576 85.0955 
220.746 181.158 84.3946 223.974 187.218 84.7076 224.128 187.445 84.8554 
225.849 189.603 84.6347 227.199 191.355 84.6263 227.526 191.731 84.381 
227.512 191.795 84.8114 229.898 195.097 85.0173 230.77 195.963 84.9815 
240.403 199.019 84.1365 242.476 199.598 84.0834 246.569 199.19 84.3085 
242.867 199.718 84.1751 250.813 146.384 85.0722 251.923 146.254 85.0591 
254.646 146.375 84.2249 254.244 146.392 84.6916 257.164 147.666 84.9057 
257.913 149.322 85.0584 258.09 150.392 84.5423 257.329 163.648 85.0638 
216.684 173.267 86.0927 217.073 174.068 85.6666 217.041 174.632 85.9392 
218.622 178.043 85.5153 258.072 184.243 84.7656 225.335 188.817 85.4648 
231.846 196.877 85.3728 231.943 197.094 85.709 233.429 197.453 85.7789 
236.131 197.954 85.5434 231.806 197.078 85.8499 241.603 199.417 84.8097 
243.065 199.752 84.4724 244.357 199.729 84.5496 248.462 146.024 86.126 
250.936 146.268 85.4305 250.868 146.259 86.0091 253.769 146.425 85.4666 
256.806 147.616 85.5106 257.34 148.323 85.7683 257.98 151.209 85.3625 
257.929 150.558 85.7961 216.174 171.406 86.4913 216.539 174.059 86.9348 
225.125 188.171 86.4338 230.44 195.839 86.4055 237.12 198.184 86.143 
238.16 198.38 86.2158 243.1 199.401 85.8118 243.358 199.586 85.4291 
243.226 145.21 87.242 246.232 145.473 86.6329 248.502 145.797 86.8065 
253.24 146.875 86.7093 237.995 147.734 87.1527 257.529 153.353 86.864 
225.311 157.317 86.5053 257.116 159.794 86.7812 215.859 168.198 86.8255 
215.499 168.604 87.2021 215.524 169.151 87.3681 215.756 170.935 87.3001 
257.422 188.357 86.5426 233.261 197.438 87.0673 241.958 198.808 86.9252 
242.615 198.905 86.8309 245.56 198.338 87.2152 244.556 143.839 88.3742 
246.152 144.579 88.1025 245.744 144.183 88.5906 239.902 145.817 88.4492 
241.376 145.375 88.0474 247.994 145.58 87.6749 247.577 145.458 88.5198 
249.358 146.26 87.9183 254.967 147.507 86.7747 257.035 149.47 87.1353 
257.356 149.78 86.8855 257.625 150.036 86.5459 257.255 152.838 87.789 
257.118 157.161 87.4978 216.053 163.114 88.0307 260.662 167.778 88.0243 
214.99 167.395 88.291 216.084 172.638 88.3226 216.366 173.58 88.631 
218.272 178.002 88.1549 219.674 179.968 88.5233 256.361 190.554 88.0615 
229.46 193.907 88.3157 231.597 196.4 88.0839 244.371 143.261 89.0769 
244.419 143.104 89.2695 244.185 143.196 89.3268 244.712 143.284 89.0964 
244.558 143.129 89.2082 244.685 143.15 89.2462 243.541 143.542 89.4623 
244.863 143.289 89.3224 245.146 143.657 88.9835 243.085 143.834 89.5078 
246.074 144.31 88.8672 242.131 144.521 89.1052 246.281 144.48 89.0501 
240.447 145.29 89.152 250.23 147.768 89.3434 256.555 149.396 87.5074 
256.438 150.557 88.3124 256.971 152.633 88.3628 257.024 154.538 88.5948 
258.23 160.6 89.123 214.191 162.959 89.5937 214.19 163.569 89.4992 
260.051 185.058 88.895 258.415 188.824 88.6926 253.294 192.827 88.9925 
250.844 194.495 88.759 244.39 143.099 89.3792 244.575 143.118 89.3633 
243.786 143.353 89.5403 244.368 143.193 89.555 244.701 143.233 89.5597 
244.945 143.356 89.5584 244.839 143.377 89.7285 243.744 143.46 89.7269 
245.346 143.912 89.8239 234.041 145.67 90.0769 240.621 145.146 89.6626 
248.014 146.261 89.509 255.77 151.477 89.4222 256.544 152.656 89.0676 
215.111 159.431 90.017 213.601 162.493 90.3929 217.269 175.783 89.4928 
259.013 188.431 89.1541 259.349 188.778 89.8796 246.803 196.144 90.5544 
243.756 143.625 90.0051 244.028 143.679 90.1609 234.755 144.424 91.9516 
243.001 144.167 90.3167 245.091 143.987 90.1939 241.572 144.881 90.483 
237.687 145.397 91.3046 255.916 153.543 90.6256 256.878 155.403 90.1845 
213.642 159.051 91.2902 213.165 160.374 91.5497 213.076 160.864 91.7184 
213.772 163.769 90.4114 214.713 166.818 91.217 260.879 186.53 90.4462 
260.18 187.681 90.1258 232.252 195.389 91.7234 231.338 143.306 92.4004 
243.853 144.354 90.7843 235.497 144.616 92.2871 250.657 152.55 92.6994 
253.467 152.525 91.7272 255.724 154.12 91.5823 257.604 157.23 91.4433 
213.407 157.168 92.3122 212.849 159.313 92.1996 212.652 159.186 92.4758 
212.651 159.354 92.4476 212.666 159.588 92.535 212.933 160.86 92.1378 
213.47 162.971 91.3073 214.966 167.238 91.5945 232.967 195.62 92.4129 
231.206 142.292 93.5414 232.964 143.324 92.6009 232.687 143.117 93.0338 
244.888 145.977 91.9727 223.273 147.027 92.4 246.417 152.799 94.4532 
213.925 154.577 93.4421 252.454 153.86 93.5727 256.437 155.458 92.333 
213.115 155.879 93.3799 212.371 157.964 93.4577 212.44 158.46 93.418 
213.284 162.267 92.8624 259.654 190.74 92.5193 262.429 189.071 93.6537 
233.352 195.423 93.5222 229.322 141.793 94.4371 230.953 142.155 94.0518 
242.744 146.135 92.7765 238.296 145.825 94.4451 239.006 145.986 94.158 
244.922 148.533 93.6445 217.898 149.901 93.5298 215.523 151.652 94.5314 
214.808 152.883 94.0641 254.068 154.376 93.5977 254.765 154.708 93.6682 
212.624 155.702 94.283 212.466 155.836 94.37 212.462 155.961 94.3004 
212.487 156.352 94.1609 212.321 157.71 93.7666 260.87 161.637 93.8141 
216.171 168.209 93.7911 228.28 141.348 95.139 226.753 141.716 94.9233 
229.905 141.716 94.8311 221.933 143.706 95.162 219.965 145.391 95.3457 
218.69 146.853 95.3962 214.576 152.525 95.1532 244.655 152.722 96.0737 
245.827 153.995 95.9822 212.493 155.859 94.8468 212.425 157.451 95.3019 
264.384 187.957 95.1488 251.227 194.191 94.3732 232.933 194.356 95.2405 
237.059 195.76 95.0349 223.709 141.458 96.2531 228.073 141.214 95.7725 
221.211 143.567 95.9156 231.742 142.474 95.8813 220.304 144.13 96.401 
218.877 145.758 96.7511 240.838 147.668 95.8375 241.699 148.199 95.7662 
214.3 152.613 96.0527 213.58 153.614 95.9989 212.767 155.09 95.8003 
212.586 155.924 95.896 256.284 156.142 95.4272 258.561 157.979 95.4291 
260.465 160.285 95.7552 231.9 192.553 96.4347 257.101 192.849 95.5753 
233.731 194.59 95.8978 235.799 195.32 95.7164 224.678 140.662 96.8652 
223.443 140.925 97.4527 225.05 140.784 96.5069 220.91 143.011 97.518 
212.639 155.468 95.7611 212.732 156.042 96.6156 223.104 141.15 98.7321 
226.275 140.606 97.5358 219.493 144.733 98.0607 260.252 160.044 97.5185 
267.442 170.411 98.6297 234.22 193.899 97.7606 223.978 140.658 98.4693 
224.887 140.456 98.0428 227.862 141.282 98.2293 221.709 142.494 99.5244 
243.613 154.036 99.353 268.479 172.875 99.2338 220.859 177.36 99.2985 
263.519 190.947 99.1771 225.304 140.728 98.9357 223.795 141.371 99.7253 
227.344 141.371 98.9115 213.576 154.611 99.8339 257.279 158.099 99.6475 
268.965 176.31 99.5433 267.545 187.842 99.5503 225.008 140.956 99.3627 
225.306 141.611 100.217 222.438 142.532 100.432 228.045 143.093 100.775 
221.083 144.124 100.76 216.03 151.218 100.167 212.981 158.607 100.757 
264.638 165.031 101.334 269.892 177.077 101.212 269.662 181.051 100.58 
268.9 185.426 100.279 267.341 188.839 100.245 265.861 189.991 100.023 
[...]
POINT_DATA 1459
COLOR_SCALARS scalars 3
0.596078 0.839216 0.976471 0.596078 0.839216 0.976471 0.596078 0.839216 0.976471 
0.596078 0.839216 0.976471 0.596078 0.839216 0.976471 
0.596078 0.839216 0.976471 0.596078 0.839216 0.976471 
0.596078 0.839216 0.976471 0.596078 0.839216 0.976471 
0.596078 0.839216 0.976471 0.596078 0.839216 0.976471 
0.596078 0.839216 0.976471 0.596078 0.839216 0.976471 
0.596078 0.839216 0.976471 0.596078 0.839216 0.976471 
0.596078 0.839216 0.976471 0.596078 0.839216 0.976471 
0.596078 0.839216 0.976471 0.596078 0.839216 0.976471 
0.596078 0.839216 0.976471 0.596078 0.839216 0.976471 
0.596078 0.839216 0.976471 0.596078 0.839216 0.976471 
0.596078 0.839216 0.976471 0.596078 0.839216 0.976471 
0.596078 0.839216 0.976471 0.596078 0.839216 0.976471 
0.596078 0.839216 0.976471 0.596078 0.839216 0.976471 
0.596078 0.839216 0.976471 0.596078 0.839216 0.976471 
0.596078 0.839216 0.976471 0.596078 0.839216 0.976471 
0.596078 0.839216 0.976471 0.596078 0.839216 0.976471 
0.596078 0.839216 0.976471 0.596078 0.839216 0.976471 
0.596078 0.839216 0.976471 0.596078 0.839216 0.976471 
0.596078 0.839216 0.976471 0.596078 0.839216 0.976471 
0.596078 0.839216 0.976471 0.596078 0.839216 0.976471 
0.596078 0.839216 0.976471 0.596078 0.839216 0.976471 
0.596078 0.839216 0.976471 0.596078 0.839216 0.976471 
0.596078 0.839216 0.976471 0.596078 0.839216 0.976471 
0.596078 0.839216 0.976471 0.596078 0.839216 0.976471 
0.596078 0.839216 0.976471 0.596078 0.839216 0.976471 
0.596078 0.839216 0.976471 0.596078 0.839216 0.976471 
0.596078 0.839216 0.976471 0.596078 0.839216 0.976471 
0.596078 0.839216 0.976471 0.596078 0.839216 0.976471 
0.596078 0.839216 0.976471 0.596078 0.839216 0.976471 
0.596078 0.839216 0.976471 0.596078 0.839216 0.976471 
0.596078 0.839216 0.976471 0.596078 0.839216 0.976471 
0.596078 0.839216 0.976471 0.596078 0.839216 0.976471 
0.596078 0.839216 0.976471 0.596078 0.839216 0.976471 
0.596078 0.839216 0.976471 0.596078 0.839216 0.976471 
0.596078 0.839216 0.976471 0.596078 0.839216 0.976471 
0.596078 0.839216 0.976471 0.596078 0.839216 0.976471 
0.596078 0.839216 0.976471 0.596078 0.839216 0.976471 
0.596078 0.839216 0.976471 0.596078 0.839216 0.976471 
0.596078 0.839216 0.976471 0.596078 0.839216 0.976471 
0.596078 0.839216 0.976471 0.596078 0.839216 0.976471 
0.596078 0.839216 0.976471 0.596078 0.839216 0.976471 
0.596078 0.839216 0.976471 0.596078 0.839216 0.976471 
0.596078 0.839216 0.976471 0.596078 0.839216 0.976471 
0.596078 0.839216 0.976471 0.596078 0.839216 0.976471 
0.596078 0.839216 0.976471 0.596078 0.839216 0.976471 
0.596078 0.839216 0.976471 0.596078 0.839216 0.976471 
0.596078 0.839216 0.976471 0.596078 0.839216 0.976471 
0.596078 0.839216 0.976471 0.596078 0.839216 0.976471 
0.596078 0.839216 0.976471 0.596078 0.839216 0.976471 
0.596078 0.839216 0.976471 0.596078 0.839216 0.976471 
0.596078 0.839216 0.976471 0.596078 0.839216 0.976471 
0.596078 0.839216 0.976471 0.596078 0.839216 0.976471 
0.596078 0.839216 0.976471 0.596078 0.839216 0.976471 
0.596078 0.839216 0.976471 0.596078 0.839216 0.976471 
0.596078 0.839216 0.976471 0.596078 0.839216 0.976471 
0.596078 0.839216 0.976471 0.596078 0.839216 0.976471 
0.596078 0.839216 0.976471 0.596078 0.839216 0.976471 
0.596078 0.839216 0.976471 0.596078 0.839216 0.976471 
0.596078 0.839216 0.976471 0.596078 0.839216 0.976471 
0.596078 0.839216 0.976471 0.596078 0.839216 0.976471 
0.596078 0.839216 0.976471 0.596078 0.839216 0.976471 
0.596078 0.839216 0.976471 0.596078 0.839216 0.976471 
0.596078 0.839216 0.976471 0.596078 0.839216 0.976471 
0.596078 0.839216 0.976471 0.596078 0.839216 0.976471 
0.596078 0.839216 0.976471 0.596078 0.839216 0.976471 
0.596078 0.839216 0.976471 0.596078 0.839216 0.976471 
0.596078 0.839216 0.976471 0.596078 0.839216 0.976471 
0.596078 0.839216 0.976471 0.596078 0.839216 0.976471 
0.596078 0.839216 0.976471 0.596078 0.839216 0.976471 
0.596078 0.839216 0.976471 0.596078 0.839216 0.976471 
0.596078 0.839216 0.976471 0.596078 0.839216 0.976471 
0.596078 0.839216 0.976471 0.596078 0.839216 0.976471 
0.596078 0.839216 0.976471 0.596078 0.839216 0.976471 
0.596078 0.839216 0.976471 0.596078 0.839216 0.976471 
0.596078 0.839216 0.976471 0.596078 0.839216 0.976471 
0.596078 0.839216 0.976471 0.596078 0.839216 0.976471 
0.596078 0.839216 0.976471 0.596078 0.839216 0.976471 
0.596078 0.839216 0.976471 0.596078 0.839216 0.976471 
0.596078 0.839216 0.976471 0.596078 0.839216 0.976471 
0.596078 0.839216 0.976471 0.596078 0.839216 0.976471 
0.596078 0.839216 0.976471 0.596078 0.839216 0.976471 
0.596078 0.839216 0.976471 0.596078 0.839216 0.976471 
0.596078 0.839216 0.976471 0.596078 0.839216 0.976471 
0.596078 0.839216 0.976471 0.596078 0.839216 0.976471 
0.596078 0.839216 0.976471 0.596078 0.839216 0.976471 
0.596078 0.839216 0.976471 0.596078 0.839216 0.976471 
0.596078 0.839216 0.976471 0.596078 0.839216 0.976471 
0.596078 0.839216 0.976471 0.596078 0.839216 0.976471 
0.596078 0.839216 0.976471 0.596078 0.839216 0.976471 
0.596078 0.839216 0.976471 0.596078 0.839216 0.976471 
0.596078 0.839216 0.976471 0.596078 0.839216 0.976471 
0.596078 0.839216 0.976471 0.596078 0.839216 0.976471 
0.596078 0.839216 0.976471 0.596078 0.839216 0.976471 
0.596078 0.839216 0.976471 0.596078 0.839216 0.976471 
0.596078 0.839216 0.976471 0.596078 0.839216 0.976471 
0.596078 0.839216 0.976471 0.596078 0.839216 0.976471 
0.596078 0.839216 0.976471 0.596078 0.839216 0.976471 
0.596078 0.839216 0.976471 0.596078 0.839216 0.976471 
0.596078 0.839216 0.976471 0.596078 0.839216 0.976471 
0.596078 0.839216 0.976471 0.596078 0.839216 0.976471 
0.596078 0.839216 0.976471 0.596078 0.839216 0.976471 
0.596078 0.839216 0.976471 0.596078 0.839216 0.976471 
0.596078 0.839216 0.976471 0.596078 0.839216 0.976471 
0.596078 0.839216 0.976471 0.596078 0.839216 0.976471 
0.596078 0.839216 0.976471 0.596078 0.839216 0.976471 
0.596078 0.839216 0.976471 0.596078 0.839216 0.976471 
0.596078 0.839216 0.976471 0.596078 0.839216 0.976471 
0.596078 0.839216 0.976471 0.596078 0.839216 0.976471 
0.596078 0.839216 0.976471 0.596078 0.839216 0.976471 
0.596078 0.839216 0.976471 0.596078 0.839216 0.976471 
0.596078 0.839216 0.976471 0.596078 0.839216 0.976471 
0.596078 0.839216 0.976471 0.596078 0.839216 0.976471 
0.596078 0.839216 0.976471 0.596078 0.839216 0.976471 
0.596078 0.839216 0.976471 0.596078 0.839216 0.976471 
0.596078 0.839216 0.976471 0.596078 0.839216 0.976471 
0.596078 0.839216 0.976471 0.596078 0.839216 0.976471 
0.596078 0.839216 0.976471 0.596078 0.839216 0.976471 
0.596078 0.839216 0.976471 0.596078 0.839216 0.976471 
0.596078 0.839216 0.976471 0.596078 0.839216 0.976471 
0.596078 0.839216 0.976471 0.596078 0.839216 0.976471 
0.596078 0.839216 0.976471 0.596078 0.839216 0.976471 
0.596078 0.839216 0.976471 0.596078 0.839216 0.976471 
0.596078 0.839216 0.976471 0.596078 0.839216 0.976471 
0.596078 0.839216 0.976471 0.596078 0.839216 0.976471 
0.596078 0.839216 0.976471 0.596078 0.839216 0.976471 
0.596078 0.839216 0.976471 0.596078 0.839216 0.976471 
0.596078 0.839216 0.976471 0.596078 0.839216 0.976471 
0.596078 0.839216 0.976471 0.596078 0.839216 0.976471 
0.596078 0.839216 0.976471 0.596078 0.839216 0.976471 
0.596078 0.839216 0.976471 0.596078 0.839216 0.976471 
0.596078 0.839216 0.976471 0.596078 0.839216 0.976471 
0.596078 0.839216 0.976471 0.596078 0.839216 0.976471 
0.596078 0.839216 0.976471 0.596078 0.839216 0.976471 
0.596078 0.839216 0.976471 0.596078 0.839216 0.976471 
0.596078 0.839216 0.976471 0.596078 0.839216 0.976471 
0.596078 0.839216 0.976471 0.596078 0.839216 0.976471 
0.596078 0.839216 0.976471 0.596078 0.839216 0.976471 
0.596078 0.839216 0.976471 0.596078 0.839216 0.976471 
0.596078 0.839216 0.976471 0.596078 0.839216 0.976471 
0.596078 0.839216 0.976471 0.596078 0.839216 0.976471 
0.596078 0.839216 0.976471 0.596078 0.839216 0.976471 
0.596078 0.839216 0.976471 0.596078 0.839216 0.976471 
0.596078 0.839216 0.976471 0.596078 0.839216 0.976471 
0.596078 0.839216 0.976471 0.596078 0.839216 0.976471 
0.596078 0.839216 0.976471 0.596078 0.839216 0.976471 
0.596078 0.839216 0.976471 0.596078 0.839216 0.976471 
0.596078 0.839216 0.976471 0.596078 0.839216 0.976471 
0.596078 0.839216 0.976471 0.596078 0.839216 0.976471 
0.596078 0.839216 0.976471 0.596078 0.839216 0.976471 
0.596078 0.839216 0.976471 0.596078 0.839216 0.976471 
0.596078 0.839216 0.976471 0.596078 0.839216 0.976471 
0.596078 0.839216 0.976471 0.596078 0.839216 0.976471 
0.596078 0.839216 0.976471 0.596078 0.839216 0.976471 
0.596078 0.839216 0.976471 0.596078 0.839216 0.976471 
0.596078 0.839216 0.976471 0.596078 0.839216 0.976471 
0.596078 0.839216 0.976471 0.596078 0.839216 0.976471 
0.596078 0.839216 0.976471 0.596078 0.839216 0.976471 
0.596078 0.839216 0.976471 0.596078 0.839216 0.976471 
0.596078 0.839216 0.976471 0.596078 0.839216 0.976471 
0.596078 0.839216 0.976471 0.596078 0.839216 0.976471 
0.596078 0.839216 0.976471 0.596078 0.839216 0.976471 
0.596078 0.839216 0.976471 0.596078 0.839216 0.976471 
0.596078 0.839216 0.976471 0.596078 0.839216 0.976471 
0.596078 0.839216 0.976471 0.596078 0.839216 0.976471 
0.596078 0.839216 0.976471 0.596078 0.839216 0.976471 
0.596078 0.839216 0.976471 0.596078 0.839216 0.976471 
0.596078 0.839216 0.976471 0.596078 0.839216 0.976471 
0.596078 0.839216 0.976471 0.596078 0.839216 0.976471 
0.596078 0.839216 0.976471 0.596078 0.839216 0.976471 
0.596078 0.839216 0.976471 0.596078 0.839216 0.976471 
0.596078 0.839216 0.976471 0.596078 0.839216 0.976471 
0.596078 0.839216 0.976471 0.596078 0.839216 0.976471 
0.596078 0.839216 0.976471 0.596078 0.839216 0.976471 
0.596078 0.839216 0.976471 0.596078 0.839216 0.976471 
0.596078 0.839216 0.976471 0.596078 0.839216 0.976471 
0.596078 0.839216 0.976471 0.596078 0.839216 0.976471 
0.596078 0.839216 0.976471 0.596078 0.839216 0.976471 
0.596078 0.839216 0.976471 0.596078 0.839216 0.976471 
0.596078 0.839216 0.976471 0.596078 0.839216 0.976471 
0.596078 0.839216 0.976471 0.596078 0.839216 0.976471 
0.596078 0.839216 0.976471 0.596078 0.839216 0.976471 
0.596078 0.839216 0.976471 0.596078 0.839216 0.976471 
0.596078 0.839216 0.976471 0.596078 0.839216 0.976471 
0.596078 0.839216 0.976471 0.596078 0.839216 0.976471 
0.596078 0.839216 0.976471 0.596078 0.839216 0.976471 
0.596078 0.839216 0.976471 0.596078 0.839216 0.976471 
0.596078 0.839216 0.976471 0.596078 0.839216 0.976471 
0.596078 0.839216 0.976471 0.596078 0.839216 0.976471 
0.596078 0.839216 0.976471 0.596078 0.839216 0.976471 
0.596078 0.839216 0.976471 0.596078 0.839216 0.976471 
0.596078 0.839216 0.976471 0.596078 0.839216 0.976471 
0.596078 0.839216 0.976471 0.596078 0.839216 0.976471 
0.596078 0.839216 0.976471 0.596078 0.839216 0.976471 
0.596078 0.839216 0.976471 0.596078 0.839216 0.976471 
0.596078 0.839216 0.976471 0.596078 0.839216 0.976471 
0.596078 0.839216 0.976471 0.596078 0.839216 0.976471 
0.596078 0.839216 0.976471 0.596078 0.839216 0.976471 
0.596078 0.839216 0.976471 0.596078 0.839216 0.976471 
0.596078 0.839216 0.976471 0.596078 0.839216 0.976471 
0.596078 0.839216 0.976471 0.596078 0.839216 0.976471 
0.596078 0.839216 0.976471 0.596078 0.839216 0.976471 
0.596078 0.839216 0.976471 0.596078 0.839216 0.976471 
0.596078 0.839216 0.976471 0.596078 0.839216 0.976471 
0.596078 0.839216 0.976471 0.596078 0.839216 0.976471 
0.596078 0.839216 0.976471 0.596078 0.839216 0.976471 
0.596078 0.839216 0.976471 0.596078 0.839216 0.976471 
0.596078 0.839216 0.976471 0.596078 0.839216 0.976471 
0.596078 0.839216 0.976471 0.596078 0.839216 0.976471 
0.596078 0.839216 0.976471 0.596078 0.839216 0.976471 
0.596078 0.839216 0.976471 0.596078 0.839216 0.976471 
0.596078 0.839216 0.976471 0.596078 0.839216 0.976471 
0.596078 0.839216 0.976471 0.596078 0.839216 0.976471 
0.596078 0.839216 0.976471 0.596078 0.839216 0.976471 
0.596078 0.839216 0.976471 0.596078 0.839216 0.976471 
0.596078 0.839216 0.976471 0.596078 0.839216 0.976471 
0.596078 0.839216 0.976471 0.596078 0.839216 0.976471 
0.596078 0.839216 0.976471 0.596078 0.839216 0.976471 
0.596078 0.839216 0.976471 0.596078 0.839216 0.976471 
0.596078 0.839216 0.976471 0.596078 0.839216 0.976471 
0.596078 0.839216 0.976471 0.596078 0.839216 0.976471 
0.596078 0.839216 0.976471 0.596078 0.839216 0.976471 
0.596078 0.839216 0.976471 0.596078 0.839216 0.976471 
0.596078 0.839216 0.976471 0.596078 0.839216 0.976471 
0.596078 0.839216 0.976471 0.596078 0.839216 0.976471 
0.596078 0.839216 0.976471 0.596078 0.839216 0.976471 
0.596078 0.839216 0.976471 0.596078 0.839216 0.976471 
0.596078 0.839216 0.976471 0.596078 0.839216 0.976471 
0.596078 0.839216 0.976471 0.596078 0.839216 0.976471 
0.596078 0.839216 0.976471 0.596078 0.839216 0.976471 
0.596078 0.839216 0.976471 0.596078 0.839216 0.976471 
0.596078 0.839216 0.976471 0.596078 0.839216 0.976471 
0.596078 0.839216 0.976471 0.596078 0.839216 0.976471 
0.596078 0.839216 0.976471 0.596078 0.839216 0.976471 
0.596078 0.839216 0.976471 0.596078 0.839216 0.976471 
0.596078 0.839216 0.976471 0.596078 0.839216 0.976471 
0.596078 0.839216 0.976471 0.596078 0.839216 0.976471 
0.596078 0.839216 0.976471 0.596078 0.839216 0.976471 
0.596078 0.839216 0.976471 0.596078 0.839216 0.976471 
0.596078 0.839216 0.976471 0.596078 0.839216 0.976471 
0.596078 0.839216 0.976471 0.596078 0.839216 0.976471 
0.596078 0.839216 0.976471 0.596078 0.839216 0.976471 
0.596078 0.839216 0.976471 0.596078 0.839216 0.976471 
0.596078 0.839216 0.976471 0.596078 0.839216 0.976471 
0.596078 0.839216 0.976471 0.596078 0.839216 0.976471 
0.596078 0.839216 0.976471 0.596078 0.839216 0.976471 
0.596078 0.839216 0.976471 0.596078 0.839216 0.976471 
0.596078 0.839216 0.976471 0.596078 0.839216 0.976471 
0.596078 0.839216 0.976471 0.596078 0.839216 0.976471 
0.596078 0.839216 0.976471 0.596078 0.839216 0.976471 
0.596078 0.839216 0.976471 0.596078 0.839216 0.976471 
0.596078 0.839216 0.976471 0.596078 0.839216 0.976471 
0.596078 0.839216 0.976471 0.596078 0.839216 0.976471 
0.596078 0.839216 0.976471 0.596078 0.839216 0.976471 
0.596078 0.839216 0.976471 0.596078 0.839216 0.976471 
0.596078 0.839216 0.976471 0.596078 0.839216 0.976471 
0.596078 0.839216 0.976471 0.596078 0.839216 0.976471 
0.596078 0.839216 0.976471 0.596078 0.839216 0.976471 
0.596078 0.839216 0.976471 0.596078 0.839216 0.976471 
0.596078 0.839216 0.976471 0.596078 0.839216 0.976471 
0.596078 0.839216 0.976471 0.596078 0.839216 0.976471 
0.596078 0.839216 0.976471 0.596078 0.839216 0.976471 
0.596078 0.839216 0.976471 0.596078 0.839216 0.976471 
0.596078 0.839216 0.976471 0.596078 0.839216 0.976471 
0.596078 0.839216 0.976471 0.596078 0.839216 0.976471 
0.596078 0.839216 0.976471 0.596078 0.839216 0.976471 
0.596078 0.839216 0.976471 0.596078 0.839216 0.976471 
0.596078 0.839216 0.976471 0.596078 0.839216 0.976471 
0.596078 0.839216 0.976471 0.596078 0.839216 0.976471 
0.596078 0.839216 0.976471 0.596078 0.839216 0.976471 
0.596078 0.839216 0.976471 0.596078 0.839216 0.976471 
0.596078 0.839216 0.976471 0.596078 0.839216 0.976471 
0.596078 0.839216 0.976471 0.596078 0.839216 0.976471 
0.596078 0.839216 0.976471 0.596078 0.839216 0.976471 
0.596078 0.839216 0.976471 0.596078 0.839216 0.976471 
0.596078 0.839216 0.976471 0.596078 0.839216 0.976471 
0.596078 0.839216 0.976471 0.596078 0.839216 0.976471 
0.596078 0.839216 0.976471 0.596078 0.839216 0.976471 
0.596078 0.839216 0.976471 0.596078 0.839216 0.976471 
0.596078 0.839216 0.976471 0.596078 0.839216 0.976471 
0.596078 0.839216 0.976471 0.596078 0.839216 0.976471 
0.596078 0.839216 0.976471 0.596078 0.839216 0.976471 
0.596078 0.839216 0.976471 0.596078 0.839216 0.976471 
0.596078 0.839216 0.976471 0.596078 0.839216 0.976471 
0.596078 0.839216 0.976471 0.596078 0.839216 0.976471 
0.596078 0.839216 0.976471 0.596078 0.839216 0.976471 
0.596078 0.839216 0.976471 0.596078 0.839216 0.976471 
0.596078 0.839216 0.976471 0.596078 0.839216 0.976471 
0.596078 0.839216 0.976471 0.596078 0.839216 0.976471 
0.596078 0.839216 0.976471 0.596078 0.839216 0.976471 
0.596078 0.839216 0.976471 0.596078 0.839216 0.976471 
0.596078 0.839216 0.976471 0.596078 0.839216 0.976471 
0.596078 0.839216 0.976471 0.596078 0.839216 0.976471 
0.596078 0.839216 0.976471 0.596078 0.839216 0.976471 
0.596078 0.839216 0.976471 0.596078 0.839216 0.976471 
0.596078 0.839216 0.976471 0.596078 0.839216 0.976471 
0.596078 0.839216 0.976471 0.596078 0.839216 0.976471 
0.596078 0.839216 0.976471 0.596078 0.839216 0.976471 
0.596078 0.839216 0.976471 0.596078 0.839216 0.976471 
0.596078 0.839216 0.976471 0.596078 0.839216 0.976471 
0.596078 0.839216 0.976471 0.596078 0.839216 0.976471 
0.596078 0.839216 0.976471 0.596078 0.839216 0.976471 
0.596078 0.839216 0.976471 0.596078 0.839216 0.976471 
0.596078 0.839216 0.976471 0.596078 0.839216 0.976471 
0.596078 0.839216 0.976471 0.596078 0.839216 0.976471 
0.596078 0.839216 0.976471 0.596078 0.839216 0.976471 
0.596078 0.839216 0.976471 0.596078 0.839216 0.976471 
0.596078 0.839216 0.976471 0.596078 0.839216 0.976471 
0.596078 0.839216 0.976471 0.596078 0.839216 0.976471 
0.596078 0.839216 0.976471 0.596078 0.839216 0.976471 
0.596078 0.839216 0.976471 0.596078 0.839216 0.976471 
0.596078 0.839216 0.976471 0.596078 0.839216 0.976471 
0.596078 0.839216 0.976471 0.596078 0.839216 0.976471 
0.596078 0.839216 0.976471 0.596078 0.839216 0.976471 
0.596078 0.839216 0.976471 0.596078 0.839216 0.976471 
0.596078 0.839216 0.976471 0.596078 0.839216 0.976471 
0.596078 0.839216 0.976471 0.596078 0.839216 0.976471 
0.596078 0.839216 0.976471 0.596078 0.839216 0.976471 
0.596078 0.839216 0.976471 0.596078 0.839216 0.976471 
0.596078 0.839216 0.976471 0.596078 0.839216 0.976471 
0.596078 0.839216 0.976471 0.596078 0.839216 0.976471 
0.596078 0.839216 0.976471 0.596078 0.839216 0.976471 
0.596078 0.839216 0.976471 0.596078 0.839216 0.976471 
0.596078 0.839216 0.976471 0.596078 0.839216 0.976471 
0.596078 0.839216 0.976471 0.596078 0.839216 0.976471 
0.596078 0.839216 0.976471 0.596078 0.839216 0.976471 
0.596078 0.839216 0.976471 0.596078 0.839216 0.976471 
0.596078 0.839216 0.976471 0.596078 0.839216 0.976471 
0.596078 0.839216 0.976471 0.596078 0.839216 0.976471 
0.596078 0.839216 0.976471 0.596078 0.839216 0.976471 
0.596078 0.839216 0.976471 0.596078 0.839216 0.976471 
0.596078 0.839216 0.976471 0.596078 0.839216 0.976471 
0.596078 0.839216 0.976471 0.596078 0.839216 0.976471 
0.596078 0.839216 0.976471 0.596078 0.839216 0.976471 
0.596078 0.839216 0.976471 0.596078 0.839216 0.976471 
0.596078 0.839216 0.976471 0.596078 0.839216 0.976471 
0.596078 0.839216 0.976471 0.596078 0.839216 0.976471 
0.596078 0.839216 0.976471 0.596078 0.839216 0.976471 
0.596078 0.839216 0.976471 0.596078 0.839216 0.976471 
0.596078 0.839216 0.976471 0.596078 0.839216 0.976471 
0.596078 0.839216 0.976471 0.596078 0.839216 0.976471 
0.596078 0.839216 0.976471 0.596078 0.839216 0.976471 
0.596078 0.839216 0.976471 0.596078 0.839216 0.976471 
0.596078 0.839216 0.976471 0.596078 0.839216 0.976471 
0.596078 0.839216 0.976471 0.596078 0.839216 0.976471 
0.596078 0.839216 0.976471 0.596078 0.839216 0.976471 
0.596078 0.839216 0.976471 0.596078 0.839216 0.976471 
0.596078 0.839216 0.976471 0.596078 0.839216 0.976471 
0.596078 0.839216 0.976471 0.596078 0.839216 0.976471 
0.596078 0.839216 0.976471 0.596078 0.839216 0.976471 
0.596078 0.839216 0.976471 0.596078 0.839216 0.976471 
0.596078 0.839216 0.976471 0.596078 0.839216 0.976471 
0.596078 0.839216 0.976471 0.596078 0.839216 0.976471 
0.596078 0.839216 0.976471 0.596078 0.839216 0.976471 
0.596078 0.839216 0.976471 0.596078 0.839216 0.976471 
0.596078 0.839216 0.976471 0.596078 0.839216 0.976471 
0.596078 0.839216 0.976471 0.596078 0.839216 0.976471 
0.596078 0.839216 0.976471 0.596078 0.839216 0.976471 
0.596078 0.839216 0.976471 0.596078 0.839216 0.976471 
0.596078 0.839216 0.976471 0.596078 0.839216 0.976471 
0.596078 0.839216 0.976471 0.596078 0.839216 0.976471 
0.596078 0.839216 0.976471 0.596078 0.839216 0.976471 