# vtk DataFile Version 4.2
vtk output
ASCII
DATASET POLYDATA
POINTS 1697 float
194.79 152.759 105.602 194.554 152.589 105.582 194.851 153.102 105.617 
195.209 153.253 105.904 195.353 152.858 106.05 193.977 154.558 105.363 
193.909 154.404 105.36 194.266 154.471 105.512 193.143 155.407 105.261 
192.932 155.992 105.267 192.037 157.532 105.465 194.487 152.173 105.736 
194.848 151.501 106.314 195.524 152.189 106.599 195.465 153.092 106.147 
193.296 154.715 105.338 193.778 155.312 105.471 190.966 155.907 105.451 
189.149 158.834 105.648 187.537 162.844 106.067 186.928 163.082 106.171 
187.894 164.027 106.319 193.564 150.843 106.398 193.161 151.188 106.176 
194.108 150.58 106.733 191.98 152.538 105.876 194.816 155.087 106.003 
187.222 158.469 106.25 188.812 163.873 106.559 186.235 166.178 106.882 
193.533 149.373 107.549 194.11 149.922 107.326 195.121 150.218 108.051 
189.628 152.31 106.872 196.347 152.54 107.952 196.305 153.656 107.482 
187.653 155.176 106.862 195.701 154.859 106.826 194.641 157.187 106.706 
190.382 162.07 106.565 185.331 168.167 107.539 192.469 147.257 108.909 
191.412 147.998 108.395 191.07 148.488 108.176 190.246 149.304 107.995 
195.398 149.982 108.903 196.117 151.452 108.808 196.698 153.646 108.585 
183.661 161.321 108.068 183.515 167.266 108.098 187.105 167.412 107.36 
185.811 169.281 107.821 185.637 171.199 108.28 183.601 173.575 108.719 
183.59 174.61 108.794 183.516 179.343 109.267 184.617 179.936 109.429 
183.947 180.413 109.45 184.05 180.902 109.629 192.145 146.071 109.589 
192.386 145.569 110.055 191.695 146.432 109.296 194.419 147.824 109.794 
196.545 155.933 108.537 182.983 168.789 108.541 188.33 169.43 108.573 
183.202 181.461 109.931 184.014 182.096 110.13 191.494 145.16 110.173 
191.885 144.805 110.499 192.357 144.897 110.612 194.741 147.625 110.604 
197.195 157.463 109.943 197.266 159.296 110.303 181.167 167.051 109.702 
187.472 174.052 109.414 186.039 179.832 110.065 182.171 182.058 110.538 
185.069 181.659 110.227 183.204 182.897 110.487 182.589 183.929 110.988 
182.949 185.093 111.344 190.881 143.218 111.673 189.085 144.532 111.263 
197.122 153.764 110.884 197.711 156.4 111.035 198.834 161.94 112.142 
181.031 181.544 111.115 181.803 185.289 111.799 184.084 184.865 111.276 
182.958 187.572 112.29 182.673 187.986 112.502 193.392 144.05 112.292 
198.087 156.296 112.038 198.848 158.149 112.307 178.731 171.715 111.839 
191.241 174.218 111.69 180.469 183.623 112.178 184.048 187.649 112.49 
182.591 189.596 113.374 190.879 140.843 113.53 189.914 141.484 113.128 
192.052 141.379 113.53 188.972 142.273 112.898 192.407 142.538 112.729 
193.402 143.12 113.305 194.393 144.951 113.235 195.082 146.472 113.544 
195.239 147.309 112.835 200.752 159.909 113.909 199.919 161.979 112.991 
180.627 185.09 112.509 185.13 186.226 112.345 190.587 140.053 114.172 
191.442 139.836 114.687 192.452 141.113 114.104 192.86 141.408 114.319 
200.881 158.984 114.58 176.553 166.106 113.902 190.872 178.082 113.264 
181.923 191.314 114.484 182.235 191.734 114.697 190.83 138.732 115.458 
191.424 138.885 115.65 196.607 150.968 115.604 201.381 162.451 114.271 
199.013 167.007 113.886 180.895 192.817 115.884 181.785 192.89 115.619 
190.894 137.418 116.78 190.21 137.65 116.385 189.54 138.603 115.67 
192.694 140.013 115.801 182.961 144.445 115.821 179.438 149.769 115.717 
197.217 152.424 116.186 197.918 153.816 116.044 202.882 160.052 116.172 
202.616 162.44 115.219 198.889 173.91 115.376 192.335 180.392 115.076 
179.744 191.989 116.077 184.812 191.702 115.393 183.637 193.253 116.107 
181.243 193.639 116.554 182.626 193.685 116.293 189.609 137.066 117.002 
184.589 141.624 116.603 206.496 162.811 117.285 207.163 163.675 117.203 
208.163 163.121 117.773 203.464 166.144 115.85 209.69 165.403 117.833 
207.812 167.56 117.018 207.972 169.418 117.288 203.329 174.511 116.614 
204.789 175.136 117.274 203.2 177.08 117.295 185.022 192.952 116.794 
179.572 193.57 117.682 183.293 193.762 116.647 189.776 136.201 118.146 
187.29 137.911 117.552 192.949 139.181 117.867 199.921 155.609 117.75 
201.165 156.603 118.053 210.205 163.275 118.854 211.527 165.248 119.092 
210.307 171.009 119.13 173.709 172.099 116.972 206.753 175.672 118.6 
200.922 180.34 118.376 195.271 185.462 118.805 179.027 193.796 118.656 
181.508 194.518 118.631 190.221 135.89 119.035 188.795 136.009 118.637 
207.324 161.236 118.935 211.737 164.414 119.662 212.274 166.209 119.557 
212.109 165.543 119.53 211.432 169.866 119.43 208.969 173.421 119.321 
205.457 178.489 119.168 204.398 179.349 119.049 191.764 188.952 119.558 
190.621 189.576 119.19 191.358 189.351 119.631 177.397 193.058 119.293 
177.746 193.5 119.461 186.559 192.809 118.527 178.129 193.943 119.806 
183.31 194.467 119.401 179.829 194.517 119.648 188.601 135.017 120.159 
190.226 135.511 120.043 187.184 135.634 119.916 191.846 137.093 119.794 
212.188 164.717 120.03 213.287 166.668 120.817 213.641 167.62 121.326 
212.686 169.309 120.447 172.784 179.053 119.324 202.281 182.132 120.626 
194.339 187.382 119.957 189.864 190.439 119.399 187.456 134.824 120.825 
200.485 154.623 120.476 211.51 163.248 120.941 213.06 165.155 121.425 
213.74 166.571 121.707 170.086 167.401 120.737 213.484 169.174 121.604 
201.796 183.035 121.375 194.018 188.758 121.302 176.131 193.184 120.795 
188.888 134.351 122.282 190.684 135.715 121.593 199.409 152.213 122.14 
171.21 153.52 121.565 208.529 160.622 122.267 209.521 161.61 121.396 
213.985 166.818 122.272 214.109 167.47 122.416 203.56 181.869 121.466 
203.963 181.741 121.826 175.646 193.99 122.193 176.299 194.642 122.665 
177.162 194.974 122.794 187.521 133.757 123.068 187.236 133.754 123.129 
187.703 133.777 123.26 188.305 134.06 123.093 193.244 139.244 122.529 
214.078 166.669 123.266 214.36 167.927 123.795 213.76 170.273 123.272 
190.689 191.666 122.758 173.889 192.53 122.607 188.43 192.815 122.459 
174.193 194.549 124.108 175.404 195.147 123.963 186.155 133.081 124.901 
185.806 133.217 124.531 186.899 133.303 124.88 184.072 134.114 123.978 
185.151 133.247 124.715 176.624 140.76 123.916 197.617 144.65 124.354 
207.803 159.313 124.198 213.589 165.498 123.534 214.24 167.531 124.176 
214.418 167.902 124.136 214.431 168.107 124.146 214.447 168.017 124.242 
214.305 168.548 124.228 214.377 168.124 124.356 212.048 173.486 124.051 
195.828 189.289 123.806 175.789 195.599 124.847 188.965 134.586 125.358 
204.761 155.88 124.152 206.684 157.621 124.789 166.637 161.982 125.11 
211.968 163.589 123.65 212.538 164.53 124.454 213.378 165.385 124.139 
214.364 167.92 124.346 214.1 168.011 124.833 214.138 169.741 124.571 
208.047 178.764 124.213 173.632 194.942 125.193 177.144 195.767 124.803 
184.847 132.537 126.171 186.487 132.92 126.05 167.606 152.562 125.906 
209.37 161.251 125.386 213.386 167.558 126.011 214.02 170.142 125.145 
178.323 195.952 125.846 174.679 195.922 126.667 184.536 132.432 126.925 
185.293 132.421 126.809 183.622 132.735 126.971 178.778 135.821 126.754 
208.378 159.76 127.413 213.554 170.648 126.424 209.578 177.877 126.769 
194.996 190.934 126.767 170.883 193.394 126.502 170.838 194.527 127.412 
171.543 195.818 128.382 185.67 132.657 127.538 186.861 133.464 128.277 
212.478 168.269 127.682 202.094 185.505 127.886 183.394 132.581 128.641 
183.863 132.57 128.729 179.391 134.18 128.76 169.689 143.761 128.708 
202.04 149.552 129.218 207.625 157.596 127.874 164.734 171.918 128.241 
213.084 171.267 127.484 212.336 173.212 128.376 211.582 175.101 128.951 
210.722 176.691 128.363 169.853 195.683 129.798 181.349 132.955 129.617 
181.224 133.041 129.51 182.518 132.74 129.007 180.749 133.289 129.692 
184.86 132.999 129.803 165.317 149.77 129.925 207.336 156.384 129.231 
207.508 156.946 129.288 208.388 163.719 130.755 211.339 170.939 130.244 
211.742 173.745 129.696 211.667 174.421 129.599 211.289 175.448 129.898 
200.762 187.09 129.006 198.428 189.212 129.332 169.152 195.116 129.753 
169.067 195.601 130.636 171.065 196.337 130.313 180.401 133.442 130.541 
183.816 133.051 130.528 186.753 133.933 130.537 174.732 136.583 130.995 
190.131 136.433 131.082 168.312 143.547 130.986 205.122 152.432 130.73 
206.198 153.876 129.987 207.041 155.089 130.392 207.482 158.208 130.863 
200.799 186.758 130.555 196.796 190.267 130.29 195.144 191.004 130.179 
179.185 195.991 131.193 168.38 195.513 131.514 173.778 196.544 130.996 
169.584 196.109 131.257 182.019 133.262 131.358 177.399 134.691 131.922 
188.949 135.427 131.138 168.523 142.813 131.944 165.788 146.108 132.12 
210.216 176.796 131.676 208.548 178.958 131.835 201.501 185.024 132.322 
200.059 186.857 132.163 198.539 188.734 131.821 166.217 191.316 131.659 
166.974 192.879 131.175 167.062 193.55 131.422 167.156 194.527 132.15 
171.337 196.54 131.479 178.351 134.248 131.973 176.67 135.1 132.599 
183.685 133.985 133.422 174.958 136.185 132.656 171.286 139.889 132.02 
168.412 142.909 133.082 167.443 143.948 132.562 166.214 145.234 132.741 
210.472 174.811 132.371 210.173 176.259 132.337 205.402 181.268 132.526 
169.852 196.335 132.454 176.781 135.188 133.202 188.857 135.67 133.567 
173.404 137.832 133.244 171.799 139.51 133.177 172.608 138.816 133.434 
171.49 140.056 133.669 170.605 141.207 134.096 167.307 144.084 133.141 
169.361 142.491 134.186 166.144 145.226 133.474 199.131 144.911 133.474 
164.11 147.366 133.93 163.561 148.212 133.694 163.491 148.028 134.171 
162.123 151.004 133.591 206.493 154.916 132.677 207.86 178.698 133.621 
197.234 188.521 133.824 165.509 193.58 134.102 166.352 194.737 134.413 
174.839 136.616 133.654 178.306 135.583 134.83 185.891 134.701 134.53 
172.467 139.759 134.453 173.252 140.139 135.433 193.852 140.063 134.945 
168 143.74 134.122 169.247 143.702 135.384 167.435 144.789 135.046 
164.171 147.19 134.902 163.82 147.502 134.769 166.353 145.579 135.036 
161.476 150.642 135.198 159.778 156.112 135.186 208.57 174.089 134.933 
209.066 174.389 134.332 208.664 177.259 134.021 197.956 187.044 134.779 
193.417 190.356 134.242 186.608 194.032 134.294 165.304 194.162 135.43 
[...]
POINT_DATA 1697
COLOR_SCALARS scalars 3
0.596078 0.839216 0.976471 0.596078 0.839216 0.976471 0.596078 0.839216 0.976471 
0.596078 0.839216 0.976471 0.596078 0.839216 0.976471 
0.596078 0.839216 0.976471 0.596078 0.839216 0.976471 
0.596078 0.839216 0.976471 0.596078 0.839216 0.976471 
0.596078 0.839216 0.976471 0.596078 0.839216 0.976471 
0.596078 0.839216 0.976471 0.596078 0.839216 0.976471 
0.596078 0.839216 0.976471 0.596078 0.839216 0.976471 
0.596078 0.839216 0.976471 0.596078 0.839216 0.976471 
0.596078 0.839216 0.976471 0.596078 0.839216 0.976471 
0.596078 0.839216 0.976471 0.596078 0.839216 0.976471 
0.596078 0.839216 0.976471 0.596078 0.839216 0.976471 
0.596078 0.839216 0.976471 0.596078 0.839216 0.976471 
0.596078 0.839216 0.976471 0.596078 0.839216 0.976471 
0.596078 0.839216 0.976471 0.596078 0.839216 0.976471 
0.596078 0.839216 0.976471 0.596078 0.839216 0.976471 
0.596078 0.839216 0.976471 0.596078 0.839216 0.976471 
0.596078 0.839216 0.976471 0.596078 0.839216 0.976471 
0.596078 0.839216 0.976471 0.596078 0.839216 0.976471 
0.596078 0.839216 0.976471 0.596078 0.839216 0.976471 
0.596078 0.839216 0.976471 0.596078 0.839216 0.976471 
0.596078 0.839216 0.976471 0.596078 0.839216 0.976471 
0.596078 0.839216 0.976471 0.596078 0.839216 0.976471 
0.596078 0.839216 0.976471 0.596078 0.839216 0.976471 
0.596078 0.839216 0.976471 0.596078 0.839216 0.976471 
0.596078 0.839216 0.976471 0.596078 0.839216 0.976471 
0.596078 0.839216 0.976471 0.596078 0.839216 0.976471 
0.596078 0.839216 0.976471 0.596078 0.839216 0.976471 
0.596078 0.839216 0.976471 0.596078 0.839216 0.976471 
0.596078 0.839216 0.976471 0.596078 0.839216 0.976471 
0.596078 0.839216 0.976471 0.596078 0.839216 0.976471 
0.596078 0.839216 0.976471 0.596078 0.839216 0.976471 
0.596078 0.839216 0.976471 0.596078 0.839216 0.976471 
0.596078 0.839216 0.976471 0.596078 0.839216 0.976471 
0.596078 0.839216 0.976471 0.596078 0.839216 0.976471 
0.596078 0.839216 0.976471 0.596078 0.839216 0.976471 
0.596078 0.839216 0.976471 0.596078 0.839216 0.976471 
0.596078 0.839216 0.976471 0.596078 0.839216 0.976471 
0.596078 0.839216 0.976471 0.596078 0.839216 0.976471 
0.596078 0.839216 0.976471 0.596078 0.839216 0.976471 
0.596078 0.839216 0.976471 0.596078 0.839216 0.976471 
0.596078 0.839216 0.976471 0.596078 0.839216 0.976471 
0.596078 0.839216 0.976471 0.596078 0.839216 0.976471 
0.596078 0.839216 0.976471 0.596078 0.839216 0.976471 
0.596078 0.839216 0.976471 0.596078 0.839216 0.976471 
0.596078 0.839216 0.976471 0.596078 0.839216 0.976471 
0.596078 0.839216 0.976471 0.596078 0.839216 0.976471 
0.596078 0.839216 0.976471 0.596078 0.839216 0.976471 
0.596078 0.839216 0.976471 0.596078 0.839216 0.976471 
0.596078 0.839216 0.976471 0.596078 0.839216 0.976471 
0.596078 0.839216 0.976471 0.596078 0.839216 0.976471 
0.596078 0.839216 0.976471 0.596078 0.839216 0.976471 
0.596078 0.839216 0.976471 0.596078 0.839216 0.976471 
0.596078 0.839216 0.976471 0.596078 0.839216 0.976471 
0.596078 0.839216 0.976471 0.596078 0.839216 0.976471 
0.596078 0.839216 0.976471 0.596078 0.839216 0.976471 
0.596078 0.839216 0.976471 0.596078 0.839216 0.976471 
0.596078 0.839216 0.976471 0.596078 0.839216 0.976471 
0.596078 0.839216 0.976471 0.596078 0.839216 0.976471 
0.596078 0.839216 0.976471 0.596078 0.839216 0.976471 
0.596078 0.839216 0.976471 0.596078 0.839216 0.976471 
0.596078 0.839216 0.976471 0.596078 0.839216 0.976471 
0.596078 0.839216 0.976471 0.596078 0.839216 0.976471 
0.596078 0.839216 0.976471 0.596078 0.839216 0.976471 
0.596078 0.839216 0.976471 0.596078 0.839216 0.976471 
0.596078 0.839216 0.976471 0.596078 0.839216 0.976471 
0.596078 0.839216 0.976471 0.596078 0.839216 0.976471 
0.596078 0.839216 0.976471 0.596078 0.839216 0.976471 
0.596078 0.839216 0.976471 0.596078 0.839216 0.976471 
0.596078 0.839216 0.976471 0.596078 0.839216 0.976471 
0.596078 0.839216 0.976471 0.596078 0.839216 0.976471 
0.596078 0.839216 0.976471 0.596078 0.839216 0.976471 
0.596078 0.839216 0.976471 0.596078 0.839216 0.976471 
0.596078 0.839216 0.976471 0.596078 0.839216 0.976471 
0.596078 0.839216 0.976471 0.596078 0.839216 0.976471 
0.596078 0.839216 0.976471 0.596078 0.839216 0.976471 
0.596078 0.839216 0.976471 0.596078 0.839216 0.976471 
0.596078 0.839216 0.976471 0.596078 0.839216 0.976471 
0.596078 0.839216 0.976471 0.596078 0.839216 0.976471 
0.596078 0.839216 0.976471 0.596078 0.839216 0.976471 
0.596078 0.839216 0.976471 0.596078 0.839216 0.976471 
0.596078 0.839216 0.976471 0.596078 0.839216 0.976471 
0.596078 0.839216 0.976471 0.596078 0.839216 0.976471 
0.596078 0.839216 0.976471 0.596078 0.839216 0.976471 
0.596078 0.839216 0.976471 0.596078 0.839216 0.976471 
0.596078 0.839216 0.976471 0.596078 0.839216 0.976471 
0.596078 0.839216 0.976471 0.596078 0.839216 0.976471 
0.596078 0.839216 0.976471 0.596078 0.839216 0.976471 
0.596078 0.839216 0.976471 0.596078 0.839216 0.976471 
0.596078 0.839216 0.976471 0.596078 0.839216 0.976471 
0.596078 0.839216 0.976471 0.596078 0.839216 0.976471 
0.596078 0.839216 0.976471 0.596078 0.839216 0.976471 
0.596078 0.839216 0.976471 0.596078 0.839216 0.976471 
0.596078 0.839216 0.976471 0.596078 0.839216 0.976471 
0.596078 0.839216 0.976471 0.596078 0.839216 0.976471 
0.596078 0.839216 0.976471 0.596078 0.839216 0.976471 
0.596078 0.839216 0.976471 0.596078 0.839216 0.976471 
0.596078 0.839216 0.976471 0.596078 0.839216 0.976471 
0.596078 0.839216 0.976471 0.596078 0.839216 0.976471 
0.596078 0.839216 0.976471 0.596078 0.839216 0.976471 
0.596078 0.839216 0.976471 0.596078 0.839216 0.976471 
0.596078 0.839216 0.976471 0.596078 0.839216 0.976471 
0.596078 0.839216 0.976471 0.596078 0.839216 0.976471 
0.596078 0.839216 0.976471 0.596078 0.839216 0.976471 
0.596078 0.839216 0.976471 0.596078 0.839216 0.976471 
0.596078 0.839216 0.976471 0.596078 0.839216 0.976471 
0.596078 0.839216 0.976471 0.596078 0.839216 0.976471 
0.596078 0.839216 0.976471 0.596078 0.839216 0.976471 
0.596078 0.839216 0.976471 0.596078 0.839216 0.976471 
0.596078 0.839216 0.976471 0.596078 0.839216 0.976471 
0.596078 0.839216 0.976471 0.596078 0.839216 0.976471 
0.596078 0.839216 0.976471 0.596078 0.839216 0.976471 
0.596078 0.839216 0.976471 0.596078 0.839216 0.976471 
0.596078 0.839216 0.976471 0.596078 0.839216 0.976471 
0.596078 0.839216 0.976471 0.596078 0.839216 0.976471 
0.596078 0.839216 0.976471 0.596078 0.839216 0.976471 
0.596078 0.839216 0.976471 0.596078 0.839216 0.976471 
0.596078 0.839216 0.976471 0.596078 0.839216 0.976471 
0.596078 0.839216 0.976471 0.596078 0.839216 0.976471 
0.596078 0.839216 0.976471 0.596078 0.839216 0.976471 
0.596078 0.839216 0.976471 0.596078 0.839216 0.976471 
0.596078 0.839216 0.976471 0.596078 0.839216 0.976471 
0.596078 0.839216 0.976471 0.596078 0.839216 0.976471 
0.596078 0.839216 0.976471 0.596078 0.839216 0.976471 
0.596078 0.839216 0.976471 0.596078 0.839216 0.976471 
0.596078 0.839216 0.976471 0.596078 0.839216 0.976471 
0.596078 0.839216 0.976471 0.596078 0.839216 0.976471 
0.596078 0.839216 0.976471 0.596078 0.839216 0.976471 
0.596078 0.839216 0.976471 0.596078 0.839216 0.976471 
0.596078 0.839216 0.976471 0.596078 0.839216 0.976471 
0.596078 0.839216 0.976471 0.596078 0.839216 0.976471 
0.596078 0.839216 0.976471 0.596078 0.839216 0.976471 
0.596078 0.839216 0.976471 0.596078 0.839216 0.976471 
0.596078 0.839216 0.976471 0.596078 0.839216 0.976471 
0.596078 0.839216 0.976471 0.596078 0.839216 0.976471 
0.596078 0.839216 0.976471 0.596078 0.839216 0.976471 
0.596078 0.839216 0.976471 0.596078 0.839216 0.976471 
0.596078 0.839216 0.976471 0.596078 0.839216 0.976471 
0.596078 0.839216 0.976471 0.596078 0.839216 0.976471 
0.596078 0.839216 0.976471 0.596078 0.839216 0.976471 
0.596078 0.839216 0.976471 0.596078 0.839216 0.976471 
0.596078 0.839216 0.976471 0.596078 0.839216 0.976471 
0.596078 0.839216 0.976471 0.596078 0.839216 0.976471 
0.596078 0.839216 0.976471 0.596078 0.839216 0.976471 
0.596078 0.839216 0.976471 0.596078 0.839216 0.976471 
0.596078 0.839216 0.976471 0.596078 0.839216 0.976471 
0.596078 0.839216 0.976471 0.596078 0.839216 0.976471 
0.596078 0.839216 0.976471 0.596078 0.839216 0.976471 
0.596078 0.839216 0.976471 0.596078 0.839216 0.976471 
0.596078 0.839216 0.976471 0.596078 0.839216 0.976471 
0.596078 0.839216 0.976471 0.596078 0.839216 0.976471 
0.596078 0.839216 0.976471 0.596078 0.839216 0.976471 
0.596078 0.839216 0.976471 0.596078 0.839216 0.976471 
0.596078 0.839216 0.976471 0.596078 0.839216 0.976471 
0.596078 0.839216 0.976471 0.596078 0.839216 0.976471 
0.596078 0.839216 0.976471 0.596078 0.839216 0.976471 
0.596078 0.839216 0.976471 0.596078 0.839216 0.976471 
0.596078 0.839216 0.976471 0.596078 0.839216 0.976471 
0.596078 0.839216 0.976471 0.596078 0.839216 0.976471 
0.596078 0.839216 0.976471 0.596078 0.839216 0.976471 
0.596078 0.839216 0.976471 0.596078 0.839216 0.976471 
0.596078 0.839216 0.976471 0.596078 0.839216 0.976471 
0.596078 0.839216 0.976471 0.596078 0.839216 0.976471 
0.596078 0.839216 0.976471 0.596078 0.839216 0.976471 
0.596078 0.839216 0.976471 0.596078 0.839216 0.976471 
0.596078 0.839216 0.976471 0.596078 0.839216 0.976471 
0.596078 0.839216 0.976471 0.596078 0.839216 0.976471 
0.596078 0.839216 0.976471 0.596078 0.839216 0.976471 
0.596078 0.839216 0.976471 0.596078 0.839216 0.976471 
0.596078 0.839216 0.976471 0.596078 0.839216 0.976471 
0.596078 0.839216 0.976471 0.596078 0.839216 0.976471 
0.596078 0.839216 0.976471 0.596078 0.839216 0.976471 
0.596078 0.839216 0.976471 0.596078 0.839216 0.976471 
0.596078 0.839216 0.976471 0.596078 0.839216 0.976471 
0.596078 0.839216 0.976471 0.596078 0.839216 0.976471 
0.596078 0.839216 0.976471 0.596078 0.839216 0.976471 
0.596078 0.839216 0.976471 0.596078 0.839216 0.976471 
0.596078 0.839216 0.976471 0.596078 0.839216 0.976471 
0.596078 0.839216 0.976471 0.596078 0.839216 0.976471 
0.596078 0.839216 0.976471 0.596078 0.839216 0.976471 
0.596078 0.839216 0.976471 0.596078 0.839216 0.976471 
0.596078 0.839216 0.976471 0.596078 0.839216 0.976471 
0.596078 0.839216 0.976471 0.596078 0.839216 0.976471 
0.596078 0.839216 0.976471 0.596078 0.839216 0.976471 
0.596078 0.839216 0.976471 0.596078 0.839216 0.976471 
0.596078 0.839216 0.976471 0.596078 0.839216 0.976471 
0.596078 0.839216 0.976471 0.596078 0.839216 0.976471 
0.596078 0.839216 0.976471 0.596078 0.839216 0.976471 
0.596078 0.839216 0.976471 0.596078 0.839216 0.976471 
0.596078 0.839216 0.976471 0.596078 0.839216 0.976471 
0.596078 0.839216 0.976471 0.596078 0.839216 0.976471 
0.596078 0.839216 0.976471 0.596078 0.839216 0.976471 
0.596078 0.839216 0.976471 0.596078 0.839216 0.976471 
0.596078 0.839216 0.976471 0.596078 0.839216 0.976471 
0.596078 0.839216 0.976471 0.596078 0.839216 0.976471 
0.596078 0.839216 0.976471 0.596078 0.839216 0.976471 
0.596078 0.839216 0.976471 0.596078 0.839216 0.976471 
0.596078 0.839216 0.976471 0.596078 0.839216 0.976471 
0.596078 0.839216 0.976471 0.596078 0.839216 0.976471 
0.596078 0.839216 0.976471 0.596078 0.839216 0.976471 
0.596078 0.839216 0.976471 0.596078 0.839216 0.976471 
0.596078 0.839216 0.976471 0.596078 0.839216 0.976471 
0.596078 0.839216 0.976471 0.596078 0.839216 0.976471 
0.596078 0.839216 0.976471 0.596078 0.839216 0.976471 
0.596078 0.839216 0.976471 0.596078 0.839216 0.976471 
0.596078 0.839216 0.976471 0.596078 0.839216 0.976471 
0.596078 0.839216 0.976471 0.596078 0.839216 0.976471 
0.596078 0.839216 0.976471 0.596078 0.839216 0.976471 
0.596078 0.839216 0.976471 0.596078 0.839216 0.976471 
0.596078 0.839216 0.976471 0.596078 0.839216 0.976471 
0.596078 0.839216 0.976471 0.596078 0.839216 0.976471 
0.596078 0.839216 0.976471 0.596078 0.839216 0.976471 
0.596078 0.839216 0.976471 0.596078 0.839216 0.976471 
0.596078 0.839216 0.976471 0.596078 0.839216 0.976471 
0.596078 0.839216 0.976471 0.596078 0.839216 0.976471 
0.596078 0.839216 0.976471 0.596078 0.839216 0.976471 
0.596078 0.839216 0.976471 0.596078 0.839216 0.976471 
0.596078 0.839216 0.976471 0.596078 0.839216 0.976471 
0.596078 0.839216 0.976471 0.596078 0.839216 0.976471 
0.596078 0.839216 0.976471 0.596078 0.839216 0.976471 
0.596078 0.839216 0.976471 0.596078 0.839216 0.976471 
0.596078 0.839216 0.976471 0.596078 0.839216 0.976471 
0.596078 0.839216 0.976471 0.596078 0.839216 0.976471 
0.596078 0.839216 0.976471 0.596078 0.839216 0.976471 
0.596078 0.839216 0.976471 0.596078 0.839216 0.976471 
0.596078 0.839216 0.976471 0.596078 0.839216 0.976471 
0.596078 0.839216 0.976471 0.596078 0.839216 0.976471 
0.596078 0.839216 0.976471 0.596078 0.839216 0.976471 
0.596078 0.839216 0.976471 0.596078 0.839216 0.976471 
0.596078 0.839216 0.976471 0.596078 0.839216 0.976471 
0.596078 0.839216 0.976471 0.596078 0.839216 0.976471 
0.596078 0.839216 0.976471 0.596078 0.839216 0.976471 
0.596078 0.839216 0.976471 0.596078 0.839216 0.976471 
0.596078 0.839216 0.976471 0.596078 0.839216 0.976471 
0.596078 0.839216 0.976471 0.596078 0.839216 0.976471 
0.596078 0.839216 0.976471 0.596078 0.839216 0.976471 
0.596078 0.839216 0.976471 0.596078 0.839216 0.976471 
0.596078 0.839216 0.976471 0.596078 0.839216 0.976471 
0.596078 0.839216 0.976471 0.596078 0.839216 0.976471 
0.596078 0.839216 0.976471 0.596078 0.839216 0.976471 
0.596078 0.839216 0.976471 0.596078 0.839216 0.976471 
0.596078 0.839216 0.976471 0.596078 0.839216 0.976471 
0.596078 0.839216 0.976471 0.596078 0.839216 0.976471 
0.596078 0.839216 0.976471 0.596078 0.839216 0.976471 
0.596078 0.839216 0.976471 0.596078 0.839216 0.976471 
0.596078 0.839216 0.976471 0.596078 0.839216 0.976471 
0.596078 0.839216 0.976471 0.596078 0.839216 0.976471 
0.596078 0.839216 0.976471 0.596078 0.839216 0.976471 
0.596078 0.839216 0.976471 0.596078 0.839216 0.976471 
0.596078 0.839216 0.976471 0.596078 0.839216 0.976471 
0.596078 0.839216 0.976471 0.596078 0.839216 0.976471 
0.596078 0.839216 0.976471 0.596078 0.839216 0.976471 
0.596078 0.839216 0.976471 0.596078 0.839216 0.976471 
0.596078 0.839216 0.976471 0.596078 0.839216 0.976471 
0.596078 0.839216 0.976471 0.596078 0.839216 0.976471 
0.596078 0.839216 0.976471 0.596078 0.839216 0.976471 
0.596078 0.839216 0.976471 0.596078 0.839216 0.976471 
0.596078 0.839216 0.976471 0.596078 0.839216 0.976471 
0.596078 0.839216 0.976471 0.596078 0.839216 0.976471 
0.596078 0.839216 0.976471 0.596078 0.839216 0.976471 
0.596078 0.839216 0.976471 0.596078 0.839216 0.976471 
0.596078 0.839216 0.976471 0.596078 0.839216 0.976471 
0.596078 0.839216 0.976471 0.596078 0.839216 0.976471 
0.596078 0.839216 0.976471 0.596078 0.839216 0.976471 
0.596078 0.839216 0.976471 0.596078 0.839216 0.976471 
0.596078 0.839216 0.976471 0.596078 0.839216 0.976471 
0.596078 0.839216 0.976471 0.596078 0.839216 0.976471 
0.596078 0.839216 0.976471 0.596078 0.839216 0.976471 
0.596078 0.839216 0.976471 0.596078 0.839216 0.976471 
0.596078 0.839216 0.976471 0.596078 0.839216 0.976471 
0.596078 0.839216 0.976471 0.596078 0.839216 0.976471 
0.596078 0.839216 0.976471 0.596078 0.839216 0.976471 
0.596078 0.839216 0.976471 0.596078 0.839216 0.976471 
0.596078 0.839216 0.976471 0.596078 0.839216 0.976471 
0.596078 0.839216 0.976471 0.596078 0.839216 0.976471 
0.596078 0.839216 0.976471 0.596078 0.839216 0.976471 
0.596078 0.839216 0.976471 0.596078 0.839216 0.976471 
0.596078 0.839216 0.976471 0.596078 0.839216 0.976471 
0.596078 0.839216 0.976471 0.596078 0.839216 0.976471 
0.596078 0.839216 0.976471 0.596078 0.839216 0.976471 
0.596078 0.839216 0.976471 0.596078 0.839216 0.976471 
0.596078 0.839216 0.976471 0.596078 0.839216 0.976471 
0.596078 0.839216 0.976471 0.596078 0.839216 0.976471 
0.596078 0.839216 0.976471 0.596078 0.839216 0.976471 
0.596078 0.839216 0.976471 0.596078 0.839216 0.976471 
0.596078 0.839216 0.976471 0.596078 0.839216 0.976471 
0.596078 0.839216 0.976471 0.596078 0.839216 0.976471 
0.596078 0.839216 0.976471 0.596078 0.839216 0.976471 
0.596078 0.839216 0.976471 0.596078 0.839216 0.976471 
0.596078 0.839216 0.976471 0.596078 0.839216 0.976471 
0.596078 0.839216 0.976471 0.596078 0.839216 0.976471 
0.596078 0.839216 0.976471 0.596078 0.839216 0.976471 
0.596078 0.839216 0.976471 0.596078 0.839216 0.976471 
0.596078 0.839216 0.976471 0.596078 0.839216 0.976471 
0.596078 0.839216 0.976471 0.596078 0.839216 0.976471 
0.596078 0.839216 0.976471 0.596078 0.839216 0.976471 
0.596078 0.839216 0.976471 0.596078 0.839216 0.976471 
0.596078 0.839216 0.976471 0.596078 0.839216 0.976471 
0.596078 0.839216 0.976471 0.596078 0.839216 0.976471 
0.596078 0.839216 0.976471 0.596078 0.839216 0.976471 
0.596078 0.839216 0.976471 0.596078 0.839216 0.976471 
0.596078 0.839216 0.976471 0.596078 0.839216 0.976471 
0.596078 0.839216 0.976471 0.596078 0.839216 0.976471 
0.596078 0.839216 0.976471 0.596078 0.839216 0.976471 
0.596078 0.839216 0.976471 0.596078 0.839216 0.976471 
0.596078 0.839216 0.976471 0.596078 0.839216 0.976471 
0.596078 0.839216 0.976471 0.596078 0.839216 0.976471 
0.596078 0.839216 0.976471 0.596078 0.839216 0.976471 
0.596078 0.839216 0.976471 0.596078 0.839216 0.976471 
0.596078 0.839216 0.976471 0.596078 0.839216 0.976471 
0.596078 0.839216 0.976471 0.596078 0.839216 0.976471 
0.596078 0.839216 0.976471 0.596078 0.839216 0.976471 
0.596078 0.839216 0.976471 0.596078 0.839216 0.976471 
0.596078 0.839216 0.976471 0.596078 0.839216 0.976471 
0.596078 0.839216 0.976471 0.596078 0.839216 0.976471 
0.596078 0.839216 0.976471 0.596078 0.839216 0.976471 
0.596078 0.839216 0.976471 0.596078 0.839216 0.976471 
0.596078 0.839216 0.976471 0.596078 0.839216 0.976471 
0.596078 0.839216 0.976471 0.596078 0.839216 0.976471 
0.596078 0.839216 0.976471 0.596078 0.839216 0.976471 
0.596078 0.839216 0.976471 0.596078 0.839216 0.976471 
0.596078 0.839216 0.976471 0.596078 0.839216 0.976471 
0.596078 0.839216 0.976471 0.596078 0.839216 0.976471 
0.596078 0.839216 0.976471 0.596078 0.839216 0.976471 
0.596078 0.839216 0.976471 0.596078 0.839216 0.976471 
0.596078 0.839216 0.976471 0.596078 0.839216 0.976471 
0.596078 0.839216 0.976471 0.596078 0.839216 0.976471 
0.596078 0.839216 0.976471 0.596078 0.839216 0.976471 
0.596078 0.839216 0.976471 0.596078 0.839216 0.976471 
0.596078 0.839216 0.976471 0.596078 0.839216 0.976471 
0.596078 0.839216 0.976471 0.596078 0.839216 0.976471 
0.596078 0.839216 0.976471 0.596078 0.839216 0.976471 
0.596078 0.839216 0.976471 0.596078 0.839216 0.976471 
0.596078 0.839216 0.976471 0.596078 0.839216 0.976471 
0.596078 0.839216 0.976471 0.596078 0.839216 0.976471 
0.596078 0.839216 0.976471 0.596078 0.839216 0.976471 
0.596078 0.839216 0.976471 0.596078 0.839216 0.976471 
0.596078 0.839216 0.976471 0.596078 0.839216 0.976471 
0.596078 0.839216 0.976471 0.596078 0.839216 0.976471 
0.596078 0.839216 0.976471 0.596078 0.839216 0.976471 
0.596078 0.839216 0.976471 0.596078 0.839216 0.976471 
0.596078 0.839216 0.976471 0.596078 0.839216 0.976471 
0.596078 0.839216 0.976471 0.596078 0.839216 0.976471 
0.596078 0.839216 0.976471 0.596078 0.839216 0.976471 
0.596078 0.839216 0.976471 0.596078 0.839216 0.976471 
0.596078 0.839216 0.976471 0.596078 0.839216 0.976471 
0.596078 0.839216 0.976471 0.596078 0.839216 0.976471 
0.596078 0.839216 0.976471 0.596078 0.839216 0.976471 
0.596078 0.839216 0.976471 0.596078 0.839216 0.976471 
0.596078 0.839216 0.976471 0.596078 0.839216 0.976471 
0.596078 0.839216 0.976471 0.596078 0.839216 0.976471 
0.596078 0.839216 0.976471 0.596078 0.839216 0.976471 
0.596078 0.839216 0.976471 0.596078 0.839216 0.976471 
0.596078 0.839216 0.976471 0.596078 0.839216 0.976471 
0.596078 0.839216 0.976471 0.596078 0.839216 0.976471 
0.596078 0.839216 0.976471 0.596078 0.839216 0.976471 
0.596078 0.839216 0.976471 0.596078 0.839216 0.976471 
0.596078 0.839216 0.976471 0.596078 0.839216 0.976471 
0.596078 0.839216 0.976471 0.596078 0.839216 0.976471 
0.596078 0.839216 0.976471 0.596078 0.839216 0.976471 
0.596078 0.839216 0.976471 0.596078 0.839216 0.976471 
0.596078 0.839216 0.976471 0.596078 0.839216 0.976471 
0.596078 0.839216 0.976471 0.596078 0.839216 0.976471 