# vtk DataFile Version 4.2
vtk output
ASCII
DATASET POLYDATA
POINTS 1263 float
257.393 196.223 81.2296 259.146 196.502 81.3592 260.215 197.226 81.4461 
257.85 195.18 81.9327 253.658 196.114 81.9767 253.129 197.485 81.9143 
261.284 197.584 82.0194 254.834 198.554 81.437 259.843 198.801 81.3127 
258.154 199.651 81.2242 261.661 200.364 81.9005 262.548 200.644 82.3827 
253.758 194.83 82.539 254.719 195.347 81.9598 252.877 195.359 82.7361 
251.179 197.877 82.9168 251.176 200.143 82.7266 259.714 201.622 81.8223 
263.059 202.777 82.9009 264.52 202.693 83.8443 264.092 203.003 83.573 
252.355 195.188 83.284 260.755 196.106 82.6561 262.835 198.154 83.2992 
249.221 200.864 83.4658 248.546 201.006 83.7251 249.849 201.062 83.2396 
250.479 200.993 83.039 252.307 201.104 82.5493 264.443 201.448 83.8124 
249.829 202.24 83.3886 261.259 204.809 83.5382 263.881 204.191 84.0336 
255.893 191.872 85.412 253.769 192.954 84.5071 256.262 193.188 83.7551 
236.503 199.568 85.3633 237.82 200.369 84.9953 238.337 200.305 84.9507 
238.551 199.934 85.1368 239.734 200.446 84.9139 243.072 202.019 84.5691 
249.747 204.178 83.9267 264.88 203.516 84.4435 262.426 205.405 84.3255 
252.424 193.215 85.4851 232.947 199.969 86.4188 237.175 199.055 85.8427 
247.687 199.416 84.6331 232.528 200.197 86.5989 233.381 200.75 85.8659 
240.947 199.745 85.4528 233.275 201.215 85.7998 233.443 201.572 85.7143 
238.64 201.345 84.7768 233.794 201.768 85.6009 238.572 204.032 85.2191 
264.675 204.777 85.0359 263.05 206.416 85.6785 254.195 192.001 86.311 
256.719 191.34 86.616 261.853 194.792 85.4073 243.041 199.932 85.4619 
245.615 199.58 85.3764 232.527 201.372 86.2976 232.27 202.41 86.5897 
233.049 203.187 86.2906 244.99 206.147 85.2231 264.356 205.491 85.5326 
264.839 205.299 85.8524 250.253 208.323 85.9028 256.778 191.162 86.9235 
256.789 191.122 87.044 256.95 191.171 87.1279 234.194 198.47 87.3149 
253.675 209.006 86.3822 254.289 191.742 87.9 240.308 198.041 87.4101 
246.779 197.153 87.4398 230.513 201.356 88.5822 267.32 203.026 88.1598 
233.982 206.113 87.1446 260.566 209.459 88.3043 247.315 195.836 89.207 
236.024 197.312 89.0154 242.718 197.387 88.5677 267.354 203.646 88.7076 
229.007 204.747 89.6218 229.566 207.66 89.4 250.014 212.172 89.0555 
253.543 211.588 89.0557 248.504 194.93 90.0469 268.017 203.35 90.0325 
228.478 204.66 90.1492 227.525 207.111 90.5318 256.525 212.057 90.6443 
269.13 199.665 91.013 228.785 202.188 90.9639 269.887 201.448 92.0885 
266.443 205.899 90.7371 228.33 209.453 90.255 266.115 192.301 92.46 
252.987 192.777 91.384 247.241 194.559 92.9271 230.375 198.958 91.9335 
270.213 199.791 92.4761 270.097 201.576 92.528 270.159 201.818 92.9586 
222.911 211.901 92.2384 240.69 217.433 91.7542 245.955 217.047 92.2145 
242.329 218.126 92.1552 243.681 218.275 92.4469 270.855 200.516 93.4787 
270.578 201.43 93.5022 219.367 211.937 93.821 219.449 212.519 93.6133 
219.821 213.135 93.3849 252.567 214.152 93.2511 248.165 216.746 93.3343 
265.26 190.877 94.164 268.455 193.66 94.2946 270.131 196.731 93.9372 
270.735 198.57 93.656 271.466 200.148 94.6992 270.681 201.62 94.121 
223.765 206.522 93.9075 218.646 212.047 94.256 218.019 213.46 94.2688 
217.114 213.61 94.8066 217.413 214.552 94.5175 218.848 215.996 94.1759 
249.363 216.285 93.9299 248.137 217.154 93.7733 271.747 199.048 95.223 
216.008 213.433 95.7601 259.05 212.728 94.7652 252.359 215.061 95.5189 
244.529 221.278 95.3375 254.536 192.743 95.8974 232.652 195.647 95.8378 
232.135 195.687 96.4281 245.538 194.258 96.4182 271.017 201.686 96.4093 
217.035 211.314 96.4928 218.791 218.905 95.338 230.11 222.409 95.8661 
266.912 191.063 96.5057 231.43 195.824 97.4437 272.482 199.778 97.201 
272.635 199.643 97.5204 220.216 207.311 97.1268 262.487 210.779 96.4218 
212.525 214.855 97.6872 211.094 217.938 97.6633 216.712 221.388 97.0243 
263.387 190.588 98.1134 267.936 191.637 97.0135 239.034 194.197 98.2995 
230.298 196.765 98.0576 272.741 199.36 97.8175 272.681 199.661 97.799 
272.588 199.859 98.0068 223.815 204.095 97.6287 217.688 209.807 97.5908 
209.718 217.352 98.625 264.641 190.438 98.5947 232.659 194.267 99.4559 
272.678 196.722 98.8217 212.515 213.451 99.3958 212.256 213.983 98.8748 
210.987 214.587 99.4519 209.009 216.962 99.4805 249.14 219.017 98.452 
249.217 219.227 99.2456 246.795 221.808 98.3999 239.809 227.224 99.6955 
265.407 190.514 99.278 266.667 190.744 98.9883 267.684 191.137 98.4785 
233.936 193.494 100.269 273.221 197.509 99.6659 273.469 198.509 100.124 
225.473 202.029 100.199 220.578 205.631 100.039 252.352 215.969 100.392 
207.635 218.056 100.589 208.106 218.4 100.065 208.636 218.984 99.6487 
268.909 191.669 100.063 238.081 193.351 101.647 231.339 194.87 100.391 
244.852 194.068 100.935 273.458 198.286 100.824 226.029 201.422 100.86 
265.242 207.549 100.666 209.152 215.28 101.005 206.642 217.809 101.779 
207.586 216.744 101.527 250.239 218.271 101.45 206.671 219.757 101.354 
232.428 193.614 101.696 272.078 194.181 101.281 246.479 193.915 101.68 
273.251 196.048 101.318 273.664 197.022 101.968 273.743 197.445 102.052 
273.752 197.523 102.418 273.587 197.926 102.443 226.972 200.217 102.259 
261.493 211.515 101.674 259.676 212.728 101.308 251.031 217.235 101.563 
206.519 221.851 102.136 261.89 191.585 103.19 231.95 193.615 102.934 
238.884 193.563 102.924 230.537 195.162 102.557 241.989 194.266 103.081 
243.805 194.318 102.955 273.732 196.948 102.494 273.059 198.579 102.592 
273.331 198.131 102.847 273.565 197.809 102.888 253.855 214.913 103.228 
206.491 217.006 103.112 204.175 219.909 104.036 204.195 221.085 103.759 
245.003 226.031 102.328 212.629 227.597 103.275 241.348 228.834 102.81 
233.964 192.344 104.111 234.478 192.29 104.39 270.087 192.019 102.488 
234.746 192.371 104.098 265.876 191.674 103.68 268.701 191.887 103.403 
238.082 193.457 103.978 271.962 193.745 102.718 231.404 193.983 103.759 
272.541 194.585 102.786 272.84 195.219 103.121 241.87 194.45 103.908 
247.36 193.895 103.403 273.679 196.822 102.79 273.595 196.919 103.088 
228.869 197.397 103.919 273.586 197.596 103.075 268.277 202.907 103.944 
260.203 211.977 104.164 210.63 212.963 103.554 203.464 220.721 104.91 
203.533 221.114 104.627 207.635 225.356 103.806 243.444 227.599 102.887 
233.741 192.407 104.299 234.133 192.413 104.777 234.788 192.363 104.533 
234.83 192.473 104.835 236.109 192.733 104.588 231.84 193.576 104.214 
237.255 193.169 104.198 271.894 193.933 103.558 272.045 194.303 103.886 
271.882 194.447 104.201 272.261 194.742 103.973 272.589 195.044 103.68 
272.411 197.736 104.068 273.425 197.485 103.302 268.5 202.318 104.402 
252.602 215.454 104.5 207.35 215.707 104.8 203.832 219.804 105.099 
203.223 221.017 105.407 202.952 221.56 105.313 202.976 221.721 105.345 
203.291 222.76 105.359 237.975 231.068 104.677 233.322 192.783 104.86 
233.911 192.635 105.042 232.131 193.565 105.172 234.298 192.88 105.452 
269.174 193.322 105.079 237.01 193.22 104.888 269.461 193.818 105.381 
249.109 193.672 106.389 269.923 194.165 105.381 271.306 194.289 104.527 
241.448 194.971 105.318 242.21 195.023 105.262 245.081 195.264 106.219 
240.231 195.242 106.097 272.403 196.56 104.281 225.863 200.895 106.05 
221.265 203.906 105.19 205.148 218.097 106.002 250.203 218.066 105.77 
203.332 220.69 106.236 202.914 221.607 105.44 202.944 221.728 105.742 
202.856 222.189 105.912 202.846 222.328 105.837 203.086 222.89 106.105 
203.578 223.522 105.67 206.499 226.841 106.222 227.476 232.398 106.38 
237.295 231.997 106.569 260.78 191.97 107.004 231.976 194.015 105.804 
232.972 193.966 106.372 234.442 193.688 106.401 262.935 192.555 106.742 
230.684 195.158 105.694 237.155 193.904 105.884 269.448 194.301 105.649 
267.191 195.092 106.971 237.546 195.82 107.508 243.824 195.842 106.768 
238.301 195.922 107.378 218.916 205.685 106.191 209.993 212.418 107.048 
207.732 215.013 107.219 250.06 218.071 106.846 249.722 218.796 107.05 
202.891 222.439 105.989 202.964 222.299 106.318 248.693 221.697 107.124 
203.271 223.383 106.577 203.59 223.958 106.544 203.793 224.472 107.155 
243.688 229.265 106.847 214.947 231.116 106.764 255.285 191.02 109.142 
253.183 191.576 108.423 249.254 193.887 108.048 232.074 195.798 107.453 
235.621 195.533 107.735 246.285 195.641 107.7 240.66 197.336 108.282 
241.587 197.392 108.353 227.758 200.282 107.697 227.12 200.522 107.411 
266.338 202.249 107.457 223.625 202.691 107.748 264.611 205.9 107.723 
258.785 211.826 107.397 251.445 215.741 107.333 203.586 220.836 107.441 
203.126 222.612 106.979 203.264 223.249 107.06 247.216 225.645 108.027 
209.365 230.077 108.303 224.365 233.177 108.186 254.504 191.134 109.002 
257.345 191.156 108.701 258.319 191.318 109.198 263.638 194.81 109.062 
234.276 195.904 107.99 227.445 200.895 108.067 255.332 212.586 109.051 
206.877 216.783 109.503 203.616 223.453 108.211 204.065 225.009 108.273 
205.625 227.547 108.341 244.702 229.044 108.902 251.869 192.052 110.347 
261.627 192.852 108.871 262.727 193.782 108.969 263.364 196.807 110.255 
264.352 200.346 109.931 229.922 203.64 110.16 218.19 205.931 110.314 
231.01 205.858 111.348 212.166 210.38 109.411 209.789 212.592 109.625 
206.162 218.202 109.922 205.186 220.085 109.874 204.07 221.769 108.98 
204.329 225.071 109.706 205.23 227.269 108.902 224.805 233.732 109.98 
255.709 190.782 111.129 258.869 191.632 110.275 250.662 193.136 110.964 
250.182 193.596 110.602 261.302 193.883 110.741 248.717 195.518 110.681 
244.485 198.654 110.588 235.652 201.205 110.586 263.369 202.321 110.893 
224.23 204.314 111.015 225.369 204.551 111.107 262.454 206.292 110.738 
232.952 206.618 112.268 260.121 209.147 110.78 207.859 215.848 110.817 
247.673 224.416 110.717 241.029 231.795 111.037 255.396 190.79 112.362 
254.992 190.779 111.995 256.149 190.789 111.649 256.475 190.875 112.063 
256.909 191.009 111.948 253.718 191.086 112.276 258.756 191.737 110.928 
252.072 191.963 112.112 260.441 193.094 110.926 250.418 193.735 111.947 
237.732 203.203 112.453 218.938 205.806 111.689 218.278 206.041 111.415 
[...]
POINT_DATA 1263
COLOR_SCALARS scalars 3
0.596078 0.839216 0.976471 0.596078 0.839216 0.976471 0.596078 0.839216 0.976471 
0.596078 0.839216 0.976471 0.596078 0.839216 0.976471 
0.596078 0.839216 0.976471 0.596078 0.839216 0.976471 
0.596078 0.839216 0.976471 0.596078 0.839216 0.976471 
0.596078 0.839216 0.976471 0.596078 0.839216 0.976471 
0.596078 0.839216 0.976471 0.596078 0.839216 0.976471 
0.596078 0.839216 0.976471 0.596078 0.839216 0.976471 
0.596078 0.839216 0.976471 0.596078 0.839216 0.976471 
0.596078 0.839216 0.976471 0.596078 0.839216 0.976471 
0.596078 0.839216 0.976471 0.596078 0.839216 0.976471 
0.596078 0.839216 0.976471 0.596078 0.839216 0.976471 
0.596078 0.839216 0.976471 0.596078 0.839216 0.976471 
0.596078 0.839216 0.976471 0.596078 0.839216 0.976471 
0.596078 0.839216 0.976471 0.596078 0.839216 0.976471 
0.596078 0.839216 0.976471 0.596078 0.839216 0.976471 
0.596078 0.839216 0.976471 0.596078 0.839216 0.976471 
0.596078 0.839216 0.976471 0.596078 0.839216 0.976471 
0.596078 0.839216 0.976471 0.596078 0.839216 0.976471 
0.596078 0.839216 0.976471 0.596078 0.839216 0.976471 
0.596078 0.839216 0.976471 0.596078 0.839216 0.976471 
0.596078 0.839216 0.976471 0.596078 0.839216 0.976471 
0.596078 0.839216 0.976471 0.596078 0.839216 0.976471 
0.596078 0.839216 0.976471 0.596078 0.839216 0.976471 
0.596078 0.839216 0.976471 0.596078 0.839216 0.976471 
0.596078 0.839216 0.976471 0.596078 0.839216 0.976471 
0.596078 0.839216 0.976471 0.596078 0.839216 0.976471 
0.596078 0.839216 0.976471 0.596078 0.839216 0.976471 
0.596078 0.839216 0.976471 0.596078 0.839216 0.976471 
0.596078 0.839216 0.976471 0.596078 0.839216 0.976471 
0.596078 0.839216 0.976471 0.596078 0.839216 0.976471 
0.596078 0.839216 0.976471 0.596078 0.839216 0.976471 
0.596078 0.839216 0.976471 0.596078 0.839216 0.976471 
0.596078 0.839216 0.976471 0.596078 0.839216 0.976471 
0.596078 0.839216 0.976471 0.596078 0.839216 0.976471 
0.596078 0.839216 0.976471 0.596078 0.839216 0.976471 
0.596078 0.839216 0.976471 0.596078 0.839216 0.976471 
0.596078 0.839216 0.976471 0.596078 0.839216 0.976471 
0.596078 0.839216 0.976471 0.596078 0.839216 0.976471 
0.596078 0.839216 0.976471 0.596078 0.839216 0.976471 
0.596078 0.839216 0.976471 0.596078 0.839216 0.976471 
0.596078 0.839216 0.976471 0.596078 0.839216 0.976471 
0.596078 0.839216 0.976471 0.596078 0.839216 0.976471 
0.596078 0.839216 0.976471 0.596078 0.839216 0.976471 
0.596078 0.839216 0.976471 0.596078 0.839216 0.976471 
0.596078 0.839216 0.976471 0.596078 0.839216 0.976471 
0.596078 0.839216 0.976471 0.596078 0.839216 0.976471 
0.596078 0.839216 0.976471 0.596078 0.839216 0.976471 
0.596078 0.839216 0.976471 0.596078 0.839216 0.976471 
0.596078 0.839216 0.976471 0.596078 0.839216 0.976471 
0.596078 0.839216 0.976471 0.596078 0.839216 0.976471 
0.596078 0.839216 0.976471 0.596078 0.839216 0.976471 
0.596078 0.839216 0.976471 0.596078 0.839216 0.976471 
0.596078 0.839216 0.976471 0.596078 0.839216 0.976471 
0.596078 0.839216 0.976471 0.596078 0.839216 0.976471 
0.596078 0.839216 0.976471 0.596078 0.839216 0.976471 
0.596078 0.839216 0.976471 0.596078 0.839216 0.976471 
0.596078 0.839216 0.976471 0.596078 0.839216 0.976471 
0.596078 0.839216 0.976471 0.596078 0.839216 0.976471 
0.596078 0.839216 0.976471 0.596078 0.839216 0.976471 
0.596078 0.839216 0.976471 0.596078 0.839216 0.976471 
0.596078 0.839216 0.976471 0.596078 0.839216 0.976471 
0.596078 0.839216 0.976471 0.596078 0.839216 0.976471 
0.596078 0.839216 0.976471 0.596078 0.839216 0.976471 
0.596078 0.839216 0.976471 0.596078 0.839216 0.976471 
0.596078 0.839216 0.976471 0.596078 0.839216 0.976471 
0.596078 0.839216 0.976471 0.596078 0.839216 0.976471 
0.596078 0.839216 0.976471 0.596078 0.839216 0.976471 
0.596078 0.839216 0.976471 0.596078 0.839216 0.976471 
0.596078 0.839216 0.976471 0.596078 0.839216 0.976471 
0.596078 0.839216 0.976471 0.596078 0.839216 0.976471 
0.596078 0.839216 0.976471 0.596078 0.839216 0.976471 
0.596078 0.839216 0.976471 0.596078 0.839216 0.976471 
0.596078 0.839216 0.976471 0.596078 0.839216 0.976471 
0.596078 0.839216 0.976471 0.596078 0.839216 0.976471 
0.596078 0.839216 0.976471 0.596078 0.839216 0.976471 
0.596078 0.839216 0.976471 0.596078 0.839216 0.976471 
0.596078 0.839216 0.976471 0.596078 0.839216 0.976471 
0.596078 0.839216 0.976471 0.596078 0.839216 0.976471 
0.596078 0.839216 0.976471 0.596078 0.839216 0.976471 
0.596078 0.839216 0.976471 0.596078 0.839216 0.976471 
0.596078 0.839216 0.976471 0.596078 0.839216 0.976471 
0.596078 0.839216 0.976471 0.596078 0.839216 0.976471 
0.596078 0.839216 0.976471 0.596078 0.839216 0.976471 
0.596078 0.839216 0.976471 0.596078 0.839216 0.976471 
0.596078 0.839216 0.976471 0.596078 0.839216 0.976471 
0.596078 0.839216 0.976471 0.596078 0.839216 0.976471 
0.596078 0.839216 0.976471 0.596078 0.839216 0.976471 
0.596078 0.839216 0.976471 0.596078 0.839216 0.976471 
0.596078 0.839216 0.976471 0.596078 0.839216 0.976471 
0.596078 0.839216 0.976471 0.596078 0.839216 0.976471 
0.596078 0.839216 0.976471 0.596078 0.839216 0.976471 
0.596078 0.839216 0.976471 0.596078 0.839216 0.976471 
0.596078 0.839216 0.976471 0.596078 0.839216 0.976471 
0.596078 0.839216 0.976471 0.596078 0.839216 0.976471 
0.596078 0.839216 0.976471 0.596078 0.839216 0.976471 
0.596078 0.839216 0.976471 0.596078 0.839216 0.976471 
0.596078 0.839216 0.976471 0.596078 0.839216 0.976471 
0.596078 0.839216 0.976471 0.596078 0.839216 0.976471 
0.596078 0.839216 0.976471 0.596078 0.839216 0.976471 
0.596078 0.839216 0.976471 0.596078 0.839216 0.976471 
0.596078 0.839216 0.976471 0.596078 0.839216 0.976471 
0.596078 0.839216 0.976471 0.596078 0.839216 0.976471 
0.596078 0.839216 0.976471 0.596078 0.839216 0.976471 
0.596078 0.839216 0.976471 0.596078 0.839216 0.976471 
0.596078 0.839216 0.976471 0.596078 0.839216 0.976471 
0.596078 0.839216 0.976471 0.596078 0.839216 0.976471 
0.596078 0.839216 0.976471 0.596078 0.839216 0.976471 
0.596078 0.839216 0.976471 0.596078 0.839216 0.976471 
0.596078 0.839216 0.976471 0.596078 0.839216 0.976471 
0.596078 0.839216 0.976471 0.596078 0.839216 0.976471 
0.596078 0.839216 0.976471 0.596078 0.839216 0.976471 
0.596078 0.839216 0.976471 0.596078 0.839216 0.976471 
0.596078 0.839216 0.976471 0.596078 0.839216 0.976471 
0.596078 0.839216 0.976471 0.596078 0.839216 0.976471 
0.596078 0.839216 0.976471 0.596078 0.839216 0.976471 
0.596078 0.839216 0.976471 0.596078 0.839216 0.976471 
0.596078 0.839216 0.976471 0.596078 0.839216 0.976471 
0.596078 0.839216 0.976471 0.596078 0.839216 0.976471 
0.596078 0.839216 0.976471 0.596078 0.839216 0.976471 
0.596078 0.839216 0.976471 0.596078 0.839216 0.976471 
0.596078 0.839216 0.976471 0.596078 0.839216 0.976471 
0.596078 0.839216 0.976471 0.596078 0.839216 0.976471 
0.596078 0.839216 0.976471 0.596078 0.839216 0.976471 
0.596078 0.839216 0.976471 0.596078 0.839216 0.976471 
0.596078 0.839216 0.976471 0.596078 0.839216 0.976471 
0.596078 0.839216 0.976471 0.596078 0.839216 0.976471 
0.596078 0.839216 0.976471 0.596078 0.839216 0.976471 
0.596078 0.839216 0.976471 0.596078 0.839216 0.976471 
0.596078 0.839216 0.976471 0.596078 0.839216 0.976471 
0.596078 0.839216 0.976471 0.596078 0.839216 0.976471 
0.596078 0.839216 0.976471 0.596078 0.839216 0.976471 
0.596078 0.839216 0.976471 0.596078 0.839216 0.976471 
0.596078 0.839216 0.976471 0.596078 0.839216 0.976471 
0.596078 0.839216 0.976471 0.596078 0.839216 0.976471 
0.596078 0.839216 0.976471 0.596078 0.839216 0.976471 
0.596078 0.839216 0.976471 0.596078 0.839216 0.976471 
0.596078 0.839216 0.976471 0.596078 0.839216 0.976471 
0.596078 0.839216 0.976471 0.596078 0.839216 0.976471 
0.596078 0.839216 0.976471 0.596078 0.839216 0.976471 
0.596078 0.839216 0.976471 0.596078 0.839216 0.976471 
0.596078 0.839216 0.976471 0.596078 0.839216 0.976471 
0.596078 0.839216 0.976471 0.596078 0.839216 0.976471 
0.596078 0.839216 0.976471 0.596078 0.839216 0.976471 
0.596078 0.839216 0.976471 0.596078 0.839216 0.976471 
0.596078 0.839216 0.976471 0.596078 0.839216 0.976471 
0.596078 0.839216 0.976471 0.596078 0.839216 0.976471 
0.596078 0.839216 0.976471 0.596078 0.839216 0.976471 
0.596078 0.839216 0.976471 0.596078 0.839216 0.976471 
0.596078 0.839216 0.976471 0.596078 0.839216 0.976471 
0.596078 0.839216 0.976471 0.596078 0.839216 0.976471 
0.596078 0.839216 0.976471 0.596078 0.839216 0.976471 
0.596078 0.839216 0.976471 0.596078 0.839216 0.976471 
0.596078 0.839216 0.976471 0.596078 0.839216 0.976471 
0.596078 0.839216 0.976471 0.596078 0.839216 0.976471 
0.596078 0.839216 0.976471 0.596078 0.839216 0.976471 
0.596078 0.839216 0.976471 0.596078 0.839216 0.976471 
0.596078 0.839216 0.976471 0.596078 0.839216 0.976471 
0.596078 0.839216 0.976471 0.596078 0.839216 0.976471 
0.596078 0.839216 0.976471 0.596078 0.839216 0.976471 
0.596078 0.839216 0.976471 0.596078 0.839216 0.976471 
0.596078 0.839216 0.976471 0.596078 0.839216 0.976471 
0.596078 0.839216 0.976471 0.596078 0.839216 0.976471 
0.596078 0.839216 0.976471 0.596078 0.839216 0.976471 
0.596078 0.839216 0.976471 0.596078 0.839216 0.976471 
0.596078 0.839216 0.976471 0.596078 0.839216 0.976471 
0.596078 0.839216 0.976471 0.596078 0.839216 0.976471 
0.596078 0.839216 0.976471 0.596078 0.839216 0.976471 
0.596078 0.839216 0.976471 0.596078 0.839216 0.976471 
0.596078 0.839216 0.976471 0.596078 0.839216 0.976471 
0.596078 0.839216 0.976471 0.596078 0.839216 0.976471 
0.596078 0.839216 0.976471 0.596078 0.839216 0.976471 
0.596078 0.839216 0.976471 0.596078 0.839216 0.976471 
0.596078 0.839216 0.976471 0.596078 0.839216 0.976471 
0.596078 0.839216 0.976471 0.596078 0.839216 0.976471 
0.596078 0.839216 0.976471 0.596078 0.839216 0.976471 
0.596078 0.839216 0.976471 0.596078 0.839216 0.976471 
0.596078 0.839216 0.976471 0.596078 0.839216 0.976471 
0.596078 0.839216 0.976471 0.596078 0.839216 0.976471 
0.596078 0.839216 0.976471 0.596078 0.839216 0.976471 
0.596078 0.839216 0.976471 0.596078 0.839216 0.976471 
0.596078 0.839216 0.976471 0.596078 0.839216 0.976471 
0.596078 0.839216 0.976471 0.596078 0.839216 0.976471 
0.596078 0.839216 0.976471 0.596078 0.839216 0.976471 
0.596078 0.839216 0.976471 0.596078 0.839216 0.976471 
0.596078 0.839216 0.976471 0.596078 0.839216 0.976471 
0.596078 0.839216 0.976471 0.596078 0.839216 0.976471 
0.596078 0.839216 0.976471 0.596078 0.839216 0.976471 
0.596078 0.839216 0.976471 0.596078 0.839216 0.976471 
0.596078 0.839216 0.976471 0.596078 0.839216 0.976471 
0.596078 0.839216 0.976471 0.596078 0.839216 0.976471 
0.596078 0.839216 0.976471 0.596078 0.839216 0.976471 
0.596078 0.839216 0.976471 0.596078 0.839216 0.976471 
0.596078 0.839216 0.976471 0.596078 0.839216 0.976471 
0.596078 0.839216 0.976471 0.596078 0.839216 0.976471 
0.596078 0.839216 0.976471 0.596078 0.839216 0.976471 
0.596078 0.839216 0.976471 0.596078 0.839216 0.976471 
0.596078 0.839216 0.976471 0.596078 0.839216 0.976471 
0.596078 0.839216 0.976471 0.596078 0.839216 0.976471 
0.596078 0.839216 0.976471 0.596078 0.839216 0.976471 
0.596078 0.839216 0.976471 0.596078 0.839216 0.976471 
0.596078 0.839216 0.976471 0.596078 0.839216 0.976471 
0.596078 0.839216 0.976471 0.596078 0.839216 0.976471 
0.596078 0.839216 0.976471 0.596078 0.839216 0.976471 
0.596078 0.839216 0.976471 0.596078 0.839216 0.976471 
0.596078 0.839216 0.976471 0.596078 0.839216 0.976471 
0.596078 0.839216 0.976471 0.596078 0.839216 0.976471 
0.596078 0.839216 0.976471 0.596078 0.839216 0.976471 
0.596078 0.839216 0.976471 0.596078 0.839216 0.976471 
0.596078 0.839216 0.976471 0.596078 0.839216 0.976471 
0.596078 0.839216 0.976471 0.596078 0.839216 0.976471 
0.596078 0.839216 0.976471 0.596078 0.839216 0.976471 
0.596078 0.839216 0.976471 0.596078 0.839216 0.976471 
0.596078 0.839216 0.976471 0.596078 0.839216 0.976471 
0.596078 0.839216 0.976471 0.596078 0.839216 0.976471 
0.596078 0.839216 0.976471 0.596078 0.839216 0.976471 
0.596078 0.839216 0.976471 0.596078 0.839216 0.976471 
0.596078 0.839216 0.976471 0.596078 0.839216 0.976471 
0.596078 0.839216 0.976471 0.596078 0.839216 0.976471 
0.596078 0.839216 0.976471 0.596078 0.839216 0.976471 
0.596078 0.839216 0.976471 0.596078 0.839216 0.976471 
0.596078 0.839216 0.976471 0.596078 0.839216 0.976471 
0.596078 0.839216 0.976471 0.596078 0.839216 0.976471 
0.596078 0.839216 0.976471 0.596078 0.839216 0.976471 
0.596078 0.839216 0.976471 0.596078 0.839216 0.976471 
0.596078 0.839216 0.976471 0.596078 0.839216 0.976471 
0.596078 0.839216 0.976471 0.596078 0.839216 0.976471 
0.596078 0.839216 0.976471 0.596078 0.839216 0.976471 
0.596078 0.839216 0.976471 0.596078 0.839216 0.976471 
0.596078 0.839216 0.976471 0.596078 0.839216 0.976471 
0.596078 0.839216 0.976471 0.596078 0.839216 0.976471 
0.596078 0.839216 0.976471 0.596078 0.839216 0.976471 
0.596078 0.839216 0.976471 0.596078 0.839216 0.976471 
0.596078 0.839216 0.976471 0.596078 0.839216 0.976471 
0.596078 0.839216 0.976471 0.596078 0.839216 0.976471 
0.596078 0.839216 0.976471 0.596078 0.839216 0.976471 
0.596078 0.839216 0.976471 0.596078 0.839216 0.976471 
0.596078 0.839216 0.976471 0.596078 0.839216 0.976471 
0.596078 0.839216 0.976471 0.596078 0.839216 0.976471 
0.596078 0.839216 0.976471 0.596078 0.839216 0.976471 
0.596078 0.839216 0.976471 0.596078 0.839216 0.976471 
0.596078 0.839216 0.976471 0.596078 0.839216 0.976471 
0.596078 0.839216 0.976471 0.596078 0.839216 0.976471 
0.596078 0.839216 0.976471 0.596078 0.839216 0.976471 
0.596078 0.839216 0.976471 0.596078 0.839216 0.976471 
0.596078 0.839216 0.976471 0.596078 0.839216 0.976471 
0.596078 0.839216 0.976471 0.596078 0.839216 0.976471 
0.596078 0.839216 0.976471 0.596078 0.839216 0.976471 
0.596078 0.839216 0.976471 0.596078 0.839216 0.976471 
0.596078 0.839216 0.976471 0.596078 0.839216 0.976471 
0.596078 0.839216 0.976471 0.596078 0.839216 0.976471 
0.596078 0.839216 0.976471 0.596078 0.839216 0.976471 
0.596078 0.839216 0.976471 0.596078 0.839216 0.976471 
0.596078 0.839216 0.976471 0.596078 0.839216 0.976471 
0.596078 0.839216 0.976471 0.596078 0.839216 0.976471 
0.596078 0.839216 0.976471 0.596078 0.839216 0.976471 
0.596078 0.839216 0.976471 0.596078 0.839216 0.976471 
0.596078 0.839216 0.976471 0.596078 0.839216 0.976471 
0.596078 0.839216 0.976471 0.596078 0.839216 0.976471 
0.596078 0.839216 0.976471 0.596078 0.839216 0.976471 
0.596078 0.839216 0.976471 0.596078 0.839216 0.976471 
0.596078 0.839216 0.976471 0.596078 0.839216 0.976471 
0.596078 0.839216 0.976471 0.596078 0.839216 0.976471 
0.596078 0.839216 0.976471 0.596078 0.839216 0.976471 
0.596078 0.839216 0.976471 0.596078 0.839216 0.976471 
0.596078 0.839216 0.976471 0.596078 0.839216 0.976471 
0.596078 0.839216 0.976471 0.596078 0.839216 0.976471 
0.596078 0.839216 0.976471 0.596078 0.839216 0.976471 
0.596078 0.839216 0.976471 0.596078 0.839216 0.976471 
0.596078 0.839216 0.976471 0.596078 0.839216 0.976471 
0.596078 0.839216 0.976471 0.596078 0.839216 0.976471 
0.596078 0.839216 0.976471 0.596078 0.839216 0.976471 
0.596078 0.839216 0.976471 0.596078 0.839216 0.976471 
0.596078 0.839216 0.976471 0.596078 0.839216 0.976471 
0.596078 0.839216 0.976471 0.596078 0.839216 0.976471 
0.596078 0.839216 0.976471 0.596078 0.839216 0.976471 
0.596078 0.839216 0.976471 0.596078 0.839216 0.976471 
0.596078 0.839216 0.976471 0.596078 0.839216 0.976471 
0.596078 0.839216 0.976471 0.596078 0.839216 0.976471 
0.596078 0.839216 0.976471 0.596078 0.839216 0.976471 
0.596078 0.839216 0.976471 0.596078 0.839216 0.976471 
0.596078 0.839216 0.976471 0.596078 0.839216 0.976471 
0.596078 0.839216 0.976471 0.596078 0.839216 0.976471 
0.596078 0.839216 0.976471 0.596078 0.839216 0.976471 
0.596078 0.839216 0.976471 0.596078 0.839216 0.976471 
0.596078 0.839216 0.976471 0.596078 0.839216 0.976471 
0.596078 0.839216 0.976471 0.596078 0.839216 0.976471 
0.596078 0.839216 0.976471 0.596078 0.839216 0.976471 
0.596078 0.839216 0.976471 0.596078 0.839216 0.976471 
0.596078 0.839216 0.976471 0.596078 0.839216 0.976471 
0.596078 0.839216 0.976471 0.596078 0.839216 0.976471 
0.596078 0.839216 0.976471 0.596078 0.839216 0.976471 
0.596078 0.839216 0.976471 0.596078 0.839216 0.976471 
0.596078 0.839216 0.976471 0.596078 0.839216 0.976471 
0.596078 0.839216 0.976471 0.596078 0.839216 0.976471 
0.596078 0.839216 0.976471 0.596078 0.839216 0.976471 
0.596078 0.839216 0.976471 0.596078 0.839216 0.976471 
0.596078 0.839216 0.976471 0.596078 0.839216 0.976471 
0.596078 0.839216 0.976471 0.596078 0.839216 0.976471 
0.596078 0.839216 0.976471 0.596078 0.839216 0.976471 
0.596078 0.839216 0.976471 0.596078 0.839216 0.976471 
0.596078 0.839216 0.976471 0.596078 0.839216 0.976471 
0.596078 0.839216 0.976471 0.596078 0.839216 0.976471 
0.596078 0.839216 0.976471 0.596078 0.839216 0.976471 
0.596078 0.839216 0.976471 0.596078 0.839216 0.976471 
0.596078 0.839216 0.976471 0.596078 0.839216 0.976471 
0.596078 0.839216 0.976471 0.596078 0.839216 0.976471 
0.596078 0.839216 0.976471 0.596078 0.839216 0.976471 
0.596078 0.839216 0.976471 0.596078 0.839216 0.976471 
0.596078 0.839216 0.976471 0.596078 0.839216 0.976471 
0.596078 0.839216 0.976471 0.596078 0.839216 0.976471 
0.596078 0.839216 0.976471 0.596078 0.839216 0.976471 
0.596078 0.839216 0.976471 0.596078 0.839216 0.976471 
0.596078 0.839216 0.976471 0.596078 0.839216 0.976471 
0.596078 0.839216 0.976471 0.596078 0.839216 0.976471 
0.596078 0.839216 0.976471 0.596078 0.839216 0.976471 
0.596078 0.839216 0.976471 0.596078 0.839216 0.976471 
0.596078 0.839216 0.976471 0.596078 0.839216 0.976471 
0.596078 0.839216 0.976471 0.596078 0.839216 0.976471 
0.596078 0.839216 0.976471 0.596078 0.839216 0.976471 
0.596078 0.839216 0.976471 0.596078 0.839216 0.976471 
0.596078 0.839216 0.976471 0.596078 0.839216 0.976471 
0.596078 0.839216 0.976471 0.596078 0.839216 0.976471 
0.596078 0.839216 0.976471 0.596078 0.839216 0.976471 
0.596078 0.839216 0.976471 0.596078 0.839216 0.976471 
0.596078 0.839216 0.976471 0.596078 0.839216 0.976471 
0.596078 0.839216 0.976471 0.596078 0.839216 0.976471 
0.596078 0.839216 0.976471 0.596078 0.839216 0.976471 
0.596078 0.839216 0.976471 0.596078 0.839216 0.976471 
0.596078 0.839216 0.976471 0.596078 0.839216 0.976471 
0.596078 0.839216 0.976471 0.596078 0.839216 0.976471 
0.596078 0.839216 0.976471 0.596078 0.839216 0.976471 
0.596078 0.839216 0.976471 0.596078 0.839216 0.976471 
0.596078 0.839216 0.976471 0.596078 0.839216 0.976471 
0.596078 0.839216 0.976471 0.596078 0.839216 0.976471 
0.596078 0.839216 0.976471 0.596078 0.839216 0.976471 
0.596078 0.839216 0.976471 0.596078 0.839216 0.976471 
0.596078 0.839216 0.976471 0.596078 0.839216 0.976471 
0.596078 0.839216 0.976471 0.596078 0.839216 0.976471 
0.596078 0.839216 0.976471 0.596078 0.839216 0.976471 
0.596078 0.839216 0.976471 0.596078 0.839216 0.976471 
0.596078 0.839216 0.976471 0.596078 0.839216 0.976471 
0.596078 0.839216 0.976471 0.596078 0.839216 0.976471 
0.596078 0.839216 0.976471 0.596078 0.839216 0.976471 
0.596078 0.839216 0.976471 0.596078 0.839216 0.976471 
0.596078 0.839216 0.976471 0.596078 0.839216 0.976471 
0.596078 0.839216 0.976471 0.596078 0.839216 0.976471 
0.596078 0.839216 0.976471 0.596078 0.839216 0.976471 
0.596078 0.839216 0.976471 0.596078 0.839216 0.976471 
0.596078 0.839216 0.976471 0.596078 0.839216 0.976471 
0.596078 0.839216 0.976471 0.596078 0.839216 0.976471 
0.596078 0.839216 0.976471 0.596078 0.839216 0.976471 
0.596078 0.839216 0.976471 0.596078 0.839216 0.976471 
0.596078 0.839216 0.976471 0.596078 0.839216 0.976471 
0.596078 0.839216 0.976471 0.596078 0.839216 0.976471 
0.596078 0.839216 0.976471 0.596078 0.839216 0.976471 
0.596078 0.839216 0.976471 0.596078 0.839216 0.976471 
0.596078 0.839216 0.976471 0.596078 0.839216 0.976471 
0.596078 0.839216 0.976471 0.596078 0.839216 0.976471 
0.596078 0.839216 0.976471 0.596078 0.839216 0.976471 
0.596078 0.839216 0.976471 0.596078 0.839216 0.976471 
0.596078 0.839216 0.976471 0.596078 0.839216 0.976471 
0.596078 0.839216 0.976471 0.596078 0.839216 0.976471 