# vtk DataFile Version 4.2
vtk output
ASCII
DATASET POLYDATA
POINTS 1014 float
336.085 161.571 28.6998 336.043 161.432 28.8541 336.343 161.511 28.7767 
334.21 162.46 28.492 331.418 163.705 28.2946 332.63 163.66 28.0809 
332.966 163.718 28.0724 326.242 165.404 28.6401 327.964 165.51 28.0472 
326.266 166.472 27.9692 328.501 165.999 27.8581 325.848 166.99 27.9203 
320.427 168.454 28.525 320.932 168.43 28.3535 338.529 160.491 29.6401 
338.233 160.663 29.4399 338.729 161.231 29.1772 339.126 160.749 29.6284 
336.991 161.712 28.7585 338.528 161.69 28.9594 339.705 161.388 29.6551 
335.056 162.477 28.4945 334.65 161.914 28.9499 331.222 163.054 29.1195 
332.715 162.849 28.7677 338.282 163.019 28.6777 327.801 164.809 28.6934 
329.882 165.537 27.9797 332.75 164.893 27.9981 331.774 165.897 28.0426 
329.803 166.868 28.0142 333.206 166.16 28.2643 321.047 167.757 28.8724 
330.206 167.442 28.1996 317.606 169.664 29.0722 315.553 170.553 29.3122 
316.159 169.766 29.4805 318.196 170.086 28.8258 321.445 170.215 28.4828 
338.576 160.293 30.0116 339.02 160.331 30.28 337.094 160.758 29.4364 
339.326 160.622 29.9951 339.826 160.942 30.1912 333.32 161.942 29.675 
341.077 162.402 30.3866 340.778 163.135 29.9159 318.983 168.322 29.4357 
330.745 168.777 28.829 312.597 170.424 30.4474 312.022 170.86 30.2478 
311.785 171.432 29.9755 312.587 171.554 29.755 318.224 171.204 28.9119 
307.623 172.608 30.4886 311.139 172.076 29.8857 313.864 171.915 29.5182 
312.443 172.587 29.7076 314.323 172.48 29.5436 338.15 160.171 30.2382 
340.034 160.762 30.9169 329.859 163.069 30.1963 340.834 165.239 30.1474 
340.233 165.891 30.02 320.705 167.086 29.9644 337.104 166.892 29.3508 
312.334 170.06 31.0524 303.318 173.241 31.466 304.659 173.498 30.9524 
310.112 173.101 29.9472 311.946 173.209 29.8498 315.762 173.053 29.671 
301.062 174.387 31.3902 300.489 174.316 31.6814 305.126 174.006 30.7234 
307.966 173.858 30.3188 301.23 174.803 31.2046 338.594 159.98 31.3167 
333.013 161.468 31.2187 341.289 162.061 31.1168 341.878 162.947 31.5806 
342.818 165.39 32.1298 342.464 166.097 31.7139 311.453 170.224 31.2729 
308.47 171.168 31.4292 301.753 173.516 31.7681 299.684 174.235 32.1944 
298.968 174.803 31.9996 297.571 175.678 31.8789 299.597 175.585 31.4372 
305.962 175.091 30.7004 296.401 176.463 31.7615 300.943 175.996 31.1809 
307.68 175.86 30.9062 290.657 177.744 32.5638 290.277 177.926 32.7903 
291.173 177.633 32.3609 292.637 177.328 32.0863 291.406 178.061 32.1816 
294.05 177.632 31.8117 290.423 178.436 32.5068 290.557 178.59 32.4316 
291.254 178.556 32.2342 292.713 178.36 31.982 294.308 178.193 31.8106 
343.097 165.272 32.6846 342.79 167.794 32.6993 343.174 167.521 32.9523 
341.924 168.496 32.5013 337.971 170.011 31.6523 308.237 170.985 31.9579 
305.255 172.106 32.001 302.991 172.65 32.3987 297.67 174.625 32.7567 
292.191 176.515 32.8175 293.365 176.376 32.4275 289.687 178.465 33.4342 
291.525 179.036 32.3482 295.998 178.824 31.877 290.64 179.457 32.8634 
292.14 179.529 32.487 339.245 160.014 33.2834 341.027 161.279 33.0735 
341.875 162.401 32.8749 342.559 163.569 32.9737 343.62 166.293 33.4871 
344.253 167.731 34.2355 343.596 168.683 34.2021 344.002 168.279 34.3725 
307.512 170.927 32.8912 308.93 170.356 33.2947 339.832 171.059 33.7504 
302.214 172.564 33.4111 297.785 174.228 33.3073 289.661 177.684 33.7547 
289.397 177.811 34.0905 310.358 177.585 31.7406 289.49 178.086 33.7554 
308.04 178.465 31.9882 289.363 178.488 33.8964 289.901 179.566 33.6989 
304.828 179.94 32.3011 335.68 160.188 33.2772 343.541 165.245 34.1144 
344.284 167.473 34.3376 344.351 167.748 34.5445 308.269 170.427 34.3067 
300.542 173.007 33.9468 335.096 173.6 34.0405 289.032 178.113 34.8672 
289.194 178.69 34.2665 326.263 178.234 34.625 328.772 177.289 34.9385 
316.723 180.749 33.5968 316.241 182.91 34.862 297.27 185.864 34.0602 
298.168 187.276 34.0147 308.91 186.772 34.9151 294.262 188.947 35.3574 
293.351 190.36 35.4856 294.754 190.14 34.9822 303.358 188.81 34.7123 
292.741 191.087 35.7058 292.393 191.157 35.8883 295.761 190.256 34.8751 
296.518 190.302 34.9513 299.322 189.934 35.1066 300.271 189.858 35.2855 
292.455 191.345 35.8975 292.235 191.304 36.1306 292.341 191.488 36.1202 
292.739 191.379 35.7972 295.018 190.916 35.2267 296.469 190.814 35.2721 
289 193.009 34.0174 289 193.009 34.0175 289 193.009 34.0175 
289 193.009 34.0175 294.174 191.428 35.71 295.529 191.182 35.4822 
289 193.009 34.0175 338.688 159.924 34.3356 335.074 160.547 34.546 
344.385 167.789 34.9181 343.241 169.562 35.4355 306.675 170.932 34.5717 
339.725 171.676 35.1277 297.163 174.043 34.5013 294.555 174.771 35.4626 
293.891 175.082 34.8115 290.29 176.404 35.3952 290.974 175.993 35.4394 
289.101 177.734 35.2273 288.776 178.98 35.7862 326.452 178.659 35.3086 
320.629 181.248 35.142 307.981 188.045 35.5245 293.227 189.771 35.8178 
293.064 190.191 35.7519 306.322 189.01 35.763 292.28 191.078 36.0426 
292.325 190.874 36.1634 292.602 190.461 36.1567 292.13 191.339 36.533 
296.694 191.13 35.6701 298.967 190.631 35.7424 289 193.009 34.0175 
294.723 191.645 36.0778 337.509 160.009 35.328 337.995 160.011 35.2799 
334.421 161.107 35.5798 344.31 167.022 36.0181 313.286 169.012 36.044 
344.148 168.276 36.1948 307.944 170.546 35.7143 301.845 172.391 35.7504 
288.967 177.797 35.9587 288.627 178.921 36.5597 327.231 178.783 36.3589 
288.924 180.094 35.975 323.196 180.745 36.2517 294.024 183.505 35.0202 
292.388 190.348 36.8568 292.27 190.784 36.5715 292.168 191.518 36.7097 
292.14 191.105 36.8462 297.571 191.538 36.7729 292.726 191.791 36.8277 
337.347 160.108 35.5484 338.038 160.201 35.7738 338.807 160.485 35.9141 
337.772 160.339 36.0073 335.884 160.811 35.9963 343.415 165.189 36.9242 
344.195 166.632 36.4442 344.228 167.802 36.7433 343.865 168.802 36.7318 
343.19 169.673 36.7022 341.676 170.806 36.6739 290.619 176.184 37.3846 
291.29 175.825 37.1164 288.643 178.473 36.9929 309.86 187.809 36.5521 
306.522 189.525 36.7655 292.25 191.589 37.0396 292.169 191.176 37.5597 
293.811 192.048 37.4834 334.914 161.673 36.7773 338.192 161.431 37.2145 
334.322 162.917 37.83 341.725 163.618 37.558 342.698 164.568 37.4926 
343.926 168.303 38.0288 338.415 172.652 38.1987 288.798 178.025 37.4903 
328.139 178.596 38.2748 288.503 180.688 38.5243 322.073 181.91 37.8237 
288.902 182.271 38.2831 293.143 185.341 36.6247 292.724 187.468 37.5135 
292.173 190.711 38.2006 292.272 189.832 37.8502 340.025 163.158 38.1819 
341.914 164.453 38.2969 326.127 165.773 37.8044 343.66 166.48 38.3291 
343.927 166.942 38.2468 325.261 168.265 39.2971 342.927 169.695 38.2957 
308.4 171.227 38.0898 339.317 172.036 38.8048 289.751 177.101 38.7393 
291.036 176.338 39.0972 288.497 179.482 38.6808 325.532 180.08 38.8378 
288.558 181.656 39.4833 288.809 182.517 38.8263 317.715 184.341 38.9897 
290.5 185.491 38.7285 291.739 187.058 38.5875 291.784 187.472 38.7273 
309.83 188.75 38.9659 292.227 189.475 38.1782 292.112 190.448 39.0101 
341.086 163.73 38.1996 343.349 166.635 38.9464 335.495 166.858 40.0989 
343.812 167.599 38.954 310.442 171.149 38.6777 305.122 172.974 39.3649 
315.666 171.864 39.8579 331.589 176.536 39.8724 288.656 179.061 39.0758 
327.284 178.95 39.3887 327.834 178.477 39.8695 324.12 180.833 40.0667 
288.628 181.979 40.0731 288.706 182.634 40.2739 289.747 185.396 39.8279 
291.566 188.358 39.6476 309.766 188.929 39.6609 291.834 189.435 39.7014 
292.34 190.986 40.3308 301.359 191.499 39.8256 342.083 166.183 39.5577 
340.448 166.914 40.309 342.109 166.865 39.8958 342.746 167.105 39.7527 
343.259 167.131 39.4088 343.603 167.436 39.2749 343.633 167.798 39.4137 
343.585 168.128 39.5356 340.893 168.226 40.5966 337.321 169.496 40.9633 
342.55 169.395 39.8505 342.923 168.956 39.9721 341.524 170.221 39.8566 
342.038 169.698 40.091 338.877 171.675 40.1302 336.051 173.761 39.8399 
292.912 176.1 40.092 290.983 177.01 40.2848 289.21 178.42 39.7603 
331.11 176.625 40.3117 331.43 176.538 40.3648 331.643 176.429 40.2667 
331.996 176.064 40.2863 289.31 178.754 40.1897 329.742 177.467 39.8843 
331.536 176.498 40.3552 288.768 180.699 40.3044 322.518 181.85 39.9787 
288.86 182.926 40.7856 318.358 184.056 40.1283 289.215 184.754 40.5912 
290.066 186.414 40.45 290.873 187.412 40.1838 309.836 188.953 40.2528 
291.756 189.447 40.264 342.414 168.074 40.2269 342.984 168.389 40.1178 
342.371 168.957 40.3165 342.906 168.702 40.2738 343.048 168.62 40.2269 
343.117 168.663 40.0804 341.473 169.642 40.4541 342.104 169.376 40.4453 
342.271 169.296 40.4156 342.278 169.391 40.2907 342.906 168.804 40.2228 
338.67 170.932 40.7758 340.166 170.266 40.773 342.048 169.516 40.3844 
334.516 171.973 41.3298 337.056 171.597 41.1056 339.609 170.802 40.675 
337.303 172.596 40.5649 327.729 173.762 41.4281 333.995 172.973 41.3378 
334.633 174.342 40.3331 291.58 177.219 40.7563 333.157 174.931 40.7011 
290.254 178.011 40.6886 290.69 177.931 40.9111 291.379 177.782 41.1034 
331.52 176.398 40.409 289.104 180.206 40.6684 326.776 178.577 40.7642 
327.228 178.056 40.9748 289.502 180.604 41.2271 289.08 181.659 41.1169 
324.833 179.789 41.0784 320.149 182.847 41.1248 320.62 182.454 41.3947 
318.469 183.924 40.6547 289.311 184.829 41.445 289.545 185.652 41.2362 
315.131 185.725 41.1502 290.92 187.785 40.7107 290.763 187.648 41.151 
309.783 189.009 41.2598 292.77 191.359 42.2782 293.466 192.173 42.0565 
293.768 192.319 42.0687 343.031 168.704 40.2461 342.204 169.408 40.4272 
340.004 170.582 40.7208 340.801 170.319 40.5522 337.68 171.924 40.8288 
334.616 173.465 41.0791 329.467 176.181 41.2947 326.549 177.422 41.535 
290.8 179.979 41.7724 296.339 179.377 42.342 325.198 178.736 41.5694 
316.869 179.849 42.6122 324.172 179.525 41.6897 325.134 179.159 41.532 
325.258 179.278 41.3118 318.463 180.384 42.652 320.227 180.375 42.5222 
323.26 180.637 41.6186 292.808 182.856 42.9339 315.985 181.969 42.8676 
320.141 182.646 41.5626 289.577 184.317 41.9564 289.919 184.177 42.229 
319.901 182.523 41.8361 289.894 184.815 42.2101 289.418 185.32 41.4425 
315.878 184.77 42.1301 289.605 185.671 41.5943 313.44 186.621 42.1071 
[...]
POINT_DATA 1014
COLOR_SCALARS scalars 3
0.0509804 0.623529 0.568627 0.0509804 0.623529 0.568627 0.0509804 0.623529 0.568627 
0.0509804 0.623529 0.568627 0.0509804 0.623529 0.568627 
0.0509804 0.623529 0.568627 0.0509804 0.623529 0.568627 
0.0509804 0.623529 0.568627 0.0509804 0.623529 0.568627 
0.0509804 0.623529 0.568627 0.0509804 0.623529 0.568627 
0.0509804 0.623529 0.568627 0.0509804 0.623529 0.568627 
0.0509804 0.623529 0.568627 0.0509804 0.623529 0.568627 
0.0509804 0.623529 0.568627 0.0509804 0.623529 0.568627 
0.0509804 0.623529 0.568627 0.0509804 0.623529 0.568627 
0.0509804 0.623529 0.568627 0.0509804 0.623529 0.568627 
0.0509804 0.623529 0.568627 0.0509804 0.623529 0.568627 
0.0509804 0.623529 0.568627 0.0509804 0.623529 0.568627 
0.0509804 0.623529 0.568627 0.0509804 0.623529 0.568627 
0.0509804 0.623529 0.568627 0.0509804 0.623529 0.568627 
0.0509804 0.623529 0.568627 0.0509804 0.623529 0.568627 
0.0509804 0.623529 0.568627 0.0509804 0.623529 0.568627 
0.0509804 0.623529 0.568627 0.0509804 0.623529 0.568627 
0.0509804 0.623529 0.568627 0.0509804 0.623529 0.568627 
0.0509804 0.623529 0.568627 0.0509804 0.623529 0.568627 
0.0509804 0.623529 0.568627 0.0509804 0.623529 0.568627 
0.0509804 0.623529 0.568627 0.0509804 0.623529 0.568627 
0.0509804 0.623529 0.568627 0.0509804 0.623529 0.568627 
0.0509804 0.623529 0.568627 0.0509804 0.623529 0.568627 
0.0509804 0.623529 0.568627 0.0509804 0.623529 0.568627 
0.0509804 0.623529 0.568627 0.0509804 0.623529 0.568627 
0.0509804 0.623529 0.568627 0.0509804 0.623529 0.568627 
0.0509804 0.623529 0.568627 0.0509804 0.623529 0.568627 
0.0509804 0.623529 0.568627 0.0509804 0.623529 0.568627 
0.0509804 0.623529 0.568627 0.0509804 0.623529 0.568627 
0.0509804 0.623529 0.568627 0.0509804 0.623529 0.568627 
0.0509804 0.623529 0.568627 0.0509804 0.623529 0.568627 
0.0509804 0.623529 0.568627 0.0509804 0.623529 0.568627 
0.0509804 0.623529 0.568627 0.0509804 0.623529 0.568627 
0.0509804 0.623529 0.568627 0.0509804 0.623529 0.568627 
0.0509804 0.623529 0.568627 0.0509804 0.623529 0.568627 
0.0509804 0.623529 0.568627 0.0509804 0.623529 0.568627 
0.0509804 0.623529 0.568627 0.0509804 0.623529 0.568627 
0.0509804 0.623529 0.568627 0.0509804 0.623529 0.568627 
0.0509804 0.623529 0.568627 0.0509804 0.623529 0.568627 
0.0509804 0.623529 0.568627 0.0509804 0.623529 0.568627 
0.0509804 0.623529 0.568627 0.0509804 0.623529 0.568627 
0.0509804 0.623529 0.568627 0.0509804 0.623529 0.568627 
0.0509804 0.623529 0.568627 0.0509804 0.623529 0.568627 
0.0509804 0.623529 0.568627 0.0509804 0.623529 0.568627 
0.0509804 0.623529 0.568627 0.0509804 0.623529 0.568627 
0.0509804 0.623529 0.568627 0.0509804 0.623529 0.568627 
0.0509804 0.623529 0.568627 0.0509804 0.623529 0.568627 
0.0509804 0.623529 0.568627 0.0509804 0.623529 0.568627 
0.0509804 0.623529 0.568627 0.0509804 0.623529 0.568627 
0.0509804 0.623529 0.568627 0.0509804 0.623529 0.568627 
0.0509804 0.623529 0.568627 0.0509804 0.623529 0.568627 
0.0509804 0.623529 0.568627 0.0509804 0.623529 0.568627 
0.0509804 0.623529 0.568627 0.0509804 0.623529 0.568627 
0.0509804 0.623529 0.568627 0.0509804 0.623529 0.568627 
0.0509804 0.623529 0.568627 0.0509804 0.623529 0.568627 
0.0509804 0.623529 0.568627 0.0509804 0.623529 0.568627 
0.0509804 0.623529 0.568627 0.0509804 0.623529 0.568627 
0.0509804 0.623529 0.568627 0.0509804 0.623529 0.568627 
0.0509804 0.623529 0.568627 0.0509804 0.623529 0.568627 
0.0509804 0.623529 0.568627 0.0509804 0.623529 0.568627 
0.0509804 0.623529 0.568627 0.0509804 0.623529 0.568627 
0.0509804 0.623529 0.568627 0.0509804 0.623529 0.568627 
0.0509804 0.623529 0.568627 0.0509804 0.623529 0.568627 
0.0509804 0.623529 0.568627 0.0509804 0.623529 0.568627 
0.0509804 0.623529 0.568627 0.0509804 0.623529 0.568627 
0.0509804 0.623529 0.568627 0.0509804 0.623529 0.568627 
0.0509804 0.623529 0.568627 0.0509804 0.623529 0.568627 
0.0509804 0.623529 0.568627 0.0509804 0.623529 0.568627 
0.0509804 0.623529 0.568627 0.0509804 0.623529 0.568627 
0.0509804 0.623529 0.568627 0.0509804 0.623529 0.568627 
0.0509804 0.623529 0.568627 0.0509804 0.623529 0.568627 
0.0509804 0.623529 0.568627 0.0509804 0.623529 0.568627 
0.0509804 0.623529 0.568627 0.0509804 0.623529 0.568627 
0.0509804 0.623529 0.568627 0.0509804 0.623529 0.568627 
0.0509804 0.623529 0.568627 0.0509804 0.623529 0.568627 
0.0509804 0.623529 0.568627 0.0509804 0.623529 0.568627 
0.0509804 0.623529 0.568627 0.0509804 0.623529 0.568627 
0.0509804 0.623529 0.568627 0.0509804 0.623529 0.568627 
0.0509804 0.623529 0.568627 0.0509804 0.623529 0.568627 
0.0509804 0.623529 0.568627 0.0509804 0.623529 0.568627 
0.0509804 0.623529 0.568627 0.0509804 0.623529 0.568627 
0.0509804 0.623529 0.568627 0.0509804 0.623529 0.568627 
0.0509804 0.623529 0.568627 0.0509804 0.623529 0.568627 
0.0509804 0.623529 0.568627 0.0509804 0.623529 0.568627 
0.0509804 0.623529 0.568627 0.0509804 0.623529 0.568627 
0.0509804 0.623529 0.568627 0.0509804 0.623529 0.568627 
0.0509804 0.623529 0.568627 0.0509804 0.623529 0.568627 
0.0509804 0.623529 0.568627 0.0509804 0.623529 0.568627 
0.0509804 0.623529 0.568627 0.0509804 0.623529 0.568627 
0.0509804 0.623529 0.568627 0.0509804 0.623529 0.568627 
0.0509804 0.623529 0.568627 0.0509804 0.623529 0.568627 
0.0509804 0.623529 0.568627 0.0509804 0.623529 0.568627 
0.0509804 0.623529 0.568627 0.0509804 0.623529 0.568627 
0.0509804 0.623529 0.568627 0.0509804 0.623529 0.568627 
0.0509804 0.623529 0.568627 0.0509804 0.623529 0.568627 
0.0509804 0.623529 0.568627 0.0509804 0.623529 0.568627 
0.0509804 0.623529 0.568627 0.0509804 0.623529 0.568627 
0.0509804 0.623529 0.568627 0.0509804 0.623529 0.568627 
0.0509804 0.623529 0.568627 0.0509804 0.623529 0.568627 
0.0509804 0.623529 0.568627 0.0509804 0.623529 0.568627 
0.0509804 0.623529 0.568627 0.0509804 0.623529 0.568627 
0.0509804 0.623529 0.568627 0.0509804 0.623529 0.568627 
0.0509804 0.623529 0.568627 0.0509804 0.623529 0.568627 
0.0509804 0.623529 0.568627 0.0509804 0.623529 0.568627 
0.0509804 0.623529 0.568627 0.0509804 0.623529 0.568627 
0.0509804 0.623529 0.568627 0.0509804 0.623529 0.568627 
0.0509804 0.623529 0.568627 0.0509804 0.623529 0.568627 
0.0509804 0.623529 0.568627 0.0509804 0.623529 0.568627 
0.0509804 0.623529 0.568627 0.0509804 0.623529 0.568627 
0.0509804 0.623529 0.568627 0.0509804 0.623529 0.568627 
0.0509804 0.623529 0.568627 0.0509804 0.623529 0.568627 
0.0509804 0.623529 0.568627 0.0509804 0.623529 0.568627 
0.0509804 0.623529 0.568627 0.0509804 0.623529 0.568627 
0.0509804 0.623529 0.568627 0.0509804 0.623529 0.568627 
0.0509804 0.623529 0.568627 0.0509804 0.623529 0.568627 
0.0509804 0.623529 0.568627 0.0509804 0.623529 0.568627 
0.0509804 0.623529 0.568627 0.0509804 0.623529 0.568627 
0.0509804 0.623529 0.568627 0.0509804 0.623529 0.568627 
0.0509804 0.623529 0.568627 0.0509804 0.623529 0.568627 
0.0509804 0.623529 0.568627 0.0509804 0.623529 0.568627 
0.0509804 0.623529 0.568627 0.0509804 0.623529 0.568627 
0.0509804 0.623529 0.568627 0.0509804 0.623529 0.568627 
0.0509804 0.623529 0.568627 0.0509804 0.623529 0.568627 
0.0509804 0.623529 0.568627 0.0509804 0.623529 0.568627 
0.0509804 0.623529 0.568627 0.0509804 0.623529 0.568627 
0.0509804 0.623529 0.568627 0.0509804 0.623529 0.568627 
0.0509804 0.623529 0.568627 0.0509804 0.623529 0.568627 
0.0509804 0.623529 0.568627 0.0509804 0.623529 0.568627 
0.0509804 0.623529 0.568627 0.0509804 0.623529 0.568627 
0.0509804 0.623529 0.568627 0.0509804 0.623529 0.568627 
0.0509804 0.623529 0.568627 0.0509804 0.623529 0.568627 
0.0509804 0.623529 0.568627 0.0509804 0.623529 0.568627 
0.0509804 0.623529 0.568627 0.0509804 0.623529 0.568627 
0.0509804 0.623529 0.568627 0.0509804 0.623529 0.568627 
0.0509804 0.623529 0.568627 0.0509804 0.623529 0.568627 
0.0509804 0.623529 0.568627 0.0509804 0.623529 0.568627 
0.0509804 0.623529 0.568627 0.0509804 0.623529 0.568627 
0.0509804 0.623529 0.568627 0.0509804 0.623529 0.568627 
0.0509804 0.623529 0.568627 0.0509804 0.623529 0.568627 
0.0509804 0.623529 0.568627 0.0509804 0.623529 0.568627 
0.0509804 0.623529 0.568627 0.0509804 0.623529 0.568627 
0.0509804 0.623529 0.568627 0.0509804 0.623529 0.568627 
0.0509804 0.623529 0.568627 0.0509804 0.623529 0.568627 
0.0509804 0.623529 0.568627 0.0509804 0.623529 0.568627 
0.0509804 0.623529 0.568627 0.0509804 0.623529 0.568627 
0.0509804 0.623529 0.568627 0.0509804 0.623529 0.568627 
0.0509804 0.623529 0.568627 0.0509804 0.623529 0.568627 
0.0509804 0.623529 0.568627 0.0509804 0.623529 0.568627 
0.0509804 0.623529 0.568627 0.0509804 0.623529 0.568627 
0.0509804 0.623529 0.568627 0.0509804 0.623529 0.568627 
0.0509804 0.623529 0.568627 0.0509804 0.623529 0.568627 
0.0509804 0.623529 0.568627 0.0509804 0.623529 0.568627 
0.0509804 0.623529 0.568627 0.0509804 0.623529 0.568627 
0.0509804 0.623529 0.568627 0.0509804 0.623529 0.568627 
0.0509804 0.623529 0.568627 0.0509804 0.623529 0.568627 
0.0509804 0.623529 0.568627 0.0509804 0.623529 0.568627 
0.0509804 0.623529 0.568627 0.0509804 0.623529 0.568627 
0.0509804 0.623529 0.568627 0.0509804 0.623529 0.568627 
0.0509804 0.623529 0.568627 0.0509804 0.623529 0.568627 
0.0509804 0.623529 0.568627 0.0509804 0.623529 0.568627 
0.0509804 0.623529 0.568627 0.0509804 0.623529 0.568627 
0.0509804 0.623529 0.568627 0.0509804 0.623529 0.568627 
0.0509804 0.623529 0.568627 0.0509804 0.623529 0.568627 
0.0509804 0.623529 0.568627 0.0509804 0.623529 0.568627 
0.0509804 0.623529 0.568627 0.0509804 0.623529 0.568627 
0.0509804 0.623529 0.568627 0.0509804 0.623529 0.568627 
0.0509804 0.623529 0.568627 0.0509804 0.623529 0.568627 
0.0509804 0.623529 0.568627 0.0509804 0.623529 0.568627 
0.0509804 0.623529 0.568627 0.0509804 0.623529 0.568627 
0.0509804 0.623529 0.568627 0.0509804 0.623529 0.568627 
0.0509804 0.623529 0.568627 0.0509804 0.623529 0.568627 
0.0509804 0.623529 0.568627 0.0509804 0.623529 0.568627 
0.0509804 0.623529 0.568627 0.0509804 0.623529 0.568627 
0.0509804 0.623529 0.568627 0.0509804 0.623529 0.568627 
0.0509804 0.623529 0.568627 0.0509804 0.623529 0.568627 
0.0509804 0.623529 0.568627 0.0509804 0.623529 0.568627 
0.0509804 0.623529 0.568627 0.0509804 0.623529 0.568627 
0.0509804 0.623529 0.568627 0.0509804 0.623529 0.568627 
0.0509804 0.623529 0.568627 0.0509804 0.623529 0.568627 
0.0509804 0.623529 0.568627 0.0509804 0.623529 0.568627 
0.0509804 0.623529 0.568627 0.0509804 0.623529 0.568627 
0.0509804 0.623529 0.568627 0.0509804 0.623529 0.568627 
0.0509804 0.623529 0.568627 0.0509804 0.623529 0.568627 
0.0509804 0.623529 0.568627 0.0509804 0.623529 0.568627 
0.0509804 0.623529 0.568627 0.0509804 0.623529 0.568627 
0.0509804 0.623529 0.568627 0.0509804 0.623529 0.568627 
0.0509804 0.623529 0.568627 0.0509804 0.623529 0.568627 
0.0509804 0.623529 0.568627 0.0509804 0.623529 0.568627 
0.0509804 0.623529 0.568627 0.0509804 0.623529 0.568627 
0.0509804 0.623529 0.568627 0.0509804 0.623529 0.568627 
0.0509804 0.623529 0.568627 0.0509804 0.623529 0.568627 
0.0509804 0.623529 0.568627 0.0509804 0.623529 0.568627 
0.0509804 0.623529 0.568627 0.0509804 0.623529 0.568627 
0.0509804 0.623529 0.568627 0.0509804 0.623529 0.568627 
0.0509804 0.623529 0.568627 0.0509804 0.623529 0.568627 
0.0509804 0.623529 0.568627 0.0509804 0.623529 0.568627 
0.0509804 0.623529 0.568627 0.0509804 0.623529 0.568627 
0.0509804 0.623529 0.568627 0.0509804 0.623529 0.568627 
0.0509804 0.623529 0.568627 0.0509804 0.623529 0.568627 
0.0509804 0.623529 0.568627 0.0509804 0.623529 0.568627 
0.0509804 0.623529 0.568627 0.0509804 0.623529 0.568627 
0.0509804 0.623529 0.568627 0.0509804 0.623529 0.568627 
0.0509804 0.623529 0.568627 0.0509804 0.623529 0.568627 
0.0509804 0.623529 0.568627 0.0509804 0.623529 0.568627 
0.0509804 0.623529 0.568627 0.0509804 0.623529 0.568627 
0.0509804 0.623529 0.568627 0.0509804 0.623529 0.568627 
0.0509804 0.623529 0.568627 0.0509804 0.623529 0.568627 
0.0509804 0.623529 0.568627 0.0509804 0.623529 0.568627 
0.0509804 0.623529 0.568627 0.0509804 0.623529 0.568627 
0.0509804 0.623529 0.568627 0.0509804 0.623529 0.568627 
0.0509804 0.623529 0.568627 0.0509804 0.623529 0.568627 
0.0509804 0.623529 0.568627 0.0509804 0.623529 0.568627 
0.0509804 0.623529 0.568627 0.0509804 0.623529 0.568627 
0.0509804 0.623529 0.568627 0.0509804 0.623529 0.568627 
0.0509804 0.623529 0.568627 0.0509804 0.623529 0.568627 
0.0509804 0.623529 0.568627 0.0509804 0.623529 0.568627 
0.0509804 0.623529 0.568627 0.0509804 0.623529 0.568627 
0.0509804 0.623529 0.568627 0.0509804 0.623529 0.568627 
0.0509804 0.623529 0.568627 0.0509804 0.623529 0.568627 
0.0509804 0.623529 0.568627 0.0509804 0.623529 0.568627 
0.0509804 0.623529 0.568627 0.0509804 0.623529 0.568627 
0.0509804 0.623529 0.568627 0.0509804 0.623529 0.568627 
0.0509804 0.623529 0.568627 0.0509804 0.623529 0.568627 
0.0509804 0.623529 0.568627 0.0509804 0.623529 0.568627 
0.0509804 0.623529 0.568627 0.0509804 0.623529 0.568627 
0.0509804 0.623529 0.568627 0.0509804 0.623529 0.568627 
0.0509804 0.623529 0.568627 0.0509804 0.623529 0.568627 
0.0509804 0.623529 0.568627 0.0509804 0.623529 0.568627 
0.0509804 0.623529 0.568627 0.0509804 0.623529 0.568627 
0.0509804 0.623529 0.568627 0.0509804 0.623529 0.568627 
0.0509804 0.623529 0.568627 0.0509804 0.623529 0.568627 
0.0509804 0.623529 0.568627 0.0509804 0.623529 0.568627 
0.0509804 0.623529 0.568627 0.0509804 0.623529 0.568627 
0.0509804 0.623529 0.568627 0.0509804 0.623529 0.568627 
0.0509804 0.623529 0.568627 0.0509804 0.623529 0.568627 
0.0509804 0.623529 0.568627 0.0509804 0.623529 0.568627 
0.0509804 0.623529 0.568627 0.0509804 0.623529 0.568627 
0.0509804 0.623529 0.568627 0.0509804 0.623529 0.568627 
0.0509804 0.623529 0.568627 0.0509804 0.623529 0.568627 
0.0509804 0.623529 0.568627 0.0509804 0.623529 0.568627 
0.0509804 0.623529 0.568627 0.0509804 0.623529 0.568627 
0.0509804 0.623529 0.568627 0.0509804 0.623529 0.568627 
0.0509804 0.623529 0.568627 0.0509804 0.623529 0.568627 
0.0509804 0.623529 0.568627 0.0509804 0.623529 0.568627 
0.0509804 0.623529 0.568627 0.0509804 0.623529 0.568627 
0.0509804 0.623529 0.568627 0.0509804 0.623529 0.568627 
0.0509804 0.623529 0.568627 0.0509804 0.623529 0.568627 
0.0509804 0.623529 0.568627 0.0509804 0.623529 0.568627 
0.0509804 0.623529 0.568627 0.0509804 0.623529 0.568627 
0.0509804 0.623529 0.568627 0.0509804 0.623529 0.568627 
0.0509804 0.623529 0.568627 0.0509804 0.623529 0.568627 
0.0509804 0.623529 0.568627 0.0509804 0.623529 0.568627 
0.0509804 0.623529 0.568627 0.0509804 0.623529 0.568627 
0.0509804 0.623529 0.568627 0.0509804 0.623529 0.568627 
0.0509804 0.623529 0.568627 0.0509804 0.623529 0.568627 
0.0509804 0.623529 0.568627 0.0509804 0.623529 0.568627 
0.0509804 0.623529 0.568627 0.0509804 0.623529 0.568627 
0.0509804 0.623529 0.568627 0.0509804 0.623529 0.568627 
0.0509804 0.623529 0.568627 0.0509804 0.623529 0.568627 
0.0509804 0.623529 0.568627 0.0509804 0.623529 0.568627 
0.0509804 0.623529 0.568627 0.0509804 0.623529 0.568627 
0.0509804 0.623529 0.568627 0.0509804 0.623529 0.568627 
0.0509804 0.623529 0.568627 0.0509804 0.623529 0.568627 
0.0509804 0.623529 0.568627 0.0509804 0.623529 0.568627 
0.0509804 0.623529 0.568627 0.0509804 0.623529 0.568627 
0.0509804 0.623529 0.568627 0.0509804 0.623529 0.568627 
0.0509804 0.623529 0.568627 0.0509804 0.623529 0.568627 
0.0509804 0.623529 0.568627 0.0509804 0.623529 0.568627 
0.0509804 0.623529 0.568627 0.0509804 0.623529 0.568627 
0.0509804 0.623529 0.568627 0.0509804 0.623529 0.568627 
0.0509804 0.623529 0.568627 0.0509804 0.623529 0.568627 
0.0509804 0.623529 0.568627 0.0509804 0.623529 0.568627 
0.0509804 0.623529 0.568627 0.0509804 0.623529 0.568627 
0.0509804 0.623529 0.568627 0.0509804 0.623529 0.568627 
0.0509804 0.623529 0.568627 0.0509804 0.623529 0.568627 
0.0509804 0.623529 0.568627 0.0509804 0.623529 0.568627 
0.0509804 0.623529 0.568627 0.0509804 0.623529 0.568627 
0.0509804 0.623529 0.568627 0.0509804 0.623529 0.568627 
0.0509804 0.623529 0.568627 0.0509804 0.623529 0.568627 
0.0509804 0.623529 0.568627 0.0509804 0.623529 0.568627 
0.0509804 0.623529 0.568627 0.0509804 0.623529 0.568627 
0.0509804 0.623529 0.568627 0.0509804 0.623529 0.568627 
0.0509804 0.623529 0.568627 0.0509804 0.623529 0.568627 
0.0509804 0.623529 0.568627 0.0509804 0.623529 0.568627 
0.0509804 0.623529 0.568627 0.0509804 0.623529 0.568627 
0.0509804 0.623529 0.568627 0.0509804 0.623529 0.568627 
0.0509804 0.623529 0.568627 0.0509804 0.623529 0.568627 
0.0509804 0.623529 0.568627 0.0509804 0.623529 0.568627 
0.0509804 0.623529 0.568627 0.0509804 0.623529 0.568627 
0.0509804 0.623529 0.568627 0.0509804 0.623529 0.568627 
0.0509804 0.623529 0.568627 0.0509804 0.623529 0.568627 
0.0509804 0.623529 0.568627 0.0509804 0.623529 0.568627 
0.0509804 0.623529 0.568627 0.0509804 0.623529 0.568627 
0.0509804 0.623529 0.568627 0.0509804 0.623529 0.568627 
0.0509804 0.623529 0.568627 0.0509804 0.623529 0.568627 
0.0509804 0.623529 0.568627 0.0509804 0.623529 0.568627 
0.0509804 0.623529 0.568627 0.0509804 0.623529 0.568627 
0.0509804 0.623529 0.568627 0.0509804 0.623529 0.568627 
0.0509804 0.623529 0.568627 0.0509804 0.623529 0.568627 
0.0509804 0.623529 0.568627 0.0509804 0.623529 0.568627 
0.0509804 0.623529 0.568627 0.0509804 0.623529 0.568627 
0.0509804 0.623529 0.568627 0.0509804 0.623529 0.568627 
0.0509804 0.623529 0.568627 0.0509804 0.623529 0.568627 
0.0509804 0.623529 0.568627 0.0509804 0.623529 0.568627 
0.0509804 0.623529 0.568627 0.0509804 0.623529 0.568627 
0.0509804 0.623529 0.568627 0.0509804 0.623529 0.568627 
0.0509804 0.623529 0.568627 0.0509804 0.623529 0.568627 
0.0509804 0.623529 0.568627 0.0509804 0.623529 0.568627 
0.0509804 0.623529 0.568627 0.0509804 0.623529 0.568627 
0.0509804 0.623529 0.568627 0.0509804 0.623529 0.568627 
0.0509804 0.623529 0.568627 0.0509804 0.623529 0.568627 
0.0509804 0.623529 0.568627 0.0509804 0.623529 0.568627 
0.0509804 0.623529 0.568627 0.0509804 0.623529 0.568627 
0.0509804 0.623529 0.568627 0.0509804 0.623529 0.568627 
0.0509804 0.623529 0.568627 0.0509804 0.623529 0.568627 
0.0509804 0.623529 0.568627 0.0509804 0.623529 0.568627 
0.0509804 0.623529 0.568627 0.0509804 0.623529 0.568627 
0.0509804 0.623529 0.568627 0.0509804 0.623529 0.568627 
0.0509804 0.623529 0.568627 0.0509804 0.623529 0.568627 
0.0509804 0.623529 0.568627 0.0509804 0.623529 0.568627 
0.0509804 0.623529 0.568627 0.0509804 0.623529 0.568627 
0.0509804 0.623529 0.568627 0.0509804 0.623529 0.568627 
0.0509804 0.623529 0.568627 0.0509804 0.623529 0.568627 
0.0509804 0.623529 0.568627 0.0509804 0.623529 0.568627 
0.0509804 0.623529 0.568627 0.0509804 0.623529 0.568627 
0.0509804 0.623529 0.568627 0.0509804 0.623529 0.568627 
0.0509804 0.623529 0.568627 0.0509804 0.623529 0.568627 
0.0509804 0.623529 0.568627 0.0509804 0.623529 0.568627 
0.0509804 0.623529 0.568627 0.0509804 0.623529 0.568627 
0.0509804 0.623529 0.568627 0.0509804 0.623529 0.568627 
0.0509804 0.623529 0.568627 0.0509804 0.623529 0.568627 
0.0509804 0.623529 0.568627 0.0509804 0.623529 0.568627 
0.0509804 0.623529 0.568627 0.0509804 0.623529 0.568627 
0.0509804 0.623529 0.568627 0.0509804 0.623529 0.568627 
0.0509804 0.623529 0.568627 0.0509804 0.623529 0.568627 
0.0509804 0.623529 0.568627 0.0509804 0.623529 0.568627 
0.0509804 0.623529 0.568627 0.0509804 0.623529 0.568627 
0.0509804 0.623529 0.568627 0.0509804 0.623529 0.568627 
0.0509804 0.623529 0.568627 0.0509804 0.623529 0.568627 
0.0509804 0.623529 0.568627 0.0509804 0.623529 0.568627 
0.0509804 0.623529 0.568627 0.0509804 0.623529 0.568627 
0.0509804 0.623529 0.568627 0.0509804 0.623529 0.568627 
0.0509804 0.623529 0.568627 0.0509804 0.623529 0.568627 
0.0509804 0.623529 0.568627 0.0509804 0.623529 0.568627 
0.0509804 0.623529 0.568627 0.0509804 0.623529 0.568627 
0.0509804 0.623529 0.568627 0.0509804 0.623529 0.568627 
0.0509804 0.623529 0.568627 0.0509804 0.623529 0.568627 
0.0509804 0.623529 0.568627 0.0509804 0.623529 0.568627 
0.0509804 0.623529 0.568627 0.0509804 0.623529 0.568627 