# vtk DataFile Version 4.2
vtk output
ASCII
DATASET POLYDATA
POINTS 1488 float
348.367 153.915 47.9668 348.14 153.677 48.2157 349.346 153.568 48.0534 
347.018 154.859 47.7917 347.711 154.822 47.6467 344.38 156.064 48.0255 
346.609 155.674 47.4985 343.732 156.346 48.1502 345.586 156.585 47.3282 
346.302 156.41 47.2839 347.811 156.002 47.3326 341.792 157.547 48.1271 
343.19 157.593 47.4984 344.585 157.439 47.2156 345.293 157.287 47.1525 
339.807 158.53 48.2076 339.372 159.048 47.9282 344.283 158.152 47.061 
347.133 158.611 47.1484 335.409 161.148 47.8547 337.727 161.497 47.0815 
341.029 160.918 46.8272 343.382 160.368 46.8604 331.325 162.789 48.3331 
330.71 163.939 47.9124 337.186 163.036 46.815 340.274 163.142 46.7749 
331.21 165.347 47.3671 337.615 164.506 46.7946 340.259 164.967 47.0328 
352.28 150.753 48.9644 352.21 150.647 49.036 352.392 150.578 49.1059 
348.968 152.882 48.6815 350.89 153.309 48.1362 344.716 155.168 48.8772 
340.827 157.524 48.9528 340.274 158.001 48.5731 335.164 160.807 48.3235 
347.624 161.852 47.8478 329.258 164.188 48.534 328.775 163.708 49.26 
329.037 165.523 48.0797 338.272 168.442 47.8638 357.755 146.526 50.2923 
357.693 146.212 50.6015 358.157 146.707 50.1589 355.268 148.237 50.1518 
351.412 150.957 49.3113 352.783 150.262 49.479 353.458 150.836 49.0095 
357.636 149.771 49.3141 349.304 152.154 49.5592 346.828 153.76 49.1284 
354.017 153.323 48.472 336.752 159.456 49.1934 351.074 159.373 48.2122 
334.143 160.838 49.239 352.903 160.194 49.1619 330.581 162.511 49.2739 
352.036 161.069 49.1736 328.758 163.283 49.9143 348.194 163.319 48.6404 
323.609 166.16 50.1145 348.004 165.338 49.9601 344.541 166.737 48.8515 
322.444 168.676 49.4615 323.056 169.443 49.229 342.388 168.517 49.0896 
344.358 167.948 49.7458 325.941 169.82 48.7526 342.815 168.813 49.5574 
358.279 145.787 50.8913 360.247 146.056 50.5008 355.106 147.967 50.5928 
350.582 151.136 50.3617 360.368 150.589 49.9884 348.661 152.5 49.7879 
357.892 153.99 49.4763 345.094 154.776 49.9319 342.082 156.72 49.7951 
357.266 156.586 49.8967 358.348 156.865 50.793 357.429 157.807 50.6403 
335.494 160.077 50.1841 357.257 158.257 50.8626 355.636 160.168 50.6904 
329.225 162.916 50.3086 351.793 162.285 49.8585 353.001 161.993 50.6318 
352.505 162.414 50.827 321.658 167.016 50.5519 348.476 165.307 50.3227 
319.483 168.062 51.0066 321.864 167.986 49.8586 348.775 165.309 50.8007 
320.221 168.887 50.2538 345.461 167.35 50.0074 346.482 166.714 50.3165 
319.163 169.292 50.4638 343.926 168.474 50.0419 321.37 170.221 49.7154 
342.884 169.052 49.9238 343.718 168.808 50.4272 343.317 169.076 50.5703 
322.47 172.462 49.709 339.103 171.686 50.8352 337.745 172.517 50.6202 
332.13 174.284 49.9158 362.281 142.823 52.2024 359.29 144.76 51.7037 
363.426 144.215 51.5454 357.15 146.118 51.2108 357.481 145.813 51.495 
355.469 147.404 51.4602 363.449 146.546 51.2678 363.481 148.111 51.326 
361.754 150.075 50.5791 350.481 151.259 50.953 347.375 153.452 50.7434 
363.017 151.757 51.9667 345.704 154.461 50.3108 362.23 152.869 51.6827 
361.097 154.074 51.2666 361.636 153.903 51.684 360.81 154.82 51.5353 
342.156 156.842 50.4735 359.606 155.833 51.1875 361.061 154.929 52.0028 
358.222 157.318 51.041 358.298 157.501 51.478 327.23 163.67 50.8436 
328.247 163.217 51.2811 351.252 163.237 51.0625 321.217 166.667 51.2791 
322.38 165.886 51.4733 319.147 167.708 51.5397 347.568 166.076 50.7575 
316.517 169.098 51.7232 344.718 168.084 50.7467 345.265 167.634 51.0014 
311.877 170.546 52.4017 311.76 171.86 51.6172 343.08 169.18 50.9873 
314.55 172.349 50.9055 339.829 171.237 51.0279 335.817 173.983 51.1488 
337.262 173.154 51.318 332.992 175.777 51.3107 333.647 175.687 51.6323 
334.191 175.414 51.7979 322.167 177.42 50.8836 325.128 178.093 51.0915 
364.339 141.03 53.2275 363.394 141.631 53.0081 364.566 141.951 52.566 
365.421 143.116 52.3004 357.635 145.662 52.0036 356.502 146.491 51.6807 
357.266 145.961 52.2999 365.567 145.15 52.1766 355.101 147.787 51.7344 
364.463 148.514 52.1195 365.171 148.397 52.7257 350.124 151.665 51.2614 
364.463 149.877 52.7205 349.811 152.104 51.5712 362.982 152.248 52.2306 
363.097 152.472 52.7246 343.672 156.346 51.1579 361.461 154.633 52.3356 
341.591 157.616 51.322 360.443 155.639 52.5605 359.334 156.591 52.2379 
332.926 161.739 51.7312 328.283 163.273 52.0809 329.819 162.711 51.5192 
325.589 164.309 51.6079 325.191 164.455 51.9202 351.697 162.94 51.5424 
318.88 167.45 52.0702 348.376 165.285 51.5778 346.223 166.663 51.6171 
312.832 169.477 53.0778 343.533 168.81 51.3208 308.103 172.252 52.9475 
309.764 171.243 52.9188 308.405 172.705 52.5754 310.002 172.543 52.0947 
340.164 170.825 51.7687 337.941 172.532 51.8962 339.15 171.553 51.8438 
308.257 174.459 52.2026 336.587 173.702 52.046 335.233 174.749 52.2884 
366.065 139.5 53.9799 365.945 139.064 54.3935 366.366 139.022 54.2821 
365.179 139.949 53.9521 362.427 141.916 53.0371 365.624 141.917 52.7198 
367.049 141.339 53.2494 362.234 141.988 53.1567 356.32 146.735 52.3255 
367.254 146.981 53.8907 367.074 147.285 53.9952 365.139 149.362 53.4066 
364.333 150.355 52.9233 349.499 152.93 52.1279 363.502 151.985 53.1973 
362.739 153.144 52.8948 344.423 156.295 51.5967 361.896 154.218 52.7225 
345.878 156.326 52.2958 342.513 157.717 51.8393 346.546 157.877 53.0187 
356.217 159.651 52.2029 330.623 162.621 51.9817 328.997 163.255 52.5481 
352.789 161.863 52.5775 353.439 161.449 52.6739 325.582 164.384 52.7397 
351.432 162.903 51.9957 350.902 162.963 52.2224 323.454 165.284 53.2508 
348.692 164.442 52.138 349.294 163.867 52.2065 321.234 166.048 52.9008 
346.558 166.144 51.9421 345.466 166.978 51.8736 312.524 169.344 53.503 
310.144 170.643 53.3186 307.961 171.41 53.9327 342.471 168.873 52.1237 
306.193 173.035 53.3716 305.741 172.53 53.9803 339.583 171.023 52.0738 
305.204 173.983 53.2242 337.673 172.194 52.7913 302.418 174.54 53.7551 
302.502 174.909 53.5605 337.063 172.881 52.9366 302.866 175.201 53.3739 
335.858 174.138 52.739 330.834 178.384 53.0361 327.37 180.585 53.0509 
315.198 182.27 52.9762 367.87 137.856 55.0162 368.43 138.489 54.7663 
365.384 139.096 54.9273 362.104 141.903 54.1747 368.79 140.546 54.1329 
369.645 142.577 54.5654 356.782 146.703 52.9847 368.852 144.956 54.4642 
369.14 144.681 54.6479 367.792 146.294 54.065 353.701 150.155 52.7689 
366 148.636 54.3138 367.053 147.529 54.4151 353.399 151.678 53.3286 
364.66 150.244 53.6447 354.753 152.095 53.9 351.474 153.642 53.2745 
363.419 152.28 53.6914 363.104 152.76 53.828 354.375 154.663 54.0183 
352.691 155.732 53.8305 360.147 155.293 53.8897 349.97 159.031 53.5687 
353.434 159.146 53.6668 349.787 160.686 53.4143 331.672 163.05 52.9226 
330.715 163.004 52.6773 331.967 163.615 53.4425 352.401 161.308 53.0579 
354.867 160.708 52.6427 332.751 163.954 53.6299 343.054 162.907 53.4395 
350.318 161.89 53.0667 352.27 161.782 52.9538 352.34 161.904 52.8106 
347.555 163.282 53.0151 324.145 165.236 53.7693 347.308 164.085 52.8008 
348.355 163.797 52.6205 333.143 166.464 54.3966 346.898 164.958 52.5499 
342.473 166.271 53.2579 341.443 167.224 53.22 312.471 169.211 53.9273 
343.867 167.391 52.4502 309.424 170.464 54.2048 336.087 170.927 53.9736 
339.234 170.532 52.6493 300.779 174.242 54.8569 302.735 173.125 54.9544 
337.315 172.574 53.0736 337.344 172.42 53.1434 337.252 172.562 53.1967 
301.295 175.088 54.0219 336.436 173.257 53.125 336.677 172.853 53.2872 
297.784 176.234 54.9236 297.775 176.819 54.6572 302.318 177.127 53.3895 
333.47 176 53.3369 333.819 175.35 53.6319 299.429 178.055 54.001 
332.352 177.013 53.9111 302.953 178.877 53.4249 331.356 178.109 53.8558 
330.353 179.05 53.789 328.245 180.727 53.8603 328.75 180.432 54.2442 
303.269 181.224 53.8799 327.867 181.222 54.1459 321.702 184.942 54.6428 
369.01 136.201 56.2362 365.847 138.594 55.3061 369.742 138.361 55.5028 
365.343 138.968 55.5789 370.438 139.568 55.5882 370.745 140.035 55.7733 
370.797 141.688 55.4836 369.066 145.054 54.8181 367.795 146.594 54.33 
367.924 146.676 54.8423 369.137 145.303 55.3093 365.703 148.944 54.5395 
366.58 148.098 55.135 366.182 148.379 55.2849 364.641 149.998 54.6467 
363.597 151.642 54.6012 356.139 153.378 54.2752 363.621 151.807 54.3504 
362.71 153.182 53.9799 361.586 154.048 54.0653 362.29 153.459 54.1406 
360.041 154.622 54.3442 360.909 154.878 53.9478 355.952 156.958 53.8787 
360.476 155.179 54.1328 360.62 155.102 54.1255 357.132 156.953 53.6703 
360.575 155.12 54.203 353.875 160.26 53.3347 354.237 160.61 53.0936 
352.184 161.935 52.8969 324.84 165.298 54.192 316.241 167.907 55.1544 
309.673 170.081 55.0938 306.782 171.389 55.0256 300.692 173.893 55.2831 
336.1 172.043 53.8007 337.141 172.473 53.2798 294.529 176.575 56.0701 
294.616 176.476 56.1044 296.04 175.555 56.4654 297.206 175.968 55.3773 
297.807 174.945 56.0226 334.195 173.753 54.1741 294.41 177.179 56.0946 
296.296 176.933 55.2654 294.19 177.595 56.351 294.423 178.113 56.0421 
332.044 177.262 54.128 332.136 176.982 54.3 331.131 178.296 54.0922 
330.807 178.418 54.4512 295.158 180.9 55.955 295.955 181.967 55.9017 
327.833 181.599 54.9599 323.612 184.495 55.0315 315.286 186.556 54.8608 
316.781 187.264 55.3068 369.005 135.925 56.5485 368.893 135.622 56.892 
368.687 135.772 56.7467 369.167 135.56 56.9774 369.407 135.623 57.0612 
368.386 135.87 56.8361 369.651 136.557 56.4018 370.2 137.312 56.4755 
365.88 138.375 56.0739 370.68 138.648 56.2238 370.793 138.207 56.6857 
371.423 139.875 56.8656 361.275 143.528 55.2048 371.158 142.074 56.2553 
371.114 142.753 56.597 370.193 144.124 55.8864 368.608 146.178 56.1858 
367.409 147.355 55.4163 361.983 148.601 55.8626 364.888 149.468 54.9993 
364.751 148.929 55.5675 366.026 148.243 55.6869 363.78 150.703 54.943 
360.464 154.178 54.5077 360.645 154.999 54.2393 323.376 165.921 54.8548 
324.508 165.979 55.0809 313.047 168.888 56.0485 307.558 170.722 56.6221 
303.98 172.212 55.5845 300.189 173.56 56.4688 294.495 176.529 56.271 
293.983 177.288 56.8496 331.913 176.588 54.7223 330.877 177.501 55.2083 
328.388 180.851 55.6179 328.828 179.833 55.7559 327.918 181.59 55.8617 
[...]
POINT_DATA 1488
COLOR_SCALARS scalars 3
0.0509804 0.623529 0.568627 0.0509804 0.623529 0.568627 0.0509804 0.623529 0.568627 
0.0509804 0.623529 0.568627 0.0509804 0.623529 0.568627 
0.0509804 0.623529 0.568627 0.0509804 0.623529 0.568627 
0.0509804 0.623529 0.568627 0.0509804 0.623529 0.568627 
0.0509804 0.623529 0.568627 0.0509804 0.623529 0.568627 
0.0509804 0.623529 0.568627 0.0509804 0.623529 0.568627 
0.0509804 0.623529 0.568627 0.0509804 0.623529 0.568627 
0.0509804 0.623529 0.568627 0.0509804 0.623529 0.568627 
0.0509804 0.623529 0.568627 0.0509804 0.623529 0.568627 
0.0509804 0.623529 0.568627 0.0509804 0.623529 0.568627 
0.0509804 0.623529 0.568627 0.0509804 0.623529 0.568627 
0.0509804 0.623529 0.568627 0.0509804 0.623529 0.568627 
0.0509804 0.623529 0.568627 0.0509804 0.623529 0.568627 
0.0509804 0.623529 0.568627 0.0509804 0.623529 0.568627 
0.0509804 0.623529 0.568627 0.0509804 0.623529 0.568627 
0.0509804 0.623529 0.568627 0.0509804 0.623529 0.568627 
0.0509804 0.623529 0.568627 0.0509804 0.623529 0.568627 
0.0509804 0.623529 0.568627 0.0509804 0.623529 0.568627 
0.0509804 0.623529 0.568627 0.0509804 0.623529 0.568627 
0.0509804 0.623529 0.568627 0.0509804 0.623529 0.568627 
0.0509804 0.623529 0.568627 0.0509804 0.623529 0.568627 
0.0509804 0.623529 0.568627 0.0509804 0.623529 0.568627 
0.0509804 0.623529 0.568627 0.0509804 0.623529 0.568627 
0.0509804 0.623529 0.568627 0.0509804 0.623529 0.568627 
0.0509804 0.623529 0.568627 0.0509804 0.623529 0.568627 
0.0509804 0.623529 0.568627 0.0509804 0.623529 0.568627 
0.0509804 0.623529 0.568627 0.0509804 0.623529 0.568627 
0.0509804 0.623529 0.568627 0.0509804 0.623529 0.568627 
0.0509804 0.623529 0.568627 0.0509804 0.623529 0.568627 
0.0509804 0.623529 0.568627 0.0509804 0.623529 0.568627 
0.0509804 0.623529 0.568627 0.0509804 0.623529 0.568627 
0.0509804 0.623529 0.568627 0.0509804 0.623529 0.568627 
0.0509804 0.623529 0.568627 0.0509804 0.623529 0.568627 
0.0509804 0.623529 0.568627 0.0509804 0.623529 0.568627 
0.0509804 0.623529 0.568627 0.0509804 0.623529 0.568627 
0.0509804 0.623529 0.568627 0.0509804 0.623529 0.568627 
0.0509804 0.623529 0.568627 0.0509804 0.623529 0.568627 
0.0509804 0.623529 0.568627 0.0509804 0.623529 0.568627 
0.0509804 0.623529 0.568627 0.0509804 0.623529 0.568627 
0.0509804 0.623529 0.568627 0.0509804 0.623529 0.568627 
0.0509804 0.623529 0.568627 0.0509804 0.623529 0.568627 
0.0509804 0.623529 0.568627 0.0509804 0.623529 0.568627 
0.0509804 0.623529 0.568627 0.0509804 0.623529 0.568627 
0.0509804 0.623529 0.568627 0.0509804 0.623529 0.568627 
0.0509804 0.623529 0.568627 0.0509804 0.623529 0.568627 
0.0509804 0.623529 0.568627 0.0509804 0.623529 0.568627 
0.0509804 0.623529 0.568627 0.0509804 0.623529 0.568627 
0.0509804 0.623529 0.568627 0.0509804 0.623529 0.568627 
0.0509804 0.623529 0.568627 0.0509804 0.623529 0.568627 
0.0509804 0.623529 0.568627 0.0509804 0.623529 0.568627 
0.0509804 0.623529 0.568627 0.0509804 0.623529 0.568627 
0.0509804 0.623529 0.568627 0.0509804 0.623529 0.568627 
0.0509804 0.623529 0.568627 0.0509804 0.623529 0.568627 
0.0509804 0.623529 0.568627 0.0509804 0.623529 0.568627 
0.0509804 0.623529 0.568627 0.0509804 0.623529 0.568627 
0.0509804 0.623529 0.568627 0.0509804 0.623529 0.568627 
0.0509804 0.623529 0.568627 0.0509804 0.623529 0.568627 
0.0509804 0.623529 0.568627 0.0509804 0.623529 0.568627 
0.0509804 0.623529 0.568627 0.0509804 0.623529 0.568627 
0.0509804 0.623529 0.568627 0.0509804 0.623529 0.568627 
0.0509804 0.623529 0.568627 0.0509804 0.623529 0.568627 
0.0509804 0.623529 0.568627 0.0509804 0.623529 0.568627 
0.0509804 0.623529 0.568627 0.0509804 0.623529 0.568627 
0.0509804 0.623529 0.568627 0.0509804 0.623529 0.568627 
0.0509804 0.623529 0.568627 0.0509804 0.623529 0.568627 
0.0509804 0.623529 0.568627 0.0509804 0.623529 0.568627 
0.0509804 0.623529 0.568627 0.0509804 0.623529 0.568627 
0.0509804 0.623529 0.568627 0.0509804 0.623529 0.568627 
0.0509804 0.623529 0.568627 0.0509804 0.623529 0.568627 
0.0509804 0.623529 0.568627 0.0509804 0.623529 0.568627 
0.0509804 0.623529 0.568627 0.0509804 0.623529 0.568627 
0.0509804 0.623529 0.568627 0.0509804 0.623529 0.568627 
0.0509804 0.623529 0.568627 0.0509804 0.623529 0.568627 
0.0509804 0.623529 0.568627 0.0509804 0.623529 0.568627 
0.0509804 0.623529 0.568627 0.0509804 0.623529 0.568627 
0.0509804 0.623529 0.568627 0.0509804 0.623529 0.568627 
0.0509804 0.623529 0.568627 0.0509804 0.623529 0.568627 
0.0509804 0.623529 0.568627 0.0509804 0.623529 0.568627 
0.0509804 0.623529 0.568627 0.0509804 0.623529 0.568627 
0.0509804 0.623529 0.568627 0.0509804 0.623529 0.568627 
0.0509804 0.623529 0.568627 0.0509804 0.623529 0.568627 
0.0509804 0.623529 0.568627 0.0509804 0.623529 0.568627 
0.0509804 0.623529 0.568627 0.0509804 0.623529 0.568627 
0.0509804 0.623529 0.568627 0.0509804 0.623529 0.568627 
0.0509804 0.623529 0.568627 0.0509804 0.623529 0.568627 
0.0509804 0.623529 0.568627 0.0509804 0.623529 0.568627 
0.0509804 0.623529 0.568627 0.0509804 0.623529 0.568627 
0.0509804 0.623529 0.568627 0.0509804 0.623529 0.568627 
0.0509804 0.623529 0.568627 0.0509804 0.623529 0.568627 
0.0509804 0.623529 0.568627 0.0509804 0.623529 0.568627 
0.0509804 0.623529 0.568627 0.0509804 0.623529 0.568627 
0.0509804 0.623529 0.568627 0.0509804 0.623529 0.568627 
0.0509804 0.623529 0.568627 0.0509804 0.623529 0.568627 
0.0509804 0.623529 0.568627 0.0509804 0.623529 0.568627 
0.0509804 0.623529 0.568627 0.0509804 0.623529 0.568627 
0.0509804 0.623529 0.568627 0.0509804 0.623529 0.568627 
0.0509804 0.623529 0.568627 0.0509804 0.623529 0.568627 
0.0509804 0.623529 0.568627 0.0509804 0.623529 0.568627 
0.0509804 0.623529 0.568627 0.0509804 0.623529 0.568627 
0.0509804 0.623529 0.568627 0.0509804 0.623529 0.568627 
0.0509804 0.623529 0.568627 0.0509804 0.623529 0.568627 
0.0509804 0.623529 0.568627 0.0509804 0.623529 0.568627 
0.0509804 0.623529 0.568627 0.0509804 0.623529 0.568627 
0.0509804 0.623529 0.568627 0.0509804 0.623529 0.568627 
0.0509804 0.623529 0.568627 0.0509804 0.623529 0.568627 
0.0509804 0.623529 0.568627 0.0509804 0.623529 0.568627 
0.0509804 0.623529 0.568627 0.0509804 0.623529 0.568627 
0.0509804 0.623529 0.568627 0.0509804 0.623529 0.568627 
0.0509804 0.623529 0.568627 0.0509804 0.623529 0.568627 
0.0509804 0.623529 0.568627 0.0509804 0.623529 0.568627 
0.0509804 0.623529 0.568627 0.0509804 0.623529 0.568627 
0.0509804 0.623529 0.568627 0.0509804 0.623529 0.568627 
0.0509804 0.623529 0.568627 0.0509804 0.623529 0.568627 
0.0509804 0.623529 0.568627 0.0509804 0.623529 0.568627 
0.0509804 0.623529 0.568627 0.0509804 0.623529 0.568627 
0.0509804 0.623529 0.568627 0.0509804 0.623529 0.568627 
0.0509804 0.623529 0.568627 0.0509804 0.623529 0.568627 
0.0509804 0.623529 0.568627 0.0509804 0.623529 0.568627 
0.0509804 0.623529 0.568627 0.0509804 0.623529 0.568627 
0.0509804 0.623529 0.568627 0.0509804 0.623529 0.568627 
0.0509804 0.623529 0.568627 0.0509804 0.623529 0.568627 
0.0509804 0.623529 0.568627 0.0509804 0.623529 0.568627 
0.0509804 0.623529 0.568627 0.0509804 0.623529 0.568627 
0.0509804 0.623529 0.568627 0.0509804 0.623529 0.568627 
0.0509804 0.623529 0.568627 0.0509804 0.623529 0.568627 
0.0509804 0.623529 0.568627 0.0509804 0.623529 0.568627 
0.0509804 0.623529 0.568627 0.0509804 0.623529 0.568627 
0.0509804 0.623529 0.568627 0.0509804 0.623529 0.568627 
0.0509804 0.623529 0.568627 0.0509804 0.623529 0.568627 
0.0509804 0.623529 0.568627 0.0509804 0.623529 0.568627 
0.0509804 0.623529 0.568627 0.0509804 0.623529 0.568627 
0.0509804 0.623529 0.568627 0.0509804 0.623529 0.568627 
0.0509804 0.623529 0.568627 0.0509804 0.623529 0.568627 
0.0509804 0.623529 0.568627 0.0509804 0.623529 0.568627 
0.0509804 0.623529 0.568627 0.0509804 0.623529 0.568627 
0.0509804 0.623529 0.568627 0.0509804 0.623529 0.568627 
0.0509804 0.623529 0.568627 0.0509804 0.623529 0.568627 
0.0509804 0.623529 0.568627 0.0509804 0.623529 0.568627 
0.0509804 0.623529 0.568627 0.0509804 0.623529 0.568627 
0.0509804 0.623529 0.568627 0.0509804 0.623529 0.568627 
0.0509804 0.623529 0.568627 0.0509804 0.623529 0.568627 
0.0509804 0.623529 0.568627 0.0509804 0.623529 0.568627 
0.0509804 0.623529 0.568627 0.0509804 0.623529 0.568627 
0.0509804 0.623529 0.568627 0.0509804 0.623529 0.568627 
0.0509804 0.623529 0.568627 0.0509804 0.623529 0.568627 
0.0509804 0.623529 0.568627 0.0509804 0.623529 0.568627 
0.0509804 0.623529 0.568627 0.0509804 0.623529 0.568627 
0.0509804 0.623529 0.568627 0.0509804 0.623529 0.568627 
0.0509804 0.623529 0.568627 0.0509804 0.623529 0.568627 
0.0509804 0.623529 0.568627 0.0509804 0.623529 0.568627 
0.0509804 0.623529 0.568627 0.0509804 0.623529 0.568627 
0.0509804 0.623529 0.568627 0.0509804 0.623529 0.568627 
0.0509804 0.623529 0.568627 0.0509804 0.623529 0.568627 
0.0509804 0.623529 0.568627 0.0509804 0.623529 0.568627 
0.0509804 0.623529 0.568627 0.0509804 0.623529 0.568627 
0.0509804 0.623529 0.568627 0.0509804 0.623529 0.568627 
0.0509804 0.623529 0.568627 0.0509804 0.623529 0.568627 
0.0509804 0.623529 0.568627 0.0509804 0.623529 0.568627 
0.0509804 0.623529 0.568627 0.0509804 0.623529 0.568627 
0.0509804 0.623529 0.568627 0.0509804 0.623529 0.568627 
0.0509804 0.623529 0.568627 0.0509804 0.623529 0.568627 
0.0509804 0.623529 0.568627 0.0509804 0.623529 0.568627 
0.0509804 0.623529 0.568627 0.0509804 0.623529 0.568627 
0.0509804 0.623529 0.568627 0.0509804 0.623529 0.568627 
0.0509804 0.623529 0.568627 0.0509804 0.623529 0.568627 
0.0509804 0.623529 0.568627 0.0509804 0.623529 0.568627 
0.0509804 0.623529 0.568627 0.0509804 0.623529 0.568627 
0.0509804 0.623529 0.568627 0.0509804 0.623529 0.568627 
0.0509804 0.623529 0.568627 0.0509804 0.623529 0.568627 
0.0509804 0.623529 0.568627 0.0509804 0.623529 0.568627 
0.0509804 0.623529 0.568627 0.0509804 0.623529 0.568627 
0.0509804 0.623529 0.568627 0.0509804 0.623529 0.568627 
0.0509804 0.623529 0.568627 0.0509804 0.623529 0.568627 
0.0509804 0.623529 0.568627 0.0509804 0.623529 0.568627 
0.0509804 0.623529 0.568627 0.0509804 0.623529 0.568627 
0.0509804 0.623529 0.568627 0.0509804 0.623529 0.568627 
0.0509804 0.623529 0.568627 0.0509804 0.623529 0.568627 
0.0509804 0.623529 0.568627 0.0509804 0.623529 0.568627 
0.0509804 0.623529 0.568627 0.0509804 0.623529 0.568627 
0.0509804 0.623529 0.568627 0.0509804 0.623529 0.568627 
0.0509804 0.623529 0.568627 0.0509804 0.623529 0.568627 
0.0509804 0.623529 0.568627 0.0509804 0.623529 0.568627 
0.0509804 0.623529 0.568627 0.0509804 0.623529 0.568627 
0.0509804 0.623529 0.568627 0.0509804 0.623529 0.568627 
0.0509804 0.623529 0.568627 0.0509804 0.623529 0.568627 
0.0509804 0.623529 0.568627 0.0509804 0.623529 0.568627 
0.0509804 0.623529 0.568627 0.0509804 0.623529 0.568627 
0.0509804 0.623529 0.568627 0.0509804 0.623529 0.568627 
0.0509804 0.623529 0.568627 0.0509804 0.623529 0.568627 
0.0509804 0.623529 0.568627 0.0509804 0.623529 0.568627 
0.0509804 0.623529 0.568627 0.0509804 0.623529 0.568627 
0.0509804 0.623529 0.568627 0.0509804 0.623529 0.568627 
0.0509804 0.623529 0.568627 0.0509804 0.623529 0.568627 
0.0509804 0.623529 0.568627 0.0509804 0.623529 0.568627 
0.0509804 0.623529 0.568627 0.0509804 0.623529 0.568627 
0.0509804 0.623529 0.568627 0.0509804 0.623529 0.568627 
0.0509804 0.623529 0.568627 0.0509804 0.623529 0.568627 
0.0509804 0.623529 0.568627 0.0509804 0.623529 0.568627 
0.0509804 0.623529 0.568627 0.0509804 0.623529 0.568627 
0.0509804 0.623529 0.568627 0.0509804 0.623529 0.568627 
0.0509804 0.623529 0.568627 0.0509804 0.623529 0.568627 
0.0509804 0.623529 0.568627 0.0509804 0.623529 0.568627 
0.0509804 0.623529 0.568627 0.0509804 0.623529 0.568627 
0.0509804 0.623529 0.568627 0.0509804 0.623529 0.568627 
0.0509804 0.623529 0.568627 0.0509804 0.623529 0.568627 
0.0509804 0.623529 0.568627 0.0509804 0.623529 0.568627 
0.0509804 0.623529 0.568627 0.0509804 0.623529 0.568627 
0.0509804 0.623529 0.568627 0.0509804 0.623529 0.568627 
0.0509804 0.623529 0.568627 0.0509804 0.623529 0.568627 
0.0509804 0.623529 0.568627 0.0509804 0.623529 0.568627 
0.0509804 0.623529 0.568627 0.0509804 0.623529 0.568627 
0.0509804 0.623529 0.568627 0.0509804 0.623529 0.568627 
0.0509804 0.623529 0.568627 0.0509804 0.623529 0.568627 
0.0509804 0.623529 0.568627 0.0509804 0.623529 0.568627 
0.0509804 0.623529 0.568627 0.0509804 0.623529 0.568627 
0.0509804 0.623529 0.568627 0.0509804 0.623529 0.568627 
0.0509804 0.623529 0.568627 0.0509804 0.623529 0.568627 
0.0509804 0.623529 0.568627 0.0509804 0.623529 0.568627 
0.0509804 0.623529 0.568627 0.0509804 0.623529 0.568627 
0.0509804 0.623529 0.568627 0.0509804 0.623529 0.568627 
0.0509804 0.623529 0.568627 0.0509804 0.623529 0.568627 
0.0509804 0.623529 0.568627 0.0509804 0.623529 0.568627 
0.0509804 0.623529 0.568627 0.0509804 0.623529 0.568627 
0.0509804 0.623529 0.568627 0.0509804 0.623529 0.568627 
0.0509804 0.623529 0.568627 0.0509804 0.623529 0.568627 
0.0509804 0.623529 0.568627 0.0509804 0.623529 0.568627 
0.0509804 0.623529 0.568627 0.0509804 0.623529 0.568627 
0.0509804 0.623529 0.568627 0.0509804 0.623529 0.568627 
0.0509804 0.623529 0.568627 0.0509804 0.623529 0.568627 
0.0509804 0.623529 0.568627 0.0509804 0.623529 0.568627 
0.0509804 0.623529 0.568627 0.0509804 0.623529 0.568627 
0.0509804 0.623529 0.568627 0.0509804 0.623529 0.568627 
0.0509804 0.623529 0.568627 0.0509804 0.623529 0.568627 
0.0509804 0.623529 0.568627 0.0509804 0.623529 0.568627 
0.0509804 0.623529 0.568627 0.0509804 0.623529 0.568627 
0.0509804 0.623529 0.568627 0.0509804 0.623529 0.568627 
0.0509804 0.623529 0.568627 0.0509804 0.623529 0.568627 
0.0509804 0.623529 0.568627 0.0509804 0.623529 0.568627 
0.0509804 0.623529 0.568627 0.0509804 0.623529 0.568627 
0.0509804 0.623529 0.568627 0.0509804 0.623529 0.568627 
0.0509804 0.623529 0.568627 0.0509804 0.623529 0.568627 
0.0509804 0.623529 0.568627 0.0509804 0.623529 0.568627 
0.0509804 0.623529 0.568627 0.0509804 0.623529 0.568627 
0.0509804 0.623529 0.568627 0.0509804 0.623529 0.568627 
0.0509804 0.623529 0.568627 0.0509804 0.623529 0.568627 
0.0509804 0.623529 0.568627 0.0509804 0.623529 0.568627 
0.0509804 0.623529 0.568627 0.0509804 0.623529 0.568627 
0.0509804 0.623529 0.568627 0.0509804 0.623529 0.568627 
0.0509804 0.623529 0.568627 0.0509804 0.623529 0.568627 
0.0509804 0.623529 0.568627 0.0509804 0.623529 0.568627 
0.0509804 0.623529 0.568627 0.0509804 0.623529 0.568627 
0.0509804 0.623529 0.568627 0.0509804 0.623529 0.568627 
0.0509804 0.623529 0.568627 0.0509804 0.623529 0.568627 
0.0509804 0.623529 0.568627 0.0509804 0.623529 0.568627 
0.0509804 0.623529 0.568627 0.0509804 0.623529 0.568627 
0.0509804 0.623529 0.568627 0.0509804 0.623529 0.568627 
0.0509804 0.623529 0.568627 0.0509804 0.623529 0.568627 
0.0509804 0.623529 0.568627 0.0509804 0.623529 0.568627 
0.0509804 0.623529 0.568627 0.0509804 0.623529 0.568627 
0.0509804 0.623529 0.568627 0.0509804 0.623529 0.568627 
0.0509804 0.623529 0.568627 0.0509804 0.623529 0.568627 
0.0509804 0.623529 0.568627 0.0509804 0.623529 0.568627 
0.0509804 0.623529 0.568627 0.0509804 0.623529 0.568627 
0.0509804 0.623529 0.568627 0.0509804 0.623529 0.568627 
0.0509804 0.623529 0.568627 0.0509804 0.623529 0.568627 
0.0509804 0.623529 0.568627 0.0509804 0.623529 0.568627 
0.0509804 0.623529 0.568627 0.0509804 0.623529 0.568627 
0.0509804 0.623529 0.568627 0.0509804 0.623529 0.568627 
0.0509804 0.623529 0.568627 0.0509804 0.623529 0.568627 
0.0509804 0.623529 0.568627 0.0509804 0.623529 0.568627 
0.0509804 0.623529 0.568627 0.0509804 0.623529 0.568627 
0.0509804 0.623529 0.568627 0.0509804 0.623529 0.568627 
0.0509804 0.623529 0.568627 0.0509804 0.623529 0.568627 
0.0509804 0.623529 0.568627 0.0509804 0.623529 0.568627 
0.0509804 0.623529 0.568627 0.0509804 0.623529 0.568627 
0.0509804 0.623529 0.568627 0.0509804 0.623529 0.568627 
0.0509804 0.623529 0.568627 0.0509804 0.623529 0.568627 
0.0509804 0.623529 0.568627 0.0509804 0.623529 0.568627 
0.0509804 0.623529 0.568627 0.0509804 0.623529 0.568627 
0.0509804 0.623529 0.568627 0.0509804 0.623529 0.568627 
0.0509804 0.623529 0.568627 0.0509804 0.623529 0.568627 
0.0509804 0.623529 0.568627 0.0509804 0.623529 0.568627 
0.0509804 0.623529 0.568627 0.0509804 0.623529 0.568627 
0.0509804 0.623529 0.568627 0.0509804 0.623529 0.568627 
0.0509804 0.623529 0.568627 0.0509804 0.623529 0.568627 
0.0509804 0.623529 0.568627 0.0509804 0.623529 0.568627 
0.0509804 0.623529 0.568627 0.0509804 0.623529 0.568627 
0.0509804 0.623529 0.568627 0.0509804 0.623529 0.568627 
0.0509804 0.623529 0.568627 0.0509804 0.623529 0.568627 
0.0509804 0.623529 0.568627 0.0509804 0.623529 0.568627 
0.0509804 0.623529 0.568627 0.0509804 0.623529 0.568627 
0.0509804 0.623529 0.568627 0.0509804 0.623529 0.568627 
0.0509804 0.623529 0.568627 0.0509804 0.623529 0.568627 
0.0509804 0.623529 0.568627 0.0509804 0.623529 0.568627 
0.0509804 0.623529 0.568627 0.0509804 0.623529 0.568627 
0.0509804 0.623529 0.568627 0.0509804 0.623529 0.568627 
0.0509804 0.623529 0.568627 0.0509804 0.623529 0.568627 
0.0509804 0.623529 0.568627 0.0509804 0.623529 0.568627 
0.0509804 0.623529 0.568627 0.0509804 0.623529 0.568627 
0.0509804 0.623529 0.568627 0.0509804 0.623529 0.568627 
0.0509804 0.623529 0.568627 0.0509804 0.623529 0.568627 
0.0509804 0.623529 0.568627 0.0509804 0.623529 0.568627 
0.0509804 0.623529 0.568627 0.0509804 0.623529 0.568627 
0.0509804 0.623529 0.568627 0.0509804 0.623529 0.568627 
0.0509804 0.623529 0.568627 0.0509804 0.623529 0.568627 
0.0509804 0.623529 0.568627 0.0509804 0.623529 0.568627 
0.0509804 0.623529 0.568627 0.0509804 0.623529 0.568627 
0.0509804 0.623529 0.568627 0.0509804 0.623529 0.568627 
0.0509804 0.623529 0.568627 0.0509804 0.623529 0.568627 
0.0509804 0.623529 0.568627 0.0509804 0.623529 0.568627 
0.0509804 0.623529 0.568627 0.0509804 0.623529 0.568627 
0.0509804 0.623529 0.568627 0.0509804 0.623529 0.568627 
0.0509804 0.623529 0.568627 0.0509804 0.623529 0.568627 
0.0509804 0.623529 0.568627 0.0509804 0.623529 0.568627 
0.0509804 0.623529 0.568627 0.0509804 0.623529 0.568627 
0.0509804 0.623529 0.568627 0.0509804 0.623529 0.568627 
0.0509804 0.623529 0.568627 0.0509804 0.623529 0.568627 
0.0509804 0.623529 0.568627 0.0509804 0.623529 0.568627 
0.0509804 0.623529 0.568627 0.0509804 0.623529 0.568627 
0.0509804 0.623529 0.568627 0.0509804 0.623529 0.568627 
0.0509804 0.623529 0.568627 0.0509804 0.623529 0.568627 
0.0509804 0.623529 0.568627 0.0509804 0.623529 0.568627 
0.0509804 0.623529 0.568627 0.0509804 0.623529 0.568627 
0.0509804 0.623529 0.568627 0.0509804 0.623529 0.568627 
0.0509804 0.623529 0.568627 0.0509804 0.623529 0.568627 
0.0509804 0.623529 0.568627 0.0509804 0.623529 0.568627 
0.0509804 0.623529 0.568627 0.0509804 0.623529 0.568627 
0.0509804 0.623529 0.568627 0.0509804 0.623529 0.568627 
0.0509804 0.623529 0.568627 0.0509804 0.623529 0.568627 
0.0509804 0.623529 0.568627 0.0509804 0.623529 0.568627 
0.0509804 0.623529 0.568627 0.0509804 0.623529 0.568627 
0.0509804 0.623529 0.568627 0.0509804 0.623529 0.568627 
0.0509804 0.623529 0.568627 0.0509804 0.623529 0.568627 
0.0509804 0.623529 0.568627 0.0509804 0.623529 0.568627 
0.0509804 0.623529 0.568627 0.0509804 0.623529 0.568627 
0.0509804 0.623529 0.568627 0.0509804 0.623529 0.568627 
0.0509804 0.623529 0.568627 0.0509804 0.623529 0.568627 
0.0509804 0.623529 0.568627 0.0509804 0.623529 0.568627 
0.0509804 0.623529 0.568627 0.0509804 0.623529 0.568627 
0.0509804 0.623529 0.568627 0.0509804 0.623529 0.568627 
0.0509804 0.623529 0.568627 0.0509804 0.623529 0.568627 
0.0509804 0.623529 0.568627 0.0509804 0.623529 0.568627 
0.0509804 0.623529 0.568627 0.0509804 0.623529 0.568627 
0.0509804 0.623529 0.568627 0.0509804 0.623529 0.568627 
0.0509804 0.623529 0.568627 0.0509804 0.623529 0.568627 
0.0509804 0.623529 0.568627 0.0509804 0.623529 0.568627 
0.0509804 0.623529 0.568627 0.0509804 0.623529 0.568627 
0.0509804 0.623529 0.568627 0.0509804 0.623529 0.568627 
0.0509804 0.623529 0.568627 0.0509804 0.623529 0.568627 