# vtk DataFile Version 4.2
vtk output
ASCII
DATASET POLYDATA
POINTS 848 float
398.278 148.313 59.5466 397.722 150.68 59.7078 398.127 151.244 59.5888 
398.483 151.747 59.6329 398.116 152.378 59.8053 397.966 152.563 59.9881 
398.403 152.331 59.7632 398.423 140.216 60.6444 398.009 141.044 60.7132 
399.213 144.884 60.1035 399.443 145.685 60.0752 397.382 150.509 59.9434 
397.21 150.095 60.1399 397.211 151.321 60.3543 398.805 152.255 59.8305 
397.512 152.713 60.665 398.637 152.701 59.9459 398.364 153.19 60.2946 
398.619 153.048 60.1548 398.433 137.509 61.306 398.311 136.966 61.5062 
398.617 137.127 61.3928 399.486 140.944 60.6484 399.993 149.995 60.1143 
399.571 153.218 60.6098 397.788 153.319 60.8861 398.249 153.49 60.6754 
399.029 153.892 60.9404 399.457 153.995 61.1537 398.188 133.011 62.5232 
399.159 134.891 61.9376 397.942 136.479 61.8862 399.093 137.068 61.4503 
399.376 138.269 61.218 397.437 139.434 61.5479 399.9 138.968 61.2669 
397.013 141.002 61.8826 400.107 143.047 60.7149 396.845 146.004 61.424 
397.105 153.132 61.8103 398.098 153.831 61.1975 398.46 154.286 61.6014 
399.082 154.304 61.4603 398.502 127.312 63.5073 398.379 126.777 63.6992 
398.672 126.943 63.5829 398.397 129.615 63.0697 399.23 131.348 62.5407 
399.821 132.537 62.5219 400.011 135.296 62.0689 400.66 137.807 61.9736 
400.948 139.846 61.8174 401.928 151.006 62.0453 396.728 152.4 62.1419 
400.664 154.283 62.0847 397.512 154.028 62.4139 397.961 154.468 62.3928 
398.864 154.769 62.1621 398.578 121.23 64.7934 398.449 120.746 64.9737 
398.3 121.24 64.9067 398.89 121.531 64.723 398.151 123.966 64.502 
398.023 126.278 64.0815 397.814 127.222 64.0172 399.134 126.906 63.6343 
399.391 128.1 63.393 399.884 128.126 63.5442 397.441 131.231 63.5913 
397.413 132.341 63.3966 400.977 133.969 62.9542 396.448 146.58 62.564 
396.439 149.93 63.2222 396.781 152.686 63.11 401.516 154.494 62.9428 
402.07 154.223 63.3426 397.398 154.088 62.9594 398.674 155.279 63.0958 
400.668 155.875 63.6353 401.221 155.612 63.6376 398.698 119.481 65.3804 
398.318 119.374 65.5287 397.401 127.262 64.5428 397.37 128.372 64.34 
400.615 127.778 64.071 397.156 130.873 64.1552 401.103 130.477 63.7946 
397.136 132.577 63.8577 396.461 141.656 63.819 396.389 144.429 63.8952 
396.406 146.282 63.7528 403.053 153.43 64.2616 402.289 155.317 64.28 
399.897 156.255 64.0542 399.655 156.419 64.4173 400.871 156.897 64.7126 
398.453 115.426 66.5904 398.329 115.802 66.521 398.12 117.228 66.2733 
399.43 119.579 65.4978 397.719 120.388 65.6865 397.51 122.279 65.4868 
400.535 121.643 65.519 402.35 129.37 65.2727 396.427 140.534 64.6646 
396.712 146.877 65.0983 397.547 153.503 65.3672 398.772 155.755 64.4322 
399.299 156.266 64.5248 400.665 157.605 65.3905 401.583 158.127 65.7971 
398.524 114.521 66.9822 398.492 114.479 67.0299 398.442 114.609 67.0107 
398.54 114.48 67.0415 398.544 114.727 66.9004 398.672 114.605 67.0653 
397.902 116.591 66.6474 399.158 115.962 66.5232 399.162 116.444 66.3573 
399.403 116.234 66.5627 399.649 117.624 66.2561 397.387 120.494 66.1678 
397.162 123.267 65.9356 404.041 139.073 65.5741 396.56 142.302 65.354 
398.974 156.156 65.215 399.496 157.409 66.75 400.63 158.315 66.1451 
401.063 158.579 66.1761 402.295 159.508 67.1993 398.523 114.543 67.1878 
398.501 114.6 67.6423 398.837 114.566 67.4655 399.006 114.772 67.1937 
399.153 114.666 67.5 397.636 116.672 66.9942 397.491 117.171 67.0429 
400.449 117.665 66.87 397.226 119.674 66.8028 396.981 120.786 67.3965 
396.725 132.243 66.9137 396.615 139.049 66.1101 398.46 154.473 67.336 
399.663 158.304 67.6791 400.456 158.692 66.6755 403.025 159.182 67.6291 
401.205 160.297 67.71 401.356 159.991 67.4213 401.95 159.96 67.4639 
402.186 160.528 68.0689 398.314 114.709 68.0104 398.052 114.983 67.9393 
398.591 114.583 68.0963 398.876 114.554 67.9649 399.431 114.716 67.9948 
397.857 115.326 67.8228 399.778 115.011 68.1059 397.448 116.552 67.8682 
400.884 116.392 68.1352 396.955 119.965 68.1445 396.873 123.071 68.0288 
405.428 145.573 68.3145 400.936 160.458 68.0276 401.826 161.655 68.8452 
398.182 114.909 68.319 399.334 114.686 68.3652 398.741 114.783 68.9151 
399.498 114.75 68.8609 397.225 117.473 68.6727 405.274 129.587 69.3951 
405.091 152.444 69.4084 399.432 158.055 68.9031 399.752 159.782 69.616 
403.594 160.369 69.4595 400.119 161.692 69.8734 400.615 162.28 69.6867 
400.948 162.182 69.4435 402.078 162.089 69.3717 401.267 162.679 69.7935 
398.628 115.038 69.4116 399.596 114.87 69.3146 400.475 115.308 69.8778 
400.954 115.59 69.838 401.342 115.926 70.0279 397.432 116.875 69.2218 
397.073 119.279 69.6677 405.336 126.59 70.2942 398.849 143.772 70.1738 
404.171 159.997 70.7412 403.576 161.23 70.2515 400.256 162.616 70.3662 
400.402 163.225 70.8394 400.498 163.024 70.4787 401.579 163.228 70.3618 
402.803 162.68 70.6337 401.647 163.686 70.8399 401.88 163.853 71.1151 
398.981 115.155 69.937 399.51 115.061 69.9056 398.316 115.812 70.235 
398.821 115.528 70.4345 400.051 115.321 70.4084 401.501 116.031 70.6599 
403.361 118.056 70.8482 405.858 146.903 70.7609 399.451 149.089 70.9278 
399.792 149.348 71.6632 399.796 157.32 71.5845 399.611 158.936 70.9652 
403.811 161.638 71.5187 400.222 163.094 71.048 400.887 163.765 71.2644 
401.233 163.952 71.3304 403.25 163.121 71.8868 402.35 164.038 71.8578 
399.859 115.625 71.0939 398.99 116.243 71.5777 399.658 116.015 71.7095 
402.119 116.527 71.7135 402.582 116.876 72.0551 405.059 151.824 71.9519 
400.277 154.811 72.1929 404.563 158.197 71.4654 402.376 164.262 72.3006 
402.256 164.384 72.6423 402.536 164.278 72.5965 400.889 116.248 72.3296 
402.708 117.057 72.871 404.349 118.719 72.2404 405.927 146.908 72.6776 
400.755 151.003 72.9729 404.943 151.027 72.7133 400.741 153.196 72.7502 
400.389 156.81 72.878 404.255 159.916 72.7113 400.172 163.472 73.2271 
400.468 163.802 73.0112 403.002 163.835 73.1384 399.941 116.772 73.0369 
398.801 118.303 73.5639 398.155 119.373 73.0062 405.823 122.11 73.3326 
406.707 133.846 74.0961 405.726 146.892 74.0914 401.283 150.141 73.8047 
404.208 154.463 73.2169 400.409 158.442 73.5455 399.957 162.732 73.7926 
400.73 163.983 73.5384 401.785 164.322 73.3449 402.198 164.327 73.4749 
402.925 163.882 73.4868 402.431 164.323 73.3169 399.341 117.957 74.0781 
403.358 117.678 74.4509 404.567 118.68 74.6422 404.987 119.265 74.3916 
403.517 149.587 74.8524 402.481 151.646 74.1006 403.126 151.363 74.216 
403.556 152.041 73.9524 404.091 151.716 73.7099 402.181 153.706 73.8595 
403.054 155.009 74.0301 400.979 158.156 74.1622 403.893 160.49 74.0819 
400.215 162.683 74.3218 400.346 163.576 74.0869 400.481 163.773 73.8866 
400.938 163.868 74.2338 402.423 163.947 74.0383 401.534 164.129 73.881 
399.937 118.091 75.0775 399.538 118.23 74.7125 400.413 117.827 75.1269 
404.078 118.289 75.5104 406.11 122.291 75.784 401.996 148.429 75.2176 
402.446 148.305 75.5541 403.943 148.097 75.6031 403.592 156.436 74.0473 
401.599 158.607 74.7851 402.52 158.346 74.9452 401.908 159.015 75.0428 
403.606 160.091 74.6539 400.365 163.428 74.2953 400.572 163.1 74.6297 
400.503 163.353 74.4839 400.778 163.351 74.6296 401.041 163.636 74.5132 
402.45 163.159 74.7887 399.727 118.428 75.1977 406.677 132.116 76.8757 
403.113 147.733 76.0606 403.179 158.79 74.8206 401.072 161.727 75.0096 
402.28 160.948 75.4415 402.958 160.555 75.4804 402.887 161.377 75.512 
400.874 162.934 74.8175 402.925 161.689 75.3971 405.875 121.814 77.3313 
401.096 143.023 77.787 402.181 145.021 77.7189 405.357 144.204 77.6256 
402.658 145.554 77.626 402.96 146.469 76.9668 403.31 145.884 77.4706 
403.001 160.991 75.5026 403.251 161.051 75.3222 402.042 119.11 78.3461 
402.615 119.089 78.3637 404.641 119.926 78.2323 405.466 121.139 77.982 
406.257 138.481 78.5844 405.268 143.034 78.5905 403.026 145.402 77.8404 
403.56 144.722 78.4563 404.068 145.224 77.8491 401.478 120.065 79.2113 
403.601 119.667 78.8282 401.859 120.209 79.4589 400.356 122.247 78.7467 
406.126 125.583 79.1444 400.73 139.747 79.9716 400.736 140.332 79.5007 
405.507 140.578 79.6332 401.037 140.805 79.7789 402.265 142.285 79.8611 
402.737 142.849 79.6602 404.026 143.366 79.3587 401.951 120.732 79.9041 
401.817 121.132 80.0435 403.495 120.692 79.9241 404.823 121.256 79.55 
401.086 121.737 79.649 405.112 121.569 79.3972 401.224 129.069 79.8555 
405.813 128.636 79.9624 400.496 136.901 79.8505 405.209 139.136 80.5998 
405.123 140.299 80.2201 401.813 141.712 79.9639 403.497 142.052 80.2959 
404.57 142.645 79.4833 404.43 121.215 79.8253 401.442 122.169 80.064 
402.646 121.69 80.4789 403.32 121.636 80.4788 404.402 121.822 80.1979 
404.257 123.135 80.8276 405.44 124.054 80.1292 403.651 123.928 81.1015 
403.084 131.066 81.5196 404.921 131.972 81.1705 401.893 133.759 81.613 
401.127 135.308 81.0982 405.583 135.265 80.7256 401.034 137.157 81.0608 
401.291 138.118 81.3853 404.82 138.868 81.1673 401.728 139.384 81.4675 
402.043 139.765 81.4309 403.887 140.762 80.9244 402.56 141.108 80.864 
402.95 141.185 80.9148 404.203 123.839 81.0184 405.044 123.685 80.5182 
404.644 124.474 80.9418 405.076 125.147 80.72 403.975 126.311 81.2905 
404.517 126.211 81.1223 404.973 127.012 80.8714 403.63 131.635 81.6194 
403.509 133.733 82.1796 403.006 134.321 82.3002 401.428 136.439 81.5464 
402.708 135.588 82.3908 404.505 136.387 82.0753 404.141 138.027 81.9135 
402.029 138.679 81.8582 402.377 138.536 82.0238 403.373 140.446 81.2648 
403.746 134.967 82.3974 403.677 135.517 82.543 404.173 135.893 82.3531 
402.676 137.2 82.327 403.643 136.935 82.4727 403.854 135.79 82.5381 
403.841 136.654 82.4902 403.833 135.597 372.435 403.649 135.32 372.431 
404.112 135.702 372.599 403.826 136.458 372.478 403.637 136.723 372.492 
403.905 136.827 372.621 403.631 134.127 372.675 403.534 133.566 372.808 
403.314 133.922 372.683 403.891 133.641 372.897 403.03 134.086 372.682 
402.726 135.299 372.582 402.428 135.635 372.685 403.286 136.014 372.41 
403.239 136.689 372.502 402.419 138.143 372.871 402.748 138.869 373.026 
402.547 139.021 373.108 403.149 138.855 373.091 403.779 138.825 373.316 
[...]
POINT_DATA 848
COLOR_SCALARS scalars 3
0.196078 0.721569 0.145098 0.196078 0.721569 0.145098 0.196078 0.721569 0.145098 
0.196078 0.721569 0.145098 0.196078 0.721569 0.145098 
0.196078 0.721569 0.145098 0.196078 0.721569 0.145098 
0.196078 0.721569 0.145098 0.196078 0.721569 0.145098 
0.196078 0.721569 0.145098 0.196078 0.721569 0.145098 
0.196078 0.721569 0.145098 0.196078 0.721569 0.145098 
0.196078 0.721569 0.145098 0.196078 0.721569 0.145098 
0.196078 0.721569 0.145098 0.196078 0.721569 0.145098 
0.196078 0.721569 0.145098 0.196078 0.721569 0.145098 
0.196078 0.721569 0.145098 0.196078 0.721569 0.145098 
0.196078 0.721569 0.145098 0.196078 0.721569 0.145098 
0.196078 0.721569 0.145098 0.196078 0.721569 0.145098 
0.196078 0.721569 0.145098 0.196078 0.721569 0.145098 
0.196078 0.721569 0.145098 0.196078 0.721569 0.145098 
0.196078 0.721569 0.145098 0.196078 0.721569 0.145098 
0.196078 0.721569 0.145098 0.196078 0.721569 0.145098 
0.196078 0.721569 0.145098 0.196078 0.721569 0.145098 
0.196078 0.721569 0.145098 0.196078 0.721569 0.145098 
0.196078 0.721569 0.145098 0.196078 0.721569 0.145098 
0.196078 0.721569 0.145098 0.196078 0.721569 0.145098 
0.196078 0.721569 0.145098 0.196078 0.721569 0.145098 
0.196078 0.721569 0.145098 0.196078 0.721569 0.145098 
0.196078 0.721569 0.145098 0.196078 0.721569 0.145098 
0.196078 0.721569 0.145098 0.196078 0.721569 0.145098 
0.196078 0.721569 0.145098 0.196078 0.721569 0.145098 
0.196078 0.721569 0.145098 0.196078 0.721569 0.145098 
0.196078 0.721569 0.145098 0.196078 0.721569 0.145098 
0.196078 0.721569 0.145098 0.196078 0.721569 0.145098 
0.196078 0.721569 0.145098 0.196078 0.721569 0.145098 
0.196078 0.721569 0.145098 0.196078 0.721569 0.145098 
0.196078 0.721569 0.145098 0.196078 0.721569 0.145098 
0.196078 0.721569 0.145098 0.196078 0.721569 0.145098 
0.196078 0.721569 0.145098 0.196078 0.721569 0.145098 
0.196078 0.721569 0.145098 0.196078 0.721569 0.145098 
0.196078 0.721569 0.145098 0.196078 0.721569 0.145098 
0.196078 0.721569 0.145098 0.196078 0.721569 0.145098 
0.196078 0.721569 0.145098 0.196078 0.721569 0.145098 
0.196078 0.721569 0.145098 0.196078 0.721569 0.145098 
0.196078 0.721569 0.145098 0.196078 0.721569 0.145098 
0.196078 0.721569 0.145098 0.196078 0.721569 0.145098 
0.196078 0.721569 0.145098 0.196078 0.721569 0.145098 
0.196078 0.721569 0.145098 0.196078 0.721569 0.145098 
0.196078 0.721569 0.145098 0.196078 0.721569 0.145098 
0.196078 0.721569 0.145098 0.196078 0.721569 0.145098 
0.196078 0.721569 0.145098 0.196078 0.721569 0.145098 
0.196078 0.721569 0.145098 0.196078 0.721569 0.145098 
0.196078 0.721569 0.145098 0.196078 0.721569 0.145098 
0.196078 0.721569 0.145098 0.196078 0.721569 0.145098 
0.196078 0.721569 0.145098 0.196078 0.721569 0.145098 
0.196078 0.721569 0.145098 0.196078 0.721569 0.145098 
0.196078 0.721569 0.145098 0.196078 0.721569 0.145098 
0.196078 0.721569 0.145098 0.196078 0.721569 0.145098 
0.196078 0.721569 0.145098 0.196078 0.721569 0.145098 
0.196078 0.721569 0.145098 0.196078 0.721569 0.145098 
0.196078 0.721569 0.145098 0.196078 0.721569 0.145098 
0.196078 0.721569 0.145098 0.196078 0.721569 0.145098 
0.196078 0.721569 0.145098 0.196078 0.721569 0.145098 
0.196078 0.721569 0.145098 0.196078 0.721569 0.145098 
0.196078 0.721569 0.145098 0.196078 0.721569 0.145098 
0.196078 0.721569 0.145098 0.196078 0.721569 0.145098 
0.196078 0.721569 0.145098 0.196078 0.721569 0.145098 
0.196078 0.721569 0.145098 0.196078 0.721569 0.145098 
0.196078 0.721569 0.145098 0.196078 0.721569 0.145098 
0.196078 0.721569 0.145098 0.196078 0.721569 0.145098 
0.196078 0.721569 0.145098 0.196078 0.721569 0.145098 
0.196078 0.721569 0.145098 0.196078 0.721569 0.145098 
0.196078 0.721569 0.145098 0.196078 0.721569 0.145098 
0.196078 0.721569 0.145098 0.196078 0.721569 0.145098 
0.196078 0.721569 0.145098 0.196078 0.721569 0.145098 
0.196078 0.721569 0.145098 0.196078 0.721569 0.145098 
0.196078 0.721569 0.145098 0.196078 0.721569 0.145098 
0.196078 0.721569 0.145098 0.196078 0.721569 0.145098 
0.196078 0.721569 0.145098 0.196078 0.721569 0.145098 
0.196078 0.721569 0.145098 0.196078 0.721569 0.145098 
0.196078 0.721569 0.145098 0.196078 0.721569 0.145098 
0.196078 0.721569 0.145098 0.196078 0.721569 0.145098 
0.196078 0.721569 0.145098 0.196078 0.721569 0.145098 
0.196078 0.721569 0.145098 0.196078 0.721569 0.145098 
0.196078 0.721569 0.145098 0.196078 0.721569 0.145098 
0.196078 0.721569 0.145098 0.196078 0.721569 0.145098 
0.196078 0.721569 0.145098 0.196078 0.721569 0.145098 
0.196078 0.721569 0.145098 0.196078 0.721569 0.145098 
0.196078 0.721569 0.145098 0.196078 0.721569 0.145098 
0.196078 0.721569 0.145098 0.196078 0.721569 0.145098 
0.196078 0.721569 0.145098 0.196078 0.721569 0.145098 
0.196078 0.721569 0.145098 0.196078 0.721569 0.145098 
0.196078 0.721569 0.145098 0.196078 0.721569 0.145098 
0.196078 0.721569 0.145098 0.196078 0.721569 0.145098 
0.196078 0.721569 0.145098 0.196078 0.721569 0.145098 
0.196078 0.721569 0.145098 0.196078 0.721569 0.145098 
0.196078 0.721569 0.145098 0.196078 0.721569 0.145098 
0.196078 0.721569 0.145098 0.196078 0.721569 0.145098 
0.196078 0.721569 0.145098 0.196078 0.721569 0.145098 
0.196078 0.721569 0.145098 0.196078 0.721569 0.145098 
0.196078 0.721569 0.145098 0.196078 0.721569 0.145098 
0.196078 0.721569 0.145098 0.196078 0.721569 0.145098 
0.196078 0.721569 0.145098 0.196078 0.721569 0.145098 
0.196078 0.721569 0.145098 0.196078 0.721569 0.145098 
0.196078 0.721569 0.145098 0.196078 0.721569 0.145098 
0.196078 0.721569 0.145098 0.196078 0.721569 0.145098 
0.196078 0.721569 0.145098 0.196078 0.721569 0.145098 
0.196078 0.721569 0.145098 0.196078 0.721569 0.145098 
0.196078 0.721569 0.145098 0.196078 0.721569 0.145098 
0.196078 0.721569 0.145098 0.196078 0.721569 0.145098 
0.196078 0.721569 0.145098 0.196078 0.721569 0.145098 
0.196078 0.721569 0.145098 0.196078 0.721569 0.145098 
0.196078 0.721569 0.145098 0.196078 0.721569 0.145098 
0.196078 0.721569 0.145098 0.196078 0.721569 0.145098 
0.196078 0.721569 0.145098 0.196078 0.721569 0.145098 
0.196078 0.721569 0.145098 0.196078 0.721569 0.145098 
0.196078 0.721569 0.145098 0.196078 0.721569 0.145098 
0.196078 0.721569 0.145098 0.196078 0.721569 0.145098 
0.196078 0.721569 0.145098 0.196078 0.721569 0.145098 
0.196078 0.721569 0.145098 0.196078 0.721569 0.145098 
0.196078 0.721569 0.145098 0.196078 0.721569 0.145098 
0.196078 0.721569 0.145098 0.196078 0.721569 0.145098 
0.196078 0.721569 0.145098 0.196078 0.721569 0.145098 
0.196078 0.721569 0.145098 0.196078 0.721569 0.145098 
0.196078 0.721569 0.145098 0.196078 0.721569 0.145098 
0.196078 0.721569 0.145098 0.196078 0.721569 0.145098 
0.196078 0.721569 0.145098 0.196078 0.721569 0.145098 
0.196078 0.721569 0.145098 0.196078 0.721569 0.145098 
0.196078 0.721569 0.145098 0.196078 0.721569 0.145098 
0.196078 0.721569 0.145098 0.196078 0.721569 0.145098 
0.196078 0.721569 0.145098 0.196078 0.721569 0.145098 
0.196078 0.721569 0.145098 0.196078 0.721569 0.145098 
0.196078 0.721569 0.145098 0.196078 0.721569 0.145098 
0.196078 0.721569 0.145098 0.196078 0.721569 0.145098 
0.196078 0.721569 0.145098 0.196078 0.721569 0.145098 
0.196078 0.721569 0.145098 0.196078 0.721569 0.145098 
0.196078 0.721569 0.145098 0.196078 0.721569 0.145098 
0.196078 0.721569 0.145098 0.196078 0.721569 0.145098 
0.196078 0.721569 0.145098 0.196078 0.721569 0.145098 
0.196078 0.721569 0.145098 0.196078 0.721569 0.145098 
0.196078 0.721569 0.145098 0.196078 0.721569 0.145098 
0.196078 0.721569 0.145098 0.196078 0.721569 0.145098 
0.196078 0.721569 0.145098 0.196078 0.721569 0.145098 
0.196078 0.721569 0.145098 0.196078 0.721569 0.145098 
0.196078 0.721569 0.145098 0.196078 0.721569 0.145098 
0.196078 0.721569 0.145098 0.196078 0.721569 0.145098 
0.196078 0.721569 0.145098 0.196078 0.721569 0.145098 
0.196078 0.721569 0.145098 0.196078 0.721569 0.145098 
0.196078 0.721569 0.145098 0.196078 0.721569 0.145098 
0.196078 0.721569 0.145098 0.196078 0.721569 0.145098 
0.196078 0.721569 0.145098 0.196078 0.721569 0.145098 
0.196078 0.721569 0.145098 0.196078 0.721569 0.145098 
0.196078 0.721569 0.145098 0.196078 0.721569 0.145098 
0.196078 0.721569 0.145098 0.196078 0.721569 0.145098 
0.196078 0.721569 0.145098 0.196078 0.721569 0.145098 
0.196078 0.721569 0.145098 0.196078 0.721569 0.145098 
0.196078 0.721569 0.145098 0.196078 0.721569 0.145098 
0.196078 0.721569 0.145098 0.196078 0.721569 0.145098 
0.196078 0.721569 0.145098 0.196078 0.721569 0.145098 
0.196078 0.721569 0.145098 0.196078 0.721569 0.145098 
0.196078 0.721569 0.145098 0.196078 0.721569 0.145098 
0.196078 0.721569 0.145098 0.196078 0.721569 0.145098 
0.196078 0.721569 0.145098 0.196078 0.721569 0.145098 
0.196078 0.721569 0.145098 0.196078 0.721569 0.145098 
0.196078 0.721569 0.145098 0.196078 0.721569 0.145098 
0.196078 0.721569 0.145098 0.196078 0.721569 0.145098 
0.196078 0.721569 0.145098 0.196078 0.721569 0.145098 
0.196078 0.721569 0.145098 0.196078 0.721569 0.145098 
0.196078 0.721569 0.145098 0.196078 0.721569 0.145098 
0.196078 0.721569 0.145098 0.196078 0.721569 0.145098 
0.196078 0.721569 0.145098 0.196078 0.721569 0.145098 
0.196078 0.721569 0.145098 0.196078 0.721569 0.145098 
0.196078 0.721569 0.145098 0.196078 0.721569 0.145098 
0.196078 0.721569 0.145098 0.196078 0.721569 0.145098 
0.196078 0.721569 0.145098 0.196078 0.721569 0.145098 
0.196078 0.721569 0.145098 0.196078 0.721569 0.145098 
0.196078 0.721569 0.145098 0.196078 0.721569 0.145098 
0.196078 0.721569 0.145098 0.196078 0.721569 0.145098 
0.196078 0.721569 0.145098 0.196078 0.721569 0.145098 
0.196078 0.721569 0.145098 0.196078 0.721569 0.145098 
0.196078 0.721569 0.145098 0.196078 0.721569 0.145098 
0.196078 0.721569 0.145098 0.196078 0.721569 0.145098 
0.196078 0.721569 0.145098 0.196078 0.721569 0.145098 
0.196078 0.721569 0.145098 0.196078 0.721569 0.145098 
0.196078 0.721569 0.145098 0.196078 0.721569 0.145098 
0.196078 0.721569 0.145098 0.196078 0.721569 0.145098 
0.196078 0.721569 0.145098 0.196078 0.721569 0.145098 
0.196078 0.721569 0.145098 0.196078 0.721569 0.145098 
0.196078 0.721569 0.145098 0.196078 0.721569 0.145098 
0.196078 0.721569 0.145098 0.196078 0.721569 0.145098 
0.196078 0.721569 0.145098 0.196078 0.721569 0.145098 
0.196078 0.721569 0.145098 0.196078 0.721569 0.145098 
0.196078 0.721569 0.145098 0.196078 0.721569 0.145098 
0.196078 0.721569 0.145098 0.196078 0.721569 0.145098 
0.196078 0.721569 0.145098 0.196078 0.721569 0.145098 
0.196078 0.721569 0.145098 0.196078 0.721569 0.145098 
0.196078 0.721569 0.145098 0.196078 0.721569 0.145098 
0.196078 0.721569 0.145098 0.196078 0.721569 0.145098 
0.196078 0.721569 0.145098 0.196078 0.721569 0.145098 
0.196078 0.721569 0.145098 0.196078 0.721569 0.145098 
0.196078 0.721569 0.145098 0.196078 0.721569 0.145098 
0.196078 0.721569 0.145098 0.196078 0.721569 0.145098 
0.196078 0.721569 0.145098 0.196078 0.721569 0.145098 
0.196078 0.721569 0.145098 0.196078 0.721569 0.145098 
0.196078 0.721569 0.145098 0.196078 0.721569 0.145098 
0.196078 0.721569 0.145098 0.196078 0.721569 0.145098 
0.196078 0.721569 0.145098 0.196078 0.721569 0.145098 
0.196078 0.721569 0.145098 0.196078 0.721569 0.145098 
0.196078 0.721569 0.145098 0.196078 0.721569 0.145098 
0.196078 0.721569 0.145098 0.196078 0.721569 0.145098 
0.196078 0.721569 0.145098 0.196078 0.721569 0.145098 
0.196078 0.721569 0.145098 0.196078 0.721569 0.145098 
0.196078 0.721569 0.145098 0.196078 0.721569 0.145098 
0.196078 0.721569 0.145098 0.196078 0.721569 0.145098 
0.196078 0.721569 0.145098 0.196078 0.721569 0.145098 
0.196078 0.721569 0.145098 0.196078 0.721569 0.145098 
0.196078 0.721569 0.145098 0.196078 0.721569 0.145098 
0.196078 0.721569 0.145098 0.196078 0.721569 0.145098 
0.196078 0.721569 0.145098 0.196078 0.721569 0.145098 
0.196078 0.721569 0.145098 0.196078 0.721569 0.145098 
0.196078 0.721569 0.145098 0.196078 0.721569 0.145098 
0.196078 0.721569 0.145098 0.196078 0.721569 0.145098 
0.196078 0.721569 0.145098 0.196078 0.721569 0.145098 
0.196078 0.721569 0.145098 0.196078 0.721569 0.145098 
0.196078 0.721569 0.145098 0.196078 0.721569 0.145098 
0.196078 0.721569 0.145098 0.196078 0.721569 0.145098 
0.196078 0.721569 0.145098 0.196078 0.721569 0.145098 
0.196078 0.721569 0.145098 0.196078 0.721569 0.145098 
0.196078 0.721569 0.145098 0.196078 0.721569 0.145098 
0.196078 0.721569 0.145098 0.196078 0.721569 0.145098 
0.196078 0.721569 0.145098 0.196078 0.721569 0.145098 
0.196078 0.721569 0.145098 0.196078 0.721569 0.145098 
0.196078 0.721569 0.145098 0.196078 0.721569 0.145098 
0.196078 0.721569 0.145098 0.196078 0.721569 0.145098 
0.196078 0.721569 0.145098 0.196078 0.721569 0.145098 
0.196078 0.721569 0.145098 0.196078 0.721569 0.145098 
0.196078 0.721569 0.145098 0.196078 0.721569 0.145098 
0.196078 0.721569 0.145098 0.196078 0.721569 0.145098 
0.196078 0.721569 0.145098 0.196078 0.721569 0.145098 
0.196078 0.721569 0.145098 0.196078 0.721569 0.145098 
0.196078 0.721569 0.145098 0.196078 0.721569 0.145098 
0.196078 0.721569 0.145098 0.196078 0.721569 0.145098 
0.196078 0.721569 0.145098 0.196078 0.721569 0.145098 
0.196078 0.721569 0.145098 0.196078 0.721569 0.145098 
0.196078 0.721569 0.145098 0.196078 0.721569 0.145098 
0.196078 0.721569 0.145098 0.196078 0.721569 0.145098 
0.196078 0.721569 0.145098 0.196078 0.721569 0.145098 
0.196078 0.721569 0.145098 0.196078 0.721569 0.145098 
0.196078 0.721569 0.145098 0.196078 0.721569 0.145098 
0.196078 0.721569 0.145098 0.196078 0.721569 0.145098 
0.196078 0.721569 0.145098 0.196078 0.721569 0.145098 
0.196078 0.721569 0.145098 0.196078 0.721569 0.145098 
0.196078 0.721569 0.145098 0.196078 0.721569 0.145098 
0.196078 0.721569 0.145098 0.196078 0.721569 0.145098 
0.196078 0.721569 0.145098 0.196078 0.721569 0.145098 
0.196078 0.721569 0.145098 0.196078 0.721569 0.145098 
0.196078 0.721569 0.145098 0.196078 0.721569 0.145098 
0.196078 0.721569 0.145098 0.196078 0.721569 0.145098 
0.196078 0.721569 0.145098 0.196078 0.721569 0.145098 
0.196078 0.721569 0.145098 0.196078 0.721569 0.145098 
0.196078 0.721569 0.145098 0.196078 0.721569 0.145098 
0.196078 0.721569 0.145098 0.196078 0.721569 0.145098 
0.196078 0.721569 0.145098 0.196078 0.721569 0.145098 
0.196078 0.721569 0.145098 0.196078 0.721569 0.145098 
0.196078 0.721569 0.145098 0.196078 0.721569 0.145098 
0.196078 0.721569 0.145098 0.196078 0.721569 0.145098 
0.196078 0.721569 0.145098 0.196078 0.721569 0.145098 
0.196078 0.721569 0.145098 0.196078 0.721569 0.145098 
0.196078 0.721569 0.145098 0.196078 0.721569 0.145098 
0.196078 0.721569 0.145098 0.196078 0.721569 0.145098 
0.196078 0.721569 0.145098 0.196078 0.721569 0.145098 
0.196078 0.721569 0.145098 0.196078 0.721569 0.145098 
0.196078 0.721569 0.145098 0.196078 0.721569 0.145098 
0.196078 0.721569 0.145098 0.196078 0.721569 0.145098 
0.196078 0.721569 0.145098 0.196078 0.721569 0.145098 
0.196078 0.721569 0.145098 0.196078 0.721569 0.145098 
0.196078 0.721569 0.145098 0.196078 0.721569 0.145098 
0.196078 0.721569 0.145098 0.196078 0.721569 0.145098 
0.196078 0.721569 0.145098 0.196078 0.721569 0.145098 
0.196078 0.721569 0.145098 0.196078 0.721569 0.145098 
0.196078 0.721569 0.145098 0.196078 0.721569 0.145098 
0.196078 0.721569 0.145098 0.196078 0.721569 0.145098 
0.196078 0.721569 0.145098 0.196078 0.721569 0.145098 
0.196078 0.721569 0.145098 0.196078 0.721569 0.145098 
0.196078 0.721569 0.145098 0.196078 0.721569 0.145098 
0.196078 0.721569 0.145098 0.196078 0.721569 0.145098 
0.196078 0.721569 0.145098 0.196078 0.721569 0.145098 
0.196078 0.721569 0.145098 0.196078 0.721569 0.145098 
0.196078 0.721569 0.145098 0.196078 0.721569 0.145098 
0.196078 0.721569 0.145098 0.196078 0.721569 0.145098 
0.196078 0.721569 0.145098 0.196078 0.721569 0.145098 
0.196078 0.721569 0.145098 0.196078 0.721569 0.145098 
0.196078 0.721569 0.145098 0.196078 0.721569 0.145098 
0.196078 0.721569 0.145098 0.196078 0.721569 0.145098 
0.196078 0.721569 0.145098 0.196078 0.721569 0.145098 
0.196078 0.721569 0.145098 0.196078 0.721569 0.145098 
0.196078 0.721569 0.145098 0.196078 0.721569 0.145098 
0.196078 0.721569 0.145098 0.196078 0.721569 0.145098 
0.196078 0.721569 0.145098 0.196078 0.721569 0.145098 
0.196078 0.721569 0.145098 0.196078 0.721569 0.145098 
0.196078 0.721569 0.145098 0.196078 0.721569 0.145098 
0.196078 0.721569 0.145098 0.196078 0.721569 0.145098 
0.196078 0.721569 0.145098 0.196078 0.721569 0.145098 
0.196078 0.721569 0.145098 0.196078 0.721569 0.145098 
0.196078 0.721569 0.145098 0.196078 0.721569 0.145098 
0.196078 0.721569 0.145098 0.196078 0.721569 0.145098 
0.196078 0.721569 0.145098 0.196078 0.721569 0.145098 
0.196078 0.721569 0.145098 0.196078 0.721569 0.145098 
0.196078 0.721569 0.145098 0.196078 0.721569 0.145098 
0.196078 0.721569 0.145098 0.196078 0.721569 0.145098 
0.196078 0.721569 0.145098 0.196078 0.721569 0.145098 
0.196078 0.721569 0.145098 0.196078 0.721569 0.145098 
0.196078 0.721569 0.145098 0.196078 0.721569 0.145098 
0.196078 0.721569 0.145098 0.196078 0.721569 0.145098 
0.196078 0.721569 0.145098 0.196078 0.721569 0.145098 
0.196078 0.721569 0.145098 0.196078 0.721569 0.145098 
0.196078 0.721569 0.145098 0.196078 0.721569 0.145098 
0.196078 0.721569 0.145098 0.196078 0.721569 0.145098 
0.196078 0.721569 0.145098 0.196078 0.721569 0.145098 
0.196078 0.721569 0.145098 0.196078 0.721569 0.145098 
0.196078 0.721569 0.145098 0.196078 0.721569 0.145098 
0.196078 0.721569 0.145098 0.196078 0.721569 0.145098 
0.196078 0.721569 0.145098 0.196078 0.721569 0.145098 
0.196078 0.721569 0.145098 0.196078 0.721569 0.145098 
0.196078 0.721569 0.145098 0.196078 0.721569 0.145098 
0.196078 0.721569 0.145098 0.196078 0.721569 0.145098 
0.196078 0.721569 0.145098 0.196078 0.721569 0.145098 
0.196078 0.721569 0.145098 0.196078 0.721569 0.145098 
0.196078 0.721569 0.145098 0.196078 0.721569 0.145098 
0.196078 0.721569 0.145098 0.196078 0.721569 0.145098 
0.196078 0.721569 0.145098 0.196078 0.721569 0.145098 
0.196078 0.721569 0.145098 0.196078 0.721569 0.145098 
0.196078 0.721569 0.145098 0.196078 0.721569 0.145098 
0.196078 0.721569 0.145098 0.196078 0.721569 0.145098 
0.196078 0.721569 0.145098 0.196078 0.721569 0.145098 
0.196078 0.721569 0.145098 0.196078 0.721569 0.145098 
0.196078 0.721569 0.145098 0.196078 0.721569 0.145098 
0.196078 0.721569 0.145098 0.196078 0.721569 0.145098 
0.196078 0.721569 0.145098 0.196078 0.721569 0.145098 
0.196078 0.721569 0.145098 0.196078 0.721569 0.145098 
0.196078 0.721569 0.145098 0.196078 0.721569 0.145098 
0.196078 0.721569 0.145098 0.196078 0.721569 0.145098 
0.196078 0.721569 0.145098 0.196078 0.721569 0.145098 
0.196078 0.721569 0.145098 0.196078 0.721569 0.145098 
0.196078 0.721569 0.145098 0.196078 0.721569 0.145098 
0.196078 0.721569 0.145098 0.196078 0.721569 0.145098 
0.196078 0.721569 0.145098 0.196078 0.721569 0.145098 
0.196078 0.721569 0.145098 0.196078 0.721569 0.145098 
0.196078 0.721569 0.145098 0.196078 0.721569 0.145098 
0.196078 0.721569 0.145098 0.196078 0.721569 0.145098 
0.196078 0.721569 0.145098 0.196078 0.721569 0.145098 
0.196078 0.721569 0.145098 0.196078 0.721569 0.145098 
0.196078 0.721569 0.145098 0.196078 0.721569 0.145098 
0.196078 0.721569 0.145098 0.196078 0.721569 0.145098 
0.196078 0.721569 0.145098 0.196078 0.721569 0.145098 
0.196078 0.721569 0.145098 0.196078 0.721569 0.145098 
0.196078 0.721569 0.145098 0.196078 0.721569 0.145098 
0.196078 0.721569 0.145098 0.196078 0.721569 0.145098 
0.196078 0.721569 0.145098 0.196078 0.721569 0.145098 
0.196078 0.721569 0.145098 0.196078 0.721569 0.145098 
0.196078 0.721569 0.145098 0.196078 0.721569 0.145098 
0.196078 0.721569 0.145098 0.196078 0.721569 0.145098 
0.196078 0.721569 0.145098 0.196078 0.721569 0.145098 
0.196078 0.721569 0.145098 0.196078 0.721569 0.145098 
0.196078 0.721569 0.145098 0.196078 0.721569 0.145098 
0.196078 0.721569 0.145098 0.196078 0.721569 0.145098 
0.196078 0.721569 0.145098 0.196078 0.721569 0.145098 
0.196078 0.721569 0.145098 0.196078 0.721569 0.145098 