# vtk DataFile Version 4.2
vtk output
ASCII
DATASET POLYDATA
POINTS 3681 float
397.407 161.394 58.6464 397.347 160.937 58.7611 397.582 161.076 58.6915 
397.286 162.716 58.624 396.836 163.838 58.7899 397.192 165.861 58.8023 
396.137 172.814 59.1708 398.184 156.871 59.4266 398.101 156.699 59.5838 
398.006 156.947 59.4102 398.288 156.761 59.5441 398.367 157.019 59.4611 
397.84 157.778 59.2286 397.879 158.408 59.1296 398.237 158.423 59.1305 
398.498 158.119 59.2826 397.572 160.345 58.8747 397.086 160.54 59.0506 
398.013 162.068 58.7039 398.33 162.568 58.8399 396.462 164.08 59.0307 
396.357 165.024 59.0916 396.352 165.917 59.109 397.944 165.323 58.8735 
396.849 168.962 59.1315 396.39 168.873 59.1737 397.414 168.467 59.1784 
396.138 169.228 59.2847 396.851 170.965 59.2038 395.05 176.741 59.8016 
395.182 176.572 59.7908 397.904 156.806 59.5615 397.915 156.684 59.8141 
397.756 156.894 59.6788 398.14 156.583 59.8257 398.305 156.643 59.7351 
398.494 156.709 59.9197 397.795 157.078 59.4776 398.755 157.005 60.0158 
397.679 157.527 59.4032 399.275 158.999 59.7941 396.049 164.859 59.3729 
395.918 164.437 59.6027 398.382 166.39 59.3365 396.093 168.431 59.3442 
395.549 171.185 59.646 397.146 171.432 59.3547 397.916 170.282 59.7006 
395.411 171.837 59.7218 395.298 171.329 59.964 397.371 172.784 59.7209 
394.91 175.14 60.089 395.211 175.901 59.8264 395.519 176.793 59.8868 
394.598 177.895 60.1914 395.057 178.744 60.1722 395.848 178.441 60.3176 
394.37 179.902 60.3089 394.129 180.226 60.4176 394.845 181.393 60.4539 
393.779 182.383 60.6472 394.338 182.108 60.4521 393.844 183.186 60.6677 
393.735 183.343 60.7701 394.047 183.168 60.684 393.862 183.408 60.7436 
393 187.009 59.0174 393 187.009 59.0175 393 187.009 59.0175 
393 187.009 59.0175 393 187.009 59.0175 397.84 156.702 60.147 
397.659 156.925 59.9796 398.582 156.737 60.2721 399.197 157.221 60.7403 
399.453 157.629 60.7953 399.551 158.614 60.2633 396.336 160.665 59.9168 
399.8 160.159 60.2035 395.984 161.399 60.3573 396.094 161.941 59.8647 
399.773 161.716 60.1089 395.1 171.09 60.5178 398.39 171.737 60.5075 
394.735 173.389 60.7407 394.406 176.475 60.4456 394.312 177.276 60.4249 
394.065 177.555 60.6839 394.803 181.846 60.5384 393.556 182.529 60.8909 
394.564 182.324 60.5878 394.873 182.125 60.7181 393.435 183.047 61.272 
393.59 183.328 60.978 394.159 183.319 60.8274 393.619 183.616 61.0892 
393.627 183.717 61.3141 393.749 183.574 60.9025 393.977 183.518 60.8779 
393 187.009 59.0175 393.713 183.731 61.0819 393.834 183.707 61.0117 
398.306 156.642 60.4315 397.021 157.604 60.8502 399.816 157.947 61.4764 
400.161 158.681 61.3629 396.507 159.258 60.4698 400.388 159.451 61.3257 
395.543 163.238 61.2048 394.518 173.427 61.3223 394.453 173.293 61.8595 
393.841 177.553 61.1398 393.337 180.836 61.6025 393.46 181.373 61.168 
393.424 182.122 61.1928 395.103 182.16 61.0338 393.508 183.624 61.699 
393.722 183.774 61.6029 393.808 183.767 61.2365 394.047 183.674 61.4453 
393.977 183.668 61.1079 399.021 157.106 61.4108 400.763 159.815 61.9101 
395.936 160.682 61.5942 400.788 163.095 61.7983 395.473 164.418 61.8003 
393.441 178.698 62.1214 393.236 181.868 62.2348 393.476 183.41 62.2361 
393.465 183.712 61.9459 393.478 183.783 61.9581 393.545 183.782 61.849 
393.697 183.767 61.9169 397.242 157.632 62.0851 396.984 157.832 61.7943 
397.597 157.374 62.0765 398.1 157.121 61.9774 398.377 157.286 62.5039 
398.993 157.243 62.0831 400.669 158.634 63.3614 396.566 159.061 62.2921 
396.167 160.486 62.5619 401.258 160.175 63.0684 394.282 174.066 62.7057 
397.957 177.925 62.6475 393.331 179.615 62.7197 393.282 182.361 63.2809 
393.293 182.713 63.1078 393.419 182.923 63.1478 393.554 183.723 62.0368 
393.495 183.179 62.827 393.817 183.592 62.2661 394.192 183.342 62.8029 
356.7 233.246 66.172 356.717 233.241 66.2786 356.716 233.267 66.2536 
356.739 233.231 66.2619 356.739 233.257 66.2369 397.395 158.265 63.123 
399.332 157.975 63.802 400.33 158.288 63.4057 400.898 159.147 63.8618 
396.529 159.964 63.1373 401.196 159.732 63.8812 395.898 164.489 63.7328 
401.238 168.616 64.2583 393.472 179.869 63.8966 393.402 182.286 63.6398 
393.577 182.785 63.5144 393.658 183.085 63.1945 394.318 183.147 63.3017 
356.799 233.185 66.5493 356.762 233.296 66.5661 356.869 233.246 66.4745 
356.794 233.31 66.4194 398.133 158.409 63.9411 399.038 158 63.8696 
398.905 158.154 64.0576 397.8 158.845 64.1129 400.136 158.75 64.5707 
400.41 159.1 64.7242 396.988 162.755 65.2983 396.576 163.119 64.7499 
394.887 173.831 65.3392 393.654 180.529 64.4679 393.525 181.588 64.0603 
393.524 182.474 63.724 393.793 182.515 63.8963 394.209 182.581 64.0176 
395.238 182.678 63.5358 356.918 233.017 67.016 356.787 233.186 67.0084 
356.845 233.492 67.2395 399.158 159.328 65.1757 401.631 161.306 65.5216 
397.769 179.979 65.5125 397.397 180.415 65.3582 396.362 181.313 65.0714 
387.54 205.543 68.5005 387.5 205.497 68.5477 387.498 205.62 68.5214 
387.58 205.494 68.6215 387.553 205.624 68.5798 356.733 233.729 68.1238 
357.155 234.005 67.8984 357.564 233.781 67.6628 398.476 160.107 65.4307 
399.975 159.95 65.6617 399.113 160.976 66.3579 399.516 160.688 66.2982 
399.793 160.842 66.4625 400.726 161.219 66.4967 400.985 161.542 66.6361 
401.927 163.085 66.6584 394.453 179.966 65.7361 394.176 181.175 64.9593 
396.705 180.813 65.771 397.175 180.515 65.7964 387.401 205.637 68.6004 
387.401 205.43 68.7138 387.538 205.355 68.7192 387.287 205.858 68.7075 
387.462 205.86 68.6992 387.646 205.665 68.8645 387.234 206.218 68.8482 
387.606 206.073 69.0395 387.108 206.599 69.0243 387.13 206.868 69.2001 
356.776 232.8 68.0891 356.512 233.625 68.6924 358.494 233.386 68.3137 
358.394 234.002 68.4121 395.654 174.949 67.873 400.929 175.132 68.2186 
396.944 180.09 66.7798 387.46 205.222 68.9456 387.594 205.221 68.9522 
387.569 205.084 69.2091 387.74 206.324 69.5095 387.308 206.949 69.4003 
387.018 207.291 69.5353 356.995 232.245 68.7553 356.826 232.44 68.6736 
358.784 232.946 68.6847 356.368 233.723 69.267 356.344 234.22 69.609 
357.701 234.842 68.7461 400.774 162.645 67.9031 399.789 163.335 68.4854 
400.247 163.243 68.5522 401.584 163.41 68.1128 398.659 164.386 68.5177 
400.931 163.581 68.8052 398.482 165.043 68.8606 396.354 175.312 69.5285 
396.393 178.745 68.0456 387.665 204.877 69.7571 387.932 205.177 69.8432 
387.991 206.05 69.9691 387.602 206.901 69.7731 385.945 207.874 70.2702 
386.845 208.053 70.0552 386.341 209.097 70.4249 385.771 210.464 70.9355 
385.849 210.811 71.1456 356.489 232.746 69.4442 358.28 232.196 68.9814 
360.567 233.957 69.8739 360.66 233.517 69.9426 356.223 234.394 70.2081 
356.728 235.527 70.1564 356.876 235.98 70.5922 399.843 164.511 69.822 
400.572 163.996 69.3444 401.632 164.162 68.9042 397.199 169.722 70.1153 
396.44 176.454 69.4492 396.659 176.657 69.6727 396.804 178.257 68.6596 
398.199 178.241 69.0654 387.04 204.181 70.8435 387.31 203.932 71.1649 
387.583 204.051 70.9643 388.168 205.507 70.3506 388.367 205.113 70.9787 
387 209.099 70.9739 385.782 211.45 71.5961 385.523 211.933 71.7521 
385.133 212.277 71.9247 385.171 212.636 72.1365 356.678 232.238 70.0589 
356.222 233.309 70.3517 356.13 233.916 70.6063 360.994 234.865 70.5759 
356.361 236.093 71.7357 400.681 165.055 71.0897 397.023 175.258 71.2816 
400.343 176.381 70.3207 397.772 177.323 70.2265 398.325 177.013 71.0721 
400.16 176.425 71.096 388.071 203.954 71.5291 385.55 205.638 71.4794 
356.891 231.673 71.0633 357.007 231.586 71.168 357.347 231.476 71.3584 
356.347 232.808 70.8541 360.702 231.827 71.0851 363.952 233.173 72.2454 
359.437 236.189 70.7537 357.234 237.259 72.0018 399.599 165.36 71.0007 
399.804 165.512 71.9865 400.649 165.275 71.8484 401.706 165.561 71.4956 
402.654 167.308 72.0872 401.114 175.147 71.8076 397.881 176.35 71.8485 
387.312 203.007 73.1261 387.679 203.007 72.9594 386.226 203.986 72.3273 
386.006 203.958 72.8167 387.822 203.305 72.4691 385.978 204.532 71.8652 
388.658 205.56 71.8376 387.987 207.942 71.8584 384.284 213.497 73.0731 
384.523 214.091 73.2421 383.948 216.309 73.9127 383.91 215.977 73.8801 
383.887 216.572 73.9974 384.045 216.467 74.0304 383.916 216.768 74.1465 
356.939 231.727 71.3012 357.547 231.252 71.9078 357.501 231.238 72.019 
357.392 231.357 71.9031 357.152 231.719 72.0511 357.999 231.212 72.2039 
362.582 231.839 72.2197 356.16 233.557 71.8304 364.333 232.813 72.5605 
356.009 235.627 72.7068 356.145 236.945 73.4134 357.712 237.605 72.1884 
358.145 237.901 72.5463 356.375 237.702 73.6758 399.668 165.523 73.2131 
399.123 166.05 72.4957 400.363 165.314 72.8812 402.04 173.108 73.2982 
397.164 173.829 73.8694 397.585 175.093 73.8223 400.496 175.779 72.6884 
399.491 176.446 72.5472 399.998 176.211 72.5631 388.284 202.82 73.5925 
388.728 203.596 73.0371 389.15 204.431 73.3585 384.164 208.831 73.6165 
383.742 211.892 73.6848 383.999 212.376 73.1778 383.562 214.765 73.9929 
384.112 215.192 73.7598 384.788 214.89 73.8479 382.957 218.432 74.8577 
383.785 217.132 74.4565 383.106 218.214 74.8227 382.894 218.661 74.967 
383.051 218.573 74.9519 382.937 218.835 75.0993 357.546 231.326 72.2015 
361.886 231.259 72.6194 361.831 231.065 73.0207 363.774 231.975 72.7657 
356.069 234.393 72.8401 366.124 233.283 73.5797 366.554 233.403 73.9099 
355.98 235.811 73.4225 356.006 236.511 73.7338 356.652 238.369 73.974 
399.021 165.925 73.7984 400.156 165.066 73.9487 400.831 165.16 73.5844 
401.506 165.444 73.3625 402.843 168.924 74.0658 397.351 174.481 74.3428 
398.987 175.935 74.2097 387.341 202.129 75.3644 387.113 202.303 75.1653 
387.723 202.019 75.3739 388.88 202.801 74.3141 386.312 203.07 75.0929 
389.608 204.665 74.7807 382.872 215.095 74.8183 383.26 217.479 74.6644 
383.707 217.761 74.9858 383.305 218.342 75.0578 382.517 219.331 75.6149 
361.709 230.742 74.2456 357.09 232.229 73.4881 364.391 231.282 73.9042 
367.568 232.691 74.6653 356.141 234.551 73.6143 356.152 238.139 75.0733 
402.42 150.859 76.0607 402.253 150.448 76.2829 403.429 150.209 76.1649 
403.88 150.514 76.266 403.734 150.203 76.2737 403.942 150.25 76.4744 
[...]
POINT_DATA 3681
COLOR_SCALARS scalars 3
0.196078 0.721569 0.145098 0.196078 0.721569 0.145098 0.196078 0.721569 0.145098 
0.196078 0.721569 0.145098 0.196078 0.721569 0.145098 
0.196078 0.721569 0.145098 0.196078 0.721569 0.145098 
0.196078 0.721569 0.145098 0.196078 0.721569 0.145098 
0.196078 0.721569 0.145098 0.196078 0.721569 0.145098 
0.196078 0.721569 0.145098 0.196078 0.721569 0.145098 
0.196078 0.721569 0.145098 0.196078 0.721569 0.145098 
0.196078 0.721569 0.145098 0.196078 0.721569 0.145098 
0.196078 0.721569 0.145098 0.196078 0.721569 0.145098 
0.196078 0.721569 0.145098 0.196078 0.721569 0.145098 
0.196078 0.721569 0.145098 0.196078 0.721569 0.145098 
0.196078 0.721569 0.145098 0.196078 0.721569 0.145098 
0.196078 0.721569 0.145098 0.196078 0.721569 0.145098 
0.196078 0.721569 0.145098 0.196078 0.721569 0.145098 
0.196078 0.721569 0.145098 0.196078 0.721569 0.145098 
0.196078 0.721569 0.145098 0.196078 0.721569 0.145098 
0.196078 0.721569 0.145098 0.196078 0.721569 0.145098 
0.196078 0.721569 0.145098 0.196078 0.721569 0.145098 
0.196078 0.721569 0.145098 0.196078 0.721569 0.145098 
0.196078 0.721569 0.145098 0.196078 0.721569 0.145098 
0.196078 0.721569 0.145098 0.196078 0.721569 0.145098 
0.196078 0.721569 0.145098 0.196078 0.721569 0.145098 
0.196078 0.721569 0.145098 0.196078 0.721569 0.145098 
0.196078 0.721569 0.145098 0.196078 0.721569 0.145098 
0.196078 0.721569 0.145098 0.196078 0.721569 0.145098 
0.196078 0.721569 0.145098 0.196078 0.721569 0.145098 
0.196078 0.721569 0.145098 0.196078 0.721569 0.145098 
0.196078 0.721569 0.145098 0.196078 0.721569 0.145098 
0.196078 0.721569 0.145098 0.196078 0.721569 0.145098 
0.196078 0.721569 0.145098 0.196078 0.721569 0.145098 
0.196078 0.721569 0.145098 0.196078 0.721569 0.145098 
0.196078 0.721569 0.145098 0.196078 0.721569 0.145098 
0.196078 0.721569 0.145098 0.196078 0.721569 0.145098 
0.196078 0.721569 0.145098 0.196078 0.721569 0.145098 
0.196078 0.721569 0.145098 0.196078 0.721569 0.145098 
0.196078 0.721569 0.145098 0.196078 0.721569 0.145098 
0.196078 0.721569 0.145098 0.196078 0.721569 0.145098 
0.196078 0.721569 0.145098 0.196078 0.721569 0.145098 
0.196078 0.721569 0.145098 0.196078 0.721569 0.145098 
0.196078 0.721569 0.145098 0.196078 0.721569 0.145098 
0.196078 0.721569 0.145098 0.196078 0.721569 0.145098 
0.196078 0.721569 0.145098 0.196078 0.721569 0.145098 
0.196078 0.721569 0.145098 0.196078 0.721569 0.145098 
0.196078 0.721569 0.145098 0.196078 0.721569 0.145098 
0.196078 0.721569 0.145098 0.196078 0.721569 0.145098 
0.196078 0.721569 0.145098 0.196078 0.721569 0.145098 
0.196078 0.721569 0.145098 0.196078 0.721569 0.145098 
0.196078 0.721569 0.145098 0.196078 0.721569 0.145098 
0.196078 0.721569 0.145098 0.196078 0.721569 0.145098 
0.196078 0.721569 0.145098 0.196078 0.721569 0.145098 
0.196078 0.721569 0.145098 0.196078 0.721569 0.145098 
0.196078 0.721569 0.145098 0.196078 0.721569 0.145098 
0.196078 0.721569 0.145098 0.196078 0.721569 0.145098 
0.196078 0.721569 0.145098 0.196078 0.721569 0.145098 
0.196078 0.721569 0.145098 0.196078 0.721569 0.145098 
0.196078 0.721569 0.145098 0.196078 0.721569 0.145098 
0.196078 0.721569 0.145098 0.196078 0.721569 0.145098 
0.196078 0.721569 0.145098 0.196078 0.721569 0.145098 
0.196078 0.721569 0.145098 0.196078 0.721569 0.145098 
0.196078 0.721569 0.145098 0.196078 0.721569 0.145098 
0.196078 0.721569 0.145098 0.196078 0.721569 0.145098 
0.196078 0.721569 0.145098 0.196078 0.721569 0.145098 
0.196078 0.721569 0.145098 0.196078 0.721569 0.145098 
0.196078 0.721569 0.145098 0.196078 0.721569 0.145098 
0.196078 0.721569 0.145098 0.196078 0.721569 0.145098 
0.196078 0.721569 0.145098 0.196078 0.721569 0.145098 
0.196078 0.721569 0.145098 0.196078 0.721569 0.145098 
0.196078 0.721569 0.145098 0.196078 0.721569 0.145098 
0.196078 0.721569 0.145098 0.196078 0.721569 0.145098 
0.196078 0.721569 0.145098 0.196078 0.721569 0.145098 
0.196078 0.721569 0.145098 0.196078 0.721569 0.145098 
0.196078 0.721569 0.145098 0.196078 0.721569 0.145098 
0.196078 0.721569 0.145098 0.196078 0.721569 0.145098 
0.196078 0.721569 0.145098 0.196078 0.721569 0.145098 
0.196078 0.721569 0.145098 0.196078 0.721569 0.145098 
0.196078 0.721569 0.145098 0.196078 0.721569 0.145098 
0.196078 0.721569 0.145098 0.196078 0.721569 0.145098 
0.196078 0.721569 0.145098 0.196078 0.721569 0.145098 
0.196078 0.721569 0.145098 0.196078 0.721569 0.145098 
0.196078 0.721569 0.145098 0.196078 0.721569 0.145098 
0.196078 0.721569 0.145098 0.196078 0.721569 0.145098 
0.196078 0.721569 0.145098 0.196078 0.721569 0.145098 
0.196078 0.721569 0.145098 0.196078 0.721569 0.145098 
0.196078 0.721569 0.145098 0.196078 0.721569 0.145098 
0.196078 0.721569 0.145098 0.196078 0.721569 0.145098 
0.196078 0.721569 0.145098 0.196078 0.721569 0.145098 
0.196078 0.721569 0.145098 0.196078 0.721569 0.145098 
0.196078 0.721569 0.145098 0.196078 0.721569 0.145098 
0.196078 0.721569 0.145098 0.196078 0.721569 0.145098 
0.196078 0.721569 0.145098 0.196078 0.721569 0.145098 
0.196078 0.721569 0.145098 0.196078 0.721569 0.145098 
0.196078 0.721569 0.145098 0.196078 0.721569 0.145098 
0.196078 0.721569 0.145098 0.196078 0.721569 0.145098 
0.196078 0.721569 0.145098 0.196078 0.721569 0.145098 
0.196078 0.721569 0.145098 0.196078 0.721569 0.145098 
0.196078 0.721569 0.145098 0.196078 0.721569 0.145098 
0.196078 0.721569 0.145098 0.196078 0.721569 0.145098 
0.196078 0.721569 0.145098 0.196078 0.721569 0.145098 
0.196078 0.721569 0.145098 0.196078 0.721569 0.145098 
0.196078 0.721569 0.145098 0.196078 0.721569 0.145098 
0.196078 0.721569 0.145098 0.196078 0.721569 0.145098 
0.196078 0.721569 0.145098 0.196078 0.721569 0.145098 
0.196078 0.721569 0.145098 0.196078 0.721569 0.145098 
0.196078 0.721569 0.145098 0.196078 0.721569 0.145098 
0.196078 0.721569 0.145098 0.196078 0.721569 0.145098 
0.196078 0.721569 0.145098 0.196078 0.721569 0.145098 
0.196078 0.721569 0.145098 0.196078 0.721569 0.145098 
0.196078 0.721569 0.145098 0.196078 0.721569 0.145098 
0.196078 0.721569 0.145098 0.196078 0.721569 0.145098 
0.196078 0.721569 0.145098 0.196078 0.721569 0.145098 
0.196078 0.721569 0.145098 0.196078 0.721569 0.145098 
0.196078 0.721569 0.145098 0.196078 0.721569 0.145098 
0.196078 0.721569 0.145098 0.196078 0.721569 0.145098 
0.196078 0.721569 0.145098 0.196078 0.721569 0.145098 
0.196078 0.721569 0.145098 0.196078 0.721569 0.145098 
0.196078 0.721569 0.145098 0.196078 0.721569 0.145098 
0.196078 0.721569 0.145098 0.196078 0.721569 0.145098 
0.196078 0.721569 0.145098 0.196078 0.721569 0.145098 
0.196078 0.721569 0.145098 0.196078 0.721569 0.145098 
0.196078 0.721569 0.145098 0.196078 0.721569 0.145098 
0.196078 0.721569 0.145098 0.196078 0.721569 0.145098 
0.196078 0.721569 0.145098 0.196078 0.721569 0.145098 
0.196078 0.721569 0.145098 0.196078 0.721569 0.145098 
0.196078 0.721569 0.145098 0.196078 0.721569 0.145098 
0.196078 0.721569 0.145098 0.196078 0.721569 0.145098 
0.196078 0.721569 0.145098 0.196078 0.721569 0.145098 
0.196078 0.721569 0.145098 0.196078 0.721569 0.145098 
0.196078 0.721569 0.145098 0.196078 0.721569 0.145098 
0.196078 0.721569 0.145098 0.196078 0.721569 0.145098 
0.196078 0.721569 0.145098 0.196078 0.721569 0.145098 
0.196078 0.721569 0.145098 0.196078 0.721569 0.145098 
0.196078 0.721569 0.145098 0.196078 0.721569 0.145098 
0.196078 0.721569 0.145098 0.196078 0.721569 0.145098 
0.196078 0.721569 0.145098 0.196078 0.721569 0.145098 
0.196078 0.721569 0.145098 0.196078 0.721569 0.145098 
0.196078 0.721569 0.145098 0.196078 0.721569 0.145098 
0.196078 0.721569 0.145098 0.196078 0.721569 0.145098 
0.196078 0.721569 0.145098 0.196078 0.721569 0.145098 
0.196078 0.721569 0.145098 0.196078 0.721569 0.145098 
0.196078 0.721569 0.145098 0.196078 0.721569 0.145098 
0.196078 0.721569 0.145098 0.196078 0.721569 0.145098 
0.196078 0.721569 0.145098 0.196078 0.721569 0.145098 
0.196078 0.721569 0.145098 0.196078 0.721569 0.145098 
0.196078 0.721569 0.145098 0.196078 0.721569 0.145098 
0.196078 0.721569 0.145098 0.196078 0.721569 0.145098 
0.196078 0.721569 0.145098 0.196078 0.721569 0.145098 
0.196078 0.721569 0.145098 0.196078 0.721569 0.145098 
0.196078 0.721569 0.145098 0.196078 0.721569 0.145098 
0.196078 0.721569 0.145098 0.196078 0.721569 0.145098 
0.196078 0.721569 0.145098 0.196078 0.721569 0.145098 
0.196078 0.721569 0.145098 0.196078 0.721569 0.145098 
0.196078 0.721569 0.145098 0.196078 0.721569 0.145098 
0.196078 0.721569 0.145098 0.196078 0.721569 0.145098 
0.196078 0.721569 0.145098 0.196078 0.721569 0.145098 
0.196078 0.721569 0.145098 0.196078 0.721569 0.145098 
0.196078 0.721569 0.145098 0.196078 0.721569 0.145098 
0.196078 0.721569 0.145098 0.196078 0.721569 0.145098 
0.196078 0.721569 0.145098 0.196078 0.721569 0.145098 
0.196078 0.721569 0.145098 0.196078 0.721569 0.145098 
0.196078 0.721569 0.145098 0.196078 0.721569 0.145098 
0.196078 0.721569 0.145098 0.196078 0.721569 0.145098 
0.196078 0.721569 0.145098 0.196078 0.721569 0.145098 
0.196078 0.721569 0.145098 0.196078 0.721569 0.145098 
0.196078 0.721569 0.145098 0.196078 0.721569 0.145098 
0.196078 0.721569 0.145098 0.196078 0.721569 0.145098 
0.196078 0.721569 0.145098 0.196078 0.721569 0.145098 
0.196078 0.721569 0.145098 0.196078 0.721569 0.145098 
0.196078 0.721569 0.145098 0.196078 0.721569 0.145098 
0.196078 0.721569 0.145098 0.196078 0.721569 0.145098 
0.196078 0.721569 0.145098 0.196078 0.721569 0.145098 
0.196078 0.721569 0.145098 0.196078 0.721569 0.145098 
0.196078 0.721569 0.145098 0.196078 0.721569 0.145098 
0.196078 0.721569 0.145098 0.196078 0.721569 0.145098 
0.196078 0.721569 0.145098 0.196078 0.721569 0.145098 
0.196078 0.721569 0.145098 0.196078 0.721569 0.145098 
0.196078 0.721569 0.145098 0.196078 0.721569 0.145098 
0.196078 0.721569 0.145098 0.196078 0.721569 0.145098 
0.196078 0.721569 0.145098 0.196078 0.721569 0.145098 
0.196078 0.721569 0.145098 0.196078 0.721569 0.145098 
0.196078 0.721569 0.145098 0.196078 0.721569 0.145098 
0.196078 0.721569 0.145098 0.196078 0.721569 0.145098 
0.196078 0.721569 0.145098 0.196078 0.721569 0.145098 
0.196078 0.721569 0.145098 0.196078 0.721569 0.145098 
0.196078 0.721569 0.145098 0.196078 0.721569 0.145098 
0.196078 0.721569 0.145098 0.196078 0.721569 0.145098 
0.196078 0.721569 0.145098 0.196078 0.721569 0.145098 
0.196078 0.721569 0.145098 0.196078 0.721569 0.145098 
0.196078 0.721569 0.145098 0.196078 0.721569 0.145098 
0.196078 0.721569 0.145098 0.196078 0.721569 0.145098 
0.196078 0.721569 0.145098 0.196078 0.721569 0.145098 
0.196078 0.721569 0.145098 0.196078 0.721569 0.145098 
0.196078 0.721569 0.145098 0.196078 0.721569 0.145098 
0.196078 0.721569 0.145098 0.196078 0.721569 0.145098 
0.196078 0.721569 0.145098 0.196078 0.721569 0.145098 
0.196078 0.721569 0.145098 0.196078 0.721569 0.145098 
0.196078 0.721569 0.145098 0.196078 0.721569 0.145098 
0.196078 0.721569 0.145098 0.196078 0.721569 0.145098 
0.196078 0.721569 0.145098 0.196078 0.721569 0.145098 
0.196078 0.721569 0.145098 0.196078 0.721569 0.145098 
0.196078 0.721569 0.145098 0.196078 0.721569 0.145098 
0.196078 0.721569 0.145098 0.196078 0.721569 0.145098 
0.196078 0.721569 0.145098 0.196078 0.721569 0.145098 
0.196078 0.721569 0.145098 0.196078 0.721569 0.145098 
0.196078 0.721569 0.145098 0.196078 0.721569 0.145098 
0.196078 0.721569 0.145098 0.196078 0.721569 0.145098 
0.196078 0.721569 0.145098 0.196078 0.721569 0.145098 
0.196078 0.721569 0.145098 0.196078 0.721569 0.145098 
0.196078 0.721569 0.145098 0.196078 0.721569 0.145098 
0.196078 0.721569 0.145098 0.196078 0.721569 0.145098 
0.196078 0.721569 0.145098 0.196078 0.721569 0.145098 
0.196078 0.721569 0.145098 0.196078 0.721569 0.145098 
0.196078 0.721569 0.145098 0.196078 0.721569 0.145098 
0.196078 0.721569 0.145098 0.196078 0.721569 0.145098 
0.196078 0.721569 0.145098 0.196078 0.721569 0.145098 
0.196078 0.721569 0.145098 0.196078 0.721569 0.145098 
0.196078 0.721569 0.145098 0.196078 0.721569 0.145098 
0.196078 0.721569 0.145098 0.196078 0.721569 0.145098 
0.196078 0.721569 0.145098 0.196078 0.721569 0.145098 
0.196078 0.721569 0.145098 0.196078 0.721569 0.145098 
0.196078 0.721569 0.145098 0.196078 0.721569 0.145098 
0.196078 0.721569 0.145098 0.196078 0.721569 0.145098 
0.196078 0.721569 0.145098 0.196078 0.721569 0.145098 
0.196078 0.721569 0.145098 0.196078 0.721569 0.145098 
0.196078 0.721569 0.145098 0.196078 0.721569 0.145098 
0.196078 0.721569 0.145098 0.196078 0.721569 0.145098 
0.196078 0.721569 0.145098 0.196078 0.721569 0.145098 
0.196078 0.721569 0.145098 0.196078 0.721569 0.145098 
0.196078 0.721569 0.145098 0.196078 0.721569 0.145098 
0.196078 0.721569 0.145098 0.196078 0.721569 0.145098 
0.196078 0.721569 0.145098 0.196078 0.721569 0.145098 
0.196078 0.721569 0.145098 0.196078 0.721569 0.145098 
0.196078 0.721569 0.145098 0.196078 0.721569 0.145098 
0.196078 0.721569 0.145098 0.196078 0.721569 0.145098 
0.196078 0.721569 0.145098 0.196078 0.721569 0.145098 
0.196078 0.721569 0.145098 0.196078 0.721569 0.145098 
0.196078 0.721569 0.145098 0.196078 0.721569 0.145098 
0.196078 0.721569 0.145098 0.196078 0.721569 0.145098 
0.196078 0.721569 0.145098 0.196078 0.721569 0.145098 
0.196078 0.721569 0.145098 0.196078 0.721569 0.145098 
0.196078 0.721569 0.145098 0.196078 0.721569 0.145098 
0.196078 0.721569 0.145098 0.196078 0.721569 0.145098 
0.196078 0.721569 0.145098 0.196078 0.721569 0.145098 
0.196078 0.721569 0.145098 0.196078 0.721569 0.145098 
0.196078 0.721569 0.145098 0.196078 0.721569 0.145098 
0.196078 0.721569 0.145098 0.196078 0.721569 0.145098 
0.196078 0.721569 0.145098 0.196078 0.721569 0.145098 
0.196078 0.721569 0.145098 0.196078 0.721569 0.145098 
0.196078 0.721569 0.145098 0.196078 0.721569 0.145098 
0.196078 0.721569 0.145098 0.196078 0.721569 0.145098 
0.196078 0.721569 0.145098 0.196078 0.721569 0.145098 
0.196078 0.721569 0.145098 0.196078 0.721569 0.145098 
0.196078 0.721569 0.145098 0.196078 0.721569 0.145098 
0.196078 0.721569 0.145098 0.196078 0.721569 0.145098 
0.196078 0.721569 0.145098 0.196078 0.721569 0.145098 
0.196078 0.721569 0.145098 0.196078 0.721569 0.145098 
0.196078 0.721569 0.145098 0.196078 0.721569 0.145098 
0.196078 0.721569 0.145098 0.196078 0.721569 0.145098 
0.196078 0.721569 0.145098 0.196078 0.721569 0.145098 
0.196078 0.721569 0.145098 0.196078 0.721569 0.145098 
0.196078 0.721569 0.145098 0.196078 0.721569 0.145098 
0.196078 0.721569 0.145098 0.196078 0.721569 0.145098 
0.196078 0.721569 0.145098 0.196078 0.721569 0.145098 
0.196078 0.721569 0.145098 0.196078 0.721569 0.145098 
0.196078 0.721569 0.145098 0.196078 0.721569 0.145098 
0.196078 0.721569 0.145098 0.196078 0.721569 0.145098 
0.196078 0.721569 0.145098 0.196078 0.721569 0.145098 
0.196078 0.721569 0.145098 0.196078 0.721569 0.145098 
0.196078 0.721569 0.145098 0.196078 0.721569 0.145098 
0.196078 0.721569 0.145098 0.196078 0.721569 0.145098 
0.196078 0.721569 0.145098 0.196078 0.721569 0.145098 
0.196078 0.721569 0.145098 0.196078 0.721569 0.145098 
0.196078 0.721569 0.145098 0.196078 0.721569 0.145098 
0.196078 0.721569 0.145098 0.196078 0.721569 0.145098 
0.196078 0.721569 0.145098 0.196078 0.721569 0.145098 
0.196078 0.721569 0.145098 0.196078 0.721569 0.145098 
0.196078 0.721569 0.145098 0.196078 0.721569 0.145098 
0.196078 0.721569 0.145098 0.196078 0.721569 0.145098 
0.196078 0.721569 0.145098 0.196078 0.721569 0.145098 
0.196078 0.721569 0.145098 0.196078 0.721569 0.145098 
0.196078 0.721569 0.145098 0.196078 0.721569 0.145098 
0.196078 0.721569 0.145098 0.196078 0.721569 0.145098 
0.196078 0.721569 0.145098 0.196078 0.721569 0.145098 
0.196078 0.721569 0.145098 0.196078 0.721569 0.145098 
0.196078 0.721569 0.145098 0.196078 0.721569 0.145098 
0.196078 0.721569 0.145098 0.196078 0.721569 0.145098 
0.196078 0.721569 0.145098 0.196078 0.721569 0.145098 
0.196078 0.721569 0.145098 0.196078 0.721569 0.145098 
0.196078 0.721569 0.145098 0.196078 0.721569 0.145098 
0.196078 0.721569 0.145098 0.196078 0.721569 0.145098 
0.196078 0.721569 0.145098 0.196078 0.721569 0.145098 
0.196078 0.721569 0.145098 0.196078 0.721569 0.145098 
0.196078 0.721569 0.145098 0.196078 0.721569 0.145098 
0.196078 0.721569 0.145098 0.196078 0.721569 0.145098 
0.196078 0.721569 0.145098 0.196078 0.721569 0.145098 
0.196078 0.721569 0.145098 0.196078 0.721569 0.145098 
0.196078 0.721569 0.145098 0.196078 0.721569 0.145098 
0.196078 0.721569 0.145098 0.196078 0.721569 0.145098 
0.196078 0.721569 0.145098 0.196078 0.721569 0.145098 
0.196078 0.721569 0.145098 0.196078 0.721569 0.145098 
0.196078 0.721569 0.145098 0.196078 0.721569 0.145098 
0.196078 0.721569 0.145098 0.196078 0.721569 0.145098 
0.196078 0.721569 0.145098 0.196078 0.721569 0.145098 
0.196078 0.721569 0.145098 0.196078 0.721569 0.145098 
0.196078 0.721569 0.145098 0.196078 0.721569 0.145098 
0.196078 0.721569 0.145098 0.196078 0.721569 0.145098 
0.196078 0.721569 0.145098 0.196078 0.721569 0.145098 
0.196078 0.721569 0.145098 0.196078 0.721569 0.145098 
0.196078 0.721569 0.145098 0.196078 0.721569 0.145098 
0.196078 0.721569 0.145098 0.196078 0.721569 0.145098 
0.196078 0.721569 0.145098 0.196078 0.721569 0.145098 
0.196078 0.721569 0.145098 0.196078 0.721569 0.145098 
0.196078 0.721569 0.145098 0.196078 0.721569 0.145098 
0.196078 0.721569 0.145098 0.196078 0.721569 0.145098 
0.196078 0.721569 0.145098 0.196078 0.721569 0.145098 
0.196078 0.721569 0.145098 0.196078 0.721569 0.145098 
0.196078 0.721569 0.145098 0.196078 0.721569 0.145098 
0.196078 0.721569 0.145098 0.196078 0.721569 0.145098 
0.196078 0.721569 0.145098 0.196078 0.721569 0.145098 
0.196078 0.721569 0.145098 0.196078 0.721569 0.145098 
0.196078 0.721569 0.145098 0.196078 0.721569 0.145098 
0.196078 0.721569 0.145098 0.196078 0.721569 0.145098 
0.196078 0.721569 0.145098 0.196078 0.721569 0.145098 
0.196078 0.721569 0.145098 0.196078 0.721569 0.145098 
0.196078 0.721569 0.145098 0.196078 0.721569 0.145098 
0.196078 0.721569 0.145098 0.196078 0.721569 0.145098 
0.196078 0.721569 0.145098 0.196078 0.721569 0.145098 
0.196078 0.721569 0.145098 0.196078 0.721569 0.145098 
0.196078 0.721569 0.145098 0.196078 0.721569 0.145098 
0.196078 0.721569 0.145098 0.196078 0.721569 0.145098 
0.196078 0.721569 0.145098 0.196078 0.721569 0.145098 
0.196078 0.721569 0.145098 0.196078 0.721569 0.145098 
0.196078 0.721569 0.145098 0.196078 0.721569 0.145098 
0.196078 0.721569 0.145098 0.196078 0.721569 0.145098 
0.196078 0.721569 0.145098 0.196078 0.721569 0.145098 
0.196078 0.721569 0.145098 0.196078 0.721569 0.145098 
0.196078 0.721569 0.145098 0.196078 0.721569 0.145098 
0.196078 0.721569 0.145098 0.196078 0.721569 0.145098 
0.196078 0.721569 0.145098 0.196078 0.721569 0.145098 
0.196078 0.721569 0.145098 0.196078 0.721569 0.145098 
0.196078 0.721569 0.145098 0.196078 0.721569 0.145098 
0.196078 0.721569 0.145098 0.196078 0.721569 0.145098 
0.196078 0.721569 0.145098 0.196078 0.721569 0.145098 
0.196078 0.721569 0.145098 0.196078 0.721569 0.145098 
0.196078 0.721569 0.145098 0.196078 0.721569 0.145098 
0.196078 0.721569 0.145098 0.196078 0.721569 0.145098 
0.196078 0.721569 0.145098 0.196078 0.721569 0.145098 
0.196078 0.721569 0.145098 0.196078 0.721569 0.145098 
0.196078 0.721569 0.145098 0.196078 0.721569 0.145098 
0.196078 0.721569 0.145098 0.196078 0.721569 0.145098 
0.196078 0.721569 0.145098 0.196078 0.721569 0.145098 
0.196078 0.721569 0.145098 0.196078 0.721569 0.145098 
0.196078 0.721569 0.145098 0.196078 0.721569 0.145098 
0.196078 0.721569 0.145098 0.196078 0.721569 0.145098 
0.196078 0.721569 0.145098 0.196078 0.721569 0.145098 
0.196078 0.721569 0.145098 0.196078 0.721569 0.145098 
0.196078 0.721569 0.145098 0.196078 0.721569 0.145098 
0.196078 0.721569 0.145098 0.196078 0.721569 0.145098 
0.196078 0.721569 0.145098 0.196078 0.721569 0.145098 
0.196078 0.721569 0.145098 0.196078 0.721569 0.145098 
0.196078 0.721569 0.145098 0.196078 0.721569 0.145098 
0.196078 0.721569 0.145098 0.196078 0.721569 0.145098 
0.196078 0.721569 0.145098 0.196078 0.721569 0.145098 