# vtk DataFile Version 4.2
vtk output
ASCII
DATASET POLYDATA
POINTS 746 float
155.532 203.302 137.385 157.445 201.821 138.248 155.291 202.425 137.775 
158.085 202.259 138.397 156.977 202.919 137.802 154.001 204.083 137.664 
152.533 205.658 137.822 153.514 205.842 137.537 154.141 206.548 137.483 
151.471 208.258 138.099 153.245 208.622 137.568 151.634 211.006 138.08 
153.636 211.351 137.751 153.553 214.435 138.076 153.169 215.449 138.35 
157.06 201.024 138.698 156.488 200.881 138.868 157.833 201.146 138.783 
157.764 200.969 138.928 155.806 201.211 138.633 158.404 201.854 138.882 
157.74 203.126 138.194 151.74 205.252 138.347 154.38 209.967 137.755 
154.993 212.327 138.032 151.966 214.024 138.441 156.956 200.269 139.85 
157.303 200.531 139.472 157.78 200.812 139.281 158.597 201.751 139.612 
158.051 203.558 138.566 158.552 204.348 139.309 158.743 204.007 139.589 
156.281 209.912 138.5 153.845 218.812 139.489 156.104 219.982 139.341 
156.099 221.333 139.896 155.812 200.116 140.114 156.551 199.958 140.659 
152.259 202.029 139.764 158.985 205.879 140.496 151.19 215.191 139.679 
158.717 220.937 139.916 155.205 221.294 140.302 158.018 221.883 139.984 
159.704 223.967 140.969 158.37 201.184 140.783 158.834 202.051 140.698 
150.064 204.169 140.496 158.425 210.461 140.194 158.828 210.186 140.714 
160.107 216.973 141.305 159.814 218.193 140.702 160.027 220.204 140.591 
161.011 222.478 141.159 161.03 223.65 141.295 161.225 223.912 141.513 
161.176 224.237 141.757 161.045 224.618 142.185 153.407 200.178 141.445 
157.795 200.573 141.551 158.554 201.748 141.797 158.993 203.048 141.726 
159.336 210.492 141.81 160.01 213.515 142.559 160.164 215.388 141.998 
160.315 216.451 141.862 160.769 218.75 141.67 161.259 218.742 142.736 
160.967 220.507 141.364 161.399 220.547 141.97 162.094 223.325 142.221 
162.137 223.622 142.301 161.863 223.931 142.1 162.073 223.815 142.257 
158.148 225.436 142.883 161.854 224.174 142.451 162.02 223.97 142.326 
159.157 206.384 142.576 159.32 209.423 143.365 160.088 213.988 143.643 
162.04 221.636 142.918 162.166 223.43 142.458 162.175 223.361 142.86 
157.597 225.546 143.588 161.895 224.209 142.908 159.296 226.063 144.041 
160.424 225.623 143.622 160.188 225.875 144.018 153.21 199.311 143.922 
146.471 207.204 144.129 146.321 208.888 144.308 161.062 218.298 144.406 
162.182 222.483 143.31 158.355 225.983 144.292 160.567 225.657 144.036 
160.734 225.542 144.574 152.899 198.851 145.64 153.964 199.06 144.686 
154.517 199.127 144.842 155.849 199.958 145.349 157.672 201.491 143.863 
159.641 213.695 145.208 161.894 223.585 144.474 157.118 225.788 145.1 
160.282 225.868 144.975 161 225.206 145.226 145.873 210.745 145.6 
155.07 224.919 146.003 161.496 224.392 145.261 161.279 224.799 145.404 
161.311 224.531 145.741 154.321 199.046 146.76 160.033 225.7 146.744 
145.697 202.035 147.852 160.582 224.977 147.114 160.506 224.727 147.544 
156.35 226.42 149.692 149.392 198.476 149.771 157.602 226.365 150.078 
148.818 198.036 151.478 153.043 199.291 150.643 153.595 199.736 150.572 
149.201 221.332 150.543 159.39 221.336 150.127 154.853 226.272 151.351 
158.973 225.644 150.129 156.051 226.446 151.56 148.899 197.596 152.938 
149.901 197.786 152.8 152.693 199.384 151.608 143.447 201.201 151.419 
153.932 200.88 151.283 142.335 202.877 151.609 158.581 225.367 151.226 
158.04 225.758 151.503 158.361 225.54 151.407 155.408 226.438 152.47 
144.042 199.775 152.551 152.693 199.941 152.57 150.742 224.097 152.41 
158.768 223.738 151.703 151.357 225.085 153.427 157.819 225.236 152.748 
157.713 225.675 152.257 157.241 225.911 152.629 156.633 226.183 152.725 
155.562 226.327 153.94 147.478 197.451 155.211 149.573 197.819 154.588 
156.749 225.274 154.755 152.828 226.382 155.88 156.171 225.909 154.652 
143.829 198.616 155.816 149.836 225.4 156.643 152.181 226.293 156.245 
153.271 226.42 156.408 154.004 226.382 156.099 154.578 226.318 155.794 
145.711 197.667 156.402 147.896 197.649 156.169 148.221 197.968 156.796 
148.687 224.807 156.928 156.129 225.24 155.859 155.572 225.686 156.191 
155.1 225.897 156.535 143.359 198.628 157.714 148.261 198.393 157.572 
141.222 199.95 158.098 149.851 200.104 157.539 139.137 202.299 157.53 
138.073 204.225 157.717 138.009 204.921 157.576 137.489 207.196 157.963 
155.123 221.086 157.855 145.663 197.805 158.1 145.225 197.858 157.963 
147.829 198.674 158.606 138.182 202.125 159.103 155.347 223.079 157.934 
154.582 225.301 158.242 154.018 225.681 158.37 154.341 225.473 158.358 
151.686 226.308 158.786 152.129 226.31 158.725 153.359 226.022 158.394 
143.479 198.717 159.027 143.95 198.598 159.221 146.284 198.279 158.884 
147.185 198.762 159.191 142.016 199.495 159.979 141.296 199.766 159.929 
142.833 199.238 159.958 148.089 199.549 159.178 139.473 200.775 160.159 
137.384 202.224 160.07 136.586 203.595 159.781 136.303 204.204 159.756 
135.88 204.474 160.092 154.584 223.717 159.012 153.643 225.169 159.445 
150.366 225.957 159.802 152.918 225.88 159.184 152.415 226.05 159.329 
144.394 199.035 160.11 147.327 199.624 159.937 147.116 200.141 160.478 
136.354 202.281 161.181 153.566 224.488 160.1 151.848 225.731 160.189 
142.09 199.73 160.958 142.548 199.783 161.164 146.008 200.105 161.027 
134.393 202.895 162.338 152.276 221.402 161.703 144.469 224.813 161.824 
152.112 224.942 161.022 140.218 200.525 161.958 133.645 202.36 163.493 
144.34 202.127 163.067 132.077 206.015 163.293 136.673 218.118 162.822 
151.321 221.915 162.649 140.994 223.379 162.675 151.001 224.417 162.271 
135.458 201.315 164.469 139.671 201.004 163.38 142.462 201.755 163.671 
131.522 203.324 164.699 131.11 205.232 164.454 150.038 222.184 163.633 
143.745 225.271 163.727 144.392 225.375 164.18 145.185 225.325 164.217 
140.019 201.58 164.723 141.306 202.919 165.4 130.635 208.436 165.162 
131.327 210.623 164.978 136.734 222.686 165.368 139.214 225.129 166.076 
140.58 224.959 164.962 147.007 224.552 164.739 142.319 225.463 165.291 
143.158 225.455 165.342 145.631 225.078 164.76 135.823 201.129 165.659 
137.443 201.179 165.146 129.969 203.978 166.417 129.889 203.706 166.773 
141.427 204.605 166.354 129.73 206.109 166.35 146.078 224.374 165.599 
138.602 225.236 166.853 145.413 224.733 165.614 145.791 224.523 165.653 
143.52 225.351 165.746 130.328 202.898 167.081 129.991 203.363 166.975 
129.978 203.229 167.354 129.521 208.609 167.8 131.535 214.657 166.905 
138.098 225.184 167.591 140.017 225.865 167.412 140.548 225.894 166.849 
141.073 225.87 166.742 141.499 225.802 166.833 142.094 225.55 166.87 
143.304 225.156 166.616 140.794 225.958 167.073 141.138 225.906 167.114 
133.477 200.962 167.774 133.957 200.974 167.539 133.728 200.944 167.737 
132.733 201.275 167.815 135.452 201.192 167.088 129.623 203.934 167.878 
139.874 204.812 167.786 129.392 208.477 168.567 129.691 210.07 167.989 
144.033 222.236 167.934 143.917 223.861 167.612 136.973 224.424 167.69 
143.164 224.867 167.359 143.406 224.577 167.549 141.178 225.818 167.413 
140.351 225.906 167.525 133.276 201.069 167.934 131.302 202.163 169.144 
133.348 201.277 168.381 136.294 201.735 168.076 129.561 204.176 168.388 
129.306 206.205 168.731 139.043 209.36 169.471 129.602 210.209 169.07 
130.436 213.061 169.101 132.168 217.398 169.046 142.842 223.706 168.545 
136.707 224.216 168.879 142.934 224.082 168.283 142.258 224.783 168.149 
138.021 225.116 168.614 138.571 225.267 168.497 140.476 225.752 167.805 
134.991 201.581 168.581 130.034 203.509 169.145 129.444 205.611 169.219 
129.483 208.124 169.656 129.578 208.991 169.811 129.64 209.854 169.702 
129.806 211.095 169.598 129.862 211.414 169.352 130.596 213.316 169.821 
131.06 214.661 169.659 131.338 215.278 169.977 131.788 216.571 169.733 
142.311 223.614 168.894 137.868 224.961 168.947 137.948 224.808 169.199 
140.663 224.5 169.21 131.4 202.479 170.13 133.237 201.882 169.628 
130.877 202.931 170.083 134.091 202.308 170.118 134.62 202.354 169.914 
129.775 208.92 170.333 130.064 209.183 170.685 129.892 210.936 169.926 
130.628 212.881 170.294 130.878 214.002 170.012 131.885 216.24 170.512 
131.883 216.601 170.11 132.388 217.433 170.355 133.146 218.987 170.178 
138.751 218.663 171.144 134.199 220.822 170.295 140.558 220.639 170.32 
135.771 222.949 170.075 135.939 223.23 169.877 136.051 223.142 170.135 
139.651 223.29 170.304 137.783 223.737 170.154 131.682 202.537 170.368 
132.27 202.518 170.477 131.785 202.768 170.607 132.1 202.914 170.799 
132.492 202.897 170.845 132.853 203.133 170.989 130.804 203.655 170.485 
131.716 203.213 170.808 135.413 203.595 170.48 130.04 205.276 170.246 
135.007 205.192 171.242 130.469 206.572 170.915 130.624 210.173 171.123 
130.709 211.662 170.861 131.252 212.217 171.207 130.988 213.353 170.66 
131.37 213.142 171.095 136.328 214.285 171.636 131.816 215.865 170.714 
132.073 216.047 170.894 132.603 217.642 170.535 132.943 217.773 170.8 
133.676 219.747 170.511 134.538 221.075 170.562 134.719 220.865 170.835 
139.317 220.7 170.965 134.697 221.419 170.429 138.625 221.673 171.072 
136.364 222.258 170.963 136.44 223.182 170.289 136.759 222.56 170.892 
138.673 223.159 170.569 131.74 205.765 171.468 133.72 204.944 171.519 
132.376 206.393 171.707 131.644 207.705 171.631 131.627 209.688 171.657 
132.346 210.393 171.829 132.652 214.502 171.572 132.692 215.442 171.426 
135.042 216.911 171.77 134.613 220.247 171.013 135.916 219.8 171.522 
136.053 221.631 171.108 132.254 203.342 283.944 132.939 202.893 284.142 
133.322 203.103 284.019 133.525 203.668 283.784 134.623 203.459 284.164 
131.668 204.548 283.689 132.276 204.75 283.458 131.199 206.394 283.612 
134.616 205.587 283.524 131.76 207.233 283.335 131.051 210.766 283.716 
134.619 210.44 283.14 131.873 213.283 283.599 133.263 213.013 283.121 
134.922 213.729 283.117 135.746 213.674 283.257 133.311 214.957 283.273 
132.032 215.534 284.014 132.512 215.805 283.753 134.971 215.746 283.137 
134.111 216.823 283.341 133.752 219.133 284.09 135.716 220.448 283.645 
138.099 220.351 283.656 134.95 221.289 284.252 136.402 222.321 284.157 
[...]
POINT_DATA 746
COLOR_SCALARS scalars 3
0.627451 0.933333 0.615686 0.627451 0.933333 0.615686 0.627451 0.933333 0.615686 
0.627451 0.933333 0.615686 0.627451 0.933333 0.615686 
0.627451 0.933333 0.615686 0.627451 0.933333 0.615686 
0.627451 0.933333 0.615686 0.627451 0.933333 0.615686 
0.627451 0.933333 0.615686 0.627451 0.933333 0.615686 
0.627451 0.933333 0.615686 0.627451 0.933333 0.615686 
0.627451 0.933333 0.615686 0.627451 0.933333 0.615686 
0.627451 0.933333 0.615686 0.627451 0.933333 0.615686 
0.627451 0.933333 0.615686 0.627451 0.933333 0.615686 
0.627451 0.933333 0.615686 0.627451 0.933333 0.615686 
0.627451 0.933333 0.615686 0.627451 0.933333 0.615686 
0.627451 0.933333 0.615686 0.627451 0.933333 0.615686 
0.627451 0.933333 0.615686 0.627451 0.933333 0.615686 
0.627451 0.933333 0.615686 0.627451 0.933333 0.615686 
0.627451 0.933333 0.615686 0.627451 0.933333 0.615686 
0.627451 0.933333 0.615686 0.627451 0.933333 0.615686 
0.627451 0.933333 0.615686 0.627451 0.933333 0.615686 
0.627451 0.933333 0.615686 0.627451 0.933333 0.615686 
0.627451 0.933333 0.615686 0.627451 0.933333 0.615686 
0.627451 0.933333 0.615686 0.627451 0.933333 0.615686 
0.627451 0.933333 0.615686 0.627451 0.933333 0.615686 
0.627451 0.933333 0.615686 0.627451 0.933333 0.615686 
0.627451 0.933333 0.615686 0.627451 0.933333 0.615686 
0.627451 0.933333 0.615686 0.627451 0.933333 0.615686 
0.627451 0.933333 0.615686 0.627451 0.933333 0.615686 
0.627451 0.933333 0.615686 0.627451 0.933333 0.615686 
0.627451 0.933333 0.615686 0.627451 0.933333 0.615686 
0.627451 0.933333 0.615686 0.627451 0.933333 0.615686 
0.627451 0.933333 0.615686 0.627451 0.933333 0.615686 
0.627451 0.933333 0.615686 0.627451 0.933333 0.615686 
0.627451 0.933333 0.615686 0.627451 0.933333 0.615686 
0.627451 0.933333 0.615686 0.627451 0.933333 0.615686 
0.627451 0.933333 0.615686 0.627451 0.933333 0.615686 
0.627451 0.933333 0.615686 0.627451 0.933333 0.615686 
0.627451 0.933333 0.615686 0.627451 0.933333 0.615686 
0.627451 0.933333 0.615686 0.627451 0.933333 0.615686 
0.627451 0.933333 0.615686 0.627451 0.933333 0.615686 
0.627451 0.933333 0.615686 0.627451 0.933333 0.615686 
0.627451 0.933333 0.615686 0.627451 0.933333 0.615686 
0.627451 0.933333 0.615686 0.627451 0.933333 0.615686 
0.627451 0.933333 0.615686 0.627451 0.933333 0.615686 
0.627451 0.933333 0.615686 0.627451 0.933333 0.615686 
0.627451 0.933333 0.615686 0.627451 0.933333 0.615686 
0.627451 0.933333 0.615686 0.627451 0.933333 0.615686 
0.627451 0.933333 0.615686 0.627451 0.933333 0.615686 
0.627451 0.933333 0.615686 0.627451 0.933333 0.615686 
0.627451 0.933333 0.615686 0.627451 0.933333 0.615686 
0.627451 0.933333 0.615686 0.627451 0.933333 0.615686 
0.627451 0.933333 0.615686 0.627451 0.933333 0.615686 
0.627451 0.933333 0.615686 0.627451 0.933333 0.615686 
0.627451 0.933333 0.615686 0.627451 0.933333 0.615686 
0.627451 0.933333 0.615686 0.627451 0.933333 0.615686 
0.627451 0.933333 0.615686 0.627451 0.933333 0.615686 
0.627451 0.933333 0.615686 0.627451 0.933333 0.615686 
0.627451 0.933333 0.615686 0.627451 0.933333 0.615686 
0.627451 0.933333 0.615686 0.627451 0.933333 0.615686 
0.627451 0.933333 0.615686 0.627451 0.933333 0.615686 
0.627451 0.933333 0.615686 0.627451 0.933333 0.615686 
0.627451 0.933333 0.615686 0.627451 0.933333 0.615686 
0.627451 0.933333 0.615686 0.627451 0.933333 0.615686 
0.627451 0.933333 0.615686 0.627451 0.933333 0.615686 
0.627451 0.933333 0.615686 0.627451 0.933333 0.615686 
0.627451 0.933333 0.615686 0.627451 0.933333 0.615686 
0.627451 0.933333 0.615686 0.627451 0.933333 0.615686 
0.627451 0.933333 0.615686 0.627451 0.933333 0.615686 
0.627451 0.933333 0.615686 0.627451 0.933333 0.615686 
0.627451 0.933333 0.615686 0.627451 0.933333 0.615686 
0.627451 0.933333 0.615686 0.627451 0.933333 0.615686 
0.627451 0.933333 0.615686 0.627451 0.933333 0.615686 
0.627451 0.933333 0.615686 0.627451 0.933333 0.615686 
0.627451 0.933333 0.615686 0.627451 0.933333 0.615686 
0.627451 0.933333 0.615686 0.627451 0.933333 0.615686 
0.627451 0.933333 0.615686 0.627451 0.933333 0.615686 
0.627451 0.933333 0.615686 0.627451 0.933333 0.615686 
0.627451 0.933333 0.615686 0.627451 0.933333 0.615686 
0.627451 0.933333 0.615686 0.627451 0.933333 0.615686 
0.627451 0.933333 0.615686 0.627451 0.933333 0.615686 
0.627451 0.933333 0.615686 0.627451 0.933333 0.615686 
0.627451 0.933333 0.615686 0.627451 0.933333 0.615686 
0.627451 0.933333 0.615686 0.627451 0.933333 0.615686 
0.627451 0.933333 0.615686 0.627451 0.933333 0.615686 
0.627451 0.933333 0.615686 0.627451 0.933333 0.615686 
0.627451 0.933333 0.615686 0.627451 0.933333 0.615686 
0.627451 0.933333 0.615686 0.627451 0.933333 0.615686 
0.627451 0.933333 0.615686 0.627451 0.933333 0.615686 
0.627451 0.933333 0.615686 0.627451 0.933333 0.615686 
0.627451 0.933333 0.615686 0.627451 0.933333 0.615686 
0.627451 0.933333 0.615686 0.627451 0.933333 0.615686 
0.627451 0.933333 0.615686 0.627451 0.933333 0.615686 
0.627451 0.933333 0.615686 0.627451 0.933333 0.615686 
0.627451 0.933333 0.615686 0.627451 0.933333 0.615686 
0.627451 0.933333 0.615686 0.627451 0.933333 0.615686 
0.627451 0.933333 0.615686 0.627451 0.933333 0.615686 
0.627451 0.933333 0.615686 0.627451 0.933333 0.615686 
0.627451 0.933333 0.615686 0.627451 0.933333 0.615686 
0.627451 0.933333 0.615686 0.627451 0.933333 0.615686 
0.627451 0.933333 0.615686 0.627451 0.933333 0.615686 
0.627451 0.933333 0.615686 0.627451 0.933333 0.615686 
0.627451 0.933333 0.615686 0.627451 0.933333 0.615686 
0.627451 0.933333 0.615686 0.627451 0.933333 0.615686 
0.627451 0.933333 0.615686 0.627451 0.933333 0.615686 
0.627451 0.933333 0.615686 0.627451 0.933333 0.615686 
0.627451 0.933333 0.615686 0.627451 0.933333 0.615686 
0.627451 0.933333 0.615686 0.627451 0.933333 0.615686 
0.627451 0.933333 0.615686 0.627451 0.933333 0.615686 
0.627451 0.933333 0.615686 0.627451 0.933333 0.615686 
0.627451 0.933333 0.615686 0.627451 0.933333 0.615686 
0.627451 0.933333 0.615686 0.627451 0.933333 0.615686 
0.627451 0.933333 0.615686 0.627451 0.933333 0.615686 
0.627451 0.933333 0.615686 0.627451 0.933333 0.615686 
0.627451 0.933333 0.615686 0.627451 0.933333 0.615686 
0.627451 0.933333 0.615686 0.627451 0.933333 0.615686 
0.627451 0.933333 0.615686 0.627451 0.933333 0.615686 
0.627451 0.933333 0.615686 0.627451 0.933333 0.615686 
0.627451 0.933333 0.615686 0.627451 0.933333 0.615686 
0.627451 0.933333 0.615686 0.627451 0.933333 0.615686 
0.627451 0.933333 0.615686 0.627451 0.933333 0.615686 
0.627451 0.933333 0.615686 0.627451 0.933333 0.615686 
0.627451 0.933333 0.615686 0.627451 0.933333 0.615686 
0.627451 0.933333 0.615686 0.627451 0.933333 0.615686 
0.627451 0.933333 0.615686 0.627451 0.933333 0.615686 
0.627451 0.933333 0.615686 0.627451 0.933333 0.615686 
0.627451 0.933333 0.615686 0.627451 0.933333 0.615686 
0.627451 0.933333 0.615686 0.627451 0.933333 0.615686 
0.627451 0.933333 0.615686 0.627451 0.933333 0.615686 
0.627451 0.933333 0.615686 0.627451 0.933333 0.615686 
0.627451 0.933333 0.615686 0.627451 0.933333 0.615686 
0.627451 0.933333 0.615686 0.627451 0.933333 0.615686 
0.627451 0.933333 0.615686 0.627451 0.933333 0.615686 
0.627451 0.933333 0.615686 0.627451 0.933333 0.615686 
0.627451 0.933333 0.615686 0.627451 0.933333 0.615686 
0.627451 0.933333 0.615686 0.627451 0.933333 0.615686 
0.627451 0.933333 0.615686 0.627451 0.933333 0.615686 
0.627451 0.933333 0.615686 0.627451 0.933333 0.615686 
0.627451 0.933333 0.615686 0.627451 0.933333 0.615686 
0.627451 0.933333 0.615686 0.627451 0.933333 0.615686 
0.627451 0.933333 0.615686 0.627451 0.933333 0.615686 
0.627451 0.933333 0.615686 0.627451 0.933333 0.615686 
0.627451 0.933333 0.615686 0.627451 0.933333 0.615686 
0.627451 0.933333 0.615686 0.627451 0.933333 0.615686 
0.627451 0.933333 0.615686 0.627451 0.933333 0.615686 
0.627451 0.933333 0.615686 0.627451 0.933333 0.615686 
0.627451 0.933333 0.615686 0.627451 0.933333 0.615686 
0.627451 0.933333 0.615686 0.627451 0.933333 0.615686 
0.627451 0.933333 0.615686 0.627451 0.933333 0.615686 
0.627451 0.933333 0.615686 0.627451 0.933333 0.615686 
0.627451 0.933333 0.615686 0.627451 0.933333 0.615686 
0.627451 0.933333 0.615686 0.627451 0.933333 0.615686 
0.627451 0.933333 0.615686 0.627451 0.933333 0.615686 
0.627451 0.933333 0.615686 0.627451 0.933333 0.615686 
0.627451 0.933333 0.615686 0.627451 0.933333 0.615686 
0.627451 0.933333 0.615686 0.627451 0.933333 0.615686 
0.627451 0.933333 0.615686 0.627451 0.933333 0.615686 
0.627451 0.933333 0.615686 0.627451 0.933333 0.615686 
0.627451 0.933333 0.615686 0.627451 0.933333 0.615686 
0.627451 0.933333 0.615686 0.627451 0.933333 0.615686 
0.627451 0.933333 0.615686 0.627451 0.933333 0.615686 
0.627451 0.933333 0.615686 0.627451 0.933333 0.615686 
0.627451 0.933333 0.615686 0.627451 0.933333 0.615686 
0.627451 0.933333 0.615686 0.627451 0.933333 0.615686 
0.627451 0.933333 0.615686 0.627451 0.933333 0.615686 
0.627451 0.933333 0.615686 0.627451 0.933333 0.615686 
0.627451 0.933333 0.615686 0.627451 0.933333 0.615686 
0.627451 0.933333 0.615686 0.627451 0.933333 0.615686 
0.627451 0.933333 0.615686 0.627451 0.933333 0.615686 
0.627451 0.933333 0.615686 0.627451 0.933333 0.615686 
0.627451 0.933333 0.615686 0.627451 0.933333 0.615686 
0.627451 0.933333 0.615686 0.627451 0.933333 0.615686 
0.627451 0.933333 0.615686 0.627451 0.933333 0.615686 
0.627451 0.933333 0.615686 0.627451 0.933333 0.615686 
0.627451 0.933333 0.615686 0.627451 0.933333 0.615686 
0.627451 0.933333 0.615686 0.627451 0.933333 0.615686 
0.627451 0.933333 0.615686 0.627451 0.933333 0.615686 
0.627451 0.933333 0.615686 0.627451 0.933333 0.615686 
0.627451 0.933333 0.615686 0.627451 0.933333 0.615686 
0.627451 0.933333 0.615686 0.627451 0.933333 0.615686 
0.627451 0.933333 0.615686 0.627451 0.933333 0.615686 
0.627451 0.933333 0.615686 0.627451 0.933333 0.615686 
0.627451 0.933333 0.615686 0.627451 0.933333 0.615686 
0.627451 0.933333 0.615686 0.627451 0.933333 0.615686 
0.627451 0.933333 0.615686 0.627451 0.933333 0.615686 
0.627451 0.933333 0.615686 0.627451 0.933333 0.615686 
0.627451 0.933333 0.615686 0.627451 0.933333 0.615686 
0.627451 0.933333 0.615686 0.627451 0.933333 0.615686 
0.627451 0.933333 0.615686 0.627451 0.933333 0.615686 
0.627451 0.933333 0.615686 0.627451 0.933333 0.615686 
0.627451 0.933333 0.615686 0.627451 0.933333 0.615686 
0.627451 0.933333 0.615686 0.627451 0.933333 0.615686 
0.627451 0.933333 0.615686 0.627451 0.933333 0.615686 
0.627451 0.933333 0.615686 0.627451 0.933333 0.615686 
0.627451 0.933333 0.615686 0.627451 0.933333 0.615686 
0.627451 0.933333 0.615686 0.627451 0.933333 0.615686 
0.627451 0.933333 0.615686 0.627451 0.933333 0.615686 
0.627451 0.933333 0.615686 0.627451 0.933333 0.615686 
0.627451 0.933333 0.615686 0.627451 0.933333 0.615686 
0.627451 0.933333 0.615686 0.627451 0.933333 0.615686 
0.627451 0.933333 0.615686 0.627451 0.933333 0.615686 
0.627451 0.933333 0.615686 0.627451 0.933333 0.615686 
0.627451 0.933333 0.615686 0.627451 0.933333 0.615686 
0.627451 0.933333 0.615686 0.627451 0.933333 0.615686 
0.627451 0.933333 0.615686 0.627451 0.933333 0.615686 
0.627451 0.933333 0.615686 0.627451 0.933333 0.615686 
0.627451 0.933333 0.615686 0.627451 0.933333 0.615686 
0.627451 0.933333 0.615686 0.627451 0.933333 0.615686 
0.627451 0.933333 0.615686 0.627451 0.933333 0.615686 
0.627451 0.933333 0.615686 0.627451 0.933333 0.615686 
0.627451 0.933333 0.615686 0.627451 0.933333 0.615686 
0.627451 0.933333 0.615686 0.627451 0.933333 0.615686 
0.627451 0.933333 0.615686 0.627451 0.933333 0.615686 
0.627451 0.933333 0.615686 0.627451 0.933333 0.615686 
0.627451 0.933333 0.615686 0.627451 0.933333 0.615686 
0.627451 0.933333 0.615686 0.627451 0.933333 0.615686 
0.627451 0.933333 0.615686 0.627451 0.933333 0.615686 
0.627451 0.933333 0.615686 0.627451 0.933333 0.615686 
0.627451 0.933333 0.615686 0.627451 0.933333 0.615686 
0.627451 0.933333 0.615686 0.627451 0.933333 0.615686 
0.627451 0.933333 0.615686 0.627451 0.933333 0.615686 
0.627451 0.933333 0.615686 0.627451 0.933333 0.615686 
0.627451 0.933333 0.615686 0.627451 0.933333 0.615686 
0.627451 0.933333 0.615686 0.627451 0.933333 0.615686 
0.627451 0.933333 0.615686 0.627451 0.933333 0.615686 
0.627451 0.933333 0.615686 0.627451 0.933333 0.615686 
0.627451 0.933333 0.615686 0.627451 0.933333 0.615686 
0.627451 0.933333 0.615686 0.627451 0.933333 0.615686 
0.627451 0.933333 0.615686 0.627451 0.933333 0.615686 
0.627451 0.933333 0.615686 0.627451 0.933333 0.615686 
0.627451 0.933333 0.615686 0.627451 0.933333 0.615686 
0.627451 0.933333 0.615686 0.627451 0.933333 0.615686 
0.627451 0.933333 0.615686 0.627451 0.933333 0.615686 
0.627451 0.933333 0.615686 0.627451 0.933333 0.615686 
0.627451 0.933333 0.615686 0.627451 0.933333 0.615686 
0.627451 0.933333 0.615686 0.627451 0.933333 0.615686 
0.627451 0.933333 0.615686 0.627451 0.933333 0.615686 
0.627451 0.933333 0.615686 0.627451 0.933333 0.615686 
0.627451 0.933333 0.615686 0.627451 0.933333 0.615686 
0.627451 0.933333 0.615686 0.627451 0.933333 0.615686 
0.627451 0.933333 0.615686 0.627451 0.933333 0.615686 
0.627451 0.933333 0.615686 0.627451 0.933333 0.615686 
0.627451 0.933333 0.615686 0.627451 0.933333 0.615686 
0.627451 0.933333 0.615686 0.627451 0.933333 0.615686 
0.627451 0.933333 0.615686 0.627451 0.933333 0.615686 
0.627451 0.933333 0.615686 0.627451 0.933333 0.615686 
0.627451 0.933333 0.615686 0.627451 0.933333 0.615686 
0.627451 0.933333 0.615686 0.627451 0.933333 0.615686 
0.627451 0.933333 0.615686 0.627451 0.933333 0.615686 
0.627451 0.933333 0.615686 0.627451 0.933333 0.615686 
0.627451 0.933333 0.615686 0.627451 0.933333 0.615686 
0.627451 0.933333 0.615686 0.627451 0.933333 0.615686 
0.627451 0.933333 0.615686 0.627451 0.933333 0.615686 
0.627451 0.933333 0.615686 0.627451 0.933333 0.615686 
0.627451 0.933333 0.615686 0.627451 0.933333 0.615686 
0.627451 0.933333 0.615686 0.627451 0.933333 0.615686 
0.627451 0.933333 0.615686 0.627451 0.933333 0.615686 
0.627451 0.933333 0.615686 0.627451 0.933333 0.615686 
0.627451 0.933333 0.615686 0.627451 0.933333 0.615686 
0.627451 0.933333 0.615686 0.627451 0.933333 0.615686 
0.627451 0.933333 0.615686 0.627451 0.933333 0.615686 
0.627451 0.933333 0.615686 0.627451 0.933333 0.615686 
0.627451 0.933333 0.615686 0.627451 0.933333 0.615686 
0.627451 0.933333 0.615686 0.627451 0.933333 0.615686 
0.627451 0.933333 0.615686 0.627451 0.933333 0.615686 
0.627451 0.933333 0.615686 0.627451 0.933333 0.615686 
0.627451 0.933333 0.615686 0.627451 0.933333 0.615686 
0.627451 0.933333 0.615686 0.627451 0.933333 0.615686 
0.627451 0.933333 0.615686 0.627451 0.933333 0.615686 
0.627451 0.933333 0.615686 0.627451 0.933333 0.615686 
0.627451 0.933333 0.615686 0.627451 0.933333 0.615686 
0.627451 0.933333 0.615686 0.627451 0.933333 0.615686 
0.627451 0.933333 0.615686 0.627451 0.933333 0.615686 
0.627451 0.933333 0.615686 0.627451 0.933333 0.615686 
0.627451 0.933333 0.615686 0.627451 0.933333 0.615686 
0.627451 0.933333 0.615686 0.627451 0.933333 0.615686 
0.627451 0.933333 0.615686 0.627451 0.933333 0.615686 
0.627451 0.933333 0.615686 0.627451 0.933333 0.615686 
0.627451 0.933333 0.615686 0.627451 0.933333 0.615686 
0.627451 0.933333 0.615686 0.627451 0.933333 0.615686 
0.627451 0.933333 0.615686 0.627451 0.933333 0.615686 
0.627451 0.933333 0.615686 0.627451 0.933333 0.615686 
0.627451 0.933333 0.615686 0.627451 0.933333 0.615686 
0.627451 0.933333 0.615686 0.627451 0.933333 0.615686 
0.627451 0.933333 0.615686 0.627451 0.933333 0.615686 
0.627451 0.933333 0.615686 0.627451 0.933333 0.615686 
0.627451 0.933333 0.615686 0.627451 0.933333 0.615686 
0.627451 0.933333 0.615686 0.627451 0.933333 0.615686 
0.627451 0.933333 0.615686 0.627451 0.933333 0.615686 
0.627451 0.933333 0.615686 0.627451 0.933333 0.615686 
0.627451 0.933333 0.615686 0.627451 0.933333 0.615686 
0.627451 0.933333 0.615686 0.627451 0.933333 0.615686 
0.627451 0.933333 0.615686 0.627451 0.933333 0.615686 
0.627451 0.933333 0.615686 0.627451 0.933333 0.615686 
0.627451 0.933333 0.615686 0.627451 0.933333 0.615686 
0.627451 0.933333 0.615686 0.627451 0.933333 0.615686 
0.627451 0.933333 0.615686 0.627451 0.933333 0.615686 
0.627451 0.933333 0.615686 0.627451 0.933333 0.615686 
0.627451 0.933333 0.615686 0.627451 0.933333 0.615686 
0.627451 0.933333 0.615686 0.627451 0.933333 0.615686 
0.627451 0.933333 0.615686 0.627451 0.933333 0.615686 
0.627451 0.933333 0.615686 0.627451 0.933333 0.615686 
0.627451 0.933333 0.615686 0.627451 0.933333 0.615686 
0.627451 0.933333 0.615686 0.627451 0.933333 0.615686 
0.627451 0.933333 0.615686 0.627451 0.933333 0.615686 
0.627451 0.933333 0.615686 0.627451 0.933333 0.615686 
0.627451 0.933333 0.615686 0.627451 0.933333 0.615686 
0.627451 0.933333 0.615686 0.627451 0.933333 0.615686 
0.627451 0.933333 0.615686 0.627451 0.933333 0.615686 
0.627451 0.933333 0.615686 0.627451 0.933333 0.615686 
0.627451 0.933333 0.615686 0.627451 0.933333 0.615686 
0.627451 0.933333 0.615686 0.627451 0.933333 0.615686 
0.627451 0.933333 0.615686 0.627451 0.933333 0.615686 
0.627451 0.933333 0.615686 0.627451 0.933333 0.615686 
0.627451 0.933333 0.615686 0.627451 0.933333 0.615686 
0.627451 0.933333 0.615686 0.627451 0.933333 0.615686 
0.627451 0.933333 0.615686 0.627451 0.933333 0.615686 
0.627451 0.933333 0.615686 0.627451 0.933333 0.615686 
0.627451 0.933333 0.615686 0.627451 0.933333 0.615686 
0.627451 0.933333 0.615686 0.627451 0.933333 0.615686 
0.627451 0.933333 0.615686 0.627451 0.933333 0.615686 
0.627451 0.933333 0.615686 0.627451 0.933333 0.615686 
0.627451 0.933333 0.615686 0.627451 0.933333 0.615686 
0.627451 0.933333 0.615686 0.627451 0.933333 0.615686 
0.627451 0.933333 0.615686 0.627451 0.933333 0.615686 
0.627451 0.933333 0.615686 0.627451 0.933333 0.615686 
0.627451 0.933333 0.615686 0.627451 0.933333 0.615686 
0.627451 0.933333 0.615686 0.627451 0.933333 0.615686 
0.627451 0.933333 0.615686 0.627451 0.933333 0.615686 
0.627451 0.933333 0.615686 0.627451 0.933333 0.615686 
0.627451 0.933333 0.615686 0.627451 0.933333 0.615686 
0.627451 0.933333 0.615686 0.627451 0.933333 0.615686 
0.627451 0.933333 0.615686 0.627451 0.933333 0.615686 
0.627451 0.933333 0.615686 0.627451 0.933333 0.615686 
0.627451 0.933333 0.615686 0.627451 0.933333 0.615686 
0.627451 0.933333 0.615686 0.627451 0.933333 0.615686 
0.627451 0.933333 0.615686 0.627451 0.933333 0.615686 
0.627451 0.933333 0.615686 0.627451 0.933333 0.615686 
0.627451 0.933333 0.615686 0.627451 0.933333 0.615686 
0.627451 0.933333 0.615686 0.627451 0.933333 0.615686 
0.627451 0.933333 0.615686 0.627451 0.933333 0.615686 
0.627451 0.933333 0.615686 0.627451 0.933333 0.615686 
0.627451 0.933333 0.615686 0.627451 0.933333 0.615686 
0.627451 0.933333 0.615686 0.627451 0.933333 0.615686 
0.627451 0.933333 0.615686 0.627451 0.933333 0.615686 
0.627451 0.933333 0.615686 0.627451 0.933333 0.615686 
0.627451 0.933333 0.615686 0.627451 0.933333 0.615686 
0.627451 0.933333 0.615686 0.627451 0.933333 0.615686 
0.627451 0.933333 0.615686 0.627451 0.933333 0.615686 
0.627451 0.933333 0.615686 0.627451 0.933333 0.615686 
0.627451 0.933333 0.615686 0.627451 0.933333 0.615686 
0.627451 0.933333 0.615686 0.627451 0.933333 0.615686 
0.627451 0.933333 0.615686 0.627451 0.933333 0.615686 
0.627451 0.933333 0.615686 0.627451 0.933333 0.615686 
0.627451 0.933333 0.615686 0.627451 0.933333 0.615686 
0.627451 0.933333 0.615686 0.627451 0.933333 0.615686 
0.627451 0.933333 0.615686 0.627451 0.933333 0.615686 
0.627451 0.933333 0.615686 0.627451 0.933333 0.615686 
0.627451 0.933333 0.615686 0.627451 0.933333 0.615686 
0.627451 0.933333 0.615686 0.627451 0.933333 0.615686 
0.627451 0.933333 0.615686 0.627451 0.933333 0.615686 
0.627451 0.933333 0.615686 0.627451 0.933333 0.615686 
0.627451 0.933333 0.615686 0.627451 0.933333 0.615686 
0.627451 0.933333 0.615686 0.627451 0.933333 0.615686 
0.627451 0.933333 0.615686 0.627451 0.933333 0.615686 
0.627451 0.933333 0.615686 0.627451 0.933333 0.615686 