# vtk DataFile Version 4.2
vtk output
ASCII
DATASET POLYDATA
POINTS 1407 float
237.414 234.737 115.332 237.34 234.761 115.432 237.476 234.734 115.346 
237.431 234.702 115.39 237.402 234.791 115.366 237.473 234.788 115.376 
237.437 234.866 115.507 237.53 234.861 115.589 237.206 234.777 115.757 
237.661 234.895 115.986 237.359 234.94 115.707 237.494 235 115.87 
237.633 234.705 116.282 237.102 234.922 116.069 237.785 234.855 116.321 
237.809 234.945 116.295 237.487 235.198 116.271 237.42 234.529 116.61 
237.941 234.922 117.014 237.779 235.275 116.738 236.282 234.236 118.238 
236.258 234.629 117.84 237.192 235.789 117.625 235.927 234.053 119.061 
236.372 233.995 118.682 236.036 235.095 118.432 238.136 234.953 118.28 
236.577 235.922 118.501 237.812 236.545 119.129 236.642 233.652 119.418 
235.296 234.399 119.783 235.693 233.762 119.834 236.242 233.746 119.372 
237.43 233.951 119.157 237.866 234.297 118.984 235.499 234.727 119.34 
238.039 234.603 118.639 235.898 235.389 118.936 237.357 236.597 119.001 
238.447 236.027 119.953 235.539 233.235 121.084 235.284 233.799 120.308 
234.974 234.13 120.532 238.081 234.49 119.232 237.125 237.555 120.164 
237.519 237.656 120.197 238.61 236.84 121.013 238.016 239.395 121.795 
237.815 239.671 121.931 238.267 239.141 121.961 234.746 233.08 122.006 
236.704 233.135 121.166 236.495 238.281 121.16 237.067 239.075 121.358 
237.394 239.316 121.482 237.173 239.688 121.836 237.226 239.964 122.19 
238.037 239.926 122.635 233.745 233.616 122.68 234.503 232.737 122.688 
238.53 239.469 123.202 236.881 240.293 122.808 237.398 240.451 122.977 
233.453 232.801 123.611 237.924 233.293 122.897 233.261 234.09 123.304 
235.149 239.601 123.492 236.172 239.991 122.891 237.469 241.024 124.275 
237.908 240.784 124.893 236.221 241.165 124.6 236.947 241.365 124.916 
237.298 241.37 124.833 237.433 241.316 124.799 234.362 231.454 124.768 
233.586 231.418 125.156 236.356 231.423 124.929 231.716 233.248 125.702 
232.868 235.542 124.275 234.31 239.63 124.614 238.315 240.135 124.984 
236.546 241.595 125.499 236.263 241.659 125.786 237.37 241.3 125.002 
236.526 241.634 125.895 231.279 231.878 126.593 233.077 238.379 125.538 
238.764 238.112 125.892 234.708 240.895 125.776 234.574 240.932 126.357 
235.563 241.465 125.971 235.969 241.634 125.927 235.772 241.62 126.257 
237.155 241.294 126.004 236.511 241.544 126.376 230.76 231.181 127.363 
231.26 230.71 127.299 230.06 231.723 127.782 230.058 232.212 127.727 
230.73 234.455 127.175 232.199 238.218 127.014 237.304 240.572 127.06 
235.486 241.504 126.497 235.365 241.363 126.995 230.1 230.415 128.321 
230.821 230.22 127.946 232.277 229.963 127.381 237.022 230.173 127.975 
238.682 234.559 127.635 237.929 238.543 127.675 231.478 238.267 128.678 
236.23 241.386 127.136 236 241.4 127.225 235.732 241.408 127.151 
237.018 229.896 128.506 236.598 229.346 128.773 228.959 229.955 129.451 
237.406 230.387 128.817 238.179 231.996 128.309 238.519 234.333 128.434 
230.65 237.34 129.073 230.251 237.373 129.87 232.164 239.043 129.341 
235.448 240.456 128.667 233.039 227.685 129.881 235.28 227.75 130.095 
236.322 228.393 129.955 228.022 230.34 130.136 237.052 237.393 129.635 
230.053 237.472 130.526 231.588 238.612 129.873 235.622 239.393 129.567 
234.879 239.909 129.417 235.157 239.798 129.481 235.863 227.487 131.145 
236.558 228.27 130.727 236.333 227.909 131.005 226.954 228.439 132.039 
236.833 228.784 130.777 227.743 231.435 130.433 237.21 234.144 130.89 
228.123 235.505 131.094 229.019 236.896 131.325 233.44 226.411 131.75 
235.505 226.859 132.097 235.914 227.294 132.254 236.262 227.753 131.532 
236.647 228.375 131.441 237.212 230.729 131.317 236.959 231.737 131.793 
229.143 237.26 131.866 228.888 237.327 132.609 229.693 237.602 132.073 
232.228 225.688 133.13 233.824 226.099 132.553 234.84 226.328 132.783 
235.513 226.784 132.477 235.222 226.549 132.795 226.586 227.382 133.366 
226.274 227.571 133.642 228.198 226.357 133.157 236.404 228.523 132.392 
236.495 232.275 132.284 230.233 237.739 132.755 233.184 225.731 133.793 
233.97 226.046 133.611 235.255 226.662 133.07 235.479 227.033 133.136 
226.299 226.842 134.394 235.536 228.245 133.58 234.169 234.2 133.878 
232.214 237.157 133.448 231.468 225.176 134.811 227.058 225.701 135.236 
233.646 226.342 134.589 234.546 226.388 133.639 226.428 226.41 134.801 
226.146 226.355 135.344 234.343 227.274 134.5 225.237 229.489 134.501 
224.413 234.553 135.139 224.026 235.179 135.781 224.001 235.54 136.046 
225.01 236.236 135.528 226.519 237.112 135.527 230.99 236.575 134.81 
227.159 237.208 135.469 228.879 237.21 134.943 230.523 225.037 135.408 
231.823 225.43 135.418 226.482 225.725 135.941 225.77 226.658 135.756 
232.935 227.345 135.643 223.74 233.313 136.068 224.078 234.206 135.509 
231.24 234.855 135.886 224.556 236.402 136.368 229.938 236.849 135.099 
227.121 237.14 136.133 228.398 237.015 135.732 230.08 224.984 136.287 
229.868 224.903 136.593 229.672 224.866 136.628 229.412 224.867 136.426 
229.267 224.89 137.01 230.473 225.422 136.548 231.179 225.559 136.112 
226.673 225.244 137.158 231.236 226.617 136.665 222.593 234.699 138.067 
223.3 235.65 137.409 223.686 236 137.086 224.965 236.857 137.289 
229.713 236.524 135.688 226.319 237.001 136.964 226.835 237.046 136.629 
228.705 224.742 137.339 228.645 224.726 137.561 228.467 224.714 137.614 
229.719 224.924 136.776 228.846 224.863 137.518 228.269 224.748 137.418 
228.154 224.814 137.97 229.255 225.27 137.509 223.072 235.657 138.075 
223.394 236.018 138.258 224.69 236.77 137.814 227.663 224.738 138.287 
227.604 224.736 138.513 227.446 224.747 138.554 228.552 224.786 137.724 
227.782 224.853 138.47 227.158 224.905 138.883 226.787 224.941 138.633 
228.153 225.235 138.449 228.179 232.168 139.003 221.67 233.059 139.726 
223.345 235.892 138.929 223.877 236.333 138.347 224.352 236.615 138.137 
226.055 236.279 138.501 224.715 236.662 138.247 226.707 224.932 139.166 
226.653 224.948 139.405 226.464 225.056 139.481 227.516 224.815 138.668 
226.814 225.012 139.356 226.109 225.221 139.499 226.052 225.247 139.126 
227.128 225.331 139.35 227.82 230.087 139.57 226.212 233.864 139.856 
221.536 234.079 140.408 222.269 234.924 140.049 224.238 236.183 139.08 
225.007 236.305 138.896 226.633 225.016 139.506 225.785 225.536 139.857 
226.603 225.259 139.672 226.268 225.644 140.095 223.93 227.886 140.716 
221.665 231.197 141.177 221.411 234.024 141.143 222.17 234.689 140.654 
223.698 235.07 140.341 225.615 225.781 140.234 224.703 226.918 140.778 
225.281 227.203 141.167 224.269 227.439 141.446 223.862 227.842 141.431 
223.68 228.329 141.506 223.492 228.74 141.808 221.646 230.94 141.604 
219.822 232.71 143.098 220.357 233.172 142.508 220.94 233.572 141.902 
222.165 234.439 141.113 225.651 225.925 140.442 223.756 227.448 142.165 
223.737 227.434 142.211 223.762 227.488 142.148 225.476 226.336 140.715 
223.811 227.577 141.97 223.646 227.711 142.16 223.86 227.617 141.97 
223.634 227.917 141.993 223.445 228.159 142.116 224.025 227.821 141.796 
224.682 227.686 141.474 223.48 228.333 142.016 223.711 228.113 141.863 
223.393 228.639 142.098 224.042 228.286 141.723 222.623 229.535 142.119 
223.374 229.443 142.171 224.011 229.049 141.849 221.837 230.407 142.322 
222.143 230.21 142.717 220.308 231.455 143.71 219.372 232.165 144 
219.7 232.864 143.43 221.851 232.992 142.567 221.932 233.896 141.726 
223.714 227.505 142.204 223.486 227.978 142.219 223.6 227.999 142.106 
223.396 228.173 142.227 223.318 228.308 142.212 223.206 228.64 142.189 
221.647 230.468 143.151 221.594 230.51 143.299 221.481 230.537 143.364 
222.913 229.408 142.331 221.74 230.546 143.19 221.286 230.645 143.563 
221.084 230.795 143.519 222.091 230.814 142.992 220.725 231.139 143.711 
220.125 231.641 144.161 219.585 231.801 144.279 218.799 232.486 144.482 
218.785 232.711 144.56 219.465 232.794 144.203 223.393 228.119 142.245 
222 228.009 145.017 222 228.009 145.017 222 228.009 145.017 
222 228.009 145.017 221.154 230.62 143.749 222 228.009 145.017 
221.511 230.588 143.396 221.031 230.832 143.723 221.178 230.781 143.686 
219.211 231.822 145.019 220.969 231.151 143.728 219.053 231.855 144.907 
218.849 231.85 145.189 217.21 232.438 145.997 219.972 232.457 144.136 
217.517 232.803 145.764 218.463 232.763 145.274 218.967 232.791 144.812 
222 228.009 145.017 221.121 230.671 143.754 218.969 231.834 145.272 
218.934 231.855 145.36 218.776 231.867 145.482 219.081 231.895 145.213 
218.373 231.928 145.787 217.828 232.036 146.327 217.433 232.031 146.377 
218.864 232.197 145.402 215.012 232.719 147.285 216.518 232.754 146.423 
218.153 232.588 145.921 215.677 233.032 146.94 217.453 232.937 146.147 
219 230.009 147.017 219 230.009 147.017 219 230.009 147.017 
218.844 231.907 145.456 219 230.009 147.017 216.642 231.929 147.52 
219 230.009 147.017 216.085 232.111 147.194 218.305 232.256 145.941 
217.674 232.496 146.593 203.662 234.491 148.849 203.551 234.828 148.729 
204.389 234.638 148.424 204.123 234.336 148.689 204.72 234.204 148.591 
207.443 234.377 148.219 207.168 233.978 148.386 211.719 234.067 148.141 
214.788 233.267 147.425 203.704 235.031 148.575 204.682 235.026 148.278 
208.029 235.272 148.248 216.023 233.345 147.431 216.698 233.12 147.086 
205.737 235.461 148.194 219 230.009 147.017 214.635 231.975 148.328 
210.576 233.301 148.435 212.577 233.34 148.051 216.686 232.869 147.604 
203.443 234.316 149.272 203.336 234.742 149.038 205.974 233.615 148.815 
203.12 235.044 149.268 210.731 235.254 148.655 212.087 234.565 148.438 
214.174 233.937 148.301 215.223 233.627 148.326 204.032 235.888 148.611 
205.384 235.958 148.355 207.651 235.868 148.416 215.804 233.48 148.002 
203.323 236.14 149.231 206.139 237.022 148.972 215.604 231.81 148.414 
216.196 232.232 148.558 206.56 233.17 149.169 209.052 232.71 149.255 
210.145 233.083 148.66 210.988 232.473 149.112 216.224 232.866 148.269 
203.239 234.205 149.727 211.287 235.138 148.7 202.745 235.664 150.063 
209.824 236.013 149.045 202.654 236.217 150.412 207.563 236.658 148.885 
[...]
POINT_DATA 1407
COLOR_SCALARS scalars 3
0.501961 0.803922 0.972549 0.501961 0.803922 0.972549 0.501961 0.803922 0.972549 
0.501961 0.803922 0.972549 0.501961 0.803922 0.972549 
0.501961 0.803922 0.972549 0.501961 0.803922 0.972549 
0.501961 0.803922 0.972549 0.501961 0.803922 0.972549 
0.501961 0.803922 0.972549 0.501961 0.803922 0.972549 
0.501961 0.803922 0.972549 0.501961 0.803922 0.972549 
0.501961 0.803922 0.972549 0.501961 0.803922 0.972549 
0.501961 0.803922 0.972549 0.501961 0.803922 0.972549 
0.501961 0.803922 0.972549 0.501961 0.803922 0.972549 
0.501961 0.803922 0.972549 0.501961 0.803922 0.972549 
0.501961 0.803922 0.972549 0.501961 0.803922 0.972549 
0.501961 0.803922 0.972549 0.501961 0.803922 0.972549 
0.501961 0.803922 0.972549 0.501961 0.803922 0.972549 
0.501961 0.803922 0.972549 0.501961 0.803922 0.972549 
0.501961 0.803922 0.972549 0.501961 0.803922 0.972549 
0.501961 0.803922 0.972549 0.501961 0.803922 0.972549 
0.501961 0.803922 0.972549 0.501961 0.803922 0.972549 
0.501961 0.803922 0.972549 0.501961 0.803922 0.972549 
0.501961 0.803922 0.972549 0.501961 0.803922 0.972549 
0.501961 0.803922 0.972549 0.501961 0.803922 0.972549 
0.501961 0.803922 0.972549 0.501961 0.803922 0.972549 
0.501961 0.803922 0.972549 0.501961 0.803922 0.972549 
0.501961 0.803922 0.972549 0.501961 0.803922 0.972549 
0.501961 0.803922 0.972549 0.501961 0.803922 0.972549 
0.501961 0.803922 0.972549 0.501961 0.803922 0.972549 
0.501961 0.803922 0.972549 0.501961 0.803922 0.972549 
0.501961 0.803922 0.972549 0.501961 0.803922 0.972549 
0.501961 0.803922 0.972549 0.501961 0.803922 0.972549 
0.501961 0.803922 0.972549 0.501961 0.803922 0.972549 
0.501961 0.803922 0.972549 0.501961 0.803922 0.972549 
0.501961 0.803922 0.972549 0.501961 0.803922 0.972549 
0.501961 0.803922 0.972549 0.501961 0.803922 0.972549 
0.501961 0.803922 0.972549 0.501961 0.803922 0.972549 
0.501961 0.803922 0.972549 0.501961 0.803922 0.972549 
0.501961 0.803922 0.972549 0.501961 0.803922 0.972549 
0.501961 0.803922 0.972549 0.501961 0.803922 0.972549 
0.501961 0.803922 0.972549 0.501961 0.803922 0.972549 
0.501961 0.803922 0.972549 0.501961 0.803922 0.972549 
0.501961 0.803922 0.972549 0.501961 0.803922 0.972549 
0.501961 0.803922 0.972549 0.501961 0.803922 0.972549 
0.501961 0.803922 0.972549 0.501961 0.803922 0.972549 
0.501961 0.803922 0.972549 0.501961 0.803922 0.972549 
0.501961 0.803922 0.972549 0.501961 0.803922 0.972549 
0.501961 0.803922 0.972549 0.501961 0.803922 0.972549 
0.501961 0.803922 0.972549 0.501961 0.803922 0.972549 
0.501961 0.803922 0.972549 0.501961 0.803922 0.972549 
0.501961 0.803922 0.972549 0.501961 0.803922 0.972549 
0.501961 0.803922 0.972549 0.501961 0.803922 0.972549 
0.501961 0.803922 0.972549 0.501961 0.803922 0.972549 
0.501961 0.803922 0.972549 0.501961 0.803922 0.972549 
0.501961 0.803922 0.972549 0.501961 0.803922 0.972549 
0.501961 0.803922 0.972549 0.501961 0.803922 0.972549 
0.501961 0.803922 0.972549 0.501961 0.803922 0.972549 
0.501961 0.803922 0.972549 0.501961 0.803922 0.972549 
0.501961 0.803922 0.972549 0.501961 0.803922 0.972549 
0.501961 0.803922 0.972549 0.501961 0.803922 0.972549 
0.501961 0.803922 0.972549 0.501961 0.803922 0.972549 
0.501961 0.803922 0.972549 0.501961 0.803922 0.972549 
0.501961 0.803922 0.972549 0.501961 0.803922 0.972549 
0.501961 0.803922 0.972549 0.501961 0.803922 0.972549 
0.501961 0.803922 0.972549 0.501961 0.803922 0.972549 
0.501961 0.803922 0.972549 0.501961 0.803922 0.972549 
0.501961 0.803922 0.972549 0.501961 0.803922 0.972549 
0.501961 0.803922 0.972549 0.501961 0.803922 0.972549 
0.501961 0.803922 0.972549 0.501961 0.803922 0.972549 
0.501961 0.803922 0.972549 0.501961 0.803922 0.972549 
0.501961 0.803922 0.972549 0.501961 0.803922 0.972549 
0.501961 0.803922 0.972549 0.501961 0.803922 0.972549 
0.501961 0.803922 0.972549 0.501961 0.803922 0.972549 
0.501961 0.803922 0.972549 0.501961 0.803922 0.972549 
0.501961 0.803922 0.972549 0.501961 0.803922 0.972549 
0.501961 0.803922 0.972549 0.501961 0.803922 0.972549 
0.501961 0.803922 0.972549 0.501961 0.803922 0.972549 
0.501961 0.803922 0.972549 0.501961 0.803922 0.972549 
0.501961 0.803922 0.972549 0.501961 0.803922 0.972549 
0.501961 0.803922 0.972549 0.501961 0.803922 0.972549 
0.501961 0.803922 0.972549 0.501961 0.803922 0.972549 
0.501961 0.803922 0.972549 0.501961 0.803922 0.972549 
0.501961 0.803922 0.972549 0.501961 0.803922 0.972549 
0.501961 0.803922 0.972549 0.501961 0.803922 0.972549 
0.501961 0.803922 0.972549 0.501961 0.803922 0.972549 
0.501961 0.803922 0.972549 0.501961 0.803922 0.972549 
0.501961 0.803922 0.972549 0.501961 0.803922 0.972549 
0.501961 0.803922 0.972549 0.501961 0.803922 0.972549 
0.501961 0.803922 0.972549 0.501961 0.803922 0.972549 
0.501961 0.803922 0.972549 0.501961 0.803922 0.972549 
0.501961 0.803922 0.972549 0.501961 0.803922 0.972549 
0.501961 0.803922 0.972549 0.501961 0.803922 0.972549 
0.501961 0.803922 0.972549 0.501961 0.803922 0.972549 
0.501961 0.803922 0.972549 0.501961 0.803922 0.972549 
0.501961 0.803922 0.972549 0.501961 0.803922 0.972549 
0.501961 0.803922 0.972549 0.501961 0.803922 0.972549 
0.501961 0.803922 0.972549 0.501961 0.803922 0.972549 
0.501961 0.803922 0.972549 0.501961 0.803922 0.972549 
0.501961 0.803922 0.972549 0.501961 0.803922 0.972549 
0.501961 0.803922 0.972549 0.501961 0.803922 0.972549 
0.501961 0.803922 0.972549 0.501961 0.803922 0.972549 
0.501961 0.803922 0.972549 0.501961 0.803922 0.972549 
0.501961 0.803922 0.972549 0.501961 0.803922 0.972549 
0.501961 0.803922 0.972549 0.501961 0.803922 0.972549 
0.501961 0.803922 0.972549 0.501961 0.803922 0.972549 
0.501961 0.803922 0.972549 0.501961 0.803922 0.972549 
0.501961 0.803922 0.972549 0.501961 0.803922 0.972549 
0.501961 0.803922 0.972549 0.501961 0.803922 0.972549 
0.501961 0.803922 0.972549 0.501961 0.803922 0.972549 
0.501961 0.803922 0.972549 0.501961 0.803922 0.972549 
0.501961 0.803922 0.972549 0.501961 0.803922 0.972549 
0.501961 0.803922 0.972549 0.501961 0.803922 0.972549 
0.501961 0.803922 0.972549 0.501961 0.803922 0.972549 
0.501961 0.803922 0.972549 0.501961 0.803922 0.972549 
0.501961 0.803922 0.972549 0.501961 0.803922 0.972549 
0.501961 0.803922 0.972549 0.501961 0.803922 0.972549 
0.501961 0.803922 0.972549 0.501961 0.803922 0.972549 
0.501961 0.803922 0.972549 0.501961 0.803922 0.972549 
0.501961 0.803922 0.972549 0.501961 0.803922 0.972549 
0.501961 0.803922 0.972549 0.501961 0.803922 0.972549 
0.501961 0.803922 0.972549 0.501961 0.803922 0.972549 
0.501961 0.803922 0.972549 0.501961 0.803922 0.972549 
0.501961 0.803922 0.972549 0.501961 0.803922 0.972549 
0.501961 0.803922 0.972549 0.501961 0.803922 0.972549 
0.501961 0.803922 0.972549 0.501961 0.803922 0.972549 
0.501961 0.803922 0.972549 0.501961 0.803922 0.972549 
0.501961 0.803922 0.972549 0.501961 0.803922 0.972549 
0.501961 0.803922 0.972549 0.501961 0.803922 0.972549 
0.501961 0.803922 0.972549 0.501961 0.803922 0.972549 
0.501961 0.803922 0.972549 0.501961 0.803922 0.972549 
0.501961 0.803922 0.972549 0.501961 0.803922 0.972549 
0.501961 0.803922 0.972549 0.501961 0.803922 0.972549 
0.501961 0.803922 0.972549 0.501961 0.803922 0.972549 
0.501961 0.803922 0.972549 0.501961 0.803922 0.972549 
0.501961 0.803922 0.972549 0.501961 0.803922 0.972549 
0.501961 0.803922 0.972549 0.501961 0.803922 0.972549 
0.501961 0.803922 0.972549 0.501961 0.803922 0.972549 
0.501961 0.803922 0.972549 0.501961 0.803922 0.972549 
0.501961 0.803922 0.972549 0.501961 0.803922 0.972549 
0.501961 0.803922 0.972549 0.501961 0.803922 0.972549 
0.501961 0.803922 0.972549 0.501961 0.803922 0.972549 
0.501961 0.803922 0.972549 0.501961 0.803922 0.972549 
0.501961 0.803922 0.972549 0.501961 0.803922 0.972549 
0.501961 0.803922 0.972549 0.501961 0.803922 0.972549 
0.501961 0.803922 0.972549 0.501961 0.803922 0.972549 
0.501961 0.803922 0.972549 0.501961 0.803922 0.972549 
0.501961 0.803922 0.972549 0.501961 0.803922 0.972549 
0.501961 0.803922 0.972549 0.501961 0.803922 0.972549 
0.501961 0.803922 0.972549 0.501961 0.803922 0.972549 
0.501961 0.803922 0.972549 0.501961 0.803922 0.972549 
0.501961 0.803922 0.972549 0.501961 0.803922 0.972549 
0.501961 0.803922 0.972549 0.501961 0.803922 0.972549 
0.501961 0.803922 0.972549 0.501961 0.803922 0.972549 
0.501961 0.803922 0.972549 0.501961 0.803922 0.972549 
0.501961 0.803922 0.972549 0.501961 0.803922 0.972549 
0.501961 0.803922 0.972549 0.501961 0.803922 0.972549 
0.501961 0.803922 0.972549 0.501961 0.803922 0.972549 
0.501961 0.803922 0.972549 0.501961 0.803922 0.972549 
0.501961 0.803922 0.972549 0.501961 0.803922 0.972549 
0.501961 0.803922 0.972549 0.501961 0.803922 0.972549 
0.501961 0.803922 0.972549 0.501961 0.803922 0.972549 
0.501961 0.803922 0.972549 0.501961 0.803922 0.972549 
0.501961 0.803922 0.972549 0.501961 0.803922 0.972549 
0.501961 0.803922 0.972549 0.501961 0.803922 0.972549 
0.501961 0.803922 0.972549 0.501961 0.803922 0.972549 
0.501961 0.803922 0.972549 0.501961 0.803922 0.972549 
0.501961 0.803922 0.972549 0.501961 0.803922 0.972549 
0.501961 0.803922 0.972549 0.501961 0.803922 0.972549 
0.501961 0.803922 0.972549 0.501961 0.803922 0.972549 
0.501961 0.803922 0.972549 0.501961 0.803922 0.972549 
0.501961 0.803922 0.972549 0.501961 0.803922 0.972549 
0.501961 0.803922 0.972549 0.501961 0.803922 0.972549 
0.501961 0.803922 0.972549 0.501961 0.803922 0.972549 
0.501961 0.803922 0.972549 0.501961 0.803922 0.972549 
0.501961 0.803922 0.972549 0.501961 0.803922 0.972549 
0.501961 0.803922 0.972549 0.501961 0.803922 0.972549 
0.501961 0.803922 0.972549 0.501961 0.803922 0.972549 
0.501961 0.803922 0.972549 0.501961 0.803922 0.972549 
0.501961 0.803922 0.972549 0.501961 0.803922 0.972549 
0.501961 0.803922 0.972549 0.501961 0.803922 0.972549 
0.501961 0.803922 0.972549 0.501961 0.803922 0.972549 
0.501961 0.803922 0.972549 0.501961 0.803922 0.972549 
0.501961 0.803922 0.972549 0.501961 0.803922 0.972549 
0.501961 0.803922 0.972549 0.501961 0.803922 0.972549 
0.501961 0.803922 0.972549 0.501961 0.803922 0.972549 
0.501961 0.803922 0.972549 0.501961 0.803922 0.972549 
0.501961 0.803922 0.972549 0.501961 0.803922 0.972549 
0.501961 0.803922 0.972549 0.501961 0.803922 0.972549 
0.501961 0.803922 0.972549 0.501961 0.803922 0.972549 
0.501961 0.803922 0.972549 0.501961 0.803922 0.972549 
0.501961 0.803922 0.972549 0.501961 0.803922 0.972549 
0.501961 0.803922 0.972549 0.501961 0.803922 0.972549 
0.501961 0.803922 0.972549 0.501961 0.803922 0.972549 
0.501961 0.803922 0.972549 0.501961 0.803922 0.972549 
0.501961 0.803922 0.972549 0.501961 0.803922 0.972549 
0.501961 0.803922 0.972549 0.501961 0.803922 0.972549 
0.501961 0.803922 0.972549 0.501961 0.803922 0.972549 
0.501961 0.803922 0.972549 0.501961 0.803922 0.972549 
0.501961 0.803922 0.972549 0.501961 0.803922 0.972549 
0.501961 0.803922 0.972549 0.501961 0.803922 0.972549 
0.501961 0.803922 0.972549 0.501961 0.803922 0.972549 
0.501961 0.803922 0.972549 0.501961 0.803922 0.972549 
0.501961 0.803922 0.972549 0.501961 0.803922 0.972549 
0.501961 0.803922 0.972549 0.501961 0.803922 0.972549 
0.501961 0.803922 0.972549 0.501961 0.803922 0.972549 
0.501961 0.803922 0.972549 0.501961 0.803922 0.972549 
0.501961 0.803922 0.972549 0.501961 0.803922 0.972549 
0.501961 0.803922 0.972549 0.501961 0.803922 0.972549 
0.501961 0.803922 0.972549 0.501961 0.803922 0.972549 
0.501961 0.803922 0.972549 0.501961 0.803922 0.972549 
0.501961 0.803922 0.972549 0.501961 0.803922 0.972549 
0.501961 0.803922 0.972549 0.501961 0.803922 0.972549 
0.501961 0.803922 0.972549 0.501961 0.803922 0.972549 
0.501961 0.803922 0.972549 0.501961 0.803922 0.972549 
0.501961 0.803922 0.972549 0.501961 0.803922 0.972549 
0.501961 0.803922 0.972549 0.501961 0.803922 0.972549 
0.501961 0.803922 0.972549 0.501961 0.803922 0.972549 
0.501961 0.803922 0.972549 0.501961 0.803922 0.972549 
0.501961 0.803922 0.972549 0.501961 0.803922 0.972549 
0.501961 0.803922 0.972549 0.501961 0.803922 0.972549 
0.501961 0.803922 0.972549 0.501961 0.803922 0.972549 
0.501961 0.803922 0.972549 0.501961 0.803922 0.972549 
0.501961 0.803922 0.972549 0.501961 0.803922 0.972549 
0.501961 0.803922 0.972549 0.501961 0.803922 0.972549 
0.501961 0.803922 0.972549 0.501961 0.803922 0.972549 
0.501961 0.803922 0.972549 0.501961 0.803922 0.972549 
0.501961 0.803922 0.972549 0.501961 0.803922 0.972549 
0.501961 0.803922 0.972549 0.501961 0.803922 0.972549 
0.501961 0.803922 0.972549 0.501961 0.803922 0.972549 
0.501961 0.803922 0.972549 0.501961 0.803922 0.972549 
0.501961 0.803922 0.972549 0.501961 0.803922 0.972549 
0.501961 0.803922 0.972549 0.501961 0.803922 0.972549 
0.501961 0.803922 0.972549 0.501961 0.803922 0.972549 
0.501961 0.803922 0.972549 0.501961 0.803922 0.972549 
0.501961 0.803922 0.972549 0.501961 0.803922 0.972549 
0.501961 0.803922 0.972549 0.501961 0.803922 0.972549 
0.501961 0.803922 0.972549 0.501961 0.803922 0.972549 
0.501961 0.803922 0.972549 0.501961 0.803922 0.972549 
0.501961 0.803922 0.972549 0.501961 0.803922 0.972549 
0.501961 0.803922 0.972549 0.501961 0.803922 0.972549 
0.501961 0.803922 0.972549 0.501961 0.803922 0.972549 
0.501961 0.803922 0.972549 0.501961 0.803922 0.972549 
0.501961 0.803922 0.972549 0.501961 0.803922 0.972549 
0.501961 0.803922 0.972549 0.501961 0.803922 0.972549 
0.501961 0.803922 0.972549 0.501961 0.803922 0.972549 
0.501961 0.803922 0.972549 0.501961 0.803922 0.972549 
0.501961 0.803922 0.972549 0.501961 0.803922 0.972549 
0.501961 0.803922 0.972549 0.501961 0.803922 0.972549 
0.501961 0.803922 0.972549 0.501961 0.803922 0.972549 
0.501961 0.803922 0.972549 0.501961 0.803922 0.972549 
0.501961 0.803922 0.972549 0.501961 0.803922 0.972549 
0.501961 0.803922 0.972549 0.501961 0.803922 0.972549 
0.501961 0.803922 0.972549 0.501961 0.803922 0.972549 
0.501961 0.803922 0.972549 0.501961 0.803922 0.972549 
0.501961 0.803922 0.972549 0.501961 0.803922 0.972549 
0.501961 0.803922 0.972549 0.501961 0.803922 0.972549 
0.501961 0.803922 0.972549 0.501961 0.803922 0.972549 
0.501961 0.803922 0.972549 0.501961 0.803922 0.972549 
0.501961 0.803922 0.972549 0.501961 0.803922 0.972549 
0.501961 0.803922 0.972549 0.501961 0.803922 0.972549 
0.501961 0.803922 0.972549 0.501961 0.803922 0.972549 
0.501961 0.803922 0.972549 0.501961 0.803922 0.972549 
0.501961 0.803922 0.972549 0.501961 0.803922 0.972549 
0.501961 0.803922 0.972549 0.501961 0.803922 0.972549 
0.501961 0.803922 0.972549 0.501961 0.803922 0.972549 
0.501961 0.803922 0.972549 0.501961 0.803922 0.972549 
0.501961 0.803922 0.972549 0.501961 0.803922 0.972549 
0.501961 0.803922 0.972549 0.501961 0.803922 0.972549 
0.501961 0.803922 0.972549 0.501961 0.803922 0.972549 
0.501961 0.803922 0.972549 0.501961 0.803922 0.972549 
0.501961 0.803922 0.972549 0.501961 0.803922 0.972549 
0.501961 0.803922 0.972549 0.501961 0.803922 0.972549 
0.501961 0.803922 0.972549 0.501961 0.803922 0.972549 
0.501961 0.803922 0.972549 0.501961 0.803922 0.972549 
0.501961 0.803922 0.972549 0.501961 0.803922 0.972549 
0.501961 0.803922 0.972549 0.501961 0.803922 0.972549 
0.501961 0.803922 0.972549 0.501961 0.803922 0.972549 
0.501961 0.803922 0.972549 0.501961 0.803922 0.972549 
0.501961 0.803922 0.972549 0.501961 0.803922 0.972549 
0.501961 0.803922 0.972549 0.501961 0.803922 0.972549 
0.501961 0.803922 0.972549 0.501961 0.803922 0.972549 
0.501961 0.803922 0.972549 0.501961 0.803922 0.972549 
0.501961 0.803922 0.972549 0.501961 0.803922 0.972549 
0.501961 0.803922 0.972549 0.501961 0.803922 0.972549 
0.501961 0.803922 0.972549 0.501961 0.803922 0.972549 
0.501961 0.803922 0.972549 0.501961 0.803922 0.972549 
0.501961 0.803922 0.972549 0.501961 0.803922 0.972549 
0.501961 0.803922 0.972549 0.501961 0.803922 0.972549 
0.501961 0.803922 0.972549 0.501961 0.803922 0.972549 
0.501961 0.803922 0.972549 0.501961 0.803922 0.972549 
0.501961 0.803922 0.972549 0.501961 0.803922 0.972549 
0.501961 0.803922 0.972549 0.501961 0.803922 0.972549 
0.501961 0.803922 0.972549 0.501961 0.803922 0.972549 
0.501961 0.803922 0.972549 0.501961 0.803922 0.972549 
0.501961 0.803922 0.972549 0.501961 0.803922 0.972549 
0.501961 0.803922 0.972549 0.501961 0.803922 0.972549 
0.501961 0.803922 0.972549 0.501961 0.803922 0.972549 
0.501961 0.803922 0.972549 0.501961 0.803922 0.972549 
0.501961 0.803922 0.972549 0.501961 0.803922 0.972549 
0.501961 0.803922 0.972549 0.501961 0.803922 0.972549 
0.501961 0.803922 0.972549 0.501961 0.803922 0.972549 
0.501961 0.803922 0.972549 0.501961 0.803922 0.972549 
0.501961 0.803922 0.972549 0.501961 0.803922 0.972549 
0.501961 0.803922 0.972549 0.501961 0.803922 0.972549 
0.501961 0.803922 0.972549 0.501961 0.803922 0.972549 
0.501961 0.803922 0.972549 0.501961 0.803922 0.972549 
0.501961 0.803922 0.972549 0.501961 0.803922 0.972549 
0.501961 0.803922 0.972549 0.501961 0.803922 0.972549 
0.501961 0.803922 0.972549 0.501961 0.803922 0.972549 
0.501961 0.803922 0.972549 0.501961 0.803922 0.972549 
0.501961 0.803922 0.972549 0.501961 0.803922 0.972549 
0.501961 0.803922 0.972549 0.501961 0.803922 0.972549 
0.501961 0.803922 0.972549 0.501961 0.803922 0.972549 
0.501961 0.803922 0.972549 0.501961 0.803922 0.972549 
0.501961 0.803922 0.972549 0.501961 0.803922 0.972549 
0.501961 0.803922 0.972549 0.501961 0.803922 0.972549 
0.501961 0.803922 0.972549 0.501961 0.803922 0.972549 
0.501961 0.803922 0.972549 0.501961 0.803922 0.972549 
0.501961 0.803922 0.972549 0.501961 0.803922 0.972549 
0.501961 0.803922 0.972549 0.501961 0.803922 0.972549 
0.501961 0.803922 0.972549 0.501961 0.803922 0.972549 
0.501961 0.803922 0.972549 0.501961 0.803922 0.972549 
0.501961 0.803922 0.972549 0.501961 0.803922 0.972549 
0.501961 0.803922 0.972549 0.501961 0.803922 0.972549 
0.501961 0.803922 0.972549 0.501961 0.803922 0.972549 
0.501961 0.803922 0.972549 0.501961 0.803922 0.972549 
0.501961 0.803922 0.972549 0.501961 0.803922 0.972549 
0.501961 0.803922 0.972549 0.501961 0.803922 0.972549 
0.501961 0.803922 0.972549 0.501961 0.803922 0.972549 
0.501961 0.803922 0.972549 0.501961 0.803922 0.972549 
0.501961 0.803922 0.972549 0.501961 0.803922 0.972549 
0.501961 0.803922 0.972549 0.501961 0.803922 0.972549 
0.501961 0.803922 0.972549 0.501961 0.803922 0.972549 
0.501961 0.803922 0.972549 0.501961 0.803922 0.972549 
0.501961 0.803922 0.972549 0.501961 0.803922 0.972549 
0.501961 0.803922 0.972549 0.501961 0.803922 0.972549 
0.501961 0.803922 0.972549 0.501961 0.803922 0.972549 
0.501961 0.803922 0.972549 0.501961 0.803922 0.972549 
0.501961 0.803922 0.972549 0.501961 0.803922 0.972549 
0.501961 0.803922 0.972549 0.501961 0.803922 0.972549 
0.501961 0.803922 0.972549 0.501961 0.803922 0.972549 
0.501961 0.803922 0.972549 0.501961 0.803922 0.972549 
0.501961 0.803922 0.972549 0.501961 0.803922 0.972549 
0.501961 0.803922 0.972549 0.501961 0.803922 0.972549 
0.501961 0.803922 0.972549 0.501961 0.803922 0.972549 
0.501961 0.803922 0.972549 0.501961 0.803922 0.972549 
0.501961 0.803922 0.972549 0.501961 0.803922 0.972549 
0.501961 0.803922 0.972549 0.501961 0.803922 0.972549 
0.501961 0.803922 0.972549 0.501961 0.803922 0.972549 
0.501961 0.803922 0.972549 0.501961 0.803922 0.972549 
0.501961 0.803922 0.972549 0.501961 0.803922 0.972549 
0.501961 0.803922 0.972549 0.501961 0.803922 0.972549 
0.501961 0.803922 0.972549 0.501961 0.803922 0.972549 
0.501961 0.803922 0.972549 0.501961 0.803922 0.972549 
0.501961 0.803922 0.972549 0.501961 0.803922 0.972549 
0.501961 0.803922 0.972549 0.501961 0.803922 0.972549 
0.501961 0.803922 0.972549 0.501961 0.803922 0.972549 
0.501961 0.803922 0.972549 0.501961 0.803922 0.972549 
0.501961 0.803922 0.972549 0.501961 0.803922 0.972549 
0.501961 0.803922 0.972549 0.501961 0.803922 0.972549 
0.501961 0.803922 0.972549 0.501961 0.803922 0.972549 
0.501961 0.803922 0.972549 0.501961 0.803922 0.972549 
0.501961 0.803922 0.972549 0.501961 0.803922 0.972549 
0.501961 0.803922 0.972549 0.501961 0.803922 0.972549 
0.501961 0.803922 0.972549 0.501961 0.803922 0.972549 
0.501961 0.803922 0.972549 0.501961 0.803922 0.972549 