# vtk DataFile Version 4.2
vtk output
ASCII
DATASET POLYDATA
POINTS 912 float
230.636 238.789 112.373 230.216 238.827 112.368 231.18 238.706 112.591 
232.433 239.759 112.554 232.301 239.55 112.597 231.133 239.634 112.268 
232.379 239.953 112.488 232.639 240.011 112.674 225.408 238.079 113.468 
226.601 237.755 113.493 228.969 238.004 112.951 225.898 238.326 113.222 
228.464 238.746 112.643 229.447 238.225 112.734 229.864 238.149 112.81 
230.381 238.262 112.871 231.398 238.744 112.751 230.986 238.512 112.828 
231.807 239.022 112.878 230.996 240.531 112.336 231.755 240.239 112.333 
232.704 240.325 112.671 236.601 245.722 113.578 236.669 245.913 113.605 
237.366 246.394 113.864 237.116 246.49 113.801 237.359 246.564 113.822 
237.473 246.603 113.916 237.329 246.69 113.901 222.432 237.415 114.744 
224.832 237.834 113.792 229.485 237.857 113.238 229.847 237.904 113.339 
222.312 238.201 114.343 223.815 239.046 113.784 227.372 239.628 112.849 
233.189 240.426 113.741 230.129 241.282 112.624 232.138 241.424 112.565 
233.373 241.241 113.127 233.51 240.935 113.59 233.896 241.511 113.66 
232.857 242.196 112.801 234.331 241.909 114.084 234.374 242.992 113.392 
234.725 242.456 114.077 235.687 243.56 114.336 232.702 244.684 113.25 
235.187 244.464 113.46 234.567 245.41 113.417 236.997 246.076 113.76 
236.433 246.195 113.694 237.587 246.477 114.085 237.756 246.627 114.366 
234.514 246.739 113.944 234.852 247.122 114.209 236.035 246.815 113.964 
237.777 246.966 114.615 236.498 247.456 114.434 237.607 247.328 114.68 
220.648 237.865 115.205 221.834 237.64 114.766 224.977 237.168 114.732 
228.424 237.645 113.934 221.055 238.06 114.931 221.275 238.414 114.806 
225.991 240.471 113.471 232.594 239.728 113.944 227.151 241.665 113.549 
231.432 244.855 113.605 231.754 246.621 114.664 237.993 246.885 115.093 
236.527 247.905 114.851 236.268 248.102 115.13 223.294 236.658 115.838 
223.798 236.717 115.947 219.631 237.331 116.126 229.178 237.826 114.203 
229.955 238.319 114.89 219.817 239.091 115.57 232.173 240.075 115.593 
234.013 241.462 115.141 236.476 243.64 115.699 237.854 246.108 114.711 
234.985 248.137 115.47 236.326 248.335 115.697 237.432 248.354 115.76 
237.63 248.254 115.794 237.571 248.385 115.961 221.998 236.506 116.52 
222.592 236.512 116.426 220.853 236.765 116.243 225.539 237.123 115.823 
233.653 241.376 116.134 225.212 243.803 115.873 234.331 248.501 116.601 
237.744 248.227 116.136 237.9 248.006 116.186 237.552 248.4 116.189 
220.749 236.549 116.837 223.258 236.602 116.76 215.858 237.57 118.102 
219.086 236.836 117.122 217.292 239.003 117.032 237.905 245.306 116.013 
228.918 247.392 117.527 233.035 248.491 117.173 220.454 236.477 117.292 
221.163 236.405 117.785 215.008 237.272 118.754 218.064 236.64 118.189 
236.951 243.529 117.281 237.982 247.346 117.773 237.545 247.957 117.606 
221.377 236.59 119.158 218.622 236.43 118.56 211.355 238.125 119.98 
211.963 238.239 119.641 224.884 237.66 118.456 211.155 238.521 120.019 
237.325 243.223 119.269 237.564 243.399 119.754 237.692 243.823 118.948 
237.736 243.754 119.508 236.588 243.007 118.49 238.086 245.279 118.767 
237.806 247.218 118.775 232.135 248.618 118.661 235.707 248.207 119.439 
219.456 236.319 119.594 210.104 238.24 120.822 211.002 237.655 120.595 
210.41 238.618 120.468 230.219 241.094 120.673 237.029 242.993 119.518 
237.378 243.221 120.105 232.583 248.663 119.475 209.779 237.201 122.209 
211.062 237.335 121.004 211.715 236.758 121.692 209.248 238.183 121.447 
208.189 238.698 121.79 208.307 238.928 121.708 209.629 239.621 121.129 
227.929 240.471 121.383 229.978 241.211 121.743 236.384 242.624 120.314 
222.366 247.014 121.558 236.979 246.939 120.918 227.858 248.273 121.66 
208.426 237.516 122.599 207.386 238.135 122.664 206.792 238.486 122.909 
207.864 237.799 122.636 227.171 240.37 122.285 235.626 242.344 120.974 
236.213 242.635 121.846 236.471 242.848 122.193 237.104 243.245 121.343 
229.958 241.254 122.434 237.749 245.052 121.071 237.745 245.456 121.068 
229.194 248.37 122.062 206.106 238.196 123.587 204.671 239.145 124.017 
205.483 239.557 123.531 206.41 239.69 123.027 236.317 242.983 122.77 
236.971 244.22 122.742 237.062 244.785 122.647 203.863 238.598 124.941 
203.622 238.758 125.194 203.484 239.249 125.376 204.749 240.008 124.041 
235.054 242.459 123.78 236.236 245.417 123.601 234.969 246.631 123.569 
235.401 246.004 123.986 204.769 237.436 125.463 203.732 238.431 125.258 
203.14 239.856 126.052 204.888 241.949 124.95 235.816 243.609 124.363 
210.552 244.721 124.506 231.974 247.702 123.91 213.269 235.99 125.903 
203.155 238.548 126.458 202.755 239.701 126.881 233.023 241.718 124.671 
235.097 244.701 125.405 215.168 247.091 125.431 203.276 238.006 127.022 
204.831 236.768 127.416 234.025 242.869 126.079 213.46 248.077 127.272 
202.672 238.528 128.025 232.578 241.848 127.438 232.796 242.429 127.961 
233.594 243.532 127.171 209.61 247.687 127.411 226.281 248.049 127.379 
233.128 243.326 127.752 202.56 247.391 130.587 204.329 248.392 129.309 
229.92 239.728 130.518 232.282 242.391 129.517 232.444 242.653 129.266 
232.383 242.552 129.497 232.36 242.954 129.321 202.098 246.458 131.058 
203.389 249.239 130.516 209.347 250.421 130.435 227.551 238.667 131.181 
230.972 240.559 130.62 231.242 240.838 130.283 232.083 242.691 129.8 
232.31 242.561 129.603 224.035 247.907 130.604 224.396 247.62 131.163 
203.318 251.031 131.621 202.859 251.605 132.422 203.908 252.059 131.93 
203.17 236.579 132.338 206.004 235.401 132.133 228.316 238.829 131.828 
229.464 239.487 131.841 230.374 240.174 131.507 231.145 240.944 130.771 
230.801 240.526 131.11 231.126 241.556 131.101 228.8 244.426 132.182 
214.511 249.903 131.503 204.972 253.252 132.786 203.215 253.285 133.491 
204.19 235.816 132.908 202.254 237.718 132.568 224.988 237.894 133.157 
225.019 238.076 132.443 227.835 238.777 133.161 201.667 239.242 132.845 
228.528 239.098 132.876 229.724 240.145 132.785 230.247 240.336 132.107 
230.153 241.149 132.601 224.609 246.899 132.563 202.15 252.705 134.559 
202.88 253.547 134.03 203.954 254.37 134.169 203.236 254.381 134.395 
203.514 254.462 134.314 208.377 234.63 134.609 202.979 236.45 134.041 
224.923 237.874 133.332 224.776 237.878 133.744 227.11 238.518 133.437 
229.53 240.033 133.179 229.261 239.844 133.265 229.429 240.047 133.341 
230.492 240.728 132.049 217.442 249.054 133.67 218.846 248.442 134.165 
204.362 254.524 134.373 229.222 240.209 133.596 228.739 240.433 134.284 
221.507 247.095 134.762 214.88 249.956 134.059 202.05 253.85 136.374 
204.329 254.932 135.22 204.119 235.399 135.568 205.083 234.857 136.758 
211.436 234.677 135.727 202.582 236.759 135.401 225.129 238.391 135.795 
227.608 240.733 135.39 227.4 240.937 135.544 222.983 245.629 135.637 
202.621 255.236 137.402 203.007 236.139 136.438 216.708 235.787 136.248 
225.087 238.733 136.394 226.427 240.652 136.303 225.854 241.215 136.677 
225.21 242.133 136.837 217.214 247.888 137.084 215.17 249.479 136.131 
201.775 253.951 138.021 205.034 255.239 137.431 202.257 255.013 138.469 
220.879 236.609 138.303 223.523 238.138 137.241 225.893 239.865 136.549 
224.012 241.97 137.762 221.333 244.67 137.734 218.203 246.702 137.947 
219.343 246.098 137.755 223.334 240.841 138.597 219.413 244.705 139.031 
214.609 248.626 138.85 201.37 252.566 139.42 204.445 255.513 138.64 
202.982 255.576 139.119 223.254 239.849 138.625 223.404 240.378 138.581 
219.932 242.845 139.987 201.731 254.044 141.551 202.307 255.026 141.794 
217.36 234.361 142.297 219.284 236.027 142.01 220.034 237.04 141.512 
202.465 255.005 142.477 217.491 234.287 142.814 217.43 234.209 142.976 
217.278 234.217 142.943 217.476 234.282 143.016 216.689 234.136 143.047 
217.773 234.57 142.78 218.28 235.094 142.879 211.543 233.989 142.216 
218.16 239.351 143.317 202.763 255.265 142.221 203.421 255.17 142.921 
216.69 234.076 143.694 217.367 234.219 143.087 216.753 234.148 143.721 
215.871 234.029 143.599 217.18 234.329 143.365 218.185 235.299 143.327 
202.237 237.088 143.238 218.518 236.76 143.61 218.537 236.38 143.507 
218.358 236.981 143.778 207.45 252.794 143.259 202.392 254.281 144.594 
202.699 254.708 143.951 215.45 233.974 144.369 215.696 233.995 144.302 
215.916 234.078 144.288 208.474 234.286 144.786 216.387 234.309 144.13 
217.82 235.291 143.763 203.539 235.645 144.28 217.835 235.773 144.044 
201.785 253.142 145.3 202.493 254.068 145.524 203.29 254.707 144.633 
204.774 235.027 144.939 206.064 234.852 145.659 214.116 234.29 145.093 
202.802 236.727 144.811 215.821 238.588 145.945 203.696 254.376 145.456 
202.842 254.241 145.657 214.981 234.996 145.899 206.554 235.329 146.763 
215.114 238.093 146.762 205.413 252.835 146.576 202.476 253.299 147.294 
203.646 253.7 146.954 202.9 253.7 146.971 203.059 254.078 146.216 
212.756 234.815 146.569 211.132 235.315 147.527 203.694 237.038 146.88 
204.368 236.684 147.204 202.87 238.17 146.85 214.678 237.147 147.208 
214.221 236.935 147.523 204.353 253.065 147.535 202.607 252.929 148.262 
203.258 253.468 147.519 213.364 236.451 147.863 213.605 237.868 148.052 
212.984 238.331 148.588 212.475 239.376 148.902 207.938 247.505 149.496 
202.44 252.321 149.134 203.582 252.943 148.349 202.797 252.677 148.946 
210.855 236.399 148.725 201.693 250.383 149.993 202.7 252.34 149.492 
210.135 237.422 149.656 210.73 238.007 149.828 211.099 238.21 149.766 
206.741 238.922 150.721 211.225 239.41 149.904 210.45 239.731 150.392 
205.208 240.083 151.591 201.745 243.566 150.359 201.339 247.028 150.823 
201.486 248.715 150.914 202.224 250.788 150.852 204.065 251.264 150.509 
202.824 252.119 149.897 209.763 238.426 150.247 205.785 239.876 151.535 
206.236 239.988 151.719 206.911 240 151.696 203.036 241.625 151.767 
203.532 241.284 152.142 203.89 241.053 152.204 205.016 240.592 152.19 
201.521 245.31 151.578 203.376 250.8 151.534 202.971 251.378 150.849 
208.517 239.793 151.229 209.118 239.689 150.97 206.918 240.768 152.303 
202.944 241.995 152.391 203.133 242.052 152.886 205.562 240.804 152.571 
[...]
POINT_DATA 912
COLOR_SCALARS scalars 3
0.501961 0.803922 0.972549 0.501961 0.803922 0.972549 0.501961 0.803922 0.972549 
0.501961 0.803922 0.972549 0.501961 0.803922 0.972549 
0.501961 0.803922 0.972549 0.501961 0.803922 0.972549 
0.501961 0.803922 0.972549 0.501961 0.803922 0.972549 
0.501961 0.803922 0.972549 0.501961 0.803922 0.972549 
0.501961 0.803922 0.972549 0.501961 0.803922 0.972549 
0.501961 0.803922 0.972549 0.501961 0.803922 0.972549 
0.501961 0.803922 0.972549 0.501961 0.803922 0.972549 
0.501961 0.803922 0.972549 0.501961 0.803922 0.972549 
0.501961 0.803922 0.972549 0.501961 0.803922 0.972549 
0.501961 0.803922 0.972549 0.501961 0.803922 0.972549 
0.501961 0.803922 0.972549 0.501961 0.803922 0.972549 
0.501961 0.803922 0.972549 0.501961 0.803922 0.972549 
0.501961 0.803922 0.972549 0.501961 0.803922 0.972549 
0.501961 0.803922 0.972549 0.501961 0.803922 0.972549 
0.501961 0.803922 0.972549 0.501961 0.803922 0.972549 
0.501961 0.803922 0.972549 0.501961 0.803922 0.972549 
0.501961 0.803922 0.972549 0.501961 0.803922 0.972549 
0.501961 0.803922 0.972549 0.501961 0.803922 0.972549 
0.501961 0.803922 0.972549 0.501961 0.803922 0.972549 
0.501961 0.803922 0.972549 0.501961 0.803922 0.972549 
0.501961 0.803922 0.972549 0.501961 0.803922 0.972549 
0.501961 0.803922 0.972549 0.501961 0.803922 0.972549 
0.501961 0.803922 0.972549 0.501961 0.803922 0.972549 
0.501961 0.803922 0.972549 0.501961 0.803922 0.972549 
0.501961 0.803922 0.972549 0.501961 0.803922 0.972549 
0.501961 0.803922 0.972549 0.501961 0.803922 0.972549 
0.501961 0.803922 0.972549 0.501961 0.803922 0.972549 
0.501961 0.803922 0.972549 0.501961 0.803922 0.972549 
0.501961 0.803922 0.972549 0.501961 0.803922 0.972549 
0.501961 0.803922 0.972549 0.501961 0.803922 0.972549 
0.501961 0.803922 0.972549 0.501961 0.803922 0.972549 
0.501961 0.803922 0.972549 0.501961 0.803922 0.972549 
0.501961 0.803922 0.972549 0.501961 0.803922 0.972549 
0.501961 0.803922 0.972549 0.501961 0.803922 0.972549 
0.501961 0.803922 0.972549 0.501961 0.803922 0.972549 
0.501961 0.803922 0.972549 0.501961 0.803922 0.972549 
0.501961 0.803922 0.972549 0.501961 0.803922 0.972549 
0.501961 0.803922 0.972549 0.501961 0.803922 0.972549 
0.501961 0.803922 0.972549 0.501961 0.803922 0.972549 
0.501961 0.803922 0.972549 0.501961 0.803922 0.972549 
0.501961 0.803922 0.972549 0.501961 0.803922 0.972549 
0.501961 0.803922 0.972549 0.501961 0.803922 0.972549 
0.501961 0.803922 0.972549 0.501961 0.803922 0.972549 
0.501961 0.803922 0.972549 0.501961 0.803922 0.972549 
0.501961 0.803922 0.972549 0.501961 0.803922 0.972549 
0.501961 0.803922 0.972549 0.501961 0.803922 0.972549 
0.501961 0.803922 0.972549 0.501961 0.803922 0.972549 
0.501961 0.803922 0.972549 0.501961 0.803922 0.972549 
0.501961 0.803922 0.972549 0.501961 0.803922 0.972549 
0.501961 0.803922 0.972549 0.501961 0.803922 0.972549 
0.501961 0.803922 0.972549 0.501961 0.803922 0.972549 
0.501961 0.803922 0.972549 0.501961 0.803922 0.972549 
0.501961 0.803922 0.972549 0.501961 0.803922 0.972549 
0.501961 0.803922 0.972549 0.501961 0.803922 0.972549 
0.501961 0.803922 0.972549 0.501961 0.803922 0.972549 
0.501961 0.803922 0.972549 0.501961 0.803922 0.972549 
0.501961 0.803922 0.972549 0.501961 0.803922 0.972549 
0.501961 0.803922 0.972549 0.501961 0.803922 0.972549 
0.501961 0.803922 0.972549 0.501961 0.803922 0.972549 
0.501961 0.803922 0.972549 0.501961 0.803922 0.972549 
0.501961 0.803922 0.972549 0.501961 0.803922 0.972549 
0.501961 0.803922 0.972549 0.501961 0.803922 0.972549 
0.501961 0.803922 0.972549 0.501961 0.803922 0.972549 
0.501961 0.803922 0.972549 0.501961 0.803922 0.972549 
0.501961 0.803922 0.972549 0.501961 0.803922 0.972549 
0.501961 0.803922 0.972549 0.501961 0.803922 0.972549 
0.501961 0.803922 0.972549 0.501961 0.803922 0.972549 
0.501961 0.803922 0.972549 0.501961 0.803922 0.972549 
0.501961 0.803922 0.972549 0.501961 0.803922 0.972549 
0.501961 0.803922 0.972549 0.501961 0.803922 0.972549 
0.501961 0.803922 0.972549 0.501961 0.803922 0.972549 
0.501961 0.803922 0.972549 0.501961 0.803922 0.972549 
0.501961 0.803922 0.972549 0.501961 0.803922 0.972549 
0.501961 0.803922 0.972549 0.501961 0.803922 0.972549 
0.501961 0.803922 0.972549 0.501961 0.803922 0.972549 
0.501961 0.803922 0.972549 0.501961 0.803922 0.972549 
0.501961 0.803922 0.972549 0.501961 0.803922 0.972549 
0.501961 0.803922 0.972549 0.501961 0.803922 0.972549 
0.501961 0.803922 0.972549 0.501961 0.803922 0.972549 
0.501961 0.803922 0.972549 0.501961 0.803922 0.972549 
0.501961 0.803922 0.972549 0.501961 0.803922 0.972549 
0.501961 0.803922 0.972549 0.501961 0.803922 0.972549 
0.501961 0.803922 0.972549 0.501961 0.803922 0.972549 
0.501961 0.803922 0.972549 0.501961 0.803922 0.972549 
0.501961 0.803922 0.972549 0.501961 0.803922 0.972549 
0.501961 0.803922 0.972549 0.501961 0.803922 0.972549 
0.501961 0.803922 0.972549 0.501961 0.803922 0.972549 
0.501961 0.803922 0.972549 0.501961 0.803922 0.972549 
0.501961 0.803922 0.972549 0.501961 0.803922 0.972549 
0.501961 0.803922 0.972549 0.501961 0.803922 0.972549 
0.501961 0.803922 0.972549 0.501961 0.803922 0.972549 
0.501961 0.803922 0.972549 0.501961 0.803922 0.972549 
0.501961 0.803922 0.972549 0.501961 0.803922 0.972549 
0.501961 0.803922 0.972549 0.501961 0.803922 0.972549 
0.501961 0.803922 0.972549 0.501961 0.803922 0.972549 
0.501961 0.803922 0.972549 0.501961 0.803922 0.972549 
0.501961 0.803922 0.972549 0.501961 0.803922 0.972549 
0.501961 0.803922 0.972549 0.501961 0.803922 0.972549 
0.501961 0.803922 0.972549 0.501961 0.803922 0.972549 
0.501961 0.803922 0.972549 0.501961 0.803922 0.972549 
0.501961 0.803922 0.972549 0.501961 0.803922 0.972549 
0.501961 0.803922 0.972549 0.501961 0.803922 0.972549 
0.501961 0.803922 0.972549 0.501961 0.803922 0.972549 
0.501961 0.803922 0.972549 0.501961 0.803922 0.972549 
0.501961 0.803922 0.972549 0.501961 0.803922 0.972549 
0.501961 0.803922 0.972549 0.501961 0.803922 0.972549 
0.501961 0.803922 0.972549 0.501961 0.803922 0.972549 
0.501961 0.803922 0.972549 0.501961 0.803922 0.972549 
0.501961 0.803922 0.972549 0.501961 0.803922 0.972549 
0.501961 0.803922 0.972549 0.501961 0.803922 0.972549 
0.501961 0.803922 0.972549 0.501961 0.803922 0.972549 
0.501961 0.803922 0.972549 0.501961 0.803922 0.972549 
0.501961 0.803922 0.972549 0.501961 0.803922 0.972549 
0.501961 0.803922 0.972549 0.501961 0.803922 0.972549 
0.501961 0.803922 0.972549 0.501961 0.803922 0.972549 
0.501961 0.803922 0.972549 0.501961 0.803922 0.972549 
0.501961 0.803922 0.972549 0.501961 0.803922 0.972549 
0.501961 0.803922 0.972549 0.501961 0.803922 0.972549 
0.501961 0.803922 0.972549 0.501961 0.803922 0.972549 
0.501961 0.803922 0.972549 0.501961 0.803922 0.972549 
0.501961 0.803922 0.972549 0.501961 0.803922 0.972549 
0.501961 0.803922 0.972549 0.501961 0.803922 0.972549 
0.501961 0.803922 0.972549 0.501961 0.803922 0.972549 
0.501961 0.803922 0.972549 0.501961 0.803922 0.972549 
0.501961 0.803922 0.972549 0.501961 0.803922 0.972549 
0.501961 0.803922 0.972549 0.501961 0.803922 0.972549 
0.501961 0.803922 0.972549 0.501961 0.803922 0.972549 
0.501961 0.803922 0.972549 0.501961 0.803922 0.972549 
0.501961 0.803922 0.972549 0.501961 0.803922 0.972549 
0.501961 0.803922 0.972549 0.501961 0.803922 0.972549 
0.501961 0.803922 0.972549 0.501961 0.803922 0.972549 
0.501961 0.803922 0.972549 0.501961 0.803922 0.972549 
0.501961 0.803922 0.972549 0.501961 0.803922 0.972549 
0.501961 0.803922 0.972549 0.501961 0.803922 0.972549 
0.501961 0.803922 0.972549 0.501961 0.803922 0.972549 
0.501961 0.803922 0.972549 0.501961 0.803922 0.972549 
0.501961 0.803922 0.972549 0.501961 0.803922 0.972549 
0.501961 0.803922 0.972549 0.501961 0.803922 0.972549 
0.501961 0.803922 0.972549 0.501961 0.803922 0.972549 
0.501961 0.803922 0.972549 0.501961 0.803922 0.972549 
0.501961 0.803922 0.972549 0.501961 0.803922 0.972549 
0.501961 0.803922 0.972549 0.501961 0.803922 0.972549 
0.501961 0.803922 0.972549 0.501961 0.803922 0.972549 
0.501961 0.803922 0.972549 0.501961 0.803922 0.972549 
0.501961 0.803922 0.972549 0.501961 0.803922 0.972549 
0.501961 0.803922 0.972549 0.501961 0.803922 0.972549 
0.501961 0.803922 0.972549 0.501961 0.803922 0.972549 
0.501961 0.803922 0.972549 0.501961 0.803922 0.972549 
0.501961 0.803922 0.972549 0.501961 0.803922 0.972549 
0.501961 0.803922 0.972549 0.501961 0.803922 0.972549 
0.501961 0.803922 0.972549 0.501961 0.803922 0.972549 
0.501961 0.803922 0.972549 0.501961 0.803922 0.972549 
0.501961 0.803922 0.972549 0.501961 0.803922 0.972549 
0.501961 0.803922 0.972549 0.501961 0.803922 0.972549 
0.501961 0.803922 0.972549 0.501961 0.803922 0.972549 
0.501961 0.803922 0.972549 0.501961 0.803922 0.972549 
0.501961 0.803922 0.972549 0.501961 0.803922 0.972549 
0.501961 0.803922 0.972549 0.501961 0.803922 0.972549 
0.501961 0.803922 0.972549 0.501961 0.803922 0.972549 
0.501961 0.803922 0.972549 0.501961 0.803922 0.972549 
0.501961 0.803922 0.972549 0.501961 0.803922 0.972549 
0.501961 0.803922 0.972549 0.501961 0.803922 0.972549 
0.501961 0.803922 0.972549 0.501961 0.803922 0.972549 
0.501961 0.803922 0.972549 0.501961 0.803922 0.972549 
0.501961 0.803922 0.972549 0.501961 0.803922 0.972549 
0.501961 0.803922 0.972549 0.501961 0.803922 0.972549 
0.501961 0.803922 0.972549 0.501961 0.803922 0.972549 
0.501961 0.803922 0.972549 0.501961 0.803922 0.972549 
0.501961 0.803922 0.972549 0.501961 0.803922 0.972549 
0.501961 0.803922 0.972549 0.501961 0.803922 0.972549 
0.501961 0.803922 0.972549 0.501961 0.803922 0.972549 
0.501961 0.803922 0.972549 0.501961 0.803922 0.972549 
0.501961 0.803922 0.972549 0.501961 0.803922 0.972549 
0.501961 0.803922 0.972549 0.501961 0.803922 0.972549 
0.501961 0.803922 0.972549 0.501961 0.803922 0.972549 
0.501961 0.803922 0.972549 0.501961 0.803922 0.972549 
0.501961 0.803922 0.972549 0.501961 0.803922 0.972549 
0.501961 0.803922 0.972549 0.501961 0.803922 0.972549 
0.501961 0.803922 0.972549 0.501961 0.803922 0.972549 
0.501961 0.803922 0.972549 0.501961 0.803922 0.972549 
0.501961 0.803922 0.972549 0.501961 0.803922 0.972549 
0.501961 0.803922 0.972549 0.501961 0.803922 0.972549 
0.501961 0.803922 0.972549 0.501961 0.803922 0.972549 
0.501961 0.803922 0.972549 0.501961 0.803922 0.972549 
0.501961 0.803922 0.972549 0.501961 0.803922 0.972549 
0.501961 0.803922 0.972549 0.501961 0.803922 0.972549 
0.501961 0.803922 0.972549 0.501961 0.803922 0.972549 
0.501961 0.803922 0.972549 0.501961 0.803922 0.972549 
0.501961 0.803922 0.972549 0.501961 0.803922 0.972549 
0.501961 0.803922 0.972549 0.501961 0.803922 0.972549 
0.501961 0.803922 0.972549 0.501961 0.803922 0.972549 
0.501961 0.803922 0.972549 0.501961 0.803922 0.972549 
0.501961 0.803922 0.972549 0.501961 0.803922 0.972549 
0.501961 0.803922 0.972549 0.501961 0.803922 0.972549 
0.501961 0.803922 0.972549 0.501961 0.803922 0.972549 
0.501961 0.803922 0.972549 0.501961 0.803922 0.972549 
0.501961 0.803922 0.972549 0.501961 0.803922 0.972549 
0.501961 0.803922 0.972549 0.501961 0.803922 0.972549 
0.501961 0.803922 0.972549 0.501961 0.803922 0.972549 
0.501961 0.803922 0.972549 0.501961 0.803922 0.972549 
0.501961 0.803922 0.972549 0.501961 0.803922 0.972549 
0.501961 0.803922 0.972549 0.501961 0.803922 0.972549 
0.501961 0.803922 0.972549 0.501961 0.803922 0.972549 
0.501961 0.803922 0.972549 0.501961 0.803922 0.972549 
0.501961 0.803922 0.972549 0.501961 0.803922 0.972549 
0.501961 0.803922 0.972549 0.501961 0.803922 0.972549 
0.501961 0.803922 0.972549 0.501961 0.803922 0.972549 
0.501961 0.803922 0.972549 0.501961 0.803922 0.972549 
0.501961 0.803922 0.972549 0.501961 0.803922 0.972549 
0.501961 0.803922 0.972549 0.501961 0.803922 0.972549 
0.501961 0.803922 0.972549 0.501961 0.803922 0.972549 
0.501961 0.803922 0.972549 0.501961 0.803922 0.972549 
0.501961 0.803922 0.972549 0.501961 0.803922 0.972549 
0.501961 0.803922 0.972549 0.501961 0.803922 0.972549 
0.501961 0.803922 0.972549 0.501961 0.803922 0.972549 
0.501961 0.803922 0.972549 0.501961 0.803922 0.972549 
0.501961 0.803922 0.972549 0.501961 0.803922 0.972549 
0.501961 0.803922 0.972549 0.501961 0.803922 0.972549 
0.501961 0.803922 0.972549 0.501961 0.803922 0.972549 
0.501961 0.803922 0.972549 0.501961 0.803922 0.972549 
0.501961 0.803922 0.972549 0.501961 0.803922 0.972549 
0.501961 0.803922 0.972549 0.501961 0.803922 0.972549 
0.501961 0.803922 0.972549 0.501961 0.803922 0.972549 
0.501961 0.803922 0.972549 0.501961 0.803922 0.972549 
0.501961 0.803922 0.972549 0.501961 0.803922 0.972549 
0.501961 0.803922 0.972549 0.501961 0.803922 0.972549 
0.501961 0.803922 0.972549 0.501961 0.803922 0.972549 
0.501961 0.803922 0.972549 0.501961 0.803922 0.972549 
0.501961 0.803922 0.972549 0.501961 0.803922 0.972549 
0.501961 0.803922 0.972549 0.501961 0.803922 0.972549 
0.501961 0.803922 0.972549 0.501961 0.803922 0.972549 
0.501961 0.803922 0.972549 0.501961 0.803922 0.972549 
0.501961 0.803922 0.972549 0.501961 0.803922 0.972549 
0.501961 0.803922 0.972549 0.501961 0.803922 0.972549 
0.501961 0.803922 0.972549 0.501961 0.803922 0.972549 
0.501961 0.803922 0.972549 0.501961 0.803922 0.972549 
0.501961 0.803922 0.972549 0.501961 0.803922 0.972549 
0.501961 0.803922 0.972549 0.501961 0.803922 0.972549 
0.501961 0.803922 0.972549 0.501961 0.803922 0.972549 
0.501961 0.803922 0.972549 0.501961 0.803922 0.972549 
0.501961 0.803922 0.972549 0.501961 0.803922 0.972549 
0.501961 0.803922 0.972549 0.501961 0.803922 0.972549 
0.501961 0.803922 0.972549 0.501961 0.803922 0.972549 
0.501961 0.803922 0.972549 0.501961 0.803922 0.972549 
0.501961 0.803922 0.972549 0.501961 0.803922 0.972549 
0.501961 0.803922 0.972549 0.501961 0.803922 0.972549 
0.501961 0.803922 0.972549 0.501961 0.803922 0.972549 
0.501961 0.803922 0.972549 0.501961 0.803922 0.972549 
0.501961 0.803922 0.972549 0.501961 0.803922 0.972549 
0.501961 0.803922 0.972549 0.501961 0.803922 0.972549 
0.501961 0.803922 0.972549 0.501961 0.803922 0.972549 
0.501961 0.803922 0.972549 0.501961 0.803922 0.972549 
0.501961 0.803922 0.972549 0.501961 0.803922 0.972549 
0.501961 0.803922 0.972549 0.501961 0.803922 0.972549 
0.501961 0.803922 0.972549 0.501961 0.803922 0.972549 
0.501961 0.803922 0.972549 0.501961 0.803922 0.972549 
0.501961 0.803922 0.972549 0.501961 0.803922 0.972549 
0.501961 0.803922 0.972549 0.501961 0.803922 0.972549 
0.501961 0.803922 0.972549 0.501961 0.803922 0.972549 
0.501961 0.803922 0.972549 0.501961 0.803922 0.972549 
0.501961 0.803922 0.972549 0.501961 0.803922 0.972549 
0.501961 0.803922 0.972549 0.501961 0.803922 0.972549 
0.501961 0.803922 0.972549 0.501961 0.803922 0.972549 
0.501961 0.803922 0.972549 0.501961 0.803922 0.972549 
0.501961 0.803922 0.972549 0.501961 0.803922 0.972549 
0.501961 0.803922 0.972549 0.501961 0.803922 0.972549 
0.501961 0.803922 0.972549 0.501961 0.803922 0.972549 
0.501961 0.803922 0.972549 0.501961 0.803922 0.972549 
0.501961 0.803922 0.972549 0.501961 0.803922 0.972549 
0.501961 0.803922 0.972549 0.501961 0.803922 0.972549 
0.501961 0.803922 0.972549 0.501961 0.803922 0.972549 
0.501961 0.803922 0.972549 0.501961 0.803922 0.972549 
0.501961 0.803922 0.972549 0.501961 0.803922 0.972549 
0.501961 0.803922 0.972549 0.501961 0.803922 0.972549 
0.501961 0.803922 0.972549 0.501961 0.803922 0.972549 
0.501961 0.803922 0.972549 0.501961 0.803922 0.972549 
0.501961 0.803922 0.972549 0.501961 0.803922 0.972549 
0.501961 0.803922 0.972549 0.501961 0.803922 0.972549 
0.501961 0.803922 0.972549 0.501961 0.803922 0.972549 
0.501961 0.803922 0.972549 0.501961 0.803922 0.972549 
0.501961 0.803922 0.972549 0.501961 0.803922 0.972549 
0.501961 0.803922 0.972549 0.501961 0.803922 0.972549 
0.501961 0.803922 0.972549 0.501961 0.803922 0.972549 
0.501961 0.803922 0.972549 0.501961 0.803922 0.972549 
0.501961 0.803922 0.972549 0.501961 0.803922 0.972549 
0.501961 0.803922 0.972549 0.501961 0.803922 0.972549 
0.501961 0.803922 0.972549 0.501961 0.803922 0.972549 
0.501961 0.803922 0.972549 0.501961 0.803922 0.972549 
0.501961 0.803922 0.972549 0.501961 0.803922 0.972549 
0.501961 0.803922 0.972549 0.501961 0.803922 0.972549 
0.501961 0.803922 0.972549 0.501961 0.803922 0.972549 
0.501961 0.803922 0.972549 0.501961 0.803922 0.972549 
0.501961 0.803922 0.972549 0.501961 0.803922 0.972549 
0.501961 0.803922 0.972549 0.501961 0.803922 0.972549 
0.501961 0.803922 0.972549 0.501961 0.803922 0.972549 
0.501961 0.803922 0.972549 0.501961 0.803922 0.972549 
0.501961 0.803922 0.972549 0.501961 0.803922 0.972549 
0.501961 0.803922 0.972549 0.501961 0.803922 0.972549 
0.501961 0.803922 0.972549 0.501961 0.803922 0.972549 
0.501961 0.803922 0.972549 0.501961 0.803922 0.972549 
0.501961 0.803922 0.972549 0.501961 0.803922 0.972549 
0.501961 0.803922 0.972549 0.501961 0.803922 0.972549 
0.501961 0.803922 0.972549 0.501961 0.803922 0.972549 
0.501961 0.803922 0.972549 0.501961 0.803922 0.972549 
0.501961 0.803922 0.972549 0.501961 0.803922 0.972549 
0.501961 0.803922 0.972549 0.501961 0.803922 0.972549 
0.501961 0.803922 0.972549 0.501961 0.803922 0.972549 
0.501961 0.803922 0.972549 0.501961 0.803922 0.972549 
0.501961 0.803922 0.972549 0.501961 0.803922 0.972549 
0.501961 0.803922 0.972549 0.501961 0.803922 0.972549 
0.501961 0.803922 0.972549 0.501961 0.803922 0.972549 
0.501961 0.803922 0.972549 0.501961 0.803922 0.972549 
0.501961 0.803922 0.972549 0.501961 0.803922 0.972549 
0.501961 0.803922 0.972549 0.501961 0.803922 0.972549 
0.501961 0.803922 0.972549 0.501961 0.803922 0.972549 
0.501961 0.803922 0.972549 0.501961 0.803922 0.972549 
0.501961 0.803922 0.972549 0.501961 0.803922 0.972549 
0.501961 0.803922 0.972549 0.501961 0.803922 0.972549 
0.501961 0.803922 0.972549 0.501961 0.803922 0.972549 
0.501961 0.803922 0.972549 0.501961 0.803922 0.972549 
0.501961 0.803922 0.972549 0.501961 0.803922 0.972549 
0.501961 0.803922 0.972549 0.501961 0.803922 0.972549 
0.501961 0.803922 0.972549 0.501961 0.803922 0.972549 
0.501961 0.803922 0.972549 0.501961 0.803922 0.972549 
0.501961 0.803922 0.972549 0.501961 0.803922 0.972549 
0.501961 0.803922 0.972549 0.501961 0.803922 0.972549 
0.501961 0.803922 0.972549 0.501961 0.803922 0.972549 
0.501961 0.803922 0.972549 0.501961 0.803922 0.972549 
0.501961 0.803922 0.972549 0.501961 0.803922 0.972549 
0.501961 0.803922 0.972549 0.501961 0.803922 0.972549 
0.501961 0.803922 0.972549 0.501961 0.803922 0.972549 
0.501961 0.803922 0.972549 0.501961 0.803922 0.972549 
0.501961 0.803922 0.972549 0.501961 0.803922 0.972549 
0.501961 0.803922 0.972549 0.501961 0.803922 0.972549 
0.501961 0.803922 0.972549 0.501961 0.803922 0.972549 
0.501961 0.803922 0.972549 0.501961 0.803922 0.972549 
0.501961 0.803922 0.972549 0.501961 0.803922 0.972549 
0.501961 0.803922 0.972549 0.501961 0.803922 0.972549 
0.501961 0.803922 0.972549 0.501961 0.803922 0.972549 
0.501961 0.803922 0.972549 0.501961 0.803922 0.972549 
0.501961 0.803922 0.972549 0.501961 0.803922 0.972549 
0.501961 0.803922 0.972549 0.501961 0.803922 0.972549 
0.501961 0.803922 0.972549 0.501961 0.803922 0.972549 
0.501961 0.803922 0.972549 0.501961 0.803922 0.972549 
0.501961 0.803922 0.972549 0.501961 0.803922 0.972549 
0.501961 0.803922 0.972549 0.501961 0.803922 0.972549 
0.501961 0.803922 0.972549 0.501961 0.803922 0.972549 
0.501961 0.803922 0.972549 0.501961 0.803922 0.972549 
0.501961 0.803922 0.972549 0.501961 0.803922 0.972549 
0.501961 0.803922 0.972549 0.501961 0.803922 0.972549 
0.501961 0.803922 0.972549 0.501961 0.803922 0.972549 
0.501961 0.803922 0.972549 0.501961 0.803922 0.972549 
0.501961 0.803922 0.972549 0.501961 0.803922 0.972549 
0.501961 0.803922 0.972549 0.501961 0.803922 0.972549 
0.501961 0.803922 0.972549 0.501961 0.803922 0.972549 
0.501961 0.803922 0.972549 0.501961 0.803922 0.972549 
0.501961 0.803922 0.972549 0.501961 0.803922 0.972549 
0.501961 0.803922 0.972549 0.501961 0.803922 0.972549 
0.501961 0.803922 0.972549 0.501961 0.803922 0.972549 
0.501961 0.803922 0.972549 0.501961 0.803922 0.972549 
0.501961 0.803922 0.972549 0.501961 0.803922 0.972549 