# vtk DataFile Version 4.2
vtk output
ASCII
DATASET POLYDATA
POINTS 749 float
246.402 167.015 128.49 246.748 167.351 128.435 245.296 167.699 128.365 
246.151 168.222 128.133 245.33 168.818 128.124 244.773 168.947 128.291 
244.743 169.466 128.248 244.892 169.781 128.235 244.65 169.685 128.319 
245.66 169.922 128.138 245.979 169.76 128.127 245.478 170.217 128.273 
246.136 165.99 129.052 247.785 167.867 128.69 244.378 168.853 128.531 
247.996 168.839 128.805 247.057 170.866 128.791 245.665 165.166 129.807 
245.859 164.919 130.075 244.361 166.208 129.605 243.89 167.086 129.514 
249.174 168.465 129.753 248.502 171.616 130.108 247.579 172.038 129.807 
246.681 164.826 130.281 243.764 166.33 130.099 243.476 166.196 130.568 
249.659 166.685 130.778 249.342 167.406 130.046 249.799 167.059 130.781 
249.852 168.415 130.639 250.041 168.003 131.029 249.852 169.997 130.854 
244.099 171.812 130.317 245.729 172.398 129.98 247.185 172.512 130.109 
248.016 172.884 130.841 243.612 165.664 130.839 250.349 169.716 131.869 
243.309 171.746 131.583 249.466 171.872 131.254 245.16 173.179 131.2 
247.471 173.777 131.717 248.787 165.095 131.613 249.677 166.218 131.559 
242.38 167.733 131.849 250.272 167.694 132.143 242.481 169.795 131.973 
243.721 172.788 132.412 249.864 172.342 132.371 249.078 173.225 132.2 
246.653 174.262 132.422 248.252 174.155 132.753 245.142 163.34 132.685 
250.093 167.095 132.889 250.391 171.139 132.779 250.236 171.789 132.763 
249.378 173.428 132.824 246.343 174.728 133.588 242.952 163.172 133.494 
243.965 163.075 133.234 242.195 163.807 133.503 250.45 170.217 133.861 
244.054 173.811 134.181 250.011 173.184 133.876 244.962 174.43 134.181 
247.371 175.181 134.687 248.438 174.854 134.488 242.472 160.066 136.002 
242.817 159.991 136.118 243.656 160.368 136.01 243.869 161.394 134.943 
244.586 161.44 135.198 245.139 161.709 135.323 245.641 162.128 135.318 
246.524 163.031 134.997 249.337 166.884 135.045 239.754 167.12 135.283 
250.287 169.072 134.159 241.494 170.242 134.366 249.786 173.782 134.787 
246.712 175.367 135.7 248.026 175.176 135.404 242.431 159.837 136.228 
242.179 159.791 136.402 242.576 159.777 136.299 242.395 159.716 136.438 
242.643 159.778 136.46 243.408 160.135 136.249 243.587 160.255 136.482 
241.421 160.648 135.972 241.25 160.484 136.285 244.206 160.676 135.947 
245.162 161.662 136.21 240.155 161.834 136.047 239.356 163.62 135.949 
249.821 173.607 135.517 249.828 173.987 135.227 249.824 174.026 135.376 
245.828 175.23 135.928 249.012 174.663 135.097 249.705 174.076 135.394 
247.209 175.377 136.137 241.804 159.943 136.567 242.389 159.707 136.655 
242.178 159.75 136.906 241.365 160.221 136.562 245.13 162.079 137.16 
238.097 164.427 137.156 238.564 167.843 136.894 249.007 168.102 136.363 
241.766 172.394 136.559 249.767 173.978 135.529 249.458 174.088 135.984 
240.583 160.381 137.314 240.12 160.498 137.698 243.126 160.136 137.212 
239.765 160.794 137.63 247.555 167.295 138.05 249.465 173.331 136.693 
245.936 175.186 137.738 246.423 175.237 137.775 249.143 174.161 136.655 
246.777 175.297 137.399 247.804 174.971 137.199 240.125 160.285 138.58 
240.608 160.126 138.409 241.46 160.105 138.532 237.363 162.474 139.324 
236.411 166.331 138.903 248.74 172.645 137.957 242.457 173.937 139.311 
246.829 174.945 138.275 248.768 174.325 137.03 238.65 161.098 139.326 
241.383 160.659 139.718 237.752 161.597 139.765 247.462 172.328 139.607 
238.339 160.738 140.652 238.197 160.82 140.682 237.988 161.01 140.919 
237.672 161.279 140.709 239.121 160.702 140.077 240.902 161.135 140.784 
235.05 164.331 141.297 233.168 169.006 142.448 246.931 173.162 139.976 
245.268 174.52 140.039 238.298 160.798 140.796 237.862 161.164 141.394 
238.523 160.904 141.036 239.414 160.841 140.878 236.223 162.48 141.39 
232.856 169.894 142.882 232.411 169.919 143.308 233.935 170.443 142.455 
232.415 170.357 143.448 232.992 170.663 143.171 233.538 170.908 143.076 
237.25 171.934 141.352 245.632 171.696 141.83 246.482 173.454 140.31 
243.303 174.414 141.451 244.235 174.219 141.586 245.743 174.028 140.503 
239.027 161.48 142.481 232.323 169.189 143.344 232.306 170.562 143.752 
244.259 172.816 143.619 245.066 173.289 141.916 244.3 173.778 142.783 
235.36 162.491 143.38 232.502 171.003 144.13 230 173.009 144.017 
230 173.009 144.017 230 173.009 144.017 230 173.009 144.017 
230 173.009 144.017 244.213 173.438 143.424 239.855 174.998 143.752 
242.071 174.897 143.225 243.082 174.697 143.526 237.158 162.105 144.658 
233.326 164.19 144.45 239.748 164.142 145.098 231.525 169.957 145.588 
231.773 170.473 145.067 231.731 170.534 145.241 229 173.009 145.017 
229 173.009 145.017 229 173.009 145.017 230 173.009 144.017 
229 173.009 145.017 229 173.009 145.017 243.697 174.062 143.926 
242.119 175.279 144.538 242.802 174.869 144.408 231.777 170.561 145.461 
229 173.009 145.017 242.913 173.462 146.131 235.628 162.364 145.295 
237.344 163.653 146.884 231.467 166.078 146.689 242.432 175.219 146.192 
241.604 176.35 146.576 240.186 177.423 147.094 241.686 176.528 147.192 
234.511 163.113 146.94 231.658 165.495 147.945 230.379 167.486 148.545 
241.483 177.141 148.037 241.013 177.542 147.751 241.403 177.752 148.362 
238.074 178.256 148.767 239.691 178.156 147.926 240.256 178.334 148.187 
241.107 178.233 148.707 238.599 178.426 148.605 240.787 178.612 148.77 
234.146 163.625 147.733 230.421 166.906 149.123 241.43 177.658 148.407 
241.308 177.814 148.858 237.941 178.533 149.592 238.331 178.859 149.78 
239.335 179.266 149.549 240.356 179.342 149.372 231.084 166.079 149.312 
230.592 166.578 149.364 229.668 168.254 150.177 238.984 169.747 149.643 
241.311 176.928 149.277 241.274 177.458 149.296 241.096 177.724 149.688 
237.426 178.118 150.546 241.064 178.461 149.448 238.412 178.997 150.42 
239.793 179.579 149.795 240.193 179.607 149.721 239.76 179.689 150.125 
240.64 179.621 149.943 234.854 165.23 149.854 240.155 175.28 150.615 
240.846 176.968 150.026 240.407 177.95 150.565 237.868 178.431 150.947 
238.596 179.091 150.5 240.593 178.958 150.375 239.689 179.649 150.371 
240.762 179.384 149.984 240.623 179.853 150.279 240.115 179.813 150.319 
240.474 179.993 150.347 240.392 179.965 150.453 240.661 180.159 150.464 
240.549 180.097 150.458 240.62 180.14 150.478 231.953 165.882 151.329 
230.867 166.378 151.63 228.855 168.441 152.147 228.776 168.63 152.373 
237.868 170.77 151.464 233.409 173.782 151.751 236.007 176.33 151.92 
237.608 177.845 151.641 237.961 178.166 151.535 239.827 178.607 150.971 
239.187 178.931 150.998 240.401 179.294 150.541 240.203 179.652 150.559 
240.526 179.757 150.454 230.029 166.943 152.624 232.046 166.465 152.345 
233.709 167.558 152.896 228.358 168.548 153.611 235.711 169.228 152.643 
228.628 169.586 153.293 236.087 176.207 152.339 236.279 176.512 152.093 
237.074 177.038 152.075 237.985 177.882 151.762 238.339 178.004 151.716 
230.035 167.044 153.179 229.553 167.272 153.154 230.847 166.903 153.227 
232.528 167.713 153.766 228.388 168.295 153.775 228.389 168.214 154.123 
228.124 168.959 154.496 228.429 169.404 153.683 229.297 170.761 154.008 
232.891 173.535 153.609 236.858 173.906 153.359 234.973 174.961 153.175 
236.093 175.88 152.735 238.201 177.43 151.969 230.397 167.116 153.548 
228.749 167.996 154.737 229.798 167.471 154.128 230.863 167.688 154.519 
227.979 169.143 155.216 233.273 169.784 154.881 228.567 170.041 154.553 
234.154 170.701 154.725 232.837 173.351 154.809 235.835 174.57 153.778 
236.23 175.337 153.219 237.016 175.397 153.044 228.673 168.17 155.299 
229.814 167.785 154.798 230.092 168.066 155.2 228.399 168.451 155.725 
228.056 168.692 155.48 227.81 169.01 155.754 227.704 169.113 156.059 
230.958 172.065 155.309 232.483 172.982 155.25 234.898 173.764 154.564 
233.193 173.523 154.889 233.629 173.733 154.728 234.129 173.892 154.631 
234.926 174.151 154.332 228.33 168.628 156.132 228.067 168.764 156.126 
228.679 168.519 156.01 227.816 168.989 156.42 227.679 169.137 156.365 
227.726 169.308 156.137 232.131 172.216 155.997 231.672 172.437 155.738 
232.859 172.826 155.51 233.293 173.301 155.294 233.744 173.404 155.053 
233.445 173.485 155.13 233.273 173.469 155.121 227.801 169.06 156.619 
227.726 169.117 156.684 227.692 169.112 156.597 228.223 168.77 156.306 
227.86 169.138 156.668 227.678 169.226 156.574 228.168 169.014 156.504 
229.609 169.53 156.615 227.712 169.342 156.434 227.843 169.506 156.47 
228.395 169.951 156.314 228.824 170.158 156.411 230.839 171.049 156.392 
229.233 170.47 156.298 229.906 170.731 156.352 231.535 171.998 156.189 
231.862 172.279 156.155 231.768 172.298 156.16 231.886 172.422 156.07 
233.286 173.404 155.253 227.76 169.209 156.669 227.811 169.368 156.595 
228.087 169.35 156.638 229.205 169.454 156.622 229.574 169.785 156.656 
229.197 170.187 156.521 229.658 170.175 156.592 231.097 171.653 156.36 
231.879 172.373 156.151 227.743 169.078 298.461 227.623 169.041 298.463 
227.629 169.12 298.492 227.783 169.247 298.453 227.659 169.248 298.537 
227.903 168.905 298.668 228.144 169.21 298.491 229.324 169.39 298.513 
229.601 169.154 298.67 227.78 169.381 298.527 228.034 169.472 298.497 
229.667 169.762 298.502 229.023 170.042 298.541 231.149 171.535 298.726 
231.371 171.63 298.763 231.955 172.201 298.903 231.989 172.288 299.008 
232.047 172.271 298.928 232.093 172.176 298.958 232.178 172.333 299.04 
227.929 168.685 299.041 228.588 168.509 299.002 228.863 168.301 299.238 
227.727 168.898 298.955 227.633 169.14 298.728 229.97 169.254 298.741 
227.933 169.587 299.012 229.016 170.491 299.099 230.894 170.501 298.731 
231.722 171.979 298.922 231.651 171.5 298.846 232.198 171.85 299.041 
231.324 171.989 299.142 232.501 172.3 299.208 232.297 172.524 299.334 
233.388 173.315 299.874 233.482 173.339 299.78 233.385 173.227 299.731 
233.52 173.264 299.769 228.991 167.985 299.714 227.743 168.931 299.338 
227.667 169.076 299.052 231.483 170.414 298.977 232.998 170.979 299.546 
229.267 170.769 299.614 231.493 172.361 299.789 233.171 172.885 299.676 
228.412 168.02 300.117 229.303 167.379 300.999 230.647 167.457 300.581 
[...]
POINT_DATA 749
COLOR_SCALARS scalars 3
0.521569 0.6 0.8 0.521569 0.6 0.8 0.521569 0.6 0.8 
0.521569 0.6 0.8 0.521569 0.6 0.8 
0.521569 0.6 0.8 0.521569 0.6 0.8 
0.521569 0.6 0.8 0.521569 0.6 0.8 
0.521569 0.6 0.8 0.521569 0.6 0.8 
0.521569 0.6 0.8 0.521569 0.6 0.8 
0.521569 0.6 0.8 0.521569 0.6 0.8 
0.521569 0.6 0.8 0.521569 0.6 0.8 
0.521569 0.6 0.8 0.521569 0.6 0.8 
0.521569 0.6 0.8 0.521569 0.6 0.8 
0.521569 0.6 0.8 0.521569 0.6 0.8 
0.521569 0.6 0.8 0.521569 0.6 0.8 
0.521569 0.6 0.8 0.521569 0.6 0.8 
0.521569 0.6 0.8 0.521569 0.6 0.8 
0.521569 0.6 0.8 0.521569 0.6 0.8 
0.521569 0.6 0.8 0.521569 0.6 0.8 
0.521569 0.6 0.8 0.521569 0.6 0.8 
0.521569 0.6 0.8 0.521569 0.6 0.8 
0.521569 0.6 0.8 0.521569 0.6 0.8 
0.521569 0.6 0.8 0.521569 0.6 0.8 
0.521569 0.6 0.8 0.521569 0.6 0.8 
0.521569 0.6 0.8 0.521569 0.6 0.8 
0.521569 0.6 0.8 0.521569 0.6 0.8 
0.521569 0.6 0.8 0.521569 0.6 0.8 
0.521569 0.6 0.8 0.521569 0.6 0.8 
0.521569 0.6 0.8 0.521569 0.6 0.8 
0.521569 0.6 0.8 0.521569 0.6 0.8 
0.521569 0.6 0.8 0.521569 0.6 0.8 
0.521569 0.6 0.8 0.521569 0.6 0.8 
0.521569 0.6 0.8 0.521569 0.6 0.8 
0.521569 0.6 0.8 0.521569 0.6 0.8 
0.521569 0.6 0.8 0.521569 0.6 0.8 
0.521569 0.6 0.8 0.521569 0.6 0.8 
0.521569 0.6 0.8 0.521569 0.6 0.8 
0.521569 0.6 0.8 0.521569 0.6 0.8 
0.521569 0.6 0.8 0.521569 0.6 0.8 
0.521569 0.6 0.8 0.521569 0.6 0.8 
0.521569 0.6 0.8 0.521569 0.6 0.8 
0.521569 0.6 0.8 0.521569 0.6 0.8 
0.521569 0.6 0.8 0.521569 0.6 0.8 
0.521569 0.6 0.8 0.521569 0.6 0.8 
0.521569 0.6 0.8 0.521569 0.6 0.8 
0.521569 0.6 0.8 0.521569 0.6 0.8 
0.521569 0.6 0.8 0.521569 0.6 0.8 
0.521569 0.6 0.8 0.521569 0.6 0.8 
0.521569 0.6 0.8 0.521569 0.6 0.8 
0.521569 0.6 0.8 0.521569 0.6 0.8 
0.521569 0.6 0.8 0.521569 0.6 0.8 
0.521569 0.6 0.8 0.521569 0.6 0.8 
0.521569 0.6 0.8 0.521569 0.6 0.8 
0.521569 0.6 0.8 0.521569 0.6 0.8 
0.521569 0.6 0.8 0.521569 0.6 0.8 
0.521569 0.6 0.8 0.521569 0.6 0.8 
0.521569 0.6 0.8 0.521569 0.6 0.8 
0.521569 0.6 0.8 0.521569 0.6 0.8 
0.521569 0.6 0.8 0.521569 0.6 0.8 
0.521569 0.6 0.8 0.521569 0.6 0.8 
0.521569 0.6 0.8 0.521569 0.6 0.8 
0.521569 0.6 0.8 0.521569 0.6 0.8 
0.521569 0.6 0.8 0.521569 0.6 0.8 
0.521569 0.6 0.8 0.521569 0.6 0.8 
0.521569 0.6 0.8 0.521569 0.6 0.8 
0.521569 0.6 0.8 0.521569 0.6 0.8 
0.521569 0.6 0.8 0.521569 0.6 0.8 
0.521569 0.6 0.8 0.521569 0.6 0.8 
0.521569 0.6 0.8 0.521569 0.6 0.8 
0.521569 0.6 0.8 0.521569 0.6 0.8 
0.521569 0.6 0.8 0.521569 0.6 0.8 
0.521569 0.6 0.8 0.521569 0.6 0.8 
0.521569 0.6 0.8 0.521569 0.6 0.8 
0.521569 0.6 0.8 0.521569 0.6 0.8 
0.521569 0.6 0.8 0.521569 0.6 0.8 
0.521569 0.6 0.8 0.521569 0.6 0.8 
0.521569 0.6 0.8 0.521569 0.6 0.8 
0.521569 0.6 0.8 0.521569 0.6 0.8 
0.521569 0.6 0.8 0.521569 0.6 0.8 
0.521569 0.6 0.8 0.521569 0.6 0.8 
0.521569 0.6 0.8 0.521569 0.6 0.8 
0.521569 0.6 0.8 0.521569 0.6 0.8 
0.521569 0.6 0.8 0.521569 0.6 0.8 
0.521569 0.6 0.8 0.521569 0.6 0.8 
0.521569 0.6 0.8 0.521569 0.6 0.8 
0.521569 0.6 0.8 0.521569 0.6 0.8 
0.521569 0.6 0.8 0.521569 0.6 0.8 
0.521569 0.6 0.8 0.521569 0.6 0.8 
0.521569 0.6 0.8 0.521569 0.6 0.8 
0.521569 0.6 0.8 0.521569 0.6 0.8 
0.521569 0.6 0.8 0.521569 0.6 0.8 
0.521569 0.6 0.8 0.521569 0.6 0.8 
0.521569 0.6 0.8 0.521569 0.6 0.8 
0.521569 0.6 0.8 0.521569 0.6 0.8 
0.521569 0.6 0.8 0.521569 0.6 0.8 
0.521569 0.6 0.8 0.521569 0.6 0.8 
0.521569 0.6 0.8 0.521569 0.6 0.8 
0.521569 0.6 0.8 0.521569 0.6 0.8 
0.521569 0.6 0.8 0.521569 0.6 0.8 
0.521569 0.6 0.8 0.521569 0.6 0.8 
0.521569 0.6 0.8 0.521569 0.6 0.8 
0.521569 0.6 0.8 0.521569 0.6 0.8 
0.521569 0.6 0.8 0.521569 0.6 0.8 
0.521569 0.6 0.8 0.521569 0.6 0.8 
0.521569 0.6 0.8 0.521569 0.6 0.8 
0.521569 0.6 0.8 0.521569 0.6 0.8 
0.521569 0.6 0.8 0.521569 0.6 0.8 
0.521569 0.6 0.8 0.521569 0.6 0.8 
0.521569 0.6 0.8 0.521569 0.6 0.8 
0.521569 0.6 0.8 0.521569 0.6 0.8 
0.521569 0.6 0.8 0.521569 0.6 0.8 
0.521569 0.6 0.8 0.521569 0.6 0.8 
0.521569 0.6 0.8 0.521569 0.6 0.8 
0.521569 0.6 0.8 0.521569 0.6 0.8 
0.521569 0.6 0.8 0.521569 0.6 0.8 
0.521569 0.6 0.8 0.521569 0.6 0.8 
0.521569 0.6 0.8 0.521569 0.6 0.8 
0.521569 0.6 0.8 0.521569 0.6 0.8 
0.521569 0.6 0.8 0.521569 0.6 0.8 
0.521569 0.6 0.8 0.521569 0.6 0.8 
0.521569 0.6 0.8 0.521569 0.6 0.8 
0.521569 0.6 0.8 0.521569 0.6 0.8 
0.521569 0.6 0.8 0.521569 0.6 0.8 
0.521569 0.6 0.8 0.521569 0.6 0.8 
0.521569 0.6 0.8 0.521569 0.6 0.8 
0.521569 0.6 0.8 0.521569 0.6 0.8 
0.521569 0.6 0.8 0.521569 0.6 0.8 
0.521569 0.6 0.8 0.521569 0.6 0.8 
0.521569 0.6 0.8 0.521569 0.6 0.8 
0.521569 0.6 0.8 0.521569 0.6 0.8 
0.521569 0.6 0.8 0.521569 0.6 0.8 
0.521569 0.6 0.8 0.521569 0.6 0.8 
0.521569 0.6 0.8 0.521569 0.6 0.8 
0.521569 0.6 0.8 0.521569 0.6 0.8 
0.521569 0.6 0.8 0.521569 0.6 0.8 
0.521569 0.6 0.8 0.521569 0.6 0.8 
0.521569 0.6 0.8 0.521569 0.6 0.8 
0.521569 0.6 0.8 0.521569 0.6 0.8 
0.521569 0.6 0.8 0.521569 0.6 0.8 
0.521569 0.6 0.8 0.521569 0.6 0.8 
0.521569 0.6 0.8 0.521569 0.6 0.8 
0.521569 0.6 0.8 0.521569 0.6 0.8 
0.521569 0.6 0.8 0.521569 0.6 0.8 
0.521569 0.6 0.8 0.521569 0.6 0.8 
0.521569 0.6 0.8 0.521569 0.6 0.8 
0.521569 0.6 0.8 0.521569 0.6 0.8 
0.521569 0.6 0.8 0.521569 0.6 0.8 
0.521569 0.6 0.8 0.521569 0.6 0.8 
0.521569 0.6 0.8 0.521569 0.6 0.8 
0.521569 0.6 0.8 0.521569 0.6 0.8 
0.521569 0.6 0.8 0.521569 0.6 0.8 
0.521569 0.6 0.8 0.521569 0.6 0.8 
0.521569 0.6 0.8 0.521569 0.6 0.8 
0.521569 0.6 0.8 0.521569 0.6 0.8 
0.521569 0.6 0.8 0.521569 0.6 0.8 
0.521569 0.6 0.8 0.521569 0.6 0.8 
0.521569 0.6 0.8 0.521569 0.6 0.8 
0.521569 0.6 0.8 0.521569 0.6 0.8 
0.521569 0.6 0.8 0.521569 0.6 0.8 
0.521569 0.6 0.8 0.521569 0.6 0.8 
0.521569 0.6 0.8 0.521569 0.6 0.8 
0.521569 0.6 0.8 0.521569 0.6 0.8 
0.521569 0.6 0.8 0.521569 0.6 0.8 
0.521569 0.6 0.8 0.521569 0.6 0.8 
0.521569 0.6 0.8 0.521569 0.6 0.8 
0.521569 0.6 0.8 0.521569 0.6 0.8 
0.521569 0.6 0.8 0.521569 0.6 0.8 
0.521569 0.6 0.8 0.521569 0.6 0.8 
0.521569 0.6 0.8 0.521569 0.6 0.8 
0.521569 0.6 0.8 0.521569 0.6 0.8 
0.521569 0.6 0.8 0.521569 0.6 0.8 
0.521569 0.6 0.8 0.521569 0.6 0.8 
0.521569 0.6 0.8 0.521569 0.6 0.8 
0.521569 0.6 0.8 0.521569 0.6 0.8 
0.521569 0.6 0.8 0.521569 0.6 0.8 
0.521569 0.6 0.8 0.521569 0.6 0.8 
0.521569 0.6 0.8 0.521569 0.6 0.8 
0.521569 0.6 0.8 0.521569 0.6 0.8 
0.521569 0.6 0.8 0.521569 0.6 0.8 
0.521569 0.6 0.8 0.521569 0.6 0.8 
0.521569 0.6 0.8 0.521569 0.6 0.8 
0.521569 0.6 0.8 0.521569 0.6 0.8 
0.521569 0.6 0.8 0.521569 0.6 0.8 
0.521569 0.6 0.8 0.521569 0.6 0.8 
0.521569 0.6 0.8 0.521569 0.6 0.8 
0.521569 0.6 0.8 0.521569 0.6 0.8 
0.521569 0.6 0.8 0.521569 0.6 0.8 
0.521569 0.6 0.8 0.521569 0.6 0.8 
0.521569 0.6 0.8 0.521569 0.6 0.8 
0.521569 0.6 0.8 0.521569 0.6 0.8 
0.521569 0.6 0.8 0.521569 0.6 0.8 
0.521569 0.6 0.8 0.521569 0.6 0.8 
0.521569 0.6 0.8 0.521569 0.6 0.8 
0.521569 0.6 0.8 0.521569 0.6 0.8 
0.521569 0.6 0.8 0.521569 0.6 0.8 
0.521569 0.6 0.8 0.521569 0.6 0.8 
0.521569 0.6 0.8 0.521569 0.6 0.8 
0.521569 0.6 0.8 0.521569 0.6 0.8 
0.521569 0.6 0.8 0.521569 0.6 0.8 
0.521569 0.6 0.8 0.521569 0.6 0.8 
0.521569 0.6 0.8 0.521569 0.6 0.8 
0.521569 0.6 0.8 0.521569 0.6 0.8 
0.521569 0.6 0.8 0.521569 0.6 0.8 
0.521569 0.6 0.8 0.521569 0.6 0.8 
0.521569 0.6 0.8 0.521569 0.6 0.8 
0.521569 0.6 0.8 0.521569 0.6 0.8 
0.521569 0.6 0.8 0.521569 0.6 0.8 
0.521569 0.6 0.8 0.521569 0.6 0.8 
0.521569 0.6 0.8 0.521569 0.6 0.8 
0.521569 0.6 0.8 0.521569 0.6 0.8 
0.521569 0.6 0.8 0.521569 0.6 0.8 
0.521569 0.6 0.8 0.521569 0.6 0.8 
0.521569 0.6 0.8 0.521569 0.6 0.8 
0.521569 0.6 0.8 0.521569 0.6 0.8 
0.521569 0.6 0.8 0.521569 0.6 0.8 
0.521569 0.6 0.8 0.521569 0.6 0.8 
0.521569 0.6 0.8 0.521569 0.6 0.8 
0.521569 0.6 0.8 0.521569 0.6 0.8 
0.521569 0.6 0.8 0.521569 0.6 0.8 
0.521569 0.6 0.8 0.521569 0.6 0.8 
0.521569 0.6 0.8 0.521569 0.6 0.8 
0.521569 0.6 0.8 0.521569 0.6 0.8 
0.521569 0.6 0.8 0.521569 0.6 0.8 
0.521569 0.6 0.8 0.521569 0.6 0.8 
0.521569 0.6 0.8 0.521569 0.6 0.8 
0.521569 0.6 0.8 0.521569 0.6 0.8 
0.521569 0.6 0.8 0.521569 0.6 0.8 
0.521569 0.6 0.8 0.521569 0.6 0.8 
0.521569 0.6 0.8 0.521569 0.6 0.8 
0.521569 0.6 0.8 0.521569 0.6 0.8 
0.521569 0.6 0.8 0.521569 0.6 0.8 
0.521569 0.6 0.8 0.521569 0.6 0.8 
0.521569 0.6 0.8 0.521569 0.6 0.8 
0.521569 0.6 0.8 0.521569 0.6 0.8 
0.521569 0.6 0.8 0.521569 0.6 0.8 
0.521569 0.6 0.8 0.521569 0.6 0.8 
0.521569 0.6 0.8 0.521569 0.6 0.8 
0.521569 0.6 0.8 0.521569 0.6 0.8 
0.521569 0.6 0.8 0.521569 0.6 0.8 
0.521569 0.6 0.8 0.521569 0.6 0.8 
0.521569 0.6 0.8 0.521569 0.6 0.8 
0.521569 0.6 0.8 0.521569 0.6 0.8 
0.521569 0.6 0.8 0.521569 0.6 0.8 
0.521569 0.6 0.8 0.521569 0.6 0.8 
0.521569 0.6 0.8 0.521569 0.6 0.8 
0.521569 0.6 0.8 0.521569 0.6 0.8 
0.521569 0.6 0.8 0.521569 0.6 0.8 
0.521569 0.6 0.8 0.521569 0.6 0.8 
0.521569 0.6 0.8 0.521569 0.6 0.8 
0.521569 0.6 0.8 0.521569 0.6 0.8 
0.521569 0.6 0.8 0.521569 0.6 0.8 
0.521569 0.6 0.8 0.521569 0.6 0.8 
0.521569 0.6 0.8 0.521569 0.6 0.8 
0.521569 0.6 0.8 0.521569 0.6 0.8 
0.521569 0.6 0.8 0.521569 0.6 0.8 
0.521569 0.6 0.8 0.521569 0.6 0.8 
0.521569 0.6 0.8 0.521569 0.6 0.8 
0.521569 0.6 0.8 0.521569 0.6 0.8 
0.521569 0.6 0.8 0.521569 0.6 0.8 
0.521569 0.6 0.8 0.521569 0.6 0.8 
0.521569 0.6 0.8 0.521569 0.6 0.8 
0.521569 0.6 0.8 0.521569 0.6 0.8 
0.521569 0.6 0.8 0.521569 0.6 0.8 
0.521569 0.6 0.8 0.521569 0.6 0.8 
0.521569 0.6 0.8 0.521569 0.6 0.8 
0.521569 0.6 0.8 0.521569 0.6 0.8 
0.521569 0.6 0.8 0.521569 0.6 0.8 
0.521569 0.6 0.8 0.521569 0.6 0.8 
0.521569 0.6 0.8 0.521569 0.6 0.8 
0.521569 0.6 0.8 0.521569 0.6 0.8 
0.521569 0.6 0.8 0.521569 0.6 0.8 
0.521569 0.6 0.8 0.521569 0.6 0.8 
0.521569 0.6 0.8 0.521569 0.6 0.8 
0.521569 0.6 0.8 0.521569 0.6 0.8 
0.521569 0.6 0.8 0.521569 0.6 0.8 
0.521569 0.6 0.8 0.521569 0.6 0.8 
0.521569 0.6 0.8 0.521569 0.6 0.8 
0.521569 0.6 0.8 0.521569 0.6 0.8 
0.521569 0.6 0.8 0.521569 0.6 0.8 
0.521569 0.6 0.8 0.521569 0.6 0.8 
0.521569 0.6 0.8 0.521569 0.6 0.8 
0.521569 0.6 0.8 0.521569 0.6 0.8 
0.521569 0.6 0.8 0.521569 0.6 0.8 
0.521569 0.6 0.8 0.521569 0.6 0.8 
0.521569 0.6 0.8 0.521569 0.6 0.8 
0.521569 0.6 0.8 0.521569 0.6 0.8 
0.521569 0.6 0.8 0.521569 0.6 0.8 
0.521569 0.6 0.8 0.521569 0.6 0.8 
0.521569 0.6 0.8 0.521569 0.6 0.8 
0.521569 0.6 0.8 0.521569 0.6 0.8 
0.521569 0.6 0.8 0.521569 0.6 0.8 
0.521569 0.6 0.8 0.521569 0.6 0.8 
0.521569 0.6 0.8 0.521569 0.6 0.8 
0.521569 0.6 0.8 0.521569 0.6 0.8 
0.521569 0.6 0.8 0.521569 0.6 0.8 
0.521569 0.6 0.8 0.521569 0.6 0.8 
0.521569 0.6 0.8 0.521569 0.6 0.8 
0.521569 0.6 0.8 0.521569 0.6 0.8 
0.521569 0.6 0.8 0.521569 0.6 0.8 
0.521569 0.6 0.8 0.521569 0.6 0.8 
0.521569 0.6 0.8 0.521569 0.6 0.8 
0.521569 0.6 0.8 0.521569 0.6 0.8 
0.521569 0.6 0.8 0.521569 0.6 0.8 
0.521569 0.6 0.8 0.521569 0.6 0.8 
0.521569 0.6 0.8 0.521569 0.6 0.8 
0.521569 0.6 0.8 0.521569 0.6 0.8 
0.521569 0.6 0.8 0.521569 0.6 0.8 
0.521569 0.6 0.8 0.521569 0.6 0.8 
0.521569 0.6 0.8 0.521569 0.6 0.8 
0.521569 0.6 0.8 0.521569 0.6 0.8 
0.521569 0.6 0.8 0.521569 0.6 0.8 
0.521569 0.6 0.8 0.521569 0.6 0.8 
0.521569 0.6 0.8 0.521569 0.6 0.8 
0.521569 0.6 0.8 0.521569 0.6 0.8 
0.521569 0.6 0.8 0.521569 0.6 0.8 
0.521569 0.6 0.8 0.521569 0.6 0.8 
0.521569 0.6 0.8 0.521569 0.6 0.8 
0.521569 0.6 0.8 0.521569 0.6 0.8 
0.521569 0.6 0.8 0.521569 0.6 0.8 
0.521569 0.6 0.8 0.521569 0.6 0.8 
0.521569 0.6 0.8 0.521569 0.6 0.8 
0.521569 0.6 0.8 0.521569 0.6 0.8 
0.521569 0.6 0.8 0.521569 0.6 0.8 
0.521569 0.6 0.8 0.521569 0.6 0.8 
0.521569 0.6 0.8 0.521569 0.6 0.8 
0.521569 0.6 0.8 0.521569 0.6 0.8 
0.521569 0.6 0.8 0.521569 0.6 0.8 
0.521569 0.6 0.8 0.521569 0.6 0.8 
0.521569 0.6 0.8 0.521569 0.6 0.8 
0.521569 0.6 0.8 0.521569 0.6 0.8 
0.521569 0.6 0.8 0.521569 0.6 0.8 
0.521569 0.6 0.8 0.521569 0.6 0.8 
0.521569 0.6 0.8 0.521569 0.6 0.8 
0.521569 0.6 0.8 0.521569 0.6 0.8 
0.521569 0.6 0.8 0.521569 0.6 0.8 
0.521569 0.6 0.8 0.521569 0.6 0.8 
0.521569 0.6 0.8 0.521569 0.6 0.8 
0.521569 0.6 0.8 0.521569 0.6 0.8 
0.521569 0.6 0.8 0.521569 0.6 0.8 
0.521569 0.6 0.8 0.521569 0.6 0.8 
0.521569 0.6 0.8 0.521569 0.6 0.8 
0.521569 0.6 0.8 0.521569 0.6 0.8 
0.521569 0.6 0.8 0.521569 0.6 0.8 
0.521569 0.6 0.8 0.521569 0.6 0.8 
0.521569 0.6 0.8 0.521569 0.6 0.8 
0.521569 0.6 0.8 0.521569 0.6 0.8 
0.521569 0.6 0.8 0.521569 0.6 0.8 
0.521569 0.6 0.8 0.521569 0.6 0.8 
0.521569 0.6 0.8 0.521569 0.6 0.8 
0.521569 0.6 0.8 0.521569 0.6 0.8 
0.521569 0.6 0.8 0.521569 0.6 0.8 
0.521569 0.6 0.8 0.521569 0.6 0.8 
0.521569 0.6 0.8 0.521569 0.6 0.8 
0.521569 0.6 0.8 0.521569 0.6 0.8 
0.521569 0.6 0.8 0.521569 0.6 0.8 
0.521569 0.6 0.8 0.521569 0.6 0.8 
0.521569 0.6 0.8 0.521569 0.6 0.8 
0.521569 0.6 0.8 0.521569 0.6 0.8 
0.521569 0.6 0.8 0.521569 0.6 0.8 
0.521569 0.6 0.8 0.521569 0.6 0.8 
0.521569 0.6 0.8 0.521569 0.6 0.8 
0.521569 0.6 0.8 0.521569 0.6 0.8 
0.521569 0.6 0.8 0.521569 0.6 0.8 
0.521569 0.6 0.8 0.521569 0.6 0.8 
0.521569 0.6 0.8 0.521569 0.6 0.8 
0.521569 0.6 0.8 0.521569 0.6 0.8 
0.521569 0.6 0.8 0.521569 0.6 0.8 
0.521569 0.6 0.8 0.521569 0.6 0.8 
0.521569 0.6 0.8 0.521569 0.6 0.8 
0.521569 0.6 0.8 0.521569 0.6 0.8 
0.521569 0.6 0.8 0.521569 0.6 0.8 
0.521569 0.6 0.8 0.521569 0.6 0.8 
0.521569 0.6 0.8 0.521569 0.6 0.8 
0.521569 0.6 0.8 0.521569 0.6 0.8 
0.521569 0.6 0.8 0.521569 0.6 0.8 
0.521569 0.6 0.8 0.521569 0.6 0.8 
0.521569 0.6 0.8 0.521569 0.6 0.8 

NORMALS Normals float
0.195826 -0.441808 -0.875476 0.234132 -0.361535 -0.902483 -0.235213 -0.312637 -0.92029 
0.105379 -0.10767 -0.988586 -0.235989 -0.21581 -0.947489 -0.495488 -0.196665 -0.846058 
-0.340481 0.00681981 -0.940227 -0.26085 0.215765 -0.940958 -0.70614 0.280258 -0.650247 
-0.0142176 0.249747 -0.968207 0.0803833 0.142183 -0.986571 -0.122838 0.551836 -0.824857 
-0.109368 -0.525967 -0.843444 0.482656 -0.316477 -0.816631 -0.569696 -0.210163 -0.79453 
0.488809 0.110043 -0.865423 0.389645 0.355815 -0.849454 -0.218382 -0.7125 -0.666823 
-0.0412554 -0.797143 -0.60238 -0.502058 -0.513014 -0.696243 -0.727272 -0.222161 -0.6494 
0.74751 0.0609248 -0.661451 0.57273 0.496941 -0.651943 0.267744 0.616078 -0.740784 
0.255237 -0.693365 -0.673869 -0.738043 -0.360801 -0.570188 -0.75335 -0.415597 -0.50965 
0.683798 -0.484715 -0.54541 0.698464 -0.237962 -0.674924 0.885277 -0.189701 -0.424615 
0.896897 0.0681208 -0.436961 0.954424 0.0234586 -0.297531 0.807285 0.194251 -0.557277 
-0.634528 0.524302 -0.567875 -0.119318 0.714016 -0.689887 0.229776 0.723657 -0.650786 
0.323714 0.736279 -0.594224 -0.59605 -0.539203 -0.594966 0.96492 0.0217907 -0.261637 
-0.775903 0.517356 -0.360995 0.665356 0.458914 -0.588812 -0.441521 0.764621 -0.469483 
0.145051 0.805934 -0.57396 0.731476 -0.665831 -0.14701 0.881253 -0.451704 -0.139127 
-0.850795 -0.0537012 -0.522747 0.986835 -0.114952 -0.113763 -0.883239 0.244479 -0.400149 
-0.699643 0.645209 -0.30693 0.794771 0.455869 -0.400652 0.528253 0.616603 -0.583738 
-0.171252 0.878018 -0.446942 0.344229 0.795166 -0.499217 -0.236784 -0.735912 -0.634324 
0.908445 -0.372933 0.18881 0.970641 0.169679 -0.170484 0.940733 0.277108 -0.19553 
0.690601 0.629693 -0.355748 -0.187527 0.891241 -0.412945 -0.370333 -0.513786 -0.773872 
-0.134471 -0.604849 -0.784905 -0.387747 -0.523555 -0.758645 0.981614 0.0347883 0.187681 
-0.587236 0.743449 -0.320059 0.907549 0.396231 -0.139129 -0.477669 0.842623 -0.248634 
0.156776 0.954027 -0.255449 0.472383 0.834746 -0.282937 -0.0871143 -0.640628 -0.762894 
0.253137 -0.775022 -0.579018 0.366985 -0.787514 -0.495119 0.0722498 -0.691258 -0.718987 
0.305589 -0.767257 -0.563855 0.597512 -0.715048 -0.362885 0.70262 -0.681288 -0.205359 
0.773848 -0.632668 0.029827 0.83327 -0.444754 0.328413 -0.768504 0.235905 -0.594769 
0.970055 -0.135112 0.201836 -0.843135 0.379995 -0.38043 0.828078 0.517111 -0.216524 
-0.0942332 0.982571 -0.160229 0.34937 0.936867 0.014852 -0.105651 -0.758872 -0.642612 
-0.370083 -0.789915 -0.488951 0.205767 -0.886704 -0.414025 -0.117047 -0.975881 -0.184271 
0.376754 -0.921847 -0.090856 0.45045 -0.889999 -0.0706902 0.583055 -0.809799 0.0653612 
-0.445461 -0.600278 -0.664252 -0.60143 -0.581175 -0.548194 0.571386 -0.793858 -0.208103 
0.725742 -0.673212 0.141721 -0.597294 -0.522573 -0.608406 -0.697091 -0.312251 -0.645417 
0.969478 0.0315083 0.243146 0.848981 -0.505381 0.154343 0.922155 0.34546 0.174033 
-0.317757 0.947768 -0.0276731 0.52461 0.842722 -0.120846 0.548594 0.829394 0.105596 
0.145218 0.984387 0.0994659 -0.462127 -0.863251 -0.203065 0.258544 -0.943808 0.205869 
-0.319396 -0.946816 0.039075 -0.415596 -0.870982 -0.26205 0.761726 -0.498431 0.413933 
-0.77923 -0.18188 -0.599767 -0.719354 0.25164 -0.647462 0.857179 -0.193192 0.47741 
-0.657056 0.664971 -0.355092 0.759715 0.486105 0.431897 0.828703 0.41358 0.377099 
-0.586661 -0.691318 -0.421792 -0.497518 -0.795977 -0.344814 0.558287 -0.757554 0.338272 
-0.674737 -0.605149 -0.422523 0.753982 -0.266454 0.600427 0.885354 0.1455 0.441563 
-0.282444 0.95524 0.0879916 -0.00611823 0.94016 0.340678 0.768185 0.510937 0.385791 
0.16288 0.969483 0.18323 0.496087 0.779633 0.382192 -0.362521 -0.931537 0.0285678 
-0.266197 -0.963363 -0.0327244 0.00401032 -0.964958 0.262373 -0.745603 -0.496576 -0.444396 
-0.738855 -0.0109022 -0.673777 0.796462 0.189975 0.574071 -0.249227 0.929816 -0.270793 
0.381019 0.805041 0.45468 0.644076 0.571313 0.508692 -0.548592 -0.770028 -0.325735 
0.342341 -0.825566 0.448601 -0.646521 -0.664691 -0.374429 0.757038 -0.00572169 0.653346 
-0.300188 -0.953673 -0.0198935 -0.57272 -0.818935 -0.0365686 -0.484296 -0.83979 0.245378 
-0.703132 -0.698522 -0.13294 -0.157878 -0.985749 0.0580883 0.544507 -0.584423 0.601633 
-0.777212 -0.369961 -0.508989 -0.631632 0.0757552 -0.771559 0.709929 0.259071 0.654892 
0.331086 0.873469 0.356978 -0.306753 -0.873145 0.378842 -0.415941 -0.901474 0.119739 
-0.0293456 -0.894588 0.445928 0.043117 -0.903262 0.426917 -0.749915 -0.535431 -0.388512 
-0.580712 0.228409 -0.781411 -0.76223 0.189408 -0.618975 -0.445061 0.518527 -0.730103 
-0.635387 0.456575 -0.622754 -0.486981 0.486521 -0.72536 -0.325567 0.817567 -0.474964 
-0.561649 0.554596 -0.613982 0.753976 0.117747 0.646263 0.654681 0.470509 0.59162 
0.00505999 0.998189 0.0599427 0.464234 0.838134 0.286388 0.603989 0.607106 0.516352 
0.131873 -0.897803 0.42019 -0.869954 -0.020966 -0.492688 -0.835111 0.341876 -0.430941 
0.862114 0.159504 0.480955 0.74916 0.466755 0.469998 0.798074 0.532788 0.281452 
-0.644488 -0.749617 -0.150698 -0.472689 0.823529 -0.313631 0 0 -1 
-0.83205 -0.5547 0 -1 0 2.78775e-08 1 0 2.78775e-08 
0 0.5547 -0.83205 0.889988 0.26821 0.368762 -0.239244 0.82125 -0.517987 
0.183259 0.956833 -0.22558 0.388926 0.921089 -0.0181935 0.25129 -0.841955 0.477457 
-0.772915 -0.571611 -0.275432 0.597668 -0.574832 0.558893 -0.95003 0.170778 -0.261299 
-0.788593 0.513969 -0.337574 -0.687498 0.705869 -0.170574 0 0 -1 
-0.83205 -0.5547 0 -1 0 2.78775e-08 0 0 1 
1 0 2.78775e-08 0 0.5547 -0.83205 0.81391 0.507372 0.283062 
0.30691 0.87944 -0.363855 0.571805 0.814143 -0.10104 -0.548995 0.828166 -0.112891 
0 0 1 0.872837 -0.0160711 0.487747 -0.0202602 -0.922784 0.384786 
0.384641 -0.689942 0.613214 -0.846103 -0.377023 -0.37678 0.861292 0.502549 0.0749662 
0.615698 0.730836 -0.294609 0.161156 0.801191 -0.576301 0.84728 0.515216 -0.129109 
-0.369636 -0.89259 0.25817 -0.733188 -0.67815 -0.0504701 -0.920313 -0.238239 -0.310267 
0.967693 0.240034 -0.0771683 0.509433 0.675761 -0.532753 0.803906 0.51672 -0.294509 
-0.624548 0.713233 -0.31818 0.0159989 0.777668 -0.628472 0.293891 0.733352 -0.613044 
0.770518 0.559345 -0.305672 -0.299202 0.788652 -0.537128 0.349956 0.768975 -0.534984 
-0.17174 -0.885889 0.430936 -0.840537 -0.473091 -0.263975 0.984459 0.14567 0.0980837 
0.965495 0.203597 0.16238 -0.614322 0.741053 -0.271015 -0.538329 0.827299 -0.160555 
-0.352296 0.846669 -0.398798 0.132829 0.790026 -0.598511 -0.637904 -0.770026 -0.0117621 
-0.720171 -0.682432 -0.125061 -0.863879 0.204991 -0.460099 0.746369 -0.312336 0.58769 
0.943762 0.0421349 0.327929 0.897681 -0.0151651 0.440384 0.888668 0.0253019 0.457852 
-0.710856 0.69267 0.122032 0.939897 0.228133 0.254066 -0.576392 0.816371 0.0362021 
-0.208501 0.860143 -0.465491 -0.0422876 0.859663 -0.509109 -0.380966 0.908985 -0.169152 