# vtk DataFile Version 4.2
vtk output
ASCII
DATASET POLYDATA
POINTS 1029 float
263.261 183.117 110.794 263.069 183.145 110.803 263.431 183.034 110.914 
263.187 183.321 110.755 263.59 185.137 111.15 262.27 187.015 111.145 
262.644 187.778 111.372 261.95 181.88 111.684 261.575 181.478 112.022 
262.998 181.938 111.583 263.434 181.661 111.905 261.775 186.578 111.129 
264.159 186.806 111.986 261.5 189.173 111.633 262.623 192.569 113.334 
259.27 194.242 113.58 259.892 195.139 113.763 260.855 194.935 113.797 
261.078 195.436 114.147 260.778 179.099 114.562 265.403 180.772 113.964 
266.576 182.836 114.309 266.837 183.191 114.684 262.055 195.208 114.609 
260.334 195.933 114.245 259.13 196.613 114.755 260.809 196.538 114.891 
267.122 180.826 115.813 267.072 184.836 115.458 257.468 196.87 115.617 
258.431 197.64 115.987 259.593 197.66 115.906 255.183 181.973 115.573 
255.037 195.728 116.504 262.728 196.126 116.218 259.594 197.908 116.385 
263.149 178.113 116.524 265.841 178.646 117.097 267.523 180.222 117.236 
267.486 180 117.589 268.054 181.205 117.757 268.067 182.245 117.198 
252.719 185.487 117.159 253.454 196.101 118.27 261.457 197.292 116.465 
257.63 198.085 117.644 257.933 198.109 117.215 258.188 198.244 117.545 
258.799 177.459 118.292 266.719 179.037 117.856 254.774 179.592 117.979 
267.605 180.128 118.009 252.636 181.935 118.567 268.151 181.045 118.13 
268.209 181.289 118.165 268.21 181.139 118.267 268.187 181.806 118.318 
268.229 183.334 118.061 268.013 184.508 117.942 251.836 194.015 118.303 
252.192 193.568 117.756 252.418 195.421 118.706 254.088 196.851 119.004 
258.376 198.316 118.166 258.979 198.379 118.022 260.097 198.145 117.42 
259.691 198.281 117.627 264.919 177.786 119.014 266.404 178.803 118.607 
267.929 180.873 118.774 268.084 180.963 118.41 267.98 181.501 119.099 
268.123 184.412 118.541 250.922 186.078 119.778 268.114 184.438 118.832 
250.679 187.623 119.623 250.627 193.848 119.905 251.148 195.135 120.382 
252.047 195.825 120.085 259.477 198.357 118.034 263.097 176.985 119.8 
267.84 183.047 119.7 249.918 191.22 120.393 266.86 190.33 120.217 
249.96 192.848 120.629 264.807 195.38 119.473 253.125 196.709 120.65 
260.081 198.436 120.004 264.117 177.391 120.846 267.418 185.944 120.713 
249.795 189.888 121.381 266.391 192.311 120.694 250.1 193.927 121.714 
251.136 195.351 121.297 259.308 176.153 121.626 266.716 190.664 121.595 
266.607 191.147 121.593 266.434 192.284 121.288 249.971 193.574 122.189 
264.561 196.305 121.101 263.323 197.373 120.783 258.136 198.347 122.024 
261.149 198.498 122.01 264.061 178.23 122.233 264.293 179.585 122.838 
266.102 188.714 122.693 266.079 192.545 122.504 250.279 193.951 124.22 
265.688 194.434 122.93 262.347 198.038 122.772 257.757 175.266 124.215 
260.197 175.862 123.847 255.239 176.835 122.864 262.277 177.724 123.866 
249.529 190.569 124.156 249.721 192.37 124.601 265.728 194.122 123.13 
252.376 196.153 124.423 265.084 195.557 123.048 260.884 198.52 123.36 
259.836 175.937 125.229 249.765 187.429 125.19 264.622 194.966 124.511 
264.825 195.583 123.646 262.119 197.854 124.582 261.396 198.331 123.978 
254.436 174.472 125.977 256.266 174.1 125.952 258.075 174.692 125.797 
259.667 176.083 125.958 263.311 195.558 125.727 262.185 197.722 125.026 
261.924 197.61 125.253 262.232 197.628 125.16 253.973 172.459 127.384 
256.492 173.169 127.085 256.948 173.369 127.264 253.053 173.608 127.262 
257.454 173.926 127.281 252.869 174.396 127.053 258.007 174.542 126.489 
259.746 176.976 126.66 249.514 190.763 127.23 261.931 194.847 127.212 
261.57 196.992 126.209 259.497 197.642 126.075 262.358 197.394 125.258 
254.807 171.403 128.152 255.391 171.636 128.235 255.373 171.426 128.709 
255.763 171.852 128.359 256.096 172.212 128.324 256.755 172.951 127.795 
256.875 173.107 127.925 258.342 175.211 127.38 251.381 178.222 127.239 
249.651 191.678 128.434 255.5 196.844 127.93 260.858 196.596 127.098 
260.774 197.025 126.668 253.981 169.747 129.406 253.709 169.387 129.69 
254.044 169.691 129.611 255.643 171.834 129.124 251.164 172.966 129.355 
257.136 173.887 128.399 251.328 174.85 128.643 250.217 193.231 129.958 
251.54 194.955 129.447 252.741 195.709 129.538 259.834 195.694 128.501 
257.301 196.832 128.184 259.721 196.868 127.364 252.904 168.318 130.34 
252.783 168.333 130.391 252.995 168.376 130.324 252.571 168.249 130.683 
252.273 168.51 130.645 251.986 169.327 130.398 253.684 169.307 130.131 
251.719 170.026 130.41 254.204 169.932 129.823 250.777 173.317 130.096 
250.588 175.326 130.013 259.286 195.943 128.649 258.686 196.087 128.875 
252.311 167.811 130.982 252.269 167.758 131.012 252.877 168.317 130.463 
252.657 168.529 130.985 253.482 169.608 130.917 254.013 170.504 130.839 
254.776 171.41 130.453 250.775 172.607 130.848 250.436 175.637 130.427 
249.439 188.143 130.889 250.741 193.855 131.753 250.97 194.18 131.428 
252.173 195.098 131.118 253.237 195.705 130.638 252.248 167.815 131.025 
252.253 167.943 131.058 252.041 169.052 131.231 252.909 169.981 131.533 
253.343 170.959 131.698 251.002 172.165 131.649 254.017 171.795 131.5 
251.138 193.976 132.838 253.481 195.441 131.864 256.763 195.014 131.29 
257.417 195.758 130.049 252.228 168.547 131.185 252.333 169.589 131.556 
253.17 171.379 131.968 252.694 171.658 132.262 251.158 172.231 132.044 
250.454 174.783 132.716 251.155 193.679 133.699 254.405 195.336 132.195 
252.208 170.011 131.723 252.255 171.202 132.163 251.348 172.58 132.526 
251.584 172.896 132.849 251.46 173.555 133.139 251.069 174.048 133.153 
253.115 174.851 133.302 249.748 177.86 132.923 254.08 194.833 133.238 
254.884 195.015 132.636 251.505 175.021 134.001 250.945 175.333 134.045 
251.676 175.234 134.14 249.963 176.537 134.107 249.422 177.361 134.713 
235.666 179.215 136.314 236.42 179.067 136.112 253.127 177.887 134.467 
236.252 179.515 135.992 236.402 180.495 135.798 235.035 182.026 135.985 
255.206 190.469 134.684 255.766 192.747 133.781 251.527 193.474 134.942 
251.688 193.749 134.682 254.634 194.108 133.865 242.455 176.982 136.922 
242.333 176.521 137.234 249.875 176.78 134.936 250.473 176.515 135.115 
248.307 177.548 136.371 248.16 177.901 135.997 249.043 177.584 135.314 
249.24 177.295 135.679 251.457 177.401 135.616 235.757 178.49 136.861 
236.179 178.433 136.628 237.504 178.753 136.242 241.912 177.981 136.475 
248.845 178.043 135.108 248.321 179.228 135.183 238.592 179.911 135.97 
241.441 179.706 136.22 237.089 181.188 135.812 248.445 181.428 134.966 
233.513 181.722 136.987 239.138 181.437 136.081 253.212 181.846 135.612 
233.84 182.516 136.61 233.704 184.01 136.808 234.861 184.079 136.497 
253.574 185.53 135.87 254.339 189.107 135.502 251.268 192.341 135.601 
251.503 192.907 135.518 251.572 193.27 135.271 252.596 193.985 134.869 
241.337 175.861 137.89 242.591 175.739 138.18 240.189 176.025 137.769 
245.377 177.306 137.118 247.553 177.913 136.372 247.385 177.425 137.065 
248.91 177.387 136.674 249.835 177.22 136.128 250.78 177.166 135.781 
245.323 179.003 136.397 250.61 178.612 137.25 246.831 179.385 136.06 
232.89 181.544 137.938 246.53 181.31 136.271 247.96 180.769 135.398 
240.672 182.045 136.413 246.705 182.02 136.419 248.491 184.681 136.308 
232.232 184.806 137.947 249.773 186.813 136.49 232.391 186.013 138.202 
250.908 190.1 136.161 251.476 192.115 136.05 252.097 193.029 135.887 
253.259 193.181 135.618 252.337 193.318 135.786 252.402 193.567 135.563 
252.567 193.409 135.717 238.228 176.21 138.167 246.234 176.821 137.849 
248.541 177.417 137.432 231.602 183.552 138.775 246.481 184.01 137.418 
247.681 183.976 136.755 231.372 184.842 138.921 248.46 185.296 137.367 
239.626 185.87 137.822 249.414 186.166 136.861 249.101 185.829 137.498 
249.737 186.305 137.405 250.316 187.132 136.992 251.948 187.709 137.072 
251.128 188.793 136.783 251.168 189.54 136.595 251.43 189.104 136.851 
252.963 190.941 136.496 251.568 191.751 136.289 252.529 191.854 136.446 
251.644 192.134 136.198 252.143 192.53 136.187 240.405 174.844 139.782 
241.073 174.722 140.382 238.526 175.409 139.238 244.139 175.508 139.406 
233.766 179.08 139.376 244.635 184.753 137.968 250.877 184.63 138.279 
248.127 185.485 138.087 248.641 185.676 138.076 250.505 186.007 137.941 
249.716 185.551 139.107 231.089 186.593 139.675 249.249 185.887 138.531 
251.429 187.287 137.305 251.462 188.251 137.039 237.236 188.172 138.969 
252.076 190.846 136.679 252.228 192.089 136.402 237.944 175.379 139.878 
244.58 175.624 140.299 248.737 178.271 139.388 247.203 186.047 139.057 
248.173 185.868 138.829 248.696 186.01 139.879 251.127 187.193 137.377 
249.297 185.767 139.6 231.337 188.341 140.569 240.713 174.612 141.164 
236.04 176.547 139.937 249.223 185.384 140.183 247.816 186.758 140.54 
230.062 186.856 141.474 243.93 188.164 140.27 242.791 189.028 140.727 
244.546 188.484 140.807 245.829 188.263 141.173 244.786 188.832 141.347 
238.719 174.847 141.419 239.849 174.717 141.949 241.89 174.922 141.974 
246.327 177.045 141.723 234.221 177.934 141.347 248.701 184.071 142.001 
229.7 186.132 142.3 248.302 186.371 141.676 246.94 187.879 141.525 
247.234 187.863 142.006 247.572 187.52 142.033 245.514 188.987 142.184 
246.013 188.824 142.423 247.351 187.792 142.439 233.707 191.969 142.315 
235.62 191.816 141.871 243.882 175.537 141.971 248.113 185.71 142.852 
248.267 186.187 142.175 229.817 187.332 142.67 246.028 188.906 142.917 
246.436 188.597 143.207 231.419 190.923 143.052 245.467 189.245 143.157 
242.717 190.734 143.404 232.578 192.575 143.273 239.607 175.493 143.822 
242.082 175.736 143.748 230.039 184.799 144.032 229.573 186.929 143.685 
247.122 187.842 143.325 246.274 188.637 143.731 243.295 190.5 143.857 
245.273 189.31 143.838 231.187 192.409 144.527 231.947 193.745 144.565 
237.346 193.52 143.78 236.264 194.214 144.217 237.785 193.915 144.721 
233.396 194.719 144.682 236.105 176.759 144.235 232.685 180.214 144.661 
229.661 186.2 144.495 229.573 186.951 144.173 246.737 187.573 144.338 
246.986 187.722 143.793 246.344 188.409 144.076 244.274 189.797 144.751 
[...]
POINT_DATA 1029
COLOR_SCALARS scalars 3
0.521569 0.6 0.8 0.521569 0.6 0.8 0.521569 0.6 0.8 
0.521569 0.6 0.8 0.521569 0.6 0.8 
0.521569 0.6 0.8 0.521569 0.6 0.8 
0.521569 0.6 0.8 0.521569 0.6 0.8 
0.521569 0.6 0.8 0.521569 0.6 0.8 
0.521569 0.6 0.8 0.521569 0.6 0.8 
0.521569 0.6 0.8 0.521569 0.6 0.8 
0.521569 0.6 0.8 0.521569 0.6 0.8 
0.521569 0.6 0.8 0.521569 0.6 0.8 
0.521569 0.6 0.8 0.521569 0.6 0.8 
0.521569 0.6 0.8 0.521569 0.6 0.8 
0.521569 0.6 0.8 0.521569 0.6 0.8 
0.521569 0.6 0.8 0.521569 0.6 0.8 
0.521569 0.6 0.8 0.521569 0.6 0.8 
0.521569 0.6 0.8 0.521569 0.6 0.8 
0.521569 0.6 0.8 0.521569 0.6 0.8 
0.521569 0.6 0.8 0.521569 0.6 0.8 
0.521569 0.6 0.8 0.521569 0.6 0.8 
0.521569 0.6 0.8 0.521569 0.6 0.8 
0.521569 0.6 0.8 0.521569 0.6 0.8 
0.521569 0.6 0.8 0.521569 0.6 0.8 
0.521569 0.6 0.8 0.521569 0.6 0.8 
0.521569 0.6 0.8 0.521569 0.6 0.8 
0.521569 0.6 0.8 0.521569 0.6 0.8 
0.521569 0.6 0.8 0.521569 0.6 0.8 
0.521569 0.6 0.8 0.521569 0.6 0.8 
0.521569 0.6 0.8 0.521569 0.6 0.8 
0.521569 0.6 0.8 0.521569 0.6 0.8 
0.521569 0.6 0.8 0.521569 0.6 0.8 
0.521569 0.6 0.8 0.521569 0.6 0.8 
0.521569 0.6 0.8 0.521569 0.6 0.8 
0.521569 0.6 0.8 0.521569 0.6 0.8 
0.521569 0.6 0.8 0.521569 0.6 0.8 
0.521569 0.6 0.8 0.521569 0.6 0.8 
0.521569 0.6 0.8 0.521569 0.6 0.8 
0.521569 0.6 0.8 0.521569 0.6 0.8 
0.521569 0.6 0.8 0.521569 0.6 0.8 
0.521569 0.6 0.8 0.521569 0.6 0.8 
0.521569 0.6 0.8 0.521569 0.6 0.8 
0.521569 0.6 0.8 0.521569 0.6 0.8 
0.521569 0.6 0.8 0.521569 0.6 0.8 
0.521569 0.6 0.8 0.521569 0.6 0.8 
0.521569 0.6 0.8 0.521569 0.6 0.8 
0.521569 0.6 0.8 0.521569 0.6 0.8 
0.521569 0.6 0.8 0.521569 0.6 0.8 
0.521569 0.6 0.8 0.521569 0.6 0.8 
0.521569 0.6 0.8 0.521569 0.6 0.8 
0.521569 0.6 0.8 0.521569 0.6 0.8 
0.521569 0.6 0.8 0.521569 0.6 0.8 
0.521569 0.6 0.8 0.521569 0.6 0.8 
0.521569 0.6 0.8 0.521569 0.6 0.8 
0.521569 0.6 0.8 0.521569 0.6 0.8 
0.521569 0.6 0.8 0.521569 0.6 0.8 
0.521569 0.6 0.8 0.521569 0.6 0.8 
0.521569 0.6 0.8 0.521569 0.6 0.8 
0.521569 0.6 0.8 0.521569 0.6 0.8 
0.521569 0.6 0.8 0.521569 0.6 0.8 
0.521569 0.6 0.8 0.521569 0.6 0.8 
0.521569 0.6 0.8 0.521569 0.6 0.8 
0.521569 0.6 0.8 0.521569 0.6 0.8 
0.521569 0.6 0.8 0.521569 0.6 0.8 
0.521569 0.6 0.8 0.521569 0.6 0.8 
0.521569 0.6 0.8 0.521569 0.6 0.8 
0.521569 0.6 0.8 0.521569 0.6 0.8 
0.521569 0.6 0.8 0.521569 0.6 0.8 
0.521569 0.6 0.8 0.521569 0.6 0.8 
0.521569 0.6 0.8 0.521569 0.6 0.8 
0.521569 0.6 0.8 0.521569 0.6 0.8 
0.521569 0.6 0.8 0.521569 0.6 0.8 
0.521569 0.6 0.8 0.521569 0.6 0.8 
0.521569 0.6 0.8 0.521569 0.6 0.8 
0.521569 0.6 0.8 0.521569 0.6 0.8 
0.521569 0.6 0.8 0.521569 0.6 0.8 
0.521569 0.6 0.8 0.521569 0.6 0.8 
0.521569 0.6 0.8 0.521569 0.6 0.8 
0.521569 0.6 0.8 0.521569 0.6 0.8 
0.521569 0.6 0.8 0.521569 0.6 0.8 
0.521569 0.6 0.8 0.521569 0.6 0.8 
0.521569 0.6 0.8 0.521569 0.6 0.8 
0.521569 0.6 0.8 0.521569 0.6 0.8 
0.521569 0.6 0.8 0.521569 0.6 0.8 
0.521569 0.6 0.8 0.521569 0.6 0.8 
0.521569 0.6 0.8 0.521569 0.6 0.8 
0.521569 0.6 0.8 0.521569 0.6 0.8 
0.521569 0.6 0.8 0.521569 0.6 0.8 
0.521569 0.6 0.8 0.521569 0.6 0.8 
0.521569 0.6 0.8 0.521569 0.6 0.8 
0.521569 0.6 0.8 0.521569 0.6 0.8 
0.521569 0.6 0.8 0.521569 0.6 0.8 
0.521569 0.6 0.8 0.521569 0.6 0.8 
0.521569 0.6 0.8 0.521569 0.6 0.8 
0.521569 0.6 0.8 0.521569 0.6 0.8 
0.521569 0.6 0.8 0.521569 0.6 0.8 
0.521569 0.6 0.8 0.521569 0.6 0.8 
0.521569 0.6 0.8 0.521569 0.6 0.8 
0.521569 0.6 0.8 0.521569 0.6 0.8 
0.521569 0.6 0.8 0.521569 0.6 0.8 
0.521569 0.6 0.8 0.521569 0.6 0.8 
0.521569 0.6 0.8 0.521569 0.6 0.8 
0.521569 0.6 0.8 0.521569 0.6 0.8 
0.521569 0.6 0.8 0.521569 0.6 0.8 
0.521569 0.6 0.8 0.521569 0.6 0.8 
0.521569 0.6 0.8 0.521569 0.6 0.8 
0.521569 0.6 0.8 0.521569 0.6 0.8 
0.521569 0.6 0.8 0.521569 0.6 0.8 
0.521569 0.6 0.8 0.521569 0.6 0.8 
0.521569 0.6 0.8 0.521569 0.6 0.8 
0.521569 0.6 0.8 0.521569 0.6 0.8 
0.521569 0.6 0.8 0.521569 0.6 0.8 
0.521569 0.6 0.8 0.521569 0.6 0.8 
0.521569 0.6 0.8 0.521569 0.6 0.8 
0.521569 0.6 0.8 0.521569 0.6 0.8 
0.521569 0.6 0.8 0.521569 0.6 0.8 
0.521569 0.6 0.8 0.521569 0.6 0.8 
0.521569 0.6 0.8 0.521569 0.6 0.8 
0.521569 0.6 0.8 0.521569 0.6 0.8 
0.521569 0.6 0.8 0.521569 0.6 0.8 
0.521569 0.6 0.8 0.521569 0.6 0.8 
0.521569 0.6 0.8 0.521569 0.6 0.8 
0.521569 0.6 0.8 0.521569 0.6 0.8 
0.521569 0.6 0.8 0.521569 0.6 0.8 
0.521569 0.6 0.8 0.521569 0.6 0.8 
0.521569 0.6 0.8 0.521569 0.6 0.8 
0.521569 0.6 0.8 0.521569 0.6 0.8 
0.521569 0.6 0.8 0.521569 0.6 0.8 
0.521569 0.6 0.8 0.521569 0.6 0.8 
0.521569 0.6 0.8 0.521569 0.6 0.8 
0.521569 0.6 0.8 0.521569 0.6 0.8 
0.521569 0.6 0.8 0.521569 0.6 0.8 
0.521569 0.6 0.8 0.521569 0.6 0.8 
0.521569 0.6 0.8 0.521569 0.6 0.8 
0.521569 0.6 0.8 0.521569 0.6 0.8 
0.521569 0.6 0.8 0.521569 0.6 0.8 
0.521569 0.6 0.8 0.521569 0.6 0.8 
0.521569 0.6 0.8 0.521569 0.6 0.8 
0.521569 0.6 0.8 0.521569 0.6 0.8 
0.521569 0.6 0.8 0.521569 0.6 0.8 
0.521569 0.6 0.8 0.521569 0.6 0.8 
0.521569 0.6 0.8 0.521569 0.6 0.8 
0.521569 0.6 0.8 0.521569 0.6 0.8 
0.521569 0.6 0.8 0.521569 0.6 0.8 
0.521569 0.6 0.8 0.521569 0.6 0.8 
0.521569 0.6 0.8 0.521569 0.6 0.8 
0.521569 0.6 0.8 0.521569 0.6 0.8 
0.521569 0.6 0.8 0.521569 0.6 0.8 
0.521569 0.6 0.8 0.521569 0.6 0.8 
0.521569 0.6 0.8 0.521569 0.6 0.8 
0.521569 0.6 0.8 0.521569 0.6 0.8 
0.521569 0.6 0.8 0.521569 0.6 0.8 
0.521569 0.6 0.8 0.521569 0.6 0.8 
0.521569 0.6 0.8 0.521569 0.6 0.8 
0.521569 0.6 0.8 0.521569 0.6 0.8 
0.521569 0.6 0.8 0.521569 0.6 0.8 
0.521569 0.6 0.8 0.521569 0.6 0.8 
0.521569 0.6 0.8 0.521569 0.6 0.8 
0.521569 0.6 0.8 0.521569 0.6 0.8 
0.521569 0.6 0.8 0.521569 0.6 0.8 
0.521569 0.6 0.8 0.521569 0.6 0.8 
0.521569 0.6 0.8 0.521569 0.6 0.8 
0.521569 0.6 0.8 0.521569 0.6 0.8 
0.521569 0.6 0.8 0.521569 0.6 0.8 
0.521569 0.6 0.8 0.521569 0.6 0.8 
0.521569 0.6 0.8 0.521569 0.6 0.8 
0.521569 0.6 0.8 0.521569 0.6 0.8 
0.521569 0.6 0.8 0.521569 0.6 0.8 
0.521569 0.6 0.8 0.521569 0.6 0.8 
0.521569 0.6 0.8 0.521569 0.6 0.8 
0.521569 0.6 0.8 0.521569 0.6 0.8 
0.521569 0.6 0.8 0.521569 0.6 0.8 
0.521569 0.6 0.8 0.521569 0.6 0.8 
0.521569 0.6 0.8 0.521569 0.6 0.8 
0.521569 0.6 0.8 0.521569 0.6 0.8 
0.521569 0.6 0.8 0.521569 0.6 0.8 
0.521569 0.6 0.8 0.521569 0.6 0.8 
0.521569 0.6 0.8 0.521569 0.6 0.8 
0.521569 0.6 0.8 0.521569 0.6 0.8 
0.521569 0.6 0.8 0.521569 0.6 0.8 
0.521569 0.6 0.8 0.521569 0.6 0.8 
0.521569 0.6 0.8 0.521569 0.6 0.8 
0.521569 0.6 0.8 0.521569 0.6 0.8 
0.521569 0.6 0.8 0.521569 0.6 0.8 
0.521569 0.6 0.8 0.521569 0.6 0.8 
0.521569 0.6 0.8 0.521569 0.6 0.8 
0.521569 0.6 0.8 0.521569 0.6 0.8 
0.521569 0.6 0.8 0.521569 0.6 0.8 
0.521569 0.6 0.8 0.521569 0.6 0.8 
0.521569 0.6 0.8 0.521569 0.6 0.8 
0.521569 0.6 0.8 0.521569 0.6 0.8 
0.521569 0.6 0.8 0.521569 0.6 0.8 
0.521569 0.6 0.8 0.521569 0.6 0.8 
0.521569 0.6 0.8 0.521569 0.6 0.8 
0.521569 0.6 0.8 0.521569 0.6 0.8 
0.521569 0.6 0.8 0.521569 0.6 0.8 
0.521569 0.6 0.8 0.521569 0.6 0.8 
0.521569 0.6 0.8 0.521569 0.6 0.8 
0.521569 0.6 0.8 0.521569 0.6 0.8 
0.521569 0.6 0.8 0.521569 0.6 0.8 
0.521569 0.6 0.8 0.521569 0.6 0.8 
0.521569 0.6 0.8 0.521569 0.6 0.8 
0.521569 0.6 0.8 0.521569 0.6 0.8 
0.521569 0.6 0.8 0.521569 0.6 0.8 
0.521569 0.6 0.8 0.521569 0.6 0.8 
0.521569 0.6 0.8 0.521569 0.6 0.8 
0.521569 0.6 0.8 0.521569 0.6 0.8 
0.521569 0.6 0.8 0.521569 0.6 0.8 
0.521569 0.6 0.8 0.521569 0.6 0.8 
0.521569 0.6 0.8 0.521569 0.6 0.8 
0.521569 0.6 0.8 0.521569 0.6 0.8 
0.521569 0.6 0.8 0.521569 0.6 0.8 
0.521569 0.6 0.8 0.521569 0.6 0.8 
0.521569 0.6 0.8 0.521569 0.6 0.8 
0.521569 0.6 0.8 0.521569 0.6 0.8 
0.521569 0.6 0.8 0.521569 0.6 0.8 
0.521569 0.6 0.8 0.521569 0.6 0.8 
0.521569 0.6 0.8 0.521569 0.6 0.8 
0.521569 0.6 0.8 0.521569 0.6 0.8 
0.521569 0.6 0.8 0.521569 0.6 0.8 
0.521569 0.6 0.8 0.521569 0.6 0.8 
0.521569 0.6 0.8 0.521569 0.6 0.8 
0.521569 0.6 0.8 0.521569 0.6 0.8 
0.521569 0.6 0.8 0.521569 0.6 0.8 
0.521569 0.6 0.8 0.521569 0.6 0.8 
0.521569 0.6 0.8 0.521569 0.6 0.8 
0.521569 0.6 0.8 0.521569 0.6 0.8 
0.521569 0.6 0.8 0.521569 0.6 0.8 
0.521569 0.6 0.8 0.521569 0.6 0.8 
0.521569 0.6 0.8 0.521569 0.6 0.8 
0.521569 0.6 0.8 0.521569 0.6 0.8 
0.521569 0.6 0.8 0.521569 0.6 0.8 
0.521569 0.6 0.8 0.521569 0.6 0.8 
0.521569 0.6 0.8 0.521569 0.6 0.8 
0.521569 0.6 0.8 0.521569 0.6 0.8 
0.521569 0.6 0.8 0.521569 0.6 0.8 
0.521569 0.6 0.8 0.521569 0.6 0.8 
0.521569 0.6 0.8 0.521569 0.6 0.8 
0.521569 0.6 0.8 0.521569 0.6 0.8 
0.521569 0.6 0.8 0.521569 0.6 0.8 
0.521569 0.6 0.8 0.521569 0.6 0.8 
0.521569 0.6 0.8 0.521569 0.6 0.8 
0.521569 0.6 0.8 0.521569 0.6 0.8 
0.521569 0.6 0.8 0.521569 0.6 0.8 
0.521569 0.6 0.8 0.521569 0.6 0.8 
0.521569 0.6 0.8 0.521569 0.6 0.8 
0.521569 0.6 0.8 0.521569 0.6 0.8 
0.521569 0.6 0.8 0.521569 0.6 0.8 
0.521569 0.6 0.8 0.521569 0.6 0.8 
0.521569 0.6 0.8 0.521569 0.6 0.8 
0.521569 0.6 0.8 0.521569 0.6 0.8 
0.521569 0.6 0.8 0.521569 0.6 0.8 
0.521569 0.6 0.8 0.521569 0.6 0.8 
0.521569 0.6 0.8 0.521569 0.6 0.8 
0.521569 0.6 0.8 0.521569 0.6 0.8 
0.521569 0.6 0.8 0.521569 0.6 0.8 
0.521569 0.6 0.8 0.521569 0.6 0.8 
0.521569 0.6 0.8 0.521569 0.6 0.8 
0.521569 0.6 0.8 0.521569 0.6 0.8 
0.521569 0.6 0.8 0.521569 0.6 0.8 
0.521569 0.6 0.8 0.521569 0.6 0.8 
0.521569 0.6 0.8 0.521569 0.6 0.8 
0.521569 0.6 0.8 0.521569 0.6 0.8 
0.521569 0.6 0.8 0.521569 0.6 0.8 
0.521569 0.6 0.8 0.521569 0.6 0.8 
0.521569 0.6 0.8 0.521569 0.6 0.8 
0.521569 0.6 0.8 0.521569 0.6 0.8 
0.521569 0.6 0.8 0.521569 0.6 0.8 
0.521569 0.6 0.8 0.521569 0.6 0.8 
0.521569 0.6 0.8 0.521569 0.6 0.8 
0.521569 0.6 0.8 0.521569 0.6 0.8 
0.521569 0.6 0.8 0.521569 0.6 0.8 
0.521569 0.6 0.8 0.521569 0.6 0.8 
0.521569 0.6 0.8 0.521569 0.6 0.8 
0.521569 0.6 0.8 0.521569 0.6 0.8 
0.521569 0.6 0.8 0.521569 0.6 0.8 
0.521569 0.6 0.8 0.521569 0.6 0.8 
0.521569 0.6 0.8 0.521569 0.6 0.8 
0.521569 0.6 0.8 0.521569 0.6 0.8 
0.521569 0.6 0.8 0.521569 0.6 0.8 
0.521569 0.6 0.8 0.521569 0.6 0.8 
0.521569 0.6 0.8 0.521569 0.6 0.8 
0.521569 0.6 0.8 0.521569 0.6 0.8 
0.521569 0.6 0.8 0.521569 0.6 0.8 
0.521569 0.6 0.8 0.521569 0.6 0.8 
0.521569 0.6 0.8 0.521569 0.6 0.8 
0.521569 0.6 0.8 0.521569 0.6 0.8 
0.521569 0.6 0.8 0.521569 0.6 0.8 
0.521569 0.6 0.8 0.521569 0.6 0.8 
0.521569 0.6 0.8 0.521569 0.6 0.8 
0.521569 0.6 0.8 0.521569 0.6 0.8 
0.521569 0.6 0.8 0.521569 0.6 0.8 
0.521569 0.6 0.8 0.521569 0.6 0.8 
0.521569 0.6 0.8 0.521569 0.6 0.8 
0.521569 0.6 0.8 0.521569 0.6 0.8 
0.521569 0.6 0.8 0.521569 0.6 0.8 
0.521569 0.6 0.8 0.521569 0.6 0.8 
0.521569 0.6 0.8 0.521569 0.6 0.8 
0.521569 0.6 0.8 0.521569 0.6 0.8 
0.521569 0.6 0.8 0.521569 0.6 0.8 
0.521569 0.6 0.8 0.521569 0.6 0.8 
0.521569 0.6 0.8 0.521569 0.6 0.8 
0.521569 0.6 0.8 0.521569 0.6 0.8 
0.521569 0.6 0.8 0.521569 0.6 0.8 
0.521569 0.6 0.8 0.521569 0.6 0.8 
0.521569 0.6 0.8 0.521569 0.6 0.8 
0.521569 0.6 0.8 0.521569 0.6 0.8 
0.521569 0.6 0.8 0.521569 0.6 0.8 
0.521569 0.6 0.8 0.521569 0.6 0.8 
0.521569 0.6 0.8 0.521569 0.6 0.8 
0.521569 0.6 0.8 0.521569 0.6 0.8 
0.521569 0.6 0.8 0.521569 0.6 0.8 
0.521569 0.6 0.8 0.521569 0.6 0.8 
0.521569 0.6 0.8 0.521569 0.6 0.8 
0.521569 0.6 0.8 0.521569 0.6 0.8 
0.521569 0.6 0.8 0.521569 0.6 0.8 
0.521569 0.6 0.8 0.521569 0.6 0.8 
0.521569 0.6 0.8 0.521569 0.6 0.8 
0.521569 0.6 0.8 0.521569 0.6 0.8 
0.521569 0.6 0.8 0.521569 0.6 0.8 
0.521569 0.6 0.8 0.521569 0.6 0.8 
0.521569 0.6 0.8 0.521569 0.6 0.8 
0.521569 0.6 0.8 0.521569 0.6 0.8 
0.521569 0.6 0.8 0.521569 0.6 0.8 
0.521569 0.6 0.8 0.521569 0.6 0.8 
0.521569 0.6 0.8 0.521569 0.6 0.8 
0.521569 0.6 0.8 0.521569 0.6 0.8 
0.521569 0.6 0.8 0.521569 0.6 0.8 
0.521569 0.6 0.8 0.521569 0.6 0.8 
0.521569 0.6 0.8 0.521569 0.6 0.8 
0.521569 0.6 0.8 0.521569 0.6 0.8 
0.521569 0.6 0.8 0.521569 0.6 0.8 
0.521569 0.6 0.8 0.521569 0.6 0.8 
0.521569 0.6 0.8 0.521569 0.6 0.8 
0.521569 0.6 0.8 0.521569 0.6 0.8 
0.521569 0.6 0.8 0.521569 0.6 0.8 
0.521569 0.6 0.8 0.521569 0.6 0.8 
0.521569 0.6 0.8 0.521569 0.6 0.8 
0.521569 0.6 0.8 0.521569 0.6 0.8 
0.521569 0.6 0.8 0.521569 0.6 0.8 
0.521569 0.6 0.8 0.521569 0.6 0.8 
0.521569 0.6 0.8 0.521569 0.6 0.8 
0.521569 0.6 0.8 0.521569 0.6 0.8 
0.521569 0.6 0.8 0.521569 0.6 0.8 
0.521569 0.6 0.8 0.521569 0.6 0.8 
0.521569 0.6 0.8 0.521569 0.6 0.8 
0.521569 0.6 0.8 0.521569 0.6 0.8 
0.521569 0.6 0.8 0.521569 0.6 0.8 
0.521569 0.6 0.8 0.521569 0.6 0.8 
0.521569 0.6 0.8 0.521569 0.6 0.8 
0.521569 0.6 0.8 0.521569 0.6 0.8 
0.521569 0.6 0.8 0.521569 0.6 0.8 
0.521569 0.6 0.8 0.521569 0.6 0.8 
0.521569 0.6 0.8 0.521569 0.6 0.8 
0.521569 0.6 0.8 0.521569 0.6 0.8 
0.521569 0.6 0.8 0.521569 0.6 0.8 
0.521569 0.6 0.8 0.521569 0.6 0.8 
0.521569 0.6 0.8 0.521569 0.6 0.8 
0.521569 0.6 0.8 0.521569 0.6 0.8 
0.521569 0.6 0.8 0.521569 0.6 0.8 
0.521569 0.6 0.8 0.521569 0.6 0.8 
0.521569 0.6 0.8 0.521569 0.6 0.8 
0.521569 0.6 0.8 0.521569 0.6 0.8 
0.521569 0.6 0.8 0.521569 0.6 0.8 
0.521569 0.6 0.8 0.521569 0.6 0.8 
0.521569 0.6 0.8 0.521569 0.6 0.8 
0.521569 0.6 0.8 0.521569 0.6 0.8 
0.521569 0.6 0.8 0.521569 0.6 0.8 
0.521569 0.6 0.8 0.521569 0.6 0.8 
0.521569 0.6 0.8 0.521569 0.6 0.8 
0.521569 0.6 0.8 0.521569 0.6 0.8 
0.521569 0.6 0.8 0.521569 0.6 0.8 
0.521569 0.6 0.8 0.521569 0.6 0.8 
0.521569 0.6 0.8 0.521569 0.6 0.8 
0.521569 0.6 0.8 0.521569 0.6 0.8 
0.521569 0.6 0.8 0.521569 0.6 0.8 
0.521569 0.6 0.8 0.521569 0.6 0.8 
0.521569 0.6 0.8 0.521569 0.6 0.8 
0.521569 0.6 0.8 0.521569 0.6 0.8 
0.521569 0.6 0.8 0.521569 0.6 0.8 
0.521569 0.6 0.8 0.521569 0.6 0.8 
0.521569 0.6 0.8 0.521569 0.6 0.8 
0.521569 0.6 0.8 0.521569 0.6 0.8 
0.521569 0.6 0.8 0.521569 0.6 0.8 
0.521569 0.6 0.8 0.521569 0.6 0.8 
0.521569 0.6 0.8 0.521569 0.6 0.8 
0.521569 0.6 0.8 0.521569 0.6 0.8 
0.521569 0.6 0.8 0.521569 0.6 0.8 
0.521569 0.6 0.8 0.521569 0.6 0.8 
0.521569 0.6 0.8 0.521569 0.6 0.8 
0.521569 0.6 0.8 0.521569 0.6 0.8 
0.521569 0.6 0.8 0.521569 0.6 0.8 
0.521569 0.6 0.8 0.521569 0.6 0.8 
0.521569 0.6 0.8 0.521569 0.6 0.8 
0.521569 0.6 0.8 0.521569 0.6 0.8 
0.521569 0.6 0.8 0.521569 0.6 0.8 
0.521569 0.6 0.8 0.521569 0.6 0.8 
0.521569 0.6 0.8 0.521569 0.6 0.8 
0.521569 0.6 0.8 0.521569 0.6 0.8 
0.521569 0.6 0.8 0.521569 0.6 0.8 
0.521569 0.6 0.8 0.521569 0.6 0.8 
0.521569 0.6 0.8 0.521569 0.6 0.8 
0.521569 0.6 0.8 0.521569 0.6 0.8 
0.521569 0.6 0.8 0.521569 0.6 0.8 
0.521569 0.6 0.8 0.521569 0.6 0.8 
0.521569 0.6 0.8 0.521569 0.6 0.8 
0.521569 0.6 0.8 0.521569 0.6 0.8 
0.521569 0.6 0.8 0.521569 0.6 0.8 
0.521569 0.6 0.8 0.521569 0.6 0.8 
0.521569 0.6 0.8 0.521569 0.6 0.8 
0.521569 0.6 0.8 0.521569 0.6 0.8 
0.521569 0.6 0.8 0.521569 0.6 0.8 
0.521569 0.6 0.8 0.521569 0.6 0.8 
0.521569 0.6 0.8 0.521569 0.6 0.8 
0.521569 0.6 0.8 0.521569 0.6 0.8 
0.521569 0.6 0.8 0.521569 0.6 0.8 
0.521569 0.6 0.8 0.521569 0.6 0.8 
0.521569 0.6 0.8 0.521569 0.6 0.8 
0.521569 0.6 0.8 0.521569 0.6 0.8 
0.521569 0.6 0.8 0.521569 0.6 0.8 
0.521569 0.6 0.8 0.521569 0.6 0.8 
0.521569 0.6 0.8 0.521569 0.6 0.8 
0.521569 0.6 0.8 0.521569 0.6 0.8 
0.521569 0.6 0.8 0.521569 0.6 0.8 
0.521569 0.6 0.8 0.521569 0.6 0.8 
0.521569 0.6 0.8 0.521569 0.6 0.8 
0.521569 0.6 0.8 0.521569 0.6 0.8 
0.521569 0.6 0.8 0.521569 0.6 0.8 
0.521569 0.6 0.8 0.521569 0.6 0.8 
0.521569 0.6 0.8 0.521569 0.6 0.8 
0.521569 0.6 0.8 0.521569 0.6 0.8 
0.521569 0.6 0.8 0.521569 0.6 0.8 
0.521569 0.6 0.8 0.521569 0.6 0.8 
0.521569 0.6 0.8 0.521569 0.6 0.8 
0.521569 0.6 0.8 0.521569 0.6 0.8 
0.521569 0.6 0.8 0.521569 0.6 0.8 
0.521569 0.6 0.8 0.521569 0.6 0.8 
0.521569 0.6 0.8 0.521569 0.6 0.8 
0.521569 0.6 0.8 0.521569 0.6 0.8 
0.521569 0.6 0.8 0.521569 0.6 0.8 
0.521569 0.6 0.8 0.521569 0.6 0.8 
0.521569 0.6 0.8 0.521569 0.6 0.8 
0.521569 0.6 0.8 0.521569 0.6 0.8 
0.521569 0.6 0.8 0.521569 0.6 0.8 
0.521569 0.6 0.8 0.521569 0.6 0.8 
0.521569 0.6 0.8 0.521569 0.6 0.8 
0.521569 0.6 0.8 0.521569 0.6 0.8 
0.521569 0.6 0.8 0.521569 0.6 0.8 
0.521569 0.6 0.8 0.521569 0.6 0.8 
0.521569 0.6 0.8 0.521569 0.6 0.8 
0.521569 0.6 0.8 0.521569 0.6 0.8 
0.521569 0.6 0.8 0.521569 0.6 0.8 
0.521569 0.6 0.8 0.521569 0.6 0.8 
0.521569 0.6 0.8 0.521569 0.6 0.8 
0.521569 0.6 0.8 0.521569 0.6 0.8 
0.521569 0.6 0.8 0.521569 0.6 0.8 
0.521569 0.6 0.8 0.521569 0.6 0.8 
0.521569 0.6 0.8 0.521569 0.6 0.8 
0.521569 0.6 0.8 0.521569 0.6 0.8 
0.521569 0.6 0.8 0.521569 0.6 0.8 
0.521569 0.6 0.8 0.521569 0.6 0.8 
0.521569 0.6 0.8 0.521569 0.6 0.8 
0.521569 0.6 0.8 0.521569 0.6 0.8 
0.521569 0.6 0.8 0.521569 0.6 0.8 
0.521569 0.6 0.8 0.521569 0.6 0.8 
0.521569 0.6 0.8 0.521569 0.6 0.8 
0.521569 0.6 0.8 0.521569 0.6 0.8 
0.521569 0.6 0.8 0.521569 0.6 0.8 
0.521569 0.6 0.8 0.521569 0.6 0.8 
0.521569 0.6 0.8 0.521569 0.6 0.8 
0.521569 0.6 0.8 0.521569 0.6 0.8 
0.521569 0.6 0.8 0.521569 0.6 0.8 
0.521569 0.6 0.8 0.521569 0.6 0.8 
0.521569 0.6 0.8 0.521569 0.6 0.8 
0.521569 0.6 0.8 0.521569 0.6 0.8 
0.521569 0.6 0.8 0.521569 0.6 0.8 
0.521569 0.6 0.8 0.521569 0.6 0.8 
0.521569 0.6 0.8 0.521569 0.6 0.8 
0.521569 0.6 0.8 0.521569 0.6 0.8 
0.521569 0.6 0.8 0.521569 0.6 0.8 
0.521569 0.6 0.8 0.521569 0.6 0.8 
0.521569 0.6 0.8 0.521569 0.6 0.8 
0.521569 0.6 0.8 0.521569 0.6 0.8 
0.521569 0.6 0.8 0.521569 0.6 0.8 
0.521569 0.6 0.8 0.521569 0.6 0.8 
0.521569 0.6 0.8 0.521569 0.6 0.8 
0.521569 0.6 0.8 0.521569 0.6 0.8 
0.521569 0.6 0.8 0.521569 0.6 0.8 
0.521569 0.6 0.8 0.521569 0.6 0.8 
0.521569 0.6 0.8 0.521569 0.6 0.8 
0.521569 0.6 0.8 0.521569 0.6 0.8 
0.521569 0.6 0.8 0.521569 0.6 0.8 
0.521569 0.6 0.8 0.521569 0.6 0.8 
0.521569 0.6 0.8 0.521569 0.6 0.8 
0.521569 0.6 0.8 0.521569 0.6 0.8 
0.521569 0.6 0.8 0.521569 0.6 0.8 
0.521569 0.6 0.8 0.521569 0.6 0.8 
0.521569 0.6 0.8 0.521569 0.6 0.8 
0.521569 0.6 0.8 0.521569 0.6 0.8 
0.521569 0.6 0.8 0.521569 0.6 0.8 
0.521569 0.6 0.8 0.521569 0.6 0.8 
0.521569 0.6 0.8 0.521569 0.6 0.8 
0.521569 0.6 0.8 0.521569 0.6 0.8 
0.521569 0.6 0.8 0.521569 0.6 0.8 
0.521569 0.6 0.8 0.521569 0.6 0.8 
0.521569 0.6 0.8 0.521569 0.6 0.8 
0.521569 0.6 0.8 0.521569 0.6 0.8 
0.521569 0.6 0.8 0.521569 0.6 0.8 
0.521569 0.6 0.8 0.521569 0.6 0.8 
0.521569 0.6 0.8 0.521569 0.6 0.8 
0.521569 0.6 0.8 0.521569 0.6 0.8 
0.521569 0.6 0.8 0.521569 0.6 0.8 
0.521569 0.6 0.8 0.521569 0.6 0.8 
0.521569 0.6 0.8 0.521569 0.6 0.8 
0.521569 0.6 0.8 0.521569 0.6 0.8 
0.521569 0.6 0.8 0.521569 0.6 0.8 
0.521569 0.6 0.8 0.521569 0.6 0.8 

NORMALS Normals float
0.182902 -0.343518 -0.921163 -0.385482 -0.177218 -0.905537 0.619279 -0.190125 -0.761805 
0.201697 0.00836786 -0.979412 0.408998 0.114849 -0.905279 -0.0285421 0.20863 -0.977578 
0.207591 0.329604 -0.921014 -0.285639 -0.477046 -0.831166 -0.311694 -0.54312 -0.779658 
0.0615978 -0.609691 -0.790242 0.162978 -0.704077 -0.691169 -0.240404 0.112776 -0.964099 
0.75723 0.241166 -0.606993 -0.333477 0.168026 -0.927664 0.592009 0.392752 -0.703755 
-0.151872 0.324237 -0.933705 0.000277146 0.423394 -0.905946 0.229803 0.3741 -0.898466 
0.311042 0.52986 -0.788987 -0.183788 -0.797426 -0.574747 0.422522 -0.648123 -0.633571 
0.759381 -0.0572183 -0.648126 0.867605 0.0306592 -0.496308 0.572941 0.493808 -0.654135 
0.209554 0.603285 -0.769502 -0.18013 0.568975 -0.802385 0.327014 0.687998 -0.647858 
0.826107 -0.160352 -0.540217 0.853444 0.167083 -0.493676 -0.433809 0.635824 -0.638387 
-0.275445 0.802274 -0.529609 0.131769 0.848499 -0.51253 -0.569249 -0.261029 -0.779628 
-0.512932 0.416861 -0.750418 0.654603 0.587958 -0.475184 0.118296 0.915978 -0.383394 
0.133403 -0.898196 -0.418864 0.498026 -0.789468 -0.358761 0.82145 -0.460044 -0.337015 
0.809807 -0.561191 -0.171107 0.934735 -0.132108 -0.329876 0.91041 -0.0124005 -0.413521 
-0.715838 -0.0684813 -0.694901 -0.569217 0.656465 -0.495021 0.482409 0.821531 -0.303922 
-0.477294 0.857621 -0.191511 -0.37474 0.853777 -0.361433 -0.0862981 0.955456 -0.282235 
-0.00858159 -0.888292 -0.459199 0.710715 -0.700085 -0.0690277 -0.600914 -0.569964 -0.560396 
0.840407 -0.541275 0.0271492 -0.773597 -0.430047 -0.465411 0.830522 -0.517869 -0.20505 
0.969535 -0.046357 -0.240525 0.963241 -0.240831 0.119028 0.999737 0.00930987 0.020969 
0.964862 0.152518 -0.213963 0.935202 0.245956 -0.254759 -0.776091 0.292667 -0.558595 
-0.627675 0.275456 -0.728112 -0.630487 0.594172 -0.499445 -0.335652 0.936453 -0.101953 
-0.202393 0.963902 0.173003 -0.0153741 0.999611 0.0232872 0.268456 0.926721 -0.262906 