# vtk DataFile Version 4.2
vtk output
ASCII
DATASET POLYDATA
POINTS 760 float
212.663 183.843 59.8942 212.328 183.866 59.8266 212.88 183.71 60.0458 
212.546 184.151 59.827 212.452 184.472 59.8425 212.57 184.686 60.0095 
213.109 183.802 60.2177 213.045 183.419 60.3193 210.102 184.372 59.8517 
211.231 184.165 59.7895 213.105 184.11 60.2511 210.391 184.752 59.7825 
210.981 184.93 59.8005 213.247 184.263 60.5832 212.541 185.235 60.355 
210.419 186.866 60.026 211.593 186.67 60.2558 210.825 187.133 60.0901 
213.742 194.08 61.1149 213.757 194.032 61.1265 213.616 193.944 61.1424 
213.803 194.104 61.1889 213.643 194.093 61.196 216.004 196.013 59.0087 
216.004 196.013 59.0087 216.004 196.013 59.0087 216.004 196.013 59.0088 
216.004 196.013 59.0088 209.768 181.878 61.0328 209.426 181.419 61.4899 
210.7 181.596 61.3796 212.488 182.42 60.8348 212.723 182.723 60.6464 
213.493 183.505 60.8318 213.529 183.276 61.0331 208.706 184.436 60.2608 
213.621 183.513 61.2239 212.619 185.913 60.794 209.111 186.381 60.1484 
211.945 186.843 60.5232 211.23 188.732 60.6838 210.746 189.846 60.7299 
210.565 190.277 60.81 211.86 191.936 61.1488 212.772 192.018 61.408 
213.354 193.172 61.3009 212.296 193.118 61.179 212.44 193.466 61.2686 
213.366 193.536 61.2105 213.609 193.413 61.4574 212.799 193.721 61.2956 
213.267 193.858 61.2369 213.457 194.152 61.4789 213.769 194.207 61.28 
213.764 194.24 61.4143 216.004 196.013 59.0088 213.87 194.178 61.3273 
213.851 194.247 61.3277 207.181 180.939 61.9403 207.407 180.533 62.25 
206.975 181.529 61.6124 206.379 181.603 61.711 208.654 181.561 61.389 
207.416 182.256 61.2057 211.328 181.567 61.5863 207.357 183.204 60.9336 
213.115 182.637 61.1093 212.924 185.826 61.2165 206.827 186.815 61.2315 
211.684 190.755 61.151 212.445 190.549 61.7411 209.256 191.342 61.4272 
213.297 192.558 61.6426 213.577 192.971 61.8 210.317 192.973 61.729 
210.576 193.348 61.8913 211.606 193.629 61.7482 212.385 193.773 61.5601 
213.705 194.186 61.7347 213.848 194.216 61.448 206.144 179.671 63.1488 
208.6 180.151 62.8891 213.34 182.372 61.937 213.721 182.937 62.2048 
213.8 183.879 62.1929 212.623 188.147 62.0874 212.191 189.585 61.5495 
212.935 190.307 62.6463 209.343 193.608 62.8941 210.642 193.736 62.3264 
213.869 193.745 61.9719 203.838 179.566 63.5428 211.945 181.244 62.5565 
212.913 181.769 62.6726 213.54 182.527 62.2032 203.392 183.135 62.8371 
204.17 183.853 62.4137 213.972 183.296 63.1682 204.121 184.829 62.6168 
204.617 187.71 63.4986 212.941 188.54 63.0542 213.214 190.253 63.4657 
207.033 192.018 63.8804 213.882 193.704 62.3805 212.443 194.344 63.2102 
212.929 194.289 62.934 202.016 177.653 65.3865 202.48 178.549 64.4772 
213.828 182.567 63.642 213.976 183.015 63.5255 204.695 188.918 64.6354 
213.686 192.21 63.7907 207.518 193.453 64.8444 207.902 193.863 64.8981 
208.184 194.177 64.9186 208.301 194.245 64.8013 213.614 194.017 63.1495 
213.646 193.894 63.4125 200.025 177.457 65.8914 199.743 177.652 65.8101 
203.597 177.696 65.368 213.898 182.498 64.4554 214.015 183.367 64.4676 
213.989 182.862 64.8233 199.307 183.352 65.7364 200.602 184.812 65.8666 
213.637 193.615 63.8183 208.382 194.284 64.9652 200.534 176.613 66.8878 
201.126 176.574 66.8778 198.714 177.394 66.5338 213.079 181.297 65.454 
213.72 182.077 64.9124 197.691 183.338 66.9297 201.029 185.433 66.1742 
212.768 193.942 66.6678 201.537 176.439 67.1755 202.231 176.493 67.3348 
211.644 180.188 66.5638 213.44 181.535 66.6737 213.83 182.299 65.45 
195.57 182.439 67.7096 195.158 183.108 68.3858 200.813 185.69 66.9801 
213.415 187.482 66.4249 213.715 192.406 66.9996 211.414 194.504 66.4359 
213.141 193.578 67.377 197.457 176.104 68.5997 202.275 176.22 67.986 
205.455 177.132 68.0477 196.054 177.761 67.9482 194.088 179.89 68.4279 
193.923 180.878 68.4425 194.477 181.41 68.1178 213.642 182.493 67.0311 
195.733 183.92 68.9159 213.409 186.909 67.2114 213.377 186.256 67.7386 
213.099 193.602 68.3185 202.519 176.093 68.5514 207.399 177.916 68.2044 
193.591 178.653 69.1606 211.75 180.172 67.879 211.903 180.317 68.2123 
213.288 181.565 67.6016 213.277 181.794 67.8894 213.777 192.542 68.9225 
213.694 192.968 68.908 213.643 193.068 69.2669 208.418 194.025 69.3217 
213.337 193.389 69.1336 203.504 176.08 70.2607 206.407 177.321 69.6113 
191.468 178.718 70.503 210.571 179.637 69.0453 212.197 180.586 68.335 
212.629 181.017 68.17 191.169 182.387 70.8289 195.303 184.309 70.0386 
201.082 186.587 69.32 213.007 186.133 69.3186 213.734 192.76 69.7209 
206.329 192.963 69.7086 212.011 193.932 69.6593 213.138 193.425 69.6565 
203.675 176.099 70.9087 204.825 176.632 70.5298 206.835 177.51 69.9924 
189.377 179.625 71.7523 189.854 180.062 71.2956 190.445 179.692 70.9015 
211.557 180.688 69.5811 189.941 181.552 71.4776 190.251 182.873 72.3422 
196.217 184.875 70.8475 213.583 191.596 70.3322 213.737 192.121 70.1241 
213.797 192.393 69.8595 213.564 192.842 70.0909 213.307 193.099 70.1491 
203.624 176.109 71.5492 204.274 176.416 71.6745 207.42 178.069 71.0835 
188.864 178.459 72.5795 188.461 178.8 72.8028 210.125 181.403 71.6495 
191.148 183.412 72.5501 202.758 188.49 71.8859 213.126 190.593 71.016 
213.471 192.249 70.6473 213.351 192.672 70.5562 207.757 193.667 72.0719 
213.069 193.026 70.564 206.695 193.34 71.9302 210.833 193.738 71.1098 
212.635 193.174 70.7779 199.589 174.01 73.1655 190.342 176.621 72.8244 
187.903 178.633 73.5229 187.702 179.794 74.0479 187.912 180.448 74.0498 
211.026 189.721 72.8894 203.973 190.487 72.1969 212.823 190.645 71.4012 
212.08 191.52 72.1008 211.605 192.485 72.2226 207.079 193.469 72.3226 
207.208 193.393 72.6967 209.427 193.523 72.2304 211.892 192.737 71.8827 
212.314 192.818 71.4255 211.832 193.064 71.6089 205.843 192.882 72.6204 
192.969 173.8 74.3105 196.111 173.251 74.33 188.248 177.461 73.943 
205.592 177.679 72.6743 188.038 177.854 73.8476 187.439 178.765 74.2879 
187.254 178.805 74.7363 187.233 179.231 74.8881 187.418 179.624 74.6306 
188.206 181.23 74.4968 196.402 185.128 73.8504 202.763 188.459 73.2794 
210.596 191.05 73.2177 209.97 191.757 73.4339 205.411 192.469 73.6925 
206.062 192.729 73.6797 208.982 192.996 73.2692 209.048 192.861 73.397 
191.731 173.934 74.9875 200.629 174.628 74.3252 187.595 177.533 74.9971 
187.237 178.347 75.077 187.177 179.283 75.3047 187.325 179.605 75.6583 
196.417 184.994 74.8149 200.662 186.367 74.3543 202.618 187.873 74.2816 
202.906 188.487 73.8314 208.063 188.763 74.395 204.131 190.615 74.4377 
204.329 191.276 74.7196 204.403 191.758 75.027 204.635 192.001 74.7673 
206.175 192.436 74.2623 192.521 173.254 75.8045 196.671 173.164 75.59 
200.717 174.947 75.1401 188.514 176.04 75.5889 202.643 177.102 75.0891 
187.088 178.756 75.8827 196.316 184.818 75.3139 199.677 185.71 75.2209 
201.517 186.493 74.9664 202.376 187.294 74.7168 204.565 187.625 75.3647 
204.74 188.634 75.2551 203.675 189.142 74.5769 205.451 189.245 75.2367 
204.379 190.81 74.9485 205.61 190.959 75.2087 204.415 191.509 75.2431 
205.959 191.66 74.9457 204.279 191.92 75.509 205.874 192.041 74.7528 
204.401 192.015 75.3256 204.711 192.09 75.1376 205.378 192.159 74.7652 
195.18 172.736 76.6659 190.95 173.107 77.8157 197.233 173.38 75.9834 
189.32 174.427 77.3566 187.198 177.707 76.3784 200.893 182.003 77.2488 
201.344 183.179 76.9149 202.055 184.76 76.2652 201.784 185.64 75.8658 
201.111 185.194 76.2181 199.823 185.476 75.741 202 187.009 77.0174 
202 187.009 77.0175 202 187.009 77.0175 202 187.009 77.0175 
202.836 186.995 75.2393 202 187.009 77.0175 203.441 188.238 74.9013 
204.21 189.12 75.0377 203.885 192.173 76.1888 203.868 192.182 76.2111 
203.89 192.173 76.1802 204.702 191.104 75.2331 203.919 192.166 76.1463 
203.988 192.129 76.054 203.959 192.154 76.082 204.643 191.602 75.3729 
205.515 191.344 75.1676 204.102 192.078 75.8668 204.306 191.951 75.6645 
204.835 191.891 75.2894 204.451 192.047 75.5352 204.188 192.082 75.7202 
204.32 192.098 75.5996 192.716 172.267 78.63 195.701 173.005 77.2841 
197.381 173.664 76.6486 187.408 177.238 77.5086 187.631 179.336 78.1765 
199.291 180.455 78.0706 199.97 183.177 77.4449 196.433 184.179 76.7555 
199.133 184.764 76.5676 200.165 184.878 76.5186 202 187.009 77.0175 
203.899 192.176 76.169 203.999 192.153 76.0376 204.185 192.099 75.8143 
193.036 172.266 78.7801 190.664 172.952 79.4163 193.558 172.415 78.7417 
194.164 172.603 78.4251 196.387 174.824 78.9143 187.447 178.053 78.6533 
197.215 181.373 78.8134 199.439 183.284 77.5351 192.737 172.32 79.6564 
193.222 172.366 79.5868 191.197 172.731 80.1666 193.54 172.443 79.3036 
194.906 173.173 78.953 189.01 174.557 79.8202 195.575 176.41 80.0614 
192.12 172.552 80.4899 191.702 172.596 80.3584 194.312 173.15 79.6631 
190.338 173.393 80.8006 187.707 177.329 79.7999 192.32 172.699 80.7643 
193.026 172.611 80.3314 191.312 173.013 81.1063 190.986 173.091 81.0194 
193.246 172.91 80.4846 193.068 173.762 81.1423 189.338 174.477 81.067 
188.57 175.612 80.9745 192.643 177.386 81.8591 192.147 172.884 81.0335 
191.598 173.604 81.6504 192.113 174.483 81.8713 192.134 175.251 82.0475 
188.842 176.115 81.7644 188.49 177.107 81.5422 188.676 178.069 81.8337 
188.69 178.317 81.7426 189.322 179.13 81.7823 190.98 179.206 81.8422 
189.684 179.286 81.7661 191.206 173.554 81.6212 190.432 174.546 82.0909 
190.047 174.664 82.048 191.064 176.079 82.5079 190.571 176.476 82.618 
189.175 177.65 82.2833 190.458 177.862 82.5749 189.36 178.566 82.2255 
190.241 178.866 82.2287 189.889 178.987 82.1328 189.67 176.35 82.4233 
189.648 178.355 82.4362 190.4 175.142 372.468 190.289 175.641 372.341 
189.665 175.95 372.475 189.747 176.905 372.352 189.223 177.827 372.685 
190.082 177.383 372.288 190.566 177.193 372.266 189.309 178.303 372.725 
189.524 178.516 372.706 190.307 178.383 372.529 191.34 173.639 373.288 
191.284 173.408 373.525 191.078 173.671 373.304 190.378 174.375 373.056 
189.186 175.572 373.087 191.171 175.552 372.465 188.921 177.379 372.957 
188.589 177.72 373.489 191.523 177.426 372.563 192.202 172.691 374.444 
192.511 172.823 374.282 191.446 173.093 374.039 189.418 174.85 373.475 
[...]
POINT_DATA 760
COLOR_SCALARS scalars 3
0 0.611765 0.458824 0 0.611765 0.458824 0 0.611765 0.458824 
0 0.611765 0.458824 0 0.611765 0.458824 
0 0.611765 0.458824 0 0.611765 0.458824 
0 0.611765 0.458824 0 0.611765 0.458824 
0 0.611765 0.458824 0 0.611765 0.458824 
0 0.611765 0.458824 0 0.611765 0.458824 
0 0.611765 0.458824 0 0.611765 0.458824 
0 0.611765 0.458824 0 0.611765 0.458824 
0 0.611765 0.458824 0 0.611765 0.458824 
0 0.611765 0.458824 0 0.611765 0.458824 
0 0.611765 0.458824 0 0.611765 0.458824 
0 0.611765 0.458824 0 0.611765 0.458824 
0 0.611765 0.458824 0 0.611765 0.458824 
0 0.611765 0.458824 0 0.611765 0.458824 
0 0.611765 0.458824 0 0.611765 0.458824 
0 0.611765 0.458824 0 0.611765 0.458824 
0 0.611765 0.458824 0 0.611765 0.458824 
0 0.611765 0.458824 0 0.611765 0.458824 
0 0.611765 0.458824 0 0.611765 0.458824 
0 0.611765 0.458824 0 0.611765 0.458824 
0 0.611765 0.458824 0 0.611765 0.458824 
0 0.611765 0.458824 0 0.611765 0.458824 
0 0.611765 0.458824 0 0.611765 0.458824 
0 0.611765 0.458824 0 0.611765 0.458824 
0 0.611765 0.458824 0 0.611765 0.458824 
0 0.611765 0.458824 0 0.611765 0.458824 
0 0.611765 0.458824 0 0.611765 0.458824 
0 0.611765 0.458824 0 0.611765 0.458824 
0 0.611765 0.458824 0 0.611765 0.458824 
0 0.611765 0.458824 0 0.611765 0.458824 
0 0.611765 0.458824 0 0.611765 0.458824 
0 0.611765 0.458824 0 0.611765 0.458824 
0 0.611765 0.458824 0 0.611765 0.458824 
0 0.611765 0.458824 0 0.611765 0.458824 
0 0.611765 0.458824 0 0.611765 0.458824 
0 0.611765 0.458824 0 0.611765 0.458824 
0 0.611765 0.458824 0 0.611765 0.458824 
0 0.611765 0.458824 0 0.611765 0.458824 
0 0.611765 0.458824 0 0.611765 0.458824 
0 0.611765 0.458824 0 0.611765 0.458824 
0 0.611765 0.458824 0 0.611765 0.458824 
0 0.611765 0.458824 0 0.611765 0.458824 
0 0.611765 0.458824 0 0.611765 0.458824 
0 0.611765 0.458824 0 0.611765 0.458824 
0 0.611765 0.458824 0 0.611765 0.458824 
0 0.611765 0.458824 0 0.611765 0.458824 
0 0.611765 0.458824 0 0.611765 0.458824 
0 0.611765 0.458824 0 0.611765 0.458824 
0 0.611765 0.458824 0 0.611765 0.458824 
0 0.611765 0.458824 0 0.611765 0.458824 
0 0.611765 0.458824 0 0.611765 0.458824 
0 0.611765 0.458824 0 0.611765 0.458824 
0 0.611765 0.458824 0 0.611765 0.458824 
0 0.611765 0.458824 0 0.611765 0.458824 
0 0.611765 0.458824 0 0.611765 0.458824 
0 0.611765 0.458824 0 0.611765 0.458824 
0 0.611765 0.458824 0 0.611765 0.458824 
0 0.611765 0.458824 0 0.611765 0.458824 
0 0.611765 0.458824 0 0.611765 0.458824 
0 0.611765 0.458824 0 0.611765 0.458824 
0 0.611765 0.458824 0 0.611765 0.458824 
0 0.611765 0.458824 0 0.611765 0.458824 
0 0.611765 0.458824 0 0.611765 0.458824 
0 0.611765 0.458824 0 0.611765 0.458824 
0 0.611765 0.458824 0 0.611765 0.458824 
0 0.611765 0.458824 0 0.611765 0.458824 
0 0.611765 0.458824 0 0.611765 0.458824 
0 0.611765 0.458824 0 0.611765 0.458824 
0 0.611765 0.458824 0 0.611765 0.458824 
0 0.611765 0.458824 0 0.611765 0.458824 
0 0.611765 0.458824 0 0.611765 0.458824 
0 0.611765 0.458824 0 0.611765 0.458824 
0 0.611765 0.458824 0 0.611765 0.458824 
0 0.611765 0.458824 0 0.611765 0.458824 
0 0.611765 0.458824 0 0.611765 0.458824 
0 0.611765 0.458824 0 0.611765 0.458824 
0 0.611765 0.458824 0 0.611765 0.458824 
0 0.611765 0.458824 0 0.611765 0.458824 
0 0.611765 0.458824 0 0.611765 0.458824 
0 0.611765 0.458824 0 0.611765 0.458824 
0 0.611765 0.458824 0 0.611765 0.458824 
0 0.611765 0.458824 0 0.611765 0.458824 
0 0.611765 0.458824 0 0.611765 0.458824 
0 0.611765 0.458824 0 0.611765 0.458824 
0 0.611765 0.458824 0 0.611765 0.458824 
0 0.611765 0.458824 0 0.611765 0.458824 
0 0.611765 0.458824 0 0.611765 0.458824 
0 0.611765 0.458824 0 0.611765 0.458824 
0 0.611765 0.458824 0 0.611765 0.458824 
0 0.611765 0.458824 0 0.611765 0.458824 
0 0.611765 0.458824 0 0.611765 0.458824 
0 0.611765 0.458824 0 0.611765 0.458824 
0 0.611765 0.458824 0 0.611765 0.458824 
0 0.611765 0.458824 0 0.611765 0.458824 
0 0.611765 0.458824 0 0.611765 0.458824 
0 0.611765 0.458824 0 0.611765 0.458824 
0 0.611765 0.458824 0 0.611765 0.458824 
0 0.611765 0.458824 0 0.611765 0.458824 
0 0.611765 0.458824 0 0.611765 0.458824 
0 0.611765 0.458824 0 0.611765 0.458824 
0 0.611765 0.458824 0 0.611765 0.458824 
0 0.611765 0.458824 0 0.611765 0.458824 
0 0.611765 0.458824 0 0.611765 0.458824 
0 0.611765 0.458824 0 0.611765 0.458824 
0 0.611765 0.458824 0 0.611765 0.458824 
0 0.611765 0.458824 0 0.611765 0.458824 
0 0.611765 0.458824 0 0.611765 0.458824 
0 0.611765 0.458824 0 0.611765 0.458824 
0 0.611765 0.458824 0 0.611765 0.458824 
0 0.611765 0.458824 0 0.611765 0.458824 
0 0.611765 0.458824 0 0.611765 0.458824 
0 0.611765 0.458824 0 0.611765 0.458824 
0 0.611765 0.458824 0 0.611765 0.458824 
0 0.611765 0.458824 0 0.611765 0.458824 
0 0.611765 0.458824 0 0.611765 0.458824 
0 0.611765 0.458824 0 0.611765 0.458824 
0 0.611765 0.458824 0 0.611765 0.458824 
0 0.611765 0.458824 0 0.611765 0.458824 
0 0.611765 0.458824 0 0.611765 0.458824 
0 0.611765 0.458824 0 0.611765 0.458824 
0 0.611765 0.458824 0 0.611765 0.458824 
0 0.611765 0.458824 0 0.611765 0.458824 
0 0.611765 0.458824 0 0.611765 0.458824 
0 0.611765 0.458824 0 0.611765 0.458824 
0 0.611765 0.458824 0 0.611765 0.458824 
0 0.611765 0.458824 0 0.611765 0.458824 
0 0.611765 0.458824 0 0.611765 0.458824 
0 0.611765 0.458824 0 0.611765 0.458824 
0 0.611765 0.458824 0 0.611765 0.458824 
0 0.611765 0.458824 0 0.611765 0.458824 
0 0.611765 0.458824 0 0.611765 0.458824 
0 0.611765 0.458824 0 0.611765 0.458824 
0 0.611765 0.458824 0 0.611765 0.458824 
0 0.611765 0.458824 0 0.611765 0.458824 
0 0.611765 0.458824 0 0.611765 0.458824 
0 0.611765 0.458824 0 0.611765 0.458824 
0 0.611765 0.458824 0 0.611765 0.458824 
0 0.611765 0.458824 0 0.611765 0.458824 
0 0.611765 0.458824 0 0.611765 0.458824 
0 0.611765 0.458824 0 0.611765 0.458824 
0 0.611765 0.458824 0 0.611765 0.458824 
0 0.611765 0.458824 0 0.611765 0.458824 
0 0.611765 0.458824 0 0.611765 0.458824 
0 0.611765 0.458824 0 0.611765 0.458824 
0 0.611765 0.458824 0 0.611765 0.458824 
0 0.611765 0.458824 0 0.611765 0.458824 
0 0.611765 0.458824 0 0.611765 0.458824 
0 0.611765 0.458824 0 0.611765 0.458824 
0 0.611765 0.458824 0 0.611765 0.458824 
0 0.611765 0.458824 0 0.611765 0.458824 
0 0.611765 0.458824 0 0.611765 0.458824 
0 0.611765 0.458824 0 0.611765 0.458824 
0 0.611765 0.458824 0 0.611765 0.458824 
0 0.611765 0.458824 0 0.611765 0.458824 
0 0.611765 0.458824 0 0.611765 0.458824 
0 0.611765 0.458824 0 0.611765 0.458824 
0 0.611765 0.458824 0 0.611765 0.458824 
0 0.611765 0.458824 0 0.611765 0.458824 
0 0.611765 0.458824 0 0.611765 0.458824 
0 0.611765 0.458824 0 0.611765 0.458824 
0 0.611765 0.458824 0 0.611765 0.458824 
0 0.611765 0.458824 0 0.611765 0.458824 
0 0.611765 0.458824 0 0.611765 0.458824 
0 0.611765 0.458824 0 0.611765 0.458824 
0 0.611765 0.458824 0 0.611765 0.458824 
0 0.611765 0.458824 0 0.611765 0.458824 
0 0.611765 0.458824 0 0.611765 0.458824 
0 0.611765 0.458824 0 0.611765 0.458824 
0 0.611765 0.458824 0 0.611765 0.458824 
0 0.611765 0.458824 0 0.611765 0.458824 
0 0.611765 0.458824 0 0.611765 0.458824 
0 0.611765 0.458824 0 0.611765 0.458824 
0 0.611765 0.458824 0 0.611765 0.458824 
0 0.611765 0.458824 0 0.611765 0.458824 
0 0.611765 0.458824 0 0.611765 0.458824 
0 0.611765 0.458824 0 0.611765 0.458824 
0 0.611765 0.458824 0 0.611765 0.458824 
0 0.611765 0.458824 0 0.611765 0.458824 
0 0.611765 0.458824 0 0.611765 0.458824 
0 0.611765 0.458824 0 0.611765 0.458824 
0 0.611765 0.458824 0 0.611765 0.458824 
0 0.611765 0.458824 0 0.611765 0.458824 
0 0.611765 0.458824 0 0.611765 0.458824 
0 0.611765 0.458824 0 0.611765 0.458824 
0 0.611765 0.458824 0 0.611765 0.458824 
0 0.611765 0.458824 0 0.611765 0.458824 
0 0.611765 0.458824 0 0.611765 0.458824 
0 0.611765 0.458824 0 0.611765 0.458824 
0 0.611765 0.458824 0 0.611765 0.458824 
0 0.611765 0.458824 0 0.611765 0.458824 
0 0.611765 0.458824 0 0.611765 0.458824 
0 0.611765 0.458824 0 0.611765 0.458824 
0 0.611765 0.458824 0 0.611765 0.458824 
0 0.611765 0.458824 0 0.611765 0.458824 
0 0.611765 0.458824 0 0.611765 0.458824 
0 0.611765 0.458824 0 0.611765 0.458824 
0 0.611765 0.458824 0 0.611765 0.458824 
0 0.611765 0.458824 0 0.611765 0.458824 
0 0.611765 0.458824 0 0.611765 0.458824 
0 0.611765 0.458824 0 0.611765 0.458824 
0 0.611765 0.458824 0 0.611765 0.458824 
0 0.611765 0.458824 0 0.611765 0.458824 
0 0.611765 0.458824 0 0.611765 0.458824 
0 0.611765 0.458824 0 0.611765 0.458824 
0 0.611765 0.458824 0 0.611765 0.458824 
0 0.611765 0.458824 0 0.611765 0.458824 
0 0.611765 0.458824 0 0.611765 0.458824 
0 0.611765 0.458824 0 0.611765 0.458824 
0 0.611765 0.458824 0 0.611765 0.458824 
0 0.611765 0.458824 0 0.611765 0.458824 
0 0.611765 0.458824 0 0.611765 0.458824 
0 0.611765 0.458824 0 0.611765 0.458824 
0 0.611765 0.458824 0 0.611765 0.458824 
0 0.611765 0.458824 0 0.611765 0.458824 
0 0.611765 0.458824 0 0.611765 0.458824 
0 0.611765 0.458824 0 0.611765 0.458824 
0 0.611765 0.458824 0 0.611765 0.458824 
0 0.611765 0.458824 0 0.611765 0.458824 
0 0.611765 0.458824 0 0.611765 0.458824 
0 0.611765 0.458824 0 0.611765 0.458824 
0 0.611765 0.458824 0 0.611765 0.458824 
0 0.611765 0.458824 0 0.611765 0.458824 
0 0.611765 0.458824 0 0.611765 0.458824 
0 0.611765 0.458824 0 0.611765 0.458824 
0 0.611765 0.458824 0 0.611765 0.458824 
0 0.611765 0.458824 0 0.611765 0.458824 
0 0.611765 0.458824 0 0.611765 0.458824 
0 0.611765 0.458824 0 0.611765 0.458824 
0 0.611765 0.458824 0 0.611765 0.458824 
0 0.611765 0.458824 0 0.611765 0.458824 
0 0.611765 0.458824 0 0.611765 0.458824 
0 0.611765 0.458824 0 0.611765 0.458824 
0 0.611765 0.458824 0 0.611765 0.458824 
0 0.611765 0.458824 0 0.611765 0.458824 
0 0.611765 0.458824 0 0.611765 0.458824 
0 0.611765 0.458824 0 0.611765 0.458824 
0 0.611765 0.458824 0 0.611765 0.458824 
0 0.611765 0.458824 0 0.611765 0.458824 
0 0.611765 0.458824 0 0.611765 0.458824 
0 0.611765 0.458824 0 0.611765 0.458824 
0 0.611765 0.458824 0 0.611765 0.458824 
0 0.611765 0.458824 0 0.611765 0.458824 
0 0.611765 0.458824 0 0.611765 0.458824 
0 0.611765 0.458824 0 0.611765 0.458824 
0 0.611765 0.458824 0 0.611765 0.458824 
0 0.611765 0.458824 0 0.611765 0.458824 
0 0.611765 0.458824 0 0.611765 0.458824 
0 0.611765 0.458824 0 0.611765 0.458824 
0 0.611765 0.458824 0 0.611765 0.458824 
0 0.611765 0.458824 0 0.611765 0.458824 
0 0.611765 0.458824 0 0.611765 0.458824 
0 0.611765 0.458824 0 0.611765 0.458824 
0 0.611765 0.458824 0 0.611765 0.458824 
0 0.611765 0.458824 0 0.611765 0.458824 
0 0.611765 0.458824 0 0.611765 0.458824 
0 0.611765 0.458824 0 0.611765 0.458824 
0 0.611765 0.458824 0 0.611765 0.458824 
0 0.611765 0.458824 0 0.611765 0.458824 
0 0.611765 0.458824 0 0.611765 0.458824 
0 0.611765 0.458824 0 0.611765 0.458824 
0 0.611765 0.458824 0 0.611765 0.458824 
0 0.611765 0.458824 0 0.611765 0.458824 
0 0.611765 0.458824 0 0.611765 0.458824 
0 0.611765 0.458824 0 0.611765 0.458824 
0 0.611765 0.458824 0 0.611765 0.458824 
0 0.611765 0.458824 0 0.611765 0.458824 
0 0.611765 0.458824 0 0.611765 0.458824 
0 0.611765 0.458824 0 0.611765 0.458824 
0 0.611765 0.458824 0 0.611765 0.458824 
0 0.611765 0.458824 0 0.611765 0.458824 
0 0.611765 0.458824 0 0.611765 0.458824 
0 0.611765 0.458824 0 0.611765 0.458824 
0 0.611765 0.458824 0 0.611765 0.458824 
0 0.611765 0.458824 0 0.611765 0.458824 
0 0.611765 0.458824 0 0.611765 0.458824 
0 0.611765 0.458824 0 0.611765 0.458824 
0 0.611765 0.458824 0 0.611765 0.458824 
0 0.611765 0.458824 0 0.611765 0.458824 
0 0.611765 0.458824 0 0.611765 0.458824 
0 0.611765 0.458824 0 0.611765 0.458824 
0 0.611765 0.458824 0 0.611765 0.458824 
0 0.611765 0.458824 0 0.611765 0.458824 
0 0.611765 0.458824 0 0.611765 0.458824 
0 0.611765 0.458824 0 0.611765 0.458824 
0 0.611765 0.458824 0 0.611765 0.458824 
0 0.611765 0.458824 0 0.611765 0.458824 
0 0.611765 0.458824 0 0.611765 0.458824 
0 0.611765 0.458824 0 0.611765 0.458824 
0 0.611765 0.458824 0 0.611765 0.458824 
0 0.611765 0.458824 0 0.611765 0.458824 
0 0.611765 0.458824 0 0.611765 0.458824 
0 0.611765 0.458824 0 0.611765 0.458824 
0 0.611765 0.458824 0 0.611765 0.458824 
0 0.611765 0.458824 0 0.611765 0.458824 
0 0.611765 0.458824 0 0.611765 0.458824 
0 0.611765 0.458824 0 0.611765 0.458824 
0 0.611765 0.458824 0 0.611765 0.458824 
0 0.611765 0.458824 0 0.611765 0.458824 
0 0.611765 0.458824 0 0.611765 0.458824 
0 0.611765 0.458824 0 0.611765 0.458824 
0 0.611765 0.458824 0 0.611765 0.458824 
0 0.611765 0.458824 0 0.611765 0.458824 
0 0.611765 0.458824 0 0.611765 0.458824 
0 0.611765 0.458824 0 0.611765 0.458824 
0 0.611765 0.458824 0 0.611765 0.458824 
0 0.611765 0.458824 0 0.611765 0.458824 
0 0.611765 0.458824 0 0.611765 0.458824 
0 0.611765 0.458824 0 0.611765 0.458824 
0 0.611765 0.458824 0 0.611765 0.458824 
0 0.611765 0.458824 0 0.611765 0.458824 
0 0.611765 0.458824 0 0.611765 0.458824 
0 0.611765 0.458824 0 0.611765 0.458824 
0 0.611765 0.458824 0 0.611765 0.458824 
0 0.611765 0.458824 0 0.611765 0.458824 
0 0.611765 0.458824 0 0.611765 0.458824 
0 0.611765 0.458824 0 0.611765 0.458824 
0 0.611765 0.458824 0 0.611765 0.458824 
0 0.611765 0.458824 0 0.611765 0.458824 
0 0.611765 0.458824 0 0.611765 0.458824 
0 0.611765 0.458824 0 0.611765 0.458824 
0 0.611765 0.458824 0 0.611765 0.458824 
0 0.611765 0.458824 0 0.611765 0.458824 
0 0.611765 0.458824 0 0.611765 0.458824 
0 0.611765 0.458824 0 0.611765 0.458824 
0 0.611765 0.458824 0 0.611765 0.458824 
0 0.611765 0.458824 0 0.611765 0.458824 
0 0.611765 0.458824 0 0.611765 0.458824 
0 0.611765 0.458824 0 0.611765 0.458824 
0 0.611765 0.458824 0 0.611765 0.458824 
0 0.611765 0.458824 0 0.611765 0.458824 
0 0.611765 0.458824 0 0.611765 0.458824 
0 0.611765 0.458824 0 0.611765 0.458824 
0 0.611765 0.458824 0 0.611765 0.458824 
0 0.611765 0.458824 0 0.611765 0.458824 
0 0.611765 0.458824 0 0.611765 0.458824 
0 0.611765 0.458824 0 0.611765 0.458824 
0 0.611765 0.458824 0 0.611765 0.458824 
0 0.611765 0.458824 0 0.611765 0.458824 
0 0.611765 0.458824 0 0.611765 0.458824 
0 0.611765 0.458824 0 0.611765 0.458824 
0 0.611765 0.458824 0 0.611765 0.458824 
0 0.611765 0.458824 0 0.611765 0.458824 
0 0.611765 0.458824 0 0.611765 0.458824 
0 0.611765 0.458824 0 0.611765 0.458824 
0 0.611765 0.458824 0 0.611765 0.458824 
0 0.611765 0.458824 0 0.611765 0.458824 
0 0.611765 0.458824 0 0.611765 0.458824 
0 0.611765 0.458824 0 0.611765 0.458824 
0 0.611765 0.458824 0 0.611765 0.458824 
0 0.611765 0.458824 0 0.611765 0.458824 
0 0.611765 0.458824 0 0.611765 0.458824 
0 0.611765 0.458824 0 0.611765 0.458824 
0 0.611765 0.458824 0 0.611765 0.458824 
0 0.611765 0.458824 0 0.611765 0.458824 
0 0.611765 0.458824 0 0.611765 0.458824 
0 0.611765 0.458824 0 0.611765 0.458824 
0 0.611765 0.458824 0 0.611765 0.458824 
0 0.611765 0.458824 0 0.611765 0.458824 
0 0.611765 0.458824 0 0.611765 0.458824 
0 0.611765 0.458824 0 0.611765 0.458824 
0 0.611765 0.458824 0 0.611765 0.458824 
0 0.611765 0.458824 0 0.611765 0.458824 
0 0.611765 0.458824 0 0.611765 0.458824 
0 0.611765 0.458824 0 0.611765 0.458824 
0 0.611765 0.458824 0 0.611765 0.458824 
0 0.611765 0.458824 0 0.611765 0.458824 
0 0.611765 0.458824 0 0.611765 0.458824 
0 0.611765 0.458824 0 0.611765 0.458824 
0 0.611765 0.458824 0 0.611765 0.458824 
0 0.611765 0.458824 0 0.611765 0.458824 
0 0.611765 0.458824 0 0.611765 0.458824 
0 0.611765 0.458824 0 0.611765 0.458824 
0 0.611765 0.458824 0 0.611765 0.458824 
0 0.611765 0.458824 0 0.611765 0.458824 
0 0.611765 0.458824 0 0.611765 0.458824 
0 0.611765 0.458824 0 0.611765 0.458824 
0 0.611765 0.458824 0 0.611765 0.458824 
0 0.611765 0.458824 0 0.611765 0.458824 
0 0.611765 0.458824 0 0.611765 0.458824 
0 0.611765 0.458824 
NORMALS Normals float
0.509484 -0.0610405 -0.858312 0.0473882 -0.458871 -0.887238 0.394903 -0.425237 -0.814387 
0.42615 0.0776435 -0.901314 0.263196 0.244307 -0.933296 0.627873 0.335797 -0.702151 
0.750748 -0.0456398 -0.65901 0.512815 -0.478317 -0.712905 -0.148299 -0.302841 -0.941432 
0.0329776 -0.0812104 -0.996151 0.721254 0.20295 -0.662272 -0.120314 0.00243407 -0.992733 
0.1235 0.0314958 -0.991845 0.83799 0.286394 -0.46449 0.638426 0.394871 -0.660673 
-0.0476872 0.166117 -0.984952 0.388027 0.22752 -0.893123 0.116396 0.292018 -0.949304 
0.0522846 0.411509 -0.909904 0.596331 -0.294455 -0.746783 -0.240075 0.0753312 -0.967827 
0.522555 0.535055 -0.663816 -0.350357 0.689395 -0.634022 0.239413 -0.625755 -0.74237 
-0.646268 0.185586 -0.7402 0.140028 0.140028 -0.980196 0.622015 -0.262505 0.737692 
-0.224749 0.549111 0.804962 0.0297359 -0.524069 -0.851157 0.051618 -0.780372 -0.623182 
0.140265 -0.748038 -0.648664 0.232281 -0.716958 -0.65728 0.43755 -0.580735 -0.686511 
0.875808 -0.106827 -0.47069 0.883101 -0.344896 -0.318087 -0.287057 -0.00845904 -0.957876 
0.972735 -0.0325108 -0.229627 0.704709 0.306583 -0.639838 -0.313867 0.198232 -0.928543 
0.621381 0.318612 -0.715802 0.623591 0.203402 -0.754826 0.221718 0.271948 -0.936422 
0.206634 0.207779 -0.956102 0.0417637 0.105947 -0.993494 0.531771 -0.283145 -0.798154 
0.653943 -0.339372 -0.676155 -0.254142 0.334965 -0.907309 -0.418901 0.466448 -0.779069 
0.161635 -0.156081 -0.974429 0.79781 -0.371532 -0.474829 -0.158862 0.378942 -0.911683 
-0.328126 0.399679 -0.855915 -0.260208 0.893642 -0.365645 -0.042156 0.791511 -0.609699 
-0.105686 0.994216 0.0191243 -0.485071 -0.485071 -0.727607 0.941746 0.0335276 -0.334649 
0.467813 0.836518 -0.285287 0.0405687 -0.536542 -0.842898 -0.0657097 -0.621388 -0.780743 
0.0999705 -0.430863 -0.896863 -0.351569 -0.354323 -0.866519 -0.0706405 -0.547151 -0.834048 
-0.117181 -0.399815 -0.909075 0.26045 -0.727283 -0.635 -0.336492 -0.153565 -0.929081 
0.550553 -0.683171 -0.479758 0.848117 0.312709 -0.427681 -0.530973 0.287416 -0.797157 
0.447426 -0.0332824 -0.893701 0.721351 -0.186303 -0.667041 -0.454226 0.348213 -0.820017 
0.822626 -0.446384 -0.352175 0.875813 -0.439013 -0.200549 -0.361255 0.521526 -0.772985 
-0.332636 0.526123 -0.782654 -0.25211 0.73644 -0.627771 -0.395944 0.600923 -0.694348 
0.36802 0.914379 0.168739 0.70541 0.661899 0.25355 -0.00823894 -0.699874 -0.714219 
0.192909 -0.867184 -0.459106 0.745637 -0.581343 -0.325678 0.92869 -0.282669 -0.240069 
0.970212 0.116453 -0.212434 0.836267 0.206224 -0.508064 0.813249 -0.0668649 -0.578062 
0.872476 -0.282122 -0.39899 -0.498199 0.618197 -0.607972 -0.324485 0.80292 -0.500029 
0.993222 0.114849 0.0178982 -0.169491 -0.480695 -0.860352 0.308565 -0.881051 -0.358519 
0.548583 -0.7782 -0.305715 0.829998 -0.524389 -0.190052 -0.486346 -0.120191 -0.865461 
-0.473829 0.122049 -0.872118 0.974969 -0.165843 -0.148092 -0.494347 0.123802 -0.860403 
-0.586181 0.492404 -0.643374 0.968862 0.0547054 -0.241483 0.956654 -0.170094 -0.236394 
-0.748968 0.497482 -0.437673 0.995359 -0.0846575 0.0457562 0.160635 0.979317 0.123022 
0.184451 0.973052 0.138375 -0.0636758 -0.810907 -0.581701 -0.235432 -0.569751 -0.787373 
0.905721 -0.40366 -0.129337 0.96795 -0.234913 -0.0888197 -0.708843 0.560385 -0.428382 
0.989783 -0.126195 -0.0663637 -0.708018 0.60756 -0.359973 -0.673467 0.736278 0.0658614 
-0.629087 0.734026 0.255843 -0.385962 0.863647 -0.324265 0.826439 0.553058 0.105478 
0.799749 -0.502009 -0.329224 -0.213927 -0.736376 -0.641861 -0.385456 -0.492463 -0.780323 
0.11817 -0.827375 -0.549078 0.895548 -0.415589 -0.158993 0.999858 0.0149729 0.00766507 
0.98447 -0.170529 0.0417027 -0.634444 0.455711 -0.624346 -0.665333 0.431553 -0.609175 
0.869153 0.475526 0.13582 -0.365448 0.911455 0.18894 -0.153217 -0.832968 -0.531685 
-0.115099 -0.7839 -0.610126 -0.393126 -0.539822 -0.744341 0.705764 -0.704889 -0.0709177 
0.842974 -0.533929 0.0656829 -0.512143 0.342439 -0.787684 -0.590247 0.746934 -0.306101 
0.638249 0.765888 0.0778095 0.0244184 -0.930951 -0.364327 0.249384 -0.848118 -0.467444 
0.545639 -0.837607 0.0263232 0.736498 -0.676384 0.00869417 0.904934 -0.416852 0.0856118 
-0.429224 0.410533 -0.804506 -0.484504 0.571782 -0.662058 -0.447226 0.762113 -0.468159 
0.998817 -0.0395939 -0.0282176 0.975199 0.219848 -0.0255804 0.239238 0.969232 0.0579107 