# vtk DataFile Version 4.2
vtk output
ASCII
DATASET POLYDATA
POINTS 837 float
350.727 240.752 110.304 350.708 240.683 110.327 350.656 240.729 110.301 
350.882 240.754 110.454 350.655 240.828 110.385 350.578 240.394 110.533 
350.564 240.176 110.743 350.318 240.36 110.679 350.736 240.527 110.456 
350.74 240.283 110.652 350.532 240.639 110.429 350.333 240.945 110.614 
350.793 241.12 110.559 350.481 241.345 110.727 351.113 241.311 110.665 
351.379 241.267 110.766 352.561 242.587 111.296 352.468 242.625 111.336 
352.562 242.645 111.282 352.589 242.618 111.334 352.535 242.697 111.363 
350.339 239.945 111.011 350.189 239.586 111.379 349.673 239.953 111.342 
349.652 240.309 111.171 349.478 240.687 111.251 351.517 240.582 110.98 
349.832 241.043 110.973 349.819 241.437 111.121 352.527 242.409 111.443 
352.185 242.49 111.371 352.64 242.686 111.539 352.302 242.844 111.565 
349.798 239.544 111.62 352.011 240.636 111.515 348.756 241.173 111.888 
352.018 241.985 111.317 352.084 241.307 111.372 352.679 241.724 111.867 
349.599 241.816 111.508 351.513 242.523 111.428 352.851 243.009 111.942 
353.255 242.748 112.266 352.398 243.366 111.992 352.893 243.513 112.213 
353.398 243.349 112.456 354.136 244.343 112.887 353.921 244.42 112.819 
354.091 244.526 112.865 354.202 244.573 112.947 353.95 244.679 112.977 
350.522 238.888 112.268 350.296 238.484 112.719 348.961 238.929 112.837 
352.191 240.146 112.103 347.919 240.544 112.749 347.399 240.357 113.381 
347.488 241.394 113.07 347.969 241.746 112.748 349.887 242.706 111.966 
353.779 244.003 112.749 353.467 244.44 112.834 354.289 244.756 113.138 
354.346 244.449 113.08 354.476 244.622 113.248 354.003 244.963 113.28 
354.287 244.979 113.365 354.467 244.837 113.353 354.076 245.186 113.718 
354.398 245.003 113.531 349.821 237.881 113.534 349.144 238.456 113.214 
346.762 241.051 113.839 346.652 241.481 113.973 348.273 242.738 113.073 
350.746 243.914 112.824 354.196 243.265 113.331 352.732 244.791 113.233 
354.494 244.313 113.373 354.565 244.634 113.485 354.529 244.86 113.574 
353.982 245.522 114.49 354.43 245.001 113.824 354.19 245.417 114.341 
350.417 237.435 114.152 349.845 237.611 113.921 351.663 237.969 114.222 
346.391 240.207 114.794 345.931 241.367 114.844 347.071 242.438 113.907 
354.573 244.679 113.844 353.662 245.598 115.05 354.005 245.54 114.713 
354.147 245.47 114.557 349.935 236.911 115.144 348.829 237.252 115.278 
351.492 237.415 115.129 354.39 241.955 115.168 354.491 242.534 114.702 
353.162 245.868 115.978 354.025 245.332 115.377 353.404 245.772 116.088 
350.521 236.667 115.726 352.539 238.225 115.925 346.59 238.541 116.182 
354.595 243.227 115.761 347.142 243.977 115.589 349.966 245.486 116.261 
353.952 245.178 116.081 352.7 245.913 116.665 354.459 242.641 116.746 
354.352 244.215 116.193 353.654 245.248 116.798 352.094 245.872 117.376 
352.675 245.865 117.022 353.483 245.578 116.687 353.257 245.657 116.911 
349.461 235.988 117.564 349.591 236.007 117.549 349.919 236.136 117.525 
352.047 237.638 118.2 342.648 241.975 118.796 354.421 242.232 116.718 
343.204 242.473 118.267 354.121 243.139 117.583 343.48 243.082 118.354 
353.306 245.367 117.296 351.161 245.949 118.397 351.847 245.867 118.269 
349.429 236.015 117.795 341.921 242.408 119.595 341.82 242.951 119.914 
342.655 243.297 119.323 342.8 243.863 119.687 346.556 245.296 118.752 
351.971 245.472 119.084 350.237 246.047 119.255 350.784 246.069 119.088 
349.114 236.099 119.837 350.687 236.618 119.735 346.552 236.911 119.277 
341.976 240.788 120.104 341.287 241.78 120.328 340.914 242.844 120.752 
343.973 244.746 119.911 347.571 246.001 120.595 349.395 246.06 120.19 
350.542 245.869 119.862 349.96 246.123 119.896 348.511 236.142 120.422 
353.284 242.913 119.653 340.543 243.485 121.429 341.1 243.847 121.178 
341.703 243.953 120.749 342.172 244.397 120.874 352.176 244.449 120.552 
345.942 245.883 121.077 348.413 246.073 121.313 348.943 246.052 121.174 
348.383 236.581 121.866 350.577 237.357 121.286 339.211 241.719 122.49 
338.92 242.293 122.601 338.444 242.499 123.026 341.134 244.603 122.011 
349.231 245.713 121.864 346.287 236.764 122.649 347.534 236.678 122.443 
349.885 237.396 122.138 350.724 239.245 123.049 352.163 241.365 121.722 
337.791 241.771 123.808 337.516 242.505 123.837 337.849 242.995 123.635 
341.682 245.171 122.458 342.084 245.536 122.848 346.23 246.336 123.425 
348.058 245.988 122.555 346.91 246.288 123.214 345.926 236.855 123.454 
344.315 237.172 123.831 347.988 237.207 123.372 349.129 237.937 123.494 
339.149 240.132 123.9 337.497 240.928 124.72 339.144 244.848 123.978 
349.642 244.252 123.862 342.925 246.154 123.637 346.827 246.135 124.233 
343.16 237.205 125.119 346.241 237.393 125.021 350.173 240.488 124.227 
349.803 242.345 124.765 348.855 243.891 125.365 340.028 245.853 124.905 
347.952 244.895 125.762 344.639 246.749 124.982 345.742 246.567 125.592 
344.866 237.168 125.371 340.277 238.219 125.477 347.799 239.582 126.5 
333.93 242.456 126.683 334.841 243.555 126.132 348.519 243.736 126.062 
348.708 243.124 126.135 342.642 246.961 125.889 345.973 238.079 126.987 
333.219 242.367 127.396 348.572 241.97 126.513 333.016 242.556 127.482 
332.853 242.75 127.602 348.67 242.61 126.343 332.958 243.244 127.554 
346.454 245.899 127.356 340.313 236.94 127.948 344.358 237.282 127.433 
333.372 244.751 128.085 340.984 236.131 129.655 342.544 236.546 129.369 
330.883 242.916 129.239 346.1 245.859 128.669 344.79 247.076 128.443 
343.066 247.659 129.049 343.625 247.537 129.081 346.591 244.443 129.143 
346.393 245.135 129.014 346.185 245.58 128.952 336.086 247.015 129.311 
339.053 248.065 130.261 343.794 247.467 129.473 344.133 247.289 129.302 
343.693 247.473 129.668 344.503 238.068 130.808 345.793 240.17 130.437 
343.218 247.155 130.745 339.474 248.252 131.316 340.579 248.067 130.79 
341.341 247.905 130.75 340.14 248.124 131.432 345.515 241.567 131.398 
326.266 242.369 132.843 326.064 242.53 132.892 345.289 242.763 131.618 
325.909 243.178 132.948 335.056 248.272 132.227 337.717 248.446 132.032 
339.299 248.255 131.879 339.838 234.137 133.382 343.835 237.813 132.826 
344.586 239.603 132.683 327.297 241.427 133.052 325.054 243.195 133.735 
325.536 243.629 133.311 339.169 248.179 132.541 339.664 233.829 133.875 
339.434 233.842 133.94 339.801 233.909 133.781 341.538 235.048 133.749 
344.347 240.254 133.304 343.767 242.504 133.487 324.382 242.381 134.665 
324.4 243.762 134.413 326.362 245.676 133.726 333.412 248.609 133.657 
335.848 248.623 134.253 336.492 248.652 133.889 336.463 248.61 134.134 
338.264 248.362 133.232 337.073 248.52 133.977 338.559 233.831 134.4 
338.502 233.747 134.683 338.7 233.781 134.738 343.053 237.329 134.58 
325.718 240.675 135.439 323.701 242.77 135.273 323.171 242.608 135.951 
324.154 245.476 135.48 330.566 248.883 135.206 336.785 248.402 134.387 
338.706 233.933 135.215 335.195 234.733 135.544 340.419 234.569 135.494 
341.324 234.99 134.855 342.248 236.155 135.236 342.419 236.554 135.276 
342.976 238.049 135.203 343.098 239.479 135.191 342.754 239.5 135.642 
342.579 239.785 135.777 323.963 241.487 135.992 341.998 241.523 135.757 
323.148 242.16 136.311 341.253 242.836 135.819 322.853 243.505 136.156 
326.499 247.955 136.008 330.956 249.247 136.1 335.356 248.355 135.845 
337.711 234.362 136.947 338.763 234.745 137.028 342.232 238.292 136.225 
325.738 239.59 137.215 326.537 248.926 137.16 333.988 234.87 137.676 
339.374 235.702 137.692 340.703 236.687 137.391 340.768 238.279 137.727 
340.858 238.857 137.625 340.452 238.582 137.972 321.885 242.619 138.2 
321.578 243.858 138.027 321.395 243.597 138.443 338.096 243.5 138.23 
322.074 246.135 137.939 336.223 246.218 137.787 326.924 249.758 138.458 
330.322 249.581 138.133 337.784 235.959 138.714 338.35 241.329 139.109 
323.771 248.98 138.987 330.468 236.022 139.83 333.695 235.822 139.836 
328.776 236.744 140.278 326.518 238.194 139.806 339.077 239.311 138.981 
320.819 243.505 140.678 320.449 244.619 140.513 321.098 246.568 139.555 
323.877 249.763 140.037 324.601 250.187 140.323 329.193 249.661 139.762 
326.403 250.371 140.619 327.105 250.347 140.421 330.211 236.015 140.731 
329.583 236.292 140.84 333.932 236.774 140.929 334.762 237.454 141.108 
335.843 238.071 140.913 336.372 240.642 140.972 320.483 246.147 140.659 
321.115 247.997 141.381 322.052 249.316 141.427 328.847 249.422 141.045 
322.796 250.01 141.568 324.816 250.601 141.363 324.426 250.681 141.731 
325.59 250.572 141.957 330.212 236.049 140.858 329.984 236.481 141.449 
330.221 236.711 141.748 336.116 239.32 141.133 323.658 240.497 142.384 
320.337 246.081 141.672 320.494 246.825 141.328 321.562 249.012 142.479 
323.39 250.593 142.181 323.208 250.623 142.549 326.107 250.32 142.53 
329.526 236.586 141.414 327.537 237.871 142.183 322.374 242.15 143.186 
320.534 245.642 142.825 320.508 246.867 142.45 321.171 248.415 142.938 
322.722 250.35 143.256 325.103 250.556 143.251 323.638 250.758 142.985 
333.562 239.369 142.683 325.658 240.153 144.092 323.199 241.839 144.026 
321.343 243.801 143.441 320.734 247.31 143.258 328.271 247.95 143.889 
324.247 250.641 143.751 323.09 250.567 143.469 326.846 239.412 143.875 
327.707 239.836 144.497 329.161 239.918 144.533 329.935 240.642 144.732 
321.196 247.445 144.222 323.706 250.404 144.306 323.021 250.34 144.161 
323.348 250.415 144.239 331.196 241.35 144.464 329.787 241.956 145.355 
329.879 242.369 145.402 321.426 245.334 144.664 321.443 246.81 144.827 
322.095 248.786 145.242 323.504 250.217 144.565 323.993 249.504 145.421 
326.645 241.483 145.692 326.91 241.947 146.033 327.078 242.585 146.35 
327.77 242.614 146.251 328.583 243.584 146.158 328.248 245.221 146.101 
322.369 246.968 146.089 322.475 248.156 145.97 322.339 248.887 145.47 
322.577 248.694 145.8 328.009 243.605 146.424 327.019 244.867 146.893 
323.365 245.646 146.663 322.833 247.765 146.36 325.321 247.171 146.933 
323.327 247.912 146.594 324.335 248.281 146.588 323.538 248.366 146.471 
323.388 248.825 146.09 323.94 248.238 146.632 325.671 244.765 147.183 
[...]
POINT_DATA 837
COLOR_SCALARS scalars 3
0.2 0.72549 0.196078 0.2 0.72549 0.196078 0.2 0.72549 0.196078 
0.2 0.72549 0.196078 0.2 0.72549 0.196078 
0.2 0.72549 0.196078 0.2 0.72549 0.196078 
0.2 0.72549 0.196078 0.2 0.72549 0.196078 
0.2 0.72549 0.196078 0.2 0.72549 0.196078 
0.2 0.72549 0.196078 0.2 0.72549 0.196078 
0.2 0.72549 0.196078 0.2 0.72549 0.196078 
0.2 0.72549 0.196078 0.2 0.72549 0.196078 
0.2 0.72549 0.196078 0.2 0.72549 0.196078 
0.2 0.72549 0.196078 0.2 0.72549 0.196078 
0.2 0.72549 0.196078 0.2 0.72549 0.196078 
0.2 0.72549 0.196078 0.2 0.72549 0.196078 
0.2 0.72549 0.196078 0.2 0.72549 0.196078 
0.2 0.72549 0.196078 0.2 0.72549 0.196078 
0.2 0.72549 0.196078 0.2 0.72549 0.196078 
0.2 0.72549 0.196078 0.2 0.72549 0.196078 
0.2 0.72549 0.196078 0.2 0.72549 0.196078 
0.2 0.72549 0.196078 0.2 0.72549 0.196078 
0.2 0.72549 0.196078 0.2 0.72549 0.196078 
0.2 0.72549 0.196078 0.2 0.72549 0.196078 
0.2 0.72549 0.196078 0.2 0.72549 0.196078 
0.2 0.72549 0.196078 0.2 0.72549 0.196078 
0.2 0.72549 0.196078 0.2 0.72549 0.196078 
0.2 0.72549 0.196078 0.2 0.72549 0.196078 
0.2 0.72549 0.196078 0.2 0.72549 0.196078 
0.2 0.72549 0.196078 0.2 0.72549 0.196078 
0.2 0.72549 0.196078 0.2 0.72549 0.196078 
0.2 0.72549 0.196078 0.2 0.72549 0.196078 
0.2 0.72549 0.196078 0.2 0.72549 0.196078 
0.2 0.72549 0.196078 0.2 0.72549 0.196078 
0.2 0.72549 0.196078 0.2 0.72549 0.196078 
0.2 0.72549 0.196078 0.2 0.72549 0.196078 
0.2 0.72549 0.196078 0.2 0.72549 0.196078 
0.2 0.72549 0.196078 0.2 0.72549 0.196078 
0.2 0.72549 0.196078 0.2 0.72549 0.196078 
0.2 0.72549 0.196078 0.2 0.72549 0.196078 
0.2 0.72549 0.196078 0.2 0.72549 0.196078 
0.2 0.72549 0.196078 0.2 0.72549 0.196078 
0.2 0.72549 0.196078 0.2 0.72549 0.196078 
0.2 0.72549 0.196078 0.2 0.72549 0.196078 
0.2 0.72549 0.196078 0.2 0.72549 0.196078 
0.2 0.72549 0.196078 0.2 0.72549 0.196078 
0.2 0.72549 0.196078 0.2 0.72549 0.196078 
0.2 0.72549 0.196078 0.2 0.72549 0.196078 
0.2 0.72549 0.196078 0.2 0.72549 0.196078 
0.2 0.72549 0.196078 0.2 0.72549 0.196078 
0.2 0.72549 0.196078 0.2 0.72549 0.196078 
0.2 0.72549 0.196078 0.2 0.72549 0.196078 
0.2 0.72549 0.196078 0.2 0.72549 0.196078 
0.2 0.72549 0.196078 0.2 0.72549 0.196078 
0.2 0.72549 0.196078 0.2 0.72549 0.196078 
0.2 0.72549 0.196078 0.2 0.72549 0.196078 
0.2 0.72549 0.196078 0.2 0.72549 0.196078 
0.2 0.72549 0.196078 0.2 0.72549 0.196078 
0.2 0.72549 0.196078 0.2 0.72549 0.196078 
0.2 0.72549 0.196078 0.2 0.72549 0.196078 
0.2 0.72549 0.196078 0.2 0.72549 0.196078 
0.2 0.72549 0.196078 0.2 0.72549 0.196078 
0.2 0.72549 0.196078 0.2 0.72549 0.196078 
0.2 0.72549 0.196078 0.2 0.72549 0.196078 
0.2 0.72549 0.196078 0.2 0.72549 0.196078 
0.2 0.72549 0.196078 0.2 0.72549 0.196078 
0.2 0.72549 0.196078 0.2 0.72549 0.196078 
0.2 0.72549 0.196078 0.2 0.72549 0.196078 
0.2 0.72549 0.196078 0.2 0.72549 0.196078 
0.2 0.72549 0.196078 0.2 0.72549 0.196078 
0.2 0.72549 0.196078 0.2 0.72549 0.196078 
0.2 0.72549 0.196078 0.2 0.72549 0.196078 
0.2 0.72549 0.196078 0.2 0.72549 0.196078 
0.2 0.72549 0.196078 0.2 0.72549 0.196078 
0.2 0.72549 0.196078 0.2 0.72549 0.196078 
0.2 0.72549 0.196078 0.2 0.72549 0.196078 
0.2 0.72549 0.196078 0.2 0.72549 0.196078 
0.2 0.72549 0.196078 0.2 0.72549 0.196078 
0.2 0.72549 0.196078 0.2 0.72549 0.196078 
0.2 0.72549 0.196078 0.2 0.72549 0.196078 
0.2 0.72549 0.196078 0.2 0.72549 0.196078 
0.2 0.72549 0.196078 0.2 0.72549 0.196078 
0.2 0.72549 0.196078 0.2 0.72549 0.196078 
0.2 0.72549 0.196078 0.2 0.72549 0.196078 
0.2 0.72549 0.196078 0.2 0.72549 0.196078 
0.2 0.72549 0.196078 0.2 0.72549 0.196078 
0.2 0.72549 0.196078 0.2 0.72549 0.196078 
0.2 0.72549 0.196078 0.2 0.72549 0.196078 
0.2 0.72549 0.196078 0.2 0.72549 0.196078 
0.2 0.72549 0.196078 0.2 0.72549 0.196078 
0.2 0.72549 0.196078 0.2 0.72549 0.196078 
0.2 0.72549 0.196078 0.2 0.72549 0.196078 
0.2 0.72549 0.196078 0.2 0.72549 0.196078 
0.2 0.72549 0.196078 0.2 0.72549 0.196078 
0.2 0.72549 0.196078 0.2 0.72549 0.196078 
0.2 0.72549 0.196078 0.2 0.72549 0.196078 
0.2 0.72549 0.196078 0.2 0.72549 0.196078 
0.2 0.72549 0.196078 0.2 0.72549 0.196078 
0.2 0.72549 0.196078 0.2 0.72549 0.196078 
0.2 0.72549 0.196078 0.2 0.72549 0.196078 
0.2 0.72549 0.196078 0.2 0.72549 0.196078 
0.2 0.72549 0.196078 0.2 0.72549 0.196078 
0.2 0.72549 0.196078 0.2 0.72549 0.196078 
0.2 0.72549 0.196078 0.2 0.72549 0.196078 
0.2 0.72549 0.196078 0.2 0.72549 0.196078 
0.2 0.72549 0.196078 0.2 0.72549 0.196078 
0.2 0.72549 0.196078 0.2 0.72549 0.196078 
0.2 0.72549 0.196078 0.2 0.72549 0.196078 
0.2 0.72549 0.196078 0.2 0.72549 0.196078 
0.2 0.72549 0.196078 0.2 0.72549 0.196078 
0.2 0.72549 0.196078 0.2 0.72549 0.196078 
0.2 0.72549 0.196078 0.2 0.72549 0.196078 
0.2 0.72549 0.196078 0.2 0.72549 0.196078 
0.2 0.72549 0.196078 0.2 0.72549 0.196078 
0.2 0.72549 0.196078 0.2 0.72549 0.196078 
0.2 0.72549 0.196078 0.2 0.72549 0.196078 
0.2 0.72549 0.196078 0.2 0.72549 0.196078 
0.2 0.72549 0.196078 0.2 0.72549 0.196078 
0.2 0.72549 0.196078 0.2 0.72549 0.196078 
0.2 0.72549 0.196078 0.2 0.72549 0.196078 
0.2 0.72549 0.196078 0.2 0.72549 0.196078 
0.2 0.72549 0.196078 0.2 0.72549 0.196078 
0.2 0.72549 0.196078 0.2 0.72549 0.196078 
0.2 0.72549 0.196078 0.2 0.72549 0.196078 
0.2 0.72549 0.196078 0.2 0.72549 0.196078 
0.2 0.72549 0.196078 0.2 0.72549 0.196078 
0.2 0.72549 0.196078 0.2 0.72549 0.196078 
0.2 0.72549 0.196078 0.2 0.72549 0.196078 
0.2 0.72549 0.196078 0.2 0.72549 0.196078 
0.2 0.72549 0.196078 0.2 0.72549 0.196078 
0.2 0.72549 0.196078 0.2 0.72549 0.196078 
0.2 0.72549 0.196078 0.2 0.72549 0.196078 
0.2 0.72549 0.196078 0.2 0.72549 0.196078 
0.2 0.72549 0.196078 0.2 0.72549 0.196078 
0.2 0.72549 0.196078 0.2 0.72549 0.196078 
0.2 0.72549 0.196078 0.2 0.72549 0.196078 
0.2 0.72549 0.196078 0.2 0.72549 0.196078 
0.2 0.72549 0.196078 0.2 0.72549 0.196078 
0.2 0.72549 0.196078 0.2 0.72549 0.196078 
0.2 0.72549 0.196078 0.2 0.72549 0.196078 
0.2 0.72549 0.196078 0.2 0.72549 0.196078 
0.2 0.72549 0.196078 0.2 0.72549 0.196078 
0.2 0.72549 0.196078 0.2 0.72549 0.196078 
0.2 0.72549 0.196078 0.2 0.72549 0.196078 
0.2 0.72549 0.196078 0.2 0.72549 0.196078 
0.2 0.72549 0.196078 0.2 0.72549 0.196078 
0.2 0.72549 0.196078 0.2 0.72549 0.196078 
0.2 0.72549 0.196078 0.2 0.72549 0.196078 
0.2 0.72549 0.196078 0.2 0.72549 0.196078 
0.2 0.72549 0.196078 0.2 0.72549 0.196078 
0.2 0.72549 0.196078 0.2 0.72549 0.196078 
0.2 0.72549 0.196078 0.2 0.72549 0.196078 
0.2 0.72549 0.196078 0.2 0.72549 0.196078 
0.2 0.72549 0.196078 0.2 0.72549 0.196078 
0.2 0.72549 0.196078 0.2 0.72549 0.196078 
0.2 0.72549 0.196078 0.2 0.72549 0.196078 
0.2 0.72549 0.196078 0.2 0.72549 0.196078 
0.2 0.72549 0.196078 0.2 0.72549 0.196078 
0.2 0.72549 0.196078 0.2 0.72549 0.196078 
0.2 0.72549 0.196078 0.2 0.72549 0.196078 
0.2 0.72549 0.196078 0.2 0.72549 0.196078 
0.2 0.72549 0.196078 0.2 0.72549 0.196078 
0.2 0.72549 0.196078 0.2 0.72549 0.196078 
0.2 0.72549 0.196078 0.2 0.72549 0.196078 
0.2 0.72549 0.196078 0.2 0.72549 0.196078 
0.2 0.72549 0.196078 0.2 0.72549 0.196078 
0.2 0.72549 0.196078 0.2 0.72549 0.196078 
0.2 0.72549 0.196078 0.2 0.72549 0.196078 
0.2 0.72549 0.196078 0.2 0.72549 0.196078 
0.2 0.72549 0.196078 0.2 0.72549 0.196078 
0.2 0.72549 0.196078 0.2 0.72549 0.196078 
0.2 0.72549 0.196078 0.2 0.72549 0.196078 
0.2 0.72549 0.196078 0.2 0.72549 0.196078 
0.2 0.72549 0.196078 0.2 0.72549 0.196078 
0.2 0.72549 0.196078 0.2 0.72549 0.196078 
0.2 0.72549 0.196078 0.2 0.72549 0.196078 
0.2 0.72549 0.196078 0.2 0.72549 0.196078 
0.2 0.72549 0.196078 0.2 0.72549 0.196078 
0.2 0.72549 0.196078 0.2 0.72549 0.196078 
0.2 0.72549 0.196078 0.2 0.72549 0.196078 
0.2 0.72549 0.196078 0.2 0.72549 0.196078 
0.2 0.72549 0.196078 0.2 0.72549 0.196078 
0.2 0.72549 0.196078 0.2 0.72549 0.196078 
0.2 0.72549 0.196078 0.2 0.72549 0.196078 
0.2 0.72549 0.196078 0.2 0.72549 0.196078 
0.2 0.72549 0.196078 0.2 0.72549 0.196078 
0.2 0.72549 0.196078 0.2 0.72549 0.196078 
0.2 0.72549 0.196078 0.2 0.72549 0.196078 
0.2 0.72549 0.196078 0.2 0.72549 0.196078 
0.2 0.72549 0.196078 0.2 0.72549 0.196078 
0.2 0.72549 0.196078 0.2 0.72549 0.196078 
0.2 0.72549 0.196078 0.2 0.72549 0.196078 
0.2 0.72549 0.196078 0.2 0.72549 0.196078 
0.2 0.72549 0.196078 0.2 0.72549 0.196078 
0.2 0.72549 0.196078 0.2 0.72549 0.196078 
0.2 0.72549 0.196078 0.2 0.72549 0.196078 
0.2 0.72549 0.196078 0.2 0.72549 0.196078 
0.2 0.72549 0.196078 0.2 0.72549 0.196078 
0.2 0.72549 0.196078 0.2 0.72549 0.196078 
0.2 0.72549 0.196078 0.2 0.72549 0.196078 
0.2 0.72549 0.196078 0.2 0.72549 0.196078 
0.2 0.72549 0.196078 0.2 0.72549 0.196078 
0.2 0.72549 0.196078 0.2 0.72549 0.196078 
0.2 0.72549 0.196078 0.2 0.72549 0.196078 
0.2 0.72549 0.196078 0.2 0.72549 0.196078 
0.2 0.72549 0.196078 0.2 0.72549 0.196078 
0.2 0.72549 0.196078 0.2 0.72549 0.196078 
0.2 0.72549 0.196078 0.2 0.72549 0.196078 
0.2 0.72549 0.196078 0.2 0.72549 0.196078 
0.2 0.72549 0.196078 0.2 0.72549 0.196078 
0.2 0.72549 0.196078 0.2 0.72549 0.196078 
0.2 0.72549 0.196078 0.2 0.72549 0.196078 
0.2 0.72549 0.196078 0.2 0.72549 0.196078 
0.2 0.72549 0.196078 0.2 0.72549 0.196078 
0.2 0.72549 0.196078 0.2 0.72549 0.196078 
0.2 0.72549 0.196078 0.2 0.72549 0.196078 
0.2 0.72549 0.196078 0.2 0.72549 0.196078 
0.2 0.72549 0.196078 0.2 0.72549 0.196078 
0.2 0.72549 0.196078 0.2 0.72549 0.196078 
0.2 0.72549 0.196078 0.2 0.72549 0.196078 
0.2 0.72549 0.196078 0.2 0.72549 0.196078 
0.2 0.72549 0.196078 0.2 0.72549 0.196078 
0.2 0.72549 0.196078 0.2 0.72549 0.196078 
0.2 0.72549 0.196078 0.2 0.72549 0.196078 
0.2 0.72549 0.196078 0.2 0.72549 0.196078 
0.2 0.72549 0.196078 0.2 0.72549 0.196078 
0.2 0.72549 0.196078 0.2 0.72549 0.196078 
0.2 0.72549 0.196078 0.2 0.72549 0.196078 
0.2 0.72549 0.196078 0.2 0.72549 0.196078 
0.2 0.72549 0.196078 0.2 0.72549 0.196078 
0.2 0.72549 0.196078 0.2 0.72549 0.196078 
0.2 0.72549 0.196078 0.2 0.72549 0.196078 
0.2 0.72549 0.196078 0.2 0.72549 0.196078 
0.2 0.72549 0.196078 0.2 0.72549 0.196078 
0.2 0.72549 0.196078 0.2 0.72549 0.196078 
0.2 0.72549 0.196078 0.2 0.72549 0.196078 
0.2 0.72549 0.196078 0.2 0.72549 0.196078 
0.2 0.72549 0.196078 0.2 0.72549 0.196078 
0.2 0.72549 0.196078 0.2 0.72549 0.196078 
0.2 0.72549 0.196078 0.2 0.72549 0.196078 
0.2 0.72549 0.196078 0.2 0.72549 0.196078 
0.2 0.72549 0.196078 0.2 0.72549 0.196078 
0.2 0.72549 0.196078 0.2 0.72549 0.196078 
0.2 0.72549 0.196078 0.2 0.72549 0.196078 
0.2 0.72549 0.196078 0.2 0.72549 0.196078 
0.2 0.72549 0.196078 0.2 0.72549 0.196078 
0.2 0.72549 0.196078 0.2 0.72549 0.196078 
0.2 0.72549 0.196078 0.2 0.72549 0.196078 
0.2 0.72549 0.196078 0.2 0.72549 0.196078 
0.2 0.72549 0.196078 0.2 0.72549 0.196078 
0.2 0.72549 0.196078 0.2 0.72549 0.196078 
0.2 0.72549 0.196078 0.2 0.72549 0.196078 
0.2 0.72549 0.196078 0.2 0.72549 0.196078 
0.2 0.72549 0.196078 0.2 0.72549 0.196078 
0.2 0.72549 0.196078 0.2 0.72549 0.196078 
0.2 0.72549 0.196078 0.2 0.72549 0.196078 
0.2 0.72549 0.196078 0.2 0.72549 0.196078 
0.2 0.72549 0.196078 0.2 0.72549 0.196078 
0.2 0.72549 0.196078 0.2 0.72549 0.196078 
0.2 0.72549 0.196078 0.2 0.72549 0.196078 
0.2 0.72549 0.196078 0.2 0.72549 0.196078 
0.2 0.72549 0.196078 0.2 0.72549 0.196078 
0.2 0.72549 0.196078 0.2 0.72549 0.196078 
0.2 0.72549 0.196078 0.2 0.72549 0.196078 
0.2 0.72549 0.196078 0.2 0.72549 0.196078 
0.2 0.72549 0.196078 0.2 0.72549 0.196078 
0.2 0.72549 0.196078 0.2 0.72549 0.196078 
0.2 0.72549 0.196078 0.2 0.72549 0.196078 
0.2 0.72549 0.196078 0.2 0.72549 0.196078 
0.2 0.72549 0.196078 0.2 0.72549 0.196078 
0.2 0.72549 0.196078 0.2 0.72549 0.196078 
0.2 0.72549 0.196078 0.2 0.72549 0.196078 
0.2 0.72549 0.196078 0.2 0.72549 0.196078 
0.2 0.72549 0.196078 0.2 0.72549 0.196078 
0.2 0.72549 0.196078 0.2 0.72549 0.196078 
0.2 0.72549 0.196078 0.2 0.72549 0.196078 
0.2 0.72549 0.196078 0.2 0.72549 0.196078 
0.2 0.72549 0.196078 0.2 0.72549 0.196078 
0.2 0.72549 0.196078 0.2 0.72549 0.196078 
0.2 0.72549 0.196078 0.2 0.72549 0.196078 
0.2 0.72549 0.196078 0.2 0.72549 0.196078 
0.2 0.72549 0.196078 0.2 0.72549 0.196078 
0.2 0.72549 0.196078 0.2 0.72549 0.196078 
0.2 0.72549 0.196078 0.2 0.72549 0.196078 
0.2 0.72549 0.196078 0.2 0.72549 0.196078 
0.2 0.72549 0.196078 0.2 0.72549 0.196078 
0.2 0.72549 0.196078 0.2 0.72549 0.196078 
0.2 0.72549 0.196078 0.2 0.72549 0.196078 
0.2 0.72549 0.196078 0.2 0.72549 0.196078 
0.2 0.72549 0.196078 0.2 0.72549 0.196078 
0.2 0.72549 0.196078 0.2 0.72549 0.196078 
0.2 0.72549 0.196078 0.2 0.72549 0.196078 
0.2 0.72549 0.196078 0.2 0.72549 0.196078 
0.2 0.72549 0.196078 0.2 0.72549 0.196078 
0.2 0.72549 0.196078 0.2 0.72549 0.196078 
0.2 0.72549 0.196078 0.2 0.72549 0.196078 
0.2 0.72549 0.196078 0.2 0.72549 0.196078 
0.2 0.72549 0.196078 0.2 0.72549 0.196078 
0.2 0.72549 0.196078 0.2 0.72549 0.196078 
0.2 0.72549 0.196078 0.2 0.72549 0.196078 
0.2 0.72549 0.196078 0.2 0.72549 0.196078 
0.2 0.72549 0.196078 0.2 0.72549 0.196078 
0.2 0.72549 0.196078 0.2 0.72549 0.196078 
0.2 0.72549 0.196078 0.2 0.72549 0.196078 
0.2 0.72549 0.196078 0.2 0.72549 0.196078 
0.2 0.72549 0.196078 0.2 0.72549 0.196078 
0.2 0.72549 0.196078 0.2 0.72549 0.196078 
0.2 0.72549 0.196078 0.2 0.72549 0.196078 
0.2 0.72549 0.196078 0.2 0.72549 0.196078 
0.2 0.72549 0.196078 0.2 0.72549 0.196078 
0.2 0.72549 0.196078 0.2 0.72549 0.196078 
0.2 0.72549 0.196078 0.2 0.72549 0.196078 
0.2 0.72549 0.196078 0.2 0.72549 0.196078 
0.2 0.72549 0.196078 0.2 0.72549 0.196078 
0.2 0.72549 0.196078 0.2 0.72549 0.196078 
0.2 0.72549 0.196078 0.2 0.72549 0.196078 
0.2 0.72549 0.196078 0.2 0.72549 0.196078 
0.2 0.72549 0.196078 0.2 0.72549 0.196078 
0.2 0.72549 0.196078 0.2 0.72549 0.196078 
0.2 0.72549 0.196078 0.2 0.72549 0.196078 
0.2 0.72549 0.196078 0.2 0.72549 0.196078 
0.2 0.72549 0.196078 0.2 0.72549 0.196078 
0.2 0.72549 0.196078 0.2 0.72549 0.196078 
0.2 0.72549 0.196078 0.2 0.72549 0.196078 
0.2 0.72549 0.196078 0.2 0.72549 0.196078 
0.2 0.72549 0.196078 0.2 0.72549 0.196078 
0.2 0.72549 0.196078 0.2 0.72549 0.196078 
0.2 0.72549 0.196078 0.2 0.72549 0.196078 
0.2 0.72549 0.196078 0.2 0.72549 0.196078 
0.2 0.72549 0.196078 0.2 0.72549 0.196078 
0.2 0.72549 0.196078 0.2 0.72549 0.196078 
0.2 0.72549 0.196078 0.2 0.72549 0.196078 
0.2 0.72549 0.196078 0.2 0.72549 0.196078 
0.2 0.72549 0.196078 0.2 0.72549 0.196078 
0.2 0.72549 0.196078 0.2 0.72549 0.196078 
0.2 0.72549 0.196078 0.2 0.72549 0.196078 
0.2 0.72549 0.196078 0.2 0.72549 0.196078 
0.2 0.72549 0.196078 0.2 0.72549 0.196078 
0.2 0.72549 0.196078 0.2 0.72549 0.196078 
0.2 0.72549 0.196078 0.2 0.72549 0.196078 
0.2 0.72549 0.196078 0.2 0.72549 0.196078 
0.2 0.72549 0.196078 0.2 0.72549 0.196078 
0.2 0.72549 0.196078 0.2 0.72549 0.196078 
0.2 0.72549 0.196078 0.2 0.72549 0.196078 
0.2 0.72549 0.196078 0.2 0.72549 0.196078 
0.2 0.72549 0.196078 0.2 0.72549 0.196078 
0.2 0.72549 0.196078 0.2 0.72549 0.196078 
0.2 0.72549 0.196078 0.2 0.72549 0.196078 
0.2 0.72549 0.196078 0.2 0.72549 0.196078 
0.2 0.72549 0.196078 0.2 0.72549 0.196078 
0.2 0.72549 0.196078 0.2 0.72549 0.196078 
0.2 0.72549 0.196078 0.2 0.72549 0.196078 
0.2 0.72549 0.196078 0.2 0.72549 0.196078 
0.2 0.72549 0.196078 0.2 0.72549 0.196078 
0.2 0.72549 0.196078 0.2 0.72549 0.196078 
0.2 0.72549 0.196078 0.2 0.72549 0.196078 
0.2 0.72549 0.196078 0.2 0.72549 0.196078 
0.2 0.72549 0.196078 0.2 0.72549 0.196078 
0.2 0.72549 0.196078 0.2 0.72549 0.196078 
0.2 0.72549 0.196078 0.2 0.72549 0.196078 
0.2 0.72549 0.196078 0.2 0.72549 0.196078 
0.2 0.72549 0.196078 0.2 0.72549 0.196078 
0.2 0.72549 0.196078 0.2 0.72549 0.196078 
0.2 0.72549 0.196078 0.2 0.72549 0.196078 
0.2 0.72549 0.196078 0.2 0.72549 0.196078 
0.2 0.72549 0.196078 0.2 0.72549 0.196078 
0.2 0.72549 0.196078 0.2 0.72549 0.196078 
0.2 0.72549 0.196078 0.2 0.72549 0.196078 
0.2 0.72549 0.196078 0.2 0.72549 0.196078 
0.2 0.72549 0.196078 0.2 0.72549 0.196078 
0.2 0.72549 0.196078 0.2 0.72549 0.196078 
0.2 0.72549 0.196078 0.2 0.72549 0.196078 
0.2 0.72549 0.196078 0.2 0.72549 0.196078 
0.2 0.72549 0.196078 0.2 0.72549 0.196078 
0.2 0.72549 0.196078 0.2 0.72549 0.196078 
0.2 0.72549 0.196078 0.2 0.72549 0.196078 
0.2 0.72549 0.196078 0.2 0.72549 0.196078 
0.2 0.72549 0.196078 0.2 0.72549 0.196078 
0.2 0.72549 0.196078 0.2 0.72549 0.196078 
0.2 0.72549 0.196078 0.2 0.72549 0.196078 
0.2 0.72549 0.196078 0.2 0.72549 0.196078 
0.2 0.72549 0.196078 0.2 0.72549 0.196078 
0.2 0.72549 0.196078 0.2 0.72549 0.196078 
0.2 0.72549 0.196078 0.2 0.72549 0.196078 
0.2 0.72549 0.196078 0.2 0.72549 0.196078 
0.2 0.72549 0.196078 0.2 0.72549 0.196078 
0.2 0.72549 0.196078 0.2 0.72549 0.196078 
0.2 0.72549 0.196078 0.2 0.72549 0.196078 
0.2 0.72549 0.196078 0.2 0.72549 0.196078 
0.2 0.72549 0.196078 0.2 0.72549 0.196078 
0.2 0.72549 0.196078 0.2 0.72549 0.196078 
0.2 0.72549 0.196078 0.2 0.72549 0.196078 
0.2 0.72549 0.196078 0.2 0.72549 0.196078 
0.2 0.72549 0.196078 0.2 0.72549 0.196078 
0.2 0.72549 0.196078 0.2 0.72549 0.196078 
0.2 0.72549 0.196078 0.2 0.72549 0.196078 
0.2 0.72549 0.196078 0.2 0.72549 0.196078 
0.2 0.72549 0.196078 0.2 0.72549 0.196078 
0.2 0.72549 0.196078 0.2 0.72549 0.196078 
0.2 0.72549 0.196078 0.2 0.72549 0.196078 
0.2 0.72549 0.196078 0.2 0.72549 0.196078 
0.2 0.72549 0.196078 0.2 0.72549 0.196078 
0.2 0.72549 0.196078 0.2 0.72549 0.196078 
0.2 0.72549 0.196078 0.2 0.72549 0.196078 
0.2 0.72549 0.196078 0.2 0.72549 0.196078 
0.2 0.72549 0.196078 0.2 0.72549 0.196078 
0.2 0.72549 0.196078 0.2 0.72549 0.196078 
0.2 0.72549 0.196078 0.2 0.72549 0.196078 
0.2 0.72549 0.196078 0.2 0.72549 0.196078 
0.2 0.72549 0.196078 0.2 0.72549 0.196078 
0.2 0.72549 0.196078 0.2 0.72549 0.196078 
0.2 0.72549 0.196078 0.2 0.72549 0.196078 
0.2 0.72549 0.196078 0.2 0.72549 0.196078 
0.2 0.72549 0.196078 0.2 0.72549 0.196078 
0.2 0.72549 0.196078 0.2 0.72549 0.196078 
0.2 0.72549 0.196078 0.2 0.72549 0.196078 
0.2 0.72549 0.196078 0.2 0.72549 0.196078 
0.2 0.72549 0.196078 0.2 0.72549 0.196078 
0.2 0.72549 0.196078 0.2 0.72549 0.196078 
0.2 0.72549 0.196078 0.2 0.72549 0.196078 
0.2 0.72549 0.196078 0.2 0.72549 0.196078 
0.2 0.72549 0.196078 0.2 0.72549 0.196078 

NORMALS Normals float
0.333845 0.233764 -0.913182 0.206946 -0.549827 -0.809237 -0.345143 0.00162115 -0.938549 
0.589252 -0.0520159 -0.806273 -0.203408 0.570452 -0.795745 -0.12819 -0.576188 -0.807202 
-0.0741662 -0.718176 -0.691898 -0.490131 -0.370781 -0.788856 0.244041 -0.556045 -0.794517 
0.34879 -0.685601 -0.638981 -0.491303 -0.265363 -0.82958 -0.504158 0.236859 -0.830495 
0.0634637 0.37164 -0.926205 -0.28488 0.487878 -0.825117 0.19033 0.376991 -0.90645 
0.499061 0.0624234 -0.864315 0.269112 -0.448393 -0.852363 -0.396251 0.126942 -0.909325 
0.305833 0.380109 -0.872917 0.943985 0.0714319 -0.322164 0.277139 0.820996 -0.499159 
-0.107328 -0.708831 -0.697166 -0.0722909 -0.701865 -0.708632 -0.580313 -0.460737 -0.671534 
-0.665439 -0.265377 -0.697686 -0.689698 -0.0118215 -0.724001 0.623594 -0.364518 -0.691562 
-0.582395 0.161223 -0.796758 -0.588428 0.332495 -0.737021 0.518376 -0.380869 -0.765653 
-0.0375452 0.169549 -0.984806 0.782362 0.312412 -0.538802 0.00129134 0.674717 -0.738076 
-0.430968 -0.658006 -0.617491 0.700496 -0.466262 -0.540282 -0.624419 0.260969 -0.736203 
0.396775 0.0852133 -0.913952 0.72703 -0.139391 -0.672308 0.750182 -0.240208 -0.616057 
-0.551465 0.41738 -0.722274 -0.0578987 0.520986 -0.851599 0.472994 0.425266 -0.771638 
0.735209 -0.067442 -0.674477 0.114393 0.6424 -0.757784 0.1938 0.514376 -0.835379 
0.499028 0.200531 -0.843065 0.586049 -0.1259 -0.800435 0.0991745 0.257751 -0.961108 
0.265859 0.335656 -0.903689 0.526053 0.360096 -0.770454 0.0504207 0.652295 -0.756287 
0.0494446 -0.760179 -0.647829 0.0212739 -0.762723 -0.646375 -0.450792 -0.644647 -0.617427 
0.755267 -0.441492 -0.484413 -0.683432 -0.293057 -0.668609 -0.673224 -0.286817 -0.681546 
-0.696978 0.0196381 -0.716824 -0.645725 0.243019 -0.723865 -0.391825 0.580249 -0.713992 
0.414709 0.0880051 -0.905689 -0.0148684 0.537984 -0.842824 0.454262 0.537051 -0.71079 
0.758278 -0.0119091 -0.651823 0.828427 0.122494 -0.546537 0.015181 0.781968 -0.623134 