# vtk DataFile Version 4.2
vtk output
ASCII
DATASET POLYDATA
POINTS 611 float
420.818 105.395 166.645 420.744 105.262 166.665 420.669 105.443 166.618 
419.965 106.41 166.583 420.777 105.605 166.708 420.209 106.171 166.619 
419.735 106.976 166.732 419.595 107.151 166.879 419.955 106.943 166.748 
421.318 104.103 167.104 421.687 103.655 167.427 419.5 104.571 166.836 
421.344 104.5 167.043 420.291 105.52 166.659 418.815 105.765 166.883 
420.624 106.177 166.815 418.553 106.274 167.015 418.238 106.513 167.247 
420.163 107.162 167.02 420.637 107.214 167.312 421.727 101.717 168.199 
420.59 102.353 167.625 421.459 102.876 167.597 422.057 104.368 167.585 
421.59 105.466 167.274 416.434 105.544 168.031 421.557 106.594 167.652 
419.756 108.637 168.185 420.169 108.892 168.463 423.734 100.468 169.605 
423.745 100.321 169.669 423.893 100.494 169.807 419.829 101.646 168.104 
422.746 101.646 168.791 417.15 102.908 168.055 417.857 107.578 168.119 
418.995 108.761 168.458 423.689 99.196 170.488 423.611 99.5005 170.126 
424.044 99.3047 170.658 423.67 100.011 169.862 424.044 99.8494 170.234 
421.722 100.026 169.305 422.981 100.62 169.308 424.184 100.229 170.265 
423.436 101.51 169.371 422.463 107.417 169.365 420.223 110.912 169.82 
420.642 111.245 170.135 422.769 98.9433 170.427 418.661 99.8732 169.785 
424.414 100.67 170.481 411.981 102.558 170.757 413.496 105.136 169.92 
418.809 110.349 169.664 418.998 114.511 170.889 418.461 115.398 171.06 
419.983 114.845 171.254 417.861 116.988 171.429 418.143 117.554 171.442 
418.571 117.691 171.471 418.801 118.101 171.653 418.074 119.027 171.878 
424.86 99.3587 171.837 424.988 99.6756 171.876 418.44 111.712 170.417 
417.863 116.005 171.299 417.04 116.287 171.828 419.739 116.972 171.826 
419.495 117.567 171.938 418.758 118.476 171.803 419.073 118.212 171.937 
417.552 119.123 172.285 418.833 118.668 172.025 418.021 119.217 172.051 
418.095 119.333 172.272 423.12 97.6161 172.734 425.138 99.3003 172.929 
425.238 100.278 172.427 421.586 112.918 172.1 420.63 116.142 172.535 
419.777 117.659 172.333 418.722 118.949 172.261 417.316 119.326 172.672 
408.884 103.691 172.772 419.676 118.276 172.964 418.817 119.302 173.454 
417.536 119.811 173.414 418.013 119.748 173.411 419.784 96.2693 174.231 
423.469 97.4394 174.406 407.665 101.519 174.581 406.782 102.614 174.874 
406.892 103.132 174.481 406.92 103.537 174.434 414.936 115.702 173.829 
415.915 119.168 174.526 417.434 120.071 173.986 417.799 119.969 174.091 
417.224 120.14 174.194 415.104 96.2089 174.936 417.465 95.8699 174.938 
424.983 98.7704 174.947 425.624 99.692 175.435 425.742 99.9192 175.807 
406.621 102.875 175.053 425.74 101.597 175.388 406.708 103.346 174.684 
406.535 103.828 175.171 406.694 104.935 175.392 420.693 117.455 174.68 
416.281 119.656 174.669 417.13 120.178 174.503 418.473 95.6589 175.307 
413.612 95.8758 176.014 408.096 99.8193 176.601 425.727 99.9279 176.369 
407.068 101.571 176.207 425.792 100.378 176.611 406.564 103.023 175.421 
406.492 103.665 175.489 407.766 108.674 175.882 415.302 119.353 176.113 
419.238 119.236 175.762 416.434 119.932 175.311 414.189 95.1577 177.04 
416.467 94.9157 177.402 413.108 95.4325 177.101 417.112 95.1042 177.017 
421.063 96.1836 176.776 409.805 97.6572 177.742 422.782 97.1418 176.986 
424.01 97.9405 176.745 407.858 100.181 176.794 425.282 99.2317 176.998 
425.127 99.1894 177.46 425.208 104.135 176.336 409.005 111.096 176.428 
411.249 115.18 177.255 415.359 119.718 177.054 416.923 120.125 176.646 
412.685 95.2386 178.172 411.765 95.6688 178.603 411.285 96.0822 178.734 
418.428 95.2807 177.473 410.839 96.5246 178.752 406.916 108.931 178.219 
407.5 110.306 177.874 411.67 116.92 178.231 421.607 116.075 178.528 
420.552 117.872 177.816 415.065 119.798 177.899 414.467 94.7488 178.637 
409.616 98.1072 178.551 409.607 114.915 178.86 412.009 117.778 178.718 
419.666 118.396 179.567 414.648 119.708 178.36 416.954 120.053 178.234 
411.846 95.6213 179.595 412.109 95.5128 179.845 412.61 95.3064 179.921 
415.261 94.7452 179.271 411.837 95.748 179.927 411.26 96.4719 179.97 
410.078 98.2037 179.797 425.242 102.596 180.03 407.126 110.723 179.773 
407.119 110.871 179.71 407.2 111.012 179.63 407.432 111.486 179.764 
421.49 116.018 180.054 412.46 118.564 179.295 414.381 119.743 179.759 
415.782 120.061 179.282 417.512 119.565 179.863 415.316 120.018 179.21 
413.199 95.2115 180.362 411.664 96.1133 180.219 417.975 95.8266 180.613 
411.151 97.7617 181.245 409.667 100.819 181.01 407.191 111.004 179.816 
407.284 110.911 180.161 408.785 114.824 180.393 411.097 118.139 181.033 
418.808 118.523 181.063 414.927 119.892 179.777 414.147 95.1117 180.766 
415.351 95.3235 181.194 424.894 102.166 181.229 407.712 112.111 181.235 
421.813 114.671 182.159 408.794 115.073 181.291 419.193 117.897 181.887 
411.313 118.349 181.704 411.706 118.616 181.778 414.993 119.556 181.114 
413.517 95.561 181.332 411.251 99.9359 182.852 424.618 103.382 182.417 
408.37 114.071 181.978 409.102 115.498 182.695 409.598 116.522 182.604 
410.854 117.741 182.708 412.105 118.551 182.487 413.216 118.78 182.636 
424.392 103.403 183.163 423.501 109.089 183.81 409.086 115.019 183.156 
410.381 117.326 182.956 415.457 96.7354 183.365 418.155 98.0565 184.22 
413.117 99.8421 185.169 409.019 111.058 184.246 420.769 114.521 185.404 
411.451 116.005 185.194 417.952 116.888 184.827 414.736 97.8473 184.424 
423.126 102.896 185.653 423.717 104.575 185.545 410.516 114.401 185.479 
410.495 114.709 185.317 413.238 116.575 185.583 416.108 98.8069 185.749 
421.29 101.973 187.221 410.982 111.414 186.761 420.065 113.973 187.187 
412.401 113.977 187.189 412.757 115.371 186.453 418.128 115.283 186.978 
416.585 100.633 187.856 419.562 101.781 188.524 422.544 103.488 187.675 
422.872 103.964 187.52 423.353 105.778 187.42 412.399 105.61 188.061 
411.263 109.716 187.272 414.944 114.631 187.947 422.085 103.226 188.133 
413.923 103.348 189.155 420.074 112.571 189.048 416.308 114.653 188.106 
415.662 101.502 188.761 414.782 102.81 189.686 417.783 102.272 190.353 
414.566 112.685 189.432 418.131 112.854 189.808 416.159 102.368 190.261 
416.681 102.338 190.462 416.38 102.645 190.885 418.476 102.609 190.855 
414.59 104.007 190.851 414.202 104.715 190.913 416.922 112.101 190.668 
416.226 103.168 191.731 420.09 103.543 191.563 418.458 111.054 191.686 
415.051 104.469 192.273 414.936 104.936 192.522 414.303 106.238 191.883 
414.348 107.068 192.008 421.38 107.69 192.315 420.947 108.691 192.619 
417.665 103.616 193.814 415.752 104.363 193.569 419.518 104.044 193.293 
419.884 104.496 193.589 415.105 105.235 193.021 420.396 104.993 193.389 
421.121 106.289 192.948 415.426 106.731 193.55 416.85 103.874 194.191 
416.386 104.045 194.043 417.327 103.737 194.131 417.246 103.95 194.622 
418.273 103.911 194.305 416.46 106.764 194.79 420.583 107.212 194.03 
417.165 107.55 194.777 417.351 107.904 194.556 416.908 104.073 194.725 
416.349 104.535 194.694 418.515 104.514 195.223 416.225 104.928 194.739 
417.054 106.742 195.253 419.792 106.701 195.038 416.866 104.28 194.999 
417.19 104.455 195.366 418.283 104.665 195.608 419.276 105.845 195.522 
417.04 105.866 195.627 419.191 106.16 195.604 417.814 106.3 195.764 
418.349 106.26 195.815 418.833 106.217 195.748 416.946 104.832 195.53 
417.281 104.771 195.717 417.993 104.68 195.754 417.862 104.85 195.905 
418.659 105.225 195.787 418.528 105.468 195.956 417.524 105.895 195.853 
417.741 105.523 196.007 418.183 105.509 196.031 417.554 104.941 195.909 
417.527 105.234 195.974 418.033 104.783 259.053 417.864 104.527 259.3 
417.712 104.796 259.084 418.197 104.605 259.203 417.873 104.973 258.974 
417.682 104.989 259.015 418.236 105.093 258.999 418.574 105.317 259.032 
418.716 105.102 259.16 418.894 105.394 259.175 417.795 105.274 259.036 
418.718 105.566 259.111 417.194 104.647 259.587 417.961 104.271 259.682 
418.484 104.592 259.335 417.439 104.962 259.211 416.995 105.109 259.595 
419.167 105.75 259.377 419.677 105.712 259.704 417.378 105.664 259.268 
418.631 105.923 259.236 417.1 104.031 260.383 419.541 104.921 259.932 
420.128 105.913 260.041 419.977 105.425 260.032 420.419 105.75 260.322 
416.742 105.508 259.858 417.327 106.509 259.724 419.114 106.921 259.869 
419.499 104.263 260.65 416.208 105.022 260.585 416.06 104.736 260.941 
420.758 105.819 260.689 416.325 105.608 260.417 420.894 106.069 260.831 
416.504 106.988 260.576 420.327 106.916 260.559 417.293 107.57 260.374 
416.993 107.761 260.667 418.099 108.169 260.692 416.828 103.538 261.864 
417.781 103.525 261.352 416.133 104.4 261.126 419.871 104.355 260.964 
420.68 105.198 261.033 415.322 105.815 261.98 416.055 106.872 261.052 
415.887 107.532 261.477 416.05 108.363 261.69 418.787 109.165 261.686 
419.864 103.896 262.024 415.338 108.599 262.552 416.25 109.299 262.242 
420.615 103.982 262.91 421.139 104.327 263.099 421.381 104.832 262.864 
415.652 109.317 262.702 420.272 109.454 262.776 416.218 102.52 264.391 
418.666 102.763 263.709 418.312 102.566 264.068 420.632 103.585 263.799 
422.45 105.383 264.662 422.497 105.926 264.497 414.21 109.297 264.189 
416.585 101.796 265.452 421.966 104.279 264.815 421.605 110.767 266.215 
413.769 102.166 267.128 413.405 103.144 266.837 421.81 103.139 266.229 
423.035 107.38 266.526 419.818 113.446 267.062 421.125 101.878 267.57 
422.879 103.642 267.347 414.16 100.222 268.556 418.524 99.8441 268.718 
422.955 102.485 269.015 423.813 104.134 269.217 409.938 112.046 269.674 
422.402 111.307 269.252 413.514 116.736 269.6 414.508 97.5558 270.887 
416.138 97.2609 270.965 414.869 98.0858 270.215 413.497 99.2889 269.916 
424.157 104.879 270.086 409.613 113.337 270.289 410.873 115.309 269.84 
412.181 116.511 269.911 416.657 116.908 269.664 415.193 96.6694 271.636 
420.769 115.22 271.126 410.519 116.862 271.494 415.142 95.6469 273.056 
424.754 103.283 272.361 424.299 106.685 272.236 408.387 112.487 271.953 
409.179 115.678 272.837 410.061 116.998 272.283 410.371 117.306 272.364 
414.816 118.714 271.995 414.216 95.147 274.159 412.102 97.0084 273.281 
[...]
POINT_DATA 611
COLOR_SCALARS scalars 3
1 0.478431 1 1 0.478431 1 1 0.478431 1 
1 0.478431 1 1 0.478431 1 
1 0.478431 1 1 0.478431 1 
1 0.478431 1 1 0.478431 1 
1 0.478431 1 1 0.478431 1 
1 0.478431 1 1 0.478431 1 
1 0.478431 1 1 0.478431 1 
1 0.478431 1 1 0.478431 1 
1 0.478431 1 1 0.478431 1 
1 0.478431 1 1 0.478431 1 
1 0.478431 1 1 0.478431 1 
1 0.478431 1 1 0.478431 1 
1 0.478431 1 1 0.478431 1 
1 0.478431 1 1 0.478431 1 
1 0.478431 1 1 0.478431 1 
1 0.478431 1 1 0.478431 1 
1 0.478431 1 1 0.478431 1 
1 0.478431 1 1 0.478431 1 
1 0.478431 1 1 0.478431 1 
1 0.478431 1 1 0.478431 1 
1 0.478431 1 1 0.478431 1 
1 0.478431 1 1 0.478431 1 
1 0.478431 1 1 0.478431 1 
1 0.478431 1 1 0.478431 1 
1 0.478431 1 1 0.478431 1 
1 0.478431 1 1 0.478431 1 
1 0.478431 1 1 0.478431 1 
1 0.478431 1 1 0.478431 1 
1 0.478431 1 1 0.478431 1 
1 0.478431 1 1 0.478431 1 
1 0.478431 1 1 0.478431 1 
1 0.478431 1 1 0.478431 1 
1 0.478431 1 1 0.478431 1 
1 0.478431 1 1 0.478431 1 
1 0.478431 1 1 0.478431 1 
1 0.478431 1 1 0.478431 1 
1 0.478431 1 1 0.478431 1 
1 0.478431 1 1 0.478431 1 
1 0.478431 1 1 0.478431 1 
1 0.478431 1 1 0.478431 1 
1 0.478431 1 1 0.478431 1 
1 0.478431 1 1 0.478431 1 
1 0.478431 1 1 0.478431 1 
1 0.478431 1 1 0.478431 1 
1 0.478431 1 1 0.478431 1 
1 0.478431 1 1 0.478431 1 
1 0.478431 1 1 0.478431 1 
1 0.478431 1 1 0.478431 1 
1 0.478431 1 1 0.478431 1 
1 0.478431 1 1 0.478431 1 
1 0.478431 1 1 0.478431 1 
1 0.478431 1 1 0.478431 1 
1 0.478431 1 1 0.478431 1 
1 0.478431 1 1 0.478431 1 
1 0.478431 1 1 0.478431 1 
1 0.478431 1 1 0.478431 1 
1 0.478431 1 1 0.478431 1 
1 0.478431 1 1 0.478431 1 
1 0.478431 1 1 0.478431 1 
1 0.478431 1 1 0.478431 1 
1 0.478431 1 1 0.478431 1 
1 0.478431 1 1 0.478431 1 
1 0.478431 1 1 0.478431 1 
1 0.478431 1 1 0.478431 1 
1 0.478431 1 1 0.478431 1 
1 0.478431 1 1 0.478431 1 
1 0.478431 1 1 0.478431 1 
1 0.478431 1 1 0.478431 1 
1 0.478431 1 1 0.478431 1 
1 0.478431 1 1 0.478431 1 
1 0.478431 1 1 0.478431 1 
1 0.478431 1 1 0.478431 1 
1 0.478431 1 1 0.478431 1 
1 0.478431 1 1 0.478431 1 
1 0.478431 1 1 0.478431 1 
1 0.478431 1 1 0.478431 1 
1 0.478431 1 1 0.478431 1 
1 0.478431 1 1 0.478431 1 
1 0.478431 1 1 0.478431 1 
1 0.478431 1 1 0.478431 1 
1 0.478431 1 1 0.478431 1 
1 0.478431 1 1 0.478431 1 
1 0.478431 1 1 0.478431 1 
1 0.478431 1 1 0.478431 1 
1 0.478431 1 1 0.478431 1 
1 0.478431 1 1 0.478431 1 
1 0.478431 1 1 0.478431 1 
1 0.478431 1 1 0.478431 1 
1 0.478431 1 1 0.478431 1 
1 0.478431 1 1 0.478431 1 
1 0.478431 1 1 0.478431 1 
1 0.478431 1 1 0.478431 1 
1 0.478431 1 1 0.478431 1 
1 0.478431 1 1 0.478431 1 
1 0.478431 1 1 0.478431 1 
1 0.478431 1 1 0.478431 1 
1 0.478431 1 1 0.478431 1 
1 0.478431 1 1 0.478431 1 
1 0.478431 1 1 0.478431 1 
1 0.478431 1 1 0.478431 1 
1 0.478431 1 1 0.478431 1 
1 0.478431 1 1 0.478431 1 
1 0.478431 1 1 0.478431 1 
1 0.478431 1 1 0.478431 1 
1 0.478431 1 1 0.478431 1 
1 0.478431 1 1 0.478431 1 
1 0.478431 1 1 0.478431 1 
1 0.478431 1 1 0.478431 1 
1 0.478431 1 1 0.478431 1 
1 0.478431 1 1 0.478431 1 
1 0.478431 1 1 0.478431 1 
1 0.478431 1 1 0.478431 1 
1 0.478431 1 1 0.478431 1 
1 0.478431 1 1 0.478431 1 
1 0.478431 1 1 0.478431 1 
1 0.478431 1 1 0.478431 1 
1 0.478431 1 1 0.478431 1 
1 0.478431 1 1 0.478431 1 
1 0.478431 1 1 0.478431 1 
1 0.478431 1 1 0.478431 1 
1 0.478431 1 1 0.478431 1 
1 0.478431 1 1 0.478431 1 
1 0.478431 1 1 0.478431 1 
1 0.478431 1 1 0.478431 1 
1 0.478431 1 1 0.478431 1 
1 0.478431 1 1 0.478431 1 
1 0.478431 1 1 0.478431 1 
1 0.478431 1 1 0.478431 1 
1 0.478431 1 1 0.478431 1 
1 0.478431 1 1 0.478431 1 
1 0.478431 1 1 0.478431 1 
1 0.478431 1 1 0.478431 1 
1 0.478431 1 1 0.478431 1 
1 0.478431 1 1 0.478431 1 
1 0.478431 1 1 0.478431 1 
1 0.478431 1 1 0.478431 1 
1 0.478431 1 1 0.478431 1 
1 0.478431 1 1 0.478431 1 
1 0.478431 1 1 0.478431 1 
1 0.478431 1 1 0.478431 1 
1 0.478431 1 1 0.478431 1 
1 0.478431 1 1 0.478431 1 
1 0.478431 1 1 0.478431 1 
1 0.478431 1 1 0.478431 1 
1 0.478431 1 1 0.478431 1 
1 0.478431 1 1 0.478431 1 
1 0.478431 1 1 0.478431 1 
1 0.478431 1 1 0.478431 1 
1 0.478431 1 1 0.478431 1 
1 0.478431 1 1 0.478431 1 
1 0.478431 1 1 0.478431 1 
1 0.478431 1 1 0.478431 1 
1 0.478431 1 1 0.478431 1 
1 0.478431 1 1 0.478431 1 
1 0.478431 1 1 0.478431 1 
1 0.478431 1 1 0.478431 1 
1 0.478431 1 1 0.478431 1 
1 0.478431 1 1 0.478431 1 
1 0.478431 1 1 0.478431 1 
1 0.478431 1 1 0.478431 1 
1 0.478431 1 1 0.478431 1 
1 0.478431 1 1 0.478431 1 
1 0.478431 1 1 0.478431 1 
1 0.478431 1 1 0.478431 1 
1 0.478431 1 1 0.478431 1 
1 0.478431 1 1 0.478431 1 
1 0.478431 1 1 0.478431 1 
1 0.478431 1 1 0.478431 1 
1 0.478431 1 1 0.478431 1 
1 0.478431 1 1 0.478431 1 
1 0.478431 1 1 0.478431 1 
1 0.478431 1 1 0.478431 1 
1 0.478431 1 1 0.478431 1 
1 0.478431 1 1 0.478431 1 
1 0.478431 1 1 0.478431 1 
1 0.478431 1 1 0.478431 1 
1 0.478431 1 1 0.478431 1 
1 0.478431 1 1 0.478431 1 
1 0.478431 1 1 0.478431 1 
1 0.478431 1 1 0.478431 1 
1 0.478431 1 1 0.478431 1 
1 0.478431 1 1 0.478431 1 
1 0.478431 1 1 0.478431 1 
1 0.478431 1 1 0.478431 1 
1 0.478431 1 1 0.478431 1 
1 0.478431 1 1 0.478431 1 
1 0.478431 1 1 0.478431 1 
1 0.478431 1 1 0.478431 1 
1 0.478431 1 1 0.478431 1 
1 0.478431 1 1 0.478431 1 
1 0.478431 1 1 0.478431 1 
1 0.478431 1 1 0.478431 1 
1 0.478431 1 1 0.478431 1 
1 0.478431 1 1 0.478431 1 
1 0.478431 1 1 0.478431 1 
1 0.478431 1 1 0.478431 1 
1 0.478431 1 1 0.478431 1 
1 0.478431 1 1 0.478431 1 
1 0.478431 1 1 0.478431 1 
1 0.478431 1 1 0.478431 1 
1 0.478431 1 1 0.478431 1 
1 0.478431 1 1 0.478431 1 
1 0.478431 1 1 0.478431 1 
1 0.478431 1 1 0.478431 1 
1 0.478431 1 1 0.478431 1 
1 0.478431 1 1 0.478431 1 
1 0.478431 1 1 0.478431 1 
1 0.478431 1 1 0.478431 1 
1 0.478431 1 1 0.478431 1 
1 0.478431 1 1 0.478431 1 
1 0.478431 1 1 0.478431 1 
1 0.478431 1 1 0.478431 1 
1 0.478431 1 1 0.478431 1 
1 0.478431 1 1 0.478431 1 
1 0.478431 1 1 0.478431 1 
1 0.478431 1 1 0.478431 1 
1 0.478431 1 1 0.478431 1 
1 0.478431 1 1 0.478431 1 
1 0.478431 1 1 0.478431 1 
1 0.478431 1 1 0.478431 1 
1 0.478431 1 1 0.478431 1 
1 0.478431 1 1 0.478431 1 
1 0.478431 1 1 0.478431 1 
1 0.478431 1 1 0.478431 1 
1 0.478431 1 1 0.478431 1 
1 0.478431 1 1 0.478431 1 
1 0.478431 1 1 0.478431 1 
1 0.478431 1 1 0.478431 1 
1 0.478431 1 1 0.478431 1 
1 0.478431 1 1 0.478431 1 
1 0.478431 1 1 0.478431 1 
1 0.478431 1 1 0.478431 1 
1 0.478431 1 1 0.478431 1 
1 0.478431 1 1 0.478431 1 
1 0.478431 1 1 0.478431 1 
1 0.478431 1 1 0.478431 1 
1 0.478431 1 1 0.478431 1 
1 0.478431 1 1 0.478431 1 
1 0.478431 1 1 0.478431 1 
1 0.478431 1 1 0.478431 1 
1 0.478431 1 1 0.478431 1 
1 0.478431 1 1 0.478431 1 
1 0.478431 1 1 0.478431 1 
1 0.478431 1 1 0.478431 1 
1 0.478431 1 1 0.478431 1 
1 0.478431 1 1 0.478431 1 
1 0.478431 1 1 0.478431 1 
1 0.478431 1 1 0.478431 1 
1 0.478431 1 1 0.478431 1 
1 0.478431 1 1 0.478431 1 
1 0.478431 1 1 0.478431 1 
1 0.478431 1 1 0.478431 1 
1 0.478431 1 1 0.478431 1 
1 0.478431 1 1 0.478431 1 
1 0.478431 1 1 0.478431 1 
1 0.478431 1 1 0.478431 1 
1 0.478431 1 1 0.478431 1 
1 0.478431 1 1 0.478431 1 
1 0.478431 1 1 0.478431 1 
1 0.478431 1 1 0.478431 1 
1 0.478431 1 1 0.478431 1 
1 0.478431 1 1 0.478431 1 
1 0.478431 1 1 0.478431 1 
1 0.478431 1 1 0.478431 1 
1 0.478431 1 1 0.478431 1 
1 0.478431 1 1 0.478431 1 
1 0.478431 1 1 0.478431 1 
1 0.478431 1 1 0.478431 1 
1 0.478431 1 1 0.478431 1 
1 0.478431 1 1 0.478431 1 
1 0.478431 1 1 0.478431 1 
1 0.478431 1 1 0.478431 1 
1 0.478431 1 1 0.478431 1 
1 0.478431 1 1 0.478431 1 
1 0.478431 1 1 0.478431 1 
1 0.478431 1 1 0.478431 1 
1 0.478431 1 1 0.478431 1 
1 0.478431 1 1 0.478431 1 
1 0.478431 1 1 0.478431 1 
1 0.478431 1 1 0.478431 1 
1 0.478431 1 1 0.478431 1 
1 0.478431 1 1 0.478431 1 
1 0.478431 1 1 0.478431 1 
1 0.478431 1 1 0.478431 1 
1 0.478431 1 1 0.478431 1 
1 0.478431 1 1 0.478431 1 
1 0.478431 1 1 0.478431 1 
1 0.478431 1 1 0.478431 1 
1 0.478431 1 1 0.478431 1 
1 0.478431 1 1 0.478431 1 
1 0.478431 1 1 0.478431 1 
1 0.478431 1 1 0.478431 1 
1 0.478431 1 1 0.478431 1 
1 0.478431 1 1 0.478431 1 
1 0.478431 1 1 0.478431 1 
1 0.478431 1 1 0.478431 1 
1 0.478431 1 1 0.478431 1 
1 0.478431 1 1 0.478431 1 
1 0.478431 1 1 0.478431 1 
1 0.478431 1 1 0.478431 1 
1 0.478431 1 1 0.478431 1 
1 0.478431 1 1 0.478431 1 
1 0.478431 1 1 0.478431 1 
1 0.478431 1 1 0.478431 1 
1 0.478431 1 1 0.478431 1 

NORMALS Normals float
0.387855 0.0452389 -0.920609 -0.0406661 -0.367474 -0.929144 0.0585361 0.0797448 -0.995095 
0.17897 0.193051 -0.964728 0.355882 0.330854 -0.874005 0.317233 0.0794953 -0.94501 
-0.119645 0.396958 -0.910005 -0.127919 0.651784 -0.747539 0.293058 0.514849 -0.805635 
0.323762 -0.278027 -0.904366 0.421616 -0.36454 -0.830271 -0.0851462 -0.255293 -0.963107 
0.299172 -0.22044 -0.928387 0.0133871 -0.0914107 -0.995723 -0.412166 -0.0493903 -0.909769 
0.392018 0.264696 -0.881055 -0.424403 0.157029 -0.891753 -0.507997 0.239724 -0.827328 
0.373225 0.629092 -0.68187 0.399329 0.601435 -0.691962 0.246767 -0.486771 -0.83795 
0.0120244 -0.430056 -0.902722 0.449296 -0.288276 -0.845594 0.718087 -0.069475 -0.692478 
0.686474 0.182231 -0.70395 -0.528048 0.147179 -0.836363 0.596166 0.364964 -0.715113 
-0.0443264 0.645571 -0.762413 0.235223 0.604814 -0.760836 0.38849 -0.259515 -0.884154 
0.491952 -0.43426 -0.754587 0.793144 -0.165927 -0.585996 -0.108326 -0.611944 -0.783448 
0.467923 -0.321047 -0.823394 -0.300404 -0.444389 -0.843965 -0.420102 0.539792 -0.729478 
-0.227113 0.636943 -0.736698 0.429378 -0.74979 -0.503438 0.352487 -0.564326 -0.746518 
0.659725 -0.614747 -0.432261 0.351833 -0.471576 -0.808597 0.647946 -0.410925 -0.641333 
0.0758447 -0.601412 -0.795331 0.32721 -0.360968 -0.87329 0.792878 -0.259719 -0.551262 
0.642327 -0.0885124 -0.761302 0.848392 0.319978 -0.421717 -0.0684289 0.496855 -0.865132 
0.489906 0.399185 -0.775012 0.131538 -0.786629 -0.603251 -0.174747 -0.688605 -0.703766 
0.877819 0.00449661 -0.478972 -0.474656 -0.36829 -0.799415 -0.545163 0.32664 -0.772077 
-0.38671 0.466882 -0.795284 -0.0410102 0.226615 -0.973121 -0.198641 0.0611271 -0.978164 
0.42797 0.288822 -0.856401 -0.32514 0.155324 -0.932823 -0.26922 0.1952 -0.94309 
0.257464 0.225821 -0.93953 0.508421 0.220682 -0.832351 0.0883212 0.538382 -0.83806 
0.758301 -0.542227 -0.361898 0.91301 -0.210785 -0.349261 -0.349371 0.257989 -0.900767 
-0.464327 -0.0131351 -0.885567 -0.571753 0.0513101 -0.81882 0.699359 0.348967 -0.623793 
0.597402 0.444853 -0.667246 0.397891 0.447802 -0.800722 0.680409 0.339063 -0.649676 
-0.574538 0.424898 -0.699548 0.610124 0.607878 -0.508165 -0.116005 0.833285 -0.540536 
0.362697 0.80838 -0.463651 0.400416 -0.842377 -0.360651 0.884909 -0.43857 -0.156819 
0.974297 -0.0870353 -0.207773 0.915547 0.272731 -0.295621 0.786872 0.352708 -0.506388 
0.77772 0.432999 -0.455701 0.60307 0.696732 -0.388422 -0.486515 0.692842 -0.532234 
-0.61351 -0.00664063 -0.789659 0.725801 0.579561 -0.370571 0.61485 0.774503 -0.148676 
-0.0505248 0.904495 -0.42348 0.181004 0.939769 -0.289952 0.162488 -0.904331 -0.394693 
0.581774 -0.811199 -0.0591106 -0.670849 -0.526881 -0.521879 -0.851264 -0.433591 -0.295548 
-0.732339 -0.199604 -0.651028 -0.663349 0.29644 -0.687089 -0.738036 0.334676 -0.585913 
-0.817492 0.477333 -0.322273 0.199621 0.955556 -0.216941 0.372039 0.923242 -0.095977 
-0.37388 0.852881 -0.364426 -0.19144 -0.774854 -0.602455 -0.011251 -0.909718 -0.415074 
0.831083 -0.555981 -0.0136107 0.93879 -0.320262 -0.126911 0.930872 -0.364949 -0.0170189 
-0.925341 -0.255156 -0.280428 0.985351 0.0900175 -0.144843 -0.918855 -0.036764 -0.392879 
-0.934235 0.119914 -0.335895 -0.822829 0.332293 -0.461013 0.896143 0.425279 -0.126754 
-0.653965 0.698096 -0.291533 -0.00880405 0.99786 -0.0647898 0.057192 -0.957166 -0.283836 
-0.325903 -0.762154 -0.559382 -0.791537 -0.601091 -0.110272 0.962338 -0.250336 0.106003 
-0.924172 -0.346613 0.160519 0.987695 -0.0679042 0.140882 -0.971638 -0.236275 -0.00964384 
-0.979793 -0.0205264 0.198956 -0.663035 0.37448 -0.648189 -0.697346 0.670533 -0.253167 
0.638326 0.769226 -0.0288335 -0.669288 0.73394 -0.115697 -0.0732618 -0.93703 -0.341478 
0.0216866 -0.953498 -0.30062 -0.397735 -0.83926 -0.370743 0.20694 -0.968952 -0.135306 
0.408592 -0.912661 0.0101055 -0.682047 -0.710466 -0.173349 0.500143 -0.852423 0.152423 
0.636078 -0.757931 0.144724 -0.882064 -0.380622 0.277651 0.787497 -0.607188 0.105697 
0.769095 -0.54832 0.328388 0.926661 0.375228 0.0224309 -0.629405 0.420788 -0.653289 
-0.501739 0.2001 -0.841557 -0.715524 0.656589 -0.238572 0.0145684 0.999492 -0.0283489 
-0.361561 -0.921466 -0.142037 -0.569524 -0.802986 -0.175658 -0.737221 -0.670854 0.0803782 
0.215014 -0.974567 -0.0631603 -0.780372 -0.615279 0.11158 -0.878403 0.320713 -0.354331 
-0.863178 0.360069 -0.35394 -0.726684 0.545412 -0.417679 0.901986 0.43114 -0.0232206 
0.716429 0.696403 0.0418583 -0.432251 0.875793 -0.214818 -0.149062 -0.987743 -0.0463166 
-0.807044 -0.528512 0.263355 -0.751492 0.42539 -0.504284 -0.367779 0.591769 -0.717319 
0.645192 0.745428 0.167525 -0.404255 0.878487 -0.254634 0.276365 0.958335 0.0722191 
-0.57098 -0.814987 0.0988837 -0.46587 -0.821819 0.327991 -0.369573 -0.911654 0.179729 
0.144216 -0.987763 0.0593874 -0.464273 -0.706419 0.534249 -0.767862 -0.570285 0.291828 
-0.787626 -0.482309 0.383436 0.935991 0.185548 0.299154 -0.998782 0.00984045 0.048354 
-0.9637 0.116543 -0.240209 -0.892039 0.278246 -0.356153 -0.906692 0.420129 -0.0374367 
0.823818 0.538408 0.177316 -0.651021 0.728713 -0.212484 -0.33454 0.94054 0.0588774 
-0.030085 0.998507 0.045595 0.307277 0.88739 0.343685 -0.127684 0.991516 0.0243453 
-0.377599 -0.845027 0.378615 -0.527409 -0.664571 0.529326 0.357469 -0.881807 0.307623 
-0.586372 -0.543033 0.601068 -0.851436 -0.22815 0.472232 -0.912534 0.349506 0.21243 
-0.930161 0.121527 0.346457 -0.851113 0.470621 -0.232642 -0.700203 0.691315 -0.178324 
0.465715 0.795577 0.387513 -0.218868 0.971193 0.0942432 -0.0468329 -0.94756 0.316127 
0.166573 -0.90126 0.39998 0.93141 0.0537873 0.359976 -0.963499 0.143375 0.226081 
0.844165 0.484652 0.229124 -0.859227 0.508229 -0.0585885 0.502972 0.782437 0.367167 
-0.607254 0.778072 0.160767 -0.438786 0.895736 0.0715848 0.00786113 0.931259 0.364272 
-0.416794 -0.701983 0.577497 -0.722543 -0.370921 0.583395 0.962779 0.0279215 0.268842 
-0.938997 0.295146 0.176562 -0.908565 0.357318 0.216411 -0.794741 0.566618 0.217555 
-0.586365 0.76792 0.257826 -0.382136 0.806298 0.451504 -0.155134 0.911785 0.38024 
0.964477 0.0315186 0.262279 0.964729 0.208938 0.160132 -0.837486 0.335397 0.431424 
-0.622869 0.680203 0.386469 -0.00530611 -0.790355 0.612626 0.281299 -0.778962 0.560437 
-0.623742 -0.470432 0.624212 -0.861972 0.0268256 0.506247 0.71352 0.575987 0.398908 
-0.500677 0.574717 0.64732 0.271354 0.829923 0.487437 -0.176092 -0.708067 0.683837 
0.866534 -0.35229 0.353569 0.930678 -0.156572 0.33064 -0.655974 0.314132 0.686308 
-0.651361 0.403555 0.642552 0.0287562 0.771376 0.63573 -0.185664 -0.738162 0.648572 
0.495886 -0.747806 0.441456 -0.906027 -0.0704804 0.417309 0.440267 0.69157 0.572621 
-0.256174 0.491235 0.832504 -0.178957 0.515908 0.837743 0.221142 0.786749 0.5763 
0.134412 -0.822621 0.552475 0.517467 -0.772659 0.36773 0.805 -0.461089 0.373325 
0.903462 -0.279182 0.32529 0.957014 0.136769 0.25577 -0.900274 -0.305238 0.31038 
-0.933265 -0.0931622 0.346897 -0.178737 0.719944 0.670622 0.693735 -0.557337 0.456188 
-0.665206 -0.523406 0.532491 0.555671 0.646372 0.522908 0.0839176 0.745061 0.661696 
-0.340696 -0.76345 0.548698 -0.559386 -0.605999 0.565555 0.0989569 -0.913091 0.395566 
-0.35532 0.530724 0.769467 0.325271 0.719137 0.614036 -0.264 -0.866506 0.423641 
-0.0953322 -0.92463 0.368742 -0.359503 -0.777769 0.51559 0.256523 -0.920573 0.29452 
-0.687599 -0.5256 0.500951 -0.857238 -0.255796 0.446892 -0.132399 0.619552 0.773709 
-0.456207 -0.811528 0.365101 0.652402 -0.735113 0.184339 0.105504 0.638804 0.762101 
-0.732976 -0.573352 0.366079 -0.889605 -0.205705 0.407784 -0.88196 -0.196773 0.428283 
-0.876495 0.0882272 0.473256 0.891376 0.157607 0.424981 0.771649 0.390194 0.502301 
-0.0203591 -0.945631 0.324605 -0.675053 -0.642064 0.363397 0.476912 -0.808309 0.345241 
0.601611 -0.682167 0.415586 -0.828988 -0.191116 0.525598 0.792461 -0.455888 0.405182 
0.872299 -0.146846 0.466401 -0.838381 0.0725005 0.540241 -0.378517 -0.888166 0.26055 
-0.716559 -0.569011 0.403449 -0.0775866 -0.940973 0.329469 -0.00391178 -0.854112 0.520074 
0.260663 -0.868145 0.422349 -0.685096 0.309944 0.659226 0.820755 -0.000900805 0.57128 
-0.26586 0.594455 0.758908 -0.218794 0.631317 0.744021 -0.39713 -0.803782 0.442969 
-0.722584 -0.432978 0.538889 0.508069 -0.681366 0.526883 -0.794103 -0.108512 0.598018 
-0.538375 0.346868 0.768007 0.399864 0.545613 0.736489 -0.388162 -0.703005 0.595914 
-0.289322 -0.685765 0.667847 0.331258 -0.679069 0.655082 0.723928 -0.263189 0.637699 
-0.5616 0.232853 0.793968 0.529246 0.0434386 0.847356 -0.152998 0.513722 0.844204 
0.103684 0.486006 0.867783 0.284387 0.370965 0.88403 -0.669575 -0.210081 0.712415 
-0.201985 -0.578 0.790644 0.182717 -0.673451 0.716295 0.00163004 -0.415991 0.909367 
0.554189 -0.384672 0.738175 0.337755 -0.172482 0.925295 -0.271002 0.292213 0.917153 
-0.110446 0.0594312 0.992104 0.0248838 0.126319 0.991678 -0.175334 -0.539615 0.823452 
-0.462447 -0.0184138 0.886456 0.109936 -0.485122 -0.867508 -0.151091 -0.805672 -0.572768 
-0.404949 -0.551531 -0.729267 0.155123 -0.706306 -0.690702 -0.075948 -0.152724 -0.985346 
-0.429265 -0.070953 -0.900387 0.193341 -0.182663 -0.963978 0.147923 0.122657 -0.981363 
0.536679 -0.430958 -0.725432 0.585078 -0.142419 -0.798373 -0.230088 0.232397 -0.945014 
0.300305 0.233921 -0.924715 -0.657003 -0.450634 -0.604381 -0.123597 -0.921004 -0.369425 
0.327187 -0.652505 -0.68351 -0.615181 -0.120633 -0.779102 -0.755671 -0.157977 -0.635613 
0.606824 -0.0156503 -0.794682 0.52383 0.21338 -0.824664 -0.416748 0.255261 -0.872447 
0.108416 0.47901 -0.871089 -0.432931 -0.753839 -0.494265 0.596199 -0.444403 -0.66862 
0.652001 0.0576945 -0.75602 0.627586 -0.397958 -0.669153 0.707074 -0.231346 -0.668225 
-0.801429 0.0167008 -0.597857 -0.426917 0.41941 -0.801147 0.323662 0.489994 -0.809413 
0.463382 -0.784802 -0.411538 -0.758858 -0.29945 -0.578329 -0.87024 -0.0912489 -0.484104 
0.762503 -0.05449 -0.644686 -0.835551 0.0799353 -0.543567 0.8761 -0.0265098 -0.4814 
-0.706387 0.295925 -0.642998 0.597546 0.409038 -0.689656 -0.332167 0.525547 -0.78324 
-0.495112 0.504542 -0.70732 0.00802275 0.630046 -0.776517 -0.284115 -0.878464 -0.384161 
0.112535 -0.936632 -0.331748 -0.729136 -0.484542 -0.483301 0.467308 -0.836934 -0.284895 
0.734682 -0.505708 -0.452218 -0.887057 0.00513058 -0.461632 -0.750573 0.20538 -0.62806 
-0.775448 0.257233 -0.576638 -0.68696 0.319701 -0.652592 0.147678 0.677309 -0.720725 
0.42619 -0.847644 -0.316008 -0.725824 0.233756 -0.646945 -0.3214 0.663944 -0.675189 
0.516851 -0.766603 -0.381032 0.731666 -0.541249 -0.414386 0.782614 -0.470025 -0.408157 
-0.478518 0.75386 -0.45024 0.553232 0.566948 -0.610331 -0.346823 -0.787732 -0.509109 
0.172218 -0.933237 -0.315291 0.187522 -0.882418 -0.431478 0.47715 -0.807947 -0.345759 
0.887002 -0.309119 -0.343034 0.913623 -0.200952 -0.353429 -0.749877 0.113717 -0.65173 
-0.157577 -0.814303 -0.558642 0.669413 -0.623196 -0.404367 0.838985 0.42406 -0.340996 
-0.458646 -0.625043 -0.631637 -0.706379 -0.512982 -0.487727 0.656778 -0.62746 -0.418254 
0.933449 0.159827 -0.321136 0.574097 0.67599 -0.462008 0.486108 -0.752032 -0.445138 
0.730557 -0.527588 -0.433518 -0.44197 -0.590863 -0.67494 0.264161 -0.799351 -0.539681 
0.722939 -0.56897 -0.39196 0.91781 -0.0442792 -0.394544 -0.792711 -0.0224865 -0.609182 
0.865356 0.433598 -0.251298 -0.198142 0.663032 -0.721892 -0.461564 -0.731702 -0.501569 
0.0869409 -0.765919 -0.637031 -0.142245 -0.690181 -0.709519 -0.682317 -0.52483 -0.508918 
0.9158 0.0574504 -0.397504 -0.793155 0.283353 -0.539089 -0.628828 0.381458 -0.677543 
-0.342444 0.662171 -0.66653 0.174629 0.770604 -0.612923 -0.384313 -0.786967 -0.482687 
0.80189 0.542306 -0.250752 -0.395702 0.759609 -0.516154 0.147304 -0.852249 -0.50197 