# vtk DataFile Version 4.2
vtk output
ASCII
DATASET POLYDATA
POINTS 676 float
417.702 46.0761 197.793 417.661 45.9195 198.13 418 45.9816 197.955 
417.62 46.2307 197.652 417.466 46.4063 197.625 417.905 46.19 197.723 
417.701 46.4021 197.604 416.742 46.1721 198.359 417.901 45.6465 198.647 
418.443 46.1113 197.967 419.079 45.8559 198.42 416.096 46.8362 198.187 
418.723 46.538 197.829 416.33 47.1211 197.894 416.881 46.9706 197.714 
418.766 46.9893 197.746 416.115 47.5654 197.879 416.248 47.9325 197.806 
418.488 47.4255 197.688 416.627 48.0668 197.709 417.708 48.0686 197.646 
409.519 68.3629 198.372 409.465 68.1091 198.476 409.357 68.3038 198.538 
409.606 68.1426 198.384 409.3 68.5603 198.638 409.706 68.3345 198.324 
410.045 68.6948 198.39 410.256 68.5469 198.406 409.418 68.7963 198.585 
409.533 69.0022 198.735 409.932 69.3184 198.953 419.831 46.8242 198.148 
413.83 47.7494 199.276 413.789 47.8786 199.093 414.285 47.455 199.218 
419.24 47.3009 197.887 418.817 47.9582 197.83 420.474 47.7998 198.31 
414.068 48.8825 198.732 414.251 49.3341 198.629 416.302 48.5267 197.886 
409.525 67.3444 199.056 409.249 68.2101 198.841 410.93 68.1071 198.63 
411.588 67.5564 198.857 411.924 67.7364 198.953 411.948 68.5195 199.009 
409.288 68.799 199.033 409.365 68.8951 199.404 411.372 69.1393 198.961 
412.321 68.8246 199.267 409.743 69.4253 199.528 409.973 69.5984 199.278 
417.056 45.4585 200.057 416.485 45.8142 199.537 413.684 47.9307 199.196 
413.502 48.1027 199.495 412.12 49.8192 200.132 414.805 52.1339 198.943 
410.313 65.2036 199.754 411.007 65.7649 199.408 409.368 66.8756 199.766 
409.192 68.181 199.266 409.22 68.5736 199.246 411.646 69.3983 199.198 
410.413 69.9168 199.458 410.725 70.0414 199.579 411.2 70.0211 199.624 
410.543 70.1404 199.878 412.067 49.2052 200.564 411.93 49.1526 201.042 
413.362 52.281 199.423 417.853 53.6462 199.183 412.578 54.6703 200.015 
410.291 64.5585 200.108 409.783 64.5491 200.532 411.079 63.7511 200.185 
411.997 64.4112 199.911 412.601 64.625 199.928 414.038 67.3332 200.059 
413.313 68.6703 199.845 411.34 70.3633 200.064 411.887 70.303 200.14 
411.066 70.4938 200.363 411.071 53.0105 200.709 410.127 54.6662 201.64 
410.97 55.3864 200.9 410.274 56.0275 201.44 410.37 57.5923 201.392 
412.325 57.1315 200.464 410.525 59.1704 201.275 410.085 58.52 201.664 
410.847 62.0295 200.774 410.12 62.9994 200.912 409.25 65.1739 201.288 
413.922 64.957 200.181 409.497 69.0586 201.346 409.98 69.9449 201.161 
412.172 70.7671 200.795 411.573 70.8481 200.911 418.409 44.9973 202.274 
426.848 46.0353 202.366 412.294 48.435 201.739 429.339 48.6338 203.392 
427.134 49.8902 202.08 428.892 49.8051 203.067 409.944 53.2715 202.446 
409.692 55.3248 202.325 409.738 56.1287 202.178 409.706 57.096 202.247 
409.53 61.2198 202.29 409.224 64.2587 202.024 421.671 63.6421 201.644 
409.11 66.0795 201.959 409.213 66.7439 202.555 413.76 70.1862 200.945 
410.11 69.9677 202.756 413.088 70.6771 201.024 410.944 70.9308 201.711 
412.737 71.0453 201.291 410.865 71.0363 202.302 412.026 71.5277 201.963 
424.732 45.0999 202.953 429.331 47.5913 203.592 429.282 47.9417 203.432 
409.758 54.0113 202.596 409.499 57.3113 202.849 409.215 64.9004 203.33 
424.489 64.7337 202.816 412.8 71.6199 202.001 411.379 72.1629 203.875 
412.273 72.0776 202.64 428.755 46.4874 203.827 413.983 47.208 204.128 
429.157 46.9537 203.868 431.01 49.464 204.898 410.307 51.7192 203.783 
409.527 54.6927 203.442 409.494 54.9751 203.874 412.01 73.2479 204.073 
413.424 73.4601 203.602 411.745 74.0115 205.028 413.844 74.3031 204.164 
411.988 74.4773 204.857 411.898 74.6395 205.147 412.36 74.7014 204.719 
413.09 74.7406 204.522 412.293 75.1159 204.948 412.741 75.4258 205.129 
412.153 75.1173 205.005 428.878 46.169 204.998 429.409 46.6329 205.068 
409.349 57.6692 204.265 409.391 58.8719 205.021 427.046 65.0765 204.385 
414.859 75.8447 205.3 412.271 75.323 205.398 412.276 75.2462 205.097 
412.593 75.8119 205.87 414.108 76.2571 205.469 413.003 76.3481 205.911 
413.222 76.6868 206.148 431.221 48.4353 206.023 431.354 51.1386 205.452 
427.758 69.5645 205.927 411.158 71.9465 206.041 426.595 70.935 206.263 
411.706 74.2146 206.097 412.641 76.0658 206.56 415.914 76.7675 206.322 
414.965 77.2772 206.35 413.672 77.2805 206.764 414.043 77.4306 206.678 
425.353 44.9818 206.126 428.209 45.7732 206.757 412.148 49.5969 206.879 
429.867 68.429 206.723 427.874 72.161 207.493 412.286 75.1781 207.165 
414.79 77.7055 206.953 413.904 77.6244 207.603 414.4 77.9615 207.806 
432.781 51.7301 208.303 433.027 54.3764 208.346 432.698 55.3441 207.919 
429.21 71.7265 207.587 414.061 77.7568 208.043 415.495 77.8319 207.476 
416.002 77.7529 207.685 414.37 78.0666 208.185 414.433 78.1553 208.068 
414.565 78.1834 208.158 415.025 78.1612 208.49 414.469 78.1971 208.169 
428.725 46.2364 208.089 430.336 47.6355 209.377 431.675 49.2243 209.401 
433.429 54.1107 209.325 413.394 76.2093 208.92 413.748 77.0729 208.667 
414.874 77.9284 209.138 416.283 77.9436 208.39 414.58 78.1752 208.304 
415.286 78.2268 209.096 415.255 78.3069 208.862 415.402 78.3059 208.884 
415.911 78.1816 209.003 415.354 78.3326 208.982 433.193 52.4103 209.515 
433.199 52.507 210.213 433.674 58.507 209.603 434.588 69.7623 210.072 
432.419 72.6053 209.598 433.811 72.9354 210.683 415.68 78.2037 209.454 
415.517 78.2962 209.085 418.274 46.948 211.035 430.066 48.3282 211.534 
433.376 53.3233 211.027 433.671 54.5348 210.645 434.181 57.3516 211.052 
434.221 57.9435 210.88 434.496 60.4498 210.817 435.256 63.0284 211.691 
434.855 67.3785 210.396 435.663 68.8945 211.462 435.517 69.8906 211.356 
435.508 70.2645 211.586 434.569 72.7398 211.402 425.09 75.3818 209.824 
434.678 72.7663 211.666 416.087 77.8281 210.801 432.925 52.5418 211.848 
434.516 58.5997 212.115 435.18 62.1477 211.968 435.3 62.6997 212.084 
435.518 64.9436 212.114 435.739 67.7263 212.407 435.067 72.2231 212.734 
414.754 74.0773 211.998 434.143 73.7462 212.393 424.697 77.0633 211.239 
416.209 77.675 211.147 422.042 77.9485 211.701 416.972 77.8234 211.588 
418.572 78.1938 211.609 429.533 48.4153 212.515 415.895 49.2224 213.59 
433.54 54.9381 212.684 435.334 63.1643 213.307 435.43 71.2456 212.861 
417.495 76.8112 213.192 432.542 75.66 213.072 432.191 76.1285 213.49 
417.4 77.9244 211.722 418.674 78.0651 212.673 429.421 77.9021 213.099 
420.212 78.4704 212.635 417.008 48.4655 213.727 429.615 49.3838 214.087 
413.396 53.7945 213.537 434.175 58.48 214.085 418.093 77.376 213.213 
420.617 78.6429 213.581 424.606 79.354 213.485 426.243 79.465 213.726 
428.649 78.9778 214.055 423.409 79.5814 213.945 435.39 68.1514 214.764 
435.619 68.762 213.929 419.822 77.1546 214.966 429.511 78.8831 214.745 
430.044 78.5285 214.911 422.529 79.5209 214.729 427.622 79.9005 214.855 
428.396 79.586 215.049 429.089 79.2076 215.019 423.096 79.7627 214.78 
424.395 80.1229 214.88 425.295 80.2308 214.86 426.686 80.2506 214.919 
416.577 49.9716 215.479 415.922 50.6428 215.368 415.081 52.2195 215.258 
422.103 78.6133 215.74 430.5 78.0642 215.642 429.963 78.3779 215.941 
422.577 79.2672 215.41 422.92 79.2056 215.773 427.117 80.2156 215.113 
428.252 79.7155 215.53 423.748 79.9519 215.202 424.417 80.2185 215.266 
424.311 80.1495 215.486 427.018 80.344 215.519 427.414 80.1754 215.703 
427.825 79.933 215.734 424.713 80.2889 215.472 426.346 80.4271 215.855 
426.775 80.4414 215.748 427.075 80.3096 215.805 426.576 80.4713 215.802 
422.513 48.2105 215.783 415.686 57.9457 216.84 417.609 67.6806 217.128 
433.715 71.7669 216.8 422.172 77.029 216.79 430.967 77.1827 216.205 
423.605 78.6027 216.624 428.876 78.4587 216.836 424.989 78.9894 216.948 
427.99 79.0283 216.781 425.275 79.3741 216.745 427.375 79.983 216.053 
418.436 49.8347 216.81 424.531 49.4518 217.285 426.524 50.306 217.575 
434.084 68.6005 217.221 432.75 73.2576 217.225 426.447 77.8308 217.71 
426.105 79.045 217.066 421.613 49.6318 217.525 419.999 51.4697 218.454 
422.213 50.783 218.521 428.468 53.1132 218.663 418.961 53.9801 218.854 
431 73.1302 218.78 426.955 52.8057 219.215 431.467 60.5213 219.81 
425.851 72.8439 219.795 425.426 53.8466 220.02 431.341 62.6901 220.569 
424.823 65.8755 221.748 429.521 67.3671 221.477 424.681 61.6525 221.98 
430.009 64.4338 221.592 427.284 63.2539 222.452 427.709 63.2334 232.625 
427.301 63.6782 232.577 427.57 64.1245 232.646 424.456 59.2975 233.341 
428.136 60.1851 233.305 423.948 61.7001 233.242 427.099 61.2426 232.907 
429.565 60.0437 233.813 425.485 63.097 232.843 426.37 63.8233 232.721 
428.869 64.9527 233 426.756 56.4084 234.136 428.293 57.1418 234.303 
422.846 65.4025 233.998 430.577 67.3265 233.997 429.552 69.7158 234.268 
421.584 67.2871 235.073 432.2 67.5141 235.338 431.518 69.1242 235.136 
425.611 72.7597 235.229 426.863 73.0321 235.167 428.072 73.0966 235.222 
424.861 50.2625 236.875 420.444 51.2594 236.531 423.066 52.2243 235.665 
419.805 49.885 237.677 422.526 49.5044 237.477 422.164 49.1151 237.942 
428.937 52.8579 236.818 417.263 53.4784 237.29 429.791 75.8094 237.032 
424.543 76.5633 237.033 428.598 77.2501 237.352 419.845 48.7918 238.921 
425.836 49.4064 237.984 417.858 50.4896 238.165 416.949 61.1677 237.204 
433.723 71.0627 237.942 428.835 77.9412 237.841 424.875 79.3222 238.324 
420.499 48.3204 239.346 424.092 48.2311 239.152 414.848 54.9877 239.295 
433.509 58.6791 239.023 431.416 76.6555 238.766 430.09 77.9815 238.82 
422.494 79.0189 239.278 423.082 79.6919 239.718 428.176 79.7834 239.232 
424.318 80.181 239.665 424.676 80.2313 239.448 426.457 80.4904 239.353 
426.424 80.3845 239.114 426.825 80.423 239.168 427.125 80.3471 239.205 
426.651 80.4916 239.249 416.1 49.8453 240.216 435.092 66.3258 239.543 
433.841 73.0226 239.257 433.768 73.9435 240.008 432.512 75.6425 239.602 
419.969 77.2089 239.885 420.916 78.4373 240.183 421.685 78.9796 240.065 
422.444 79.4202 239.966 427.589 80.1046 239.829 429.34 79.0075 239.856 
425.562 80.3778 239.724 427.024 80.3223 239.743 426.85 80.4447 239.398 
417.537 48.0883 241.679 418.425 47.8456 241.41 432.654 53.7718 241.082 
435.617 70.3174 241.82 432.164 76.2902 240.289 431.956 76.4706 240.956 
[...]
POINT_DATA 676
COLOR_SCALARS scalars 3
1 0.478431 1 1 0.478431 1 1 0.478431 1 
1 0.478431 1 1 0.478431 1 
1 0.478431 1 1 0.478431 1 
1 0.478431 1 1 0.478431 1 
1 0.478431 1 1 0.478431 1 
1 0.478431 1 1 0.478431 1 
1 0.478431 1 1 0.478431 1 
1 0.478431 1 1 0.478431 1 
1 0.478431 1 1 0.478431 1 
1 0.478431 1 1 0.478431 1 
1 0.478431 1 1 0.478431 1 
1 0.478431 1 1 0.478431 1 
1 0.478431 1 1 0.478431 1 
1 0.478431 1 1 0.478431 1 
1 0.478431 1 1 0.478431 1 
1 0.478431 1 1 0.478431 1 
1 0.478431 1 1 0.478431 1 
1 0.478431 1 1 0.478431 1 
1 0.478431 1 1 0.478431 1 
1 0.478431 1 1 0.478431 1 
1 0.478431 1 1 0.478431 1 
1 0.478431 1 1 0.478431 1 
1 0.478431 1 1 0.478431 1 
1 0.478431 1 1 0.478431 1 
1 0.478431 1 1 0.478431 1 
1 0.478431 1 1 0.478431 1 
1 0.478431 1 1 0.478431 1 
1 0.478431 1 1 0.478431 1 
1 0.478431 1 1 0.478431 1 
1 0.478431 1 1 0.478431 1 
1 0.478431 1 1 0.478431 1 
1 0.478431 1 1 0.478431 1 
1 0.478431 1 1 0.478431 1 
1 0.478431 1 1 0.478431 1 
1 0.478431 1 1 0.478431 1 
1 0.478431 1 1 0.478431 1 
1 0.478431 1 1 0.478431 1 
1 0.478431 1 1 0.478431 1 
1 0.478431 1 1 0.478431 1 
1 0.478431 1 1 0.478431 1 
1 0.478431 1 1 0.478431 1 
1 0.478431 1 1 0.478431 1 
1 0.478431 1 1 0.478431 1 
1 0.478431 1 1 0.478431 1 
1 0.478431 1 1 0.478431 1 
1 0.478431 1 1 0.478431 1 
1 0.478431 1 1 0.478431 1 
1 0.478431 1 1 0.478431 1 
1 0.478431 1 1 0.478431 1 
1 0.478431 1 1 0.478431 1 
1 0.478431 1 1 0.478431 1 
1 0.478431 1 1 0.478431 1 
1 0.478431 1 1 0.478431 1 
1 0.478431 1 1 0.478431 1 
1 0.478431 1 1 0.478431 1 
1 0.478431 1 1 0.478431 1 
1 0.478431 1 1 0.478431 1 
1 0.478431 1 1 0.478431 1 
1 0.478431 1 1 0.478431 1 
1 0.478431 1 1 0.478431 1 
1 0.478431 1 1 0.478431 1 
1 0.478431 1 1 0.478431 1 
1 0.478431 1 1 0.478431 1 
1 0.478431 1 1 0.478431 1 
1 0.478431 1 1 0.478431 1 
1 0.478431 1 1 0.478431 1 
1 0.478431 1 1 0.478431 1 
1 0.478431 1 1 0.478431 1 
1 0.478431 1 1 0.478431 1 
1 0.478431 1 1 0.478431 1 
1 0.478431 1 1 0.478431 1 
1 0.478431 1 1 0.478431 1 
1 0.478431 1 1 0.478431 1 
1 0.478431 1 1 0.478431 1 
1 0.478431 1 1 0.478431 1 
1 0.478431 1 1 0.478431 1 
1 0.478431 1 1 0.478431 1 
1 0.478431 1 1 0.478431 1 
1 0.478431 1 1 0.478431 1 
1 0.478431 1 1 0.478431 1 
1 0.478431 1 1 0.478431 1 
1 0.478431 1 1 0.478431 1 
1 0.478431 1 1 0.478431 1 
1 0.478431 1 1 0.478431 1 
1 0.478431 1 1 0.478431 1 
1 0.478431 1 1 0.478431 1 
1 0.478431 1 1 0.478431 1 
1 0.478431 1 1 0.478431 1 
1 0.478431 1 1 0.478431 1 
1 0.478431 1 1 0.478431 1 
1 0.478431 1 1 0.478431 1 
1 0.478431 1 1 0.478431 1 
1 0.478431 1 1 0.478431 1 
1 0.478431 1 1 0.478431 1 
1 0.478431 1 1 0.478431 1 
1 0.478431 1 1 0.478431 1 
1 0.478431 1 1 0.478431 1 
1 0.478431 1 1 0.478431 1 
1 0.478431 1 1 0.478431 1 
1 0.478431 1 1 0.478431 1 
1 0.478431 1 1 0.478431 1 
1 0.478431 1 1 0.478431 1 
1 0.478431 1 1 0.478431 1 
1 0.478431 1 1 0.478431 1 
1 0.478431 1 1 0.478431 1 
1 0.478431 1 1 0.478431 1 
1 0.478431 1 1 0.478431 1 
1 0.478431 1 1 0.478431 1 
1 0.478431 1 1 0.478431 1 
1 0.478431 1 1 0.478431 1 
1 0.478431 1 1 0.478431 1 
1 0.478431 1 1 0.478431 1 
1 0.478431 1 1 0.478431 1 
1 0.478431 1 1 0.478431 1 
1 0.478431 1 1 0.478431 1 
1 0.478431 1 1 0.478431 1 
1 0.478431 1 1 0.478431 1 
1 0.478431 1 1 0.478431 1 
1 0.478431 1 1 0.478431 1 
1 0.478431 1 1 0.478431 1 
1 0.478431 1 1 0.478431 1 
1 0.478431 1 1 0.478431 1 
1 0.478431 1 1 0.478431 1 
1 0.478431 1 1 0.478431 1 
1 0.478431 1 1 0.478431 1 
1 0.478431 1 1 0.478431 1 
1 0.478431 1 1 0.478431 1 
1 0.478431 1 1 0.478431 1 
1 0.478431 1 1 0.478431 1 
1 0.478431 1 1 0.478431 1 
1 0.478431 1 1 0.478431 1 
1 0.478431 1 1 0.478431 1 
1 0.478431 1 1 0.478431 1 
1 0.478431 1 1 0.478431 1 
1 0.478431 1 1 0.478431 1 
1 0.478431 1 1 0.478431 1 
1 0.478431 1 1 0.478431 1 
1 0.478431 1 1 0.478431 1 
1 0.478431 1 1 0.478431 1 
1 0.478431 1 1 0.478431 1 
1 0.478431 1 1 0.478431 1 
1 0.478431 1 1 0.478431 1 
1 0.478431 1 1 0.478431 1 
1 0.478431 1 1 0.478431 1 
1 0.478431 1 1 0.478431 1 
1 0.478431 1 1 0.478431 1 
1 0.478431 1 1 0.478431 1 
1 0.478431 1 1 0.478431 1 
1 0.478431 1 1 0.478431 1 
1 0.478431 1 1 0.478431 1 
1 0.478431 1 1 0.478431 1 
1 0.478431 1 1 0.478431 1 
1 0.478431 1 1 0.478431 1 
1 0.478431 1 1 0.478431 1 
1 0.478431 1 1 0.478431 1 
1 0.478431 1 1 0.478431 1 
1 0.478431 1 1 0.478431 1 
1 0.478431 1 1 0.478431 1 
1 0.478431 1 1 0.478431 1 
1 0.478431 1 1 0.478431 1 
1 0.478431 1 1 0.478431 1 
1 0.478431 1 1 0.478431 1 
1 0.478431 1 1 0.478431 1 
1 0.478431 1 1 0.478431 1 
1 0.478431 1 1 0.478431 1 
1 0.478431 1 1 0.478431 1 
1 0.478431 1 1 0.478431 1 
1 0.478431 1 1 0.478431 1 
1 0.478431 1 1 0.478431 1 
1 0.478431 1 1 0.478431 1 
1 0.478431 1 1 0.478431 1 
1 0.478431 1 1 0.478431 1 
1 0.478431 1 1 0.478431 1 
1 0.478431 1 1 0.478431 1 
1 0.478431 1 1 0.478431 1 
1 0.478431 1 1 0.478431 1 
1 0.478431 1 1 0.478431 1 
1 0.478431 1 1 0.478431 1 
1 0.478431 1 1 0.478431 1 
1 0.478431 1 1 0.478431 1 
1 0.478431 1 1 0.478431 1 
1 0.478431 1 1 0.478431 1 
1 0.478431 1 1 0.478431 1 
1 0.478431 1 1 0.478431 1 
1 0.478431 1 1 0.478431 1 
1 0.478431 1 1 0.478431 1 
1 0.478431 1 1 0.478431 1 
1 0.478431 1 1 0.478431 1 
1 0.478431 1 1 0.478431 1 
1 0.478431 1 1 0.478431 1 
1 0.478431 1 1 0.478431 1 
1 0.478431 1 1 0.478431 1 
1 0.478431 1 1 0.478431 1 
1 0.478431 1 1 0.478431 1 
1 0.478431 1 1 0.478431 1 
1 0.478431 1 1 0.478431 1 
1 0.478431 1 1 0.478431 1 
1 0.478431 1 1 0.478431 1 
1 0.478431 1 1 0.478431 1 
1 0.478431 1 1 0.478431 1 
1 0.478431 1 1 0.478431 1 
1 0.478431 1 1 0.478431 1 
1 0.478431 1 1 0.478431 1 
1 0.478431 1 1 0.478431 1 
1 0.478431 1 1 0.478431 1 
1 0.478431 1 1 0.478431 1 
1 0.478431 1 1 0.478431 1 
1 0.478431 1 1 0.478431 1 
1 0.478431 1 1 0.478431 1 
1 0.478431 1 1 0.478431 1 
1 0.478431 1 1 0.478431 1 
1 0.478431 1 1 0.478431 1 
1 0.478431 1 1 0.478431 1 
1 0.478431 1 1 0.478431 1 
1 0.478431 1 1 0.478431 1 
1 0.478431 1 1 0.478431 1 
1 0.478431 1 1 0.478431 1 
1 0.478431 1 1 0.478431 1 
1 0.478431 1 1 0.478431 1 
1 0.478431 1 1 0.478431 1 
1 0.478431 1 1 0.478431 1 
1 0.478431 1 1 0.478431 1 
1 0.478431 1 1 0.478431 1 
1 0.478431 1 1 0.478431 1 
1 0.478431 1 1 0.478431 1 
1 0.478431 1 1 0.478431 1 
1 0.478431 1 1 0.478431 1 
1 0.478431 1 1 0.478431 1 
1 0.478431 1 1 0.478431 1 
1 0.478431 1 1 0.478431 1 
1 0.478431 1 1 0.478431 1 
1 0.478431 1 1 0.478431 1 
1 0.478431 1 1 0.478431 1 
1 0.478431 1 1 0.478431 1 
1 0.478431 1 1 0.478431 1 
1 0.478431 1 1 0.478431 1 
1 0.478431 1 1 0.478431 1 
1 0.478431 1 1 0.478431 1 
1 0.478431 1 1 0.478431 1 
1 0.478431 1 1 0.478431 1 
1 0.478431 1 1 0.478431 1 
1 0.478431 1 1 0.478431 1 
1 0.478431 1 1 0.478431 1 
1 0.478431 1 1 0.478431 1 
1 0.478431 1 1 0.478431 1 
1 0.478431 1 1 0.478431 1 
1 0.478431 1 1 0.478431 1 
1 0.478431 1 1 0.478431 1 
1 0.478431 1 1 0.478431 1 
1 0.478431 1 1 0.478431 1 
1 0.478431 1 1 0.478431 1 
1 0.478431 1 1 0.478431 1 
1 0.478431 1 1 0.478431 1 
1 0.478431 1 1 0.478431 1 
1 0.478431 1 1 0.478431 1 
1 0.478431 1 1 0.478431 1 
1 0.478431 1 1 0.478431 1 
1 0.478431 1 1 0.478431 1 
1 0.478431 1 1 0.478431 1 
1 0.478431 1 1 0.478431 1 
1 0.478431 1 1 0.478431 1 
1 0.478431 1 1 0.478431 1 
1 0.478431 1 1 0.478431 1 
1 0.478431 1 1 0.478431 1 
1 0.478431 1 1 0.478431 1 
1 0.478431 1 1 0.478431 1 
1 0.478431 1 1 0.478431 1 
1 0.478431 1 1 0.478431 1 
1 0.478431 1 1 0.478431 1 
1 0.478431 1 1 0.478431 1 
1 0.478431 1 1 0.478431 1 
1 0.478431 1 1 0.478431 1 
1 0.478431 1 1 0.478431 1 
1 0.478431 1 1 0.478431 1 
1 0.478431 1 1 0.478431 1 
1 0.478431 1 1 0.478431 1 
1 0.478431 1 1 0.478431 1 
1 0.478431 1 1 0.478431 1 
1 0.478431 1 1 0.478431 1 
1 0.478431 1 1 0.478431 1 
1 0.478431 1 1 0.478431 1 
1 0.478431 1 1 0.478431 1 
1 0.478431 1 1 0.478431 1 
1 0.478431 1 1 0.478431 1 
1 0.478431 1 1 0.478431 1 
1 0.478431 1 1 0.478431 1 
1 0.478431 1 1 0.478431 1 
1 0.478431 1 1 0.478431 1 
1 0.478431 1 1 0.478431 1 
1 0.478431 1 1 0.478431 1 
1 0.478431 1 1 0.478431 1 
1 0.478431 1 1 0.478431 1 
1 0.478431 1 1 0.478431 1 
1 0.478431 1 1 0.478431 1 
1 0.478431 1 1 0.478431 1 
1 0.478431 1 1 0.478431 1 
1 0.478431 1 1 0.478431 1 
1 0.478431 1 1 0.478431 1 
1 0.478431 1 1 0.478431 1 
1 0.478431 1 1 0.478431 1 
1 0.478431 1 1 0.478431 1 
1 0.478431 1 1 0.478431 1 
1 0.478431 1 1 0.478431 1 
1 0.478431 1 1 0.478431 1 
1 0.478431 1 1 0.478431 1 
1 0.478431 1 1 0.478431 1 
1 0.478431 1 1 0.478431 1 
1 0.478431 1 1 0.478431 1 
1 0.478431 1 1 0.478431 1 
1 0.478431 1 1 0.478431 1 
1 0.478431 1 1 0.478431 1 
1 0.478431 1 1 0.478431 1 
1 0.478431 1 1 0.478431 1 
1 0.478431 1 1 0.478431 1 
1 0.478431 1 1 0.478431 1 
1 0.478431 1 1 0.478431 1 
1 0.478431 1 1 0.478431 1 
1 0.478431 1 1 0.478431 1 
1 0.478431 1 1 0.478431 1 
1 0.478431 1 1 0.478431 1 
1 0.478431 1 1 0.478431 1 
1 0.478431 1 1 0.478431 1 
1 0.478431 1 1 0.478431 1 
1 0.478431 1 1 0.478431 1 
1 0.478431 1 1 0.478431 1 
1 0.478431 1 1 0.478431 1 
1 0.478431 1 1 0.478431 1 
1 0.478431 1 1 0.478431 1 
1 0.478431 1 1 0.478431 1 
1 0.478431 1 1 0.478431 1 
1 0.478431 1 1 0.478431 1 
1 0.478431 1 1 0.478431 1 
1 0.478431 1 1 0.478431 1 
1 0.478431 1 1 0.478431 1 
1 0.478431 1 1 0.478431 1 
1 0.478431 1 1 0.478431 1 
1 0.478431 1 1 0.478431 1 
1 0.478431 1 
NORMALS Normals float
-0.111975 -0.785834 -0.608216 -0.28772 -0.8578 -0.425906 0.106947 -0.832712 -0.543279 
-0.233019 -0.593243 -0.770561 -0.232752 -0.188854 -0.954023 0.217028 -0.518186 -0.827274 
0.151193 -0.187022 -0.970651 -0.440201 -0.693887 -0.569863 -0.0786895 -0.934944 -0.345959 
0.27253 -0.613655 -0.74105 0.411609 -0.711414 -0.569621 -0.539593 -0.542008 -0.644257 
0.268445 -0.300302 -0.91529 -0.377648 -0.325774 -0.866748 -0.306894 -0.225827 -0.924564 
0.201161 -0.115822 -0.972687 -0.481939 -0.195484 -0.85412 -0.447211 0.0670775 -0.89191 
0.120604 0.0232869 -0.992428 -0.194166 0.0228596 -0.980702 0.0386467 0.281215 -0.958866 
-0.458647 0.0610137 -0.886521 -0.672515 -0.353026 -0.650458 -0.797079 -0.0528132 -0.601562 
-0.101887 -0.360043 -0.927355 -0.911343 0.148562 -0.383904 -0.0114189 -0.0445609 -0.998941 
0.0578591 0.531016 -0.845384 0.364506 0.0709708 -0.928493 -0.623549 0.424736 -0.656343 
-0.542794 0.736829 -0.40306 -0.362048 0.724271 -0.586816 0.568472 -0.222943 -0.79192 
-0.681585 -0.649127 -0.337751 -0.46471 -0.293892 -0.835268 -0.545305 -0.717169 -0.433948 
0.373375 0.0204264 -0.927456 0.333302 0.36039 -0.871223 0.5775 0.130979 -0.805815 
-0.58237 -0.122874 -0.803584 -0.272015 -0.0612835 -0.96034 -0.309763 0.163672 -0.936621 
-0.678502 -0.450327 -0.580379 -0.952339 -0.156517 -0.261824 0.390249 0.151841 -0.908102 
0.260472 -0.134126 -0.95612 0.423303 -0.0251696 -0.905638 0.354682 0.169609 -0.919475 
-0.926705 0.350641 -0.135164 -0.882333 0.464341 0.0766488 0.247359 0.376853 -0.892634 
0.484904 0.218941 -0.846719 -0.682821 0.725022 -0.08999 -0.588937 0.736061 -0.333717 
-0.406874 -0.912929 -0.0318598 -0.489216 -0.855951 -0.167377 -0.713452 -0.668451 -0.21014 
-0.754201 -0.0478898 -0.654896 -0.733482 -0.147037 -0.663615 -0.395134 0.224724 -0.890712 
-0.587638 -0.348077 -0.730427 -0.0643734 -0.385457 -0.920478 -0.939558 -0.197893 -0.279407 
-0.999302 -0.0153825 -0.0340455 -0.971224 0.184568 0.150529 0.393282 0.506827 -0.767109 
-0.19306 0.777777 -0.598157 -0.00886537 0.844341 -0.535733 0.0649151 0.746873 -0.661791 
-0.328014 0.90813 -0.260206 -0.772144 -0.379295 -0.509832 -0.892725 -0.376375 -0.247757 
-0.337172 0.152414 -0.929024 0.0827219 0.255794 -0.963186 -0.298551 0.195657 -0.934123 
-0.370667 -0.366821 -0.853257 -0.807934 -0.151304 -0.569517 -0.137375 -0.383522 -0.913258 
-0.00311226 -0.415837 -0.909434 0.169408 -0.38587 -0.906866 0.422191 0.114035 -0.899306 
0.555811 0.337798 -0.759583 0.0317858 0.86117 -0.507322 0.218938 0.778233 -0.588574 
-0.28573 0.914935 -0.285047 -0.639199 -0.0296498 -0.76847 -0.842297 -0.0921768 -0.531074 
-0.496078 0.0920864 -0.863381 -0.6632 0.0612603 -0.745931 -0.697025 0.0948956 -0.71074 
-0.31615 0.0682443 -0.946252 -0.792814 0.131267 -0.595159 -0.773198 0.17575 -0.609325 
-0.328194 -0.223189 -0.917865 -0.645402 -0.29648 -0.703957 -0.953147 -0.286127 -0.0981913 
0.255629 -0.237582 -0.937128 -0.941159 0.277778 0.19251 -0.741737 0.662696 -0.103247 
0.255159 0.695389 -0.671809 -0.264467 0.871234 -0.413532 -0.0366793 -0.993797 -0.104984 
0.404794 -0.718282 -0.565874 -0.706062 -0.703032 -0.0849915 0.680205 -0.0730069 -0.729377 
0.486029 0.0500079 -0.87251 0.551483 0.104364 -0.827632 -0.935963 -0.248535 -0.249406 
-0.945992 -0.0508599 -0.320176 -0.931739 -0.0405256 -0.360861 -0.862696 0.106976 -0.494279 
-0.882445 -0.147688 -0.44663 -0.951288 -0.0861624 -0.296018 0.234398 -0.045327 -0.971083 
-0.957698 -0.184242 0.221063 -0.965791 0.0220631 0.258383 0.337621 0.566606 -0.751645 
-0.921476 0.375804 0.0982469 0.348031 0.676862 -0.648639 -0.597696 0.760795 -0.252885 
0.194454 0.797384 -0.571285 -0.631426 0.719971 -0.287997 -0.232601 0.840164 -0.489919 
-0.042493 -0.987091 -0.154419 0.733906 -0.347864 -0.583414 0.549796 -0.19334 -0.812616 
-0.952291 -0.288924 -0.0983147 -0.956128 0.0791643 -0.28205 -0.993496 0.0248558 0.111125 
0.395255 0.147437 -0.906662 -0.0136731 0.742896 -0.669267 -0.787223 0.536509 -0.304036 
-0.375703 0.745786 -0.550137 0.572847 -0.574137 -0.584989 -0.531186 -0.835819 0.138738 
0.739131 -0.548344 -0.391158 0.782658 -0.0961094 -0.614988 -0.927964 -0.371535 -0.0290739 
-0.964875 -0.24813 -0.0863054 -0.962982 -0.220122 0.155605 -0.49713 0.570701 -0.653576 
-0.0756932 0.582483 -0.809311 -0.858949 0.268954 -0.435741 -0.00927512 0.531912 -0.846749 
-0.662645 0.188653 -0.724784 -0.908971 0.391161 -0.144101 -0.322094 0.388265 -0.863427 
-0.158623 0.527559 -0.834578 -0.207908 0.597374 -0.774544 -0.230988 0.673202 -0.702456 
-0.635428 0.550826 -0.54113 0.520953 -0.834703 -0.178548 0.74818 -0.641607 -0.169016 
-0.99712 -0.0278489 -0.0705473 -0.963641 -0.0179484 0.266599 0.51019 0.0132989 -0.859959 
0.112531 0.542576 -0.832435 -0.713586 0.685656 -0.143776 -0.379449 0.805846 -0.454567 
-0.778714 0.583811 -0.229717 -0.0522474 0.622969 -0.7805 -0.580042 0.665178 -0.470202 
-0.509794 0.732238 -0.451594 0.868039 -0.452928 -0.203384 0.764248 0.122974 -0.63309 
0.440828 0.374437 -0.815762 -0.957786 0.171883 0.230439 0.309252 0.527355 -0.791366 
-0.951926 0.302684 0.0471172 -0.825511 0.564324 -0.00833624 0.35764 0.668172 -0.652411 
0.11882 0.734514 -0.668111 -0.530369 0.824779 -0.196082 -0.249073 0.829227 -0.500345 
0.110869 -0.993703 0.0162299 0.341044 -0.918127 0.201821 -0.799716 -0.512778 0.31227 
0.480121 0.269726 -0.834704 0.225877 0.535699 -0.813638 -0.911139 0.358789 0.202723 
0.0656034 0.893376 -0.444494 -0.757965 0.651952 0.0211711 -0.213357 0.918777 -0.332156 
0.930743 -0.312117 -0.190525 0.826606 -0.0933587 -0.554983 0.688685 -0.049833 -0.723346 
0.3416 0.428969 -0.836239 -0.726647 0.650115 0.222112 0.192563 0.928893 -0.31635 
0.288891 0.874213 -0.390249 -0.795146 0.561947 0.227945 -0.42512 0.832157 -0.356072 
0.205059 0.922176 -0.327936 -0.0472148 0.980781 -0.189312 -0.359584 0.929833 0.0781666 
0.484289 -0.863257 0.142307 0.626575 -0.758488 0.179164 0.804915 -0.562744 0.188231 
0.970568 -0.0928155 -0.222222 -0.814568 0.424689 0.395117 -0.768053 0.543048 0.339402 
-0.517003 0.723545 0.457373 0.337982 0.852092 -0.399634 -0.404651 0.810009 0.424433 
-0.499189 0.772933 0.391645 -0.377765 0.925871 -0.0075228 0.199795 0.934065 -0.29598 
0.105389 0.98766 -0.115853 -0.133151 0.977854 0.161468 0.951491 -0.26408 -0.157878 
0.905194 -0.41661 0.0840193 0.909952 -0.0884521 -0.405171 0.676124 0.192761 -0.711126 
0.454419 0.524223 -0.720204 0.548735 0.624071 -0.55626 -0.154971 0.937462 0.311686 
0.0827085 0.980534 0.178079 -0.419396 -0.875819 0.238846 0.692222 -0.616488 0.375195 
0.967648 -0.226246 0.111666 0.985434 -0.169969 -0.00544829 0.990178 -0.113034 -0.0822809 
0.987417 -0.153881 -0.0364542 0.909487 -0.167722 -0.380398 0.950876 -0.0626655 -0.303162 
0.795695 -0.052234 -0.603441 0.923944 -0.00337528 -0.382513 0.977005 0.128453 -0.170177 
0.911426 0.245184 -0.330436 0.827901 0.274864 -0.488907 0.0848256 0.665139 -0.741886 
0.789758 0.528119 -0.312046 -0.56395 0.687823 0.457011 0.882836 -0.371839 0.286945 
0.975024 -0.200122 -0.0963308 0.966383 -0.251342 -0.0541457 0.989571 -0.137941 -0.0414833 
0.965579 -0.0488606 -0.255479 0.997811 -0.0399254 -0.052724 0.90959 0.389333 0.14514 
-0.735982 0.315607 0.598935 0.645367 0.716208 -0.265607 -0.0994285 0.654298 -0.749672 
-0.528953 0.685209 0.500697 0.176457 0.827275 -0.533365 -0.493566 0.681606 0.540191 
-0.349624 0.898389 0.265821 0.358478 -0.820351 0.445554 -0.697348 -0.615707 0.366894 
0.907819 -0.232734 0.348854 0.979376 -0.105078 0.172574 0.969049 0.227815 0.0950985 
-0.57614 0.546797 0.607516 0.725605 0.675107 -0.133146 0.673676 0.698795 -0.240512 
-0.292625 0.89053 0.34832 -0.430526 0.883609 0.18407 0.308123 0.684052 -0.661161 
-0.198002 0.977722 -0.0696707 -0.413302 -0.794534 0.444856 0.664699 -0.567912 0.485439 
-0.873588 -0.152534 0.462144 0.935519 -0.278646 0.217163 -0.499209 0.732915 0.462197 
-0.408696 0.900845 0.146447 0.0924825 0.73821 -0.668201 0.162866 0.763294 -0.625185 
0.400927 0.769828 -0.496611 -0.187097 0.846999 -0.497582 0.950238 -0.0508626 0.307343 
0.971966 0.110458 0.207561 -0.576167 0.471419 0.667679 0.527974 0.760714 -0.377568 
0.608465 0.769818 -0.192746 -0.543164 0.789334 0.286226 0.391694 0.825282 -0.406798 
0.406588 0.851536 -0.331018 0.520911 0.846821 -0.107452 -0.347532 0.935043 0.0701056 
-0.147409 0.933656 -0.326431 -0.0788614 0.95005 -0.301968 0.136424 0.912715 -0.38515 
-0.573502 -0.605882 0.551364 -0.623492 -0.403302 0.66978 -0.750139 -0.300237 0.589194 
-0.522546 0.619702 0.585589 0.694697 0.641364 0.325649 0.583684 0.731917 0.351583 
-0.491609 0.643535 0.586671 -0.472625 0.696159 0.540359 0.347443 0.868273 -0.354098 
0.530913 0.796553 0.289196 -0.397575 0.908777 0.126723 -0.283831 0.957563 -0.0501381 
-0.352747 0.81315 0.462986 0.311357 0.932406 -0.183509 0.462996 0.869654 0.171281 
0.502981 0.862942 0.0483968 -0.181081 0.937632 0.296743 0.0141551 0.786704 0.617168 
0.262065 0.804132 0.533567 0.366462 0.871072 0.327016 0.062048 0.997264 0.0401914 
-0.025821 -0.905785 0.42295 -0.673856 -0.0473512 0.737344 -0.747709 0.130555 0.651065 
0.764849 0.240802 0.597512 -0.386518 0.382624 0.839168 0.758054 0.537629 0.369201 
-0.44094 0.490552 0.751618 0.4607 0.561776 0.687141 -0.258536 0.531842 0.806414 
0.218461 0.594149 0.77412 -0.141402 0.695465 0.70451 0.317193 0.672606 0.668573 
-0.366019 -0.602413 0.709316 0.133991 -0.700967 0.700494 0.331123 -0.704348 0.627894 
0.814337 0.165152 0.556399 0.695594 0.414989 0.586459 0.0298603 0.440489 0.897261 
0.0116839 0.620753 0.783919 -0.103267 -0.76295 0.638156 -0.352496 -0.362262 0.862851 
-0.0592683 -0.534574 0.843041 0.484205 -0.395925 0.78025 -0.38817 -0.165437 0.906617 
0.410688 0.349025 0.842329 0.31217 -0.510306 0.801335 0.674426 -0.301669 0.673903 
-0.226885 0.309152 0.923552 0.14373 -0.332254 0.932174 0.718092 -0.183264 0.671386 
-0.258231 0.194295 0.946344 0.348807 0.2234 0.910179 -0.305572 -0.0667467 0.949826 
0.513018 0.0214221 0.85811 0.132539 -0.0689504 0.988777 0.0853659 -0.113808 -0.989828 
0.0430203 0.00250975 -0.999071 -0.0186946 0.302454 -0.952981 -0.250246 -0.219025 -0.943083 
0.198634 -0.370378 -0.907394 -0.416843 -0.0900388 -0.904508 0.0528551 -0.145735 -0.987911 
0.482426 -0.229105 -0.845444 -0.219972 0.0934104 -0.971024 -0.194644 0.222071 -0.955405 
0.227119 0.157052 -0.96112 0.0682054 -0.315066 -0.946616 0.412231 -0.312624 -0.855764 
-0.472337 0.117444 -0.873559 0.586107 -0.0549088 -0.808371 0.0745293 0.300662 -0.950814 
-0.452131 0.281159 -0.846479 0.658382 0.00903424 -0.75263 0.594448 0.287828 -0.750857 
-0.200744 0.266519 -0.942693 0.0387154 0.260028 -0.964825 0.194398 0.236636 -0.951952 
0.155891 -0.572229 -0.805141 -0.242441 -0.374435 -0.894998 0.00934669 -0.425503 -0.904909 
-0.270888 -0.607628 -0.746597 -0.0549407 -0.707589 -0.704485 -0.0345859 -0.792897 -0.608374 
0.527936 -0.42405 -0.735843 -0.542462 -0.241369 -0.804659 0.450879 0.419136 -0.788057 
-0.390349 0.318 -0.864004 0.188919 0.481974 -0.855576 -0.338724 -0.810398 -0.478039 