# vtk DataFile Version 4.2
vtk output
ASCII
DATASET POLYDATA
POINTS 668 float
437.792 72.0427 190.77 437.013 73.1278 190.509 438.45 72.7702 190.96 
436.761 73.9062 190.54 437.152 74.2899 190.561 438.168 75.0193 190.868 
420.988 49.5644 192.937 421.575 49.9766 192.712 421.026 51.383 192.458 
422.455 51.3277 192.381 421.542 52.1641 192.217 423.121 51.4907 192.457 
421.616 52.81 192.118 424.026 52.3847 192.434 422.581 54.1877 191.935 
423.867 54.1553 191.958 424.934 53.4037 192.357 426.909 55.3552 192.313 
427.907 56.8245 192.125 428.792 57.2285 192.298 431.428 68.1712 191.537 
437.547 67.336 191.9 436.672 69.9111 190.924 439.098 70.037 191.905 
433.413 72.7259 191.279 434.795 71.8607 190.783 439.688 71.1981 192.238 
439.667 72.3118 192.057 435.916 74.731 190.799 435.276 78.2362 191.376 
434.681 79.3923 191.704 438.425 78.7678 192.175 435.77 80.4192 191.773 
420.031 49.3047 193.343 421.51 49.3046 193.144 420.011 49.9473 193.206 
422.14 49.8211 192.957 423.914 51.478 192.802 420.956 52.9483 192.501 
420.477 53.0751 193 425.1 52.6021 192.832 422.082 54.5831 192.164 
422.663 54.8083 191.996 428.943 56.6349 192.683 438.352 67.6454 192.303 
440.243 73.5944 192.671 439.247 77.9413 192.482 433.786 79.7921 192.208 
438.444 79.2505 192.456 437.344 80.8833 192.593 435.583 81.8885 192.369 
435.084 82.4928 192.794 435.23 82.791 193.017 436.023 82.6121 193.08 
435.565 82.8651 193.144 418.858 46.5339 194.573 418.838 46.5164 194.654 
418.814 46.5912 194.592 418.919 46.5124 194.656 418.871 46.6491 194.539 
419.01 46.6492 194.567 418.983 46.8522 194.499 419.721 47.3857 194.336 
419.297 48.7242 194.074 422.382 49.4148 193.437 419.287 50.227 194.032 
419.645 50.8127 193.514 424.255 51.0691 193.323 421.587 54.5482 192.463 
429.307 56.145 193.306 420.62 57.1789 194.139 431.773 72.137 192.106 
440.849 72.3533 193.892 432.107 74.2162 192.29 432.19 79.2018 193.629 
432.666 80.9098 194.223 439.174 79.1474 193.577 433.022 81.6424 194.231 
437.9 80.8664 193.43 433.182 82.0441 194.498 433.718 82.1304 193.516 
434.221 82.0227 192.979 437.082 81.8341 193.329 436.364 82.5302 193.195 
434.641 83.3419 193.576 435.808 83.0571 193.56 436.306 82.7109 193.468 
434.495 83.6362 193.751 434.529 83.7719 193.841 434.651 83.7164 193.756 
434.951 83.7307 193.94 434.569 83.7872 193.777 418.818 46.6421 194.725 
419.284 47.0494 194.464 419.051 47.2751 194.459 423.723 49.7491 194.188 
425.725 51.5347 194.173 419.914 54.0303 194.235 420.019 55.7568 194.746 
420.824 59.4227 194.937 440.878 70.8316 194.426 430.545 75.1906 194.106 
431.917 80.0227 195.192 438.799 80.0184 194.337 436.705 82.5633 194.306 
434.604 83.7507 194.006 434.763 83.7117 194.345 434.651 83.8048 193.845 
435.042 83.889 194.252 435.05 83.933 194.113 435.123 83.9109 194.127 
435.359 83.7132 194.22 435.094 83.9691 194.173 418.905 49.5434 195.039 
419.311 51.6926 194.478 420.23 58.2117 195.795 421.452 61.3653 195.979 
421.794 61.3967 195.452 427.071 67.2382 194.549 429.21 72.811 194.915 
430.447 76.4181 194.932 430.673 77.2175 195.09 439.557 78.9447 194.667 
437.196 82.0558 194.725 435.227 83.8271 194.42 435.168 83.9162 194.232 
435.43 83.6874 194.555 419.062 46.7752 195.488 418.904 46.8709 195.294 
419.845 46.7015 195.381 419.56 46.6281 195.413 420.214 46.896 195.68 
421.477 47.5058 196.014 418.907 48.2122 195.904 418.825 48.9626 195.326 
421.041 60.7624 196.347 421.572 62.1523 196.767 426.484 67.0682 195.013 
441.112 70.1426 196.006 427.728 71.6217 196.771 430.087 76.4872 196.329 
431.618 79.5118 196.065 436.453 82.6187 195.321 435.3 83.6962 194.691 
435.53 83.5052 194.863 419.454 46.8206 195.87 419.635 46.7326 195.759 
419.171 47.2525 196.023 420.73 47.3259 196.432 419.034 47.7231 196.066 
419.048 48.1683 196.256 419.193 48.3999 196.512 425.777 49.6025 196.798 
419.038 49.2626 196.246 419.046 49.8729 196.145 427.886 51.205 196.873 
419.627 54.3175 196.366 438.731 63.7338 196.838 426.795 70.4351 197.685 
441.089 74.6853 197.16 435.261 82.6296 196.18 436.056 82.6478 195.837 
436.305 81.9687 196.723 419.744 46.9618 196.111 419.821 47.3625 196.508 
424.173 48.6829 197.673 421.484 62.2463 197.744 441.359 71.2016 197.831 
430.415 76.7478 198.407 439.722 78.0996 197.461 439.491 78.2635 197.964 
434.694 81.3553 197.987 436.761 81.3446 197.394 421.259 48.1379 197.588 
423.28 48.4931 198.206 423.274 48.5588 198.391 427.45 49.918 198.646 
427.525 49.905 199.024 428.798 51.0704 198.308 420.434 58.1463 198.529 
435.509 57.9083 198.918 420.701 59.7369 198.701 420.758 60.3221 198.248 
423.357 65.2359 199.464 433.319 79.8188 199.304 435.416 81.0387 198.657 
423.878 49.3143 199.449 428.809 50.6098 199.53 429.234 50.9624 199.328 
421.355 51.8554 199.444 420.623 55.3836 199.123 439.69 64.3416 199.657 
426.624 70.0153 200.014 441.199 72.3029 199.617 438.876 78.2147 199.49 
428.194 50.2758 200.244 424.255 50.6588 200.79 424.817 50.5056 200.847 
429.59 50.9155 200.628 423.596 51.2508 200.854 422.98 52.0172 200.829 
432.178 52.7825 200.475 422.009 55.8642 200.872 421.117 60.332 199.37 
422.451 62.8102 200.181 424.515 66.7025 200.453 426.337 69.0507 201.057 
441.137 70.6117 200.313 440.504 74.7752 200.536 437.626 78.7881 200.697 
434.27 79.3354 201.108 436.687 79.496 200.607 426.485 50.2001 200.814 
431.163 51.3667 202.046 422.42 60.575 200.975 426.061 68.2932 201.516 
434.946 79.2853 201.613 435.658 79.7775 200.788 426.337 51.1633 201.834 
427.284 51.1706 202.042 428.311 51.0468 202 429.373 51.0396 201.926 
431.206 51.2603 202.697 431.225 51.2936 203.222 431.623 51.3223 202.935 
431.749 51.3421 203.222 426.118 53.1426 202.945 436.689 57.9107 203.4 
426.298 67.9638 202.305 439.322 75.1393 202.848 434.111 78.1221 202.709 
435.029 78.6234 202.732 435.323 78.7867 202.57 435.848 78.9117 202.136 
435.379 79.051 202.104 430.833 51.3767 203.329 431.609 51.3498 203.459 
432.353 51.6881 203.927 428.529 52.5037 203.794 426.486 67.6118 202.898 
427.977 70.0105 203.121 436.01 78.288 202.988 432.57 51.728 204.504 
432.431 51.7889 204.511 431.893 51.7384 204.32 432.918 52.072 204.24 
428.44 56.6696 205.209 427.67 66.5595 204.817 439.712 68.0835 204.954 
437.256 76.4787 204.295 435.527 78.0881 203.532 432.189 52.0458 204.843 
432.763 52.1482 204.856 433.596 52.7501 204.891 434.658 54.0623 204.978 
428.237 68.4155 204.741 438.824 72.9391 205.649 433.773 75.2936 205.527 
434.781 76.0822 205.344 435.163 76.5804 204.98 432.418 52.617 205.457 
433.284 52.5885 205.195 432.362 53.7844 206.521 435.057 55.2869 206.413 
435.751 56.4039 206.27 429.845 59.3023 206.632 438.09 62.7053 206.579 
438.94 70.398 206.579 433.357 52.9107 205.636 433.675 53.3059 205.874 
433.221 54.0127 206.747 433.754 53.8738 206.45 432.195 54.6499 206.982 
434.38 54.6677 206.825 435.088 56.0535 207.334 432.48 55.989 207.71 
431.929 56.7058 207.634 435.809 57.1493 207.244 432.039 70.6595 207.485 
434.137 73.6163 207.319 435.565 74.8813 206.672 433.762 54.8462 207.352 
434.142 54.917 207.233 433.364 55.5469 207.791 434.371 55.5786 207.595 
435.387 57.4777 208.112 436.045 58.68 208.028 433.126 59.5091 208.778 
432.062 65.2766 208.518 437.826 68.4191 208.34 437.429 72.0504 208.072 
436.768 73.0213 208.137 434.224 56.1246 208.03 434.566 56.588 208.214 
434.889 57.0282 208.267 433.776 57.485 208.569 434.237 57.1882 208.538 
433.753 58.3717 208.77 435.886 59.5261 208.583 433.898 64.0254 209.324 
436.935 63.9808 208.696 434.537 66.6771 209.43 436.916 67.2089 209.014 
437.15 68.7106 208.908 434.655 69.4318 209.291 435.002 69.8873 209.303 
437.445 69.3079 208.673 435.037 71.2138 209.051 437.064 71.8269 208.605 
436.606 72.3928 208.695 436.774 71.9856 208.823 434.644 57.5183 208.581 
435.483 60.9227 209.333 435.98 61.2959 209.195 435.477 61.437 209.424 
436.335 63.4018 209.1 435.165 65.2688 209.476 435.777 64.8661 209.377 
436.496 68.6725 209.202 435.604 70.1011 209.287 436.28 71.0045 209.136 
436.882 70.5325 208.923 436.548 71.5191 209.117 436.8 71.4104 208.933 
436.643 71.7465 209.038 435.685 72.8868 208.517 435.697 61.2073 209.353 
436.527 71.741 209.106 435.811 61.3505 245.742 435.699 61.7185 245.685 
436.531 71.4849 246.029 436.369 71.3262 245.963 436.573 71.2271 246.007 
434.377 57.006 246.448 434.667 56.3059 246.842 434.916 58.2447 246.221 
434.41 59.561 245.857 435.349 58.2407 246.399 435.328 59.9298 245.925 
435.226 61.8222 245.631 435.204 64.0272 245.576 435.829 63.6342 245.715 
436.465 62.6111 246.089 436.826 63.0105 246.366 434.553 66.4357 245.572 
435.817 65.7054 245.63 435.199 67.0964 245.547 435.186 68.0861 245.57 
436.552 68.4526 245.834 437.141 68.57 246.087 437.492 68.9274 246.373 
435.983 71.3994 245.999 435.185 72.0869 246.311 436.733 72.2617 246.65 
436.326 72.8162 246.769 435.435 73.1563 246.857 435.764 73.2567 246.933 
433.994 55.8562 246.884 434.105 55.4904 247.123 435.356 56.93 247.05 
435.527 57.9437 246.645 435.789 57.9026 247.024 433.313 63.153 245.887 
437.45 68.3127 246.291 434.069 72.0239 246.693 435.079 73.1679 246.964 
434.039 54.1984 248.087 433.147 54.8799 247.533 434.193 54.5346 247.868 
434.957 55.5856 247.801 432.119 61.9643 246.518 432.127 65.9086 246.453 
434.989 74.4739 248.07 432.94 52.6819 249.118 432.874 52.9993 248.776 
433.221 52.7994 249.189 432.772 53.33 248.506 432.752 53.8419 248.2 
432.338 53.7638 248.341 434.273 54.342 248.16 434.444 54.3455 248.557 
435.226 75.3015 248.782 435.014 75.4282 248.921 430.492 55.3258 248.788 
437.025 59.5406 248.567 430.323 70.408 249.002 438.875 72.5987 249.236 
438.015 73.947 249.05 434.324 75.4923 249.322 435.112 76.2065 249.747 
432.401 52.1223 249.784 432.413 51.9607 249.956 432.52 52.0083 249.939 
431.806 51.9412 250.284 432.743 52.1999 249.979 429.999 52.9784 250.139 
429.726 53.5431 249.981 429.46 54.1822 249.85 434.618 76.5351 250.23 
435.26 77.315 250.896 435.212 78.0006 251.612 435.512 77.982 251.615 
432.229 51.862 250.564 430.029 52.4777 250.506 435.774 56.1614 250.316 
436.832 76.8407 250.938 434.481 77.5286 251.339 434.94 78.0868 251.798 
435.945 78.0759 251.915 430.852 51.3977 251.492 431.113 51.3111 251.673 
431.436 51.3651 251.539 431.605 51.4109 251.673 427.865 51.5889 252.271 
[...]
POINT_DATA 668
COLOR_SCALARS scalars 3
1 0.478431 1 1 0.478431 1 1 0.478431 1 
1 0.478431 1 1 0.478431 1 
1 0.478431 1 1 0.478431 1 
1 0.478431 1 1 0.478431 1 
1 0.478431 1 1 0.478431 1 
1 0.478431 1 1 0.478431 1 
1 0.478431 1 1 0.478431 1 
1 0.478431 1 1 0.478431 1 
1 0.478431 1 1 0.478431 1 
1 0.478431 1 1 0.478431 1 
1 0.478431 1 1 0.478431 1 
1 0.478431 1 1 0.478431 1 
1 0.478431 1 1 0.478431 1 
1 0.478431 1 1 0.478431 1 
1 0.478431 1 1 0.478431 1 
1 0.478431 1 1 0.478431 1 
1 0.478431 1 1 0.478431 1 
1 0.478431 1 1 0.478431 1 
1 0.478431 1 1 0.478431 1 
1 0.478431 1 1 0.478431 1 
1 0.478431 1 1 0.478431 1 
1 0.478431 1 1 0.478431 1 
1 0.478431 1 1 0.478431 1 
1 0.478431 1 1 0.478431 1 
1 0.478431 1 1 0.478431 1 
1 0.478431 1 1 0.478431 1 
1 0.478431 1 1 0.478431 1 
1 0.478431 1 1 0.478431 1 
1 0.478431 1 1 0.478431 1 
1 0.478431 1 1 0.478431 1 
1 0.478431 1 1 0.478431 1 
1 0.478431 1 1 0.478431 1 
1 0.478431 1 1 0.478431 1 
1 0.478431 1 1 0.478431 1 
1 0.478431 1 1 0.478431 1 
1 0.478431 1 1 0.478431 1 
1 0.478431 1 1 0.478431 1 
1 0.478431 1 1 0.478431 1 
1 0.478431 1 1 0.478431 1 
1 0.478431 1 1 0.478431 1 
1 0.478431 1 1 0.478431 1 
1 0.478431 1 1 0.478431 1 
1 0.478431 1 1 0.478431 1 
1 0.478431 1 1 0.478431 1 
1 0.478431 1 1 0.478431 1 
1 0.478431 1 1 0.478431 1 
1 0.478431 1 1 0.478431 1 
1 0.478431 1 1 0.478431 1 
1 0.478431 1 1 0.478431 1 
1 0.478431 1 1 0.478431 1 
1 0.478431 1 1 0.478431 1 
1 0.478431 1 1 0.478431 1 
1 0.478431 1 1 0.478431 1 
1 0.478431 1 1 0.478431 1 
1 0.478431 1 1 0.478431 1 
1 0.478431 1 1 0.478431 1 
1 0.478431 1 1 0.478431 1 
1 0.478431 1 1 0.478431 1 
1 0.478431 1 1 0.478431 1 
1 0.478431 1 1 0.478431 1 
1 0.478431 1 1 0.478431 1 
1 0.478431 1 1 0.478431 1 
1 0.478431 1 1 0.478431 1 
1 0.478431 1 1 0.478431 1 
1 0.478431 1 1 0.478431 1 
1 0.478431 1 1 0.478431 1 
1 0.478431 1 1 0.478431 1 
1 0.478431 1 1 0.478431 1 
1 0.478431 1 1 0.478431 1 
1 0.478431 1 1 0.478431 1 
1 0.478431 1 1 0.478431 1 
1 0.478431 1 1 0.478431 1 
1 0.478431 1 1 0.478431 1 
1 0.478431 1 1 0.478431 1 
1 0.478431 1 1 0.478431 1 
1 0.478431 1 1 0.478431 1 
1 0.478431 1 1 0.478431 1 
1 0.478431 1 1 0.478431 1 
1 0.478431 1 1 0.478431 1 
1 0.478431 1 1 0.478431 1 
1 0.478431 1 1 0.478431 1 
1 0.478431 1 1 0.478431 1 
1 0.478431 1 1 0.478431 1 
1 0.478431 1 1 0.478431 1 
1 0.478431 1 1 0.478431 1 
1 0.478431 1 1 0.478431 1 
1 0.478431 1 1 0.478431 1 
1 0.478431 1 1 0.478431 1 
1 0.478431 1 1 0.478431 1 
1 0.478431 1 1 0.478431 1 
1 0.478431 1 1 0.478431 1 
1 0.478431 1 1 0.478431 1 
1 0.478431 1 1 0.478431 1 
1 0.478431 1 1 0.478431 1 
1 0.478431 1 1 0.478431 1 
1 0.478431 1 1 0.478431 1 
1 0.478431 1 1 0.478431 1 
1 0.478431 1 1 0.478431 1 
1 0.478431 1 1 0.478431 1 
1 0.478431 1 1 0.478431 1 
1 0.478431 1 1 0.478431 1 
1 0.478431 1 1 0.478431 1 
1 0.478431 1 1 0.478431 1 
1 0.478431 1 1 0.478431 1 
1 0.478431 1 1 0.478431 1 
1 0.478431 1 1 0.478431 1 
1 0.478431 1 1 0.478431 1 
1 0.478431 1 1 0.478431 1 
1 0.478431 1 1 0.478431 1 
1 0.478431 1 1 0.478431 1 
1 0.478431 1 1 0.478431 1 
1 0.478431 1 1 0.478431 1 
1 0.478431 1 1 0.478431 1 
1 0.478431 1 1 0.478431 1 
1 0.478431 1 1 0.478431 1 
1 0.478431 1 1 0.478431 1 
1 0.478431 1 1 0.478431 1 
1 0.478431 1 1 0.478431 1 
1 0.478431 1 1 0.478431 1 
1 0.478431 1 1 0.478431 1 
1 0.478431 1 1 0.478431 1 
1 0.478431 1 1 0.478431 1 
1 0.478431 1 1 0.478431 1 
1 0.478431 1 1 0.478431 1 
1 0.478431 1 1 0.478431 1 
1 0.478431 1 1 0.478431 1 
1 0.478431 1 1 0.478431 1 
1 0.478431 1 1 0.478431 1 
1 0.478431 1 1 0.478431 1 
1 0.478431 1 1 0.478431 1 
1 0.478431 1 1 0.478431 1 
1 0.478431 1 1 0.478431 1 
1 0.478431 1 1 0.478431 1 
1 0.478431 1 1 0.478431 1 
1 0.478431 1 1 0.478431 1 
1 0.478431 1 1 0.478431 1 
1 0.478431 1 1 0.478431 1 
1 0.478431 1 1 0.478431 1 
1 0.478431 1 1 0.478431 1 
1 0.478431 1 1 0.478431 1 
1 0.478431 1 1 0.478431 1 
1 0.478431 1 1 0.478431 1 
1 0.478431 1 1 0.478431 1 
1 0.478431 1 1 0.478431 1 
1 0.478431 1 1 0.478431 1 
1 0.478431 1 1 0.478431 1 
1 0.478431 1 1 0.478431 1 
1 0.478431 1 1 0.478431 1 
1 0.478431 1 1 0.478431 1 
1 0.478431 1 1 0.478431 1 
1 0.478431 1 1 0.478431 1 
1 0.478431 1 1 0.478431 1 
1 0.478431 1 1 0.478431 1 
1 0.478431 1 1 0.478431 1 
1 0.478431 1 1 0.478431 1 
1 0.478431 1 1 0.478431 1 
1 0.478431 1 1 0.478431 1 
1 0.478431 1 1 0.478431 1 
1 0.478431 1 1 0.478431 1 
1 0.478431 1 1 0.478431 1 
1 0.478431 1 1 0.478431 1 
1 0.478431 1 1 0.478431 1 
1 0.478431 1 1 0.478431 1 
1 0.478431 1 1 0.478431 1 
1 0.478431 1 1 0.478431 1 
1 0.478431 1 1 0.478431 1 
1 0.478431 1 1 0.478431 1 
1 0.478431 1 1 0.478431 1 
1 0.478431 1 1 0.478431 1 
1 0.478431 1 1 0.478431 1 
1 0.478431 1 1 0.478431 1 
1 0.478431 1 1 0.478431 1 
1 0.478431 1 1 0.478431 1 
1 0.478431 1 1 0.478431 1 
1 0.478431 1 1 0.478431 1 
1 0.478431 1 1 0.478431 1 
1 0.478431 1 1 0.478431 1 
1 0.478431 1 1 0.478431 1 
1 0.478431 1 1 0.478431 1 
1 0.478431 1 1 0.478431 1 
1 0.478431 1 1 0.478431 1 
1 0.478431 1 1 0.478431 1 
1 0.478431 1 1 0.478431 1 
1 0.478431 1 1 0.478431 1 
1 0.478431 1 1 0.478431 1 
1 0.478431 1 1 0.478431 1 
1 0.478431 1 1 0.478431 1 
1 0.478431 1 1 0.478431 1 
1 0.478431 1 1 0.478431 1 
1 0.478431 1 1 0.478431 1 
1 0.478431 1 1 0.478431 1 
1 0.478431 1 1 0.478431 1 
1 0.478431 1 1 0.478431 1 
1 0.478431 1 1 0.478431 1 
1 0.478431 1 1 0.478431 1 
1 0.478431 1 1 0.478431 1 
1 0.478431 1 1 0.478431 1 
1 0.478431 1 1 0.478431 1 
1 0.478431 1 1 0.478431 1 
1 0.478431 1 1 0.478431 1 
1 0.478431 1 1 0.478431 1 
1 0.478431 1 1 0.478431 1 
1 0.478431 1 1 0.478431 1 
1 0.478431 1 1 0.478431 1 
1 0.478431 1 1 0.478431 1 
1 0.478431 1 1 0.478431 1 
1 0.478431 1 1 0.478431 1 
1 0.478431 1 1 0.478431 1 
1 0.478431 1 1 0.478431 1 
1 0.478431 1 1 0.478431 1 
1 0.478431 1 1 0.478431 1 
1 0.478431 1 1 0.478431 1 
1 0.478431 1 1 0.478431 1 
1 0.478431 1 1 0.478431 1 
1 0.478431 1 1 0.478431 1 
1 0.478431 1 1 0.478431 1 
1 0.478431 1 1 0.478431 1 
1 0.478431 1 1 0.478431 1 
1 0.478431 1 1 0.478431 1 
1 0.478431 1 1 0.478431 1 
1 0.478431 1 1 0.478431 1 
1 0.478431 1 1 0.478431 1 
1 0.478431 1 1 0.478431 1 
1 0.478431 1 1 0.478431 1 
1 0.478431 1 1 0.478431 1 
1 0.478431 1 1 0.478431 1 
1 0.478431 1 1 0.478431 1 
1 0.478431 1 1 0.478431 1 
1 0.478431 1 1 0.478431 1 
1 0.478431 1 1 0.478431 1 
1 0.478431 1 1 0.478431 1 
1 0.478431 1 1 0.478431 1 
1 0.478431 1 1 0.478431 1 
1 0.478431 1 1 0.478431 1 
1 0.478431 1 1 0.478431 1 
1 0.478431 1 1 0.478431 1 
1 0.478431 1 1 0.478431 1 
1 0.478431 1 1 0.478431 1 
1 0.478431 1 1 0.478431 1 
1 0.478431 1 1 0.478431 1 
1 0.478431 1 1 0.478431 1 
1 0.478431 1 1 0.478431 1 
1 0.478431 1 1 0.478431 1 
1 0.478431 1 1 0.478431 1 
1 0.478431 1 1 0.478431 1 
1 0.478431 1 1 0.478431 1 
1 0.478431 1 1 0.478431 1 
1 0.478431 1 1 0.478431 1 
1 0.478431 1 1 0.478431 1 
1 0.478431 1 1 0.478431 1 
1 0.478431 1 1 0.478431 1 
1 0.478431 1 1 0.478431 1 
1 0.478431 1 1 0.478431 1 
1 0.478431 1 1 0.478431 1 
1 0.478431 1 1 0.478431 1 
1 0.478431 1 1 0.478431 1 
1 0.478431 1 1 0.478431 1 
1 0.478431 1 1 0.478431 1 
1 0.478431 1 1 0.478431 1 
1 0.478431 1 1 0.478431 1 
1 0.478431 1 1 0.478431 1 
1 0.478431 1 1 0.478431 1 
1 0.478431 1 1 0.478431 1 
1 0.478431 1 1 0.478431 1 
1 0.478431 1 1 0.478431 1 
1 0.478431 1 1 0.478431 1 
1 0.478431 1 1 0.478431 1 
1 0.478431 1 1 0.478431 1 
1 0.478431 1 1 0.478431 1 
1 0.478431 1 1 0.478431 1 
1 0.478431 1 1 0.478431 1 
1 0.478431 1 1 0.478431 1 
1 0.478431 1 1 0.478431 1 
1 0.478431 1 1 0.478431 1 
1 0.478431 1 1 0.478431 1 
1 0.478431 1 1 0.478431 1 
1 0.478431 1 1 0.478431 1 
1 0.478431 1 1 0.478431 1 
1 0.478431 1 1 0.478431 1 
1 0.478431 1 1 0.478431 1 
1 0.478431 1 1 0.478431 1 
1 0.478431 1 1 0.478431 1 
1 0.478431 1 1 0.478431 1 
1 0.478431 1 1 0.478431 1 
1 0.478431 1 1 0.478431 1 
1 0.478431 1 1 0.478431 1 
1 0.478431 1 1 0.478431 1 
1 0.478431 1 1 0.478431 1 
1 0.478431 1 1 0.478431 1 
1 0.478431 1 1 0.478431 1 
1 0.478431 1 1 0.478431 1 
1 0.478431 1 1 0.478431 1 
1 0.478431 1 1 0.478431 1 
1 0.478431 1 1 0.478431 1 
1 0.478431 1 1 0.478431 1 
1 0.478431 1 1 0.478431 1 
1 0.478431 1 1 0.478431 1 
1 0.478431 1 1 0.478431 1 
1 0.478431 1 1 0.478431 1 
1 0.478431 1 1 0.478431 1 
1 0.478431 1 1 0.478431 1 
1 0.478431 1 1 0.478431 1 
1 0.478431 1 1 0.478431 1 
1 0.478431 1 1 0.478431 1 
1 0.478431 1 1 0.478431 1 
1 0.478431 1 1 0.478431 1 
1 0.478431 1 1 0.478431 1 
1 0.478431 1 1 0.478431 1 
1 0.478431 1 1 0.478431 1 
1 0.478431 1 1 0.478431 1 
1 0.478431 1 1 0.478431 1 
1 0.478431 1 1 0.478431 1 
1 0.478431 1 1 0.478431 1 
1 0.478431 1 1 0.478431 1 
1 0.478431 1 1 0.478431 1 
1 0.478431 1 1 0.478431 1 
1 0.478431 1 1 0.478431 1 
1 0.478431 1 1 0.478431 1 
1 0.478431 1 1 0.478431 1 
1 0.478431 1 1 0.478431 1 
1 0.478431 1 1 0.478431 1 
1 0.478431 1 1 0.478431 1 
1 0.478431 1 1 0.478431 1 
1 0.478431 1 1 0.478431 1 
1 0.478431 1 1 0.478431 1 
1 0.478431 1 1 0.478431 1 
1 0.478431 1 1 0.478431 1 
1 0.478431 1 1 0.478431 1 
1 0.478431 1 1 0.478431 1 
1 0.478431 1 1 0.478431 1 
1 0.478431 1 1 0.478431 1 
1 0.478431 1 1 0.478431 1 
1 0.478431 1 1 0.478431 1 
1 0.478431 1 
NORMALS Normals float
0.358086 -0.160845 -0.91973 0.0229453 -0.0239878 -0.999449 0.444196 -0.0303056 -0.895417 
0.00235908 0.033466 -0.999437 0.0800099 0.124428 -0.988998 0.241302 0.125382 -0.962316 
-0.160486 -0.433094 -0.886946 0.00286232 -0.397906 -0.917422 -0.41027 -0.112945 -0.904943 
0.0965176 -0.262919 -0.959978 -0.137078 -0.126803 -0.982411 0.271527 -0.392496 -0.87876 
-0.271267 0.189784 -0.943608 0.427695 -0.37953 -0.820386 -0.250224 0.0245006 -0.967878 
0.104318 -0.163128 -0.981075 0.185128 -0.392635 -0.900869 0.43947 -0.420654 -0.793673 
0.248609 -0.3742 -0.893402 0.425264 -0.305941 -0.851793 -0.547865 0.208487 -0.810171 
0.398047 -0.444697 -0.802374 0.0940652 -0.263708 -0.960005 0.633563 -0.265573 -0.726684 
-0.419174 0.0757841 -0.904737 -0.170064 -0.0462181 -0.984349 0.753947 -0.303231 -0.582765 
0.742926 -0.12626 -0.657358 -0.169208 0.167021 -0.971325 -0.416687 -0.0862454 -0.90495 
-0.321595 0.201806 -0.925122 0.577089 0.363837 -0.731157 -0.0053634 0.339447 -0.94061 
-0.49395 -0.236653 -0.836665 0.148876 -0.624888 -0.766388 -0.621547 -0.112638 -0.775237 
0.32592 -0.521845 -0.788323 0.437415 -0.474949 -0.763604 -0.489225 0.289482 -0.822714 
-0.69228 0.307387 -0.652887 0.344962 -0.468819 -0.813148 -0.448683 0.223213 -0.865367 
-0.236671 0.222148 -0.945853 0.481823 -0.46694 -0.741494 0.666205 -0.433884 -0.60656 
0.854694 0.112997 -0.506685 0.798939 0.289864 -0.526949 -0.569558 0.185035 -0.800853 
0.635667 0.463215 -0.617543 0.593195 0.472899 -0.651526 0.253805 0.50559 -0.824598 
-0.175368 0.535062 -0.826411 0.1087 0.732199 -0.672361 0.312609 0.68593 -0.657097 
0.17386 0.715347 -0.676795 -0.186987 -0.673234 -0.715396 -0.600291 -0.794436 0.0923163 
-0.870119 0.0781229 -0.486611 0.256101 -0.934492 -0.247259 -0.29987 -0.12591 -0.945635 
0.349196 -0.452339 -0.820641 -0.242429 -0.0764775 -0.96715 0.373476 -0.696993 -0.612142 
-0.773287 -0.074636 -0.629648 0.343656 -0.665429 -0.66265 -0.908803 0.0885472 -0.407721 
-0.773813 0.027805 -0.632803 0.49919 -0.559503 -0.661639 -0.594805 0.235011 -0.76875 
0.52982 -0.580538 -0.618277 -0.817861 0.299144 -0.491545 -0.578679 0.116431 -0.807202 
0.934749 -0.0163889 -0.354931 -0.605631 0.22618 -0.762925 -0.79563 0.284661 -0.534734 
-0.824665 0.49093 -0.280918 0.80567 0.453637 -0.380933 -0.795189 0.356053 -0.490816 
0.77522 0.535395 -0.335239 -0.827328 0.557191 -0.0711785 -0.662548 0.437223 -0.608167 
-0.545394 0.357712 -0.758015 0.675937 0.60282 -0.423931 0.568756 0.632992 -0.525203 
-0.135969 0.512499 -0.847854 0.369366 0.824828 -0.428051 0.535512 0.771665 -0.343161 
-0.484317 0.411048 -0.772319 -0.66902 0.74249 -0.0334711 0.208659 0.492574 -0.844886 
0.105018 0.837266 -0.536617 -0.236576 0.735919 -0.634394 -0.985365 -0.0650693 0.157547 
-0.111567 -0.311935 -0.94353 -0.55135 -0.0168264 -0.834105 0.484651 -0.666204 -0.56682 
0.588397 -0.542269 -0.599778 -0.917849 0.215668 -0.333228 -0.917892 0.234579 -0.320073 
-0.853216 0.320305 -0.411614 0.912673 -0.207696 -0.35198 -0.785029 0.252498 -0.565663 
-0.850085 0.508304 -0.137775 0.802302 0.581526 -0.134684 0.684194 0.72529 -0.0763703 
-0.278055 0.912159 0.301083 -0.354441 0.870264 0.342071 0.0876812 0.984041 -0.15484 
-0.510761 0.792979 0.332126 -0.3758 0.815574 -0.440016 0.539384 0.582634 -0.607949 
0.600367 0.717778 -0.352639 0.0907616 0.994698 -0.0483654 -0.986157 0.134894 -0.0964275 
-0.940706 0.171655 -0.292586 -0.978979 0.186641 -0.0822462 -0.882671 0.399771 -0.247136 
-0.718021 0.460961 -0.521498 -0.688754 0.114116 -0.715957 -0.794036 0.388771 -0.467295 
-0.818919 0.285275 -0.497986 -0.880039 0.369063 -0.298871 0.91778 0.376963 -0.124811 
0.746575 0.650234 0.140793 0.0799405 0.911878 0.402602 0.476283 0.867714 0.142224 
0.559944 0.814757 0.150447 -0.564034 -0.70427 0.431126 -0.969578 -0.0544899 0.23864 
0.502314 -0.816667 -0.284141 0.0906576 -0.965977 0.242216 0.501372 -0.85459 -0.135284 
0.400293 -0.916087 -0.0234649 -0.96232 -0.0504616 0.267198 -0.997927 0.0552522 -0.0329951 
-0.884279 0.4001 -0.240769 -0.789084 0.549073 -0.275437 -0.674824 0.291845 -0.67782 
0.936545 -0.294908 -0.189506 -0.717375 0.696079 -0.0291057 -0.90436 0.385923 -0.1822 
-0.8217 0.559397 0.109017 0.668741 0.680417 0.299698 0.135864 0.871189 0.471774 
0.472458 0.796185 0.377985 -0.31526 -0.738075 0.596537 0.0020156 -0.916319 0.400445 
-0.70111 -0.397688 0.591853 0.230109 -0.868086 0.43986 -0.912219 -0.233565 0.336608 
-0.838709 -0.129206 0.52903 -0.805868 -0.0503135 0.589953 0.560538 -0.723499 -0.402921 
-0.932967 0.0765822 0.35172 -0.960444 0.178837 0.21346 0.596061 -0.627668 -0.500743 
-0.987503 0.146219 0.0588034 0.836653 -0.422164 -0.348983 -0.800398 0.493413 -0.340451 
0.983404 0.172094 -0.0574508 -0.0982074 0.820598 0.563005 0.49909 0.711885 0.494094 
0.339836 0.812463 0.473725 -0.139599 -0.728947 0.670186 -0.311167 -0.579018 0.7536 
0.33692 -0.934927 0.111343 -0.915577 0.400717 0.0338226 0.999206 0.0396967 0.00341062 
-0.790175 0.551435 0.267475 0.854479 0.480886 0.196504 0.754676 0.584296 0.298433 
-0.146435 0.833726 0.532408 0.598862 0.726447 0.337104 0.0503386 -0.851352 0.522174 
0.264355 -0.910525 0.3179 -0.0260824 -0.832717 0.553084 0.506956 -0.823016 -0.256203 
0.345259 -0.936215 0.0655537 0.61299 -0.682038 -0.398832 -0.915213 0.0921552 0.392292 
0.690793 -0.618059 -0.375243 -0.93097 0.105744 0.349448 -0.937146 0.346072 0.0446196 
-0.808333 0.466046 0.359721 -0.556104 0.713735 0.425829 -0.000564819 0.862806 0.505535 
0.0763875 -0.840634 0.53619 0.579056 -0.810977 -0.0837302 0.602734 -0.791729 -0.0993794 
-0.60219 -0.325439 0.729011 -0.822558 -0.0327947 0.567736 0.923978 -0.374588 -0.0771236 
-0.773791 0.60173 0.197911 0.966854 0.13585 0.21619 0.752475 0.558471 0.349131 
0.415784 -0.905078 0.0892047 -0.331839 -0.685947 0.64758 -0.248129 -0.762006 0.598146 
0.322802 -0.944021 -0.0679901 -0.392115 -0.436581 0.809718 -0.541015 -0.265694 0.79794 
0.662672 -0.684546 -0.303747 -0.630036 -0.0621011 0.774079 -0.87781 0.266618 0.39795 
-0.671471 0.353534 0.65126 -0.812064 0.553795 0.184019 -0.654141 0.613988 0.441722 
0.984588 -0.0954029 0.146578 0.849988 0.434855 0.297357 0.537427 0.654386 0.531931 
-0.395789 0.754249 0.523888 0.4632 0.756808 0.461181 -0.00486305 -0.905103 0.425165 
0.219986 -0.965086 -0.142183 -0.681487 0.110229 0.723481 -0.862216 0.381367 0.333379 
-0.0944433 0.856702 0.507091 0.214913 0.787255 0.577964 -0.246354 -0.543909 0.802168 
-0.134715 -0.565456 0.813702 0.0594786 -0.83338 0.54949 -0.0628337 -0.839476 0.539752 
-0.0786021 -0.996058 -0.0411139 -0.0147285 -0.989862 0.14127 0.306152 -0.946423 -0.102737 
0.45669 -0.887154 -0.06628 -0.38145 -0.304839 0.872679 0.888778 -0.457845 -0.0212563 
-0.745626 0.46562 0.476697 0.821434 0.380917 0.424439 -0.490796 0.690339 0.531556 
-0.177766 0.812567 0.555099 0.0721086 0.814295 0.575955 0.275962 0.843722 0.460411 
-0.173612 0.856737 0.485655 -0.228321 -0.926356 0.299555 -0.0896731 -0.944991 0.314565 
0.332573 -0.942357 0.0368479 -0.264049 -0.631935 0.728654 -0.816758 0.274066 0.507735 
-0.74976 0.457387 0.478181 0.394177 0.736351 0.54992 0.256529 -0.901559 0.348403 
-0.118763 -0.854687 0.505376 -0.413033 -0.759105 0.503153 0.704541 -0.708499 -0.0406277 
-0.580051 -0.195778 0.790703 -0.705467 0.148353 0.693043 0.921069 -0.0452682 0.386759 
0.471662 0.65947 0.58535 0.0225653 0.752521 0.658182 -0.153272 -0.728004 0.66822 
0.330399 -0.775314 0.538261 0.74382 -0.649652 0.157112 0.815543 -0.577215 0.0413819 
-0.710199 0.281914 0.645091 0.868789 0.254092 0.425021 -0.537923 0.606194 0.585805 
0.123629 0.7296 0.672607 -0.137467 0.676162 0.723815 -0.425278 -0.512758 0.7458 
0.317696 -0.778033 0.541972 -0.0948321 -0.694344 0.713368 0.790988 -0.527599 0.309803 
0.866587 -0.449771 0.216178 -0.601142 -0.117286 0.790489 0.898515 -0.282559 0.335905 
0.862675 0.209795 0.460193 0.354167 -0.743696 0.566994 0.548653 -0.639021 0.539103 
0.0661687 -0.635717 0.769081 0.470311 -0.681213 0.561031 -0.489263 -0.412723 0.768298 
0.553529 -0.626212 0.549058 0.656555 -0.51448 0.551584 -0.302785 -0.233534 0.924004 
-0.424648 -0.203907 0.882097 0.828867 -0.407025 0.383809 -0.57027 0.306747 0.762036 
-0.425086 0.533833 0.730975 0.0350469 0.73946 0.672288 0.243822 -0.596173 0.764937 
0.354564 -0.542809 0.761343 -0.0240437 -0.408868 0.912277 0.475729 -0.540738 0.693746 
0.731406 -0.392191 0.557882 0.606423 -0.41947 0.675497 -0.333995 -0.0473571 0.941385 
-0.483866 0.0702332 0.872319 0.762429 -0.0405936 0.645798 0.774328 0.233899 0.587969 
0.594645 0.574377 0.562573 0.303622 -0.512522 0.803202 0.176896 -0.487529 0.854999 
0.51275 -0.426473 0.745123 -0.178842 -0.307828 0.934483 0.0572346 -0.380944 0.922825 
-0.0944307 -0.117423 0.988582 0.243321 -0.453887 0.857194 -0.245929 -0.0515078 0.967918 
0.715326 -0.114356 0.689371 -0.123111 0.0699299 0.989926 0.357437 -0.0566671 0.932217 
0.496756 -0.155347 0.853874 -0.130264 0.0328302 0.990936 -0.236675 0.159179 0.958461 
0.601261 0.164458 0.781945 -0.247629 0.261857 0.932797 0.73036 0.243798 0.638073 
0.474508 0.494505 0.728222 0.609015 0.343921 0.714716 0.224638 -0.190865 0.955567 
0.0684606 -0.336579 0.939163 0.596354 -0.15392 0.787826 0.119999 -0.0392044 0.992 
0.513745 -0.122939 0.849089 0.0494293 0.00732384 0.998751 0.401226 -0.0422384 0.915005 
0.303982 -0.0632338 0.950577 0.141762 0.0496738 0.988654 0.177516 0.00541582 0.984103 
0.634759 0.102996 0.765815 0.411282 -0.016786 0.911353 0.66064 0.0141313 0.75057 
0.585747 0.189188 0.788105 -0.0624548 0.561636 0.825024 0.394666 -0.16647 0.903619 
0.191031 0.298443 0.935114 0.462725 -0.181636 -0.867695 0.246084 0.0544836 -0.967716 
0.337132 0.348959 -0.874397 0.0218986 -0.073544 -0.997051 0.27365 -0.0330993 -0.96126 
-0.0212933 -0.273338 -0.961682 0.406441 -0.416282 -0.813336 0.30203 -0.295146 -0.906458 
0.016866 -0.183339 -0.982905 0.513737 -0.233029 -0.825695 0.430673 -0.234839 -0.871419 
-0.000923411 -0.0349752 -0.999388 0.0377206 -0.0675744 -0.997001 0.336456 -0.0952934 -0.936865 
0.485194 -0.0949177 -0.86924 0.700785 -0.017662 -0.713154 -0.188365 0.0631657 -0.980066 
0.295035 0.0624957 -0.95344 0.200878 0.209652 -0.956919 -0.0369455 0.0843353 -0.995752 
0.345201 0.0292996 -0.938072 0.45093 0.0962485 -0.887355 0.670787 0.170524 -0.72178 
-0.0882534 0.0846079 -0.992498 -0.0766068 0.384204 -0.920064 0.538181 0.401182 -0.741225 
0.36181 0.568411 -0.73892 -0.110267 0.543335 -0.832243 0.0703999 0.700046 -0.710619 
0.00226216 -0.422948 -0.906151 0.297467 -0.556029 -0.776109 0.70845 -0.424152 -0.564087 
0.700844 -0.249987 -0.668074 0.792248 -0.23407 -0.56352 -0.245889 -0.0341056 -0.968698 
0.764256 -0.0782489 -0.640149 -0.449373 0.330683 -0.829887 -0.242546 0.631971 -0.73606 
0.466991 -0.700601 -0.539517 -0.269141 -0.375074 -0.887064 0.417812 -0.561788 -0.714022 
0.731619 -0.508633 -0.4539 -0.467853 -0.103383 -0.877739 -0.45979 0.112535 -0.880868 
-0.353074 0.601646 -0.716492 0.277661 -0.762754 -0.584047 0.0991393 -0.649914 -0.753514 
0.581996 -0.734007 -0.350021 -0.00771742 -0.579991 -0.814587 0.0701815 -0.52342 -0.84918 