# vtk DataFile Version 4.2
vtk output
ASCII
DATASET POLYDATA
POINTS 1313 float
395.283 108.751 164.297 395.355 109.682 164.383 394.008 110.351 163.714 
394.47 113.221 164.342 393.358 114.999 164.361 393.914 114.461 164.415 
393.582 115.009 164.323 393.54 115.196 164.418 393.636 115.111 164.371 
395.57 93.4694 164.666 395.778 94.7919 164.376 395.155 95.0179 164.544 
397.519 93.6257 164.43 397.506 94.1978 164.385 396.288 95.4369 164.252 
396.793 97.0248 164.244 394.281 98.0577 164.463 394.639 99.5897 164.211 
395.908 100.085 164.124 393.407 101.016 164.473 397.015 101.428 164.502 
392.922 103.677 164.401 394.276 103.223 164.087 394.954 103.012 164.077 
396.903 102.37 164.57 395.512 103.689 164.195 393.994 105.169 164.048 
394.69 104.89 164.085 396.181 104.346 164.501 397.373 103.981 165.155 
392.178 105.879 164.443 393.36 106.457 163.984 393.802 107.029 163.908 
394.219 107.633 163.907 392.391 109.074 163.903 391.692 110.13 164.101 
393.352 109.436 163.705 391.152 111.926 164.394 391.446 112.366 164.26 
392.011 112.508 164.06 392.74 115.046 164.466 393.891 115.01 164.729 
393.415 115.518 164.732 392.65 116.939 165.039 392.434 117.167 165.211 
392.947 116.816 165.15 392.658 117.401 165.053 392.623 117.514 165.161 
392.773 117.342 165.108 392.698 117.597 165.015 392.709 117.619 165.048 
392.728 117.561 165.005 392.727 117.639 164.991 400.665 84.4317 165.638 
399.676 85.7484 165.346 400.944 85.6212 165.493 401.297 86.011 165.6 
396.316 88.1674 165.901 397.243 88.8878 165.185 395.572 89.8076 166.002 
395.553 90.8549 165.56 396.169 90.9025 165.16 395.156 91.9962 165.419 
396.575 91.5469 164.868 398.815 90.8869 164.936 394.297 92.8199 166.031 
399.353 91.5378 165.076 401.026 91.4445 165.875 394.072 94.1385 165.6 
398.656 92.8914 164.846 394.77 94.3678 164.879 399.301 94.7559 165.155 
393.671 97.2188 164.989 393.109 98.5489 165.223 392.685 98.9205 165.665 
392.449 100.537 165.337 392.834 100.336 164.977 392.332 101.471 165.163 
391.978 103.181 165.116 392.3 103.917 164.716 390.982 105.125 165.78 
391.041 106.016 165.346 396.364 108.372 165.257 390.755 109.731 164.755 
390.231 110.928 165.243 389.842 111.154 165.799 390.555 114.493 165.408 
390.246 115.45 166.067 393.861 115.48 165.142 393.607 116.05 165.332 
391.4 117.014 166.047 392.919 117.257 165.494 392.487 117.492 165.641 
392.715 117.513 165.216 392.266 118.082 166.423 392.739 117.581 165.04 
392.169 118.143 166.582 400.464 81.8749 166.321 401.804 81.9256 166.47 
399.964 82.0165 166.326 397.677 83.9639 166.558 398.217 83.5985 166.369 
396.56 85.6167 166.961 402.832 84.5156 166.731 396.595 86.422 166.407 
396.204 87.0434 166.552 398.324 85.9719 165.512 395.574 89.0203 166.423 
394.742 91.172 166.349 394.039 93.264 166.23 391.874 100.972 166.085 
391.735 101.135 166.465 398.864 101.14 165.728 390.912 104.494 166.412 
390.067 108.042 165.893 396.623 109.804 166.021 389.375 113.216 166.71 
390.439 116.245 166.546 390.311 116.185 166.777 392.883 117.497 165.944 
391.766 117.901 166.957 392.041 118.121 167.059 392.362 118.157 166.662 
403.028 77.7408 167.725 401.903 78.2705 167.38 402.922 78.8844 167.416 
397.299 82.1328 168.061 396.943 83.6478 167.587 395.941 87.0961 167.046 
394.349 91.7655 167.116 394.077 92.75 167.551 392.358 98.6705 167.001 
391.063 103.597 166.973 389.881 107.664 167.092 389.8 108.163 166.71 
389.383 111.543 167.076 389.25 112.544 167.254 389.166 113.156 167.1 
389.133 113.09 167.346 389.107 113.369 167.221 389.24 113.873 167.143 
390.892 116.946 167.732 392.935 117.793 166.629 392.21 118.123 167.394 
392.448 118.173 167.064 392.243 118.209 167.117 402.13 75.8366 168.226 
403.67 75.2592 168.709 401.616 75.9664 168.183 404.454 75.7031 168.986 
401.31 78.1109 167.454 397.828 80.0815 168.432 396.847 82.773 168.623 
396.45 84.4075 168.242 395.305 88.5736 167.829 395.488 87.9327 168.372 
399.387 105.84 168.163 389.657 108.958 167.456 389.23 112.95 167.74 
404.259 73.605 169.499 404.523 73.1644 169.776 400.976 73.8751 169.173 
401.931 74.5615 168.723 402.551 74.6775 168.706 404.759 73.8523 169.711 
399.206 75.4606 169.194 400.553 75.0885 168.749 398.373 76.4181 169.486 
398.169 77.0446 169.471 396.674 82.9091 169.417 389.467 111.645 168.389 
389.692 111.287 168.86 389.424 113.144 168.336 390.054 115.303 168.65 
393.708 117.578 168.982 400.441 72.826 169.902 399.97 72.4312 170.378 
405.94 75.3962 170.379 396.967 81.4263 169.842 391.948 102.21 169.436 
394.529 117.108 169.619 393.288 117.574 169.35 393.969 117.572 169.537 
404.543 69.234 171.094 399.328 71.1436 171.821 398.909 72.9192 171.259 
398.157 75.1172 171.093 395.774 89.209 170.815 397.373 114.016 170.556 
390.396 114.527 169.712 392.023 116.659 169.934 392.941 117.056 170.167 
394.8 117.138 170.299 395.051 117.098 170.761 394.194 117.372 170.131 
394.62 117.39 170.592 394.795 117.308 170.65 394.705 117.399 170.629 
400.177 68.2546 172.509 403.83 67.2312 171.808 398.748 71.7758 172.681 
398.393 73.5784 172.018 398.202 74.2318 172.14 396.309 89.552 172.264 
391.953 109.555 171.764 396.248 116.187 171.662 393.901 117.236 170.459 
395.558 116.743 171.486 394.787 117.23 170.901 394.736 117.372 170.712 
395.023 117.125 171.304 395.095 117.162 171.236 395.254 117.057 171.362 
395.155 117.123 171.366 404.649 63.1264 173.837 401.711 64.9119 173.889 
402.918 64.7513 173.238 405.511 63.6145 173.753 403.275 65.2611 172.849 
406.527 64.1909 173.985 401.694 66.2734 172.814 402.266 66.0467 172.67 
398.452 72.766 173.369 397.72 78.0745 173.005 395.029 116.37 172.116 
396.523 116.255 172.361 396.937 116.047 172.617 394.821 116.908 171.427 
396.015 116.371 172.409 395.334 116.713 171.804 396.489 116.395 172.719 
396.462 116.39 172.598 396.65 116.322 172.695 396.568 116.411 172.719 
404.125 61.8824 174.624 403.825 62.4469 174.373 403.267 62.3496 174.72 
404.56 61.7572 174.595 405.463 61.877 174.552 399.825 67.621 174.22 
407.6 67.8804 173.79 398.305 115.302 173.645 397.656 115.728 173.472 
396.713 116.218 172.979 396.618 116.375 172.795 396.982 116.132 173.367 
397.067 116.142 173.286 397.121 116.123 173.425 404.787 60.2195 175.71 
405.87 61.7024 174.763 407.063 62.3722 175.129 399.471 68.2437 174.965 
399.038 69.8002 174.232 398.621 115.495 174.33 399.029 115.255 174.531 
396.823 115.927 173.522 398.125 115.569 174.415 397.361 115.821 173.779 
398.647 115.847 174.749 398.617 115.8 174.634 398.784 115.703 174.688 
398.751 116.032 174.801 405.547 58.5713 176.995 405.052 58.9179 176.925 
405.991 58.5158 176.889 404.442 59.2633 177.002 405.429 59.6833 176.02 
406.508 58.8572 176.624 406.814 59.6984 176.305 407.528 60.6744 176.463 
410.466 79.5923 176.262 397.191 114.43 175.151 400.384 114.284 175.485 
399.304 115.3 175.065 399.738 114.892 175.364 398.852 115.566 174.97 
399.167 115.581 175.391 399.237 115.579 175.312 399.398 115.417 175.435 
399.287 115.685 175.447 399.296 115.664 175.489 399.333 115.651 175.455 
399.328 115.705 175.49 406.913 57.1817 177.697 406.87 57.0956 177.751 
406.928 57.095 177.779 406.869 57.5159 177.569 406.603 57.4465 177.677 
406.992 57.2516 177.768 405.647 57.9351 177.85 406.449 58.0179 177.273 
406.764 58.5658 176.958 399.185 114.587 176.104 399.766 114.381 176.644 
398.97 115.23 175.497 400.128 114.649 176.254 399.459 115.081 175.712 
400.659 114.719 176.976 400.851 114.718 176.785 401.376 114.56 177.107 
399.284 115.478 175.521 400.902 114.888 177.047 400.953 114.898 177.172 
401.023 114.908 177.097 399.341 115.629 175.496 400.986 114.961 177.138 
406.862 57.0794 177.838 406.919 57.1428 177.906 405.106 58.2293 177.981 
406.002 57.5646 178.338 403.672 59.5689 177.585 402.962 113.187 177.901 
402 113.89 177.471 402.558 113.699 178.227 400.94 114.691 177.32 
401.328 114.776 177.291 401.528 114.474 177.417 401.147 114.878 177.281 
401.035 114.958 177.185 401.284 114.872 177.424 401.308 114.891 177.383 
401.345 114.878 177.437 406.15 57.3955 178.603 406.103 57.3723 178.692 
405.993 57.4571 178.662 406.195 57.3761 178.685 406.446 57.4698 178.628 
404.457 58.5289 178.687 400.047 110.96 178.804 401.201 113.548 178.244 
401.073 114.282 177.654 402.181 113.579 178.741 401.71 114.033 177.92 
402.998 113.816 178.731 402.841 113.855 178.874 403.231 113.845 178.959 
403.501 113.578 179.126 401.384 114.492 177.601 403.202 114.018 179.073 
403.308 113.917 179.215 403.147 114.063 179.059 406.073 57.4711 178.807 
401.571 62.7906 179.586 405.987 110.164 179.663 402.519 113.174 179.395 
403.94 113.037 179.423 404.462 112.805 180.239 403.082 113.922 179.143 
403.203 113.773 179.352 403.593 113.544 179.463 403.174 114.035 179.116 
403.391 113.876 179.387 403.416 113.932 179.343 403.469 113.827 179.338 
403.45 113.908 179.386 405.745 57.958 179.834 406.619 58.4183 180.412 
407.118 58.5874 180.148 403.237 60.0812 180.425 409.297 61.5113 180.786 
410.287 63.0563 180.882 401.055 64.6273 180.114 411.048 65.0155 180.31 
401.901 109 180.958 403.309 111.525 181.021 405.614 111.721 180.538 
404.125 112.569 180.69 403.684 113.12 179.869 404.754 112.95 180.633 
404.691 112.884 180.736 404.892 112.784 180.633 405.257 112.538 181.019 
403.422 113.624 179.525 404.81 113.038 180.752 404.839 113.034 180.797 
404.86 113.01 180.754 403.476 113.802 179.43 404.856 113.078 180.788 
405.595 58.2437 180.315 405.591 58.6063 180.945 406.148 58.6396 181.009 
406.748 59.2268 181.575 407.963 60.2723 181.901 408.126 108.468 181.724 
408.033 108.94 181.89 406.366 111.509 181.801 405.909 112.009 181.786 
404.875 112.602 181.119 404.908 112.886 180.848 405.426 112.669 181.388 
405.31 112.642 181.398 405.562 112.46 181.494 405.445 112.753 181.474 
405.449 112.728 181.513 405.495 112.715 181.493 405.484 112.768 181.516 
404.96 59.1537 181.595 403.59 60.2987 181.941 402.785 61.5837 182.226 
412.987 67.7016 182.395 413.163 67.2575 183.174 407.919 109.797 182.388 
405.308 111.734 182.168 405.813 111.28 182.925 406.805 111.522 182.569 
406.199 111.714 182.522 405.611 112.173 181.869 406.752 111.683 183.274 
406.823 111.759 183.015 407.159 111.645 183.133 405.447 112.548 181.58 
[...]
POINT_DATA 1313
COLOR_SCALARS scalars 3
1 0.478431 1 1 0.478431 1 1 0.478431 1 
1 0.478431 1 1 0.478431 1 
1 0.478431 1 1 0.478431 1 
1 0.478431 1 1 0.478431 1 
1 0.478431 1 1 0.478431 1 
1 0.478431 1 1 0.478431 1 
1 0.478431 1 1 0.478431 1 
1 0.478431 1 1 0.478431 1 
1 0.478431 1 1 0.478431 1 
1 0.478431 1 1 0.478431 1 
1 0.478431 1 1 0.478431 1 
1 0.478431 1 1 0.478431 1 
1 0.478431 1 1 0.478431 1 
1 0.478431 1 1 0.478431 1 
1 0.478431 1 1 0.478431 1 
1 0.478431 1 1 0.478431 1 
1 0.478431 1 1 0.478431 1 
1 0.478431 1 1 0.478431 1 
1 0.478431 1 1 0.478431 1 
1 0.478431 1 1 0.478431 1 
1 0.478431 1 1 0.478431 1 
1 0.478431 1 1 0.478431 1 
1 0.478431 1 1 0.478431 1 
1 0.478431 1 1 0.478431 1 
1 0.478431 1 1 0.478431 1 
1 0.478431 1 1 0.478431 1 
1 0.478431 1 1 0.478431 1 
1 0.478431 1 1 0.478431 1 
1 0.478431 1 1 0.478431 1 
1 0.478431 1 1 0.478431 1 
1 0.478431 1 1 0.478431 1 
1 0.478431 1 1 0.478431 1 
1 0.478431 1 1 0.478431 1 
1 0.478431 1 1 0.478431 1 
1 0.478431 1 1 0.478431 1 
1 0.478431 1 1 0.478431 1 
1 0.478431 1 1 0.478431 1 
1 0.478431 1 1 0.478431 1 
1 0.478431 1 1 0.478431 1 
1 0.478431 1 1 0.478431 1 
1 0.478431 1 1 0.478431 1 
1 0.478431 1 1 0.478431 1 
1 0.478431 1 1 0.478431 1 
1 0.478431 1 1 0.478431 1 
1 0.478431 1 1 0.478431 1 
1 0.478431 1 1 0.478431 1 
1 0.478431 1 1 0.478431 1 
1 0.478431 1 1 0.478431 1 
1 0.478431 1 1 0.478431 1 
1 0.478431 1 1 0.478431 1 
1 0.478431 1 1 0.478431 1 
1 0.478431 1 1 0.478431 1 
1 0.478431 1 1 0.478431 1 
1 0.478431 1 1 0.478431 1 
1 0.478431 1 1 0.478431 1 
1 0.478431 1 1 0.478431 1 
1 0.478431 1 1 0.478431 1 
1 0.478431 1 1 0.478431 1 
1 0.478431 1 1 0.478431 1 
1 0.478431 1 1 0.478431 1 
1 0.478431 1 1 0.478431 1 
1 0.478431 1 1 0.478431 1 
1 0.478431 1 1 0.478431 1 
1 0.478431 1 1 0.478431 1 
1 0.478431 1 1 0.478431 1 
1 0.478431 1 1 0.478431 1 
1 0.478431 1 1 0.478431 1 
1 0.478431 1 1 0.478431 1 
1 0.478431 1 1 0.478431 1 
1 0.478431 1 1 0.478431 1 
1 0.478431 1 1 0.478431 1 
1 0.478431 1 1 0.478431 1 
1 0.478431 1 1 0.478431 1 
1 0.478431 1 1 0.478431 1 
1 0.478431 1 1 0.478431 1 
1 0.478431 1 1 0.478431 1 
1 0.478431 1 1 0.478431 1 
1 0.478431 1 1 0.478431 1 
1 0.478431 1 1 0.478431 1 
1 0.478431 1 1 0.478431 1 
1 0.478431 1 1 0.478431 1 
1 0.478431 1 1 0.478431 1 
1 0.478431 1 1 0.478431 1 
1 0.478431 1 1 0.478431 1 
1 0.478431 1 1 0.478431 1 
1 0.478431 1 1 0.478431 1 
1 0.478431 1 1 0.478431 1 
1 0.478431 1 1 0.478431 1 
1 0.478431 1 1 0.478431 1 
1 0.478431 1 1 0.478431 1 
1 0.478431 1 1 0.478431 1 
1 0.478431 1 1 0.478431 1 
1 0.478431 1 1 0.478431 1 
1 0.478431 1 1 0.478431 1 
1 0.478431 1 1 0.478431 1 
1 0.478431 1 1 0.478431 1 
1 0.478431 1 1 0.478431 1 
1 0.478431 1 1 0.478431 1 
1 0.478431 1 1 0.478431 1 
1 0.478431 1 1 0.478431 1 
1 0.478431 1 1 0.478431 1 
1 0.478431 1 1 0.478431 1 
1 0.478431 1 1 0.478431 1 
1 0.478431 1 1 0.478431 1 
1 0.478431 1 1 0.478431 1 
1 0.478431 1 1 0.478431 1 
1 0.478431 1 1 0.478431 1 
1 0.478431 1 1 0.478431 1 
1 0.478431 1 1 0.478431 1 
1 0.478431 1 1 0.478431 1 
1 0.478431 1 1 0.478431 1 
1 0.478431 1 1 0.478431 1 
1 0.478431 1 1 0.478431 1 
1 0.478431 1 1 0.478431 1 
1 0.478431 1 1 0.478431 1 
1 0.478431 1 1 0.478431 1 
1 0.478431 1 1 0.478431 1 
1 0.478431 1 1 0.478431 1 
1 0.478431 1 1 0.478431 1 
1 0.478431 1 1 0.478431 1 
1 0.478431 1 1 0.478431 1 
1 0.478431 1 1 0.478431 1 
1 0.478431 1 1 0.478431 1 
1 0.478431 1 1 0.478431 1 
1 0.478431 1 1 0.478431 1 
1 0.478431 1 1 0.478431 1 
1 0.478431 1 1 0.478431 1 
1 0.478431 1 1 0.478431 1 
1 0.478431 1 1 0.478431 1 
1 0.478431 1 1 0.478431 1 
1 0.478431 1 1 0.478431 1 
1 0.478431 1 1 0.478431 1 
1 0.478431 1 1 0.478431 1 
1 0.478431 1 1 0.478431 1 
1 0.478431 1 1 0.478431 1 
1 0.478431 1 1 0.478431 1 
1 0.478431 1 1 0.478431 1 
1 0.478431 1 1 0.478431 1 
1 0.478431 1 1 0.478431 1 
1 0.478431 1 1 0.478431 1 
1 0.478431 1 1 0.478431 1 
1 0.478431 1 1 0.478431 1 
1 0.478431 1 1 0.478431 1 
1 0.478431 1 1 0.478431 1 
1 0.478431 1 1 0.478431 1 
1 0.478431 1 1 0.478431 1 
1 0.478431 1 1 0.478431 1 
1 0.478431 1 1 0.478431 1 
1 0.478431 1 1 0.478431 1 
1 0.478431 1 1 0.478431 1 
1 0.478431 1 1 0.478431 1 
1 0.478431 1 1 0.478431 1 
1 0.478431 1 1 0.478431 1 
1 0.478431 1 1 0.478431 1 
1 0.478431 1 1 0.478431 1 
1 0.478431 1 1 0.478431 1 
1 0.478431 1 1 0.478431 1 
1 0.478431 1 1 0.478431 1 
1 0.478431 1 1 0.478431 1 
1 0.478431 1 1 0.478431 1 
1 0.478431 1 1 0.478431 1 
1 0.478431 1 1 0.478431 1 
1 0.478431 1 1 0.478431 1 
1 0.478431 1 1 0.478431 1 
1 0.478431 1 1 0.478431 1 
1 0.478431 1 1 0.478431 1 
1 0.478431 1 1 0.478431 1 
1 0.478431 1 1 0.478431 1 
1 0.478431 1 1 0.478431 1 
1 0.478431 1 1 0.478431 1 
1 0.478431 1 1 0.478431 1 
1 0.478431 1 1 0.478431 1 
1 0.478431 1 1 0.478431 1 
1 0.478431 1 1 0.478431 1 
1 0.478431 1 1 0.478431 1 
1 0.478431 1 1 0.478431 1 
1 0.478431 1 1 0.478431 1 
1 0.478431 1 1 0.478431 1 
1 0.478431 1 1 0.478431 1 
1 0.478431 1 1 0.478431 1 
1 0.478431 1 1 0.478431 1 
1 0.478431 1 1 0.478431 1 
1 0.478431 1 1 0.478431 1 
1 0.478431 1 1 0.478431 1 
1 0.478431 1 1 0.478431 1 
1 0.478431 1 1 0.478431 1 
1 0.478431 1 1 0.478431 1 
1 0.478431 1 1 0.478431 1 
1 0.478431 1 1 0.478431 1 
1 0.478431 1 1 0.478431 1 
1 0.478431 1 1 0.478431 1 
1 0.478431 1 1 0.478431 1 
1 0.478431 1 1 0.478431 1 
1 0.478431 1 1 0.478431 1 
1 0.478431 1 1 0.478431 1 
1 0.478431 1 1 0.478431 1 
1 0.478431 1 1 0.478431 1 
1 0.478431 1 1 0.478431 1 
1 0.478431 1 1 0.478431 1 
1 0.478431 1 1 0.478431 1 
1 0.478431 1 1 0.478431 1 
1 0.478431 1 1 0.478431 1 
1 0.478431 1 1 0.478431 1 
1 0.478431 1 1 0.478431 1 
1 0.478431 1 1 0.478431 1 
1 0.478431 1 1 0.478431 1 
1 0.478431 1 1 0.478431 1 
1 0.478431 1 1 0.478431 1 
1 0.478431 1 1 0.478431 1 
1 0.478431 1 1 0.478431 1 
1 0.478431 1 1 0.478431 1 
1 0.478431 1 1 0.478431 1 
1 0.478431 1 1 0.478431 1 
1 0.478431 1 1 0.478431 1 
1 0.478431 1 1 0.478431 1 
1 0.478431 1 1 0.478431 1 
1 0.478431 1 1 0.478431 1 
1 0.478431 1 1 0.478431 1 
1 0.478431 1 1 0.478431 1 
1 0.478431 1 1 0.478431 1 
1 0.478431 1 1 0.478431 1 
1 0.478431 1 1 0.478431 1 
1 0.478431 1 1 0.478431 1 
1 0.478431 1 1 0.478431 1 
1 0.478431 1 1 0.478431 1 
1 0.478431 1 1 0.478431 1 
1 0.478431 1 1 0.478431 1 
1 0.478431 1 1 0.478431 1 
1 0.478431 1 1 0.478431 1 
1 0.478431 1 1 0.478431 1 
1 0.478431 1 1 0.478431 1 
1 0.478431 1 1 0.478431 1 
1 0.478431 1 1 0.478431 1 
1 0.478431 1 1 0.478431 1 
1 0.478431 1 1 0.478431 1 
1 0.478431 1 1 0.478431 1 
1 0.478431 1 1 0.478431 1 
1 0.478431 1 1 0.478431 1 
1 0.478431 1 1 0.478431 1 
1 0.478431 1 1 0.478431 1 
1 0.478431 1 1 0.478431 1 
1 0.478431 1 1 0.478431 1 
1 0.478431 1 1 0.478431 1 
1 0.478431 1 1 0.478431 1 
1 0.478431 1 1 0.478431 1 
1 0.478431 1 1 0.478431 1 
1 0.478431 1 1 0.478431 1 
1 0.478431 1 1 0.478431 1 
1 0.478431 1 1 0.478431 1 
1 0.478431 1 1 0.478431 1 
1 0.478431 1 1 0.478431 1 
1 0.478431 1 1 0.478431 1 
1 0.478431 1 1 0.478431 1 
1 0.478431 1 1 0.478431 1 
1 0.478431 1 1 0.478431 1 
1 0.478431 1 1 0.478431 1 
1 0.478431 1 1 0.478431 1 
1 0.478431 1 1 0.478431 1 
1 0.478431 1 1 0.478431 1 
1 0.478431 1 1 0.478431 1 
1 0.478431 1 1 0.478431 1 
1 0.478431 1 1 0.478431 1 
1 0.478431 1 1 0.478431 1 
1 0.478431 1 1 0.478431 1 
1 0.478431 1 1 0.478431 1 
1 0.478431 1 1 0.478431 1 
1 0.478431 1 1 0.478431 1 
1 0.478431 1 1 0.478431 1 
1 0.478431 1 1 0.478431 1 
1 0.478431 1 1 0.478431 1 
1 0.478431 1 1 0.478431 1 
1 0.478431 1 1 0.478431 1 
1 0.478431 1 1 0.478431 1 
1 0.478431 1 1 0.478431 1 
1 0.478431 1 1 0.478431 1 
1 0.478431 1 1 0.478431 1 
1 0.478431 1 1 0.478431 1 
1 0.478431 1 1 0.478431 1 
1 0.478431 1 1 0.478431 1 
1 0.478431 1 1 0.478431 1 
1 0.478431 1 1 0.478431 1 
1 0.478431 1 1 0.478431 1 
1 0.478431 1 1 0.478431 1 
1 0.478431 1 1 0.478431 1 
1 0.478431 1 1 0.478431 1 
1 0.478431 1 1 0.478431 1 
1 0.478431 1 1 0.478431 1 
1 0.478431 1 1 0.478431 1 
1 0.478431 1 1 0.478431 1 
1 0.478431 1 1 0.478431 1 
1 0.478431 1 1 0.478431 1 
1 0.478431 1 1 0.478431 1 
1 0.478431 1 1 0.478431 1 
1 0.478431 1 1 0.478431 1 
1 0.478431 1 1 0.478431 1 
1 0.478431 1 1 0.478431 1 
1 0.478431 1 1 0.478431 1 
1 0.478431 1 1 0.478431 1 
1 0.478431 1 1 0.478431 1 
1 0.478431 1 1 0.478431 1 
1 0.478431 1 1 0.478431 1 
1 0.478431 1 1 0.478431 1 
1 0.478431 1 1 0.478431 1 
1 0.478431 1 1 0.478431 1 
1 0.478431 1 1 0.478431 1 
1 0.478431 1 1 0.478431 1 
1 0.478431 1 1 0.478431 1 
1 0.478431 1 1 0.478431 1 
1 0.478431 1 1 0.478431 1 
1 0.478431 1 1 0.478431 1 
1 0.478431 1 1 0.478431 1 
1 0.478431 1 1 0.478431 1 
1 0.478431 1 1 0.478431 1 
1 0.478431 1 1 0.478431 1 
1 0.478431 1 1 0.478431 1 
1 0.478431 1 1 0.478431 1 
1 0.478431 1 1 0.478431 1 
1 0.478431 1 1 0.478431 1 
1 0.478431 1 1 0.478431 1 
1 0.478431 1 1 0.478431 1 
1 0.478431 1 1 0.478431 1 
1 0.478431 1 1 0.478431 1 
1 0.478431 1 1 0.478431 1 
1 0.478431 1 1 0.478431 1 
1 0.478431 1 1 0.478431 1 
1 0.478431 1 1 0.478431 1 
1 0.478431 1 1 0.478431 1 
1 0.478431 1 1 0.478431 1 
1 0.478431 1 1 0.478431 1 
1 0.478431 1 1 0.478431 1 
1 0.478431 1 1 0.478431 1 
1 0.478431 1 1 0.478431 1 
1 0.478431 1 1 0.478431 1 
1 0.478431 1 1 0.478431 1 
1 0.478431 1 1 0.478431 1 
1 0.478431 1 1 0.478431 1 
1 0.478431 1 1 0.478431 1 
1 0.478431 1 1 0.478431 1 
1 0.478431 1 1 0.478431 1 
1 0.478431 1 1 0.478431 1 
1 0.478431 1 1 0.478431 1 
1 0.478431 1 1 0.478431 1 
1 0.478431 1 1 0.478431 1 
1 0.478431 1 1 0.478431 1 
1 0.478431 1 1 0.478431 1 
1 0.478431 1 1 0.478431 1 
1 0.478431 1 1 0.478431 1 
1 0.478431 1 1 0.478431 1 
1 0.478431 1 1 0.478431 1 
1 0.478431 1 1 0.478431 1 
1 0.478431 1 1 0.478431 1 
1 0.478431 1 1 0.478431 1 
1 0.478431 1 1 0.478431 1 
1 0.478431 1 1 0.478431 1 
1 0.478431 1 1 0.478431 1 
1 0.478431 1 1 0.478431 1 
1 0.478431 1 1 0.478431 1 
1 0.478431 1 1 0.478431 1 
1 0.478431 1 1 0.478431 1 
1 0.478431 1 1 0.478431 1 
1 0.478431 1 1 0.478431 1 
1 0.478431 1 1 0.478431 1 
1 0.478431 1 1 0.478431 1 
1 0.478431 1 1 0.478431 1 
1 0.478431 1 1 0.478431 1 
1 0.478431 1 1 0.478431 1 
1 0.478431 1 1 0.478431 1 
1 0.478431 1 1 0.478431 1 
1 0.478431 1 1 0.478431 1 
1 0.478431 1 1 0.478431 1 
1 0.478431 1 1 0.478431 1 
1 0.478431 1 1 0.478431 1 
1 0.478431 1 1 0.478431 1 
1 0.478431 1 1 0.478431 1 
1 0.478431 1 1 0.478431 1 
1 0.478431 1 1 0.478431 1 
1 0.478431 1 1 0.478431 1 
1 0.478431 1 1 0.478431 1 
1 0.478431 1 1 0.478431 1 
1 0.478431 1 1 0.478431 1 
1 0.478431 1 1 0.478431 1 
1 0.478431 1 1 0.478431 1 
1 0.478431 1 1 0.478431 1 
1 0.478431 1 1 0.478431 1 
1 0.478431 1 1 0.478431 1 
1 0.478431 1 1 0.478431 1 
1 0.478431 1 1 0.478431 1 
1 0.478431 1 1 0.478431 1 
1 0.478431 1 1 0.478431 1 
1 0.478431 1 1 0.478431 1 
1 0.478431 1 1 0.478431 1 
1 0.478431 1 1 0.478431 1 
1 0.478431 1 1 0.478431 1 
1 0.478431 1 1 0.478431 1 
1 0.478431 1 1 0.478431 1 
1 0.478431 1 1 0.478431 1 
1 0.478431 1 1 0.478431 1 
1 0.478431 1 1 0.478431 1 
1 0.478431 1 1 0.478431 1 
1 0.478431 1 1 0.478431 1 
1 0.478431 1 1 0.478431 1 
1 0.478431 1 1 0.478431 1 
1 0.478431 1 1 0.478431 1 
1 0.478431 1 1 0.478431 1 
1 0.478431 1 1 0.478431 1 
1 0.478431 1 1 0.478431 1 
1 0.478431 1 1 0.478431 1 
1 0.478431 1 1 0.478431 1 
1 0.478431 1 1 0.478431 1 
1 0.478431 1 1 0.478431 1 
1 0.478431 1 1 0.478431 1 
1 0.478431 1 1 0.478431 1 
1 0.478431 1 1 0.478431 1 
1 0.478431 1 1 0.478431 1 
1 0.478431 1 1 0.478431 1 
1 0.478431 1 1 0.478431 1 
1 0.478431 1 1 0.478431 1 
1 0.478431 1 1 0.478431 1 
1 0.478431 1 1 0.478431 1 
1 0.478431 1 1 0.478431 1 
1 0.478431 1 1 0.478431 1 
1 0.478431 1 1 0.478431 1 
1 0.478431 1 1 0.478431 1 
1 0.478431 1 1 0.478431 1 
1 0.478431 1 1 0.478431 1 
1 0.478431 1 1 0.478431 1 
1 0.478431 1 1 0.478431 1 
1 0.478431 1 1 0.478431 1 
1 0.478431 1 1 0.478431 1 
1 0.478431 1 1 0.478431 1 
1 0.478431 1 1 0.478431 1 
1 0.478431 1 1 0.478431 1 
1 0.478431 1 1 0.478431 1 
1 0.478431 1 1 0.478431 1 
1 0.478431 1 1 0.478431 1 
1 0.478431 1 1 0.478431 1 
1 0.478431 1 1 0.478431 1 
1 0.478431 1 1 0.478431 1 
1 0.478431 1 1 0.478431 1 
1 0.478431 1 1 0.478431 1 
1 0.478431 1 1 0.478431 1 
1 0.478431 1 1 0.478431 1 
1 0.478431 1 1 0.478431 1 
1 0.478431 1 1 0.478431 1 
1 0.478431 1 1 0.478431 1 
1 0.478431 1 1 0.478431 1 
1 0.478431 1 1 0.478431 1 
1 0.478431 1 1 0.478431 1 
1 0.478431 1 1 0.478431 1 
1 0.478431 1 1 0.478431 1 
1 0.478431 1 1 0.478431 1 
1 0.478431 1 1 0.478431 1 
1 0.478431 1 1 0.478431 1 
1 0.478431 1 1 0.478431 1 
1 0.478431 1 1 0.478431 1 
1 0.478431 1 1 0.478431 1 
1 0.478431 1 1 0.478431 1 
1 0.478431 1 1 0.478431 1 
1 0.478431 1 1 0.478431 1 
1 0.478431 1 1 0.478431 1 
1 0.478431 1 1 0.478431 1 
1 0.478431 1 1 0.478431 1 
1 0.478431 1 1 0.478431 1 
1 0.478431 1 1 0.478431 1 
1 0.478431 1 1 0.478431 1 
1 0.478431 1 1 0.478431 1 
1 0.478431 1 1 0.478431 1 
1 0.478431 1 1 0.478431 1 
1 0.478431 1 1 0.478431 1 
1 0.478431 1 1 0.478431 1 
1 0.478431 1 1 0.478431 1 
1 0.478431 1 1 0.478431 1 
1 0.478431 1 1 0.478431 1 
1 0.478431 1 1 0.478431 1 
1 0.478431 1 1 0.478431 1 
1 0.478431 1 1 0.478431 1 
1 0.478431 1 1 0.478431 1 
1 0.478431 1 1 0.478431 1 
1 0.478431 1 1 0.478431 1 
1 0.478431 1 1 0.478431 1 
1 0.478431 1 1 0.478431 1 
1 0.478431 1 1 0.478431 1 
1 0.478431 1 1 0.478431 1 
1 0.478431 1 1 0.478431 1 
1 0.478431 1 1 0.478431 1 
1 0.478431 1 1 0.478431 1 
1 0.478431 1 1 0.478431 1 
1 0.478431 1 1 0.478431 1 
1 0.478431 1 1 0.478431 1 
1 0.478431 1 1 0.478431 1 
1 0.478431 1 1 0.478431 1 
1 0.478431 1 1 0.478431 1 
1 0.478431 1 1 0.478431 1 
1 0.478431 1 1 0.478431 1 
1 0.478431 1 1 0.478431 1 
1 0.478431 1 1 0.478431 1 
1 0.478431 1 1 0.478431 1 
1 0.478431 1 1 0.478431 1 
1 0.478431 1 1 0.478431 1 
1 0.478431 1 1 0.478431 1 
1 0.478431 1 1 0.478431 1 
1 0.478431 1 1 0.478431 1 
1 0.478431 1 1 0.478431 1 
1 0.478431 1 1 0.478431 1 
1 0.478431 1 1 0.478431 1 
1 0.478431 1 1 0.478431 1 
1 0.478431 1 1 0.478431 1 
1 0.478431 1 1 0.478431 1 
1 0.478431 1 1 0.478431 1 
1 0.478431 1 1 0.478431 1 
1 0.478431 1 1 0.478431 1 
1 0.478431 1 1 0.478431 1 
1 0.478431 1 1 0.478431 1 
1 0.478431 1 1 0.478431 1 
1 0.478431 1 1 0.478431 1 
1 0.478431 1 1 0.478431 1 
1 0.478431 1 1 0.478431 1 
1 0.478431 1 1 0.478431 1 
1 0.478431 1 1 0.478431 1 
1 0.478431 1 1 0.478431 1 
1 0.478431 1 1 0.478431 1 
1 0.478431 1 1 0.478431 1 
1 0.478431 1 1 0.478431 1 
1 0.478431 1 1 0.478431 1 
1 0.478431 1 1 0.478431 1 
1 0.478431 1 1 0.478431 1 
1 0.478431 1 1 0.478431 1 
1 0.478431 1 1 0.478431 1 
1 0.478431 1 1 0.478431 1 
1 0.478431 1 1 0.478431 1 
1 0.478431 1 1 0.478431 1 
1 0.478431 1 1 0.478431 1 
1 0.478431 1 1 0.478431 1 
1 0.478431 1 1 0.478431 1 
1 0.478431 1 1 0.478431 1 
1 0.478431 1 1 0.478431 1 
1 0.478431 1 1 0.478431 1 
1 0.478431 1 1 0.478431 1 
1 0.478431 1 1 0.478431 1 
1 0.478431 1 1 0.478431 1 
1 0.478431 1 1 0.478431 1 
1 0.478431 1 1 0.478431 1 
1 0.478431 1 1 0.478431 1 
1 0.478431 1 1 0.478431 1 
1 0.478431 1 1 0.478431 1 
1 0.478431 1 1 0.478431 1 
1 0.478431 1 1 0.478431 1 
1 0.478431 1 1 0.478431 1 
1 0.478431 1 1 0.478431 1 
1 0.478431 1 1 0.478431 1 
1 0.478431 1 1 0.478431 1 
1 0.478431 1 1 0.478431 1 
1 0.478431 1 1 0.478431 1 
1 0.478431 1 1 0.478431 1 
1 0.478431 1 1 0.478431 1 
1 0.478431 1 1 0.478431 1 
1 0.478431 1 1 0.478431 1 
1 0.478431 1 1 0.478431 1 
1 0.478431 1 1 0.478431 1 
1 0.478431 1 1 0.478431 1 
1 0.478431 1 1 0.478431 1 
1 0.478431 1 1 0.478431 1 
1 0.478431 1 1 0.478431 1 
1 0.478431 1 1 0.478431 1 
1 0.478431 1 1 0.478431 1 
1 0.478431 1 1 0.478431 1 
1 0.478431 1 1 0.478431 1 
1 0.478431 1 1 0.478431 1 
1 0.478431 1 1 0.478431 1 
1 0.478431 1 1 0.478431 1 
1 0.478431 1 1 0.478431 1 
1 0.478431 1 1 0.478431 1 
1 0.478431 1 1 0.478431 1 
1 0.478431 1 1 0.478431 1 
1 0.478431 1 1 0.478431 1 
1 0.478431 1 1 0.478431 1 
1 0.478431 1 1 0.478431 1 
1 0.478431 1 1 0.478431 1 
1 0.478431 1 1 0.478431 1 
1 0.478431 1 1 0.478431 1 
1 0.478431 1 1 0.478431 1 
1 0.478431 1 1 0.478431 1 
1 0.478431 1 1 0.478431 1 
1 0.478431 1 1 0.478431 1 
1 0.478431 1 1 0.478431 1 
1 0.478431 1 1 0.478431 1 
1 0.478431 1 1 0.478431 1 
1 0.478431 1 1 0.478431 1 
1 0.478431 1 1 0.478431 1 
1 0.478431 1 1 0.478431 1 
1 0.478431 1 1 0.478431 1 
1 0.478431 1 1 0.478431 1 
1 0.478431 1 1 0.478431 1 
1 0.478431 1 1 0.478431 1 
1 0.478431 1 1 0.478431 1 
1 0.478431 1 1 0.478431 1 
1 0.478431 1 1 0.478431 1 
1 0.478431 1 1 0.478431 1 
1 0.478431 1 1 0.478431 1 
1 0.478431 1 1 0.478431 1 
1 0.478431 1 1 0.478431 1 
1 0.478431 1 1 0.478431 1 
1 0.478431 1 1 0.478431 1 
1 0.478431 1 1 0.478431 1 
1 0.478431 1 1 0.478431 1 
1 0.478431 1 1 0.478431 1 
1 0.478431 1 1 0.478431 1 
1 0.478431 1 1 0.478431 1 
1 0.478431 1 1 0.478431 1 
1 0.478431 1 1 0.478431 1 
1 0.478431 1 1 0.478431 1 
1 0.478431 1 1 0.478431 1 
1 0.478431 1 1 0.478431 1 
1 0.478431 1 1 0.478431 1 
1 0.478431 1 1 0.478431 1 
1 0.478431 1 1 0.478431 1 
1 0.478431 1 1 0.478431 1 
1 0.478431 1 1 0.478431 1 
1 0.478431 1 1 0.478431 1 
1 0.478431 1 1 0.478431 1 
1 0.478431 1 1 0.478431 1 
1 0.478431 1 1 0.478431 1 
1 0.478431 1 1 0.478431 1 
1 0.478431 1 1 0.478431 1 
1 0.478431 1 1 0.478431 1 
1 0.478431 1 1 0.478431 1 
1 0.478431 1 1 0.478431 1 
1 0.478431 1 1 0.478431 1 
1 0.478431 1 1 0.478431 1 
1 0.478431 1 1 0.478431 1 
1 0.478431 1 1 0.478431 1 
1 0.478431 1 1 0.478431 1 
1 0.478431 1 1 0.478431 1 
1 0.478431 1 1 0.478431 1 
1 0.478431 1 1 0.478431 1 
1 0.478431 1 1 0.478431 1 
1 0.478431 1 1 0.478431 1 
1 0.478431 1 1 0.478431 1 
1 0.478431 1 1 0.478431 1 
1 0.478431 1 1 0.478431 1 
1 0.478431 1 1 0.478431 1 
1 0.478431 1 1 0.478431 1 
1 0.478431 1 1 0.478431 1 
1 0.478431 1 1 0.478431 1 
1 0.478431 1 1 0.478431 1 
1 0.478431 1 1 0.478431 1 
1 0.478431 1 1 0.478431 1 
1 0.478431 1 1 0.478431 1 
1 0.478431 1 1 0.478431 1 
1 0.478431 1 1 0.478431 1 
1 0.478431 1 1 0.478431 1 
1 0.478431 1 1 0.478431 1 
1 0.478431 1 1 0.478431 1 
1 0.478431 1 1 0.478431 1 
1 0.478431 1 1 0.478431 1 
1 0.478431 1 1 0.478431 1 

NORMALS Normals float
0.613165 0.00446715 -0.789943 0.518879 0.0299753 -0.854322 0.0916305 0.0624725 -0.993831 
0.681977 0.260861 -0.683271 -0.169476 0.346152 -0.922744 0.843588 0.372589 -0.386701 
0.217278 0.300399 -0.928736 -0.0671784 0.564943 -0.822391 0.505387 0.50447 -0.700067 
-0.388539 -0.200044 -0.899455 -0.187907 -0.184129 -0.964773 -0.447281 -0.0777201 -0.89101 
0.147279 -0.0239154 -0.988806 0.172292 -0.0186358 -0.98487 -0.0687077 -0.03125 -0.997147 
0.196021 0.0129291 -0.980514 -0.322325 -0.119692 -0.939032 -0.252054 -0.094277 -0.96311 
0.10278 -0.0237741 -0.99442 -0.443836 -0.0913056 -0.891444 0.44365 0.00910331 -0.896154 
-0.442011 -0.306906 -0.842873 -0.293044 -0.949491 0.112213 0.0155914 -0.214456 -0.976609 
0.472947 0.106925 -0.874579 0.265385 0.060525 -0.962241 0.0339426 0.17742 -0.98355 
0.247016 0.299336 -0.921619 0.357027 0.146014 -0.922611 0.620267 0.0841161 -0.779867 
-0.477771 -0.119477 -0.870322 -0.118159 -0.0163438 -0.99286 -0.0974318 -0.0387781 -0.994486 
0.24896 -0.0455317 -0.967443 -0.267389 -0.0986812 -0.958522 -0.392644 0.00549496 -0.919674 
0.025974 -0.039211 -0.998893 -0.593188 0.0567362 -0.803062 -0.445447 0.135945 -0.884927 
-0.287186 0.141464 -0.947371 -0.117741 0.343416 -0.931774 0.837577 0.41277 -0.357892 
0.352629 0.596819 -0.720736 -0.072679 0.216774 -0.973513 -0.717482 0.325101 -0.616059 
0.827521 0.27236 -0.490947 -0.405295 0.00398517 -0.914177 -0.740223 0.655386 -0.150127 
0.809794 0.111787 -0.575967 -0.804464 0.225713 -0.549446 -0.130695 0.931482 0.339499 
0.352678 -0.176558 -0.918937 -0.787153 0.234636 -0.570382 0.175401 -0.22106 -0.959358 
-0.0719519 -0.152179 -0.98573 0.249136 -0.0721893 -0.965774 0.49253 0.0548675 -0.868564 
-0.721738 -0.25922 -0.641793 -0.363549 -0.192038 -0.911567 -0.764837 -0.348364 -0.541911 
-0.591453 -0.253711 -0.765385 -0.363367 -0.23122 -0.902498 -0.617304 -0.25349 -0.744767 
-0.165224 -0.181958 -0.969326 0.121059 -0.0741234 -0.989874 -0.867693 -0.256936 -0.425551 
0.256396 -0.0160855 -0.966438 0.599497 0.176918 -0.780579 -0.72508 -0.227039 -0.650163 
0.366679 0.109426 -0.92389 -0.437801 -0.182654 -0.880323 0.520544 0.0988648 -0.848092 