# vtk DataFile Version 4.2
vtk output
ASCII
DATASET POLYDATA
POINTS 1191 float
400.807 106.644 143.255 403.409 110.38 143.396 404.147 111.137 143.355 
403.271 104.321 142.453 399.111 106.089 143.939 400.925 108.445 144.231 
405.826 109.195 142.452 408.809 109.451 142.911 405.101 113.494 144.432 
407.865 112.833 143.474 406.05 113.69 144.026 406.753 114.169 144.134 
396.446 103.477 144.243 400.508 108.481 144.708 406.384 114.803 144.691 
407.527 116.278 145.294 408.632 92.746 144.601 415.445 91.8146 145.509 
395.993 99.0008 144.926 393.864 101.707 145.194 394.498 101.697 144.896 
392.764 102.763 146.016 393.06 103.377 146.09 404.124 113.195 145.342 
406.355 115.842 145.652 409.893 116.804 145.735 407.546 116.755 145.715 
408.903 117.233 145.808 408.534 117.72 146.16 413.437 89.3388 146.549 
409.651 89.8776 145.803 408.238 90.5252 145.469 415.109 90.6331 145.988 
417.242 92.0347 146.189 416.728 101.071 145.77 408.047 118.456 146.988 
408.799 118.284 146.555 410.034 118.236 146.722 408.524 118.627 146.908 
407.113 88.3914 147.377 407.895 88.7109 146.984 409.21 88.2589 147.825 
415.504 88.7246 148.232 419.026 90.0446 147.827 418.841 89.7021 148.022 
419.414 89.766 148.227 391.558 98.4808 147.127 409.333 120.507 148.348 
410.211 120.54 148.431 409.466 121.075 148.779 405.842 87.9264 148.29 
408.212 87.9571 148.614 419.747 89.0921 149.016 418.064 89.0183 148.597 
420.046 90.0461 148.368 389.16 99.5183 148.362 392.281 104.562 147.855 
400.125 110.322 148.501 406.97 118.509 148.149 411.082 119.847 148.328 
407.86 87.8407 149.118 419.653 88.834 149.379 421.988 89.5226 149.815 
421.224 90.8956 148.739 421.83 90.6372 149.23 421.168 91.6814 148.534 
421.555 96.7739 149.023 389.633 97.457 148.9 388.084 98.7418 149.577 
390.107 103.551 149.055 417.346 109.403 148.369 409.275 122.041 149.824 
400.916 87.5692 150.399 423.221 89.3814 150.899 389.049 96.319 150.11 
387.09 98.8529 150.673 388.215 102.462 150.226 410.101 122.28 150.055 
409.644 122.629 150.47 397.747 87.4459 151.309 424.266 89.8486 151.595 
394.367 89.964 150.766 424.308 93.9054 151.478 386.772 101.217 151.335 
406.197 119.141 151.175 411.334 122.258 150.861 397.607 87.2178 151.73 
407.633 87.961 152.798 425.183 89.8238 152.565 386.562 97.5793 152.738 
385.905 100.507 152.611 386.619 101.571 151.831 395.151 108.17 152.354 
408.508 123.289 152.583 409.679 123.799 152.407 394.837 87.1422 153.003 
425.521 89.553 153.101 392.605 88.9486 153.086 425.938 89.7972 153.428 
391.305 90.2428 153.341 389.649 92.4312 153.536 387.386 95.7046 153.828 
385.927 99.0572 153.619 385.734 100.653 152.986 385.693 100.713 153.23 
385.717 100.832 153.07 401.705 113.218 153.332 403.049 114.647 152.964 
406.274 120.035 153.09 412.074 122.761 152.288 408.997 124.309 153.967 
410.025 124.253 153.389 395.024 85.9094 154.524 426.31 89.4197 154.147 
426.016 89.0782 154.241 426.61 89.6237 154.407 389.508 92.0278 154.852 
388.147 94.5063 154.085 386.085 101.668 153.306 401.62 113.186 154.205 
419.172 113.989 153.536 408.004 123.429 153.811 409.358 124.621 154.283 
409.665 124.692 154.291 409.557 124.836 154.78 394.115 85.6234 155.447 
424.574 88.1107 154.869 425.328 88.3876 154.894 406.17 88.2202 155.141 
385.82 100.06 154.895 403.377 115.043 154.903 408.015 124.143 155.575 
408.379 124.413 155.215 408.787 124.718 155.362 392.225 87.1461 156.168 
426.046 88.5222 155.737 413.368 89.1049 156.415 388.911 92.9837 155.993 
385.984 101.535 155.335 395.945 109.124 155.404 403.473 114.958 155.63 
410.541 124.978 155.633 408.915 125.036 156.35 392.078 86.9394 157.686 
425.945 88.3475 156.356 427.396 89.1834 156.792 404.997 88.424 156.822 
386.878 98.1801 156.761 386.218 99.9319 156.169 386.32 101.901 156.32 
386.422 102.43 156.508 386.455 102.594 156.437 397.561 110.003 157.034 
401.139 112.421 156.292 419.046 117.263 156.525 407.388 123.132 156.618 
407.975 124.385 156.808 408.633 125.094 156.889 408.714 125.229 157.264 
394.179 85.0209 157.922 395.11 84.9447 158.111 396.56 85.2331 157.775 
423.773 87.9583 157.289 425.351 88.1448 157.265 426.913 88.6573 157.554 
427.982 89.3123 158.249 411.154 89.9302 157.619 401.264 112.133 157.073 
404.196 115.233 156.582 405.365 116.49 157.002 405.998 117.975 156.976 
410.63 125.332 157.766 408.704 125.218 157.576 393.645 85.2782 158.644 
394.733 84.952 158.468 426.083 88.3601 158.036 428.806 89.9669 159.406 
408.718 90.3548 158.405 411.982 90.4628 158.181 412.043 93.1283 159.309 
413.334 93.4547 159.489 413.246 96.5585 159.555 406.127 101.087 159.7 
411.634 100.724 159.378 409.091 104.167 159.231 406.883 108.211 159.014 
395.65 108.782 158.469 403.385 110.414 158.903 402.439 111.964 158.035 
404.306 113.642 157.786 407.339 119.818 158.083 417.293 120.874 158.843 
407.97 123.19 158.538 412.383 124.692 158.417 408.342 124.596 158.197 
408.648 124.769 158.82 408.973 125.075 158.567 408.906 125.244 157.936 
410.03 125.351 158.673 393.272 85.5763 159.047 394.267 85.1071 159.299 
391.143 89.1451 160.146 421.068 88.9492 159.722 404.884 89.9578 159.632 
420.012 89.3913 159.915 410.427 91.542 158.92 409.716 92.5417 159.305 
413.654 92.5785 159.419 388.559 104.34 159.05 414.35 106.704 160.303 
412.9 115.677 160.623 418.948 119.073 159.321 410.134 121.386 160.394 
409.181 122.601 159.968 415.378 122.782 159.537 408.556 123.375 159.443 
408.626 124.181 159.464 408.473 124.304 159.129 393.732 85.4208 160.018 
393.933 85.4509 160.403 394.381 85.3936 160.464 395.538 85.5434 160.84 
402.254 88.7997 160.408 402.545 89.4109 160.878 428.568 89.717 160.272 
391.163 89.8645 161.006 404.512 91.4358 160.745 406.264 91.4631 159.931 
416.127 91.9061 160.025 403.203 98.7982 160.94 388.112 102.45 159.992 
388.714 103.838 160.236 391.667 106.474 160.385 414.866 123.094 160.837 
410.019 124.354 160.695 412.785 124.386 160.365 408.792 124.487 159.479 
409.541 124.677 160.204 409.759 124.599 160.453 410.014 125.089 159.907 
393.608 85.6374 160.456 394.961 85.8594 161.717 392.317 87.852 161.755 
427.344 89.2193 161.062 402.973 90.1896 161.152 429.582 91.0305 161.978 
429.738 91.3958 162.416 390.701 105.451 161.353 398.094 108.826 160.198 
416.09 113.597 162.516 416.734 121.854 161.043 416.074 122.268 161.85 
410.313 124.322 160.908 409.771 124.795 160.334 411.082 124.861 160.587 
410.032 124.911 160.338 393.863 86.1271 161.824 395.294 86.1937 162.224 
396.557 86.6953 162.443 401.24 89.2174 162.011 401.402 89.8038 162.328 
427.14 89.3978 161.859 401.755 90.4042 162.273 424.196 89.7975 162.6 
425.253 89.6704 162.693 390.846 93.1607 162.161 401.013 93.2065 162.901 
430.198 94.2608 163.25 430.069 96.6854 163.307 389.78 102.263 162.327 
391.93 106.146 161.695 392.888 106.387 161.954 394.264 106.776 161.909 
396.159 106.576 162.175 418.994 120.001 162.305 413.867 121.578 162.598 
413.94 121.974 162.601 415.916 122.251 162.39 412.624 123.386 161.873 
414.095 123.092 161.949 414.776 122.599 162.434 410.919 124.545 161.015 
411.515 124.309 161.441 411.914 124.171 161.593 412.494 123.971 161.517 
411.941 124.374 161.451 413.091 123.487 161.864 410.416 124.778 160.682 
410.714 124.823 160.702 411.571 124.56 161.214 394.46 86.2772 162.409 
394.323 86.5708 162.692 392.448 89.2866 162.796 429.153 90.8204 163.484 
392.398 90.8695 163.219 429.434 91.0797 163.39 391.899 92.7161 163.145 
429.911 93.1175 164.291 430.134 94.1954 164.522 391.275 95.2314 163.165 
394.393 97.5535 164.168 419.652 104.232 164.046 394.056 104.791 163.191 
396.227 104.194 163.098 390.898 104.697 162.65 391.879 105.16 162.814 
392.032 104.958 162.986 391.008 104.978 162.48 394.735 106.043 162.569 
427.136 107.053 163.513 417.07 115.507 164.358 414.118 122.56 162.477 
413.625 122.845 162.324 413.721 123.036 162.211 414.769 122.294 162.824 
411.827 124.402 161.596 411.741 124.388 161.593 411.758 124.48 161.519 
411.672 124.466 161.516 396.333 87.8986 163.484 394.158 88.7256 163.831 
400.35 89.3866 162.868 393.38 90.4312 163.95 398.709 89.9507 163.645 
424.511 91.0125 164.243 426.656 90.3148 163.84 428.134 90.899 164.361 
423.671 91.7611 164.372 392.714 93.7765 163.811 393.399 93.3368 164.014 
429.595 92.4734 164.634 392.519 95.6115 164.056 392.486 96.2048 164.013 
392.193 102.821 163.592 421.468 102.622 165.774 391.386 104.315 163.086 
415.963 120.228 164.391 418.581 120.492 164.424 415.386 121.484 163.574 
415.782 121.695 163.553 415.341 121.959 163.319 416.437 121.256 164.258 
416.976 121.197 164.45 413.523 123.04 162.252 411.755 124.46 161.6 
395.239 87.4172 163.575 394.443 89.2718 164.123 393.52 90.6911 164.086 
426.049 90.9686 164.681 427.2 91.3586 165.143 428.48 92.5647 165.983 
429.023 92.5078 165.463 429.535 93.6495 165.873 392.389 95.4712 164.029 
430.36 96.3328 165.541 391.497 97.8304 163.805 430.372 98.8485 166.205 
416.747 120.538 165.294 416.953 120.935 165.05 427.809 92.6967 166.378 
429.235 93.8561 166.563 429.59 94.7264 166.86 429.464 94.8165 167.197 
430 96.0362 167.267 422.454 102.224 167.123 417.149 120.334 165.989 
419.75 119.652 166.68 428.091 93.848 167.253 428.858 94.1365 167.183 
423.185 101.993 168.388 418.119 118.835 167.386 420.9 118.846 167.336 
418.037 119.466 167.3 417.542 120.466 166.372 418.55 120.078 167.124 
419.187 119.666 167.731 419.766 119.524 167.539 417.344 120.667 166.216 
417.327 120.711 166.073 418.046 120.248 167.01 417.211 120.72 166.016 
427.598 94.014 167.397 428.853 95.2083 168.188 429.098 96.1622 169.087 
425.2 98.0286 169.169 430.446 98.2048 169.656 421.38 109.427 169.14 
421.268 118.509 168.447 418.555 119.656 167.787 418.938 118.857 168.545 
418.229 120.087 167.724 418.136 119.997 167.567 418.264 120.103 167.503 
419.297 119.292 168.478 417.278 120.716 166.142 418.086 120.158 167.451 
430.34 98.0954 170.307 430.513 98.3506 170.25 430.486 98.2876 170.422 
430.529 98.4531 170.516 424.055 101.659 170.074 430.188 103.414 170.246 
420.782 118.664 169.506 418.161 120.2 167.781 418.15 120.168 167.75 
418.159 120.19 167.696 418.126 120.178 167.689 428.545 96.8565 170.22 
426.567 97.9245 170.736 420.73 118.482 170.19 418.141 120.216 167.772 
[...]
POINT_DATA 1191
COLOR_SCALARS scalars 3
1 0.478431 1 1 0.478431 1 1 0.478431 1 
1 0.478431 1 1 0.478431 1 
1 0.478431 1 1 0.478431 1 
1 0.478431 1 1 0.478431 1 
1 0.478431 1 1 0.478431 1 
1 0.478431 1 1 0.478431 1 
1 0.478431 1 1 0.478431 1 
1 0.478431 1 1 0.478431 1 
1 0.478431 1 1 0.478431 1 
1 0.478431 1 1 0.478431 1 
1 0.478431 1 1 0.478431 1 
1 0.478431 1 1 0.478431 1 
1 0.478431 1 1 0.478431 1 
1 0.478431 1 1 0.478431 1 
1 0.478431 1 1 0.478431 1 
1 0.478431 1 1 0.478431 1 
1 0.478431 1 1 0.478431 1 
1 0.478431 1 1 0.478431 1 
1 0.478431 1 1 0.478431 1 
1 0.478431 1 1 0.478431 1 
1 0.478431 1 1 0.478431 1 
1 0.478431 1 1 0.478431 1 
1 0.478431 1 1 0.478431 1 
1 0.478431 1 1 0.478431 1 
1 0.478431 1 1 0.478431 1 
1 0.478431 1 1 0.478431 1 
1 0.478431 1 1 0.478431 1 
1 0.478431 1 1 0.478431 1 
1 0.478431 1 1 0.478431 1 
1 0.478431 1 1 0.478431 1 
1 0.478431 1 1 0.478431 1 
1 0.478431 1 1 0.478431 1 
1 0.478431 1 1 0.478431 1 
1 0.478431 1 1 0.478431 1 
1 0.478431 1 1 0.478431 1 
1 0.478431 1 1 0.478431 1 
1 0.478431 1 1 0.478431 1 
1 0.478431 1 1 0.478431 1 
1 0.478431 1 1 0.478431 1 
1 0.478431 1 1 0.478431 1 
1 0.478431 1 1 0.478431 1 
1 0.478431 1 1 0.478431 1 
1 0.478431 1 1 0.478431 1 
1 0.478431 1 1 0.478431 1 
1 0.478431 1 1 0.478431 1 
1 0.478431 1 1 0.478431 1 
1 0.478431 1 1 0.478431 1 
1 0.478431 1 1 0.478431 1 
1 0.478431 1 1 0.478431 1 
1 0.478431 1 1 0.478431 1 
1 0.478431 1 1 0.478431 1 
1 0.478431 1 1 0.478431 1 
1 0.478431 1 1 0.478431 1 
1 0.478431 1 1 0.478431 1 
1 0.478431 1 1 0.478431 1 
1 0.478431 1 1 0.478431 1 
1 0.478431 1 1 0.478431 1 
1 0.478431 1 1 0.478431 1 
1 0.478431 1 1 0.478431 1 
1 0.478431 1 1 0.478431 1 
1 0.478431 1 1 0.478431 1 
1 0.478431 1 1 0.478431 1 
1 0.478431 1 1 0.478431 1 
1 0.478431 1 1 0.478431 1 
1 0.478431 1 1 0.478431 1 
1 0.478431 1 1 0.478431 1 
1 0.478431 1 1 0.478431 1 
1 0.478431 1 1 0.478431 1 
1 0.478431 1 1 0.478431 1 
1 0.478431 1 1 0.478431 1 
1 0.478431 1 1 0.478431 1 
1 0.478431 1 1 0.478431 1 
1 0.478431 1 1 0.478431 1 
1 0.478431 1 1 0.478431 1 
1 0.478431 1 1 0.478431 1 
1 0.478431 1 1 0.478431 1 
1 0.478431 1 1 0.478431 1 
1 0.478431 1 1 0.478431 1 
1 0.478431 1 1 0.478431 1 
1 0.478431 1 1 0.478431 1 
1 0.478431 1 1 0.478431 1 
1 0.478431 1 1 0.478431 1 
1 0.478431 1 1 0.478431 1 
1 0.478431 1 1 0.478431 1 
1 0.478431 1 1 0.478431 1 
1 0.478431 1 1 0.478431 1 
1 0.478431 1 1 0.478431 1 
1 0.478431 1 1 0.478431 1 
1 0.478431 1 1 0.478431 1 
1 0.478431 1 1 0.478431 1 
1 0.478431 1 1 0.478431 1 
1 0.478431 1 1 0.478431 1 
1 0.478431 1 1 0.478431 1 
1 0.478431 1 1 0.478431 1 
1 0.478431 1 1 0.478431 1 
1 0.478431 1 1 0.478431 1 
1 0.478431 1 1 0.478431 1 
1 0.478431 1 1 0.478431 1 
1 0.478431 1 1 0.478431 1 
1 0.478431 1 1 0.478431 1 
1 0.478431 1 1 0.478431 1 
1 0.478431 1 1 0.478431 1 
1 0.478431 1 1 0.478431 1 
1 0.478431 1 1 0.478431 1 
1 0.478431 1 1 0.478431 1 
1 0.478431 1 1 0.478431 1 
1 0.478431 1 1 0.478431 1 
1 0.478431 1 1 0.478431 1 
1 0.478431 1 1 0.478431 1 
1 0.478431 1 1 0.478431 1 
1 0.478431 1 1 0.478431 1 
1 0.478431 1 1 0.478431 1 
1 0.478431 1 1 0.478431 1 
1 0.478431 1 1 0.478431 1 
1 0.478431 1 1 0.478431 1 
1 0.478431 1 1 0.478431 1 
1 0.478431 1 1 0.478431 1 
1 0.478431 1 1 0.478431 1 
1 0.478431 1 1 0.478431 1 
1 0.478431 1 1 0.478431 1 
1 0.478431 1 1 0.478431 1 
1 0.478431 1 1 0.478431 1 
1 0.478431 1 1 0.478431 1 
1 0.478431 1 1 0.478431 1 
1 0.478431 1 1 0.478431 1 
1 0.478431 1 1 0.478431 1 
1 0.478431 1 1 0.478431 1 
1 0.478431 1 1 0.478431 1 
1 0.478431 1 1 0.478431 1 
1 0.478431 1 1 0.478431 1 
1 0.478431 1 1 0.478431 1 
1 0.478431 1 1 0.478431 1 
1 0.478431 1 1 0.478431 1 
1 0.478431 1 1 0.478431 1 
1 0.478431 1 1 0.478431 1 
1 0.478431 1 1 0.478431 1 
1 0.478431 1 1 0.478431 1 
1 0.478431 1 1 0.478431 1 
1 0.478431 1 1 0.478431 1 
1 0.478431 1 1 0.478431 1 
1 0.478431 1 1 0.478431 1 
1 0.478431 1 1 0.478431 1 
1 0.478431 1 1 0.478431 1 
1 0.478431 1 1 0.478431 1 
1 0.478431 1 1 0.478431 1 
1 0.478431 1 1 0.478431 1 
1 0.478431 1 1 0.478431 1 
1 0.478431 1 1 0.478431 1 
1 0.478431 1 1 0.478431 1 
1 0.478431 1 1 0.478431 1 
1 0.478431 1 1 0.478431 1 
1 0.478431 1 1 0.478431 1 
1 0.478431 1 1 0.478431 1 
1 0.478431 1 1 0.478431 1 
1 0.478431 1 1 0.478431 1 
1 0.478431 1 1 0.478431 1 
1 0.478431 1 1 0.478431 1 
1 0.478431 1 1 0.478431 1 
1 0.478431 1 1 0.478431 1 
1 0.478431 1 1 0.478431 1 
1 0.478431 1 1 0.478431 1 
1 0.478431 1 1 0.478431 1 
1 0.478431 1 1 0.478431 1 
1 0.478431 1 1 0.478431 1 
1 0.478431 1 1 0.478431 1 
1 0.478431 1 1 0.478431 1 
1 0.478431 1 1 0.478431 1 
1 0.478431 1 1 0.478431 1 
1 0.478431 1 1 0.478431 1 
1 0.478431 1 1 0.478431 1 
1 0.478431 1 1 0.478431 1 
1 0.478431 1 1 0.478431 1 
1 0.478431 1 1 0.478431 1 
1 0.478431 1 1 0.478431 1 
1 0.478431 1 1 0.478431 1 
1 0.478431 1 1 0.478431 1 
1 0.478431 1 1 0.478431 1 
1 0.478431 1 1 0.478431 1 
1 0.478431 1 1 0.478431 1 
1 0.478431 1 1 0.478431 1 
1 0.478431 1 1 0.478431 1 
1 0.478431 1 1 0.478431 1 
1 0.478431 1 1 0.478431 1 
1 0.478431 1 1 0.478431 1 
1 0.478431 1 1 0.478431 1 
1 0.478431 1 1 0.478431 1 
1 0.478431 1 1 0.478431 1 
1 0.478431 1 1 0.478431 1 
1 0.478431 1 1 0.478431 1 
1 0.478431 1 1 0.478431 1 
1 0.478431 1 1 0.478431 1 
1 0.478431 1 1 0.478431 1 
1 0.478431 1 1 0.478431 1 
1 0.478431 1 1 0.478431 1 
1 0.478431 1 1 0.478431 1 
1 0.478431 1 1 0.478431 1 
1 0.478431 1 1 0.478431 1 
1 0.478431 1 1 0.478431 1 
1 0.478431 1 1 0.478431 1 
1 0.478431 1 1 0.478431 1 
1 0.478431 1 1 0.478431 1 
1 0.478431 1 1 0.478431 1 
1 0.478431 1 1 0.478431 1 
1 0.478431 1 1 0.478431 1 
1 0.478431 1 1 0.478431 1 
1 0.478431 1 1 0.478431 1 
1 0.478431 1 1 0.478431 1 
1 0.478431 1 1 0.478431 1 
1 0.478431 1 1 0.478431 1 
1 0.478431 1 1 0.478431 1 
1 0.478431 1 1 0.478431 1 
1 0.478431 1 1 0.478431 1 
1 0.478431 1 1 0.478431 1 
1 0.478431 1 1 0.478431 1 
1 0.478431 1 1 0.478431 1 
1 0.478431 1 1 0.478431 1 
1 0.478431 1 1 0.478431 1 
1 0.478431 1 1 0.478431 1 
1 0.478431 1 1 0.478431 1 
1 0.478431 1 1 0.478431 1 
1 0.478431 1 1 0.478431 1 
1 0.478431 1 1 0.478431 1 
1 0.478431 1 1 0.478431 1 
1 0.478431 1 1 0.478431 1 
1 0.478431 1 1 0.478431 1 
1 0.478431 1 1 0.478431 1 
1 0.478431 1 1 0.478431 1 
1 0.478431 1 1 0.478431 1 
1 0.478431 1 1 0.478431 1 
1 0.478431 1 1 0.478431 1 
1 0.478431 1 1 0.478431 1 
1 0.478431 1 1 0.478431 1 
1 0.478431 1 1 0.478431 1 
1 0.478431 1 1 0.478431 1 
1 0.478431 1 1 0.478431 1 
1 0.478431 1 1 0.478431 1 
1 0.478431 1 1 0.478431 1 
1 0.478431 1 1 0.478431 1 
1 0.478431 1 1 0.478431 1 
1 0.478431 1 1 0.478431 1 
1 0.478431 1 1 0.478431 1 
1 0.478431 1 1 0.478431 1 
1 0.478431 1 1 0.478431 1 
1 0.478431 1 1 0.478431 1 
1 0.478431 1 1 0.478431 1 
1 0.478431 1 1 0.478431 1 
1 0.478431 1 1 0.478431 1 
1 0.478431 1 1 0.478431 1 
1 0.478431 1 1 0.478431 1 
1 0.478431 1 1 0.478431 1 
1 0.478431 1 1 0.478431 1 
1 0.478431 1 1 0.478431 1 
1 0.478431 1 1 0.478431 1 
1 0.478431 1 1 0.478431 1 
1 0.478431 1 1 0.478431 1 
1 0.478431 1 1 0.478431 1 
1 0.478431 1 1 0.478431 1 
1 0.478431 1 1 0.478431 1 
1 0.478431 1 1 0.478431 1 
1 0.478431 1 1 0.478431 1 
1 0.478431 1 1 0.478431 1 
1 0.478431 1 1 0.478431 1 
1 0.478431 1 1 0.478431 1 
1 0.478431 1 1 0.478431 1 
1 0.478431 1 1 0.478431 1 
1 0.478431 1 1 0.478431 1 
1 0.478431 1 1 0.478431 1 
1 0.478431 1 1 0.478431 1 
1 0.478431 1 1 0.478431 1 
1 0.478431 1 1 0.478431 1 
1 0.478431 1 1 0.478431 1 
1 0.478431 1 1 0.478431 1 
1 0.478431 1 1 0.478431 1 
1 0.478431 1 1 0.478431 1 
1 0.478431 1 1 0.478431 1 
1 0.478431 1 1 0.478431 1 
1 0.478431 1 1 0.478431 1 
1 0.478431 1 1 0.478431 1 
1 0.478431 1 1 0.478431 1 
1 0.478431 1 1 0.478431 1 
1 0.478431 1 1 0.478431 1 
1 0.478431 1 1 0.478431 1 
1 0.478431 1 1 0.478431 1 
1 0.478431 1 1 0.478431 1 
1 0.478431 1 1 0.478431 1 
1 0.478431 1 1 0.478431 1 
1 0.478431 1 1 0.478431 1 
1 0.478431 1 1 0.478431 1 
1 0.478431 1 1 0.478431 1 
1 0.478431 1 1 0.478431 1 
1 0.478431 1 1 0.478431 1 
1 0.478431 1 1 0.478431 1 
1 0.478431 1 1 0.478431 1 
1 0.478431 1 1 0.478431 1 
1 0.478431 1 1 0.478431 1 
1 0.478431 1 1 0.478431 1 
1 0.478431 1 1 0.478431 1 
1 0.478431 1 1 0.478431 1 
1 0.478431 1 1 0.478431 1 
1 0.478431 1 1 0.478431 1 
1 0.478431 1 1 0.478431 1 
1 0.478431 1 1 0.478431 1 
1 0.478431 1 1 0.478431 1 
1 0.478431 1 1 0.478431 1 
1 0.478431 1 1 0.478431 1 
1 0.478431 1 1 0.478431 1 
1 0.478431 1 1 0.478431 1 
1 0.478431 1 1 0.478431 1 
1 0.478431 1 1 0.478431 1 
1 0.478431 1 1 0.478431 1 
1 0.478431 1 1 0.478431 1 
1 0.478431 1 1 0.478431 1 
1 0.478431 1 1 0.478431 1 
1 0.478431 1 1 0.478431 1 
1 0.478431 1 1 0.478431 1 
1 0.478431 1 1 0.478431 1 
1 0.478431 1 1 0.478431 1 
1 0.478431 1 1 0.478431 1 
1 0.478431 1 1 0.478431 1 
1 0.478431 1 1 0.478431 1 
1 0.478431 1 1 0.478431 1 
1 0.478431 1 1 0.478431 1 
1 0.478431 1 1 0.478431 1 
1 0.478431 1 1 0.478431 1 
1 0.478431 1 1 0.478431 1 
1 0.478431 1 1 0.478431 1 
1 0.478431 1 1 0.478431 1 
1 0.478431 1 1 0.478431 1 
1 0.478431 1 1 0.478431 1 
1 0.478431 1 1 0.478431 1 
1 0.478431 1 1 0.478431 1 
1 0.478431 1 1 0.478431 1 
1 0.478431 1 1 0.478431 1 
1 0.478431 1 1 0.478431 1 
1 0.478431 1 1 0.478431 1 
1 0.478431 1 1 0.478431 1 
1 0.478431 1 1 0.478431 1 
1 0.478431 1 1 0.478431 1 
1 0.478431 1 1 0.478431 1 
1 0.478431 1 1 0.478431 1 
1 0.478431 1 1 0.478431 1 
1 0.478431 1 1 0.478431 1 
1 0.478431 1 1 0.478431 1 
1 0.478431 1 1 0.478431 1 
1 0.478431 1 1 0.478431 1 
1 0.478431 1 1 0.478431 1 
1 0.478431 1 1 0.478431 1 
1 0.478431 1 1 0.478431 1 
1 0.478431 1 1 0.478431 1 
1 0.478431 1 1 0.478431 1 
1 0.478431 1 1 0.478431 1 
1 0.478431 1 1 0.478431 1 
1 0.478431 1 1 0.478431 1 
1 0.478431 1 1 0.478431 1 
1 0.478431 1 1 0.478431 1 
1 0.478431 1 1 0.478431 1 
1 0.478431 1 1 0.478431 1 
1 0.478431 1 1 0.478431 1 
1 0.478431 1 1 0.478431 1 
1 0.478431 1 1 0.478431 1 
1 0.478431 1 1 0.478431 1 
1 0.478431 1 1 0.478431 1 
1 0.478431 1 1 0.478431 1 
1 0.478431 1 1 0.478431 1 
1 0.478431 1 1 0.478431 1 
1 0.478431 1 1 0.478431 1 
1 0.478431 1 1 0.478431 1 
1 0.478431 1 1 0.478431 1 
1 0.478431 1 1 0.478431 1 
1 0.478431 1 1 0.478431 1 
1 0.478431 1 1 0.478431 1 
1 0.478431 1 1 0.478431 1 
1 0.478431 1 1 0.478431 1 
1 0.478431 1 1 0.478431 1 
1 0.478431 1 1 0.478431 1 
1 0.478431 1 1 0.478431 1 
1 0.478431 1 1 0.478431 1 
1 0.478431 1 1 0.478431 1 
1 0.478431 1 1 0.478431 1 
1 0.478431 1 1 0.478431 1 
1 0.478431 1 1 0.478431 1 
1 0.478431 1 1 0.478431 1 
1 0.478431 1 1 0.478431 1 
1 0.478431 1 1 0.478431 1 
1 0.478431 1 1 0.478431 1 
1 0.478431 1 1 0.478431 1 
1 0.478431 1 1 0.478431 1 
1 0.478431 1 1 0.478431 1 
1 0.478431 1 1 0.478431 1 
1 0.478431 1 1 0.478431 1 
1 0.478431 1 1 0.478431 1 
1 0.478431 1 1 0.478431 1 
1 0.478431 1 1 0.478431 1 
1 0.478431 1 1 0.478431 1 
1 0.478431 1 1 0.478431 1 
1 0.478431 1 1 0.478431 1 
1 0.478431 1 1 0.478431 1 
1 0.478431 1 1 0.478431 1 
1 0.478431 1 1 0.478431 1 
1 0.478431 1 1 0.478431 1 
1 0.478431 1 1 0.478431 1 
1 0.478431 1 1 0.478431 1 
1 0.478431 1 1 0.478431 1 
1 0.478431 1 1 0.478431 1 
1 0.478431 1 1 0.478431 1 
1 0.478431 1 1 0.478431 1 
1 0.478431 1 1 0.478431 1 
1 0.478431 1 1 0.478431 1 
1 0.478431 1 1 0.478431 1 
1 0.478431 1 1 0.478431 1 
1 0.478431 1 1 0.478431 1 
1 0.478431 1 1 0.478431 1 
1 0.478431 1 1 0.478431 1 
1 0.478431 1 1 0.478431 1 
1 0.478431 1 1 0.478431 1 
1 0.478431 1 1 0.478431 1 
1 0.478431 1 1 0.478431 1 
1 0.478431 1 1 0.478431 1 
1 0.478431 1 1 0.478431 1 
1 0.478431 1 1 0.478431 1 
1 0.478431 1 1 0.478431 1 
1 0.478431 1 1 0.478431 1 
1 0.478431 1 1 0.478431 1 
1 0.478431 1 1 0.478431 1 
1 0.478431 1 1 0.478431 1 
1 0.478431 1 1 0.478431 1 
1 0.478431 1 1 0.478431 1 
1 0.478431 1 1 0.478431 1 
1 0.478431 1 1 0.478431 1 
1 0.478431 1 1 0.478431 1 
1 0.478431 1 1 0.478431 1 
1 0.478431 1 1 0.478431 1 
1 0.478431 1 1 0.478431 1 
1 0.478431 1 1 0.478431 1 
1 0.478431 1 1 0.478431 1 
1 0.478431 1 1 0.478431 1 
1 0.478431 1 1 0.478431 1 
1 0.478431 1 1 0.478431 1 
1 0.478431 1 1 0.478431 1 
1 0.478431 1 1 0.478431 1 
1 0.478431 1 1 0.478431 1 
1 0.478431 1 1 0.478431 1 
1 0.478431 1 1 0.478431 1 
1 0.478431 1 1 0.478431 1 
1 0.478431 1 1 0.478431 1 
1 0.478431 1 1 0.478431 1 
1 0.478431 1 1 0.478431 1 
1 0.478431 1 1 0.478431 1 
1 0.478431 1 1 0.478431 1 
1 0.478431 1 1 0.478431 1 
1 0.478431 1 1 0.478431 1 
1 0.478431 1 1 0.478431 1 
1 0.478431 1 1 0.478431 1 
1 0.478431 1 1 0.478431 1 
1 0.478431 1 1 0.478431 1 
1 0.478431 1 1 0.478431 1 
1 0.478431 1 1 0.478431 1 
1 0.478431 1 1 0.478431 1 
1 0.478431 1 1 0.478431 1 
1 0.478431 1 1 0.478431 1 
1 0.478431 1 1 0.478431 1 
1 0.478431 1 1 0.478431 1 
1 0.478431 1 1 0.478431 1 
1 0.478431 1 1 0.478431 1 
1 0.478431 1 1 0.478431 1 
1 0.478431 1 1 0.478431 1 
1 0.478431 1 1 0.478431 1 
1 0.478431 1 1 0.478431 1 
1 0.478431 1 1 0.478431 1 
1 0.478431 1 1 0.478431 1 
1 0.478431 1 1 0.478431 1 
1 0.478431 1 1 0.478431 1 
1 0.478431 1 1 0.478431 1 
1 0.478431 1 1 0.478431 1 
1 0.478431 1 1 0.478431 1 
1 0.478431 1 1 0.478431 1 
1 0.478431 1 1 0.478431 1 
1 0.478431 1 1 0.478431 1 
1 0.478431 1 1 0.478431 1 
1 0.478431 1 1 0.478431 1 
1 0.478431 1 1 0.478431 1 
1 0.478431 1 1 0.478431 1 
1 0.478431 1 1 0.478431 1 
1 0.478431 1 1 0.478431 1 
1 0.478431 1 1 0.478431 1 
1 0.478431 1 1 0.478431 1 
1 0.478431 1 1 0.478431 1 
1 0.478431 1 1 0.478431 1 
1 0.478431 1 1 0.478431 1 
1 0.478431 1 1 0.478431 1 
1 0.478431 1 1 0.478431 1 
1 0.478431 1 1 0.478431 1 
1 0.478431 1 1 0.478431 1 
1 0.478431 1 1 0.478431 1 
1 0.478431 1 1 0.478431 1 
1 0.478431 1 1 0.478431 1 
1 0.478431 1 1 0.478431 1 
1 0.478431 1 1 0.478431 1 
1 0.478431 1 1 0.478431 1 
1 0.478431 1 1 0.478431 1 
1 0.478431 1 1 0.478431 1 
1 0.478431 1 1 0.478431 1 
1 0.478431 1 1 0.478431 1 
1 0.478431 1 1 0.478431 1 
1 0.478431 1 1 0.478431 1 
1 0.478431 1 1 0.478431 1 
1 0.478431 1 1 0.478431 1 
1 0.478431 1 1 0.478431 1 
1 0.478431 1 1 0.478431 1 
1 0.478431 1 1 0.478431 1 
1 0.478431 1 1 0.478431 1 
1 0.478431 1 1 0.478431 1 
1 0.478431 1 1 0.478431 1 
1 0.478431 1 1 0.478431 1 
1 0.478431 1 1 0.478431 1 
1 0.478431 1 1 0.478431 1 
1 0.478431 1 1 0.478431 1 
1 0.478431 1 1 0.478431 1 
1 0.478431 1 1 0.478431 1 
1 0.478431 1 1 0.478431 1 
1 0.478431 1 1 0.478431 1 
1 0.478431 1 1 0.478431 1 
1 0.478431 1 1 0.478431 1 
1 0.478431 1 1 0.478431 1 
1 0.478431 1 1 0.478431 1 
1 0.478431 1 1 0.478431 1 
1 0.478431 1 1 0.478431 1 
1 0.478431 1 1 0.478431 1 
1 0.478431 1 1 0.478431 1 
1 0.478431 1 1 0.478431 1 
1 0.478431 1 1 0.478431 1 
1 0.478431 1 1 0.478431 1 
1 0.478431 1 1 0.478431 1 
1 0.478431 1 1 0.478431 1 
1 0.478431 1 1 0.478431 1 
1 0.478431 1 1 0.478431 1 
1 0.478431 1 1 0.478431 1 
1 0.478431 1 1 0.478431 1 
1 0.478431 1 1 0.478431 1 
1 0.478431 1 1 0.478431 1 
1 0.478431 1 1 0.478431 1 
1 0.478431 1 1 0.478431 1 
1 0.478431 1 1 0.478431 1 
1 0.478431 1 1 0.478431 1 
1 0.478431 1 1 0.478431 1 
1 0.478431 1 1 0.478431 1 
1 0.478431 1 1 0.478431 1 
1 0.478431 1 1 0.478431 1 
1 0.478431 1 1 0.478431 1 
1 0.478431 1 1 0.478431 1 
1 0.478431 1 1 0.478431 1 
1 0.478431 1 1 0.478431 1 
1 0.478431 1 1 0.478431 1 
1 0.478431 1 1 0.478431 1 
1 0.478431 1 1 0.478431 1 
1 0.478431 1 1 0.478431 1 
1 0.478431 1 1 0.478431 1 
1 0.478431 1 1 0.478431 1 
1 0.478431 1 1 0.478431 1 
1 0.478431 1 1 0.478431 1 
1 0.478431 1 1 0.478431 1 
1 0.478431 1 1 0.478431 1 
1 0.478431 1 1 0.478431 1 
1 0.478431 1 1 0.478431 1 
1 0.478431 1 1 0.478431 1 
1 0.478431 1 1 0.478431 1 
1 0.478431 1 1 0.478431 1 
1 0.478431 1 1 0.478431 1 
1 0.478431 1 1 0.478431 1 
1 0.478431 1 1 0.478431 1 
1 0.478431 1 1 0.478431 1 
1 0.478431 1 1 0.478431 1 
1 0.478431 1 1 0.478431 1 
1 0.478431 1 1 0.478431 1 
1 0.478431 1 1 0.478431 1 
1 0.478431 1 1 0.478431 1 
1 0.478431 1 1 0.478431 1 
1 0.478431 1 1 0.478431 1 
1 0.478431 1 1 0.478431 1 
1 0.478431 1 1 0.478431 1 
1 0.478431 1 1 0.478431 1 
1 0.478431 1 1 0.478431 1 
1 0.478431 1 1 0.478431 1 
1 0.478431 1 1 0.478431 1 
1 0.478431 1 1 0.478431 1 
1 0.478431 1 1 0.478431 1 
1 0.478431 1 1 0.478431 1 
1 0.478431 1 1 0.478431 1 
1 0.478431 1 1 0.478431 1 
1 0.478431 1 1 0.478431 1 
1 0.478431 1 1 0.478431 1 
1 0.478431 1 1 0.478431 1 
1 0.478431 1 1 0.478431 1 
1 0.478431 1 1 0.478431 1 
1 0.478431 1 1 0.478431 1 

NORMALS Normals float
-0.44159 0.274646 -0.854148 -0.539748 0.449829 -0.711566 -0.384067 0.429541 -0.817305 
-0.130654 -0.0491658 -0.990208 -0.496694 0.432342 -0.752579 -0.594949 0.57884 -0.557656 
-0.0970513 0.167647 -0.981058 0.301395 0.0706017 -0.950882 -0.467362 0.775384 -0.424679 
0.127418 0.328181 -0.935982 -0.350693 0.612638 -0.7083 -0.104613 0.527461 -0.843114 
-0.337939 0.100096 -0.93583 -0.6008 0.578951 -0.55123 -0.274208 0.614672 -0.739587 
-0.183185 0.548829 -0.815616 -0.131374 -0.228136 -0.964725 0.159683 -0.214796 -0.963517 
-0.307844 -0.223494 -0.924815 -0.456753 0.0647208 -0.887236 -0.403012 -0.0550524 -0.913537 
-0.611109 0.307051 -0.729566 -0.494737 0.366089 -0.788171 -0.64264 0.678401 -0.356072 
-0.525123 0.617883 -0.585206 0.253298 0.468775 -0.846221 -0.344331 0.624045 -0.70143 
0.00840378 0.571591 -0.820496 0.0133579 0.59972 -0.800098 0.106378 -0.668086 -0.736441 
0.0438059 -0.580922 -0.812779 -0.477457 -0.381498 -0.791514 0.237896 -0.571724 -0.785199 
0.40481 -0.0650337 -0.912085 0.614173 0.105487 -0.78209 -0.396764 0.668744 -0.628776 
-0.135509 0.635275 -0.760305 0.275524 0.561091 -0.780554 -0.215653 0.71237 -0.667849 
-0.132519 -0.761179 -0.634858 -0.233002 -0.727771 -0.645027 0.0995552 -0.927063 -0.361445 
0.0964435 -0.960949 -0.259375 0.275718 -0.453788 -0.847382 0.0788368 -0.60874 -0.789443 
0.256081 -0.688399 -0.678623 -0.416128 -0.45186 -0.789088 0.0181885 0.587767 -0.808826 
0.192634 0.544425 -0.816391 -0.317312 0.628132 -0.710467 -0.0428732 -0.981219 -0.188072 
0.151124 -0.965221 -0.213329 0.320826 -0.703227 -0.634462 0.118831 -0.712998 -0.691023 
0.458022 -0.420712 -0.783082 -0.595156 -0.101481 -0.797177 -0.580286 0.715981 -0.388123 
-0.610975 0.696804 -0.375731 -0.620209 0.635813 -0.459438 0.524067 0.503301 -0.687053 
0.0915931 -0.986416 -0.13636 0.112197 -0.895046 -0.431629 0.348992 -0.765744 -0.540223 
0.649835 -0.151113 -0.744902 0.611996 -0.200578 -0.765003 0.584974 -0.142356 -0.798461 
0.713243 0.105805 -0.692885 -0.59719 -0.414617 -0.686627 -0.680103 -0.376003 -0.62935 
-0.628339 0.513283 -0.584578 0.644402 0.281164 -0.711121 -0.393858 0.689426 -0.60792 
-0.0574492 -0.873551 -0.48333 0.506438 -0.625178 -0.593862 -0.598761 -0.531905 -0.598801 
-0.868999 -0.172431 -0.463797 -0.695171 0.44051 -0.568057 0.271039 0.695213 -0.665746 
-0.0596701 0.844909 -0.531572 -0.269892 -0.710009 -0.650419 0.66747 -0.328675 -0.668174 
-0.423828 -0.541165 -0.726299 0.784478 0.069538 -0.616246 -0.743514 0.099839 -0.661225 
-0.85632 0.496624 -0.141706 0.418656 0.742442 -0.522979 -0.289733 -0.736593 -0.611134 
0.0913191 -0.994451 0.0522239 0.636552 -0.339198 -0.692637 -0.800413 -0.433146 -0.414395 
-0.907969 -0.2102 -0.362502 -0.846391 0.314086 -0.430084 -0.579658 0.806619 -0.1156 
-0.649255 0.641636 -0.408377 -0.0889541 0.880592 -0.465452 -0.407061 -0.639228 -0.652448 
0.590861 -0.477152 -0.650546 -0.584273 -0.617644 -0.526442 0.716147 -0.315475 -0.622582 
-0.709189 -0.565467 -0.421068 -0.736906 -0.531908 -0.417185 -0.862479 -0.496829 -0.0963856 
-0.955623 -0.294477 -0.00829321 -0.930754 -0.31218 -0.190369 -0.986921 -0.159214 -0.0252371 
-0.932551 0.237628 -0.271812 -0.725345 0.676455 -0.127604 -0.81458 0.571739 -0.0978451 
-0.864614 0.472409 -0.171095 0.546973 0.747536 -0.376844 -0.45529 0.800746 -0.389251 
0.115164 0.902199 -0.415662 -0.21014 -0.856602 -0.471248 0.666633 -0.560964 -0.490836 
0.510493 -0.746692 -0.426437 0.861595 -0.230289 -0.452351 -0.831598 -0.539956 -0.129973 
-0.913709 -0.38311 0.135508 -0.777011 0.622543 -0.0932423 -0.698297 0.697768 0.159691 
0.867792 0.276134 -0.413143 -0.775123 0.583971 -0.241168 -0.336417 0.873081 -0.352922 
0.0575287 0.913649 -0.402413 -0.255764 0.944474 -0.206286 -0.484706 -0.822172 -0.298485 
0.289853 -0.903366 -0.316092 0.358795 -0.909915 -0.20814 0.117241 -0.936651 0.33006 