# vtk DataFile Version 4.2
vtk output
ASCII
DATASET POLYDATA
POINTS 532 float
248.048 227.354 164.663 248.699 227.563 164.787 247.619 227.594 164.725 
247.497 227.447 164.709 248.725 227.77 164.827 248.911 227.682 164.935 
246.843 227.046 164.992 247.828 227.169 164.719 246.381 227.423 165.314 
248.872 227.866 165.003 248.395 228.24 165.203 247.961 226.213 165.229 
245.275 226.546 165.791 244.882 226.516 166.04 250.243 227.333 166.338 
247.057 228.576 165.804 247.927 228.89 166.023 248.853 228.757 166.115 
245.23 225.13 166.082 244.643 225.029 166.339 243.624 225.342 166.964 
243.613 225.957 167.125 250.957 226.101 167.018 244.938 227.329 166.343 
248.707 229.297 166.917 249.337 228.743 166.558 242.524 223.443 167.772 
248.638 223.033 166.963 242.454 224.4 167.858 242.507 225.444 168.218 
245.582 228.584 166.907 250.732 227.913 167.599 247.995 229.802 167.812 
249.392 229.347 167.721 241.064 221.842 169.121 241.329 222.914 168.915 
251.229 227.428 168.198 249.92 229.27 168.372 246.646 229.931 168.518 
248.493 229.994 168.433 241.861 218.75 169.319 243.56 219.503 168.497 
249.178 218.816 168.866 240.958 219.191 169.692 240.769 220.28 169.572 
251.463 221.456 169.159 252.075 223.226 169.563 252.191 224.128 169.692 
241.694 225.002 169.45 251.951 226.354 169.549 251.409 227.691 169.156 
244.557 228.588 168.424 245.715 229.786 169.272 248.276 230.353 169.215 
248.024 230.668 170.009 247.466 214.722 170.595 251.821 215.049 170.997 
252.165 215.244 171.018 252.272 215.299 171.007 252.271 215.343 171.076 
242.192 216.719 170.17 251.341 216.772 170.291 240.3 218.007 170.784 
240.018 220.14 170.664 242.404 226.805 170.508 251.891 227.266 170.724 
243.373 227.978 170.171 250.536 229.457 170.04 248.53 230.824 170.691 
245.34 213.73 172.167 246.722 214.066 171.373 250.559 214.07 171.5 
251.023 214.161 171.553 250.922 214.603 170.899 251.812 214.689 171.347 
252.057 214.762 171.487 252.061 214.681 171.597 252.159 215.182 171.356 
252.262 215.249 171.09 252.102 214.821 171.611 240.886 215.804 171.406 
252.343 216.709 171.523 252.358 218.575 171.356 239.827 219.586 171.181 
239.847 220.146 171.117 239.857 220.515 171.453 252.54 222.704 171.022 
252.412 224.915 170.833 246.442 230.555 170.862 247.449 230.983 171.266 
249.416 230.862 171.838 243.914 213.831 172.318 246.198 213.489 172.568 
247.088 213.532 172.365 250.198 213.886 171.84 251.624 214.482 171.994 
251.986 214.673 171.74 252.008 214.946 171.951 240.964 215.081 172.117 
240.242 215.581 172.41 252.449 217.135 172.144 239.609 218.532 172.077 
239.662 219.18 171.827 250.719 214.016 172.383 240.179 215.08 173.087 
240.032 215.552 172.909 252.439 217.062 172.731 252.329 216.731 173.041 
239.514 217.987 173.159 252.478 217.693 172.676 252.653 222.469 172.384 
244.175 213.396 174.097 240.262 214.848 173.332 251.963 215.626 173.041 
239.683 216.101 173.595 252.212 218.356 174.088 244.416 229.334 174.022 
248.507 231.413 174.114 248.865 231.451 174.027 248.852 231.44 174.309 
249.309 231.216 173.764 248.98 231.447 174.2 241.11 214.038 175.251 
240.542 214.425 174.815 243.188 213.532 175.008 246.564 213.447 174.333 
248.038 213.732 174.517 240.297 214.672 174.205 240.04 215.042 173.925 
239.748 215.757 173.988 239.871 215.604 174.587 251.742 217.781 175.052 
252.252 221.528 174.909 250.051 230.537 174.592 247.621 231.177 175.185 
249.226 231.171 174.826 240.648 214.245 175.31 240.552 214.307 175.469 
241.084 214.082 175.745 243.855 213.59 175.495 240.46 214.432 175.298 
240.257 214.919 175.276 251.379 216.511 174.894 246.593 230.747 175.44 
248.08 231.143 175.636 241.519 214.127 176.399 244.408 214.059 176.648 
248.905 215.745 176.924 250.731 218.474 177.256 247.336 230.827 176.251 
240.956 214.645 176.563 241.883 214.62 177.451 244.453 215.159 178.38 
251.973 225.593 177.085 248.164 230.83 176.671 248.73 230.492 177.491 
240.118 217.628 177.906 251.228 221.652 179.527 245.915 229.109 179.272 
250.527 228.869 178.897 248.933 230.288 177.853 249.534 218.73 179.727 
251.548 222.975 179.769 251.475 226.689 179.838 248.821 229.737 179.202 
241.309 216.824 180.216 240.349 217.989 179.378 242.612 216.785 180.821 
251.714 224.657 180.831 243.134 226.736 181.524 250.136 228.869 180.121 
249.119 229.434 179.821 249.62 229.268 179.827 241.012 217.817 180.844 
247.214 218.357 182.11 242.194 225.5 182.299 243.506 226.974 181.953 
251.516 226.761 181.941 250.636 228.094 181.565 250.046 228.588 181.361 
241.824 217.681 181.654 241.595 218.287 182.119 240.782 220.088 182.567 
240.522 220.941 181.944 246.98 228.339 183.018 249.642 228.408 182.666 
241.401 218.87 182.56 241.583 219.275 183.211 246.695 218.785 183.356 
241.171 223.003 183.514 241.325 219.846 183.478 242.461 219.564 184.241 
243.689 219.321 184.447 251.314 222.389 183.985 241.039 222.062 183.894 
243.119 225.637 184.914 244.478 226.749 185.116 251.483 227.021 184.539 
247.801 228.049 184.798 242.058 220.378 184.829 249.483 220.766 184.724 
241.365 221.113 184.56 250.992 222.135 184.915 250.883 222.228 185.299 
241.536 221.395 184.825 241.285 221.496 184.487 251.149 222.489 185.132 
251.98 224.455 185.349 252.106 224.923 185.435 252.148 225.27 185.297 
252.024 225.793 185.887 243.936 226.222 185.356 251.869 226.333 185.935 
250.137 227.762 185.411 243.234 221.307 185.865 250.453 222.025 185.563 
250.132 222.52 186.515 252.004 224.695 185.78 243.108 224.269 186.134 
251.939 225.395 186.275 246.237 227.261 186.2 246.399 227.12 186.534 
251.258 227.184 185.941 251.493 226.913 186.347 247.586 227.511 186.313 
250.747 227.407 186.148 247.941 222.426 187.035 243.737 222.987 186.605 
244.402 223.353 186.955 250.43 223.704 187.301 244.417 223.977 187.026 
251.209 224.123 187.065 251.381 224.46 187.066 243.933 224.826 186.696 
251.588 224.715 186.86 244.276 225.485 186.669 244.451 225.878 186.538 
244.858 226.078 186.718 251.563 226.491 186.898 245.116 226.348 186.648 
246.351 226.764 186.88 246.782 227.09 186.755 247.005 226.869 187.052 
246.513 223.898 187.589 247.445 223.764 187.654 245.014 225.245 187.159 
246.419 225.113 187.633 247.946 225.021 187.911 245.474 225.7 187.201 
247.07 225.688 187.678 248.542 225.678 187.94 249.354 225.536 187.972 
248.715 226.237 187.895 251.314 226.106 187.359 248.641 226.543 187.776 
248.924 226.785 187.679 251.168 226.845 187.104 250.787 226.997 187.172 
250.259 226.431 187.772 251.138 226.349 187.481 250.55 226.762 187.516 
251.009 226.664 187.394 249.431 226.496 267.211 249.474 226.064 267.083 
250.551 226.351 267.188 250.106 225.968 267.072 251.38 226.192 267.409 
249.331 226.769 267.419 250.922 226.625 267.393 251.32 226.494 267.473 
251.593 226.301 267.641 251.234 226.772 267.66 251.517 226.597 267.717 
246.245 223.186 267.635 248.835 223.009 267.675 249.749 222.988 267.858 
244.301 224.179 268.075 247.485 224.387 267.227 248.327 224.321 267.185 
250.667 223.749 267.677 251.42 224.205 267.875 243.829 224.781 268.502 
246.536 225.01 267.411 248.949 224.939 267.086 251.052 224.893 267.414 
251.56 224.531 267.84 244.263 225.602 268.64 250.863 225.407 267.235 
251.743 225.402 267.88 248.183 226.208 267.433 251.802 226.002 267.935 
245.762 226.458 268.415 247.644 227.198 268.508 247.866 226.821 268.006 
251.133 226.974 267.932 243.902 222.212 268.531 251.809 223.925 268.74 
243.907 223.59 268.305 251.772 226.596 268.275 251.626 226.805 268.437 
243.822 220.239 269.753 248.737 220.519 269.697 242.34 221.134 269.718 
242.199 220.689 269.99 246.225 221.189 268.705 241.536 220.951 270.41 
242.225 221.629 269.629 241.607 221.827 270.195 241.624 222.344 270.28 
252.053 224.495 269.123 243.648 225.858 269.687 252.079 225.788 268.772 
251.859 226.509 269.217 247.716 227.893 269.967 247.357 219.725 270.265 
247.187 219.443 270.687 249.949 220.734 270.367 241.375 220.144 271.052 
241.249 222.347 271.025 252.095 224.723 270.131 252.123 225.69 269.33 
250.964 227.235 269.932 242.772 219.189 271.123 241.073 219.924 271.707 
240.854 221.352 271.518 241.025 221.731 271.167 244.233 227.006 271.298 
252.031 225.893 269.891 242.687 217.682 272.931 240.873 219.219 272.6 
240.555 220.574 272.459 240.681 221.188 272.086 248.295 228.415 271.882 
248.599 219.12 272.441 249.274 219.396 272.703 250.177 220.304 272.318 
240.4 220.877 273.378 250.987 221.359 272.935 242.246 225.39 272.592 
243.446 226.866 273.098 251.348 226.536 272.282 249.917 228.406 273.991 
241.504 216.281 274.887 240.623 217.67 274.522 240.425 218.291 274.266 
240.373 218.895 273.949 249.134 219.135 273.297 240.331 220.228 273.434 
251.061 221.222 274.292 251.658 223.687 274.089 251.514 225.987 273.089 
241.791 215.424 275.981 242.183 215.343 275.902 242.278 215.903 275.137 
240.37 217.589 275.167 243.224 216.222 274.827 240.845 223.424 275.692 
251.683 224.215 274.942 241.158 215.323 276.791 240.774 215.98 276.495 
242.437 215.234 276.018 240.24 217.451 275.857 249.257 218.405 275.083 
241.415 214.84 277.285 242.354 214.366 277.524 244.148 214.718 277.059 
241.096 224.286 276.88 251.038 228.387 277.389 248.38 215.089 278.223 
249.906 216.498 277.957 248.194 231.063 279.188 240.773 214.29 279.285 
240.855 214.16 279.694 240.662 214.273 279.488 245.541 213.602 279.493 
240.56 214.508 279.391 240.213 215.269 279.302 246.546 213.823 279.191 
249.664 214.501 279.702 239.914 216.1 279.013 251.382 217.382 279.201 
239.743 218.325 278.29 249.1 230.848 279.224 246.929 213.637 279.739 
247.732 213.702 279.907 248.225 213.566 280.495 248.767 213.679 280.468 
250.371 214.508 280.319 239.949 215.472 280.073 239.634 216.877 279.727 
251.702 218.23 279.326 240.088 221.739 279.426 252.058 227.208 280.548 
240.741 214.331 280.751 241.674 213.863 281.203 248.087 213.448 281.078 
249.697 213.747 281.147 250.154 213.972 281.04 251.239 215.132 280.655 
246.912 231.086 281.217 247.443 231.325 281.426 249.634 230.925 280.638 
248.859 231.452 281.163 248.942 231.449 280.992 243.172 213.588 281.92 
249.599 213.659 281.697 240.737 214.664 282.044 251.608 214.892 281.656 
240.156 215.534 282.265 239.553 219.348 281.589 251.19 229.27 282.172 
[...]
POINT_DATA 532
COLOR_SCALARS scalars 3
0.94902 0.282353 0.231373 0.94902 0.282353 0.231373 0.94902 0.282353 0.231373 
0.94902 0.282353 0.231373 0.94902 0.282353 0.231373 
0.94902 0.282353 0.231373 0.94902 0.282353 0.231373 
0.94902 0.282353 0.231373 0.94902 0.282353 0.231373 
0.94902 0.282353 0.231373 0.94902 0.282353 0.231373 
0.94902 0.282353 0.231373 0.94902 0.282353 0.231373 
0.94902 0.282353 0.231373 0.94902 0.282353 0.231373 
0.94902 0.282353 0.231373 0.94902 0.282353 0.231373 
0.94902 0.282353 0.231373 0.94902 0.282353 0.231373 
0.94902 0.282353 0.231373 0.94902 0.282353 0.231373 
0.94902 0.282353 0.231373 0.94902 0.282353 0.231373 
0.94902 0.282353 0.231373 0.94902 0.282353 0.231373 
0.94902 0.282353 0.231373 0.94902 0.282353 0.231373 
0.94902 0.282353 0.231373 0.94902 0.282353 0.231373 
0.94902 0.282353 0.231373 0.94902 0.282353 0.231373 
0.94902 0.282353 0.231373 0.94902 0.282353 0.231373 
0.94902 0.282353 0.231373 0.94902 0.282353 0.231373 
0.94902 0.282353 0.231373 0.94902 0.282353 0.231373 
0.94902 0.282353 0.231373 0.94902 0.282353 0.231373 
0.94902 0.282353 0.231373 0.94902 0.282353 0.231373 
0.94902 0.282353 0.231373 0.94902 0.282353 0.231373 
0.94902 0.282353 0.231373 0.94902 0.282353 0.231373 
0.94902 0.282353 0.231373 0.94902 0.282353 0.231373 
0.94902 0.282353 0.231373 0.94902 0.282353 0.231373 
0.94902 0.282353 0.231373 0.94902 0.282353 0.231373 
0.94902 0.282353 0.231373 0.94902 0.282353 0.231373 
0.94902 0.282353 0.231373 0.94902 0.282353 0.231373 
0.94902 0.282353 0.231373 0.94902 0.282353 0.231373 
0.94902 0.282353 0.231373 0.94902 0.282353 0.231373 
0.94902 0.282353 0.231373 0.94902 0.282353 0.231373 
0.94902 0.282353 0.231373 0.94902 0.282353 0.231373 
0.94902 0.282353 0.231373 0.94902 0.282353 0.231373 
0.94902 0.282353 0.231373 0.94902 0.282353 0.231373 
0.94902 0.282353 0.231373 0.94902 0.282353 0.231373 
0.94902 0.282353 0.231373 0.94902 0.282353 0.231373 
0.94902 0.282353 0.231373 0.94902 0.282353 0.231373 
0.94902 0.282353 0.231373 0.94902 0.282353 0.231373 
0.94902 0.282353 0.231373 0.94902 0.282353 0.231373 
0.94902 0.282353 0.231373 0.94902 0.282353 0.231373 
0.94902 0.282353 0.231373 0.94902 0.282353 0.231373 
0.94902 0.282353 0.231373 0.94902 0.282353 0.231373 
0.94902 0.282353 0.231373 0.94902 0.282353 0.231373 
0.94902 0.282353 0.231373 0.94902 0.282353 0.231373 
0.94902 0.282353 0.231373 0.94902 0.282353 0.231373 
0.94902 0.282353 0.231373 0.94902 0.282353 0.231373 
0.94902 0.282353 0.231373 0.94902 0.282353 0.231373 
0.94902 0.282353 0.231373 0.94902 0.282353 0.231373 
0.94902 0.282353 0.231373 0.94902 0.282353 0.231373 
0.94902 0.282353 0.231373 0.94902 0.282353 0.231373 
0.94902 0.282353 0.231373 0.94902 0.282353 0.231373 
0.94902 0.282353 0.231373 0.94902 0.282353 0.231373 
0.94902 0.282353 0.231373 0.94902 0.282353 0.231373 
0.94902 0.282353 0.231373 0.94902 0.282353 0.231373 
0.94902 0.282353 0.231373 0.94902 0.282353 0.231373 
0.94902 0.282353 0.231373 0.94902 0.282353 0.231373 
0.94902 0.282353 0.231373 0.94902 0.282353 0.231373 
0.94902 0.282353 0.231373 0.94902 0.282353 0.231373 
0.94902 0.282353 0.231373 0.94902 0.282353 0.231373 
0.94902 0.282353 0.231373 0.94902 0.282353 0.231373 
0.94902 0.282353 0.231373 0.94902 0.282353 0.231373 
0.94902 0.282353 0.231373 0.94902 0.282353 0.231373 
0.94902 0.282353 0.231373 0.94902 0.282353 0.231373 
0.94902 0.282353 0.231373 0.94902 0.282353 0.231373 
0.94902 0.282353 0.231373 0.94902 0.282353 0.231373 
0.94902 0.282353 0.231373 0.94902 0.282353 0.231373 
0.94902 0.282353 0.231373 0.94902 0.282353 0.231373 
0.94902 0.282353 0.231373 0.94902 0.282353 0.231373 
0.94902 0.282353 0.231373 0.94902 0.282353 0.231373 
0.94902 0.282353 0.231373 0.94902 0.282353 0.231373 
0.94902 0.282353 0.231373 0.94902 0.282353 0.231373 
0.94902 0.282353 0.231373 0.94902 0.282353 0.231373 
0.94902 0.282353 0.231373 0.94902 0.282353 0.231373 
0.94902 0.282353 0.231373 0.94902 0.282353 0.231373 
0.94902 0.282353 0.231373 0.94902 0.282353 0.231373 
0.94902 0.282353 0.231373 0.94902 0.282353 0.231373 
0.94902 0.282353 0.231373 0.94902 0.282353 0.231373 
0.94902 0.282353 0.231373 0.94902 0.282353 0.231373 
0.94902 0.282353 0.231373 0.94902 0.282353 0.231373 
0.94902 0.282353 0.231373 0.94902 0.282353 0.231373 
0.94902 0.282353 0.231373 0.94902 0.282353 0.231373 
0.94902 0.282353 0.231373 0.94902 0.282353 0.231373 
0.94902 0.282353 0.231373 0.94902 0.282353 0.231373 
0.94902 0.282353 0.231373 0.94902 0.282353 0.231373 
0.94902 0.282353 0.231373 0.94902 0.282353 0.231373 
0.94902 0.282353 0.231373 0.94902 0.282353 0.231373 
0.94902 0.282353 0.231373 0.94902 0.282353 0.231373 
0.94902 0.282353 0.231373 0.94902 0.282353 0.231373 
0.94902 0.282353 0.231373 0.94902 0.282353 0.231373 
0.94902 0.282353 0.231373 0.94902 0.282353 0.231373 
0.94902 0.282353 0.231373 0.94902 0.282353 0.231373 
0.94902 0.282353 0.231373 0.94902 0.282353 0.231373 
0.94902 0.282353 0.231373 0.94902 0.282353 0.231373 
0.94902 0.282353 0.231373 0.94902 0.282353 0.231373 
0.94902 0.282353 0.231373 0.94902 0.282353 0.231373 
0.94902 0.282353 0.231373 0.94902 0.282353 0.231373 
0.94902 0.282353 0.231373 0.94902 0.282353 0.231373 
0.94902 0.282353 0.231373 0.94902 0.282353 0.231373 
0.94902 0.282353 0.231373 0.94902 0.282353 0.231373 
0.94902 0.282353 0.231373 0.94902 0.282353 0.231373 
0.94902 0.282353 0.231373 0.94902 0.282353 0.231373 
0.94902 0.282353 0.231373 0.94902 0.282353 0.231373 
0.94902 0.282353 0.231373 0.94902 0.282353 0.231373 
0.94902 0.282353 0.231373 0.94902 0.282353 0.231373 
0.94902 0.282353 0.231373 0.94902 0.282353 0.231373 
0.94902 0.282353 0.231373 0.94902 0.282353 0.231373 
0.94902 0.282353 0.231373 0.94902 0.282353 0.231373 
0.94902 0.282353 0.231373 0.94902 0.282353 0.231373 
0.94902 0.282353 0.231373 0.94902 0.282353 0.231373 
0.94902 0.282353 0.231373 0.94902 0.282353 0.231373 
0.94902 0.282353 0.231373 0.94902 0.282353 0.231373 
0.94902 0.282353 0.231373 0.94902 0.282353 0.231373 
0.94902 0.282353 0.231373 0.94902 0.282353 0.231373 
0.94902 0.282353 0.231373 0.94902 0.282353 0.231373 
0.94902 0.282353 0.231373 0.94902 0.282353 0.231373 
0.94902 0.282353 0.231373 0.94902 0.282353 0.231373 
0.94902 0.282353 0.231373 0.94902 0.282353 0.231373 
0.94902 0.282353 0.231373 0.94902 0.282353 0.231373 
0.94902 0.282353 0.231373 0.94902 0.282353 0.231373 
0.94902 0.282353 0.231373 0.94902 0.282353 0.231373 
0.94902 0.282353 0.231373 0.94902 0.282353 0.231373 
0.94902 0.282353 0.231373 0.94902 0.282353 0.231373 
0.94902 0.282353 0.231373 0.94902 0.282353 0.231373 
0.94902 0.282353 0.231373 0.94902 0.282353 0.231373 
0.94902 0.282353 0.231373 0.94902 0.282353 0.231373 
0.94902 0.282353 0.231373 0.94902 0.282353 0.231373 
0.94902 0.282353 0.231373 0.94902 0.282353 0.231373 
0.94902 0.282353 0.231373 0.94902 0.282353 0.231373 
0.94902 0.282353 0.231373 0.94902 0.282353 0.231373 
0.94902 0.282353 0.231373 0.94902 0.282353 0.231373 
0.94902 0.282353 0.231373 0.94902 0.282353 0.231373 
0.94902 0.282353 0.231373 0.94902 0.282353 0.231373 
0.94902 0.282353 0.231373 0.94902 0.282353 0.231373 
0.94902 0.282353 0.231373 0.94902 0.282353 0.231373 
0.94902 0.282353 0.231373 0.94902 0.282353 0.231373 
0.94902 0.282353 0.231373 0.94902 0.282353 0.231373 
0.94902 0.282353 0.231373 0.94902 0.282353 0.231373 
0.94902 0.282353 0.231373 0.94902 0.282353 0.231373 
0.94902 0.282353 0.231373 0.94902 0.282353 0.231373 
0.94902 0.282353 0.231373 0.94902 0.282353 0.231373 
0.94902 0.282353 0.231373 0.94902 0.282353 0.231373 
0.94902 0.282353 0.231373 0.94902 0.282353 0.231373 
0.94902 0.282353 0.231373 0.94902 0.282353 0.231373 
0.94902 0.282353 0.231373 0.94902 0.282353 0.231373 
0.94902 0.282353 0.231373 0.94902 0.282353 0.231373 
0.94902 0.282353 0.231373 0.94902 0.282353 0.231373 
0.94902 0.282353 0.231373 0.94902 0.282353 0.231373 
0.94902 0.282353 0.231373 0.94902 0.282353 0.231373 
0.94902 0.282353 0.231373 0.94902 0.282353 0.231373 
0.94902 0.282353 0.231373 0.94902 0.282353 0.231373 
0.94902 0.282353 0.231373 0.94902 0.282353 0.231373 
0.94902 0.282353 0.231373 0.94902 0.282353 0.231373 
0.94902 0.282353 0.231373 0.94902 0.282353 0.231373 
0.94902 0.282353 0.231373 0.94902 0.282353 0.231373 
0.94902 0.282353 0.231373 0.94902 0.282353 0.231373 
0.94902 0.282353 0.231373 0.94902 0.282353 0.231373 
0.94902 0.282353 0.231373 0.94902 0.282353 0.231373 
0.94902 0.282353 0.231373 0.94902 0.282353 0.231373 
0.94902 0.282353 0.231373 0.94902 0.282353 0.231373 
0.94902 0.282353 0.231373 0.94902 0.282353 0.231373 
0.94902 0.282353 0.231373 0.94902 0.282353 0.231373 
0.94902 0.282353 0.231373 0.94902 0.282353 0.231373 
0.94902 0.282353 0.231373 0.94902 0.282353 0.231373 
0.94902 0.282353 0.231373 0.94902 0.282353 0.231373 
0.94902 0.282353 0.231373 0.94902 0.282353 0.231373 
0.94902 0.282353 0.231373 0.94902 0.282353 0.231373 
0.94902 0.282353 0.231373 0.94902 0.282353 0.231373 
0.94902 0.282353 0.231373 0.94902 0.282353 0.231373 
0.94902 0.282353 0.231373 0.94902 0.282353 0.231373 
0.94902 0.282353 0.231373 0.94902 0.282353 0.231373 
0.94902 0.282353 0.231373 0.94902 0.282353 0.231373 
0.94902 0.282353 0.231373 0.94902 0.282353 0.231373 
0.94902 0.282353 0.231373 0.94902 0.282353 0.231373 
0.94902 0.282353 0.231373 0.94902 0.282353 0.231373 
0.94902 0.282353 0.231373 0.94902 0.282353 0.231373 
0.94902 0.282353 0.231373 0.94902 0.282353 0.231373 
0.94902 0.282353 0.231373 0.94902 0.282353 0.231373 
0.94902 0.282353 0.231373 0.94902 0.282353 0.231373 
0.94902 0.282353 0.231373 0.94902 0.282353 0.231373 
0.94902 0.282353 0.231373 0.94902 0.282353 0.231373 
0.94902 0.282353 0.231373 0.94902 0.282353 0.231373 
0.94902 0.282353 0.231373 0.94902 0.282353 0.231373 
0.94902 0.282353 0.231373 0.94902 0.282353 0.231373 
0.94902 0.282353 0.231373 0.94902 0.282353 0.231373 
0.94902 0.282353 0.231373 0.94902 0.282353 0.231373 
0.94902 0.282353 0.231373 0.94902 0.282353 0.231373 
0.94902 0.282353 0.231373 0.94902 0.282353 0.231373 
0.94902 0.282353 0.231373 0.94902 0.282353 0.231373 
0.94902 0.282353 0.231373 0.94902 0.282353 0.231373 
0.94902 0.282353 0.231373 0.94902 0.282353 0.231373 
0.94902 0.282353 0.231373 0.94902 0.282353 0.231373 
0.94902 0.282353 0.231373 0.94902 0.282353 0.231373 
0.94902 0.282353 0.231373 0.94902 0.282353 0.231373 
0.94902 0.282353 0.231373 0.94902 0.282353 0.231373 
0.94902 0.282353 0.231373 0.94902 0.282353 0.231373 
0.94902 0.282353 0.231373 0.94902 0.282353 0.231373 
0.94902 0.282353 0.231373 0.94902 0.282353 0.231373 
0.94902 0.282353 0.231373 0.94902 0.282353 0.231373 
0.94902 0.282353 0.231373 0.94902 0.282353 0.231373 
0.94902 0.282353 0.231373 0.94902 0.282353 0.231373 
0.94902 0.282353 0.231373 0.94902 0.282353 0.231373 
0.94902 0.282353 0.231373 0.94902 0.282353 0.231373 
0.94902 0.282353 0.231373 0.94902 0.282353 0.231373 
0.94902 0.282353 0.231373 0.94902 0.282353 0.231373 
0.94902 0.282353 0.231373 0.94902 0.282353 0.231373 
0.94902 0.282353 0.231373 0.94902 0.282353 0.231373 
0.94902 0.282353 0.231373 0.94902 0.282353 0.231373 
0.94902 0.282353 0.231373 0.94902 0.282353 0.231373 
0.94902 0.282353 0.231373 0.94902 0.282353 0.231373 
0.94902 0.282353 0.231373 0.94902 0.282353 0.231373 
0.94902 0.282353 0.231373 0.94902 0.282353 0.231373 
0.94902 0.282353 0.231373 0.94902 0.282353 0.231373 
0.94902 0.282353 0.231373 0.94902 0.282353 0.231373 
0.94902 0.282353 0.231373 0.94902 0.282353 0.231373 
0.94902 0.282353 0.231373 0.94902 0.282353 0.231373 
0.94902 0.282353 0.231373 0.94902 0.282353 0.231373 
0.94902 0.282353 0.231373 0.94902 0.282353 0.231373 
0.94902 0.282353 0.231373 0.94902 0.282353 0.231373 
0.94902 0.282353 0.231373 0.94902 0.282353 0.231373 
0.94902 0.282353 0.231373 0.94902 0.282353 0.231373 
0.94902 0.282353 0.231373 0.94902 0.282353 0.231373 
0.94902 0.282353 0.231373 0.94902 0.282353 0.231373 
0.94902 0.282353 0.231373 0.94902 0.282353 0.231373 
0.94902 0.282353 0.231373 0.94902 0.282353 0.231373 
0.94902 0.282353 0.231373 0.94902 0.282353 0.231373 
0.94902 0.282353 0.231373 0.94902 0.282353 0.231373 
0.94902 0.282353 0.231373 0.94902 0.282353 0.231373 
0.94902 0.282353 0.231373 0.94902 0.282353 0.231373 
0.94902 0.282353 0.231373 0.94902 0.282353 0.231373 
0.94902 0.282353 0.231373 0.94902 0.282353 0.231373 
0.94902 0.282353 0.231373 0.94902 0.282353 0.231373 
0.94902 0.282353 0.231373 0.94902 0.282353 0.231373 
0.94902 0.282353 0.231373 0.94902 0.282353 0.231373 
0.94902 0.282353 0.231373 0.94902 0.282353 0.231373 
0.94902 0.282353 0.231373 0.94902 0.282353 0.231373 
0.94902 0.282353 0.231373 0.94902 0.282353 0.231373 
0.94902 0.282353 0.231373 0.94902 0.282353 0.231373 
0.94902 0.282353 0.231373 0.94902 0.282353 0.231373 
0.94902 0.282353 0.231373 0.94902 0.282353 0.231373 
0.94902 0.282353 0.231373 0.94902 0.282353 0.231373 
0.94902 0.282353 0.231373 0.94902 0.282353 0.231373 
0.94902 0.282353 0.231373 0.94902 0.282353 0.231373 
0.94902 0.282353 0.231373 0.94902 0.282353 0.231373 
0.94902 0.282353 0.231373 0.94902 0.282353 0.231373 
0.94902 0.282353 0.231373 0.94902 0.282353 0.231373 
0.94902 0.282353 0.231373 0.94902 0.282353 0.231373 
0.94902 0.282353 0.231373 0.94902 0.282353 0.231373 
0.94902 0.282353 0.231373 0.94902 0.282353 0.231373 
0.94902 0.282353 0.231373 0.94902 0.282353 0.231373 
0.94902 0.282353 0.231373 0.94902 0.282353 0.231373 
0.94902 0.282353 0.231373 0.94902 0.282353 0.231373 
0.94902 0.282353 0.231373 0.94902 0.282353 0.231373 
0.94902 0.282353 0.231373 0.94902 0.282353 0.231373 
0.94902 0.282353 0.231373 0.94902 0.282353 0.231373 
0.94902 0.282353 0.231373 0.94902 0.282353 0.231373 
0.94902 0.282353 0.231373 0.94902 0.282353 0.231373 
0.94902 0.282353 0.231373 0.94902 0.282353 0.231373 
0.94902 0.282353 0.231373 0.94902 0.282353 0.231373 
0.94902 0.282353 0.231373 0.94902 0.282353 0.231373 
0.94902 0.282353 0.231373 0.94902 0.282353 0.231373 
0.94902 0.282353 0.231373 0.94902 0.282353 0.231373 
0.94902 0.282353 0.231373 0.94902 0.282353 0.231373 
0.94902 0.282353 0.231373 0.94902 0.282353 0.231373 
0.94902 0.282353 0.231373 0.94902 0.282353 0.231373 
0.94902 0.282353 0.231373 0.94902 0.282353 0.231373 
0.94902 0.282353 0.231373 0.94902 0.282353 0.231373 
0.94902 0.282353 0.231373 
NORMALS Normals float
0.0810516 -0.0732473 -0.994015 0.4651 -0.209673 -0.860069 -0.248368 0.467215 -0.848542 
-0.284359 -0.0799362 -0.95538 0.277552 0.407978 -0.869781 0.655015 0.145318 -0.741511 
-0.412456 -0.0160678 -0.910836 -0.114972 -0.37733 -0.918914 -0.490412 0.253589 -0.83378 
0.50855 0.630911 -0.585942 0.103215 0.746162 -0.657715 0.0010993 -0.457781 -0.889064 
-0.451077 -0.0384918 -0.891654 -0.570558 0.0881946 -0.816508 0.738153 0.291563 -0.608375 
-0.312004 0.777263 -0.546365 0.0971121 0.845256 -0.525463 0.423831 0.714755 -0.556321 
-0.317776 -0.299776 -0.899529 -0.403839 -0.207529 -0.89098 -0.579457 0.0375839 -0.814136 
-0.689575 0.276682 -0.669278 0.861427 0.0321809 -0.506861 -0.628121 0.473333 -0.617592 
0.367502 0.829264 -0.421026 0.595939 0.662285 -0.454131 -0.734697 -0.114637 -0.668639 
0.0407513 -0.455864 -0.889116 -0.908726 0.0744806 -0.410694 -0.813705 0.291354 -0.502988 
-0.440115 0.791844 -0.423417 0.737992 0.535744 -0.4103 0.0301266 0.91439 -0.403712 
0.449271 0.794988 -0.407613 0.816793 -0.296906 -0.494667 -0.464844 -0.0180686 -0.885208 
0.884901 0.356896 -0.299291 0.651768 0.695264 -0.302997 -0.195333 0.917911 -0.345377 
0.248707 0.910599 -0.330082 -0.3401 -0.383046 -0.858841 -0.250448 -0.343008 -0.905329 
0.108199 -0.403373 -0.908616 -0.721298 -0.251399 -0.64539 -0.444154 -0.176168 -0.87846 
0.771815 -0.136394 -0.621046 0.881333 -0.0609011 -0.468554 0.884057 0.0483234 -0.464874 
-0.909085 0.308937 -0.279505 0.915684 0.158357 -0.369386 0.886812 0.311375 -0.341482 
-0.631654 0.709815 -0.31173 -0.435499 0.856175 -0.278038 0.0166105 0.949678 -0.312789 
0.102763 0.93818 -0.330542 0.00510367 -0.676789 -0.736159 0.499513 -0.777147 -0.382791 
0.394199 -0.908823 -0.136559 0.715865 -0.481712 -0.505461 0.997089 -0.0556808 -0.0520872 
-0.242856 -0.535862 -0.808624 0.617083 -0.116621 -0.778208 -0.784154 -0.280436 -0.553587 
-0.8921 0.0504252 -0.449016 -0.825787 0.562836 -0.0359402 0.954025 0.29841 -0.0280656 
-0.743357 0.659453 -0.111989 0.598919 0.758743 -0.256135 0.139268 0.945513 -0.294296 
-0.161888 -0.894871 -0.41593 -0.0664969 -0.810986 -0.581274 0.102401 -0.900465 -0.422701 
0.366789 -0.864048 -0.3448 0.151561 -0.666782 -0.729679 0.505888 -0.621888 -0.597774 
0.782677 -0.425839 -0.453957 0.712793 -0.696463 -0.0828609 0.823631 -0.537665 -0.180413 
0.791154 -0.608209 -0.0644839 0.960586 -0.24349 0.13412 -0.483717 -0.551308 -0.679762 
0.975553 -0.076238 -0.206115 0.983573 0.0121507 -0.180101 -0.937546 -0.11504 -0.328287 
-0.96335 0.123269 -0.238245 -0.968202 0.249551 0.0175779 0.968197 -0.15972 -0.192572 
0.992459 0.108361 -0.0572975 -0.453475 0.881868 -0.129106 -0.170776 0.956483 -0.23659 
0.629912 0.764627 -0.136223 -0.188941 -0.874767 -0.446189 -0.0900577 -0.96822 -0.233323 
0.0583763 -0.943044 -0.327507 0.0673521 -0.954107 -0.291794 0.599484 -0.727333 0.334074 
0.764177 -0.487708 0.422108 0.894002 -0.346052 0.28462 -0.451506 -0.756581 -0.472999 
-0.798502 -0.385231 -0.462593 0.991002 -0.0971557 -0.0920647 -0.996839 -0.0391034 -0.069158 
-0.96761 -0.0409111 -0.249112 0.384586 -0.911771 0.144108 -0.787291 -0.51845 -0.333739 
-0.926357 -0.312638 -0.210048 0.963415 -0.134761 0.231669 0.958527 -0.218986 0.182404 
-0.997333 -0.0633513 -0.0362538 0.995984 0.0827293 -0.0342313 0.98416 -0.177176 -0.00611486 
-0.0249183 -0.999674 0.00559113 -0.743302 -0.636798 -0.204915 0.826041 -0.451741 0.337026 
-0.979188 -0.141624 -0.145377 0.972763 -0.0313388 0.229672 -0.763798 0.623475 0.167005 
-0.204338 0.977548 -0.0514326 -0.00530846 0.959589 -0.281355 -0.0826203 0.957553 0.276163 
0.392399 0.894792 -0.213004 0.315636 0.94702 0.0593807 -0.35417 -0.927231 -0.121679 
-0.692861 -0.711837 -0.115028 -0.148293 -0.96324 0.224004 0.0699456 -0.982652 0.171765 
0.227751 -0.916228 0.329629 -0.747512 -0.664134 -0.0123596 -0.886029 -0.46344 -0.013309 
-0.953691 -0.296145 -0.0526398 -0.951921 -0.226207 0.206586 0.837634 -0.271535 0.47396 
0.977601 -0.117255 0.174778 0.693536 0.707668 0.134955 -0.160602 0.977085 0.139685 
0.268228 0.923051 0.275736 -0.565072 -0.819843 -0.0924723 -0.683473 -0.703592 0.194481 
-0.435026 -0.850868 0.294578 0.0222982 -0.958687 0.283587 -0.827555 -0.559447 -0.0466048 
-0.913651 -0.357313 0.19383 0.813782 -0.282155 0.508083 -0.446154 0.880776 0.158682 
-0.060519 0.968556 0.241322 -0.302465 -0.867734 0.394402 0.0477854 -0.914125 0.402607 
0.513887 -0.657442 0.551081 0.849319 -0.333422 0.409252 -0.364703 0.847268 0.386172 
-0.775123 -0.486522 0.403088 -0.261239 -0.824758 0.501527 0.208797 -0.817527 0.536707 
0.988585 0.142547 0.0487931 -0.231115 0.854192 0.46577 0.19064 0.903147 0.384684 
-0.978463 -0.0878805 0.186781 0.884063 -0.344088 0.316285 -0.349033 0.859736 0.372868 
0.750986 0.644376 0.144222 0.000964159 0.877004 0.480482 0.636126 -0.665673 0.390157 
0.990731 -0.102728 0.0888787 0.958574 0.283664 0.0259082 0.292882 0.898928 0.325805 
-0.516428 -0.680299 0.520092 -0.975388 -0.0896557 0.201444 -0.0596196 -0.778451 0.624868 
0.946584 -0.167419 0.275591 -0.575368 0.814629 0.0730186 0.451686 0.840402 0.299506 
0.130961 0.89879 0.418361 0.397057 0.868558 0.296569 -0.788436 -0.423177 0.446419 
0.259245 -0.843054 0.471224 -0.836814 0.533352 0.123606 -0.512381 0.849328 0.126919 
0.989888 0.093588 -0.106596 0.700654 0.689637 -0.182986 0.712089 0.701983 -0.0122407 
-0.344196 -0.667017 0.66077 -0.592452 -0.552978 0.585847 -0.871827 -0.314312 0.375666 
-0.980738 0.12616 0.149118 -0.318422 0.931307 0.176845 0.281487 0.929899 0.236754 
-0.630973 -0.593204 0.499982 -0.564654 -0.646603 0.512904 0.254049 -0.803871 0.53782 
-0.883827 0.336975 0.324496 -0.799543 -0.36023 0.480588 -0.40391 -0.691133 0.599326 
-0.166831 -0.758103 0.630435 0.830972 -0.554345 0.046766 -0.917196 0.0689733 0.39242 
-0.749002 0.524424 0.404938 -0.556281 0.759497 0.337218 0.721806 0.691904 0.0162878 