# vtk DataFile Version 4.2
vtk output
ASCII
DATASET POLYDATA
POINTS 498 float
300.73 245.517 173.52 301.656 245.488 173.296 302.109 247.01 173.54 
300.59 242.953 173.797 301.163 242.899 173.756 302.122 243.769 173.531 
299.472 243.909 173.904 299.537 244.184 173.88 303.109 244.065 173.594 
303.312 244.522 173.56 300.797 245.984 173.582 302.773 247.768 173.772 
303.318 247.791 173.872 302.137 248.297 174.014 302.925 249.525 174.497 
298.154 241.195 174.949 298.018 240.744 175.188 301.909 241.484 174.534 
298.417 243.278 174.43 299.16 244.082 174.064 300.378 246.799 174.1 
304.729 247.376 174.214 302.08 249.5 174.623 303.895 249.326 174.619 
305.647 241.357 175.658 297.179 242.671 175.061 297.45 243.383 174.969 
305.812 249.633 175.87 303.504 250.932 175.739 295.504 241.375 176.042 
296.554 242.199 175.392 308.193 243.817 176.269 308.253 246.686 176.483 
304.839 250.924 176.318 294.329 239.388 177.377 296.058 243.678 175.995 
307.019 249.608 176.876 301.641 252.938 178.176 291.83 237.486 179.017 
293.113 237.826 178.678 290.697 239.286 178.839 308.262 239.443 178.265 
291.189 240.5 178.467 310.062 241.286 178.221 305.352 251.252 177.297 
306.644 250.693 178.035 299.12 251.996 178.231 303.911 252.38 178.131 
301.293 253.307 179.041 290.477 236.517 180.001 290.033 238.08 179.566 
307.576 238.05 179.378 290.097 239.09 179.306 309.857 239.908 178.9 
311.536 243.059 179.026 310.985 246.855 179.349 302.238 253.253 179.114 
289.988 236.169 180.546 289.32 236.847 180.682 290.771 236.403 180.021 
290.932 236.18 180.27 288.984 237.045 180.914 294.009 236.587 180.077 
305.993 236.957 180.448 288.725 238.194 180.949 312.886 242.03 180.87 
289.99 243.972 180.485 312.354 244.998 180.331 307.873 250.459 179.852 
304.117 252.711 179.715 296.81 252.958 180.925 290.096 235.736 181.402 
290.42 235.618 181.456 289.061 236.715 181.112 300.324 236.743 180.201 
302.951 236.356 181.076 288.244 239.227 181.776 311.042 239.233 180.413 
312.421 240.551 180.84 313.26 241.675 181.821 288.933 242.968 181.699 
295.173 252.767 181.689 294.829 252.931 182.162 302.668 253.428 181.262 
289.132 236.368 181.649 294.481 235.644 181.786 288.176 238.519 182.323 
311.212 238.437 181.501 288.036 238.988 182.171 288.004 238.944 182.387 
287.968 239.077 182.265 288.023 239.228 182.166 288.102 239.707 182.298 
313.103 240.728 181.923 313.14 241.159 181.719 312.754 245.193 182.104 
290.954 248.786 182.108 291.537 250.397 182.366 292.43 251.987 182.74 
293.347 252.748 182.882 300.431 253.858 181.609 292.184 235.125 183.371 
287.992 239.184 182.382 288.08 239.007 182.848 313.153 240.476 182.326 
288.604 243.388 183.109 313.207 244.135 183.287 290.334 249.218 183.403 
291.081 250.795 183.199 307.365 250.977 182.829 303.522 253.085 182.794 
298.02 253.92 182.985 289.533 236.124 184.147 291.765 235.125 183.973 
309.522 236.805 183.38 288.252 238.426 183.626 312.065 238.336 183.177 
313.293 243.727 183.723 289.02 245.508 184.579 312.604 245.535 183.403 
290.298 249.867 184.081 291.419 252.333 184.584 292.942 253.226 184.558 
299.41 234.95 184.445 305.544 235.554 184.779 307.313 235.969 184.892 
288.821 237.062 183.991 291.384 235.259 185.351 310.224 237.07 183.954 
311.98 238.225 183.481 312.888 243.9 185.167 290.815 251.456 184.525 
291.206 252.216 185.064 300.274 253.755 184.21 299.772 234.627 185.784 
289.321 236.835 185.629 288.659 237.989 185.124 309.471 237.114 185.791 
288.407 239.697 185.328 313.108 240.845 185.043 311.833 245.461 186.071 
304.651 252.034 185.503 291.609 252.577 185.559 291.866 252.791 185.381 
294.488 253.451 185.565 296.318 253.639 185.452 300.065 234.568 186.272 
300.172 234.548 186.647 300.503 234.616 186.844 291.151 235.51 186.91 
312.229 238.907 185.217 311.34 238.96 186.537 311.69 239.408 186.574 
312.922 242.002 186.016 312.683 241.689 186.37 291.269 251.878 186.396 
293.169 252.81 186.727 289.956 236.66 187.858 289.385 237.405 187.433 
311.935 240.896 187.129 300.209 252.721 187.377 303.208 251.852 187.563 
295.139 234.409 189.57 310.917 241.488 188.481 290.011 248.081 189.46 
291.847 250.49 189.356 302.891 236.11 189.871 289.719 243.637 190.395 
309.619 245.326 190.073 290.918 236.098 190.949 289.806 239.044 191.183 
309.143 242.123 190.472 308.586 246.197 191 307.673 247.554 190.894 
302.873 250.044 191.145 295.728 234.136 192.299 296.882 234.34 192.367 
290.202 237.525 191.622 290.143 243.974 191.912 308.843 245.184 191.281 
291.346 235.693 192.503 290.94 236.27 192.856 301.119 236.168 192.218 
290.144 238.379 192.936 289.965 240.688 192.556 291.22 248.953 192.2 
291.41 248.972 192.435 291.916 235.256 194.04 298.178 234.963 193.412 
290.748 237.053 194.107 306.75 246.901 193.313 291.132 248.506 192.647 
298.21 249.028 193.49 292.603 248.875 193.039 293.465 234.395 194.967 
291.968 235.352 194.932 291.485 235.815 194.373 290.315 239.136 194.712 
290.998 243.307 194.011 306.297 243.81 194.627 292.304 245.89 194.53 
306.865 245.941 194.011 291.861 248.171 193.301 294.223 247.317 194.76 
305.412 247.323 193.979 294.508 234.293 195.202 290.509 239.356 195.179 
295.347 234.566 195.912 292.327 235.545 196.402 298.075 236.363 197.024 
291.606 237.317 196.299 291.684 237.983 196.513 293.132 240.699 197.084 
304.825 245.566 196.085 299.346 246.495 196.577 293.19 235.065 197.008 
293.421 234.837 196.786 292.241 236.428 196.92 292.539 237.007 197.315 
292.852 237.333 197.515 298.374 237.221 197.68 292.322 237.976 197.132 
304.095 245.052 196.79 298.683 244.795 197.603 303.131 245.218 197.172 
301.268 245.526 197.308 293.373 235.136 197.309 293.577 234.977 197.195 
294.031 235.163 197.454 293.873 235.759 197.768 296.008 235.659 197.734 
294.598 235.811 198.116 294.957 236.21 198.34 297.614 237.546 198.348 
295.215 237.289 198.544 295.327 237.996 198.518 299.2 239.184 198.202 
302.178 242.722 197.887 301.453 243.469 198.241 302.921 243.644 197.653 
293.522 235.074 197.388 294.654 235.53 197.984 295.665 236.348 198.458 
296.215 236.45 198.511 296.734 237.142 198.684 299.62 241.592 198.549 
301.896 243.516 198.134 296.136 236.496 198.646 301.025 242.187 198.334 
295.273 235.578 256.688 295.23 235.491 256.807 295.194 235.568 256.697 
295.454 235.638 256.76 295.275 235.715 256.67 296.14 236.354 256.443 
296.265 236.333 256.435 296.399 236.359 256.492 296.327 236.462 256.418 
296.849 236.912 256.452 296.756 237.408 256.357 297.068 237.808 256.431 
298.998 239.762 256.545 298.933 239.461 256.641 299.236 239.803 256.653 
301.064 241.729 256.9 301.124 241.566 256.985 300.926 241.965 256.845 
293.951 235.019 257.641 294.079 235.136 257.515 295.061 235.581 256.794 
295.847 235.653 256.96 295.715 236.135 256.608 296.242 235.938 256.866 
296.642 236.623 256.514 296.211 236.696 256.416 295.965 237.898 256.403 
300.664 240.326 257.315 299.116 241.886 256.563 300.202 241.651 256.697 
302.366 242.872 257.361 303.266 243.596 257.773 302.353 243.851 257.352 
293.488 235.35 257.807 293.955 234.721 258.412 294.549 235.128 257.492 
294.903 234.836 257.928 292.963 235.834 257.881 292.629 235.606 258.422 
294.04 235.562 257.336 292.782 236.686 257.64 296.851 235.879 257.347 
293.048 236.978 257.439 298.011 237.001 257.203 294.386 239.694 257.075 
303.078 242.685 257.822 298.754 244.266 257.234 303.457 244.901 258.018 
304.218 244.911 258.402 303.08 245.736 258.221 292.87 235.157 258.767 
295.577 234.655 258.511 292.464 236.651 257.969 292.131 237.823 258.223 
295.581 244.149 258.03 305.469 245.522 259.364 297.878 235.551 258.997 
298.67 236.535 258.378 290.632 239.518 259.856 291.289 241.469 259.711 
305.988 244.192 259.784 306.345 245.174 259.986 299.417 247.021 259.004 
300.774 247.475 259.436 293.039 234.568 260.77 290.875 237.03 260.717 
300.187 237.037 259.632 290.322 238.848 260.491 290.427 239.428 260.181 
290.373 239.633 260.585 306.959 245.045 260.635 292.801 246.007 260.397 
306.691 245.595 260.521 305.121 246.595 259.866 306.541 246.115 260.773 
296.404 247.316 259.799 297.233 247.981 260.328 307.425 245.387 261.482 
292.928 246.657 260.686 307.185 246.024 261.518 291.692 247.547 261.964 
302.212 248.107 260.497 291.299 247.947 262.457 291.473 248.192 262.422 
298.449 234.97 261.499 290.231 238.26 261.974 306.445 241.87 261.737 
308.011 244.32 262.204 290.739 247.596 263.204 291.477 248.675 262.992 
291.902 248.97 262.895 293.117 249.122 262.394 300.194 235.433 262.851 
307.788 243.052 262.32 308.816 245.595 263.672 306.425 247.598 262.363 
305.103 248.854 263.153 292.907 249.893 263.599 298.079 234.339 265.043 
290.658 236.606 264.639 291.049 249.676 265.517 300.681 251.714 265.961 
303.547 251.231 266.29 293.649 234.729 266.482 289.833 237.265 266.917 
290.054 249.781 267.759 294.458 252.31 266.987 298.205 252.965 267.75 
289.015 242.203 267.362 313.059 241.187 269.174 312.282 243.721 268.333 
312.645 243.157 268.644 311.252 245.924 268.286 291.494 251.54 268.02 
291.351 251.749 268.73 292.508 252.392 268.255 302.627 235.005 268.793 
290.495 235.827 269.311 312.549 239.354 269.202 313.24 240.578 269.939 
313.078 242.264 269.281 289.964 250.052 269.349 291.43 252.24 269.919 
291.797 252.591 270.226 293.073 253.136 269.869 299.998 253.654 269.687 
309.427 236.747 269.917 310.436 237.083 270.521 312.606 238.789 270.122 
309.4 248.846 269.621 303.364 252.817 270.303 289.458 236.007 271.083 
289.153 236.353 271.065 289.676 235.818 271.376 294.851 235.02 270.727 
306.949 235.889 269.916 303.158 235.338 271.117 313.071 239.9 271.102 
288.059 239.879 271.337 313.505 241.686 271.211 312.739 244.79 270.431 
311.613 246.79 270.693 291.139 251.81 271.014 306.734 251.239 270.94 
292.203 252.856 271.17 291.442 235.297 271.028 293.805 235.229 271.691 
288.01 239.297 272.141 288.155 241.496 272.198 288.522 243.645 271.589 
292.129 252.754 271.51 301.393 253.759 271.576 298.046 254.045 272.029 
288.878 236.699 272.44 288.533 237.298 272.322 310.217 237.32 272.507 
288.126 238.671 272.717 287.952 239.113 272.614 287.99 239.095 272.829 
287.919 239.212 272.726 287.937 239.354 272.597 288.042 239.864 272.632 
[...]
POINT_DATA 498
COLOR_SCALARS scalars 3
0.94902 0.282353 0.231373 0.94902 0.282353 0.231373 0.94902 0.282353 0.231373 
0.94902 0.282353 0.231373 0.94902 0.282353 0.231373 
0.94902 0.282353 0.231373 0.94902 0.282353 0.231373 
0.94902 0.282353 0.231373 0.94902 0.282353 0.231373 
0.94902 0.282353 0.231373 0.94902 0.282353 0.231373 
0.94902 0.282353 0.231373 0.94902 0.282353 0.231373 
0.94902 0.282353 0.231373 0.94902 0.282353 0.231373 
0.94902 0.282353 0.231373 0.94902 0.282353 0.231373 
0.94902 0.282353 0.231373 0.94902 0.282353 0.231373 
0.94902 0.282353 0.231373 0.94902 0.282353 0.231373 
0.94902 0.282353 0.231373 0.94902 0.282353 0.231373 
0.94902 0.282353 0.231373 0.94902 0.282353 0.231373 
0.94902 0.282353 0.231373 0.94902 0.282353 0.231373 
0.94902 0.282353 0.231373 0.94902 0.282353 0.231373 
0.94902 0.282353 0.231373 0.94902 0.282353 0.231373 
0.94902 0.282353 0.231373 0.94902 0.282353 0.231373 
0.94902 0.282353 0.231373 0.94902 0.282353 0.231373 
0.94902 0.282353 0.231373 0.94902 0.282353 0.231373 
0.94902 0.282353 0.231373 0.94902 0.282353 0.231373 
0.94902 0.282353 0.231373 0.94902 0.282353 0.231373 
0.94902 0.282353 0.231373 0.94902 0.282353 0.231373 
0.94902 0.282353 0.231373 0.94902 0.282353 0.231373 
0.94902 0.282353 0.231373 0.94902 0.282353 0.231373 
0.94902 0.282353 0.231373 0.94902 0.282353 0.231373 
0.94902 0.282353 0.231373 0.94902 0.282353 0.231373 
0.94902 0.282353 0.231373 0.94902 0.282353 0.231373 
0.94902 0.282353 0.231373 0.94902 0.282353 0.231373 
0.94902 0.282353 0.231373 0.94902 0.282353 0.231373 
0.94902 0.282353 0.231373 0.94902 0.282353 0.231373 
0.94902 0.282353 0.231373 0.94902 0.282353 0.231373 
0.94902 0.282353 0.231373 0.94902 0.282353 0.231373 
0.94902 0.282353 0.231373 0.94902 0.282353 0.231373 
0.94902 0.282353 0.231373 0.94902 0.282353 0.231373 
0.94902 0.282353 0.231373 0.94902 0.282353 0.231373 
0.94902 0.282353 0.231373 0.94902 0.282353 0.231373 
0.94902 0.282353 0.231373 0.94902 0.282353 0.231373 
0.94902 0.282353 0.231373 0.94902 0.282353 0.231373 
0.94902 0.282353 0.231373 0.94902 0.282353 0.231373 
0.94902 0.282353 0.231373 0.94902 0.282353 0.231373 
0.94902 0.282353 0.231373 0.94902 0.282353 0.231373 
0.94902 0.282353 0.231373 0.94902 0.282353 0.231373 
0.94902 0.282353 0.231373 0.94902 0.282353 0.231373 
0.94902 0.282353 0.231373 0.94902 0.282353 0.231373 
0.94902 0.282353 0.231373 0.94902 0.282353 0.231373 
0.94902 0.282353 0.231373 0.94902 0.282353 0.231373 
0.94902 0.282353 0.231373 0.94902 0.282353 0.231373 
0.94902 0.282353 0.231373 0.94902 0.282353 0.231373 
0.94902 0.282353 0.231373 0.94902 0.282353 0.231373 
0.94902 0.282353 0.231373 0.94902 0.282353 0.231373 
0.94902 0.282353 0.231373 0.94902 0.282353 0.231373 
0.94902 0.282353 0.231373 0.94902 0.282353 0.231373 
0.94902 0.282353 0.231373 0.94902 0.282353 0.231373 
0.94902 0.282353 0.231373 0.94902 0.282353 0.231373 
0.94902 0.282353 0.231373 0.94902 0.282353 0.231373 
0.94902 0.282353 0.231373 0.94902 0.282353 0.231373 
0.94902 0.282353 0.231373 0.94902 0.282353 0.231373 
0.94902 0.282353 0.231373 0.94902 0.282353 0.231373 
0.94902 0.282353 0.231373 0.94902 0.282353 0.231373 
0.94902 0.282353 0.231373 0.94902 0.282353 0.231373 
0.94902 0.282353 0.231373 0.94902 0.282353 0.231373 
0.94902 0.282353 0.231373 0.94902 0.282353 0.231373 
0.94902 0.282353 0.231373 0.94902 0.282353 0.231373 
0.94902 0.282353 0.231373 0.94902 0.282353 0.231373 
0.94902 0.282353 0.231373 0.94902 0.282353 0.231373 
0.94902 0.282353 0.231373 0.94902 0.282353 0.231373 
0.94902 0.282353 0.231373 0.94902 0.282353 0.231373 
0.94902 0.282353 0.231373 0.94902 0.282353 0.231373 
0.94902 0.282353 0.231373 0.94902 0.282353 0.231373 
0.94902 0.282353 0.231373 0.94902 0.282353 0.231373 
0.94902 0.282353 0.231373 0.94902 0.282353 0.231373 
0.94902 0.282353 0.231373 0.94902 0.282353 0.231373 
0.94902 0.282353 0.231373 0.94902 0.282353 0.231373 
0.94902 0.282353 0.231373 0.94902 0.282353 0.231373 
0.94902 0.282353 0.231373 0.94902 0.282353 0.231373 
0.94902 0.282353 0.231373 0.94902 0.282353 0.231373 
0.94902 0.282353 0.231373 0.94902 0.282353 0.231373 
0.94902 0.282353 0.231373 0.94902 0.282353 0.231373 
0.94902 0.282353 0.231373 0.94902 0.282353 0.231373 
0.94902 0.282353 0.231373 0.94902 0.282353 0.231373 
0.94902 0.282353 0.231373 0.94902 0.282353 0.231373 
0.94902 0.282353 0.231373 0.94902 0.282353 0.231373 
0.94902 0.282353 0.231373 0.94902 0.282353 0.231373 
0.94902 0.282353 0.231373 0.94902 0.282353 0.231373 
0.94902 0.282353 0.231373 0.94902 0.282353 0.231373 
0.94902 0.282353 0.231373 0.94902 0.282353 0.231373 
0.94902 0.282353 0.231373 0.94902 0.282353 0.231373 
0.94902 0.282353 0.231373 0.94902 0.282353 0.231373 
0.94902 0.282353 0.231373 0.94902 0.282353 0.231373 
0.94902 0.282353 0.231373 0.94902 0.282353 0.231373 
0.94902 0.282353 0.231373 0.94902 0.282353 0.231373 
0.94902 0.282353 0.231373 0.94902 0.282353 0.231373 
0.94902 0.282353 0.231373 0.94902 0.282353 0.231373 
0.94902 0.282353 0.231373 0.94902 0.282353 0.231373 
0.94902 0.282353 0.231373 0.94902 0.282353 0.231373 
0.94902 0.282353 0.231373 0.94902 0.282353 0.231373 
0.94902 0.282353 0.231373 0.94902 0.282353 0.231373 
0.94902 0.282353 0.231373 0.94902 0.282353 0.231373 
0.94902 0.282353 0.231373 0.94902 0.282353 0.231373 
0.94902 0.282353 0.231373 0.94902 0.282353 0.231373 
0.94902 0.282353 0.231373 0.94902 0.282353 0.231373 
0.94902 0.282353 0.231373 0.94902 0.282353 0.231373 
0.94902 0.282353 0.231373 0.94902 0.282353 0.231373 
0.94902 0.282353 0.231373 0.94902 0.282353 0.231373 
0.94902 0.282353 0.231373 0.94902 0.282353 0.231373 
0.94902 0.282353 0.231373 0.94902 0.282353 0.231373 
0.94902 0.282353 0.231373 0.94902 0.282353 0.231373 
0.94902 0.282353 0.231373 0.94902 0.282353 0.231373 
0.94902 0.282353 0.231373 0.94902 0.282353 0.231373 
0.94902 0.282353 0.231373 0.94902 0.282353 0.231373 
0.94902 0.282353 0.231373 0.94902 0.282353 0.231373 
0.94902 0.282353 0.231373 0.94902 0.282353 0.231373 
0.94902 0.282353 0.231373 0.94902 0.282353 0.231373 
0.94902 0.282353 0.231373 0.94902 0.282353 0.231373 
0.94902 0.282353 0.231373 0.94902 0.282353 0.231373 
0.94902 0.282353 0.231373 0.94902 0.282353 0.231373 
0.94902 0.282353 0.231373 0.94902 0.282353 0.231373 
0.94902 0.282353 0.231373 0.94902 0.282353 0.231373 
0.94902 0.282353 0.231373 0.94902 0.282353 0.231373 
0.94902 0.282353 0.231373 0.94902 0.282353 0.231373 
0.94902 0.282353 0.231373 0.94902 0.282353 0.231373 
0.94902 0.282353 0.231373 0.94902 0.282353 0.231373 
0.94902 0.282353 0.231373 0.94902 0.282353 0.231373 
0.94902 0.282353 0.231373 0.94902 0.282353 0.231373 
0.94902 0.282353 0.231373 0.94902 0.282353 0.231373 
0.94902 0.282353 0.231373 0.94902 0.282353 0.231373 
0.94902 0.282353 0.231373 0.94902 0.282353 0.231373 
0.94902 0.282353 0.231373 0.94902 0.282353 0.231373 
0.94902 0.282353 0.231373 0.94902 0.282353 0.231373 
0.94902 0.282353 0.231373 0.94902 0.282353 0.231373 
0.94902 0.282353 0.231373 0.94902 0.282353 0.231373 
0.94902 0.282353 0.231373 0.94902 0.282353 0.231373 
0.94902 0.282353 0.231373 0.94902 0.282353 0.231373 
0.94902 0.282353 0.231373 0.94902 0.282353 0.231373 
0.94902 0.282353 0.231373 0.94902 0.282353 0.231373 
0.94902 0.282353 0.231373 0.94902 0.282353 0.231373 
0.94902 0.282353 0.231373 0.94902 0.282353 0.231373 
0.94902 0.282353 0.231373 0.94902 0.282353 0.231373 
0.94902 0.282353 0.231373 0.94902 0.282353 0.231373 
0.94902 0.282353 0.231373 0.94902 0.282353 0.231373 
0.94902 0.282353 0.231373 0.94902 0.282353 0.231373 
0.94902 0.282353 0.231373 0.94902 0.282353 0.231373 
0.94902 0.282353 0.231373 0.94902 0.282353 0.231373 
0.94902 0.282353 0.231373 0.94902 0.282353 0.231373 
0.94902 0.282353 0.231373 0.94902 0.282353 0.231373 
0.94902 0.282353 0.231373 0.94902 0.282353 0.231373 
0.94902 0.282353 0.231373 0.94902 0.282353 0.231373 
0.94902 0.282353 0.231373 0.94902 0.282353 0.231373 
0.94902 0.282353 0.231373 0.94902 0.282353 0.231373 
0.94902 0.282353 0.231373 0.94902 0.282353 0.231373 
0.94902 0.282353 0.231373 0.94902 0.282353 0.231373 
0.94902 0.282353 0.231373 0.94902 0.282353 0.231373 
0.94902 0.282353 0.231373 0.94902 0.282353 0.231373 
0.94902 0.282353 0.231373 0.94902 0.282353 0.231373 
0.94902 0.282353 0.231373 0.94902 0.282353 0.231373 
0.94902 0.282353 0.231373 0.94902 0.282353 0.231373 
0.94902 0.282353 0.231373 0.94902 0.282353 0.231373 
0.94902 0.282353 0.231373 0.94902 0.282353 0.231373 
0.94902 0.282353 0.231373 0.94902 0.282353 0.231373 
0.94902 0.282353 0.231373 0.94902 0.282353 0.231373 
0.94902 0.282353 0.231373 0.94902 0.282353 0.231373 
0.94902 0.282353 0.231373 0.94902 0.282353 0.231373 
0.94902 0.282353 0.231373 0.94902 0.282353 0.231373 
0.94902 0.282353 0.231373 0.94902 0.282353 0.231373 
0.94902 0.282353 0.231373 0.94902 0.282353 0.231373 
0.94902 0.282353 0.231373 0.94902 0.282353 0.231373 
0.94902 0.282353 0.231373 0.94902 0.282353 0.231373 
0.94902 0.282353 0.231373 0.94902 0.282353 0.231373 
0.94902 0.282353 0.231373 0.94902 0.282353 0.231373 
0.94902 0.282353 0.231373 0.94902 0.282353 0.231373 
0.94902 0.282353 0.231373 0.94902 0.282353 0.231373 
0.94902 0.282353 0.231373 0.94902 0.282353 0.231373 
0.94902 0.282353 0.231373 0.94902 0.282353 0.231373 
0.94902 0.282353 0.231373 0.94902 0.282353 0.231373 
0.94902 0.282353 0.231373 0.94902 0.282353 0.231373 
0.94902 0.282353 0.231373 0.94902 0.282353 0.231373 
0.94902 0.282353 0.231373 0.94902 0.282353 0.231373 
0.94902 0.282353 0.231373 0.94902 0.282353 0.231373 
0.94902 0.282353 0.231373 0.94902 0.282353 0.231373 
0.94902 0.282353 0.231373 0.94902 0.282353 0.231373 
0.94902 0.282353 0.231373 0.94902 0.282353 0.231373 
0.94902 0.282353 0.231373 0.94902 0.282353 0.231373 
0.94902 0.282353 0.231373 0.94902 0.282353 0.231373 
0.94902 0.282353 0.231373 0.94902 0.282353 0.231373 
0.94902 0.282353 0.231373 0.94902 0.282353 0.231373 
0.94902 0.282353 0.231373 0.94902 0.282353 0.231373 
0.94902 0.282353 0.231373 0.94902 0.282353 0.231373 
0.94902 0.282353 0.231373 0.94902 0.282353 0.231373 
0.94902 0.282353 0.231373 0.94902 0.282353 0.231373 
0.94902 0.282353 0.231373 0.94902 0.282353 0.231373 
0.94902 0.282353 0.231373 0.94902 0.282353 0.231373 
0.94902 0.282353 0.231373 0.94902 0.282353 0.231373 
0.94902 0.282353 0.231373 0.94902 0.282353 0.231373 
0.94902 0.282353 0.231373 0.94902 0.282353 0.231373 
0.94902 0.282353 0.231373 0.94902 0.282353 0.231373 
0.94902 0.282353 0.231373 0.94902 0.282353 0.231373 
0.94902 0.282353 0.231373 0.94902 0.282353 0.231373 
0.94902 0.282353 0.231373 0.94902 0.282353 0.231373 
0.94902 0.282353 0.231373 0.94902 0.282353 0.231373 
0.94902 0.282353 0.231373 0.94902 0.282353 0.231373 
0.94902 0.282353 0.231373 0.94902 0.282353 0.231373 
0.94902 0.282353 0.231373 0.94902 0.282353 0.231373 
0.94902 0.282353 0.231373 0.94902 0.282353 0.231373 
0.94902 0.282353 0.231373 0.94902 0.282353 0.231373 
0.94902 0.282353 0.231373 0.94902 0.282353 0.231373 
0.94902 0.282353 0.231373 0.94902 0.282353 0.231373 
0.94902 0.282353 0.231373 0.94902 0.282353 0.231373 
0.94902 0.282353 0.231373 0.94902 0.282353 0.231373 
0.94902 0.282353 0.231373 0.94902 0.282353 0.231373 
0.94902 0.282353 0.231373 0.94902 0.282353 0.231373 
0.94902 0.282353 0.231373 0.94902 0.282353 0.231373 
0.94902 0.282353 0.231373 0.94902 0.282353 0.231373 
0.94902 0.282353 0.231373 0.94902 0.282353 0.231373 
0.94902 0.282353 0.231373 0.94902 0.282353 0.231373 
0.94902 0.282353 0.231373 0.94902 0.282353 0.231373 
0.94902 0.282353 0.231373 0.94902 0.282353 0.231373 
0.94902 0.282353 0.231373 0.94902 0.282353 0.231373 
0.94902 0.282353 0.231373 0.94902 0.282353 0.231373 
0.94902 0.282353 0.231373 0.94902 0.282353 0.231373 
0.94902 0.282353 0.231373 0.94902 0.282353 0.231373 
0.94902 0.282353 0.231373 0.94902 0.282353 0.231373 
0.94902 0.282353 0.231373 0.94902 0.282353 0.231373 
0.94902 0.282353 0.231373 0.94902 0.282353 0.231373 
0.94902 0.282353 0.231373 0.94902 0.282353 0.231373 
0.94902 0.282353 0.231373 0.94902 0.282353 0.231373 
0.94902 0.282353 0.231373 0.94902 0.282353 0.231373 
0.94902 0.282353 0.231373 0.94902 0.282353 0.231373 
0.94902 0.282353 0.231373 0.94902 0.282353 0.231373 
0.94902 0.282353 0.231373 0.94902 0.282353 0.231373 
0.94902 0.282353 0.231373 0.94902 0.282353 0.231373 
0.94902 0.282353 0.231373 0.94902 0.282353 0.231373 
0.94902 0.282353 0.231373 0.94902 0.282353 0.231373 
0.94902 0.282353 0.231373 0.94902 0.282353 0.231373 
0.94902 0.282353 0.231373 0.94902 0.282353 0.231373 
0.94902 0.282353 0.231373 0.94902 0.282353 0.231373 
0.94902 0.282353 0.231373 0.94902 0.282353 0.231373 
0.94902 0.282353 0.231373 0.94902 0.282353 0.231373 
0.94902 0.282353 0.231373 0.94902 0.282353 0.231373 
0.94902 0.282353 0.231373 0.94902 0.282353 0.231373 
0.94902 0.282353 0.231373 0.94902 0.282353 0.231373 
0.94902 0.282353 0.231373 0.94902 0.282353 0.231373 
0.94902 0.282353 0.231373 0.94902 0.282353 0.231373 
0.94902 0.282353 0.231373 0.94902 0.282353 0.231373 
0.94902 0.282353 0.231373 0.94902 0.282353 0.231373 
0.94902 0.282353 0.231373 0.94902 0.282353 0.231373 
0.94902 0.282353 0.231373 0.94902 0.282353 0.231373 
0.94902 0.282353 0.231373 0.94902 0.282353 0.231373 
0.94902 0.282353 0.231373 0.94902 0.282353 0.231373 
0.94902 0.282353 0.231373 0.94902 0.282353 0.231373 
0.94902 0.282353 0.231373 
NORMALS Normals float
-0.326265 0.0426483 -0.944316 0.00291742 0.120338 -0.992729 -0.0702994 0.265265 -0.961609 
-0.234199 -0.298215 -0.925321 -0.0409446 -0.293814 -0.954985 0.0277782 -0.229943 -0.972808 
-0.435892 -0.248865 -0.864907 -0.376812 0.156655 -0.912947 0.503565 -0.39229 -0.769761 
0.418585 -0.197502 -0.886442 -0.27666 0.316802 -0.907246 -0.0590741 0.364739 -0.929234 
0.245324 0.281706 -0.927609 -0.241533 0.455185 -0.857011 0.0969718 0.594451 -0.798263 
-0.278835 -0.277935 -0.919241 -0.262637 -0.466512 -0.844624 0.159805 -0.629761 -0.760173 
-0.404872 0.104225 -0.908414 -0.528499 -0.0127839 -0.848837 -0.395742 0.408528 -0.822492 
0.457538 0.144607 -0.877353 -0.293968 0.559237 -0.775136 0.260046 0.446416 -0.856206 
0.361118 -0.358079 -0.861031 -0.443915 -0.0554054 -0.894354 -0.40743 0.215351 -0.887482 
0.475785 0.54678 -0.688956 0.134834 0.714362 -0.686663 -0.436263 -0.154818 -0.886401 
-0.424976 -0.147815 -0.893054 0.479774 -0.159299 -0.86281 0.56821 0.153396 -0.80846 
0.367091 0.694977 -0.618264 -0.0644905 -0.633629 -0.770944 -0.545848 0.355126 -0.758904 
0.651453 0.465024 -0.599468 0.0506131 0.831037 -0.553909 -0.296136 -0.387958 -0.872807 
-0.0878066 -0.543869 -0.834563 -0.504327 -0.0103406 -0.863451 0.323992 -0.568124 -0.756481 
-0.567101 0.0233719 -0.823317 0.55569 -0.348436 -0.754852 0.46796 0.788149 -0.399793 
0.514211 0.786409 -0.342268 -0.418336 0.648358 -0.636103 0.311798 0.862311 -0.399002 
-0.0813368 0.949839 -0.301977 -0.334546 -0.545627 -0.768355 -0.537292 -0.200442 -0.819232 
0.208469 -0.744056 -0.634761 -0.625649 -0.0118906 -0.780014 0.541368 -0.526707 -0.655362 
0.716557 -0.0647305 -0.694519 0.766048 0.459377 -0.449603 0.217242 0.934099 -0.283309 
-0.414991 -0.743159 -0.524878 -0.617749 -0.436862 -0.653864 -0.138995 -0.600319 -0.78759 
-0.0634857 -0.813421 -0.5782 -0.821828 -0.300337 -0.484145 0.169813 -0.825138 -0.538805 
0.152065 -0.842843 -0.516229 -0.862239 -0.126501 -0.49045 0.924269 0.0158968 -0.38141 
-0.784439 0.339169 -0.519249 0.825783 0.389619 -0.407774 0.65067 0.734249 -0.193669 
0.449598 0.879459 -0.156249 -0.339862 0.742252 -0.577543 -0.445764 -0.879065 -0.168936 
-0.160685 -0.956692 -0.242736 -0.873539 -0.438699 -0.210887 0.0332699 -0.89557 -0.443675 
0.0289711 -0.942782 -0.332148 -0.824974 0.0859821 -0.558592 0.617056 -0.519458 -0.591106 
0.769936 -0.3356 -0.542744 0.952649 -0.087437 -0.291229 -0.863356 0.210095 -0.458776 
-0.376699 0.727459 -0.5735 -0.351892 0.781293 -0.515512 0.235699 0.969771 -0.0631661 
-0.699418 -0.683556 -0.208724 0.188523 -0.868176 -0.459053 -0.926085 -0.332963 -0.177488 
0.478473 -0.76026 -0.439396 -0.862307 -0.268485 -0.429351 -0.963823 -0.263912 0.037351 
-0.98368 -0.0669695 -0.167 -0.925976 0.133137 -0.353333 -0.982388 0.186818 -0.00371615 
0.970104 -0.175644 -0.167474 0.87974 -0.184828 -0.43806 0.886484 0.425537 -0.181836 
-0.539871 0.377967 -0.752117 -0.571715 0.319234 -0.755799 -0.432215 0.499665 -0.750683 
-0.382324 0.673566 -0.632564 0.106828 0.99345 -0.0405585 0.0361729 -0.990883 -0.129782 
-0.986373 0.130176 0.100615 -0.969887 -0.00869759 0.243401 0.858961 -0.425229 -0.285249 
-0.928323 0.302875 -0.215597 0.959554 0.280902 0.0187355 -0.928256 0.259084 -0.266866 
-0.762967 0.422487 -0.489272 0.592572 0.795257 0.12816 0.336227 0.931019 0.141972 
-0.124409 0.982406 -0.139285 -0.632197 -0.767323 0.107437 -0.194886 -0.9807 0.0156895 
0.352149 -0.924721 -0.144506 -0.971223 -0.175883 0.160596 0.801908 -0.589401 -0.0977253 
0.986929 0.144856 0.0706286 -0.958562 0.242946 -0.148784 0.776698 0.629818 0.00836161 
-0.89691 0.298027 -0.326699 -0.621955 0.722163 -0.302742 -0.31108 0.943782 -0.111821 
0.0989925 -0.958409 -0.267681 0.159752 -0.987 -0.0176105 0.265664 -0.962218 0.0596651 
-0.918103 -0.38274 0.10294 -0.232363 -0.965728 0.115658 0.495434 -0.86849 0.0164485 
0.600996 -0.797234 -0.0567573 0.819961 0.289336 0.493912 -0.866371 0.46743 -0.175812 
-0.774773 0.632239 -0.000620753 0.125927 0.975707 0.179269 0.173662 -0.955676 -0.237751 
-0.871002 -0.425711 0.245204 -0.900029 -0.348726 0.261417 0.398169 -0.848224 0.349252 
-0.964113 -0.119978 0.236838 0.943867 -0.178875 0.277702 0.834625 0.390436 0.388536 
0.513386 0.821095 0.249475 -0.601267 0.758677 0.250773 -0.48011 0.854213 0.199537 
-0.146953 0.97445 0.169858 -0.00750646 0.917363 0.39798 0.278317 -0.93402 -0.223935 
0.0368517 -0.999237 -0.0129208 0.321652 -0.944723 -0.0635505 -0.328681 -0.942897 0.053979 
0.740303 -0.60898 0.284771 0.554152 -0.543876 0.63017 0.704282 -0.411097 0.57878 
0.910088 0.070807 0.408321 0.787096 -0.0239166 0.616366 -0.711287 0.621635 0.328087 
-0.197114 0.891392 0.408126 -0.709175 -0.694212 0.123044 -0.96053 -0.216973 0.174085 
0.728309 -0.19384 0.657261 0.088242 0.915992 0.391371 0.255538 0.881151 0.397837 
-0.0350717 -0.999147 -0.0217925 0.769552 -0.0416079 0.637227 -0.957142 0.237465 0.165799 
-0.348932 0.815499 0.461743 0.362284 -0.885103 0.292137 -0.979134 0.0264512 0.201487 
0.821307 0.364488 0.438866 -0.830696 -0.553293 0.0617339 -0.978174 -0.194514 0.0730702 
0.740712 -0.264855 0.617412 0.67561 0.426282 0.601528 0.610307 0.657289 0.442149 
0.325483 0.79522 0.511552 0.105627 -0.993863 0.032851 0.286851 -0.949039 0.130542 
-0.924951 -0.37728 0.0460925 -0.915358 0.0937654 0.391571 0.765996 0.248375 0.592925 
-0.656575 -0.751351 0.0661881 -0.832212 -0.53585 0.142436 0.52846 -0.75025 0.39731 
-0.942032 -0.24284 0.231527 -0.972276 0.0425172 0.229939 -0.819681 0.529289 0.219032 
-0.411629 0.72195 0.556193 -0.70029 -0.713439 0.0244907 0.328293 -0.909347 0.255561 
-0.911759 -0.349824 0.21522 0.649876 0.574611 0.497477 -0.813659 0.361664 0.455145 
0.0261837 0.82116 0.570096 -0.107566 0.717817 0.687872 -0.371703 -0.924489 0.0846053 
-0.713526 -0.66339 0.225378 -0.836816 -0.518214 0.176617 -0.936247 -0.149602 0.317901 
-0.860882 0.172392 0.478711 0.674536 -0.362348 0.643199 -0.526592 0.323108 0.786322 
0.728653 0.250284 0.637513 -0.352768 0.494295 0.794498 -0.0701826 0.683963 0.726133 
0.363594 0.729237 0.579666 -0.036406 -0.969014 0.244309 -0.840201 0.127816 0.526997 
0.173504 -0.916013 0.361685 -0.748569 -0.555256 0.362402 0.595139 -0.642172 0.483141 
-0.847977 -0.251588 0.466517 -0.80072 -0.0562648 0.59639 -0.432374 0.247088 0.867179 
0.625893 0.226 0.746447 -0.191485 0.614643 0.765211 -0.568106 -0.682761 0.459449 
-0.275191 -0.91606 0.291727 -0.700351 -0.262027 0.663966 -0.540815 -0.116589 0.833022 
-0.455224 0.0240176 0.890053 0.624948 -0.530726 0.572512 -0.617845 0.0506541 0.784667 
0.389942 0.502282 0.771789 -0.13102 0.282548 0.950263 0.303439 0.496053 0.813546 
0.096519 0.50724 0.856383 -0.566906 -0.53501 0.626404 -0.196421 -0.901531 0.385566 
0.0249744 -0.819924 0.571928 -0.409781 -0.272691 0.870471 0.335979 -0.766685 0.547094 