# vtk DataFile Version 4.2
vtk output
ASCII
DATASET POLYDATA
POINTS 2247 float
260.742 231.305 157.622 260.364 231.263 157.683 261.044 231.166 157.809 
260.063 231.61 157.533 260.089 232.181 157.29 259.602 232.34 157.503 
260.529 232.346 157.135 261.132 231.93 157.327 261.424 232.268 157.274 
260.771 232.865 157.028 259.836 233.312 157.177 260.48 230.779 158.139 
260.34 230.728 158.312 260.707 230.685 158.436 259.627 231.382 157.955 
259.458 231.806 157.863 258.997 233.105 157.795 264.383 233.245 158.315 
263.407 233.951 157.618 261.19 234.856 157.086 263.202 235.434 157.445 
258.749 236.094 157.929 260.807 230.49 159.128 259.694 231.138 158.202 
262.983 231.479 158.487 258.501 232.759 158.578 265.721 234.45 158.635 
257.754 235.758 158.657 257.387 236.025 159.005 266.084 235.838 158.541 
265.288 236.735 158.245 259.426 237.411 157.973 257.728 238.257 159.012 
260.738 238.533 158.108 261.953 230.494 159.644 263.326 231.299 159.151 
258.27 232.866 159.004 257.623 234.336 159.186 267.179 234.866 159.329 
248.832 235.706 160.122 257.145 235.366 159.384 267.879 235.585 159.439 
268.856 235.603 159.947 269.11 236.288 159.98 249.57 236.705 160.094 
268.436 237.298 159.664 265.427 238.601 158.889 267.03 238.308 159.368 
268.183 237.672 159.669 258.581 239.635 159.117 266.642 238.765 159.458 
246.85 241.682 159.396 249.387 240.644 159.756 263.111 240.097 159.1 
257.849 240.726 160.093 247.192 243.895 159.429 247.148 244.48 159.491 
260.364 230.429 160.238 259.079 231.356 159.62 261.364 230.323 160.362 
262.289 230.533 159.978 248.568 231.88 161.327 248.362 231.585 161.372 
248.24 232.046 161.184 248.61 232.476 161.158 258.248 232.316 160.157 
266.72 233.56 159.846 247.555 233.799 160.613 257.295 234.315 159.706 
257.102 234.144 160.262 257.005 234.781 159.862 269.044 235.64 160.072 
269.269 236.525 160.201 269.413 236.796 160.561 268.102 238.133 159.925 
269.256 237.448 160.56 266.48 239.362 159.848 267.225 239.216 160.206 
268.875 238.084 160.795 256.464 239.921 160.562 264.626 240.416 159.844 
259.873 241.308 159.77 262.472 241.335 159.913 245.471 244.303 159.624 
244.542 246.376 159.873 247.725 245.643 159.913 245.42 248.246 160.223 
245.059 249.839 160.752 248.123 230.481 161.916 248.266 230.498 162.04 
247.724 232.196 161.14 249.75 232.674 161.805 268.554 234.671 160.642 
268.697 234.713 160.966 269.358 235.902 160.446 255.154 237.326 160.749 
269.547 236.614 161.176 269.107 237.803 161.378 268.296 238.857 161.172 
276.102 240.994 162.156 275.703 240.473 162.628 276.943 241.031 161.91 
279.463 239.859 162.454 266.235 240.241 160.681 267.886 239.266 161.082 
274.547 241.62 162.53 279.936 241.135 161.972 263.51 241.389 160.449 
267.151 239.973 161.372 274.154 242.26 162.544 277.2 242.16 161.58 
258.546 242.035 161.655 263.914 241.669 161.381 276.459 242.97 161.616 
280.371 242.474 161.789 260.918 242.354 160.852 260.748 242.504 161.161 
261.617 242.496 161.233 239.019 250.464 161.394 238.899 251.986 161.754 
245.941 250.901 161.55 239.404 252.288 161.773 247.973 230.195 162.273 
247.791 230.216 162.273 248.148 230.276 162.376 247.594 230.464 162.06 
247.42 230.181 162.612 247.129 230.442 162.302 260.524 230.395 161.504 
260.763 230.396 161.796 246.739 230.662 162.277 259.228 231.178 161.21 
258.219 232.256 161.898 268.928 234.993 161.176 268.964 235.164 161.699 
255.719 234.823 161.63 252.928 235.577 161.799 269.54 236.347 161.249 
269.479 236.191 161.407 253.757 235.906 161.678 269.318 237.179 161.595 
253.202 237.96 161.239 254.092 237.541 161.195 269.2 237.564 161.572 
268.863 237.91 161.835 277.847 239.104 163.087 277.303 239.139 163.223 
278.206 238.815 163.413 252.981 238.957 161.314 254.007 238.987 161.366 
253.083 240.076 161.748 254.068 240.207 162.012 280.159 240.192 162.389 
253.102 241.085 162.497 274.266 241.424 162.908 266.847 240.223 162.354 
258.89 242.212 161.926 261.44 242.564 161.512 274.26 244.487 162.509 
277.077 244.139 161.717 278.182 244.14 161.633 250.493 245.512 162.149 
283.716 245.864 162.528 240.018 253.454 162.467 260.78 230.56 162.313 
263.068 230.898 162.647 267.064 233.204 162.182 267.579 233.751 162.612 
252.888 234.355 162.735 255.934 233.775 163.348 268.809 235.107 162.263 
254.266 234.644 162.562 268.928 235.889 162.585 278.997 238.857 163.431 
274.856 240.37 163.454 254.737 240.707 162.457 255.718 241.232 163.208 
252.363 242.152 162.787 253.695 241.428 163.327 238.077 243.839 162.269 
272.14 244.481 163.9 273.192 244.614 163.109 272.289 244.871 163.749 
272.794 245.154 163.437 237.036 247.659 162.214 282.557 247.557 162.666 
248.95 250.299 162.927 244.619 252.903 162.966 236.028 254.821 163.863 
236.408 255.005 163.853 237.826 255.049 163.709 247.28 229.901 163.821 
248.487 230.333 163.654 261.366 230.722 163.076 260.643 230.966 163.163 
258.12 232.464 162.999 264.78 231.653 163.225 252.14 233.161 163.864 
256.632 233.441 163.245 279.004 238.321 164.554 266.826 239.394 164.317 
255.094 241.16 163.272 253.851 241.872 164.532 254.654 241.456 164.091 
263.551 241.68 163.87 265.15 240.886 163.878 258.567 241.995 163.567 
234.645 245.943 163.965 271.408 246.003 164.565 270.94 245.596 165.033 
288.049 246.135 164.497 233.959 249.973 164.29 234.949 254.682 164.444 
236.993 256.723 165.234 241.332 229.742 165.169 244.493 229.287 165.241 
258.882 232.206 163.812 262.078 231.562 164.623 251.883 232.636 164.941 
258.178 232.803 164.503 254.067 233.548 165.124 256.024 233.587 165.039 
267.949 234.692 163.518 267.457 237.303 165.297 278.422 237.768 165.714 
267.501 238.128 164.484 275.569 239.1 164.961 234.921 239.388 164.986 
265.214 240.501 165.211 253.286 242.447 165.122 254.512 241.687 165.243 
256.306 241.432 165.044 233.469 246.477 164.999 288.859 249.427 165.08 
250.05 251.55 165.445 233.704 254.265 165.449 235.653 257.321 166.315 
241.714 228.381 166.271 249.14 230.634 165.463 238.289 230.366 165.747 
237.959 230.912 165.661 263.311 232.119 165.265 237.059 232.633 165.47 
251.851 232.518 165.846 266.796 238.61 166.577 233.276 239.024 166.429 
254.29 241.795 166.112 271.651 242.885 165.666 252.319 243.982 165.43 
289.372 244.156 165.978 270.583 244.901 165.729 232.643 245.99 166.193 
232.569 247.945 166.177 268.981 248.38 167.059 272.637 251.336 166.016 
234.346 256.798 166.544 239.244 256.941 166.003 234.993 257.475 166.861 
237.731 257.256 165.993 240.927 226.771 167.896 239.66 228.124 166.486 
243.705 228.316 167.446 249.574 231.01 166.565 249.971 231.326 166.894 
252.899 233.171 166.873 256.501 233.882 166.737 257.232 234.169 167.488 
267.036 237.617 167.166 266.945 238.221 167.485 232.673 239.884 167.069 
255.211 241.203 167.066 258.254 241.156 166.785 264.452 240.687 167.412 
252.38 244.244 166.305 292.804 246.792 167.11 231.92 247.418 167.656 
252.069 249.299 167.626 249.124 253.173 166.16 287.543 254.597 167.155 
233.914 256.653 166.962 243.062 227.851 168.025 253.739 233.786 167.713 
255.975 234.629 168.216 266.843 236.322 167.731 232.06 237.343 168.652 
267.072 237.927 168.291 265.641 240.077 167.542 266.108 239.759 167.832 
255.466 240.709 167.957 259.049 240.73 168.055 261.311 241.025 168.049 
262.477 241.05 167.942 254.024 241.654 167.706 254.499 241.254 167.761 
253.104 242.851 167.84 269.476 244.65 167.7 231.716 251.53 168.706 
249.968 253.716 167.461 292.311 253.232 168.251 232.537 255.812 168.693 
235.386 258.571 168.482 235.004 258.659 168.842 243.683 228.003 169.435 
245.49 229.222 168.964 249.955 231.79 168.577 253.851 234.935 169.304 
265.609 235.07 168.655 257.282 235.673 169.303 277.95 236.504 169.432 
266.968 237.006 168.999 267.311 237.773 169.439 267.328 238.681 169.148 
254.71 240.089 169.105 255.639 239.645 169.072 257.98 239.89 169.011 
266.862 239.336 168.681 231.653 240.693 169.289 253.858 240.853 169.299 
265.935 240.271 168.683 253.762 241.517 168.644 252.92 243.037 169.035 
267.891 248.708 169.276 295.541 250.182 168.748 253.318 252.054 170.046 
253.119 252.773 169.853 268.134 253.67 169.775 251.899 254.147 169.343 
253.392 253.761 170.333 292.178 254.575 169.287 233.921 258.19 169.039 
235.662 259.304 169.849 236.856 221.717 170.182 246.002 229.685 169.865 
250.084 232.325 169.711 254.327 236.373 169.948 256.152 236.271 169.535 
266.297 235.991 169.431 255.004 237.242 169.905 257.701 236.939 170.029 
267.175 237.197 170.076 255.028 238.284 169.838 255.908 237.976 169.745 
257.445 238.473 169.822 268.198 238.498 170.549 254.004 239.576 170.015 
267.239 239.567 169.318 267.906 239.119 169.905 272.743 239.264 169.589 
259.916 240.036 169.88 260.888 240.499 169.722 264.747 240.988 169.511 
265.789 240.771 169.415 266.728 240.285 169.374 270.108 240.897 169.615 
253.26 241.205 170.124 269.341 241.979 169.426 294.59 243.405 169.884 
268.838 243.938 169.037 295.758 244.139 169.956 296.291 244.566 169.994 
231.347 244.808 170.21 252.501 245.479 169.048 297.888 246.193 170.284 
252.639 246.752 169.767 252.777 247.729 169.941 298.521 247.946 170.406 
266.989 252.736 170.708 268.782 254.723 169.865 269.002 255.335 170.089 
252.038 255.275 170.212 270.236 255.816 169.93 278.636 257.539 170.669 
233.208 258.308 170.661 237.305 218.947 171.814 236.922 218.9 171.769 
237.864 218.992 172.021 235.45 220.144 171.356 235.274 220.848 171.038 
233.613 221.857 171.487 241.264 224.984 171.155 246.706 230.334 170.769 
250.379 233.345 171.145 262.826 235.028 170.283 278.933 235.248 171.847 
260.55 236.278 171.122 253.704 237.145 170.499 268.249 238.009 171.388 
253.697 239.137 170.45 259.373 238.663 170.811 268.881 239.235 170.595 
260.043 239.189 171.061 267.906 240.125 169.928 268.967 240.035 170.201 
269.722 239.664 170.482 265.48 241.233 170.14 266.819 241.102 170.018 
267.969 241.013 169.998 268.652 240.619 170 264.099 241.301 170.901 
266.09 241.698 170.645 267.189 242.245 170.526 267.67 241.803 170.155 
293.807 242.342 170.492 267.78 243.187 170.323 268.4 242.488 169.846 
296.708 243.56 171.29 297.988 244.451 171.453 253.061 247.761 170.93 
298.902 250.454 171.031 266.462 254.083 171.133 254.483 255.747 171.59 
[...]
POINT_DATA 2247
COLOR_SCALARS scalars 3
0.94902 0.282353 0.231373 0.94902 0.282353 0.231373 0.94902 0.282353 0.231373 
0.94902 0.282353 0.231373 0.94902 0.282353 0.231373 
0.94902 0.282353 0.231373 0.94902 0.282353 0.231373 
0.94902 0.282353 0.231373 0.94902 0.282353 0.231373 
0.94902 0.282353 0.231373 0.94902 0.282353 0.231373 
0.94902 0.282353 0.231373 0.94902 0.282353 0.231373 
0.94902 0.282353 0.231373 0.94902 0.282353 0.231373 
0.94902 0.282353 0.231373 0.94902 0.282353 0.231373 
0.94902 0.282353 0.231373 0.94902 0.282353 0.231373 
0.94902 0.282353 0.231373 0.94902 0.282353 0.231373 
0.94902 0.282353 0.231373 0.94902 0.282353 0.231373 
0.94902 0.282353 0.231373 0.94902 0.282353 0.231373 
0.94902 0.282353 0.231373 0.94902 0.282353 0.231373 
0.94902 0.282353 0.231373 0.94902 0.282353 0.231373 
0.94902 0.282353 0.231373 0.94902 0.282353 0.231373 
0.94902 0.282353 0.231373 0.94902 0.282353 0.231373 
0.94902 0.282353 0.231373 0.94902 0.282353 0.231373 
0.94902 0.282353 0.231373 0.94902 0.282353 0.231373 
0.94902 0.282353 0.231373 0.94902 0.282353 0.231373 
0.94902 0.282353 0.231373 0.94902 0.282353 0.231373 
0.94902 0.282353 0.231373 0.94902 0.282353 0.231373 
0.94902 0.282353 0.231373 0.94902 0.282353 0.231373 
0.94902 0.282353 0.231373 0.94902 0.282353 0.231373 
0.94902 0.282353 0.231373 0.94902 0.282353 0.231373 
0.94902 0.282353 0.231373 0.94902 0.282353 0.231373 
0.94902 0.282353 0.231373 0.94902 0.282353 0.231373 
0.94902 0.282353 0.231373 0.94902 0.282353 0.231373 
0.94902 0.282353 0.231373 0.94902 0.282353 0.231373 
0.94902 0.282353 0.231373 0.94902 0.282353 0.231373 
0.94902 0.282353 0.231373 0.94902 0.282353 0.231373 
0.94902 0.282353 0.231373 0.94902 0.282353 0.231373 
0.94902 0.282353 0.231373 0.94902 0.282353 0.231373 
0.94902 0.282353 0.231373 0.94902 0.282353 0.231373 
0.94902 0.282353 0.231373 0.94902 0.282353 0.231373 
0.94902 0.282353 0.231373 0.94902 0.282353 0.231373 
0.94902 0.282353 0.231373 0.94902 0.282353 0.231373 
0.94902 0.282353 0.231373 0.94902 0.282353 0.231373 
0.94902 0.282353 0.231373 0.94902 0.282353 0.231373 
0.94902 0.282353 0.231373 0.94902 0.282353 0.231373 
0.94902 0.282353 0.231373 0.94902 0.282353 0.231373 
0.94902 0.282353 0.231373 0.94902 0.282353 0.231373 
0.94902 0.282353 0.231373 0.94902 0.282353 0.231373 
0.94902 0.282353 0.231373 0.94902 0.282353 0.231373 
0.94902 0.282353 0.231373 0.94902 0.282353 0.231373 
0.94902 0.282353 0.231373 0.94902 0.282353 0.231373 
0.94902 0.282353 0.231373 0.94902 0.282353 0.231373 
0.94902 0.282353 0.231373 0.94902 0.282353 0.231373 
0.94902 0.282353 0.231373 0.94902 0.282353 0.231373 
0.94902 0.282353 0.231373 0.94902 0.282353 0.231373 
0.94902 0.282353 0.231373 0.94902 0.282353 0.231373 
0.94902 0.282353 0.231373 0.94902 0.282353 0.231373 
0.94902 0.282353 0.231373 0.94902 0.282353 0.231373 
0.94902 0.282353 0.231373 0.94902 0.282353 0.231373 
0.94902 0.282353 0.231373 0.94902 0.282353 0.231373 
0.94902 0.282353 0.231373 0.94902 0.282353 0.231373 
0.94902 0.282353 0.231373 0.94902 0.282353 0.231373 
0.94902 0.282353 0.231373 0.94902 0.282353 0.231373 
0.94902 0.282353 0.231373 0.94902 0.282353 0.231373 
0.94902 0.282353 0.231373 0.94902 0.282353 0.231373 
0.94902 0.282353 0.231373 0.94902 0.282353 0.231373 
0.94902 0.282353 0.231373 0.94902 0.282353 0.231373 
0.94902 0.282353 0.231373 0.94902 0.282353 0.231373 
0.94902 0.282353 0.231373 0.94902 0.282353 0.231373 
0.94902 0.282353 0.231373 0.94902 0.282353 0.231373 
0.94902 0.282353 0.231373 0.94902 0.282353 0.231373 
0.94902 0.282353 0.231373 0.94902 0.282353 0.231373 
0.94902 0.282353 0.231373 0.94902 0.282353 0.231373 
0.94902 0.282353 0.231373 0.94902 0.282353 0.231373 
0.94902 0.282353 0.231373 0.94902 0.282353 0.231373 
0.94902 0.282353 0.231373 0.94902 0.282353 0.231373 
0.94902 0.282353 0.231373 0.94902 0.282353 0.231373 
0.94902 0.282353 0.231373 0.94902 0.282353 0.231373 
0.94902 0.282353 0.231373 0.94902 0.282353 0.231373 
0.94902 0.282353 0.231373 0.94902 0.282353 0.231373 
0.94902 0.282353 0.231373 0.94902 0.282353 0.231373 
0.94902 0.282353 0.231373 0.94902 0.282353 0.231373 
0.94902 0.282353 0.231373 0.94902 0.282353 0.231373 
0.94902 0.282353 0.231373 0.94902 0.282353 0.231373 
0.94902 0.282353 0.231373 0.94902 0.282353 0.231373 
0.94902 0.282353 0.231373 0.94902 0.282353 0.231373 
0.94902 0.282353 0.231373 0.94902 0.282353 0.231373 
0.94902 0.282353 0.231373 0.94902 0.282353 0.231373 
0.94902 0.282353 0.231373 0.94902 0.282353 0.231373 
0.94902 0.282353 0.231373 0.94902 0.282353 0.231373 
0.94902 0.282353 0.231373 0.94902 0.282353 0.231373 
0.94902 0.282353 0.231373 0.94902 0.282353 0.231373 
0.94902 0.282353 0.231373 0.94902 0.282353 0.231373 
0.94902 0.282353 0.231373 0.94902 0.282353 0.231373 
0.94902 0.282353 0.231373 0.94902 0.282353 0.231373 
0.94902 0.282353 0.231373 0.94902 0.282353 0.231373 
0.94902 0.282353 0.231373 0.94902 0.282353 0.231373 
0.94902 0.282353 0.231373 0.94902 0.282353 0.231373 
0.94902 0.282353 0.231373 0.94902 0.282353 0.231373 
0.94902 0.282353 0.231373 0.94902 0.282353 0.231373 
0.94902 0.282353 0.231373 0.94902 0.282353 0.231373 
0.94902 0.282353 0.231373 0.94902 0.282353 0.231373 
0.94902 0.282353 0.231373 0.94902 0.282353 0.231373 
0.94902 0.282353 0.231373 0.94902 0.282353 0.231373 
0.94902 0.282353 0.231373 0.94902 0.282353 0.231373 
0.94902 0.282353 0.231373 0.94902 0.282353 0.231373 
0.94902 0.282353 0.231373 0.94902 0.282353 0.231373 
0.94902 0.282353 0.231373 0.94902 0.282353 0.231373 
0.94902 0.282353 0.231373 0.94902 0.282353 0.231373 
0.94902 0.282353 0.231373 0.94902 0.282353 0.231373 
0.94902 0.282353 0.231373 0.94902 0.282353 0.231373 
0.94902 0.282353 0.231373 0.94902 0.282353 0.231373 
0.94902 0.282353 0.231373 0.94902 0.282353 0.231373 
0.94902 0.282353 0.231373 0.94902 0.282353 0.231373 
0.94902 0.282353 0.231373 0.94902 0.282353 0.231373 
0.94902 0.282353 0.231373 0.94902 0.282353 0.231373 
0.94902 0.282353 0.231373 0.94902 0.282353 0.231373 
0.94902 0.282353 0.231373 0.94902 0.282353 0.231373 
0.94902 0.282353 0.231373 0.94902 0.282353 0.231373 
0.94902 0.282353 0.231373 0.94902 0.282353 0.231373 
0.94902 0.282353 0.231373 0.94902 0.282353 0.231373 
0.94902 0.282353 0.231373 0.94902 0.282353 0.231373 
0.94902 0.282353 0.231373 0.94902 0.282353 0.231373 
0.94902 0.282353 0.231373 0.94902 0.282353 0.231373 
0.94902 0.282353 0.231373 0.94902 0.282353 0.231373 
0.94902 0.282353 0.231373 0.94902 0.282353 0.231373 
0.94902 0.282353 0.231373 0.94902 0.282353 0.231373 
0.94902 0.282353 0.231373 0.94902 0.282353 0.231373 
0.94902 0.282353 0.231373 0.94902 0.282353 0.231373 
0.94902 0.282353 0.231373 0.94902 0.282353 0.231373 
0.94902 0.282353 0.231373 0.94902 0.282353 0.231373 
0.94902 0.282353 0.231373 0.94902 0.282353 0.231373 
0.94902 0.282353 0.231373 0.94902 0.282353 0.231373 
0.94902 0.282353 0.231373 0.94902 0.282353 0.231373 
0.94902 0.282353 0.231373 0.94902 0.282353 0.231373 
0.94902 0.282353 0.231373 0.94902 0.282353 0.231373 
0.94902 0.282353 0.231373 0.94902 0.282353 0.231373 
0.94902 0.282353 0.231373 0.94902 0.282353 0.231373 
0.94902 0.282353 0.231373 0.94902 0.282353 0.231373 
0.94902 0.282353 0.231373 0.94902 0.282353 0.231373 
0.94902 0.282353 0.231373 0.94902 0.282353 0.231373 
0.94902 0.282353 0.231373 0.94902 0.282353 0.231373 
0.94902 0.282353 0.231373 0.94902 0.282353 0.231373 
0.94902 0.282353 0.231373 0.94902 0.282353 0.231373 
0.94902 0.282353 0.231373 0.94902 0.282353 0.231373 
0.94902 0.282353 0.231373 0.94902 0.282353 0.231373 
0.94902 0.282353 0.231373 0.94902 0.282353 0.231373 
0.94902 0.282353 0.231373 0.94902 0.282353 0.231373 
0.94902 0.282353 0.231373 0.94902 0.282353 0.231373 
0.94902 0.282353 0.231373 0.94902 0.282353 0.231373 
0.94902 0.282353 0.231373 0.94902 0.282353 0.231373 
0.94902 0.282353 0.231373 0.94902 0.282353 0.231373 
0.94902 0.282353 0.231373 0.94902 0.282353 0.231373 
0.94902 0.282353 0.231373 0.94902 0.282353 0.231373 
0.94902 0.282353 0.231373 0.94902 0.282353 0.231373 
0.94902 0.282353 0.231373 0.94902 0.282353 0.231373 
0.94902 0.282353 0.231373 0.94902 0.282353 0.231373 
0.94902 0.282353 0.231373 0.94902 0.282353 0.231373 
0.94902 0.282353 0.231373 0.94902 0.282353 0.231373 
0.94902 0.282353 0.231373 0.94902 0.282353 0.231373 
0.94902 0.282353 0.231373 0.94902 0.282353 0.231373 
0.94902 0.282353 0.231373 0.94902 0.282353 0.231373 
0.94902 0.282353 0.231373 0.94902 0.282353 0.231373 
0.94902 0.282353 0.231373 0.94902 0.282353 0.231373 
0.94902 0.282353 0.231373 0.94902 0.282353 0.231373 
0.94902 0.282353 0.231373 0.94902 0.282353 0.231373 
0.94902 0.282353 0.231373 0.94902 0.282353 0.231373 
0.94902 0.282353 0.231373 0.94902 0.282353 0.231373 
0.94902 0.282353 0.231373 0.94902 0.282353 0.231373 
0.94902 0.282353 0.231373 0.94902 0.282353 0.231373 
0.94902 0.282353 0.231373 0.94902 0.282353 0.231373 
0.94902 0.282353 0.231373 0.94902 0.282353 0.231373 
0.94902 0.282353 0.231373 0.94902 0.282353 0.231373 
0.94902 0.282353 0.231373 0.94902 0.282353 0.231373 
0.94902 0.282353 0.231373 0.94902 0.282353 0.231373 
0.94902 0.282353 0.231373 0.94902 0.282353 0.231373 
0.94902 0.282353 0.231373 0.94902 0.282353 0.231373 
0.94902 0.282353 0.231373 0.94902 0.282353 0.231373 
0.94902 0.282353 0.231373 0.94902 0.282353 0.231373 
0.94902 0.282353 0.231373 0.94902 0.282353 0.231373 
0.94902 0.282353 0.231373 0.94902 0.282353 0.231373 
0.94902 0.282353 0.231373 0.94902 0.282353 0.231373 
0.94902 0.282353 0.231373 0.94902 0.282353 0.231373 
0.94902 0.282353 0.231373 0.94902 0.282353 0.231373 
0.94902 0.282353 0.231373 0.94902 0.282353 0.231373 
0.94902 0.282353 0.231373 0.94902 0.282353 0.231373 
0.94902 0.282353 0.231373 0.94902 0.282353 0.231373 
0.94902 0.282353 0.231373 0.94902 0.282353 0.231373 
0.94902 0.282353 0.231373 0.94902 0.282353 0.231373 
0.94902 0.282353 0.231373 0.94902 0.282353 0.231373 
0.94902 0.282353 0.231373 0.94902 0.282353 0.231373 
0.94902 0.282353 0.231373 0.94902 0.282353 0.231373 
0.94902 0.282353 0.231373 0.94902 0.282353 0.231373 
0.94902 0.282353 0.231373 0.94902 0.282353 0.231373 
0.94902 0.282353 0.231373 0.94902 0.282353 0.231373 
0.94902 0.282353 0.231373 0.94902 0.282353 0.231373 
0.94902 0.282353 0.231373 0.94902 0.282353 0.231373 
0.94902 0.282353 0.231373 0.94902 0.282353 0.231373 
0.94902 0.282353 0.231373 0.94902 0.282353 0.231373 
0.94902 0.282353 0.231373 0.94902 0.282353 0.231373 
0.94902 0.282353 0.231373 0.94902 0.282353 0.231373 
0.94902 0.282353 0.231373 0.94902 0.282353 0.231373 
0.94902 0.282353 0.231373 0.94902 0.282353 0.231373 
0.94902 0.282353 0.231373 0.94902 0.282353 0.231373 
0.94902 0.282353 0.231373 0.94902 0.282353 0.231373 
0.94902 0.282353 0.231373 0.94902 0.282353 0.231373 
0.94902 0.282353 0.231373 0.94902 0.282353 0.231373 
0.94902 0.282353 0.231373 0.94902 0.282353 0.231373 
0.94902 0.282353 0.231373 0.94902 0.282353 0.231373 
0.94902 0.282353 0.231373 0.94902 0.282353 0.231373 
0.94902 0.282353 0.231373 0.94902 0.282353 0.231373 
0.94902 0.282353 0.231373 0.94902 0.282353 0.231373 
0.94902 0.282353 0.231373 0.94902 0.282353 0.231373 
0.94902 0.282353 0.231373 0.94902 0.282353 0.231373 
0.94902 0.282353 0.231373 0.94902 0.282353 0.231373 
0.94902 0.282353 0.231373 0.94902 0.282353 0.231373 
0.94902 0.282353 0.231373 0.94902 0.282353 0.231373 
0.94902 0.282353 0.231373 0.94902 0.282353 0.231373 
0.94902 0.282353 0.231373 0.94902 0.282353 0.231373 
0.94902 0.282353 0.231373 0.94902 0.282353 0.231373 
0.94902 0.282353 0.231373 0.94902 0.282353 0.231373 
0.94902 0.282353 0.231373 0.94902 0.282353 0.231373 
0.94902 0.282353 0.231373 0.94902 0.282353 0.231373 
0.94902 0.282353 0.231373 0.94902 0.282353 0.231373 
0.94902 0.282353 0.231373 0.94902 0.282353 0.231373 
0.94902 0.282353 0.231373 0.94902 0.282353 0.231373 
0.94902 0.282353 0.231373 0.94902 0.282353 0.231373 
0.94902 0.282353 0.231373 0.94902 0.282353 0.231373 
0.94902 0.282353 0.231373 0.94902 0.282353 0.231373 
0.94902 0.282353 0.231373 0.94902 0.282353 0.231373 
0.94902 0.282353 0.231373 0.94902 0.282353 0.231373 
0.94902 0.282353 0.231373 0.94902 0.282353 0.231373 
0.94902 0.282353 0.231373 0.94902 0.282353 0.231373 
0.94902 0.282353 0.231373 0.94902 0.282353 0.231373 
0.94902 0.282353 0.231373 0.94902 0.282353 0.231373 
0.94902 0.282353 0.231373 0.94902 0.282353 0.231373 
0.94902 0.282353 0.231373 0.94902 0.282353 0.231373 
0.94902 0.282353 0.231373 0.94902 0.282353 0.231373 
0.94902 0.282353 0.231373 0.94902 0.282353 0.231373 
0.94902 0.282353 0.231373 0.94902 0.282353 0.231373 
0.94902 0.282353 0.231373 0.94902 0.282353 0.231373 
0.94902 0.282353 0.231373 0.94902 0.282353 0.231373 
0.94902 0.282353 0.231373 0.94902 0.282353 0.231373 
0.94902 0.282353 0.231373 0.94902 0.282353 0.231373 
0.94902 0.282353 0.231373 0.94902 0.282353 0.231373 
0.94902 0.282353 0.231373 0.94902 0.282353 0.231373 
0.94902 0.282353 0.231373 0.94902 0.282353 0.231373 
0.94902 0.282353 0.231373 0.94902 0.282353 0.231373 
0.94902 0.282353 0.231373 0.94902 0.282353 0.231373 
0.94902 0.282353 0.231373 0.94902 0.282353 0.231373 
0.94902 0.282353 0.231373 0.94902 0.282353 0.231373 
0.94902 0.282353 0.231373 0.94902 0.282353 0.231373 
0.94902 0.282353 0.231373 0.94902 0.282353 0.231373 
0.94902 0.282353 0.231373 0.94902 0.282353 0.231373 
0.94902 0.282353 0.231373 0.94902 0.282353 0.231373 
0.94902 0.282353 0.231373 0.94902 0.282353 0.231373 
0.94902 0.282353 0.231373 0.94902 0.282353 0.231373 
0.94902 0.282353 0.231373 0.94902 0.282353 0.231373 
0.94902 0.282353 0.231373 0.94902 0.282353 0.231373 
0.94902 0.282353 0.231373 0.94902 0.282353 0.231373 
0.94902 0.282353 0.231373 0.94902 0.282353 0.231373 
0.94902 0.282353 0.231373 0.94902 0.282353 0.231373 
0.94902 0.282353 0.231373 0.94902 0.282353 0.231373 
0.94902 0.282353 0.231373 0.94902 0.282353 0.231373 
0.94902 0.282353 0.231373 0.94902 0.282353 0.231373 
0.94902 0.282353 0.231373 0.94902 0.282353 0.231373 
0.94902 0.282353 0.231373 0.94902 0.282353 0.231373 
0.94902 0.282353 0.231373 0.94902 0.282353 0.231373 
0.94902 0.282353 0.231373 0.94902 0.282353 0.231373 
0.94902 0.282353 0.231373 0.94902 0.282353 0.231373 
0.94902 0.282353 0.231373 0.94902 0.282353 0.231373 
0.94902 0.282353 0.231373 0.94902 0.282353 0.231373 
0.94902 0.282353 0.231373 0.94902 0.282353 0.231373 
0.94902 0.282353 0.231373 0.94902 0.282353 0.231373 
0.94902 0.282353 0.231373 0.94902 0.282353 0.231373 
0.94902 0.282353 0.231373 0.94902 0.282353 0.231373 
0.94902 0.282353 0.231373 0.94902 0.282353 0.231373 
0.94902 0.282353 0.231373 0.94902 0.282353 0.231373 
0.94902 0.282353 0.231373 0.94902 0.282353 0.231373 
0.94902 0.282353 0.231373 0.94902 0.282353 0.231373 
0.94902 0.282353 0.231373 0.94902 0.282353 0.231373 
0.94902 0.282353 0.231373 0.94902 0.282353 0.231373 
0.94902 0.282353 0.231373 0.94902 0.282353 0.231373 
0.94902 0.282353 0.231373 0.94902 0.282353 0.231373 
0.94902 0.282353 0.231373 0.94902 0.282353 0.231373 
0.94902 0.282353 0.231373 0.94902 0.282353 0.231373 
0.94902 0.282353 0.231373 0.94902 0.282353 0.231373 
0.94902 0.282353 0.231373 0.94902 0.282353 0.231373 
0.94902 0.282353 0.231373 0.94902 0.282353 0.231373 
0.94902 0.282353 0.231373 0.94902 0.282353 0.231373 
0.94902 0.282353 0.231373 0.94902 0.282353 0.231373 
0.94902 0.282353 0.231373 0.94902 0.282353 0.231373 
0.94902 0.282353 0.231373 0.94902 0.282353 0.231373 
0.94902 0.282353 0.231373 0.94902 0.282353 0.231373 
0.94902 0.282353 0.231373 0.94902 0.282353 0.231373 
0.94902 0.282353 0.231373 0.94902 0.282353 0.231373 
0.94902 0.282353 0.231373 0.94902 0.282353 0.231373 
0.94902 0.282353 0.231373 0.94902 0.282353 0.231373 
0.94902 0.282353 0.231373 0.94902 0.282353 0.231373 
0.94902 0.282353 0.231373 0.94902 0.282353 0.231373 
0.94902 0.282353 0.231373 0.94902 0.282353 0.231373 
0.94902 0.282353 0.231373 0.94902 0.282353 0.231373 
0.94902 0.282353 0.231373 0.94902 0.282353 0.231373 
0.94902 0.282353 0.231373 0.94902 0.282353 0.231373 
0.94902 0.282353 0.231373 0.94902 0.282353 0.231373 
0.94902 0.282353 0.231373 0.94902 0.282353 0.231373 
0.94902 0.282353 0.231373 0.94902 0.282353 0.231373 
0.94902 0.282353 0.231373 0.94902 0.282353 0.231373 
0.94902 0.282353 0.231373 0.94902 0.282353 0.231373 
0.94902 0.282353 0.231373 0.94902 0.282353 0.231373 
0.94902 0.282353 0.231373 0.94902 0.282353 0.231373 
0.94902 0.282353 0.231373 0.94902 0.282353 0.231373 
0.94902 0.282353 0.231373 0.94902 0.282353 0.231373 
0.94902 0.282353 0.231373 0.94902 0.282353 0.231373 
0.94902 0.282353 0.231373 0.94902 0.282353 0.231373 
0.94902 0.282353 0.231373 0.94902 0.282353 0.231373 
0.94902 0.282353 0.231373 0.94902 0.282353 0.231373 
0.94902 0.282353 0.231373 0.94902 0.282353 0.231373 
0.94902 0.282353 0.231373 0.94902 0.282353 0.231373 
0.94902 0.282353 0.231373 0.94902 0.282353 0.231373 
0.94902 0.282353 0.231373 0.94902 0.282353 0.231373 
0.94902 0.282353 0.231373 0.94902 0.282353 0.231373 
0.94902 0.282353 0.231373 0.94902 0.282353 0.231373 
0.94902 0.282353 0.231373 0.94902 0.282353 0.231373 
0.94902 0.282353 0.231373 0.94902 0.282353 0.231373 
0.94902 0.282353 0.231373 0.94902 0.282353 0.231373 
0.94902 0.282353 0.231373 0.94902 0.282353 0.231373 
0.94902 0.282353 0.231373 0.94902 0.282353 0.231373 
0.94902 0.282353 0.231373 0.94902 0.282353 0.231373 
0.94902 0.282353 0.231373 0.94902 0.282353 0.231373 
0.94902 0.282353 0.231373 0.94902 0.282353 0.231373 
0.94902 0.282353 0.231373 0.94902 0.282353 0.231373 
0.94902 0.282353 0.231373 0.94902 0.282353 0.231373 
0.94902 0.282353 0.231373 0.94902 0.282353 0.231373 
0.94902 0.282353 0.231373 0.94902 0.282353 0.231373 
0.94902 0.282353 0.231373 0.94902 0.282353 0.231373 
0.94902 0.282353 0.231373 0.94902 0.282353 0.231373 
0.94902 0.282353 0.231373 0.94902 0.282353 0.231373 
0.94902 0.282353 0.231373 0.94902 0.282353 0.231373 
0.94902 0.282353 0.231373 0.94902 0.282353 0.231373 
0.94902 0.282353 0.231373 0.94902 0.282353 0.231373 
0.94902 0.282353 0.231373 0.94902 0.282353 0.231373 
0.94902 0.282353 0.231373 0.94902 0.282353 0.231373 
0.94902 0.282353 0.231373 0.94902 0.282353 0.231373 
0.94902 0.282353 0.231373 0.94902 0.282353 0.231373 
0.94902 0.282353 0.231373 0.94902 0.282353 0.231373 
0.94902 0.282353 0.231373 0.94902 0.282353 0.231373 
0.94902 0.282353 0.231373 0.94902 0.282353 0.231373 
0.94902 0.282353 0.231373 0.94902 0.282353 0.231373 
0.94902 0.282353 0.231373 0.94902 0.282353 0.231373 
0.94902 0.282353 0.231373 0.94902 0.282353 0.231373 
0.94902 0.282353 0.231373 0.94902 0.282353 0.231373 
0.94902 0.282353 0.231373 0.94902 0.282353 0.231373 
0.94902 0.282353 0.231373 0.94902 0.282353 0.231373 
0.94902 0.282353 0.231373 0.94902 0.282353 0.231373 
0.94902 0.282353 0.231373 0.94902 0.282353 0.231373 
0.94902 0.282353 0.231373 0.94902 0.282353 0.231373 
0.94902 0.282353 0.231373 0.94902 0.282353 0.231373 
0.94902 0.282353 0.231373 0.94902 0.282353 0.231373 
0.94902 0.282353 0.231373 0.94902 0.282353 0.231373 
0.94902 0.282353 0.231373 0.94902 0.282353 0.231373 
0.94902 0.282353 0.231373 0.94902 0.282353 0.231373 
0.94902 0.282353 0.231373 0.94902 0.282353 0.231373 
0.94902 0.282353 0.231373 0.94902 0.282353 0.231373 
0.94902 0.282353 0.231373 0.94902 0.282353 0.231373 
0.94902 0.282353 0.231373 0.94902 0.282353 0.231373 
0.94902 0.282353 0.231373 0.94902 0.282353 0.231373 
0.94902 0.282353 0.231373 0.94902 0.282353 0.231373 
0.94902 0.282353 0.231373 0.94902 0.282353 0.231373 
0.94902 0.282353 0.231373 0.94902 0.282353 0.231373 
0.94902 0.282353 0.231373 0.94902 0.282353 0.231373 
0.94902 0.282353 0.231373 0.94902 0.282353 0.231373 
0.94902 0.282353 0.231373 0.94902 0.282353 0.231373 
0.94902 0.282353 0.231373 0.94902 0.282353 0.231373 
0.94902 0.282353 0.231373 0.94902 0.282353 0.231373 
0.94902 0.282353 0.231373 0.94902 0.282353 0.231373 
0.94902 0.282353 0.231373 0.94902 0.282353 0.231373 
0.94902 0.282353 0.231373 0.94902 0.282353 0.231373 
0.94902 0.282353 0.231373 0.94902 0.282353 0.231373 
0.94902 0.282353 0.231373 0.94902 0.282353 0.231373 
0.94902 0.282353 0.231373 0.94902 0.282353 0.231373 
0.94902 0.282353 0.231373 0.94902 0.282353 0.231373 