# vtk DataFile Version 4.2
vtk output
ASCII
DATASET POLYDATA
POINTS 960 float
280.227 116.421 175.473 280.422 116.18 175.412 280.499 116.42 175.322 
280.423 116.702 175.394 280.741 116.605 175.285 286.013 116.992 174.867 
280.073 117.07 175.812 280.388 117.052 175.583 284.813 117.396 174.935 
286.394 117.32 174.893 286.587 117.826 174.967 287.122 117.841 175.082 
286.9 117.407 175.025 280.812 117.377 175.659 285.198 118.258 175.187 
287.549 118.052 175.305 287.072 118.747 175.396 287.606 119.034 175.736 
281.203 114.705 175.968 280.962 114.44 176.404 282.667 114.474 175.782 
282.317 114.132 176.248 283.487 114.423 175.734 283.962 114.024 176.152 
285.105 114.438 175.708 286.07 114.208 176.031 280.399 115.35 175.985 
281.525 115.084 175.578 286.292 114.452 175.838 286.296 114.877 175.588 
286.645 114.611 175.834 280.525 115.779 175.6 283.553 115.436 175.143 
286.842 114.92 175.718 287.202 115.116 175.785 279.644 116.414 176.32 
280.865 116.21 175.309 282.446 116.089 175.117 287.807 115.676 175.929 
281.301 116.737 175.27 281.881 117.279 175.396 283.682 118.519 175.949 
288.541 118.102 176.023 286.145 119.291 175.868 287.995 118.793 175.759 
288.456 118.719 176.068 287.182 119.545 176.123 280.551 114.631 176.579 
282.817 113.785 176.75 285.301 113.798 176.565 287.185 114.066 176.754 
279.542 115.846 176.877 288.073 115.126 176.528 279.277 117.182 176.952 
289.274 116.812 177.102 279.243 117.539 177.25 279.891 117.985 176.934 
280.234 118.17 176.865 289.413 118.992 177.12 287.92 119.83 176.7 
288.898 119.595 176.895 289.144 119.688 177.221 281.727 113.794 177.282 
287.311 114.043 176.953 288.065 114.662 177.015 279.046 116.186 177.462 
278.874 116.672 177.556 290.104 117.915 178.046 279.235 118.186 178.147 
284.92 113.443 177.795 286.309 113.641 177.548 278.676 116.948 177.936 
278.665 117.432 178.167 278.465 118.319 179.391 285.737 119.953 178.554 
283 113.477 178.356 285.578 113.482 178.256 286.738 113.747 178.093 
280.088 114.548 179.238 279.061 115.329 179.975 277.815 116.67 180.022 
277.966 116.751 179.543 290.198 117.448 178.757 290.571 118.934 179.707 
278.744 118.737 179.598 279.046 118.899 179.661 290.484 119.305 179.311 
290.358 119.469 179.152 290.457 119.45 179.344 278.763 118.953 180.004 
287.978 120.378 179.021 289.589 119.973 178.627 290.312 119.58 179.425 
286.632 113.832 179.043 280.668 114.369 179.856 287.533 114.452 179.882 
277.963 116.144 180.904 277.666 116.596 180.675 277.786 117.034 179.846 
277.72 117.49 180.046 290.619 118.367 180.222 277.674 118.069 180.394 
290.708 118.917 180.25 290.735 118.844 180.554 277.691 118.532 180.723 
290.441 119.393 179.924 290.614 119.108 180.466 289.195 120.222 179.243 
282.199 114.258 180.634 278.923 115.492 181.555 278.441 115.743 181.166 
277.536 116.511 181.213 277.502 116.641 181.083 277.208 117.847 181.516 
277.107 118.382 181.75 277.558 118.789 181.202 279.111 119.193 180.679 
283.808 119.294 181.11 278.217 119.308 181.536 288.839 120.209 180.405 
289.877 119.833 180.711 277.589 119.476 182.189 280.095 115.187 181.807 
282.351 114.668 181.446 277.491 116.778 181.838 289.397 116.475 182.109 
281.127 118.655 182.094 283.527 118.669 182.414 290.637 118.491 181.428 
279.446 119.17 181.612 280.046 118.952 181.948 285.481 119.765 181.723 
290.221 119.562 181.178 290.244 119.437 181.886 290.496 119.111 181.933 
277.01 119.33 182.549 276.847 119.208 182.7 277.922 119.489 182.016 
287.033 120.142 182.142 287.844 120.199 181.831 289.435 119.978 181.314 
277.54 119.591 182.628 277.86 119.554 182.417 278.774 115.765 182.627 
280.599 115.33 182.239 282.07 117.882 182.853 283.166 117.799 183.056 
283.986 118.129 183.356 290.128 117.609 182.589 276.783 118.48 182.684 
280.564 118.613 182.409 284.38 118.861 183.007 290.55 118.548 182.15 
290.539 118.877 182.213 285.45 119.63 182.768 286.277 119.993 183.432 
278.8 119.21 182.691 277.048 119.526 183.114 277.743 119.578 182.873 
281.518 116.053 182.946 282.393 115.795 182.664 277.598 116.821 183.337 
278.863 116.041 183.378 282.297 116.668 183.099 281.614 116.941 183.269 
283.318 116.164 182.969 284.49 116.367 183.432 276.894 117.717 183.707 
276.827 117.84 183.904 283.502 117.118 183.317 284.551 117.413 184.108 
285.329 116.739 184.455 286.287 116.318 184.42 276.654 118.464 183.644 
280.904 118.007 183.024 284.621 118.232 184.206 276.54 118.811 183.668 
276.528 118.969 183.643 279.71 118.157 183.611 284.715 118.775 183.805 
285.274 119.346 184.215 290.455 118.718 182.661 276.61 119.106 183.469 
276.548 119.08 183.675 278.472 119.205 183.166 286.277 120.108 184.281 
276.599 119.175 183.652 276.778 119.274 183.656 276.941 119.479 183.424 
277.007 119.47 183.604 287.726 120.353 183.977 281.307 126.254 185.887 
281.228 125.893 186.061 281.054 126.167 186.121 281.533 126.328 185.807 
281.202 126.808 185.915 281.712 126.553 185.776 281.384 127.028 185.831 
281.616 127.105 185.776 281.926 127.061 185.878 281.49 127.265 185.892 
281.655 127.337 185.841 281.786 127.286 185.845 281.648 127.432 186.02 
279.657 116.146 183.621 280.271 116.343 183.625 278.313 116.507 183.909 
279.162 116.167 183.683 281.03 116.901 183.447 276.886 117.858 184.058 
277.344 117.523 184.259 285.04 117.335 184.853 285.935 116.728 185.539 
286.981 116.431 185.148 276.766 118.082 183.939 276.79 118.318 184.005 
279.792 117.736 183.861 285.112 117.467 185.397 284.883 118.048 185.094 
276.597 118.9 183.785 276.93 118.742 184.07 278.763 118.44 183.962 
284.978 118.825 184.654 285.398 119.619 185.127 290.08 118.403 184.702 
276.609 119.126 183.74 276.704 119.073 183.836 278.305 118.76 183.925 
277.175 119.491 183.653 277.293 119.385 183.776 277.705 119.427 183.519 
286.702 120.53 185.036 281.319 125.551 186.176 281.506 125.241 186.316 
281.735 125.46 186.198 280.879 125.919 186.492 281.045 126.551 186.058 
281.91 126.742 185.831 281.039 126.804 186.187 281.093 127.046 186.382 
281.786 127.415 185.945 281.986 127.343 186.046 281.894 127.488 186.223 
280.011 116.242 183.66 278.464 116.588 184.093 278.754 116.595 184.134 
279.43 116.931 184.142 276.927 118.044 184.151 277.241 117.901 184.343 
277.485 117.649 184.454 278.461 116.829 184.273 279.298 117.321 184.263 
285.348 117.204 185.745 284.982 117.743 186.095 286.06 116.628 186.654 
286.744 116.507 186.193 277.529 117.831 184.495 277.499 118.171 184.394 
278.136 117.792 184.527 278.792 117.952 184.269 278.993 117.541 184.352 
277.304 118.698 184.157 278.335 117.963 184.435 284.995 118.951 185.473 
285.082 119.663 185.937 285.638 120.438 185.885 289.706 119.696 184.668 
289.91 119.406 185.057 286.846 120.973 185.712 287.37 120.981 185.646 
288.644 120.786 185.9 287.821 121.433 186.368 281.189 124.867 186.719 
283.12 126.357 186.753 280.752 126.419 186.9 282.282 127.441 186.478 
282.744 127.415 186.885 281.71 127.521 186.978 278.892 116.85 184.263 
287.75 116.549 186.86 287.941 116.604 187.491 277.704 117.634 184.529 
284.953 117.525 186.789 285.053 117.219 187.332 288.986 117.375 187.154 
289.445 117.808 186.604 284.995 120.366 186.486 289.943 119.142 186.189 
285.489 121.24 186.587 288.941 120.88 186.52 289.374 120.632 187.151 
285.774 121.948 186.866 286.689 121.684 186.521 280.641 125.381 187.518 
282.667 125.312 186.607 283.436 125.808 186.971 280.708 126.496 187.349 
283.363 126.808 187.062 282.484 127.599 187.036 282.886 127.566 187.303 
287.471 116.374 187.956 284.525 118.232 187.062 284.001 119.165 187.604 
284.071 120.5 187.347 289.843 119.45 186.592 284.625 121.103 187.015 
284.213 122.159 187.328 288.072 122.304 187.409 282.382 122.726 187.781 
280.87 123.824 188.223 283.169 124.253 187.133 284.868 123.64 187.426 
280.459 125.347 188.524 280.637 126.203 187.877 284.034 127.159 187.907 
281.505 127.369 188.552 281.742 127.53 188.318 282.822 127.748 188.11 
287.211 116.112 189.195 283.211 118.512 189.32 289.652 118.857 188.725 
283.081 120.123 188.324 286.476 124.875 188.2 285.576 116.175 189.886 
287.612 116.347 189.908 289.571 118.849 189.609 280.182 124.16 189.757 
288.518 125.092 189.654 289.147 124.914 190.267 289.525 124.344 190.631 
280.928 126.183 190.404 281.931 127.178 190.57 287.77 126.977 190.311 
282.407 127.557 190.458 282.657 127.729 190.097 283.36 127.9 190.073 
286.311 115.997 190.608 284.908 116.488 191.151 283.248 117.573 191.56 
280.788 119.721 191.366 280.15 120.646 191.181 280.32 121.55 190.437 
279.731 123.316 190.859 289.849 122.807 190.915 289.914 125.847 191.905 
287.644 127.611 190.927 284.297 128.055 190.805 286.805 116.128 191.063 
287.519 116.619 191.463 285.44 116.37 191.759 280.974 119.058 192.464 
282.599 117.944 192.529 289.173 118.698 191.775 289.541 119.977 192.054 
278.048 122.034 192.628 278.953 122.437 191.818 279.268 123.028 191.581 
289.943 123.045 191.697 279.935 124.479 191.751 286.598 128.007 191.156 
289.532 127.636 192.662 283.644 127.84 191.735 287.774 128.192 192.102 
286.009 116.432 192.321 285.04 116.85 192.875 288.436 117.667 192.087 
277.162 121.136 193.849 278.239 120.6 193.377 278.702 120.182 193.663 
277.286 121.268 193.56 276.759 121.526 193.861 276.951 122.54 193.581 
278.921 123.338 192.315 279.876 124.412 192.594 283.814 127.658 192.53 
284.415 127.973 192.249 284.713 127.936 192.56 288.804 128.143 192.493 
289.256 128.027 192.856 289.822 127.695 193.267 287.775 128.322 192.535 
289.068 128.226 193.077 289.358 128.062 193.282 288.063 128.364 192.781 
288.788 128.317 193.08 286.565 116.678 192.815 286.976 116.773 192.647 
283.677 117.529 193.715 287.751 117.765 193.492 279.739 119.564 194.136 
280.428 119.273 194.271 277.288 120.907 194.375 277.902 120.591 194.397 
289.207 120.279 193.432 275.208 122.272 194.588 289.469 121.598 193.562 
275.109 122.615 194.631 278.138 123.105 193.113 279.038 123.764 193.467 
279.782 124.164 193.529 290.071 125.392 193.21 283.825 127.228 193.172 
289.969 127.278 193.608 286.22 127.975 192.977 288.809 127.87 193.761 
290.049 127.708 193.58 290.115 127.851 193.663 288.027 128.297 193.054 
288.514 128.276 193.223 289.659 127.913 193.586 290.009 127.927 193.584 
[...]
POINT_DATA 960
COLOR_SCALARS scalars 3
1 0.564706 0.623529 1 0.564706 0.623529 1 0.564706 0.623529 
1 0.564706 0.623529 1 0.564706 0.623529 
1 0.564706 0.623529 1 0.564706 0.623529 
1 0.564706 0.623529 1 0.564706 0.623529 
1 0.564706 0.623529 1 0.564706 0.623529 
1 0.564706 0.623529 1 0.564706 0.623529 
1 0.564706 0.623529 1 0.564706 0.623529 
1 0.564706 0.623529 1 0.564706 0.623529 
1 0.564706 0.623529 1 0.564706 0.623529 
1 0.564706 0.623529 1 0.564706 0.623529 
1 0.564706 0.623529 1 0.564706 0.623529 
1 0.564706 0.623529 1 0.564706 0.623529 
1 0.564706 0.623529 1 0.564706 0.623529 
1 0.564706 0.623529 1 0.564706 0.623529 
1 0.564706 0.623529 1 0.564706 0.623529 
1 0.564706 0.623529 1 0.564706 0.623529 
1 0.564706 0.623529 1 0.564706 0.623529 
1 0.564706 0.623529 1 0.564706 0.623529 
1 0.564706 0.623529 1 0.564706 0.623529 
1 0.564706 0.623529 1 0.564706 0.623529 
1 0.564706 0.623529 1 0.564706 0.623529 
1 0.564706 0.623529 1 0.564706 0.623529 
1 0.564706 0.623529 1 0.564706 0.623529 
1 0.564706 0.623529 1 0.564706 0.623529 
1 0.564706 0.623529 1 0.564706 0.623529 
1 0.564706 0.623529 1 0.564706 0.623529 
1 0.564706 0.623529 1 0.564706 0.623529 
1 0.564706 0.623529 1 0.564706 0.623529 
1 0.564706 0.623529 1 0.564706 0.623529 
1 0.564706 0.623529 1 0.564706 0.623529 
1 0.564706 0.623529 1 0.564706 0.623529 
1 0.564706 0.623529 1 0.564706 0.623529 
1 0.564706 0.623529 1 0.564706 0.623529 
1 0.564706 0.623529 1 0.564706 0.623529 
1 0.564706 0.623529 1 0.564706 0.623529 
1 0.564706 0.623529 1 0.564706 0.623529 
1 0.564706 0.623529 1 0.564706 0.623529 
1 0.564706 0.623529 1 0.564706 0.623529 
1 0.564706 0.623529 1 0.564706 0.623529 
1 0.564706 0.623529 1 0.564706 0.623529 
1 0.564706 0.623529 1 0.564706 0.623529 
1 0.564706 0.623529 1 0.564706 0.623529 
1 0.564706 0.623529 1 0.564706 0.623529 
1 0.564706 0.623529 1 0.564706 0.623529 
1 0.564706 0.623529 1 0.564706 0.623529 
1 0.564706 0.623529 1 0.564706 0.623529 
1 0.564706 0.623529 1 0.564706 0.623529 
1 0.564706 0.623529 1 0.564706 0.623529 
1 0.564706 0.623529 1 0.564706 0.623529 
1 0.564706 0.623529 1 0.564706 0.623529 
1 0.564706 0.623529 1 0.564706 0.623529 
1 0.564706 0.623529 1 0.564706 0.623529 
1 0.564706 0.623529 1 0.564706 0.623529 
1 0.564706 0.623529 1 0.564706 0.623529 
1 0.564706 0.623529 1 0.564706 0.623529 
1 0.564706 0.623529 1 0.564706 0.623529 
1 0.564706 0.623529 1 0.564706 0.623529 
1 0.564706 0.623529 1 0.564706 0.623529 
1 0.564706 0.623529 1 0.564706 0.623529 
1 0.564706 0.623529 1 0.564706 0.623529 
1 0.564706 0.623529 1 0.564706 0.623529 
1 0.564706 0.623529 1 0.564706 0.623529 
1 0.564706 0.623529 1 0.564706 0.623529 
1 0.564706 0.623529 1 0.564706 0.623529 
1 0.564706 0.623529 1 0.564706 0.623529 
1 0.564706 0.623529 1 0.564706 0.623529 
1 0.564706 0.623529 1 0.564706 0.623529 
1 0.564706 0.623529 1 0.564706 0.623529 
1 0.564706 0.623529 1 0.564706 0.623529 
1 0.564706 0.623529 1 0.564706 0.623529 
1 0.564706 0.623529 1 0.564706 0.623529 
1 0.564706 0.623529 1 0.564706 0.623529 
1 0.564706 0.623529 1 0.564706 0.623529 
1 0.564706 0.623529 1 0.564706 0.623529 
1 0.564706 0.623529 1 0.564706 0.623529 
1 0.564706 0.623529 1 0.564706 0.623529 
1 0.564706 0.623529 1 0.564706 0.623529 
1 0.564706 0.623529 1 0.564706 0.623529 
1 0.564706 0.623529 1 0.564706 0.623529 
1 0.564706 0.623529 1 0.564706 0.623529 
1 0.564706 0.623529 1 0.564706 0.623529 
1 0.564706 0.623529 1 0.564706 0.623529 
1 0.564706 0.623529 1 0.564706 0.623529 
1 0.564706 0.623529 1 0.564706 0.623529 
1 0.564706 0.623529 1 0.564706 0.623529 
1 0.564706 0.623529 1 0.564706 0.623529 
1 0.564706 0.623529 1 0.564706 0.623529 
1 0.564706 0.623529 1 0.564706 0.623529 
1 0.564706 0.623529 1 0.564706 0.623529 
1 0.564706 0.623529 1 0.564706 0.623529 
1 0.564706 0.623529 1 0.564706 0.623529 
1 0.564706 0.623529 1 0.564706 0.623529 
1 0.564706 0.623529 1 0.564706 0.623529 
1 0.564706 0.623529 1 0.564706 0.623529 
1 0.564706 0.623529 1 0.564706 0.623529 
1 0.564706 0.623529 1 0.564706 0.623529 
1 0.564706 0.623529 1 0.564706 0.623529 
1 0.564706 0.623529 1 0.564706 0.623529 
1 0.564706 0.623529 1 0.564706 0.623529 
1 0.564706 0.623529 1 0.564706 0.623529 
1 0.564706 0.623529 1 0.564706 0.623529 
1 0.564706 0.623529 1 0.564706 0.623529 
1 0.564706 0.623529 1 0.564706 0.623529 
1 0.564706 0.623529 1 0.564706 0.623529 
1 0.564706 0.623529 1 0.564706 0.623529 
1 0.564706 0.623529 1 0.564706 0.623529 
1 0.564706 0.623529 1 0.564706 0.623529 
1 0.564706 0.623529 1 0.564706 0.623529 
1 0.564706 0.623529 1 0.564706 0.623529 
1 0.564706 0.623529 1 0.564706 0.623529 
1 0.564706 0.623529 1 0.564706 0.623529 
1 0.564706 0.623529 1 0.564706 0.623529 
1 0.564706 0.623529 1 0.564706 0.623529 
1 0.564706 0.623529 1 0.564706 0.623529 
1 0.564706 0.623529 1 0.564706 0.623529 
1 0.564706 0.623529 1 0.564706 0.623529 
1 0.564706 0.623529 1 0.564706 0.623529 
1 0.564706 0.623529 1 0.564706 0.623529 
1 0.564706 0.623529 1 0.564706 0.623529 
1 0.564706 0.623529 1 0.564706 0.623529 
1 0.564706 0.623529 1 0.564706 0.623529 
1 0.564706 0.623529 1 0.564706 0.623529 
1 0.564706 0.623529 1 0.564706 0.623529 
1 0.564706 0.623529 1 0.564706 0.623529 
1 0.564706 0.623529 1 0.564706 0.623529 
1 0.564706 0.623529 1 0.564706 0.623529 
1 0.564706 0.623529 1 0.564706 0.623529 
1 0.564706 0.623529 1 0.564706 0.623529 
1 0.564706 0.623529 1 0.564706 0.623529 
1 0.564706 0.623529 1 0.564706 0.623529 
1 0.564706 0.623529 1 0.564706 0.623529 
1 0.564706 0.623529 1 0.564706 0.623529 
1 0.564706 0.623529 1 0.564706 0.623529 
1 0.564706 0.623529 1 0.564706 0.623529 
1 0.564706 0.623529 1 0.564706 0.623529 
1 0.564706 0.623529 1 0.564706 0.623529 
1 0.564706 0.623529 1 0.564706 0.623529 
1 0.564706 0.623529 1 0.564706 0.623529 
1 0.564706 0.623529 1 0.564706 0.623529 
1 0.564706 0.623529 1 0.564706 0.623529 
1 0.564706 0.623529 1 0.564706 0.623529 
1 0.564706 0.623529 1 0.564706 0.623529 
1 0.564706 0.623529 1 0.564706 0.623529 
1 0.564706 0.623529 1 0.564706 0.623529 
1 0.564706 0.623529 1 0.564706 0.623529 
1 0.564706 0.623529 1 0.564706 0.623529 
1 0.564706 0.623529 1 0.564706 0.623529 
1 0.564706 0.623529 1 0.564706 0.623529 
1 0.564706 0.623529 1 0.564706 0.623529 
1 0.564706 0.623529 1 0.564706 0.623529 
1 0.564706 0.623529 1 0.564706 0.623529 
1 0.564706 0.623529 1 0.564706 0.623529 
1 0.564706 0.623529 1 0.564706 0.623529 
1 0.564706 0.623529 1 0.564706 0.623529 
1 0.564706 0.623529 1 0.564706 0.623529 
1 0.564706 0.623529 1 0.564706 0.623529 
1 0.564706 0.623529 1 0.564706 0.623529 
1 0.564706 0.623529 1 0.564706 0.623529 
1 0.564706 0.623529 1 0.564706 0.623529 
1 0.564706 0.623529 1 0.564706 0.623529 
1 0.564706 0.623529 1 0.564706 0.623529 
1 0.564706 0.623529 1 0.564706 0.623529 
1 0.564706 0.623529 1 0.564706 0.623529 
1 0.564706 0.623529 1 0.564706 0.623529 
1 0.564706 0.623529 1 0.564706 0.623529 
1 0.564706 0.623529 1 0.564706 0.623529 
1 0.564706 0.623529 1 0.564706 0.623529 
1 0.564706 0.623529 1 0.564706 0.623529 
1 0.564706 0.623529 1 0.564706 0.623529 
1 0.564706 0.623529 1 0.564706 0.623529 
1 0.564706 0.623529 1 0.564706 0.623529 
1 0.564706 0.623529 1 0.564706 0.623529 
1 0.564706 0.623529 1 0.564706 0.623529 
1 0.564706 0.623529 1 0.564706 0.623529 
1 0.564706 0.623529 1 0.564706 0.623529 
1 0.564706 0.623529 1 0.564706 0.623529 
1 0.564706 0.623529 1 0.564706 0.623529 
1 0.564706 0.623529 1 0.564706 0.623529 
1 0.564706 0.623529 1 0.564706 0.623529 
1 0.564706 0.623529 1 0.564706 0.623529 
1 0.564706 0.623529 1 0.564706 0.623529 
1 0.564706 0.623529 1 0.564706 0.623529 
1 0.564706 0.623529 1 0.564706 0.623529 
1 0.564706 0.623529 1 0.564706 0.623529 
1 0.564706 0.623529 1 0.564706 0.623529 
1 0.564706 0.623529 1 0.564706 0.623529 
1 0.564706 0.623529 1 0.564706 0.623529 
1 0.564706 0.623529 1 0.564706 0.623529 
1 0.564706 0.623529 1 0.564706 0.623529 
1 0.564706 0.623529 1 0.564706 0.623529 
1 0.564706 0.623529 1 0.564706 0.623529 
1 0.564706 0.623529 1 0.564706 0.623529 
1 0.564706 0.623529 1 0.564706 0.623529 
1 0.564706 0.623529 1 0.564706 0.623529 
1 0.564706 0.623529 1 0.564706 0.623529 
1 0.564706 0.623529 1 0.564706 0.623529 
1 0.564706 0.623529 1 0.564706 0.623529 
1 0.564706 0.623529 1 0.564706 0.623529 
1 0.564706 0.623529 1 0.564706 0.623529 
1 0.564706 0.623529 1 0.564706 0.623529 
1 0.564706 0.623529 1 0.564706 0.623529 
1 0.564706 0.623529 1 0.564706 0.623529 
1 0.564706 0.623529 1 0.564706 0.623529 
1 0.564706 0.623529 1 0.564706 0.623529 
1 0.564706 0.623529 1 0.564706 0.623529 
1 0.564706 0.623529 1 0.564706 0.623529 
1 0.564706 0.623529 1 0.564706 0.623529 
1 0.564706 0.623529 1 0.564706 0.623529 
1 0.564706 0.623529 1 0.564706 0.623529 
1 0.564706 0.623529 1 0.564706 0.623529 
1 0.564706 0.623529 1 0.564706 0.623529 
1 0.564706 0.623529 1 0.564706 0.623529 
1 0.564706 0.623529 1 0.564706 0.623529 
1 0.564706 0.623529 1 0.564706 0.623529 
1 0.564706 0.623529 1 0.564706 0.623529 
1 0.564706 0.623529 1 0.564706 0.623529 
1 0.564706 0.623529 1 0.564706 0.623529 
1 0.564706 0.623529 1 0.564706 0.623529 
1 0.564706 0.623529 1 0.564706 0.623529 
1 0.564706 0.623529 1 0.564706 0.623529 
1 0.564706 0.623529 1 0.564706 0.623529 
1 0.564706 0.623529 1 0.564706 0.623529 
1 0.564706 0.623529 1 0.564706 0.623529 
1 0.564706 0.623529 1 0.564706 0.623529 
1 0.564706 0.623529 1 0.564706 0.623529 
1 0.564706 0.623529 1 0.564706 0.623529 
1 0.564706 0.623529 1 0.564706 0.623529 
1 0.564706 0.623529 1 0.564706 0.623529 
1 0.564706 0.623529 1 0.564706 0.623529 
1 0.564706 0.623529 1 0.564706 0.623529 
1 0.564706 0.623529 1 0.564706 0.623529 
1 0.564706 0.623529 1 0.564706 0.623529 
1 0.564706 0.623529 1 0.564706 0.623529 
1 0.564706 0.623529 1 0.564706 0.623529 
1 0.564706 0.623529 1 0.564706 0.623529 
1 0.564706 0.623529 1 0.564706 0.623529 
1 0.564706 0.623529 1 0.564706 0.623529 
1 0.564706 0.623529 1 0.564706 0.623529 
1 0.564706 0.623529 1 0.564706 0.623529 
1 0.564706 0.623529 1 0.564706 0.623529 
1 0.564706 0.623529 1 0.564706 0.623529 
1 0.564706 0.623529 1 0.564706 0.623529 
1 0.564706 0.623529 1 0.564706 0.623529 
1 0.564706 0.623529 1 0.564706 0.623529 
1 0.564706 0.623529 1 0.564706 0.623529 
1 0.564706 0.623529 1 0.564706 0.623529 
1 0.564706 0.623529 1 0.564706 0.623529 
1 0.564706 0.623529 1 0.564706 0.623529 
1 0.564706 0.623529 1 0.564706 0.623529 
1 0.564706 0.623529 1 0.564706 0.623529 
1 0.564706 0.623529 1 0.564706 0.623529 
1 0.564706 0.623529 1 0.564706 0.623529 
1 0.564706 0.623529 1 0.564706 0.623529 
1 0.564706 0.623529 1 0.564706 0.623529 
1 0.564706 0.623529 1 0.564706 0.623529 
1 0.564706 0.623529 1 0.564706 0.623529 
1 0.564706 0.623529 1 0.564706 0.623529 
1 0.564706 0.623529 1 0.564706 0.623529 
1 0.564706 0.623529 1 0.564706 0.623529 
1 0.564706 0.623529 1 0.564706 0.623529 
1 0.564706 0.623529 1 0.564706 0.623529 
1 0.564706 0.623529 1 0.564706 0.623529 
1 0.564706 0.623529 1 0.564706 0.623529 
1 0.564706 0.623529 1 0.564706 0.623529 
1 0.564706 0.623529 1 0.564706 0.623529 
1 0.564706 0.623529 1 0.564706 0.623529 
1 0.564706 0.623529 1 0.564706 0.623529 
1 0.564706 0.623529 1 0.564706 0.623529 
1 0.564706 0.623529 1 0.564706 0.623529 
1 0.564706 0.623529 1 0.564706 0.623529 
1 0.564706 0.623529 1 0.564706 0.623529 
1 0.564706 0.623529 1 0.564706 0.623529 
1 0.564706 0.623529 1 0.564706 0.623529 
1 0.564706 0.623529 1 0.564706 0.623529 
1 0.564706 0.623529 1 0.564706 0.623529 
1 0.564706 0.623529 1 0.564706 0.623529 
1 0.564706 0.623529 1 0.564706 0.623529 
1 0.564706 0.623529 1 0.564706 0.623529 
1 0.564706 0.623529 1 0.564706 0.623529 
1 0.564706 0.623529 1 0.564706 0.623529 
1 0.564706 0.623529 1 0.564706 0.623529 
1 0.564706 0.623529 1 0.564706 0.623529 
1 0.564706 0.623529 1 0.564706 0.623529 
1 0.564706 0.623529 1 0.564706 0.623529 
1 0.564706 0.623529 1 0.564706 0.623529 
1 0.564706 0.623529 1 0.564706 0.623529 
1 0.564706 0.623529 1 0.564706 0.623529 
1 0.564706 0.623529 1 0.564706 0.623529 
1 0.564706 0.623529 1 0.564706 0.623529 
1 0.564706 0.623529 1 0.564706 0.623529 
1 0.564706 0.623529 1 0.564706 0.623529 
1 0.564706 0.623529 1 0.564706 0.623529 
1 0.564706 0.623529 1 0.564706 0.623529 
1 0.564706 0.623529 1 0.564706 0.623529 
1 0.564706 0.623529 1 0.564706 0.623529 
1 0.564706 0.623529 1 0.564706 0.623529 
1 0.564706 0.623529 1 0.564706 0.623529 
1 0.564706 0.623529 1 0.564706 0.623529 
1 0.564706 0.623529 1 0.564706 0.623529 
1 0.564706 0.623529 1 0.564706 0.623529 
1 0.564706 0.623529 1 0.564706 0.623529 
1 0.564706 0.623529 1 0.564706 0.623529 
1 0.564706 0.623529 1 0.564706 0.623529 
1 0.564706 0.623529 1 0.564706 0.623529 
1 0.564706 0.623529 1 0.564706 0.623529 
1 0.564706 0.623529 1 0.564706 0.623529 
1 0.564706 0.623529 1 0.564706 0.623529 
1 0.564706 0.623529 1 0.564706 0.623529 
1 0.564706 0.623529 1 0.564706 0.623529 
1 0.564706 0.623529 1 0.564706 0.623529 
1 0.564706 0.623529 1 0.564706 0.623529 
1 0.564706 0.623529 1 0.564706 0.623529 
1 0.564706 0.623529 1 0.564706 0.623529 
1 0.564706 0.623529 1 0.564706 0.623529 
1 0.564706 0.623529 1 0.564706 0.623529 
1 0.564706 0.623529 1 0.564706 0.623529 
1 0.564706 0.623529 1 0.564706 0.623529 
1 0.564706 0.623529 1 0.564706 0.623529 
1 0.564706 0.623529 1 0.564706 0.623529 
1 0.564706 0.623529 1 0.564706 0.623529 
1 0.564706 0.623529 1 0.564706 0.623529 
1 0.564706 0.623529 1 0.564706 0.623529 
1 0.564706 0.623529 1 0.564706 0.623529 
1 0.564706 0.623529 1 0.564706 0.623529 
1 0.564706 0.623529 1 0.564706 0.623529 
1 0.564706 0.623529 1 0.564706 0.623529 
1 0.564706 0.623529 1 0.564706 0.623529 
1 0.564706 0.623529 1 0.564706 0.623529 
1 0.564706 0.623529 1 0.564706 0.623529 
1 0.564706 0.623529 1 0.564706 0.623529 
1 0.564706 0.623529 1 0.564706 0.623529 
1 0.564706 0.623529 1 0.564706 0.623529 
1 0.564706 0.623529 1 0.564706 0.623529 
1 0.564706 0.623529 1 0.564706 0.623529 
1 0.564706 0.623529 1 0.564706 0.623529 
1 0.564706 0.623529 1 0.564706 0.623529 
1 0.564706 0.623529 1 0.564706 0.623529 
1 0.564706 0.623529 1 0.564706 0.623529 
1 0.564706 0.623529 1 0.564706 0.623529 
1 0.564706 0.623529 1 0.564706 0.623529 
1 0.564706 0.623529 1 0.564706 0.623529 
1 0.564706 0.623529 1 0.564706 0.623529 
1 0.564706 0.623529 1 0.564706 0.623529 
1 0.564706 0.623529 1 0.564706 0.623529 
1 0.564706 0.623529 1 0.564706 0.623529 
1 0.564706 0.623529 1 0.564706 0.623529 
1 0.564706 0.623529 1 0.564706 0.623529 
1 0.564706 0.623529 1 0.564706 0.623529 
1 0.564706 0.623529 1 0.564706 0.623529 
1 0.564706 0.623529 1 0.564706 0.623529 
1 0.564706 0.623529 1 0.564706 0.623529 
1 0.564706 0.623529 1 0.564706 0.623529 
1 0.564706 0.623529 1 0.564706 0.623529 
1 0.564706 0.623529 1 0.564706 0.623529 
1 0.564706 0.623529 1 0.564706 0.623529 
1 0.564706 0.623529 1 0.564706 0.623529 
1 0.564706 0.623529 1 0.564706 0.623529 
1 0.564706 0.623529 1 0.564706 0.623529 
1 0.564706 0.623529 1 0.564706 0.623529 
1 0.564706 0.623529 1 0.564706 0.623529 
1 0.564706 0.623529 1 0.564706 0.623529 
1 0.564706 0.623529 1 0.564706 0.623529 
1 0.564706 0.623529 1 0.564706 0.623529 
1 0.564706 0.623529 1 0.564706 0.623529 
1 0.564706 0.623529 1 0.564706 0.623529 
1 0.564706 0.623529 1 0.564706 0.623529 
1 0.564706 0.623529 1 0.564706 0.623529 
1 0.564706 0.623529 1 0.564706 0.623529 
1 0.564706 0.623529 1 0.564706 0.623529 
1 0.564706 0.623529 1 0.564706 0.623529 
1 0.564706 0.623529 1 0.564706 0.623529 
1 0.564706 0.623529 1 0.564706 0.623529 
1 0.564706 0.623529 1 0.564706 0.623529 
1 0.564706 0.623529 1 0.564706 0.623529 
1 0.564706 0.623529 1 0.564706 0.623529 
1 0.564706 0.623529 1 0.564706 0.623529 
1 0.564706 0.623529 1 0.564706 0.623529 
1 0.564706 0.623529 1 0.564706 0.623529 
1 0.564706 0.623529 1 0.564706 0.623529 
1 0.564706 0.623529 1 0.564706 0.623529 
1 0.564706 0.623529 1 0.564706 0.623529 
1 0.564706 0.623529 1 0.564706 0.623529 
1 0.564706 0.623529 1 0.564706 0.623529 
1 0.564706 0.623529 1 0.564706 0.623529 
1 0.564706 0.623529 1 0.564706 0.623529 
1 0.564706 0.623529 1 0.564706 0.623529 
1 0.564706 0.623529 1 0.564706 0.623529 
1 0.564706 0.623529 1 0.564706 0.623529 
1 0.564706 0.623529 1 0.564706 0.623529 
1 0.564706 0.623529 1 0.564706 0.623529 
1 0.564706 0.623529 1 0.564706 0.623529 
1 0.564706 0.623529 1 0.564706 0.623529 
1 0.564706 0.623529 1 0.564706 0.623529 
1 0.564706 0.623529 1 0.564706 0.623529 
1 0.564706 0.623529 1 0.564706 0.623529 
1 0.564706 0.623529 1 0.564706 0.623529 
1 0.564706 0.623529 1 0.564706 0.623529 
1 0.564706 0.623529 1 0.564706 0.623529 
1 0.564706 0.623529 1 0.564706 0.623529 
1 0.564706 0.623529 1 0.564706 0.623529 
1 0.564706 0.623529 1 0.564706 0.623529 
1 0.564706 0.623529 1 0.564706 0.623529 
1 0.564706 0.623529 1 0.564706 0.623529 
1 0.564706 0.623529 1 0.564706 0.623529 
1 0.564706 0.623529 1 0.564706 0.623529 
1 0.564706 0.623529 1 0.564706 0.623529 
1 0.564706 0.623529 1 0.564706 0.623529 
1 0.564706 0.623529 1 0.564706 0.623529 
1 0.564706 0.623529 1 0.564706 0.623529 
1 0.564706 0.623529 1 0.564706 0.623529 
1 0.564706 0.623529 1 0.564706 0.623529 
1 0.564706 0.623529 1 0.564706 0.623529 
1 0.564706 0.623529 1 0.564706 0.623529 
1 0.564706 0.623529 1 0.564706 0.623529 
1 0.564706 0.623529 1 0.564706 0.623529 
1 0.564706 0.623529 1 0.564706 0.623529 
1 0.564706 0.623529 1 0.564706 0.623529 
1 0.564706 0.623529 1 0.564706 0.623529 
1 0.564706 0.623529 1 0.564706 0.623529 
1 0.564706 0.623529 1 0.564706 0.623529 
1 0.564706 0.623529 1 0.564706 0.623529 
1 0.564706 0.623529 1 0.564706 0.623529 
1 0.564706 0.623529 1 0.564706 0.623529 
1 0.564706 0.623529 1 0.564706 0.623529 
1 0.564706 0.623529 1 0.564706 0.623529 
1 0.564706 0.623529 1 0.564706 0.623529 
1 0.564706 0.623529 1 0.564706 0.623529 
1 0.564706 0.623529 1 0.564706 0.623529 
1 0.564706 0.623529 1 0.564706 0.623529 
1 0.564706 0.623529 1 0.564706 0.623529 
1 0.564706 0.623529 1 0.564706 0.623529 
1 0.564706 0.623529 1 0.564706 0.623529 
1 0.564706 0.623529 1 0.564706 0.623529 
1 0.564706 0.623529 1 0.564706 0.623529 
1 0.564706 0.623529 1 0.564706 0.623529 
1 0.564706 0.623529 1 0.564706 0.623529 
1 0.564706 0.623529 1 0.564706 0.623529 
1 0.564706 0.623529 1 0.564706 0.623529 
1 0.564706 0.623529 1 0.564706 0.623529 
1 0.564706 0.623529 1 0.564706 0.623529 
1 0.564706 0.623529 1 0.564706 0.623529 
1 0.564706 0.623529 1 0.564706 0.623529 
1 0.564706 0.623529 1 0.564706 0.623529 
1 0.564706 0.623529 1 0.564706 0.623529 
1 0.564706 0.623529 1 0.564706 0.623529 
1 0.564706 0.623529 1 0.564706 0.623529 
1 0.564706 0.623529 1 0.564706 0.623529 
1 0.564706 0.623529 1 0.564706 0.623529 
1 0.564706 0.623529 1 0.564706 0.623529 
1 0.564706 0.623529 1 0.564706 0.623529 
1 0.564706 0.623529 1 0.564706 0.623529 
1 0.564706 0.623529 1 0.564706 0.623529 
1 0.564706 0.623529 1 0.564706 0.623529 
1 0.564706 0.623529 1 0.564706 0.623529 
1 0.564706 0.623529 1 0.564706 0.623529 
1 0.564706 0.623529 1 0.564706 0.623529 
1 0.564706 0.623529 1 0.564706 0.623529 
1 0.564706 0.623529 1 0.564706 0.623529 
1 0.564706 0.623529 1 0.564706 0.623529 
1 0.564706 0.623529 1 0.564706 0.623529 
1 0.564706 0.623529 1 0.564706 0.623529 
1 0.564706 0.623529 1 0.564706 0.623529 
1 0.564706 0.623529 1 0.564706 0.623529 
1 0.564706 0.623529 1 0.564706 0.623529 
1 0.564706 0.623529 1 0.564706 0.623529 
1 0.564706 0.623529 1 0.564706 0.623529 
1 0.564706 0.623529 1 0.564706 0.623529 
1 0.564706 0.623529 1 0.564706 0.623529 
1 0.564706 0.623529 1 0.564706 0.623529 
1 0.564706 0.623529 1 0.564706 0.623529 
1 0.564706 0.623529 1 0.564706 0.623529 
1 0.564706 0.623529 1 0.564706 0.623529 
1 0.564706 0.623529 1 0.564706 0.623529 
1 0.564706 0.623529 1 0.564706 0.623529 
1 0.564706 0.623529 1 0.564706 0.623529 
1 0.564706 0.623529 1 0.564706 0.623529 
1 0.564706 0.623529 1 0.564706 0.623529 
1 0.564706 0.623529 1 0.564706 0.623529 
1 0.564706 0.623529 1 0.564706 0.623529 
1 0.564706 0.623529 
NORMALS Normals float
-0.661239 0.0233173 -0.749813 -0.490333 -0.382412 -0.783157 -0.31228 -0.0579589 -0.94822 
-0.415458 0.262492 -0.870915 -0.144823 0.234094 -0.961367 0.0639987 -0.0822534 -0.994554 