# vtk DataFile Version 4.2
vtk output
ASCII
DATASET POLYDATA
POINTS 1384 float
200.955 147.273 197.974 200.982 147.17 197.996 200.833 147.223 197.976 
201.107 147.269 198.13 200.145 147.914 197.892 200.01 147.941 197.938 
200.125 148.021 197.97 200.979 146.914 198.137 201.386 146.734 198.383 
200.357 147.333 198.027 201.348 147.026 198.32 198.974 147.511 198.306 
199.793 147.769 198.046 200.658 147.682 198.076 201.444 147.341 198.485 
199.025 148.004 198.428 198.757 148.078 198.669 199.892 148.148 198.154 
200.825 145.581 198.802 201.58 145.52 199.111 201.909 145.512 199.44 
199.979 145.882 198.697 199.768 146.239 198.52 198.244 147.196 198.996 
202.086 146.994 199.239 198.907 148.616 199.074 201.082 144.55 199.947 
201.467 144.66 200.054 200.296 144.881 199.558 201.657 144.909 199.803 
202.175 145.585 199.878 198.736 146.324 199.033 198.454 146.088 199.377 
197.934 146.541 199.526 202.502 146.54 200.086 197.54 146.949 199.9 
197.507 147.286 200.007 197.937 148.046 199.818 201.762 148.126 199.547 
202.143 147.619 199.685 198.405 145.541 200.323 199.126 144.923 200.384 
197.859 146.306 199.833 197.64 146.326 200.219 197.467 146.599 200.345 
197.722 148.215 200.64 202.411 147.668 200.381 201.156 148.925 199.796 
198.996 149.599 200.643 200.56 144.157 200.819 199.641 144.287 200.965 
201.585 144.627 201.249 199.428 144.39 200.95 199.188 144.614 200.92 
197.868 145.999 200.46 197.569 146.379 200.605 202.964 146.92 201.37 
197.351 147.474 200.782 197.687 148.487 201.516 198.316 149.538 201.53 
201.762 148.994 200.92 199.587 150.498 201.963 200.069 150.639 202.203 
200.549 144.068 201.456 200.271 144.085 201.414 200.752 144.159 201.603 
199.427 144.398 201.232 199.265 144.553 201.573 198.766 145.004 201.49 
197.37 147.328 201.058 202.968 146.948 201.609 202.781 147.536 201.878 
197.925 149.171 201.902 198.727 150.116 201.965 198.954 150.622 202.62 
200.591 150.807 202.705 200.745 144.547 202.528 199.515 145.192 203.215 
202.171 145.396 202.017 201.93 145.326 202.514 202.247 145.702 202.403 
202.761 146.995 202.475 197.675 149.042 203.088 202.73 148.369 203.207 
202.147 149.468 202.635 202.532 149.043 203.147 202.242 149.844 203.449 
199.895 151.283 203.4 200.555 151.21 203.39 200.29 144.801 203.018 
200.311 145.068 203.398 201.299 145.078 203.061 199.062 146.083 204.171 
202.797 147.958 203.775 197.663 148.465 204.53 197.893 150.144 203.747 
202.695 149.492 204.239 198.482 150.696 203.363 201.699 150.932 203.893 
199.662 151.733 204.132 201.575 151.271 204.211 201.9 146.28 204.555 
198.312 147.121 204.75 199.631 146.27 205.163 202.26 146.669 204.545 
197.996 151.313 205.035 198.841 152.47 205.341 199.766 153.455 206.095 
211.156 143.726 207.669 211.067 143.801 207.673 211.256 143.707 207.709 
211.229 143.827 207.624 211.858 144.238 207.352 212.03 144.283 207.314 
211.948 144.168 207.392 212.049 144.213 207.432 211.709 144.332 207.408 
211.686 144.468 207.522 211.914 144.359 207.349 212.115 144.314 207.31 
212.065 144.362 207.318 212.123 144.353 207.319 201.018 145.994 204.926 
211.934 144.422 207.437 200.332 146.372 206.011 201.188 146.302 205.631 
201.895 146.5 205.246 202.93 147.735 205.662 203.135 148.508 205.542 
197.544 149.018 205.654 203.296 149.187 205.892 197.704 153.108 206.913 
198.26 153.554 206.658 200.881 153.7 206.584 221.769 127.441 208.767 
222.157 127.624 208.742 222.147 127.368 208.803 222.339 127.626 208.728 
222.415 127.587 208.728 221.779 127.814 208.901 210.282 143.845 207.984 
209.859 143.925 208.125 211.001 143.343 208.198 211.49 143.876 207.645 
210.051 144.186 207.955 211.11 144.07 207.631 209.907 144.672 208.003 
210.2 144.5 207.896 210.758 144.545 207.785 211.365 144.394 207.571 
212.018 144.277 207.618 210.843 145.111 208.103 211.227 144.744 207.856 
211.78 144.488 207.768 199.081 146.94 206.54 199.43 146.81 206.949 
201.01 146.469 206.755 202.036 146.7 206.435 202.661 147.186 206.23 
197.639 148.67 206.855 202.899 151.849 206.656 197.706 154.602 207.846 
221.186 126.91 208.955 222.147 126.591 209.103 222.621 126.441 209.289 
222.924 126.467 209.492 218.901 127.663 209.078 221.18 127.52 208.866 
222.489 127.307 209.038 222.842 126.86 209.491 221.152 128.37 209.186 
222.249 127.711 209.213 211.346 143.125 208.59 211.764 143.507 208.504 
211.887 143.872 207.972 211.914 144.287 207.957 211.894 144.108 208.245 
209.926 145.486 208.341 200.765 146.48 207.625 202.694 146.739 207.559 
203.413 147.168 207.591 209.786 145.826 208.587 210.187 145.66 208.519 
204.022 148.725 207.321 210.314 145.82 208.875 210.78 145.524 208.914 
204.224 150.347 207.771 196.533 152.709 208.922 198.788 155.696 208.009 
198.089 156.244 208.805 199.648 156.43 208.625 198.933 156.68 208.875 
223.556 125.309 210.093 223.567 125.265 210.162 222.95 126.179 209.524 
223.519 125.343 210.113 219.953 128.479 209.224 220.573 129.011 209.9 
209.882 142.121 209.621 211.563 142.685 209.3 211.794 143.191 208.893 
205.889 145.36 209.492 207.593 145.146 209.043 203.55 146.508 208.526 
203.153 145.893 209.434 204.682 146.415 208.905 207.212 146.079 209.01 
211.188 145.08 209.498 211.425 144.711 209.474 204.288 147.335 208.176 
205.269 147.138 208.708 206.765 147.041 209.01 208.548 146.392 208.977 
209.356 146.139 208.875 210.824 145.522 209.417 204.972 148.08 208.364 
205.939 147.896 208.855 207.341 147.49 209.227 208.124 147.13 209.294 
209.777 146.315 209.401 205.341 149.709 208.83 198.069 156.706 209.48 
198.409 157.01 209.485 199.429 157.416 209.577 199.15 157.671 209.931 
226 124.009 210.017 226 124.009 210.017 226 124.009 210.017 
226 124.009 210.017 219.616 125.07 210.096 223.213 125.545 209.975 
223.207 125.066 210.353 223.506 125.162 210.338 226 124.009 210.017 
223.471 125.34 210.29 223.305 125.783 210.283 215.569 128.21 210.194 
223.055 126.749 210.307 221.224 128.88 210.489 219.415 130.06 210.842 
212.913 133.035 210.87 210.422 141.477 210.057 211.107 141.675 210.031 
211.718 142.989 209.558 207.427 143.261 210.064 211.51 144.217 209.935 
202.32 145.647 210.444 203.72 145.292 210.336 204.716 145.044 210.182 
210.573 145.627 210.425 206.995 148.314 209.429 209.689 146.686 210.379 
197.138 149.333 209.818 206.43 148.924 209.356 208.098 148.102 210.09 
209.131 147.323 210.394 206.42 149.425 209.621 207.796 148.736 210.62 
196.776 155.133 210.204 200.513 157.49 209.875 198.565 157.846 210.6 
198.433 157.97 211.13 198.971 157.996 210.455 199.993 157.992 210.264 
199.922 158.408 210.803 226 123.009 211.017 226 123.009 211.017 
226 123.009 211.017 226 123.009 211.017 223.137 124.52 210.875 
223.009 123.923 211.386 226 123.009 211.017 226 124.009 210.017 
223.492 124.318 211.234 223.434 124.955 210.85 223.501 124.38 211.253 
215.559 125.895 210.958 214.125 126.441 211.32 211.201 128.426 211.547 
221.205 128.934 211.04 212.159 131.449 211.026 216.338 131.267 210.806 
217.931 131.041 211.109 215.054 132.295 211.017 215.362 133.842 211.802 
212.632 135.746 211.409 213.481 135.232 211.469 213.06 136.502 211.65 
211.601 137.943 211.392 213.496 136.733 211.971 211.612 138.984 211.287 
210.497 139.519 211.078 212.078 139.731 211.483 209.905 140.275 210.856 
211.331 140.901 210.606 208.183 142.336 210.257 209.122 141.081 210.665 
211.658 141.804 210.454 206.198 143.611 210.759 203.772 144.873 211.187 
201.324 145.839 211.404 198.871 146.99 211.116 197.814 148.065 210.835 
206.669 149.971 210.401 207.83 148.971 211.42 196.282 152.447 210.559 
204.593 153.363 210.717 196.562 154.806 210.935 197.974 157.482 211.357 
199.261 158.807 211.602 199.105 158.846 211.944 199.569 158.896 211.562 
200.421 158.604 211.215 223.004 122.839 212.378 223.468 123.417 212.104 
226 123.009 211.017 223.528 123.254 212.261 223.447 123.964 211.79 
223.494 124.216 211.376 223.534 123.329 212.266 223.351 125.624 211.881 
223.042 126.449 211.923 209.201 128.657 212.402 222.185 127.663 211.997 
221.55 128.322 212.489 220.947 129.11 212.142 219.327 130.503 211.905 
209.998 136.469 211.9 214.55 135.187 211.906 210.53 137.103 211.623 
214.51 135.591 212.149 215.018 135.23 212.48 213.469 137.074 212.12 
214.317 135.984 212.341 213.399 137.384 212.307 209.102 139.592 211.519 
208.152 140.067 211.907 211.46 142.711 211.941 207.781 149.073 212.015 
207.497 149.445 212.334 205.062 153.17 211.46 196.466 154.272 211.567 
201.726 157.778 211.073 200.321 159.016 211.824 199.605 159.242 212.57 
223.286 121.662 213.384 223.566 121.571 213.675 221.193 122.19 212.556 
223.522 122.14 213.238 223.633 121.827 213.543 223.49 122.905 212.818 
223.531 123.152 212.404 222.875 126.059 213.242 207.603 130.807 213.025 
215.656 134.473 213.034 214.448 136.081 212.927 205.061 143.181 213.155 
203.406 144.754 212.736 200.433 146.352 213.367 209.41 145.82 213.099 
198.079 147.794 212.388 196.463 153.316 212.089 205.343 153.313 213.42 
197.641 157.095 212.985 200.137 159.727 213.699 200.844 159.588 213.094 
201.925 159.642 213.678 200.653 159.896 213.821 226 120.009 214.017 
226 120.009 214.017 226 120.009 214.017 226 120.009 214.017 
222.975 121.003 213.997 226 120.009 214.017 223.666 121.568 214.025 
223.686 121.832 213.726 223.305 125.015 213.376 221.747 127.371 213.904 
204.568 130.46 214.896 215.75 134.305 214.036 208.268 136.678 212.95 
213.887 136.653 214.296 204.504 143.806 214.197 198.825 147.277 213.26 
202.756 145.323 213.816 197.247 155.309 213.635 202.897 158.686 213.95 
202.076 159.729 214.036 200.754 160.061 214.407 223.594 119.617 215.503 
223.6 119.846 215.36 226 120.009 214.017 223.512 121.039 214.645 
223.622 121.36 214.113 223.468 123.287 214.503 223.332 124.156 214.321 
205.864 141.13 214.275 204.15 144.688 215.056 203.487 145.013 214.464 
197.229 154.16 214.225 198.63 158.034 214.748 199.072 158.802 214.511 
203.025 158.662 214.607 200.171 159.793 214.752 201.576 160.245 214.876 
202.203 159.918 214.916 201.763 160.252 215.104 226 117.009 216.017 
226 117.009 216.017 226 117.009 216.017 226 117.009 216.017 
223.332 118.295 216.513 226 117.009 216.017 223.478 118.425 216.449 
223.475 119.101 216.072 223.504 118.533 216.447 216.309 132.369 216.066 
[...]
POINT_DATA 1384
COLOR_SCALARS scalars 3
0.564706 0.796078 0.929412 0.564706 0.796078 0.929412 0.564706 0.796078 0.929412 
0.564706 0.796078 0.929412 0.564706 0.796078 0.929412 
0.564706 0.796078 0.929412 0.564706 0.796078 0.929412 
0.564706 0.796078 0.929412 0.564706 0.796078 0.929412 
0.564706 0.796078 0.929412 0.564706 0.796078 0.929412 
0.564706 0.796078 0.929412 0.564706 0.796078 0.929412 
0.564706 0.796078 0.929412 0.564706 0.796078 0.929412 
0.564706 0.796078 0.929412 0.564706 0.796078 0.929412 
0.564706 0.796078 0.929412 0.564706 0.796078 0.929412 
0.564706 0.796078 0.929412 0.564706 0.796078 0.929412 
0.564706 0.796078 0.929412 0.564706 0.796078 0.929412 
0.564706 0.796078 0.929412 0.564706 0.796078 0.929412 
0.564706 0.796078 0.929412 0.564706 0.796078 0.929412 
0.564706 0.796078 0.929412 0.564706 0.796078 0.929412 
0.564706 0.796078 0.929412 0.564706 0.796078 0.929412 
0.564706 0.796078 0.929412 0.564706 0.796078 0.929412 
0.564706 0.796078 0.929412 0.564706 0.796078 0.929412 
0.564706 0.796078 0.929412 0.564706 0.796078 0.929412 
0.564706 0.796078 0.929412 0.564706 0.796078 0.929412 
0.564706 0.796078 0.929412 0.564706 0.796078 0.929412 
0.564706 0.796078 0.929412 0.564706 0.796078 0.929412 
0.564706 0.796078 0.929412 0.564706 0.796078 0.929412 
0.564706 0.796078 0.929412 0.564706 0.796078 0.929412 
0.564706 0.796078 0.929412 0.564706 0.796078 0.929412 
0.564706 0.796078 0.929412 0.564706 0.796078 0.929412 
0.564706 0.796078 0.929412 0.564706 0.796078 0.929412 
0.564706 0.796078 0.929412 0.564706 0.796078 0.929412 
0.564706 0.796078 0.929412 0.564706 0.796078 0.929412 
0.564706 0.796078 0.929412 0.564706 0.796078 0.929412 
0.564706 0.796078 0.929412 0.564706 0.796078 0.929412 
0.564706 0.796078 0.929412 0.564706 0.796078 0.929412 
0.564706 0.796078 0.929412 0.564706 0.796078 0.929412 
0.564706 0.796078 0.929412 0.564706 0.796078 0.929412 
0.564706 0.796078 0.929412 0.564706 0.796078 0.929412 
0.564706 0.796078 0.929412 0.564706 0.796078 0.929412 
0.564706 0.796078 0.929412 0.564706 0.796078 0.929412 
0.564706 0.796078 0.929412 0.564706 0.796078 0.929412 
0.564706 0.796078 0.929412 0.564706 0.796078 0.929412 
0.564706 0.796078 0.929412 0.564706 0.796078 0.929412 
0.564706 0.796078 0.929412 0.564706 0.796078 0.929412 
0.564706 0.796078 0.929412 0.564706 0.796078 0.929412 
0.564706 0.796078 0.929412 0.564706 0.796078 0.929412 
0.564706 0.796078 0.929412 0.564706 0.796078 0.929412 
0.564706 0.796078 0.929412 0.564706 0.796078 0.929412 
0.564706 0.796078 0.929412 0.564706 0.796078 0.929412 
0.564706 0.796078 0.929412 0.564706 0.796078 0.929412 
0.564706 0.796078 0.929412 0.564706 0.796078 0.929412 
0.564706 0.796078 0.929412 0.564706 0.796078 0.929412 
0.564706 0.796078 0.929412 0.564706 0.796078 0.929412 
0.564706 0.796078 0.929412 0.564706 0.796078 0.929412 
0.564706 0.796078 0.929412 0.564706 0.796078 0.929412 
0.564706 0.796078 0.929412 0.564706 0.796078 0.929412 
0.564706 0.796078 0.929412 0.564706 0.796078 0.929412 
0.564706 0.796078 0.929412 0.564706 0.796078 0.929412 
0.564706 0.796078 0.929412 0.564706 0.796078 0.929412 
0.564706 0.796078 0.929412 0.564706 0.796078 0.929412 
0.564706 0.796078 0.929412 0.564706 0.796078 0.929412 
0.564706 0.796078 0.929412 0.564706 0.796078 0.929412 
0.564706 0.796078 0.929412 0.564706 0.796078 0.929412 
0.564706 0.796078 0.929412 0.564706 0.796078 0.929412 
0.564706 0.796078 0.929412 0.564706 0.796078 0.929412 
0.564706 0.796078 0.929412 0.564706 0.796078 0.929412 
0.564706 0.796078 0.929412 0.564706 0.796078 0.929412 
0.564706 0.796078 0.929412 0.564706 0.796078 0.929412 
0.564706 0.796078 0.929412 0.564706 0.796078 0.929412 
0.564706 0.796078 0.929412 0.564706 0.796078 0.929412 
0.564706 0.796078 0.929412 0.564706 0.796078 0.929412 
0.564706 0.796078 0.929412 0.564706 0.796078 0.929412 
0.564706 0.796078 0.929412 0.564706 0.796078 0.929412 
0.564706 0.796078 0.929412 0.564706 0.796078 0.929412 
0.564706 0.796078 0.929412 0.564706 0.796078 0.929412 
0.564706 0.796078 0.929412 0.564706 0.796078 0.929412 
0.564706 0.796078 0.929412 0.564706 0.796078 0.929412 
0.564706 0.796078 0.929412 0.564706 0.796078 0.929412 
0.564706 0.796078 0.929412 0.564706 0.796078 0.929412 
0.564706 0.796078 0.929412 0.564706 0.796078 0.929412 
0.564706 0.796078 0.929412 0.564706 0.796078 0.929412 
0.564706 0.796078 0.929412 0.564706 0.796078 0.929412 
0.564706 0.796078 0.929412 0.564706 0.796078 0.929412 
0.564706 0.796078 0.929412 0.564706 0.796078 0.929412 
0.564706 0.796078 0.929412 0.564706 0.796078 0.929412 
0.564706 0.796078 0.929412 0.564706 0.796078 0.929412 
0.564706 0.796078 0.929412 0.564706 0.796078 0.929412 
0.564706 0.796078 0.929412 0.564706 0.796078 0.929412 
0.564706 0.796078 0.929412 0.564706 0.796078 0.929412 
0.564706 0.796078 0.929412 0.564706 0.796078 0.929412 
0.564706 0.796078 0.929412 0.564706 0.796078 0.929412 
0.564706 0.796078 0.929412 0.564706 0.796078 0.929412 
0.564706 0.796078 0.929412 0.564706 0.796078 0.929412 
0.564706 0.796078 0.929412 0.564706 0.796078 0.929412 
0.564706 0.796078 0.929412 0.564706 0.796078 0.929412 
0.564706 0.796078 0.929412 0.564706 0.796078 0.929412 
0.564706 0.796078 0.929412 0.564706 0.796078 0.929412 
0.564706 0.796078 0.929412 0.564706 0.796078 0.929412 
0.564706 0.796078 0.929412 0.564706 0.796078 0.929412 
0.564706 0.796078 0.929412 0.564706 0.796078 0.929412 
0.564706 0.796078 0.929412 0.564706 0.796078 0.929412 
0.564706 0.796078 0.929412 0.564706 0.796078 0.929412 
0.564706 0.796078 0.929412 0.564706 0.796078 0.929412 
0.564706 0.796078 0.929412 0.564706 0.796078 0.929412 
0.564706 0.796078 0.929412 0.564706 0.796078 0.929412 
0.564706 0.796078 0.929412 0.564706 0.796078 0.929412 
0.564706 0.796078 0.929412 0.564706 0.796078 0.929412 
0.564706 0.796078 0.929412 0.564706 0.796078 0.929412 
0.564706 0.796078 0.929412 0.564706 0.796078 0.929412 
0.564706 0.796078 0.929412 0.564706 0.796078 0.929412 
0.564706 0.796078 0.929412 0.564706 0.796078 0.929412 
0.564706 0.796078 0.929412 0.564706 0.796078 0.929412 
0.564706 0.796078 0.929412 0.564706 0.796078 0.929412 
0.564706 0.796078 0.929412 0.564706 0.796078 0.929412 
0.564706 0.796078 0.929412 0.564706 0.796078 0.929412 
0.564706 0.796078 0.929412 0.564706 0.796078 0.929412 
0.564706 0.796078 0.929412 0.564706 0.796078 0.929412 
0.564706 0.796078 0.929412 0.564706 0.796078 0.929412 
0.564706 0.796078 0.929412 0.564706 0.796078 0.929412 
0.564706 0.796078 0.929412 0.564706 0.796078 0.929412 
0.564706 0.796078 0.929412 0.564706 0.796078 0.929412 
0.564706 0.796078 0.929412 0.564706 0.796078 0.929412 
0.564706 0.796078 0.929412 0.564706 0.796078 0.929412 
0.564706 0.796078 0.929412 0.564706 0.796078 0.929412 
0.564706 0.796078 0.929412 0.564706 0.796078 0.929412 
0.564706 0.796078 0.929412 0.564706 0.796078 0.929412 
0.564706 0.796078 0.929412 0.564706 0.796078 0.929412 
0.564706 0.796078 0.929412 0.564706 0.796078 0.929412 
0.564706 0.796078 0.929412 0.564706 0.796078 0.929412 
0.564706 0.796078 0.929412 0.564706 0.796078 0.929412 
0.564706 0.796078 0.929412 0.564706 0.796078 0.929412 
0.564706 0.796078 0.929412 0.564706 0.796078 0.929412 
0.564706 0.796078 0.929412 0.564706 0.796078 0.929412 
0.564706 0.796078 0.929412 0.564706 0.796078 0.929412 
0.564706 0.796078 0.929412 0.564706 0.796078 0.929412 
0.564706 0.796078 0.929412 0.564706 0.796078 0.929412 
0.564706 0.796078 0.929412 0.564706 0.796078 0.929412 
0.564706 0.796078 0.929412 0.564706 0.796078 0.929412 
0.564706 0.796078 0.929412 0.564706 0.796078 0.929412 
0.564706 0.796078 0.929412 0.564706 0.796078 0.929412 
0.564706 0.796078 0.929412 0.564706 0.796078 0.929412 
0.564706 0.796078 0.929412 0.564706 0.796078 0.929412 
0.564706 0.796078 0.929412 0.564706 0.796078 0.929412 
0.564706 0.796078 0.929412 0.564706 0.796078 0.929412 
0.564706 0.796078 0.929412 0.564706 0.796078 0.929412 
0.564706 0.796078 0.929412 0.564706 0.796078 0.929412 
0.564706 0.796078 0.929412 0.564706 0.796078 0.929412 
0.564706 0.796078 0.929412 0.564706 0.796078 0.929412 
0.564706 0.796078 0.929412 0.564706 0.796078 0.929412 
0.564706 0.796078 0.929412 0.564706 0.796078 0.929412 
0.564706 0.796078 0.929412 0.564706 0.796078 0.929412 
0.564706 0.796078 0.929412 0.564706 0.796078 0.929412 
0.564706 0.796078 0.929412 0.564706 0.796078 0.929412 
0.564706 0.796078 0.929412 0.564706 0.796078 0.929412 
0.564706 0.796078 0.929412 0.564706 0.796078 0.929412 
0.564706 0.796078 0.929412 0.564706 0.796078 0.929412 
0.564706 0.796078 0.929412 0.564706 0.796078 0.929412 
0.564706 0.796078 0.929412 0.564706 0.796078 0.929412 
0.564706 0.796078 0.929412 0.564706 0.796078 0.929412 
0.564706 0.796078 0.929412 0.564706 0.796078 0.929412 
0.564706 0.796078 0.929412 0.564706 0.796078 0.929412 
0.564706 0.796078 0.929412 0.564706 0.796078 0.929412 
0.564706 0.796078 0.929412 0.564706 0.796078 0.929412 
0.564706 0.796078 0.929412 0.564706 0.796078 0.929412 
0.564706 0.796078 0.929412 0.564706 0.796078 0.929412 
0.564706 0.796078 0.929412 0.564706 0.796078 0.929412 
0.564706 0.796078 0.929412 0.564706 0.796078 0.929412 
0.564706 0.796078 0.929412 0.564706 0.796078 0.929412 
0.564706 0.796078 0.929412 0.564706 0.796078 0.929412 
0.564706 0.796078 0.929412 0.564706 0.796078 0.929412 
0.564706 0.796078 0.929412 0.564706 0.796078 0.929412 
0.564706 0.796078 0.929412 0.564706 0.796078 0.929412 
0.564706 0.796078 0.929412 0.564706 0.796078 0.929412 
0.564706 0.796078 0.929412 0.564706 0.796078 0.929412 
0.564706 0.796078 0.929412 0.564706 0.796078 0.929412 
0.564706 0.796078 0.929412 0.564706 0.796078 0.929412 
0.564706 0.796078 0.929412 0.564706 0.796078 0.929412 
0.564706 0.796078 0.929412 0.564706 0.796078 0.929412 
0.564706 0.796078 0.929412 0.564706 0.796078 0.929412 
0.564706 0.796078 0.929412 0.564706 0.796078 0.929412 
0.564706 0.796078 0.929412 0.564706 0.796078 0.929412 
0.564706 0.796078 0.929412 0.564706 0.796078 0.929412 
0.564706 0.796078 0.929412 0.564706 0.796078 0.929412 
0.564706 0.796078 0.929412 0.564706 0.796078 0.929412 
0.564706 0.796078 0.929412 0.564706 0.796078 0.929412 
0.564706 0.796078 0.929412 0.564706 0.796078 0.929412 
0.564706 0.796078 0.929412 0.564706 0.796078 0.929412 
0.564706 0.796078 0.929412 0.564706 0.796078 0.929412 
0.564706 0.796078 0.929412 0.564706 0.796078 0.929412 
0.564706 0.796078 0.929412 0.564706 0.796078 0.929412 
0.564706 0.796078 0.929412 0.564706 0.796078 0.929412 
0.564706 0.796078 0.929412 0.564706 0.796078 0.929412 
0.564706 0.796078 0.929412 0.564706 0.796078 0.929412 
0.564706 0.796078 0.929412 0.564706 0.796078 0.929412 
0.564706 0.796078 0.929412 0.564706 0.796078 0.929412 
0.564706 0.796078 0.929412 0.564706 0.796078 0.929412 
0.564706 0.796078 0.929412 0.564706 0.796078 0.929412 
0.564706 0.796078 0.929412 0.564706 0.796078 0.929412 
0.564706 0.796078 0.929412 0.564706 0.796078 0.929412 
0.564706 0.796078 0.929412 0.564706 0.796078 0.929412 
0.564706 0.796078 0.929412 0.564706 0.796078 0.929412 
0.564706 0.796078 0.929412 0.564706 0.796078 0.929412 
0.564706 0.796078 0.929412 0.564706 0.796078 0.929412 
0.564706 0.796078 0.929412 0.564706 0.796078 0.929412 
0.564706 0.796078 0.929412 0.564706 0.796078 0.929412 
0.564706 0.796078 0.929412 0.564706 0.796078 0.929412 
0.564706 0.796078 0.929412 0.564706 0.796078 0.929412 
0.564706 0.796078 0.929412 0.564706 0.796078 0.929412 
0.564706 0.796078 0.929412 0.564706 0.796078 0.929412 
0.564706 0.796078 0.929412 0.564706 0.796078 0.929412 
0.564706 0.796078 0.929412 0.564706 0.796078 0.929412 
0.564706 0.796078 0.929412 0.564706 0.796078 0.929412 
0.564706 0.796078 0.929412 0.564706 0.796078 0.929412 
0.564706 0.796078 0.929412 0.564706 0.796078 0.929412 
0.564706 0.796078 0.929412 0.564706 0.796078 0.929412 
0.564706 0.796078 0.929412 0.564706 0.796078 0.929412 
0.564706 0.796078 0.929412 0.564706 0.796078 0.929412 
0.564706 0.796078 0.929412 0.564706 0.796078 0.929412 
0.564706 0.796078 0.929412 0.564706 0.796078 0.929412 
0.564706 0.796078 0.929412 0.564706 0.796078 0.929412 
0.564706 0.796078 0.929412 0.564706 0.796078 0.929412 
0.564706 0.796078 0.929412 0.564706 0.796078 0.929412 
0.564706 0.796078 0.929412 0.564706 0.796078 0.929412 
0.564706 0.796078 0.929412 0.564706 0.796078 0.929412 
0.564706 0.796078 0.929412 0.564706 0.796078 0.929412 
0.564706 0.796078 0.929412 0.564706 0.796078 0.929412 
0.564706 0.796078 0.929412 0.564706 0.796078 0.929412 
0.564706 0.796078 0.929412 0.564706 0.796078 0.929412 
0.564706 0.796078 0.929412 0.564706 0.796078 0.929412 
0.564706 0.796078 0.929412 0.564706 0.796078 0.929412 
0.564706 0.796078 0.929412 0.564706 0.796078 0.929412 
0.564706 0.796078 0.929412 0.564706 0.796078 0.929412 
0.564706 0.796078 0.929412 0.564706 0.796078 0.929412 
0.564706 0.796078 0.929412 0.564706 0.796078 0.929412 
0.564706 0.796078 0.929412 0.564706 0.796078 0.929412 
0.564706 0.796078 0.929412 0.564706 0.796078 0.929412 
0.564706 0.796078 0.929412 0.564706 0.796078 0.929412 
0.564706 0.796078 0.929412 0.564706 0.796078 0.929412 
0.564706 0.796078 0.929412 0.564706 0.796078 0.929412 
0.564706 0.796078 0.929412 0.564706 0.796078 0.929412 
0.564706 0.796078 0.929412 0.564706 0.796078 0.929412 
0.564706 0.796078 0.929412 0.564706 0.796078 0.929412 
0.564706 0.796078 0.929412 0.564706 0.796078 0.929412 
0.564706 0.796078 0.929412 0.564706 0.796078 0.929412 
0.564706 0.796078 0.929412 0.564706 0.796078 0.929412 
0.564706 0.796078 0.929412 0.564706 0.796078 0.929412 
0.564706 0.796078 0.929412 0.564706 0.796078 0.929412 
0.564706 0.796078 0.929412 0.564706 0.796078 0.929412 
0.564706 0.796078 0.929412 0.564706 0.796078 0.929412 
0.564706 0.796078 0.929412 0.564706 0.796078 0.929412 
0.564706 0.796078 0.929412 0.564706 0.796078 0.929412 
0.564706 0.796078 0.929412 0.564706 0.796078 0.929412 
0.564706 0.796078 0.929412 0.564706 0.796078 0.929412 
0.564706 0.796078 0.929412 0.564706 0.796078 0.929412 
0.564706 0.796078 0.929412 0.564706 0.796078 0.929412 
0.564706 0.796078 0.929412 0.564706 0.796078 0.929412 
0.564706 0.796078 0.929412 0.564706 0.796078 0.929412 
0.564706 0.796078 0.929412 0.564706 0.796078 0.929412 
0.564706 0.796078 0.929412 0.564706 0.796078 0.929412 
0.564706 0.796078 0.929412 0.564706 0.796078 0.929412 
0.564706 0.796078 0.929412 0.564706 0.796078 0.929412 
0.564706 0.796078 0.929412 0.564706 0.796078 0.929412 
0.564706 0.796078 0.929412 0.564706 0.796078 0.929412 
0.564706 0.796078 0.929412 0.564706 0.796078 0.929412 
0.564706 0.796078 0.929412 0.564706 0.796078 0.929412 
0.564706 0.796078 0.929412 0.564706 0.796078 0.929412 
0.564706 0.796078 0.929412 0.564706 0.796078 0.929412 
0.564706 0.796078 0.929412 0.564706 0.796078 0.929412 
0.564706 0.796078 0.929412 0.564706 0.796078 0.929412 
0.564706 0.796078 0.929412 0.564706 0.796078 0.929412 
0.564706 0.796078 0.929412 0.564706 0.796078 0.929412 
0.564706 0.796078 0.929412 0.564706 0.796078 0.929412 
0.564706 0.796078 0.929412 0.564706 0.796078 0.929412 
0.564706 0.796078 0.929412 0.564706 0.796078 0.929412 
0.564706 0.796078 0.929412 0.564706 0.796078 0.929412 
0.564706 0.796078 0.929412 0.564706 0.796078 0.929412 
0.564706 0.796078 0.929412 0.564706 0.796078 0.929412 
0.564706 0.796078 0.929412 0.564706 0.796078 0.929412 
0.564706 0.796078 0.929412 0.564706 0.796078 0.929412 
0.564706 0.796078 0.929412 0.564706 0.796078 0.929412 
0.564706 0.796078 0.929412 0.564706 0.796078 0.929412 
0.564706 0.796078 0.929412 0.564706 0.796078 0.929412 
0.564706 0.796078 0.929412 0.564706 0.796078 0.929412 
0.564706 0.796078 0.929412 0.564706 0.796078 0.929412 
0.564706 0.796078 0.929412 0.564706 0.796078 0.929412 
0.564706 0.796078 0.929412 0.564706 0.796078 0.929412 
0.564706 0.796078 0.929412 0.564706 0.796078 0.929412 
0.564706 0.796078 0.929412 0.564706 0.796078 0.929412 
0.564706 0.796078 0.929412 0.564706 0.796078 0.929412 
0.564706 0.796078 0.929412 0.564706 0.796078 0.929412 
0.564706 0.796078 0.929412 0.564706 0.796078 0.929412 
0.564706 0.796078 0.929412 0.564706 0.796078 0.929412 
0.564706 0.796078 0.929412 0.564706 0.796078 0.929412 
0.564706 0.796078 0.929412 0.564706 0.796078 0.929412 
0.564706 0.796078 0.929412 0.564706 0.796078 0.929412 
0.564706 0.796078 0.929412 0.564706 0.796078 0.929412 
0.564706 0.796078 0.929412 0.564706 0.796078 0.929412 
0.564706 0.796078 0.929412 0.564706 0.796078 0.929412 
0.564706 0.796078 0.929412 0.564706 0.796078 0.929412 
0.564706 0.796078 0.929412 0.564706 0.796078 0.929412 
0.564706 0.796078 0.929412 0.564706 0.796078 0.929412 
0.564706 0.796078 0.929412 0.564706 0.796078 0.929412 
0.564706 0.796078 0.929412 0.564706 0.796078 0.929412 
0.564706 0.796078 0.929412 0.564706 0.796078 0.929412 
0.564706 0.796078 0.929412 0.564706 0.796078 0.929412 
0.564706 0.796078 0.929412 0.564706 0.796078 0.929412 
0.564706 0.796078 0.929412 0.564706 0.796078 0.929412 
0.564706 0.796078 0.929412 0.564706 0.796078 0.929412 
0.564706 0.796078 0.929412 0.564706 0.796078 0.929412 
0.564706 0.796078 0.929412 0.564706 0.796078 0.929412 
0.564706 0.796078 0.929412 0.564706 0.796078 0.929412 
0.564706 0.796078 0.929412 0.564706 0.796078 0.929412 
0.564706 0.796078 0.929412 0.564706 0.796078 0.929412 
0.564706 0.796078 0.929412 0.564706 0.796078 0.929412 
0.564706 0.796078 0.929412 0.564706 0.796078 0.929412 
0.564706 0.796078 0.929412 0.564706 0.796078 0.929412 
0.564706 0.796078 0.929412 0.564706 0.796078 0.929412 
0.564706 0.796078 0.929412 0.564706 0.796078 0.929412 
0.564706 0.796078 0.929412 0.564706 0.796078 0.929412 
0.564706 0.796078 0.929412 0.564706 0.796078 0.929412 
0.564706 0.796078 0.929412 0.564706 0.796078 0.929412 
0.564706 0.796078 0.929412 0.564706 0.796078 0.929412 
0.564706 0.796078 0.929412 0.564706 0.796078 0.929412 
0.564706 0.796078 0.929412 0.564706 0.796078 0.929412 
0.564706 0.796078 0.929412 0.564706 0.796078 0.929412 
0.564706 0.796078 0.929412 0.564706 0.796078 0.929412 
0.564706 0.796078 0.929412 0.564706 0.796078 0.929412 
0.564706 0.796078 0.929412 0.564706 0.796078 0.929412 
0.564706 0.796078 0.929412 0.564706 0.796078 0.929412 
0.564706 0.796078 0.929412 0.564706 0.796078 0.929412 
0.564706 0.796078 0.929412 0.564706 0.796078 0.929412 
0.564706 0.796078 0.929412 0.564706 0.796078 0.929412 
0.564706 0.796078 0.929412 0.564706 0.796078 0.929412 
0.564706 0.796078 0.929412 0.564706 0.796078 0.929412 
0.564706 0.796078 0.929412 0.564706 0.796078 0.929412 
0.564706 0.796078 0.929412 0.564706 0.796078 0.929412 
0.564706 0.796078 0.929412 0.564706 0.796078 0.929412 
0.564706 0.796078 0.929412 0.564706 0.796078 0.929412 
0.564706 0.796078 0.929412 0.564706 0.796078 0.929412 
0.564706 0.796078 0.929412 0.564706 0.796078 0.929412 
0.564706 0.796078 0.929412 0.564706 0.796078 0.929412 
0.564706 0.796078 0.929412 0.564706 0.796078 0.929412 
0.564706 0.796078 0.929412 0.564706 0.796078 0.929412 
0.564706 0.796078 0.929412 0.564706 0.796078 0.929412 
0.564706 0.796078 0.929412 0.564706 0.796078 0.929412 
0.564706 0.796078 0.929412 0.564706 0.796078 0.929412 
0.564706 0.796078 0.929412 0.564706 0.796078 0.929412 
0.564706 0.796078 0.929412 0.564706 0.796078 0.929412 
0.564706 0.796078 0.929412 0.564706 0.796078 0.929412 
0.564706 0.796078 0.929412 0.564706 0.796078 0.929412 
0.564706 0.796078 0.929412 0.564706 0.796078 0.929412 
0.564706 0.796078 0.929412 0.564706 0.796078 0.929412 
0.564706 0.796078 0.929412 0.564706 0.796078 0.929412 
0.564706 0.796078 0.929412 0.564706 0.796078 0.929412 
0.564706 0.796078 0.929412 0.564706 0.796078 0.929412 
0.564706 0.796078 0.929412 0.564706 0.796078 0.929412 
0.564706 0.796078 0.929412 0.564706 0.796078 0.929412 
0.564706 0.796078 0.929412 0.564706 0.796078 0.929412 
0.564706 0.796078 0.929412 0.564706 0.796078 0.929412 
0.564706 0.796078 0.929412 0.564706 0.796078 0.929412 
0.564706 0.796078 0.929412 0.564706 0.796078 0.929412 
0.564706 0.796078 0.929412 0.564706 0.796078 0.929412 
0.564706 0.796078 0.929412 0.564706 0.796078 0.929412 
0.564706 0.796078 0.929412 0.564706 0.796078 0.929412 
0.564706 0.796078 0.929412 0.564706 0.796078 0.929412 
0.564706 0.796078 0.929412 0.564706 0.796078 0.929412 