# vtk DataFile Version 4.2
vtk output
ASCII
DATASET POLYDATA
POINTS 495 float
335.696 156.735 125.605 335.571 156.856 125.572 337.438 157.451 125.492 
337.441 157.33 125.607 337.652 157.504 125.561 338.983 158.423 125.617 
338.976 158.314 125.703 339.148 158.492 125.712 339.033 158.599 125.642 
333.479 156.932 125.832 333.02 156.506 126.141 337.172 157.04 125.84 
338.317 157.634 125.928 333.176 158.35 125.608 338.747 158.022 125.872 
335.127 158.721 125.358 338.809 158.959 125.616 339.924 159.003 126.256 
340.3 159.331 126.498 337.532 159.506 125.479 339.217 159.717 125.779 
340.423 159.684 126.42 340.66 160.048 126.613 336.255 160.065 125.588 
338.932 160.251 125.838 340.578 160.324 126.513 331.848 155.35 127.263 
334.601 155.784 126.638 334.82 155.577 126.959 335.967 156.099 126.595 
337.094 156.71 126.204 338.678 157.703 126.209 330.929 158.399 126.447 
340.854 160.094 126.969 337.76 160.794 125.909 340.591 160.74 126.629 
335.306 161.681 126.53 340.981 161.146 127.083 337.995 161.95 126.673 
340.927 161.532 127.189 329.535 155.197 128.031 330.323 154.72 128.213 
328.702 156.041 127.894 335.36 155.44 127.509 340.242 158.874 127.27 
341.201 161.09 127.576 341.23 161.347 127.362 341.168 161.445 127.284 
341.268 161.494 127.408 336.582 162.435 127.122 338.592 162.448 127.195 
340.663 162.135 127.522 340.959 161.873 127.535 337.103 156.166 127.728 
339.031 157.423 128.143 328.902 160.513 128.145 341.275 161.84 128.14 
332.876 162.663 127.996 340.98 162.214 127.894 341.225 162.294 128.21 
341.335 162.213 128.27 341.323 162.34 128.337 338.48 163.363 128.346 
341.212 162.471 128.473 329.352 154.113 129.852 326.788 155.96 129.753 
335.251 155.097 128.794 341.229 160.643 128.746 330.532 162.599 128.969 
341.324 162.287 128.436 341.241 162.458 129.004 331.223 163.657 129.97 
338.883 163.473 128.674 340.942 162.753 128.682 329.445 153.864 130.239 
329.359 153.829 130.306 329.861 153.82 130.532 325.931 160.045 130.19 
341.061 163.082 129.625 341.157 163.045 129.726 332.076 164.202 130.603 
330.226 153.644 131.214 330.189 153.583 131.671 325.573 155.752 131.9 
323.873 157.184 132.337 324.129 158.933 131.536 325.202 158.871 130.524 
340.587 159.817 130.744 341.038 161.793 130.924 326.675 162.684 131.738 
341.202 162.099 130.416 341.175 162.962 129.824 332.878 164.625 131.339 
330.578 153.55 131.929 323.324 157.608 132.741 339.297 158.193 131.897 
323.6 159.895 132.429 324.329 161.003 132.435 341.07 162.297 130.804 
340.949 162.598 130.889 340.834 162.897 130.675 335.354 164.728 131.76 
340.284 163.161 131.117 330.324 153.545 132.532 330.037 153.621 132.914 
332.595 153.938 132.483 322.515 157.569 133.796 322.113 157.706 134.272 
322.855 157.071 133.842 322.295 157.988 133.877 322.77 158.04 133.273 
340.55 161.343 132.168 340.481 161.837 132.329 340.478 162.267 132.08 
335.786 164.741 132.584 336.774 164.46 133.236 329.902 164.887 133.923 
331.669 165.064 133.66 332.621 153.876 134.328 323.334 156.314 134.549 
321.978 157.493 134.722 339.907 161.646 133.549 340.245 162.115 132.663 
329.964 153.625 135.137 335.497 155.265 134.571 321.377 157.795 135.755 
321.556 158.97 135.161 321.309 159.223 135.838 338.847 159.348 135.181 
339.592 160.627 134.242 324.741 162.998 135.021 338.743 162.92 134.726 
334.518 164.878 134.617 337.1 164.168 134.407 322.61 156.465 136.305 
335.952 155.731 136.127 327.527 164.628 135.971 320.675 158.542 137.64 
337.241 157.431 136.736 321.007 159.783 137.209 321.702 160.832 137.343 
338.586 160.273 136.398 338.647 161.453 136.31 338.954 161.996 135.446 
327.837 164.734 137.299 337.009 157.446 137.596 337.221 158.018 137.901 
320.571 159.128 137.782 337.752 159.134 137.58 338.029 162.332 136.801 
338.128 162.027 136.915 323.449 156.271 139.011 336.052 156.074 138.045 
320.945 158.426 139.426 320.883 159.843 139.051 321.497 160.758 139.297 
337.441 160.828 138.09 336.631 162.196 138.297 336.165 163.055 137.786 
332.687 152.298 140.662 320.788 158.762 139.544 321.034 158.719 140.063 
337.143 158.733 138.602 320.692 159.022 139.357 336.733 160.301 139.111 
333.826 163.24 139.251 327.395 164.327 139.311 332.107 152.462 140.863 
332.82 152.229 141.057 333.734 153.019 140.313 333.997 153.361 140.377 
334.952 154.995 139.983 320.801 159.278 139.742 321.878 158.457 141.145 
335.041 158.784 140.803 321.175 159.761 140.582 329.685 163.543 140.519 
332.943 152.163 141.225 332.921 152.153 141.312 332.845 152.176 141.271 
332.985 152.217 141.285 332.626 152.327 141.28 332.104 152.654 141.344 
333.079 152.337 141.09 333.25 152.635 141.142 333.512 153.151 141.085 
329.811 153.573 141.165 334.022 153.722 140.708 327.424 155.044 141.214 
334.314 155.367 141.141 333.826 156.54 141.759 322.715 158.002 141.49 
321.321 159.297 141.031 321.647 159.266 141.5 323.006 158.239 142.009 
321.432 159.523 141.323 331.223 161.775 141.68 322.908 161.572 141.483 
324.124 162.318 141.276 330.312 162.483 141.494 326.534 163.102 141.297 
332.862 152.298 141.372 332.912 152.572 141.469 333.053 152.427 141.314 
331.701 153.133 141.805 332.29 153.096 141.796 331.886 153.386 142.054 
329.435 154.193 142.057 331.95 156.457 142.777 321.94 159.152 141.821 
321.437 159.723 141.312 322.054 160.545 141.77 329.373 160.949 142.757 
322.914 161.363 141.9 323.153 161.297 142.182 331.754 153.812 142.282 
329.592 154.393 142.41 329.197 154.577 142.336 330.15 155.799 143.129 
331.517 155.235 142.762 329.529 156.761 143.342 329.73 157.885 143.364 
323.242 159.338 142.856 322.612 160.673 142.348 327.439 159.954 143.455 
324.698 160.986 142.888 329.983 154.412 142.557 330 154.832 142.804 
328.826 156.241 143.16 327.279 157.265 143.245 325.063 158.183 143.225 
325.996 158.977 143.661 322.577 160.015 142.605 323.211 159.82 142.985 
323.967 160.023 143.218 323.243 160.115 143.02 323.543 159.99 143.14 
325.965 158.444 311.192 326.04 158.19 311.288 325.63 158.6 311.225 
325.481 158.448 311.323 326.258 158.599 311.183 323.522 159.66 311.708 
323.338 159.751 311.783 323.8 159.669 311.632 324.206 159.508 311.564 
326.029 158.97 311.193 330.221 154.544 312.233 329.884 154.481 312.373 
330.191 154.979 312.013 330.257 155.959 311.753 326.191 157.784 311.567 
328.962 156.913 311.542 324.594 158.39 311.814 326.826 158.208 311.321 
322.866 159.84 312.157 324.846 159.724 311.518 323.189 160.47 312.248 
327.291 160.047 311.51 331.092 153.392 313.059 331.87 153.148 313.134 
329.874 154.177 312.736 331.899 153.544 312.847 331.758 154.022 312.6 
332.197 153.787 312.796 331.563 155.463 312.149 329.71 158.041 311.591 
322.615 159.824 312.444 322.494 159.493 312.588 329.455 160.037 311.923 
322.605 160.616 312.915 329.494 160.672 312.149 324.121 161.327 312.537 
324.547 161.765 312.802 328.311 161.7 312.462 332.796 152.182 313.628 
332.858 152.176 313.696 332.457 152.673 313.45 332.546 152.299 313.743 
332.906 152.69 313.503 333.009 152.274 313.775 333.118 152.535 313.691 
333.212 152.428 313.881 331.077 153.194 313.402 333.423 152.788 313.926 
333.613 153.413 313.815 333.301 154.438 313.206 332.727 155.661 312.631 
333.877 155.917 313.358 333.841 156.831 313.245 321.757 158.911 313.795 
321.885 159.691 313.455 321.504 159.43 314 331.572 161.376 313.152 
326.976 163.044 313.601 332.753 152.171 313.692 332.832 152.198 313.877 
333.101 152.302 314.015 333.321 152.497 314.083 331.817 152.6 314.359 
334.093 153.907 314.228 329.291 153.821 314.415 334.265 154.761 314.031 
334.81 154.587 315.201 335.257 155.93 315.004 325.041 156.558 313.534 
334.846 158.3 314.022 321.472 159.142 314.088 321.252 159.842 314.819 
334.18 160.642 314.068 326.154 163.412 314.276 329.849 163.383 314.129 
332.315 152.366 314.297 332.911 152.286 314.247 333.091 152.411 314.483 
334.606 154.083 315.587 322.846 157.003 315.122 321.253 158.487 315.006 
320.853 158.479 315.587 320.671 158.599 315.828 320.615 158.841 315.967 
335.995 159.482 315.016 336.425 159.433 315.436 336.548 160.05 315.597 
321.305 160.234 315.242 323.568 162.442 315.007 325.264 163.628 315.956 
334.015 163.163 315.576 327.393 164.445 316.21 329.932 164.136 315.182 
328.945 164.569 315.996 331.768 152.702 315.41 330.116 153.301 315.273 
320.776 158.167 316.44 320.588 158.533 316.241 320.504 158.79 316.472 
320.799 159.675 316.282 322.308 161.667 316.358 330.551 164.714 316.579 
331.514 164.55 316.468 320.685 158.14 317.017 320.492 158.953 316.662 
337.866 162.163 317.728 338.459 161.765 318.286 336.691 163.025 317.367 
320.766 158.047 317.5 320.597 158.292 317.28 320.651 158.993 317.622 
328.604 164.982 318.419 332.767 153.865 319.334 322.081 156.823 319.163 
320.654 158.267 317.603 320.789 158.752 318.169 338.547 159.953 318.589 
322.038 160.699 319.029 324.076 162.668 319.364 339.396 161.829 319.977 
337.903 163.554 319.535 322.857 156.287 319.892 324.186 155.571 319.945 
321.296 157.668 319.209 321.113 157.978 319.007 321.43 159.427 319.515 
339.508 161.09 320.138 325.743 163.703 319.977 338.884 163.106 320.183 
334.511 164.926 319.603 322.175 157.349 320.752 339.683 160.462 320.814 
328.578 164.68 321.318 330.377 153.651 322.032 323.148 156.435 321.104 
322.253 157.637 321.179 321.786 158.162 320.652 339.998 160.052 322.01 
340.315 162.362 322.144 340.678 162.047 322.77 339.352 163.611 322.405 
328.425 154.008 322.768 326.273 154.969 322.932 322.513 158.851 321.678 
324.354 160.904 322.692 340.597 160.638 323.001 325.738 162.441 322.612 
340.868 162.545 323.44 340.646 162.829 323.292 338.425 164.172 323.072 
339.973 163.473 323.368 340.56 163.076 323.656 330.756 153.635 323.746 
329.36 153.867 324.367 333.204 154.13 324.397 336.006 155.191 323.942 
324.686 156.501 323.488 323.462 158.069 322.887 341.053 162.374 323.827 
328.652 163.559 323.894 329.625 153.807 324.76 329.527 153.817 324.895 
329.392 153.858 324.798 329.689 153.85 324.968 327.489 154.742 324.524 
329.061 154.072 324.906 330.22 153.824 324.718 324.906 156.79 324.039 
324.968 157.814 324.471 341.265 161.412 324.671 327.419 162.617 324.115 
341.175 162.403 325.185 341.013 162.94 325.113 340.95 163.146 324.955 
[...]
POINT_DATA 495
COLOR_SCALARS scalars 3
1 0.501961 0.517647 1 0.501961 0.517647 1 0.501961 0.517647 
1 0.501961 0.517647 1 0.501961 0.517647 
1 0.501961 0.517647 1 0.501961 0.517647 
1 0.501961 0.517647 1 0.501961 0.517647 
1 0.501961 0.517647 1 0.501961 0.517647 
1 0.501961 0.517647 1 0.501961 0.517647 
1 0.501961 0.517647 1 0.501961 0.517647 
1 0.501961 0.517647 1 0.501961 0.517647 
1 0.501961 0.517647 1 0.501961 0.517647 
1 0.501961 0.517647 1 0.501961 0.517647 
1 0.501961 0.517647 1 0.501961 0.517647 
1 0.501961 0.517647 1 0.501961 0.517647 
1 0.501961 0.517647 1 0.501961 0.517647 
1 0.501961 0.517647 1 0.501961 0.517647 
1 0.501961 0.517647 1 0.501961 0.517647 
1 0.501961 0.517647 1 0.501961 0.517647 
1 0.501961 0.517647 1 0.501961 0.517647 
1 0.501961 0.517647 1 0.501961 0.517647 
1 0.501961 0.517647 1 0.501961 0.517647 
1 0.501961 0.517647 1 0.501961 0.517647 
1 0.501961 0.517647 1 0.501961 0.517647 
1 0.501961 0.517647 1 0.501961 0.517647 
1 0.501961 0.517647 1 0.501961 0.517647 
1 0.501961 0.517647 1 0.501961 0.517647 
1 0.501961 0.517647 1 0.501961 0.517647 
1 0.501961 0.517647 1 0.501961 0.517647 
1 0.501961 0.517647 1 0.501961 0.517647 
1 0.501961 0.517647 1 0.501961 0.517647 
1 0.501961 0.517647 1 0.501961 0.517647 
1 0.501961 0.517647 1 0.501961 0.517647 
1 0.501961 0.517647 1 0.501961 0.517647 
1 0.501961 0.517647 1 0.501961 0.517647 
1 0.501961 0.517647 1 0.501961 0.517647 
1 0.501961 0.517647 1 0.501961 0.517647 
1 0.501961 0.517647 1 0.501961 0.517647 
1 0.501961 0.517647 1 0.501961 0.517647 
1 0.501961 0.517647 1 0.501961 0.517647 
1 0.501961 0.517647 1 0.501961 0.517647 
1 0.501961 0.517647 1 0.501961 0.517647 
1 0.501961 0.517647 1 0.501961 0.517647 
1 0.501961 0.517647 1 0.501961 0.517647 
1 0.501961 0.517647 1 0.501961 0.517647 
1 0.501961 0.517647 1 0.501961 0.517647 
1 0.501961 0.517647 1 0.501961 0.517647 
1 0.501961 0.517647 1 0.501961 0.517647 
1 0.501961 0.517647 1 0.501961 0.517647 
1 0.501961 0.517647 1 0.501961 0.517647 
1 0.501961 0.517647 1 0.501961 0.517647 
1 0.501961 0.517647 1 0.501961 0.517647 
1 0.501961 0.517647 1 0.501961 0.517647 
1 0.501961 0.517647 1 0.501961 0.517647 
1 0.501961 0.517647 1 0.501961 0.517647 
1 0.501961 0.517647 1 0.501961 0.517647 
1 0.501961 0.517647 1 0.501961 0.517647 
1 0.501961 0.517647 1 0.501961 0.517647 
1 0.501961 0.517647 1 0.501961 0.517647 
1 0.501961 0.517647 1 0.501961 0.517647 
1 0.501961 0.517647 1 0.501961 0.517647 
1 0.501961 0.517647 1 0.501961 0.517647 
1 0.501961 0.517647 1 0.501961 0.517647 
1 0.501961 0.517647 1 0.501961 0.517647 
1 0.501961 0.517647 1 0.501961 0.517647 
1 0.501961 0.517647 1 0.501961 0.517647 
1 0.501961 0.517647 1 0.501961 0.517647 
1 0.501961 0.517647 1 0.501961 0.517647 
1 0.501961 0.517647 1 0.501961 0.517647 
1 0.501961 0.517647 1 0.501961 0.517647 
1 0.501961 0.517647 1 0.501961 0.517647 
1 0.501961 0.517647 1 0.501961 0.517647 
1 0.501961 0.517647 1 0.501961 0.517647 
1 0.501961 0.517647 1 0.501961 0.517647 
1 0.501961 0.517647 1 0.501961 0.517647 
1 0.501961 0.517647 1 0.501961 0.517647 
1 0.501961 0.517647 1 0.501961 0.517647 
1 0.501961 0.517647 1 0.501961 0.517647 
1 0.501961 0.517647 1 0.501961 0.517647 
1 0.501961 0.517647 1 0.501961 0.517647 
1 0.501961 0.517647 1 0.501961 0.517647 
1 0.501961 0.517647 1 0.501961 0.517647 
1 0.501961 0.517647 1 0.501961 0.517647 
1 0.501961 0.517647 1 0.501961 0.517647 
1 0.501961 0.517647 1 0.501961 0.517647 
1 0.501961 0.517647 1 0.501961 0.517647 
1 0.501961 0.517647 1 0.501961 0.517647 
1 0.501961 0.517647 1 0.501961 0.517647 
1 0.501961 0.517647 1 0.501961 0.517647 
1 0.501961 0.517647 1 0.501961 0.517647 
1 0.501961 0.517647 1 0.501961 0.517647 
1 0.501961 0.517647 1 0.501961 0.517647 
1 0.501961 0.517647 1 0.501961 0.517647 
1 0.501961 0.517647 1 0.501961 0.517647 
1 0.501961 0.517647 1 0.501961 0.517647 
1 0.501961 0.517647 1 0.501961 0.517647 
1 0.501961 0.517647 1 0.501961 0.517647 
1 0.501961 0.517647 1 0.501961 0.517647 
1 0.501961 0.517647 1 0.501961 0.517647 
1 0.501961 0.517647 1 0.501961 0.517647 
1 0.501961 0.517647 1 0.501961 0.517647 
1 0.501961 0.517647 1 0.501961 0.517647 
1 0.501961 0.517647 1 0.501961 0.517647 
1 0.501961 0.517647 1 0.501961 0.517647 
1 0.501961 0.517647 1 0.501961 0.517647 
1 0.501961 0.517647 1 0.501961 0.517647 
1 0.501961 0.517647 1 0.501961 0.517647 
1 0.501961 0.517647 1 0.501961 0.517647 
1 0.501961 0.517647 1 0.501961 0.517647 
1 0.501961 0.517647 1 0.501961 0.517647 
1 0.501961 0.517647 1 0.501961 0.517647 
1 0.501961 0.517647 1 0.501961 0.517647 
1 0.501961 0.517647 1 0.501961 0.517647 
1 0.501961 0.517647 1 0.501961 0.517647 
1 0.501961 0.517647 1 0.501961 0.517647 
1 0.501961 0.517647 1 0.501961 0.517647 
1 0.501961 0.517647 1 0.501961 0.517647 
1 0.501961 0.517647 1 0.501961 0.517647 
1 0.501961 0.517647 1 0.501961 0.517647 
1 0.501961 0.517647 1 0.501961 0.517647 
1 0.501961 0.517647 1 0.501961 0.517647 
1 0.501961 0.517647 1 0.501961 0.517647 
1 0.501961 0.517647 1 0.501961 0.517647 
1 0.501961 0.517647 1 0.501961 0.517647 
1 0.501961 0.517647 1 0.501961 0.517647 
1 0.501961 0.517647 1 0.501961 0.517647 
1 0.501961 0.517647 1 0.501961 0.517647 
1 0.501961 0.517647 1 0.501961 0.517647 
1 0.501961 0.517647 1 0.501961 0.517647 
1 0.501961 0.517647 1 0.501961 0.517647 
1 0.501961 0.517647 1 0.501961 0.517647 
1 0.501961 0.517647 1 0.501961 0.517647 
1 0.501961 0.517647 1 0.501961 0.517647 
1 0.501961 0.517647 1 0.501961 0.517647 
1 0.501961 0.517647 1 0.501961 0.517647 
1 0.501961 0.517647 1 0.501961 0.517647 
1 0.501961 0.517647 1 0.501961 0.517647 
1 0.501961 0.517647 1 0.501961 0.517647 
1 0.501961 0.517647 1 0.501961 0.517647 
1 0.501961 0.517647 1 0.501961 0.517647 
1 0.501961 0.517647 1 0.501961 0.517647 
1 0.501961 0.517647 1 0.501961 0.517647 
1 0.501961 0.517647 1 0.501961 0.517647 
1 0.501961 0.517647 1 0.501961 0.517647 
1 0.501961 0.517647 1 0.501961 0.517647 
1 0.501961 0.517647 1 0.501961 0.517647 
1 0.501961 0.517647 1 0.501961 0.517647 
1 0.501961 0.517647 1 0.501961 0.517647 
1 0.501961 0.517647 1 0.501961 0.517647 
1 0.501961 0.517647 1 0.501961 0.517647 
1 0.501961 0.517647 1 0.501961 0.517647 
1 0.501961 0.517647 1 0.501961 0.517647 
1 0.501961 0.517647 1 0.501961 0.517647 
1 0.501961 0.517647 1 0.501961 0.517647 
1 0.501961 0.517647 1 0.501961 0.517647 
1 0.501961 0.517647 1 0.501961 0.517647 
1 0.501961 0.517647 1 0.501961 0.517647 
1 0.501961 0.517647 1 0.501961 0.517647 
1 0.501961 0.517647 1 0.501961 0.517647 
1 0.501961 0.517647 1 0.501961 0.517647 
1 0.501961 0.517647 1 0.501961 0.517647 
1 0.501961 0.517647 1 0.501961 0.517647 
1 0.501961 0.517647 1 0.501961 0.517647 
1 0.501961 0.517647 1 0.501961 0.517647 
1 0.501961 0.517647 1 0.501961 0.517647 
1 0.501961 0.517647 1 0.501961 0.517647 
1 0.501961 0.517647 1 0.501961 0.517647 
1 0.501961 0.517647 1 0.501961 0.517647 
1 0.501961 0.517647 1 0.501961 0.517647 
1 0.501961 0.517647 1 0.501961 0.517647 
1 0.501961 0.517647 1 0.501961 0.517647 
1 0.501961 0.517647 1 0.501961 0.517647 
1 0.501961 0.517647 1 0.501961 0.517647 
1 0.501961 0.517647 1 0.501961 0.517647 
1 0.501961 0.517647 1 0.501961 0.517647 
1 0.501961 0.517647 1 0.501961 0.517647 
1 0.501961 0.517647 1 0.501961 0.517647 
1 0.501961 0.517647 1 0.501961 0.517647 
1 0.501961 0.517647 1 0.501961 0.517647 
1 0.501961 0.517647 1 0.501961 0.517647 
1 0.501961 0.517647 1 0.501961 0.517647 
1 0.501961 0.517647 1 0.501961 0.517647 
1 0.501961 0.517647 1 0.501961 0.517647 
1 0.501961 0.517647 1 0.501961 0.517647 
1 0.501961 0.517647 1 0.501961 0.517647 
1 0.501961 0.517647 1 0.501961 0.517647 
1 0.501961 0.517647 1 0.501961 0.517647 
1 0.501961 0.517647 1 0.501961 0.517647 
1 0.501961 0.517647 1 0.501961 0.517647 
1 0.501961 0.517647 1 0.501961 0.517647 
1 0.501961 0.517647 1 0.501961 0.517647 
1 0.501961 0.517647 1 0.501961 0.517647 
1 0.501961 0.517647 1 0.501961 0.517647 
1 0.501961 0.517647 1 0.501961 0.517647 
1 0.501961 0.517647 1 0.501961 0.517647 
1 0.501961 0.517647 1 0.501961 0.517647 
1 0.501961 0.517647 1 0.501961 0.517647 
1 0.501961 0.517647 1 0.501961 0.517647 
1 0.501961 0.517647 1 0.501961 0.517647 
1 0.501961 0.517647 1 0.501961 0.517647 
1 0.501961 0.517647 1 0.501961 0.517647 
1 0.501961 0.517647 1 0.501961 0.517647 
1 0.501961 0.517647 1 0.501961 0.517647 
1 0.501961 0.517647 1 0.501961 0.517647 
1 0.501961 0.517647 1 0.501961 0.517647 
1 0.501961 0.517647 1 0.501961 0.517647 
1 0.501961 0.517647 1 0.501961 0.517647 
1 0.501961 0.517647 1 0.501961 0.517647 
1 0.501961 0.517647 1 0.501961 0.517647 
1 0.501961 0.517647 1 0.501961 0.517647 
1 0.501961 0.517647 1 0.501961 0.517647 
1 0.501961 0.517647 1 0.501961 0.517647 
1 0.501961 0.517647 1 0.501961 0.517647 
1 0.501961 0.517647 1 0.501961 0.517647 
1 0.501961 0.517647 1 0.501961 0.517647 
1 0.501961 0.517647 1 0.501961 0.517647 
1 0.501961 0.517647 1 0.501961 0.517647 
1 0.501961 0.517647 1 0.501961 0.517647 
1 0.501961 0.517647 1 0.501961 0.517647 
1 0.501961 0.517647 1 0.501961 0.517647 
1 0.501961 0.517647 1 0.501961 0.517647 
1 0.501961 0.517647 1 0.501961 0.517647 
1 0.501961 0.517647 1 0.501961 0.517647 
1 0.501961 0.517647 1 0.501961 0.517647 
1 0.501961 0.517647 1 0.501961 0.517647 
1 0.501961 0.517647 1 0.501961 0.517647 
1 0.501961 0.517647 1 0.501961 0.517647 
1 0.501961 0.517647 1 0.501961 0.517647 
1 0.501961 0.517647 1 0.501961 0.517647 
1 0.501961 0.517647 1 0.501961 0.517647 
1 0.501961 0.517647 1 0.501961 0.517647 
1 0.501961 0.517647 1 0.501961 0.517647 
1 0.501961 0.517647 1 0.501961 0.517647 
1 0.501961 0.517647 1 0.501961 0.517647 
1 0.501961 0.517647 1 0.501961 0.517647 
1 0.501961 0.517647 1 0.501961 0.517647 
1 0.501961 0.517647 1 0.501961 0.517647 
1 0.501961 0.517647 1 0.501961 0.517647 
1 0.501961 0.517647 1 0.501961 0.517647 
1 0.501961 0.517647 1 0.501961 0.517647 
1 0.501961 0.517647 1 0.501961 0.517647 
1 0.501961 0.517647 1 0.501961 0.517647 
1 0.501961 0.517647 1 0.501961 0.517647 
1 0.501961 0.517647 1 0.501961 0.517647 
1 0.501961 0.517647 1 0.501961 0.517647 
1 0.501961 0.517647 1 0.501961 0.517647 
1 0.501961 0.517647 1 0.501961 0.517647 
1 0.501961 0.517647 1 0.501961 0.517647 
1 0.501961 0.517647 1 0.501961 0.517647 
1 0.501961 0.517647 1 0.501961 0.517647 

NORMALS Normals float
0.122299 -0.584809 -0.801899 -0.091647 -0.363824 -0.926948 0.20815 -0.468802 -0.858428 
0.364849 -0.721948 -0.587942 0.467761 -0.695308 -0.545661 0.204139 -0.259144 -0.944019 
0.530057 -0.637229 -0.559445 0.685482 -0.346545 -0.640328 0.51179 0.160692 -0.843949 
-0.18157 -0.34749 -0.919937 -0.238042 -0.586433 -0.77423 0.475664 -0.726088 -0.496529 
0.4679 -0.781088 -0.413486 -0.272388 0.246986 -0.929948 0.508831 -0.662317 -0.549934 
-0.0104666 -0.0107986 -0.999887 0.175913 0.118611 -0.977234 0.643024 -0.381712 -0.66394 
0.813235 -0.454806 -0.363042 0.0180112 0.191251 -0.981376 0.305616 0.0935318 -0.94755 
0.666411 -0.196225 -0.7193 0.857963 -0.263388 -0.441051 -0.0936987 0.196445 -0.976028 
0.229694 0.343432 -0.910656 0.581332 0.101969 -0.807251 -0.0972615 -0.752237 -0.651674 
0.0344513 -0.725446 -0.687416 0.0737587 -0.860645 -0.503834 0.324804 -0.852967 -0.408595 
0.480622 -0.754891 -0.446252 0.566474 -0.734615 -0.373428 -0.39162 -0.0465394 -0.918949 
0.90908 -0.165407 -0.38238 -0.0276198 0.316713 -0.948119 0.457451 0.366067 -0.810391 
-0.187073 0.636386 -0.748342 0.753796 0.00489199 -0.65709 0.0926286 0.625765 -0.774493 
0.454303 0.497197 -0.739191 -0.351797 -0.585315 -0.73051 -0.206926 -0.848805 -0.48653 
-0.569958 -0.205348 -0.7956 0.375847 -0.821117 -0.429541 0.811043 -0.557304 -0.177824 
0.978637 -0.178863 -0.10138 0.863305 -0.179227 -0.471786 0.647013 0.23002 -0.726955 
0.846926 0.295512 -0.442028 -0.183024 0.797836 -0.574421 0.187014 0.71961 -0.668721 
0.35619 0.679145 -0.641787 0.627033 0.574093 -0.526543 0.546925 -0.799242 -0.249169 
0.668723 -0.739059 -0.0812517 -0.447017 0.426337 -0.786392 0.972219 0.0802777 -0.219874 
-0.182902 0.723375 -0.665789 0.655935 0.511242 -0.555321 0.521514 0.588977 -0.617356 
0.920662 0.13516 -0.366214 0.815298 0.515187 -0.264334 -0.0629698 0.890364 -0.450872 
0.680803 0.709543 -0.181814 -0.165877 -0.838739 -0.518654 -0.589045 -0.611645 -0.528126 
0.33723 -0.931307 -0.137634 0.934545 -0.353898 0.0371672 -0.296111 0.613248 -0.732288 
0.982664 0.132811 0.129357 0.968078 0.248195 -0.034986 -0.335614 0.872745 -0.354513 
0.247751 0.907406 -0.33946 0.377386 0.84791 -0.372329 0.1279 -0.866881 -0.48183 
-0.273831 -0.930906 -0.241725 0.164339 -0.918673 -0.359212 -0.620714 0.326264 -0.712928 
0.404252 0.878304 -0.255269 0.735264 0.674109 0.0704559 -0.224253 0.872846 -0.433416 
-0.123961 -0.964993 -0.231133 -0.18303 -0.95284 -0.242067 -0.61355 -0.718545 -0.327491 
-0.69935 -0.58085 -0.416562 -0.707116 0.139636 -0.693172 -0.691852 0.158743 -0.704373 
0.923658 -0.323285 0.205775 0.905799 -0.0470245 0.42109 -0.504645 0.717345 -0.480364 
0.985643 0.0712387 0.153075 0.9406 0.280588 0.191162 -0.129259 0.989363 -0.0667368 
-0.0385456 -0.980996 -0.190162 -0.721746 -0.352671 -0.595572 0.713059 -0.690932 0.118993 
-0.771057 0.26335 -0.579756 -0.639351 0.496126 -0.587443 0.907215 0.157878 0.389917 
0.844174 0.378067 0.380048 0.785473 0.527521 0.323656 0.169721 0.968301 -0.18327 
0.466236 0.857154 0.218885 -0.0483759 -0.998829 -0.00106564 -0.306994 -0.951379 -0.0251549 
0.310314 -0.939344 -0.146076 -0.708848 -0.392782 -0.585881 -0.806032 -0.384474 -0.449992 
-0.652702 -0.570625 -0.498364 -0.813425 -0.113064 -0.570575 -0.757176 -0.140033 -0.638024 
0.946666 -0.0180131 0.321713 0.908845 0.0830599 0.408781 0.909442 0.230904 0.345831 
0.00373869 0.975804 0.218615 0.150072 0.971156 0.185297 -0.0698307 0.996475 -0.0464951 
-0.146243 0.966357 -0.211582 0.269174 -0.958955 0.0891607 -0.54039 -0.792809 -0.281839 
-0.719556 -0.611161 -0.329729 0.796279 0.316385 0.515597 0.773627 0.356699 0.523706 
-0.178429 -0.982498 0.0534926 0.597821 -0.801469 0.0160512 -0.887057 -0.410449 -0.211334 
-0.85482 0.18334 -0.485457 -0.873248 0.292659 -0.3896 0.873739 -0.152667 0.461815 
0.858136 -0.121982 0.498722 -0.574208 0.797218 -0.186357 0.709598 0.576893 0.404556 
0.125567 0.982417 0.138167 0.351032 0.900098 0.258071 -0.604454 -0.794713 -0.0553781 
0.722873 -0.685321 0.0882657 -0.419313 0.903363 -0.0900671 -0.927864 -0.372194 -0.0232372 
0.826473 -0.516129 0.224841 -0.84301 0.479888 -0.242984 -0.735155 0.633876 -0.240307 
0.879051 -0.123271 0.460514 0.869071 0.203467 0.450906 0.791701 0.408318 0.454406 
-0.113537 0.988657 0.0983175 0.813684 -0.505262 0.287452 0.814056 -0.428705 0.391822 
-0.968376 0.204953 -0.142272 0.893634 -0.215559 0.39364 0.65197 0.550501 0.521424 
0.768204 0.23741 0.594557 -0.506058 -0.842033 0.186777 0.7956 -0.57313 0.196323 
-0.779739 -0.606865 0.154019 -0.901139 0.428397 0.0665111 -0.752818 0.638695 0.159168 
0.771097 0.256041 0.582969 0.537997 0.503394 0.676132 0.462096 0.646645 0.606891 
-0.0494958 -0.971552 -0.231594 -0.919888 -0.29254 0.261203 -0.822833 -0.397671 0.405959 
0.799187 -0.296444 0.522897 -0.989434 -0.0957238 0.108888 0.569635 0.232887 0.788213 
0.319781 0.78073 0.536843 -0.0840714 0.957699 0.275217 -0.416211 -0.909109 0.0169834 
-0.00149694 -0.952891 -0.303309 0.689385 -0.722391 0.0538484 0.803337 -0.541181 0.248543 
0.801653 -0.188478 0.567299 -0.941694 0.147547 0.302395 -0.626059 -0.587154 0.513128 
0.600819 0.111816 0.791527 -0.925156 0.206091 0.318768 0.162185 0.776739 0.608582 
0.339016 -0.921031 -0.191757 0.177639 -0.825692 0.535422 -0.434768 -0.874614 0.214539 
0.759159 -0.45665 0.463841 -0.441034 -0.849769 0.288759 -0.323344 -0.763294 0.559313 
0.784703 -0.61791 -0.0492824 0.839681 -0.365178 0.401972 0.819569 -0.292878 0.492472 
-0.507515 -0.849485 0.144235 0.645028 -0.167061 0.745673 -0.449537 -0.789356 0.418131 
0.773775 -0.133087 0.619323 0.601466 -0.00868836 0.798851 -0.533698 -0.645412 0.546452 
-0.866532 -0.243269 0.435823 -0.740437 -0.185128 0.646127 -0.551501 -0.527164 0.646487 
-0.811698 -0.0692055 0.579963 0.400033 0.481681 0.779716 -0.515594 0.79803 0.311946 
-0.429877 0.860981 0.271877 0.225045 0.662593 0.71437 -0.0616496 0.722644 0.688465 
0.0110714 -0.487922 0.872817 0.453378 -0.182035 0.872532 0.713733 -0.329394 0.61813 
-0.217736 -0.701057 0.679051 -0.00107402 -0.577101 0.816672 -0.029807 -0.555084 0.83126 
-0.381715 -0.759587 0.526612 0.347943 0.000312185 0.937516 -0.666232 -0.392798 0.633912 
-0.840622 0.212993 0.497984 -0.754834 0.475544 0.451755 0.160143 0.487259 0.858448 
-0.599573 0.684079 0.415389 -0.340269 0.713923 0.611989 -0.013863 -0.51777 0.855407 
-0.317362 -0.640526 0.699291 -0.450514 -0.544261 0.707684 0.0231513 -0.221965 0.97478 
0.271209 -0.268065 0.924439 -0.0335303 -0.0981017 0.994611 0.225301 0.134427 0.964971 
-0.499806 -0.36135 0.78716 -0.406773 0.558619 0.722828 0.0659217 0.263048 0.962528 
-0.149753 0.533127 0.832676 -0.140624 -0.570555 0.80913 -0.128821 -0.399625 0.907582 
-0.155597 -0.262043 0.95243 -0.164938 -0.355541 0.919992 -0.330768 -0.489158 0.807042 
-0.0733645 0.0127156 0.997224 -0.665395 0.0199926 0.746224 -0.372777 -0.241515 0.89594 
-0.225373 0.0484275 0.973068 -0.379822 0.290728 0.878187 -0.181914 0.2542 0.949889 
-0.0713452 -0.227718 -0.97111 -0.102455 -0.433649 -0.895238 -0.262503 -0.116616 -0.957859 
-0.355449 -0.438033 -0.825702 0.0942057 -0.0537456 -0.994101 -0.369305 -0.194172 -0.908796 
-0.478914 0.0180139 -0.877677 -0.176215 0.236962 -0.955404 -0.131068 -0.132044 -0.98254 
0.00100924 0.260129 -0.965573 0.078013 -0.519196 -0.851087 -0.270964 -0.54702 -0.792053 
0.0679837 -0.381411 -0.921902 0.388046 -0.119156 -0.913905 -0.273373 -0.580647 -0.766888 
0.0100639 -0.173861 -0.984719 -0.420486 -0.437024 -0.795111 0.125791 -0.0851913 -0.988392 
-0.676492 0.0327234 -0.735722 -0.131706 0.260546 -0.956436 -0.413402 0.514129 -0.751512 
0.0560168 0.303395 -0.951217 -0.189568 -0.680004 -0.708279 -0.00549408 -0.637258 -0.770631 
-0.378718 -0.75395 -0.536779 0.0707033 -0.522581 -0.849653 0.201717 -0.335532 -0.920178 
0.346883 -0.351273 -0.869643 0.296653 0.0924115 -0.950504 0.328155 0.105622 -0.9387 
-0.816814 0.18126 -0.547685 -0.767969 -0.121596 -0.628838 0.24906 0.245166 -0.936943 
-0.690342 0.520775 -0.502217 0.344462 0.349813 -0.871193 -0.278255 0.630624 -0.724491 
-0.241164 0.686503 -0.68597 0.0120315 0.525603 -0.850645 0.146994 -0.656966 -0.739451 
0.338432 -0.93198 -0.129909 -0.164047 -0.56538 -0.808353 -0.469839 -0.830813 -0.29833 
0.394257 -0.307746 -0.865941 0.617512 -0.710736 -0.336947 0.644691 -0.337206 -0.68605 
0.738162 -0.569949 -0.360935 -0.409445 -0.84081 -0.354108 0.820521 -0.314137 -0.477559 
0.746412 -0.295841 -0.596111 0.569971 -0.189904 -0.799418 0.483434 0.0511316 -0.873886 
0.584341 0.186989 -0.789672 0.601145 0.0181809 -0.798933 -0.702349 -0.431516 -0.566127 
-0.833145 0.168202 -0.526856 -0.837163 0.165732 -0.521241 0.351626 0.388832 -0.851568 
-0.0541269 0.752378 -0.656503 -0.246587 -0.967693 -0.052585 0.0454463 -0.987873 0.148467 
0.505217 -0.86187 0.0439929 0.798007 -0.593741 -0.103233 -0.512061 -0.858336 -0.0324508 
0.809357 -0.355192 -0.467739 -0.439932 -0.87436 -0.204826 0.751213 -0.191516 -0.631664 
0.891779 -0.36982 -0.260699 0.891008 -0.274787 -0.361381 -0.468777 -0.788399 -0.39834 
0.526604 0.0792824 -0.846406 -0.851415 -0.29276 -0.435182 -0.902855 0.160343 -0.398927 
0.497478 0.372158 -0.78359 -0.249404 0.901987 -0.352445 0.245368 0.707252 -0.663015 
-0.280021 -0.952893 0.116545 0.113639 -0.948698 0.295058 0.201737 -0.938478 0.280289 
0.843133 -0.503592 -0.188474 -0.54701 -0.782758 -0.296766 -0.766679 -0.424142 -0.481982 
-0.732522 -0.533165 -0.423257 -0.882635 -0.236812 -0.40605 -0.956018 0.136409 -0.259657 
0.675244 0.101379 -0.730594 0.865993 0.0551177 -0.49701 0.821749 0.10987 -0.559158 
-0.806739 0.537003 -0.246577 -0.554718 0.804973 -0.210492 -0.300956 0.94714 -0.111137 
0.423165 0.6137 -0.666561 -0.290591 0.938261 -0.187676 0.173133 0.834782 -0.522651 
-0.0532032 0.917863 -0.393314 -0.298903 -0.950306 0.0870395 -0.425106 -0.898974 -0.105507 
-0.737046 -0.646897 -0.195671 -0.919362 -0.393405 0.00254273 -0.970323 -0.238088 0.0422837 