# vtk DataFile Version 4.2
vtk output
ASCII
DATASET POLYDATA
POINTS 659 float
142.48 161.161 89.6122 142.902 161.253 89.6073 141.683 161.713 89.4764 
143.185 161.541 89.6106 142.906 162.5 89.3871 142.352 162.946 89.3131 
141.083 160.078 90.3652 141.313 159.758 90.636 140.761 160.51 90.1491 
140.323 160.391 90.3144 141.464 160.58 90.0215 143.568 161.398 89.8977 
140.457 161.699 89.8929 144.04 161.713 90.1433 143.912 163.047 89.8972 
141.286 165.509 89.7815 141.696 159.675 90.8109 144.371 161.403 90.5905 
144.011 160.942 90.6163 139.349 161.749 90.4265 145.04 161.601 91.1824 
141.7 169.592 91.257 142.317 169.6 91.1904 138.929 158.46 92.3266 
138.298 158.714 92.2271 141.939 159.224 91.7145 144.199 160.64 91.2068 
145.682 161.504 91.9329 139.867 167.687 91.1502 142.838 170.39 91.8362 
143.152 170.462 91.9349 142.668 170.588 92.1026 139.761 158.476 92.3315 
143.743 159.883 92.1238 146.523 161.974 92.4454 145.5 166.753 91.8096 
144.219 169.934 92.4458 140.905 170.156 92.7049 142.36 170.685 92.6119 
143.316 170.546 92.1397 143.316 170.647 92.3918 135.55 158.16 93.4955 
140.322 158.258 93.0034 135.689 159.564 93.1373 146.451 161.276 93.2597 
136.038 161.603 92.8201 147.574 162.51 93.6654 137.209 166.526 92.9372 
139.171 169.3 93.0604 140.766 170.331 93.2891 144.07 170.502 93.3612 
145.014 170.362 93.565 134.838 155.695 95.0088 135.72 155.591 95.1322 
147.756 163.303 93.7104 138.552 169.42 94.1494 138.647 169.727 94.5094 
139.274 169.925 94.4421 138.809 169.863 94.5609 141.112 170.53 94.0444 
146.05 169.587 94.1032 138.652 169.815 94.6296 145.132 170.323 93.7308 
133.41 153.578 96.6022 133.433 154.405 96.0455 133.658 155.196 95.5901 
148.313 162.424 95.0778 148.553 162.994 95.3414 148.487 163.785 95.3158 
148.363 164.438 95.2873 147.759 166.327 95.0314 135.655 167.195 95.2841 
138.017 169.356 95.1094 145.288 170.31 95.2667 146.591 169.507 95.1017 
146.797 169.266 95.3441 131.385 153.783 96.8011 133.95 153.284 97.0467 
147.138 161.191 95.3171 148.296 162.265 95.3123 148.483 162.618 95.7718 
148.622 163.54 95.5821 148.635 163.371 95.7194 148.307 165.012 95.9522 
148.157 165.5 96.068 146.037 169.962 95.5443 130.89 150.606 98.6505 
135.663 153.962 97.4065 148.107 162.063 95.8369 148.228 162.609 96.3976 
148.401 163.866 96.2984 148.318 164.617 96.3139 147.977 165.63 96.5557 
138.519 169.377 97.2635 147.647 162.497 97.1911 148.045 162.882 96.8391 
133.309 166.316 97.6555 147.14 167.729 97.1417 144.825 169.757 97.2331 
146.158 169.183 97.0975 126.826 148.857 100.082 128.071 149.324 99.5996 
133.818 152.136 98.7327 127.638 153.836 99.0654 131.442 164.614 98.7333 
146.517 165.079 98.9949 131.606 165.175 99.0411 146.564 167.422 98.2367 
146.041 167.662 98.6482 145.762 168.371 98.3931 143.456 169.236 98.6709 
144.589 169.231 98.3387 146.479 168.613 97.4344 145.032 160.456 98.5963 
145.437 161.075 98.8382 131.649 165.839 100.594 134.578 167.554 100.042 
133.719 167.206 99.6752 142.161 168.703 99.6389 125.132 144.626 102.49 
124.721 145.509 101.99 124.469 147.529 101.406 125.702 148.92 100.499 
144.386 162.674 100.814 144.789 165.957 100.332 132.177 166.255 100.877 
132.458 166.346 101.469 144.817 168.141 99.2321 123.075 144.858 102.779 
126.209 145.309 102.334 123.271 148.359 102.058 126.851 160.972 101.867 
134.701 166.941 102.202 140.657 166.414 102.361 121.946 141.99 105.046 
127.931 145.36 103.937 134.158 151.107 103.41 139.353 156.617 103.201 
140.377 162.087 103.987 127.332 163.476 104.705 139.987 164.834 103.644 
132.078 165.636 103.859 120.715 142.461 105.223 135.328 152.342 104.649 
139.143 156.864 103.737 122.534 158.286 105.318 138.961 158.059 104.576 
135.163 165.693 104.641 124.393 141.438 106.243 123.219 159.58 105.498 
132.576 164.718 105.852 136.928 165.044 105.071 117.931 141.022 108.134 
119.938 140.257 108.238 122.123 140.554 107.176 117.744 142.16 107.435 
132.209 149.138 106.32 133.224 150.322 106.382 134.37 151.859 106.364 
135.244 152.738 105.784 124.902 161.483 107.132 135.877 163.604 106.326 
117.064 143.119 107.607 121.847 159.38 108.709 129.112 162.998 107.63 
115.219 142.704 109.29 132.767 151.121 108.19 133.141 150.972 107.559 
133.712 153.573 108.259 132.907 155.717 109.411 134.55 160.45 108.203 
131.531 162.775 108.177 116.24 139.588 110.905 120.18 139.717 110.296 
124.267 140.367 109.582 128.316 143.445 109.209 131.133 149.959 109.705 
132.156 153.727 109.718 121.087 158.854 110.053 121.728 159.302 109.834 
131.726 161.401 109.2 113.988 139.554 111.973 113.516 139.378 112.466 
113.843 140.051 111.535 114.75 139.328 112.028 117.435 139.282 111.875 
122.677 139.974 110.716 126.093 141.304 110.057 113.329 142.059 111.213 
130.409 154.495 111.201 123.329 159.636 110.578 130.679 161.205 109.614 
113.133 139.527 112.502 112.873 139.594 112.691 114.02 139.01 113.11 
112.963 139.772 112.394 118.982 139.423 112.249 112.989 143.074 111.591 
123.859 159.144 111.77 112.653 139.646 113.036 113.104 139.184 113.556 
112.383 140.05 113.041 112.157 140.174 113.514 115.747 139.003 112.949 
126.54 141.813 111.052 111.859 143.219 113.508 127.135 145.083 112.794 
127.619 155.603 113.215 129.131 159.256 111.299 112.565 139.549 114.179 
112.96 139.252 114.033 111.847 140.735 114.079 111.748 141.79 113.731 
125.713 143.413 113.686 119.242 156.926 113.68 113.669 139.165 114.844 
112.041 140.296 114.537 112.034 140.516 114.876 111.718 141.563 114.777 
111.435 143.046 114.907 111.497 143.377 114.914 111.569 144.274 115.064 
111.801 145.461 114.434 122.373 156.724 114.716 112.849 139.596 115.025 
119.217 140.12 116.087 121.576 141.014 115.612 111.459 143.051 115.023 
111.588 142.942 115.298 111.603 144.332 115.57 111.688 144.085 115.865 
111.708 145.722 115.829 111.77 147.185 116.032 111.944 148.661 116.127 
112.243 149.615 115.306 116.053 154.845 115.693 116.965 155.375 115.365 
117.342 155.214 116.107 124.549 155.826 114.84 113.74 139.869 116.219 
112.359 144.755 117.269 111.832 146.101 116.41 111.81 146.992 116.384 
111.958 148.822 117.198 122.859 149.287 117.272 112.897 152.409 116.701 
115.454 154.148 116.72 122.728 154.507 116.359 117.912 155.059 116.666 
120.499 155.192 116.563 121.356 155.177 116.398 124.851 156.687 114.452 
113.506 140.377 116.641 113.352 140.969 116.968 115.638 140.061 117.301 
121.135 142.878 117.763 113.282 143.512 118.069 112.503 146.395 117.879 
112.262 147.756 117.715 112.134 149.453 117.876 112.047 149.924 117.552 
121.929 149.926 118.106 112.247 151.297 117.255 112.547 151.984 117.397 
112.962 152.529 117.078 122.536 153.572 116.94 113.71 153.01 117.554 
114.343 140.343 117.192 116.103 140.377 117.842 117.357 140.745 118.293 
118.766 141.2 118.172 112.426 149.326 118.418 112.491 150.607 118.737 
112.473 150.933 118.626 120.751 152.276 118.564 112.663 151.879 118.22 
115.767 141.105 118.627 116.916 140.834 118.486 115.195 141.497 118.728 
115.844 142.125 119.519 115.307 144.509 119.961 113.977 149.375 120.146 
112.728 151.784 118.447 114.678 152.136 119.795 115.003 152.373 119.744 
116.418 152.78 119.627 117.422 152.804 119.5 116.508 141.834 119.425 
117.163 141.616 119.317 116.745 142.922 119.984 118.293 144.655 120.241 
118.548 148.36 120.575 113.659 150.684 119.818 116.536 151.888 120.374 
117.102 141.747 119.526 117.605 142.985 120.012 115.898 147.665 120.906 
117.561 149.009 120.964 114.634 151.176 120.335 117.262 151.314 120.572 
116.807 147.191 120.928 116.277 149.919 120.994 115.85 151.085 120.732 
116.963 146.139 334.171 116.891 148.074 333.919 116.314 148.165 333.939 
117.609 148.898 333.947 115.577 150.326 334.192 116.759 150.196 333.999 
115.087 151.1 334.551 117.551 141.693 335.66 117.649 141.537 335.827 
117.789 141.776 335.679 117.973 142.841 335.154 117.887 143.745 334.844 
117.308 143.73 334.819 118.453 144.087 334.892 114.428 150.516 334.683 
114.083 150.283 334.854 116.496 141.837 335.718 115.79 141.876 335.844 
118.078 142.335 335.493 116.003 142.105 335.564 115.819 142.054 335.608 
115.83 142.153 335.539 115.843 142.369 335.495 115.381 144.327 335.089 
119.545 144.911 335.267 119.445 150.623 335.16 114.22 152.246 335.679 
115.232 152.467 335.36 118.702 152.75 335.703 115.948 140.924 336.694 
115.715 142.171 335.614 115.363 142.506 335.732 115.008 143.207 335.652 
113.026 147.507 336.115 113.296 148.756 335.564 120.047 148.788 335.3 
112.367 150.568 336.539 112.254 150.688 336.826 112.853 151.106 336.137 
116.828 152.761 335.358 119.114 153.746 336.595 120.279 153.719 336.916 
121.161 142.125 337.494 113.581 142.398 337.096 112.589 146.454 336.933 
111.946 149.243 337.459 112.418 151.669 337.5 113.767 152.927 337.111 
113.572 152.964 337.638 120.87 154.47 337.742 113.917 140.159 338.531 
115.647 139.711 338.552 113.644 140.637 338.2 118.202 139.995 338.291 
113.401 141.26 337.898 112.87 141.547 338.225 112.339 151.524 337.849 
122.779 151.803 337.776 113.082 152.571 338.253 117.946 154.765 337.771 
122.205 154.176 338.113 113.212 139.965 339.297 111.932 141.393 339.625 
111.632 142.558 339.68 112.259 142.562 338.529 111.6 144.183 339.355 
111.678 145.64 339.299 111.74 147.287 339.231 112.791 139.593 340.304 
113.459 139.065 340.871 112.148 140.404 340.012 112.166 140.152 340.343 
111.985 140.567 340.334 111.448 142.753 340.189 111.423 142.948 340.08 
111.479 143.279 340.006 111.67 145.765 339.917 116.471 155.167 339.768 
121.985 156.497 339.947 123.029 157.095 340.641 112.387 139.674 340.967 
113.082 139.14 341.453 113.442 139.019 341.321 112.376 139.807 340.54 
111.893 140.749 340.832 123.934 141.316 340.701 123.667 140.756 341.212 
125.047 141.434 341.565 124.812 141.189 341.583 125.083 141.25 341.843 
125.142 141.875 341.355 111.427 142.951 340.195 111.509 142.839 340.505 
125.588 143.336 341.043 111.831 144.722 341.092 111.866 145.71 340.811 
113.407 151.061 341.216 114.676 153.308 341.25 115.828 154.743 341.337 
121.304 157.249 340.939 112.602 139.525 341.845 112.331 139.779 341.374 
116.633 138.949 341.922 122.669 140.115 341.766 111.795 141.381 341.433 
116.005 154.574 342.426 116.18 155.047 341.645 118.209 156.486 341.467 
[...]
POINT_DATA 659
COLOR_SCALARS scalars 3
0.121569 0.615686 0.352941 0.121569 0.615686 0.352941 0.121569 0.615686 0.352941 
0.121569 0.615686 0.352941 0.121569 0.615686 0.352941 
0.121569 0.615686 0.352941 0.121569 0.615686 0.352941 
0.121569 0.615686 0.352941 0.121569 0.615686 0.352941 
0.121569 0.615686 0.352941 0.121569 0.615686 0.352941 
0.121569 0.615686 0.352941 0.121569 0.615686 0.352941 
0.121569 0.615686 0.352941 0.121569 0.615686 0.352941 
0.121569 0.615686 0.352941 0.121569 0.615686 0.352941 
0.121569 0.615686 0.352941 0.121569 0.615686 0.352941 
0.121569 0.615686 0.352941 0.121569 0.615686 0.352941 
0.121569 0.615686 0.352941 0.121569 0.615686 0.352941 
0.121569 0.615686 0.352941 0.121569 0.615686 0.352941 
0.121569 0.615686 0.352941 0.121569 0.615686 0.352941 
0.121569 0.615686 0.352941 0.121569 0.615686 0.352941 
0.121569 0.615686 0.352941 0.121569 0.615686 0.352941 
0.121569 0.615686 0.352941 0.121569 0.615686 0.352941 
0.121569 0.615686 0.352941 0.121569 0.615686 0.352941 
0.121569 0.615686 0.352941 0.121569 0.615686 0.352941 
0.121569 0.615686 0.352941 0.121569 0.615686 0.352941 
0.121569 0.615686 0.352941 0.121569 0.615686 0.352941 
0.121569 0.615686 0.352941 0.121569 0.615686 0.352941 
0.121569 0.615686 0.352941 0.121569 0.615686 0.352941 
0.121569 0.615686 0.352941 0.121569 0.615686 0.352941 
0.121569 0.615686 0.352941 0.121569 0.615686 0.352941 
0.121569 0.615686 0.352941 0.121569 0.615686 0.352941 
0.121569 0.615686 0.352941 0.121569 0.615686 0.352941 
0.121569 0.615686 0.352941 0.121569 0.615686 0.352941 
0.121569 0.615686 0.352941 0.121569 0.615686 0.352941 
0.121569 0.615686 0.352941 0.121569 0.615686 0.352941 
0.121569 0.615686 0.352941 0.121569 0.615686 0.352941 
0.121569 0.615686 0.352941 0.121569 0.615686 0.352941 
0.121569 0.615686 0.352941 0.121569 0.615686 0.352941 
0.121569 0.615686 0.352941 0.121569 0.615686 0.352941 
0.121569 0.615686 0.352941 0.121569 0.615686 0.352941 
0.121569 0.615686 0.352941 0.121569 0.615686 0.352941 
0.121569 0.615686 0.352941 0.121569 0.615686 0.352941 
0.121569 0.615686 0.352941 0.121569 0.615686 0.352941 
0.121569 0.615686 0.352941 0.121569 0.615686 0.352941 
0.121569 0.615686 0.352941 0.121569 0.615686 0.352941 
0.121569 0.615686 0.352941 0.121569 0.615686 0.352941 
0.121569 0.615686 0.352941 0.121569 0.615686 0.352941 
0.121569 0.615686 0.352941 0.121569 0.615686 0.352941 
0.121569 0.615686 0.352941 0.121569 0.615686 0.352941 
0.121569 0.615686 0.352941 0.121569 0.615686 0.352941 
0.121569 0.615686 0.352941 0.121569 0.615686 0.352941 
0.121569 0.615686 0.352941 0.121569 0.615686 0.352941 
0.121569 0.615686 0.352941 0.121569 0.615686 0.352941 
0.121569 0.615686 0.352941 0.121569 0.615686 0.352941 
0.121569 0.615686 0.352941 0.121569 0.615686 0.352941 
0.121569 0.615686 0.352941 0.121569 0.615686 0.352941 
0.121569 0.615686 0.352941 0.121569 0.615686 0.352941 
0.121569 0.615686 0.352941 0.121569 0.615686 0.352941 
0.121569 0.615686 0.352941 0.121569 0.615686 0.352941 
0.121569 0.615686 0.352941 0.121569 0.615686 0.352941 
0.121569 0.615686 0.352941 0.121569 0.615686 0.352941 
0.121569 0.615686 0.352941 0.121569 0.615686 0.352941 
0.121569 0.615686 0.352941 0.121569 0.615686 0.352941 
0.121569 0.615686 0.352941 0.121569 0.615686 0.352941 
0.121569 0.615686 0.352941 0.121569 0.615686 0.352941 
0.121569 0.615686 0.352941 0.121569 0.615686 0.352941 
0.121569 0.615686 0.352941 0.121569 0.615686 0.352941 
0.121569 0.615686 0.352941 0.121569 0.615686 0.352941 
0.121569 0.615686 0.352941 0.121569 0.615686 0.352941 
0.121569 0.615686 0.352941 0.121569 0.615686 0.352941 
0.121569 0.615686 0.352941 0.121569 0.615686 0.352941 
0.121569 0.615686 0.352941 0.121569 0.615686 0.352941 
0.121569 0.615686 0.352941 0.121569 0.615686 0.352941 
0.121569 0.615686 0.352941 0.121569 0.615686 0.352941 
0.121569 0.615686 0.352941 0.121569 0.615686 0.352941 
0.121569 0.615686 0.352941 0.121569 0.615686 0.352941 
0.121569 0.615686 0.352941 0.121569 0.615686 0.352941 
0.121569 0.615686 0.352941 0.121569 0.615686 0.352941 
0.121569 0.615686 0.352941 0.121569 0.615686 0.352941 
0.121569 0.615686 0.352941 0.121569 0.615686 0.352941 
0.121569 0.615686 0.352941 0.121569 0.615686 0.352941 
0.121569 0.615686 0.352941 0.121569 0.615686 0.352941 
0.121569 0.615686 0.352941 0.121569 0.615686 0.352941 
0.121569 0.615686 0.352941 0.121569 0.615686 0.352941 
0.121569 0.615686 0.352941 0.121569 0.615686 0.352941 
0.121569 0.615686 0.352941 0.121569 0.615686 0.352941 
0.121569 0.615686 0.352941 0.121569 0.615686 0.352941 
0.121569 0.615686 0.352941 0.121569 0.615686 0.352941 
0.121569 0.615686 0.352941 0.121569 0.615686 0.352941 
0.121569 0.615686 0.352941 0.121569 0.615686 0.352941 
0.121569 0.615686 0.352941 0.121569 0.615686 0.352941 
0.121569 0.615686 0.352941 0.121569 0.615686 0.352941 
0.121569 0.615686 0.352941 0.121569 0.615686 0.352941 
0.121569 0.615686 0.352941 0.121569 0.615686 0.352941 
0.121569 0.615686 0.352941 0.121569 0.615686 0.352941 
0.121569 0.615686 0.352941 0.121569 0.615686 0.352941 
0.121569 0.615686 0.352941 0.121569 0.615686 0.352941 
0.121569 0.615686 0.352941 0.121569 0.615686 0.352941 
0.121569 0.615686 0.352941 0.121569 0.615686 0.352941 
0.121569 0.615686 0.352941 0.121569 0.615686 0.352941 
0.121569 0.615686 0.352941 0.121569 0.615686 0.352941 
0.121569 0.615686 0.352941 0.121569 0.615686 0.352941 
0.121569 0.615686 0.352941 0.121569 0.615686 0.352941 
0.121569 0.615686 0.352941 0.121569 0.615686 0.352941 
0.121569 0.615686 0.352941 0.121569 0.615686 0.352941 
0.121569 0.615686 0.352941 0.121569 0.615686 0.352941 
0.121569 0.615686 0.352941 0.121569 0.615686 0.352941 
0.121569 0.615686 0.352941 0.121569 0.615686 0.352941 
0.121569 0.615686 0.352941 0.121569 0.615686 0.352941 
0.121569 0.615686 0.352941 0.121569 0.615686 0.352941 
0.121569 0.615686 0.352941 0.121569 0.615686 0.352941 
0.121569 0.615686 0.352941 0.121569 0.615686 0.352941 
0.121569 0.615686 0.352941 0.121569 0.615686 0.352941 
0.121569 0.615686 0.352941 0.121569 0.615686 0.352941 
0.121569 0.615686 0.352941 0.121569 0.615686 0.352941 
0.121569 0.615686 0.352941 0.121569 0.615686 0.352941 
0.121569 0.615686 0.352941 0.121569 0.615686 0.352941 
0.121569 0.615686 0.352941 0.121569 0.615686 0.352941 
0.121569 0.615686 0.352941 0.121569 0.615686 0.352941 
0.121569 0.615686 0.352941 0.121569 0.615686 0.352941 
0.121569 0.615686 0.352941 0.121569 0.615686 0.352941 
0.121569 0.615686 0.352941 0.121569 0.615686 0.352941 
0.121569 0.615686 0.352941 0.121569 0.615686 0.352941 
0.121569 0.615686 0.352941 0.121569 0.615686 0.352941 
0.121569 0.615686 0.352941 0.121569 0.615686 0.352941 
0.121569 0.615686 0.352941 0.121569 0.615686 0.352941 
0.121569 0.615686 0.352941 0.121569 0.615686 0.352941 
0.121569 0.615686 0.352941 0.121569 0.615686 0.352941 
0.121569 0.615686 0.352941 0.121569 0.615686 0.352941 
0.121569 0.615686 0.352941 0.121569 0.615686 0.352941 
0.121569 0.615686 0.352941 0.121569 0.615686 0.352941 
0.121569 0.615686 0.352941 0.121569 0.615686 0.352941 
0.121569 0.615686 0.352941 0.121569 0.615686 0.352941 
0.121569 0.615686 0.352941 0.121569 0.615686 0.352941 
0.121569 0.615686 0.352941 0.121569 0.615686 0.352941 
0.121569 0.615686 0.352941 0.121569 0.615686 0.352941 
0.121569 0.615686 0.352941 0.121569 0.615686 0.352941 
0.121569 0.615686 0.352941 0.121569 0.615686 0.352941 
0.121569 0.615686 0.352941 0.121569 0.615686 0.352941 
0.121569 0.615686 0.352941 0.121569 0.615686 0.352941 
0.121569 0.615686 0.352941 0.121569 0.615686 0.352941 
0.121569 0.615686 0.352941 0.121569 0.615686 0.352941 
0.121569 0.615686 0.352941 0.121569 0.615686 0.352941 
0.121569 0.615686 0.352941 0.121569 0.615686 0.352941 
0.121569 0.615686 0.352941 0.121569 0.615686 0.352941 
0.121569 0.615686 0.352941 0.121569 0.615686 0.352941 
0.121569 0.615686 0.352941 0.121569 0.615686 0.352941 
0.121569 0.615686 0.352941 0.121569 0.615686 0.352941 
0.121569 0.615686 0.352941 0.121569 0.615686 0.352941 
0.121569 0.615686 0.352941 0.121569 0.615686 0.352941 
0.121569 0.615686 0.352941 0.121569 0.615686 0.352941 
0.121569 0.615686 0.352941 0.121569 0.615686 0.352941 
0.121569 0.615686 0.352941 0.121569 0.615686 0.352941 
0.121569 0.615686 0.352941 0.121569 0.615686 0.352941 
0.121569 0.615686 0.352941 0.121569 0.615686 0.352941 
0.121569 0.615686 0.352941 0.121569 0.615686 0.352941 
0.121569 0.615686 0.352941 0.121569 0.615686 0.352941 
0.121569 0.615686 0.352941 0.121569 0.615686 0.352941 
0.121569 0.615686 0.352941 0.121569 0.615686 0.352941 
0.121569 0.615686 0.352941 0.121569 0.615686 0.352941 
0.121569 0.615686 0.352941 0.121569 0.615686 0.352941 
0.121569 0.615686 0.352941 0.121569 0.615686 0.352941 
0.121569 0.615686 0.352941 0.121569 0.615686 0.352941 
0.121569 0.615686 0.352941 0.121569 0.615686 0.352941 
0.121569 0.615686 0.352941 0.121569 0.615686 0.352941 
0.121569 0.615686 0.352941 0.121569 0.615686 0.352941 
0.121569 0.615686 0.352941 0.121569 0.615686 0.352941 
0.121569 0.615686 0.352941 0.121569 0.615686 0.352941 
0.121569 0.615686 0.352941 0.121569 0.615686 0.352941 
0.121569 0.615686 0.352941 0.121569 0.615686 0.352941 
0.121569 0.615686 0.352941 0.121569 0.615686 0.352941 
0.121569 0.615686 0.352941 0.121569 0.615686 0.352941 
0.121569 0.615686 0.352941 0.121569 0.615686 0.352941 
0.121569 0.615686 0.352941 0.121569 0.615686 0.352941 
0.121569 0.615686 0.352941 0.121569 0.615686 0.352941 
0.121569 0.615686 0.352941 0.121569 0.615686 0.352941 
0.121569 0.615686 0.352941 0.121569 0.615686 0.352941 
0.121569 0.615686 0.352941 0.121569 0.615686 0.352941 
0.121569 0.615686 0.352941 0.121569 0.615686 0.352941 
0.121569 0.615686 0.352941 0.121569 0.615686 0.352941 
0.121569 0.615686 0.352941 0.121569 0.615686 0.352941 
0.121569 0.615686 0.352941 0.121569 0.615686 0.352941 
0.121569 0.615686 0.352941 0.121569 0.615686 0.352941 
0.121569 0.615686 0.352941 0.121569 0.615686 0.352941 
0.121569 0.615686 0.352941 0.121569 0.615686 0.352941 
0.121569 0.615686 0.352941 0.121569 0.615686 0.352941 
0.121569 0.615686 0.352941 0.121569 0.615686 0.352941 
0.121569 0.615686 0.352941 0.121569 0.615686 0.352941 
0.121569 0.615686 0.352941 0.121569 0.615686 0.352941 
0.121569 0.615686 0.352941 0.121569 0.615686 0.352941 
0.121569 0.615686 0.352941 0.121569 0.615686 0.352941 
0.121569 0.615686 0.352941 0.121569 0.615686 0.352941 
0.121569 0.615686 0.352941 0.121569 0.615686 0.352941 
0.121569 0.615686 0.352941 0.121569 0.615686 0.352941 
0.121569 0.615686 0.352941 0.121569 0.615686 0.352941 
0.121569 0.615686 0.352941 0.121569 0.615686 0.352941 
0.121569 0.615686 0.352941 0.121569 0.615686 0.352941 
0.121569 0.615686 0.352941 0.121569 0.615686 0.352941 
0.121569 0.615686 0.352941 0.121569 0.615686 0.352941 
0.121569 0.615686 0.352941 0.121569 0.615686 0.352941 
0.121569 0.615686 0.352941 0.121569 0.615686 0.352941 
0.121569 0.615686 0.352941 0.121569 0.615686 0.352941 
0.121569 0.615686 0.352941 0.121569 0.615686 0.352941 
0.121569 0.615686 0.352941 0.121569 0.615686 0.352941 
0.121569 0.615686 0.352941 0.121569 0.615686 0.352941 
0.121569 0.615686 0.352941 0.121569 0.615686 0.352941 
0.121569 0.615686 0.352941 0.121569 0.615686 0.352941 
0.121569 0.615686 0.352941 0.121569 0.615686 0.352941 
0.121569 0.615686 0.352941 0.121569 0.615686 0.352941 
0.121569 0.615686 0.352941 0.121569 0.615686 0.352941 
0.121569 0.615686 0.352941 0.121569 0.615686 0.352941 
0.121569 0.615686 0.352941 0.121569 0.615686 0.352941 
0.121569 0.615686 0.352941 0.121569 0.615686 0.352941 
0.121569 0.615686 0.352941 0.121569 0.615686 0.352941 
0.121569 0.615686 0.352941 0.121569 0.615686 0.352941 
0.121569 0.615686 0.352941 0.121569 0.615686 0.352941 
0.121569 0.615686 0.352941 0.121569 0.615686 0.352941 
0.121569 0.615686 0.352941 0.121569 0.615686 0.352941 
0.121569 0.615686 0.352941 0.121569 0.615686 0.352941 
0.121569 0.615686 0.352941 0.121569 0.615686 0.352941 
0.121569 0.615686 0.352941 0.121569 0.615686 0.352941 
0.121569 0.615686 0.352941 0.121569 0.615686 0.352941 
0.121569 0.615686 0.352941 0.121569 0.615686 0.352941 
0.121569 0.615686 0.352941 0.121569 0.615686 0.352941 
0.121569 0.615686 0.352941 0.121569 0.615686 0.352941 
0.121569 0.615686 0.352941 0.121569 0.615686 0.352941 
0.121569 0.615686 0.352941 0.121569 0.615686 0.352941 
0.121569 0.615686 0.352941 0.121569 0.615686 0.352941 
0.121569 0.615686 0.352941 0.121569 0.615686 0.352941 
0.121569 0.615686 0.352941 0.121569 0.615686 0.352941 
0.121569 0.615686 0.352941 0.121569 0.615686 0.352941 
0.121569 0.615686 0.352941 0.121569 0.615686 0.352941 
0.121569 0.615686 0.352941 0.121569 0.615686 0.352941 
0.121569 0.615686 0.352941 0.121569 0.615686 0.352941 
0.121569 0.615686 0.352941 0.121569 0.615686 0.352941 
0.121569 0.615686 0.352941 0.121569 0.615686 0.352941 
0.121569 0.615686 0.352941 0.121569 0.615686 0.352941 
0.121569 0.615686 0.352941 0.121569 0.615686 0.352941 
0.121569 0.615686 0.352941 0.121569 0.615686 0.352941 
0.121569 0.615686 0.352941 0.121569 0.615686 0.352941 
0.121569 0.615686 0.352941 0.121569 0.615686 0.352941 
0.121569 0.615686 0.352941 0.121569 0.615686 0.352941 
0.121569 0.615686 0.352941 0.121569 0.615686 0.352941 
0.121569 0.615686 0.352941 0.121569 0.615686 0.352941 
0.121569 0.615686 0.352941 0.121569 0.615686 0.352941 
0.121569 0.615686 0.352941 0.121569 0.615686 0.352941 
0.121569 0.615686 0.352941 0.121569 0.615686 0.352941 
0.121569 0.615686 0.352941 0.121569 0.615686 0.352941 
0.121569 0.615686 0.352941 0.121569 0.615686 0.352941 
0.121569 0.615686 0.352941 0.121569 0.615686 0.352941 
0.121569 0.615686 0.352941 0.121569 0.615686 0.352941 
0.121569 0.615686 0.352941 0.121569 0.615686 0.352941 
0.121569 0.615686 0.352941 0.121569 0.615686 0.352941 
0.121569 0.615686 0.352941 0.121569 0.615686 0.352941 
0.121569 0.615686 0.352941 0.121569 0.615686 0.352941 
0.121569 0.615686 0.352941 0.121569 0.615686 0.352941 
0.121569 0.615686 0.352941 0.121569 0.615686 0.352941 
0.121569 0.615686 0.352941 0.121569 0.615686 0.352941 
0.121569 0.615686 0.352941 0.121569 0.615686 0.352941 
0.121569 0.615686 0.352941 0.121569 0.615686 0.352941 
0.121569 0.615686 0.352941 0.121569 0.615686 0.352941 
0.121569 0.615686 0.352941 0.121569 0.615686 0.352941 
0.121569 0.615686 0.352941 0.121569 0.615686 0.352941 
0.121569 0.615686 0.352941 0.121569 0.615686 0.352941 
0.121569 0.615686 0.352941 0.121569 0.615686 0.352941 
0.121569 0.615686 0.352941 0.121569 0.615686 0.352941 
0.121569 0.615686 0.352941 0.121569 0.615686 0.352941 
0.121569 0.615686 0.352941 0.121569 0.615686 0.352941 
0.121569 0.615686 0.352941 0.121569 0.615686 0.352941 
0.121569 0.615686 0.352941 0.121569 0.615686 0.352941 
0.121569 0.615686 0.352941 0.121569 0.615686 0.352941 
0.121569 0.615686 0.352941 0.121569 0.615686 0.352941 
0.121569 0.615686 0.352941 0.121569 0.615686 0.352941 
0.121569 0.615686 0.352941 0.121569 0.615686 0.352941 
0.121569 0.615686 0.352941 0.121569 0.615686 0.352941 
0.121569 0.615686 0.352941 0.121569 0.615686 0.352941 
0.121569 0.615686 0.352941 0.121569 0.615686 0.352941 
0.121569 0.615686 0.352941 0.121569 0.615686 0.352941 
0.121569 0.615686 0.352941 0.121569 0.615686 0.352941 
0.121569 0.615686 0.352941 0.121569 0.615686 0.352941 
0.121569 0.615686 0.352941 0.121569 0.615686 0.352941 
0.121569 0.615686 0.352941 0.121569 0.615686 0.352941 
0.121569 0.615686 0.352941 0.121569 0.615686 0.352941 
0.121569 0.615686 0.352941 0.121569 0.615686 0.352941 
0.121569 0.615686 0.352941 0.121569 0.615686 0.352941 
0.121569 0.615686 0.352941 0.121569 0.615686 0.352941 
0.121569 0.615686 0.352941 0.121569 0.615686 0.352941 
0.121569 0.615686 0.352941 0.121569 0.615686 0.352941 
0.121569 0.615686 0.352941 0.121569 0.615686 0.352941 
0.121569 0.615686 0.352941 0.121569 0.615686 0.352941 
0.121569 0.615686 0.352941 0.121569 0.615686 0.352941 
0.121569 0.615686 0.352941 0.121569 0.615686 0.352941 
0.121569 0.615686 0.352941 0.121569 0.615686 0.352941 
0.121569 0.615686 0.352941 0.121569 0.615686 0.352941 
0.121569 0.615686 0.352941 0.121569 0.615686 0.352941 
0.121569 0.615686 0.352941 0.121569 0.615686 0.352941 
0.121569 0.615686 0.352941 0.121569 0.615686 0.352941 
0.121569 0.615686 0.352941 0.121569 0.615686 0.352941 
0.121569 0.615686 0.352941 0.121569 0.615686 0.352941 
0.121569 0.615686 0.352941 0.121569 0.615686 0.352941 
0.121569 0.615686 0.352941 0.121569 0.615686 0.352941 
0.121569 0.615686 0.352941 0.121569 0.615686 0.352941 
0.121569 0.615686 0.352941 0.121569 0.615686 0.352941 
0.121569 0.615686 0.352941 0.121569 0.615686 0.352941 
0.121569 0.615686 0.352941 0.121569 0.615686 0.352941 
0.121569 0.615686 0.352941 0.121569 0.615686 0.352941 
0.121569 0.615686 0.352941 0.121569 0.615686 0.352941 
0.121569 0.615686 0.352941 0.121569 0.615686 0.352941 
0.121569 0.615686 0.352941 0.121569 0.615686 0.352941 
0.121569 0.615686 0.352941 0.121569 0.615686 0.352941 
0.121569 0.615686 0.352941 0.121569 0.615686 0.352941 
0.121569 0.615686 0.352941 0.121569 0.615686 0.352941 
0.121569 0.615686 0.352941 0.121569 0.615686 0.352941 
0.121569 0.615686 0.352941 0.121569 0.615686 0.352941 
0.121569 0.615686 0.352941 0.121569 0.615686 0.352941 
0.121569 0.615686 0.352941 0.121569 0.615686 0.352941 
0.121569 0.615686 0.352941 0.121569 0.615686 0.352941 
0.121569 0.615686 0.352941 0.121569 0.615686 0.352941 
0.121569 0.615686 0.352941 0.121569 0.615686 0.352941 
0.121569 0.615686 0.352941 0.121569 0.615686 0.352941 
0.121569 0.615686 0.352941 0.121569 0.615686 0.352941 
0.121569 0.615686 0.352941 0.121569 0.615686 0.352941 
0.121569 0.615686 0.352941 0.121569 0.615686 0.352941 
0.121569 0.615686 0.352941 0.121569 0.615686 0.352941 
0.121569 0.615686 0.352941 0.121569 0.615686 0.352941 
0.121569 0.615686 0.352941 0.121569 0.615686 0.352941 
0.121569 0.615686 0.352941 0.121569 0.615686 0.352941 
0.121569 0.615686 0.352941 0.121569 0.615686 0.352941 
0.121569 0.615686 0.352941 0.121569 0.615686 0.352941 
0.121569 0.615686 0.352941 0.121569 0.615686 0.352941 
0.121569 0.615686 0.352941 0.121569 0.615686 0.352941 
0.121569 0.615686 0.352941 0.121569 0.615686 0.352941 
0.121569 0.615686 0.352941 0.121569 0.615686 0.352941 
0.121569 0.615686 0.352941 0.121569 0.615686 0.352941 
0.121569 0.615686 0.352941 0.121569 0.615686 0.352941 

NORMALS Normals float
0.025796 -0.493229 -0.869517 0.279185 -0.575724 -0.768503 -0.142261 -0.176474 -0.973971 
0.41997 -0.208856 -0.883179 0.287407 -0.0607097 -0.955883 0.0921543 0.119105 -0.988596 
-0.0244998 -0.595934 -0.802659 -0.0079519 -0.760408 -0.649397 -0.236514 -0.352838 -0.905299 
-0.263445 -0.538747 -0.800217 -0.0812145 -0.478579 -0.874281 0.531757 -0.291639 -0.795099 
-0.33197 -0.162808 -0.929134 0.633482 -0.263841 -0.727384 0.575278 0.0610034 -0.81568 
-0.0493178 0.218394 -0.974614 0.185872 -0.699213 -0.690329 0.683806 -0.358237 -0.63567 
0.508426 -0.596484 -0.621055 -0.503365 -0.0686793 -0.86134 0.652602 -0.549844 -0.521328 
-0.339433 0.635994 -0.693034 0.0594248 0.528829 -0.846646 0.0020924 -0.723648 -0.690166 
-0.266611 -0.454769 -0.849767 0.268531 -0.8531 -0.447338 0.528171 -0.712002 -0.462697 
0.64142 -0.191656 -0.742865 -0.537198 0.340567 -0.771643 -0.0376021 0.708774 -0.704433 
0.308768 0.614836 -0.725699 -0.116499 0.846278 -0.519848 0.0152408 -0.774011 -0.632989 
0.480974 -0.81459 -0.324203 0.695111 -0.207917 -0.68818 0.665362 0.260489 -0.699599 
0.543679 0.58917 -0.597739 -0.319764 0.866682 -0.3829 -0.144362 0.977042 -0.156678 
0.450369 0.773469 -0.445997 0.14408 0.958575 -0.245713 -0.444548 -0.409815 -0.79651 
0.278462 -0.901058 -0.332495 -0.731725 -0.119132 -0.671108 0.589117 -0.721384 -0.364071 
-0.781851 0.139168 -0.607735 0.815348 -0.361026 -0.452624 -0.670726 0.361457 -0.647669 
-0.610261 0.616868 -0.497046 -0.31672 0.908228 -0.273516 0.296269 0.938877 -0.175315 
0.496784 0.777656 -0.385301 -0.206656 -0.414654 -0.886203 0.0986509 -0.678003 -0.72841 
0.757964 0.132143 -0.638771 -0.63992 0.597042 -0.48378 -0.502904 0.681973 -0.531037 
-0.307415 0.937605 -0.162458 -0.287385 0.921798 -0.260187 -0.145106 0.988903 0.0318563 