# vtk DataFile Version 4.2
vtk output
ASCII
DATASET POLYDATA
POINTS 1340 float
166.532 106.771 111.475 166.568 106.545 111.469 166.76 106.877 111.479 
167.04 106.774 111.522 166.31 107.183 111.663 168.593 105.097 111.965 
168.322 104.71 112.063 166.69 105.686 111.739 168.453 105.631 111.836 
166.151 106.012 111.768 167.19 106.365 111.582 168.475 106.044 111.818 
165.683 106.34 111.944 165.721 107.324 112.055 168.852 103.547 112.661 
167.548 104.27 112.287 169.507 104.512 112.434 169.462 105.125 112.267 
165.752 108.213 112.54 165.478 108.4 112.868 169.144 108.056 112.529 
167.116 109.421 112.852 168.516 110.401 113.292 168.467 110.567 113.375 
168.708 110.571 113.465 168.268 110.764 113.565 163.855 105.248 113.615 
164.831 108.463 113.539 168.507 109.934 113.154 167.337 110.552 113.672 
168.661 111.098 113.85 171.475 100.341 114.843 162.659 105.118 114.866 
162.782 105.638 114.541 162.905 105.845 114.478 163.402 106.095 113.998 
163.938 107.389 113.818 166.624 110.752 114.327 168.212 112.324 114.968 
169.272 112.168 114.808 168.802 112.829 115.334 173.374 99.5031 115.862 
162.268 104.838 115.4 162.411 105.478 115.412 165.463 109.816 114.477 
171.318 110.644 115.011 167.684 112.525 115.544 170.432 112.411 115.552 
169.215 113.233 115.872 169.118 113.384 116.109 169.435 113.305 116.078 
173.309 97.9301 116.615 171.964 98.1011 116.306 168.167 99.6165 115.902 
173.61 107.05 115.96 162.743 107.132 116.07 172.789 109.618 116.107 
168.024 113.157 116.608 171.012 112.198 116.161 168.529 113.383 116.812 
168.976 113.472 116.54 170.271 112.839 116.077 169.208 113.445 116.344 
175.358 99.9064 117.135 162.33 106.686 116.96 172.656 110.453 117.041 
170.357 112.861 116.526 170.419 112.862 116.96 167.988 113.291 117.528 
168.348 113.472 117.434 169.229 113.426 116.73 168.46 113.515 117.664 
174.048 95.8217 118.266 175.424 95.9839 118.545 173.542 95.8732 118.186 
172.883 110.351 117.892 172.442 110.91 118.343 166.854 112.557 118.38 
170.133 112.891 117.835 170.533 112.414 118.197 167.273 112.855 118.556 
169.587 113.212 117.784 167.792 113.177 118.274 168.215 113.376 118.187 
168.426 113.473 117.937 160.946 103.318 119.123 165.03 110.762 119.058 
172.096 111.014 119.136 167.342 112.821 118.975 168.545 113.364 118.248 
177.004 93.3365 120.675 177.679 93.7741 120.674 172.25 94.6927 119.678 
178.075 94.7416 120.512 160.658 100.094 120.323 177.043 104.699 120.308 
176.27 106.094 120.503 175.957 106.551 120.312 166.339 111.989 119.429 
166.516 111.942 119.979 169.191 112.789 119.143 167.414 112.65 119.46 
168.059 113.043 119.094 178.429 93.5736 121.245 158.684 99.7825 122.026 
175.73 106.869 121.073 176.806 105.559 121.666 166.721 111.731 120.744 
168.235 112.92 119.348 179.761 98.3319 121.826 157.983 100.977 122.795 
179.533 100.836 122.119 175.483 107.021 121.482 175.149 107.197 121.914 
178.604 90.1493 123.827 179.67 90.4697 124.219 174.091 91.3072 123.034 
179.735 101.687 123.213 158.43 102.301 122.959 165.744 110.412 123.099 
169.211 110.714 122.648 166.474 110.833 122.568 167.244 111.001 122.558 
168.421 111.046 122.439 178.005 89.7129 124.146 179.585 89.8059 124.739 
177.068 89.9273 123.911 180.37 90.8289 124.747 180.616 100.552 124.293 
158.004 102.41 123.832 165.763 110.178 123.947 167.927 110.391 123.689 
179.521 89.261 125.307 179.927 89.3491 125.557 178.386 88.902 125.354 
180.225 89.7013 125.59 181.702 96.7099 125.433 156.178 101.008 125.191 
180.852 100.472 125.022 158.036 103.175 124.833 179.29 102.517 124.571 
162.817 108.536 124.859 163.375 108.921 124.697 168.289 109.558 124.967 
167.608 109.874 124.799 167.955 109.736 124.883 166.925 110.123 124.462 
178.932 88.4218 126.165 177.491 88.5 125.956 181.859 98.8231 126.488 
181.598 99.5443 126.294 180.914 100.453 126.29 171.501 106.691 126.721 
161.535 107.607 125.515 164.906 109.602 125.394 179.565 87.7858 127.674 
153.126 96.8014 128.035 180.445 88.0969 128.365 151.419 97.6851 128.924 
179.782 100.962 128.056 179.379 86.8019 128.887 160.164 93.0983 128.43 
182.209 93.5671 128.913 182.005 97.4144 129.459 152.029 99.4882 129.171 
152.958 100.436 129.175 164.698 109.05 128.302 161.706 109.037 129.198 
179.239 85.5704 130.379 149.369 97.0385 130.752 150.554 96.1708 130.292 
149.461 97.266 130.686 149.712 97.5522 130.503 150.906 98.5671 129.742 
151.209 99.3533 130.129 185.866 82.8331 132.298 186.305 82.184 132.519 
186.787 82.1933 132.524 186.189 82.9283 132.251 186.376 83.1462 132.277 
187.008 82.417 132.479 186.949 82.7363 132.399 187.202 83.0199 132.518 
176.903 85.6119 130.53 181.811 86.3885 131.035 181.471 87.7334 130.111 
149.109 97.0517 131.136 149.213 97.244 131.063 149.207 97.4326 131.501 
149.664 98.2635 131.274 151.091 99.6463 130.791 152.862 101.145 130.773 
152.615 101.149 131.37 177.98 100.574 131.146 162.191 109.014 130.657 
186.717 81.8225 132.793 187.239 81.7825 132.95 181.277 83.5372 132.431 
183.949 84.3997 132.218 187.105 83.4725 132.571 182.462 85.531 131.655 
155.262 92.8679 131.539 149.808 95.5842 131.625 148.925 96.2078 132.018 
148.899 96.0812 132.245 148.825 96.2147 132.119 149.257 96.086 131.729 
148.845 96.3228 132.049 148.997 96.616 131.898 150.334 99.376 132.184 
154.512 102.908 132.112 172.525 102.614 132.284 159.926 108.343 131.818 
187.907 80.6585 134.265 188.428 80.8525 134.294 185.743 81.6449 132.99 
188.676 81.1631 134.211 189.023 81.4054 134.455 183.01 82.2327 133.203 
188.983 83.0334 133.707 187.545 84.5064 133.135 149.127 95.7444 132.46 
149.056 95.7403 132.81 148.849 96.269 132.181 148.937 96.1317 132.611 
152.567 101.42 132.965 173.481 100.925 133.287 159.582 108.268 132.338 
159.621 108.323 132.556 187.912 80.3209 134.709 188.755 80.6823 134.873 
189.052 81.0616 134.924 185.104 87.5545 133.395 189.434 85.7156 134.793 
167.314 87.6112 133.044 150.159 94.2302 133.535 184.092 93.5097 134.38 
172.199 97.5336 135.526 172.601 97.2084 135.725 149.014 97.0676 133.356 
172.039 97.6869 135.497 173.237 97.592 135.463 171.892 99.0525 135.085 
174.289 98.4703 135.053 173.788 99.6315 134.117 174.505 99.1887 134.398 
156.778 105.728 133.499 163.087 107.613 133.585 158.747 107.597 134.084 
160.146 108.207 133.434 187.322 80.0169 135.165 188.303 80.2145 135.542 
188.603 80.335 135.654 189.273 81.2017 135.633 190.123 82.5584 135.221 
190.198 82.8771 134.996 190.413 83.2107 135.093 190.273 84.8835 135.104 
190.6 85.012 135.562 190.189 85.3803 135.21 190.71 85.3351 135.931 
190.599 85.6553 135.864 172.114 96.8897 136.149 172.75 97.1326 135.812 
172.956 97.136 135.914 183.089 95.4764 135.092 171.112 97.6938 136.301 
149.88 98.5188 134.499 171.63 101.391 134.207 171.15 101.37 134.653 
169.636 102.673 135.113 158.138 107.188 135.203 158.682 107.563 134.868 
158.448 107.445 135.14 187.003 79.8404 136.263 186.644 79.8264 135.758 
184.825 79.998 135.65 189 80.776 136.31 190.461 83.1714 135.747 
190.741 84.3984 135.809 190.811 84.6078 136.181 190.772 85.4614 136.252 
188.915 86.8744 135.545 189.124 87.1442 136.209 190.23 86.358 136.338 
185.576 89.9719 134.957 151.926 91.9893 135.285 171.388 96.7131 136.853 
171.594 96.529 137.05 172.274 96.5666 136.683 172.39 96.6736 136.463 
171.343 96.9794 136.565 173.282 97.2053 136.043 173.503 97.1463 136.456 
149.582 97.1515 135.455 174.646 97.7973 136.179 176.939 98.5439 135.484 
170.113 101.334 135.769 168.02 103.537 135.902 161.172 107.526 135.327 
159.023 107.426 135.8 158.415 107.357 135.48 188.584 80.8975 137.37 
189.343 81.4261 136.788 190.511 83.5268 136.241 190.746 84.8422 136.888 
189.081 87.6347 137.188 186.616 90.5814 136.965 151.022 91.8574 137.105 
185.625 92.653 137.326 171.419 96.407 137.631 172.255 96.4673 137.089 
170.939 96.7602 137.427 169.861 98.5963 137.527 169.582 101.401 136.337 
162.958 106.184 136.624 185.711 79.5151 138.072 187.569 80.3611 138.109 
189.072 81.4178 137.41 190.638 85.6455 137.019 190.331 86.2691 137.193 
151.339 91.2632 137.866 150.985 91.7807 137.594 186.815 91.0018 138.216 
150.434 93.0995 137.747 185.793 92.6278 137.758 185.677 92.8169 137.68 
185.738 92.7819 137.809 150.252 94.0121 137.861 185.412 93.082 137.722 
150.13 94.9565 137.696 171.055 96.5598 137.677 170.71 96.7706 137.905 
171.752 96.3023 137.824 184.915 93.5626 138.029 169.779 97.3578 138.568 
157.489 105.852 137.361 159.872 106.849 137.386 159.596 106.883 137.373 
185.767 79.4076 138.585 185.634 79.4197 138.509 185.863 79.4588 138.607 
185.117 79.4542 138.665 186.112 79.669 138.624 189.453 87.405 138.223 
153.388 89.2459 139.154 152.157 90.1379 138.726 185.699 92.7558 138.01 
170.42 96.7023 138.672 169.936 97.0473 138.785 153.296 100.1 138.575 
161.029 105.913 138.463 185.687 79.4686 138.702 186.166 80.044 139.561 
188.957 83.5743 139.602 189.695 85.5349 139.12 158.024 86.8694 139.255 
189.653 86.6327 138.949 189.449 87.1756 139.002 151.926 90.4291 139.495 
151.64 90.8052 139.415 151.372 91.155 138.989 150.807 93.0512 139.148 
151.021 93.4303 139.497 169.304 96.6022 140.569 170.366 96.386 139.997 
172.797 96.3876 139.384 167.131 100.796 139.386 165.235 102.76 139.404 
162.114 105.069 138.951 158.766 106.105 138.275 160.105 105.751 138.879 
154.148 88.4072 140.482 151.93 90.7049 139.917 152.239 90.8795 140.518 
184.294 93.2339 140.894 151.615 95.2176 139.963 167.595 96.9914 141.217 
152.66 97.7414 139.799 154.375 100.274 139.431 165.937 99.9911 140.525 
165.857 101.044 140.052 179.979 79.3067 142.031 182.367 79.7506 141.799 
182.801 80.0174 142.026 184.397 80.6521 141.754 157.564 85.8203 141.514 
157.437 85.6535 141.978 188.644 85.6473 140.803 154.608 87.986 141.957 
154.187 88.3762 141.517 155.006 87.5289 141.767 153.936 88.8762 141.619 
188.367 88.1516 140.769 185.745 91.5727 141.698 165.566 96.3204 142.376 
169.003 95.7723 142.304 170.872 96.0251 141.368 175.047 96.4312 141.616 
158.112 98.2054 141.84 155.663 100.38 140.179 161.154 102.221 141.253 
161.602 102.389 141.111 162.45 102.466 140.784 180.297 79.2962 142.398 
180.257 79.2697 142.516 180.022 79.2977 142.542 179.28 79.3019 142.655 
180.83 79.4983 142.352 182.376 80.1656 142.519 182.765 80.5799 142.764 
[...]
POINT_DATA 1340
COLOR_SCALARS scalars 3
0.121569 0.615686 0.352941 0.121569 0.615686 0.352941 0.121569 0.615686 0.352941 
0.121569 0.615686 0.352941 0.121569 0.615686 0.352941 
0.121569 0.615686 0.352941 0.121569 0.615686 0.352941 
0.121569 0.615686 0.352941 0.121569 0.615686 0.352941 
0.121569 0.615686 0.352941 0.121569 0.615686 0.352941 
0.121569 0.615686 0.352941 0.121569 0.615686 0.352941 
0.121569 0.615686 0.352941 0.121569 0.615686 0.352941 
0.121569 0.615686 0.352941 0.121569 0.615686 0.352941 
0.121569 0.615686 0.352941 0.121569 0.615686 0.352941 
0.121569 0.615686 0.352941 0.121569 0.615686 0.352941 
0.121569 0.615686 0.352941 0.121569 0.615686 0.352941 
0.121569 0.615686 0.352941 0.121569 0.615686 0.352941 
0.121569 0.615686 0.352941 0.121569 0.615686 0.352941 
0.121569 0.615686 0.352941 0.121569 0.615686 0.352941 
0.121569 0.615686 0.352941 0.121569 0.615686 0.352941 
0.121569 0.615686 0.352941 0.121569 0.615686 0.352941 
0.121569 0.615686 0.352941 0.121569 0.615686 0.352941 
0.121569 0.615686 0.352941 0.121569 0.615686 0.352941 
0.121569 0.615686 0.352941 0.121569 0.615686 0.352941 
0.121569 0.615686 0.352941 0.121569 0.615686 0.352941 
0.121569 0.615686 0.352941 0.121569 0.615686 0.352941 
0.121569 0.615686 0.352941 0.121569 0.615686 0.352941 
0.121569 0.615686 0.352941 0.121569 0.615686 0.352941 
0.121569 0.615686 0.352941 0.121569 0.615686 0.352941 
0.121569 0.615686 0.352941 0.121569 0.615686 0.352941 
0.121569 0.615686 0.352941 0.121569 0.615686 0.352941 
0.121569 0.615686 0.352941 0.121569 0.615686 0.352941 
0.121569 0.615686 0.352941 0.121569 0.615686 0.352941 
0.121569 0.615686 0.352941 0.121569 0.615686 0.352941 
0.121569 0.615686 0.352941 0.121569 0.615686 0.352941 
0.121569 0.615686 0.352941 0.121569 0.615686 0.352941 
0.121569 0.615686 0.352941 0.121569 0.615686 0.352941 
0.121569 0.615686 0.352941 0.121569 0.615686 0.352941 
0.121569 0.615686 0.352941 0.121569 0.615686 0.352941 
0.121569 0.615686 0.352941 0.121569 0.615686 0.352941 
0.121569 0.615686 0.352941 0.121569 0.615686 0.352941 
0.121569 0.615686 0.352941 0.121569 0.615686 0.352941 
0.121569 0.615686 0.352941 0.121569 0.615686 0.352941 
0.121569 0.615686 0.352941 0.121569 0.615686 0.352941 
0.121569 0.615686 0.352941 0.121569 0.615686 0.352941 
0.121569 0.615686 0.352941 0.121569 0.615686 0.352941 
0.121569 0.615686 0.352941 0.121569 0.615686 0.352941 
0.121569 0.615686 0.352941 0.121569 0.615686 0.352941 
0.121569 0.615686 0.352941 0.121569 0.615686 0.352941 
0.121569 0.615686 0.352941 0.121569 0.615686 0.352941 
0.121569 0.615686 0.352941 0.121569 0.615686 0.352941 
0.121569 0.615686 0.352941 0.121569 0.615686 0.352941 
0.121569 0.615686 0.352941 0.121569 0.615686 0.352941 
0.121569 0.615686 0.352941 0.121569 0.615686 0.352941 
0.121569 0.615686 0.352941 0.121569 0.615686 0.352941 
0.121569 0.615686 0.352941 0.121569 0.615686 0.352941 
0.121569 0.615686 0.352941 0.121569 0.615686 0.352941 
0.121569 0.615686 0.352941 0.121569 0.615686 0.352941 
0.121569 0.615686 0.352941 0.121569 0.615686 0.352941 
0.121569 0.615686 0.352941 0.121569 0.615686 0.352941 
0.121569 0.615686 0.352941 0.121569 0.615686 0.352941 
0.121569 0.615686 0.352941 0.121569 0.615686 0.352941 
0.121569 0.615686 0.352941 0.121569 0.615686 0.352941 
0.121569 0.615686 0.352941 0.121569 0.615686 0.352941 
0.121569 0.615686 0.352941 0.121569 0.615686 0.352941 
0.121569 0.615686 0.352941 0.121569 0.615686 0.352941 
0.121569 0.615686 0.352941 0.121569 0.615686 0.352941 
0.121569 0.615686 0.352941 0.121569 0.615686 0.352941 
0.121569 0.615686 0.352941 0.121569 0.615686 0.352941 
0.121569 0.615686 0.352941 0.121569 0.615686 0.352941 
0.121569 0.615686 0.352941 0.121569 0.615686 0.352941 
0.121569 0.615686 0.352941 0.121569 0.615686 0.352941 
0.121569 0.615686 0.352941 0.121569 0.615686 0.352941 
0.121569 0.615686 0.352941 0.121569 0.615686 0.352941 
0.121569 0.615686 0.352941 0.121569 0.615686 0.352941 
0.121569 0.615686 0.352941 0.121569 0.615686 0.352941 
0.121569 0.615686 0.352941 0.121569 0.615686 0.352941 
0.121569 0.615686 0.352941 0.121569 0.615686 0.352941 
0.121569 0.615686 0.352941 0.121569 0.615686 0.352941 
0.121569 0.615686 0.352941 0.121569 0.615686 0.352941 
0.121569 0.615686 0.352941 0.121569 0.615686 0.352941 
0.121569 0.615686 0.352941 0.121569 0.615686 0.352941 
0.121569 0.615686 0.352941 0.121569 0.615686 0.352941 
0.121569 0.615686 0.352941 0.121569 0.615686 0.352941 
0.121569 0.615686 0.352941 0.121569 0.615686 0.352941 
0.121569 0.615686 0.352941 0.121569 0.615686 0.352941 
0.121569 0.615686 0.352941 0.121569 0.615686 0.352941 
0.121569 0.615686 0.352941 0.121569 0.615686 0.352941 
0.121569 0.615686 0.352941 0.121569 0.615686 0.352941 
0.121569 0.615686 0.352941 0.121569 0.615686 0.352941 
0.121569 0.615686 0.352941 0.121569 0.615686 0.352941 
0.121569 0.615686 0.352941 0.121569 0.615686 0.352941 
0.121569 0.615686 0.352941 0.121569 0.615686 0.352941 
0.121569 0.615686 0.352941 0.121569 0.615686 0.352941 
0.121569 0.615686 0.352941 0.121569 0.615686 0.352941 
0.121569 0.615686 0.352941 0.121569 0.615686 0.352941 
0.121569 0.615686 0.352941 0.121569 0.615686 0.352941 
0.121569 0.615686 0.352941 0.121569 0.615686 0.352941 
0.121569 0.615686 0.352941 0.121569 0.615686 0.352941 
0.121569 0.615686 0.352941 0.121569 0.615686 0.352941 
0.121569 0.615686 0.352941 0.121569 0.615686 0.352941 
0.121569 0.615686 0.352941 0.121569 0.615686 0.352941 
0.121569 0.615686 0.352941 0.121569 0.615686 0.352941 
0.121569 0.615686 0.352941 0.121569 0.615686 0.352941 
0.121569 0.615686 0.352941 0.121569 0.615686 0.352941 
0.121569 0.615686 0.352941 0.121569 0.615686 0.352941 
0.121569 0.615686 0.352941 0.121569 0.615686 0.352941 
0.121569 0.615686 0.352941 0.121569 0.615686 0.352941 
0.121569 0.615686 0.352941 0.121569 0.615686 0.352941 
0.121569 0.615686 0.352941 0.121569 0.615686 0.352941 
0.121569 0.615686 0.352941 0.121569 0.615686 0.352941 
0.121569 0.615686 0.352941 0.121569 0.615686 0.352941 
0.121569 0.615686 0.352941 0.121569 0.615686 0.352941 
0.121569 0.615686 0.352941 0.121569 0.615686 0.352941 
0.121569 0.615686 0.352941 0.121569 0.615686 0.352941 
0.121569 0.615686 0.352941 0.121569 0.615686 0.352941 
0.121569 0.615686 0.352941 0.121569 0.615686 0.352941 
0.121569 0.615686 0.352941 0.121569 0.615686 0.352941 
0.121569 0.615686 0.352941 0.121569 0.615686 0.352941 
0.121569 0.615686 0.352941 0.121569 0.615686 0.352941 
0.121569 0.615686 0.352941 0.121569 0.615686 0.352941 
0.121569 0.615686 0.352941 0.121569 0.615686 0.352941 
0.121569 0.615686 0.352941 0.121569 0.615686 0.352941 
0.121569 0.615686 0.352941 0.121569 0.615686 0.352941 
0.121569 0.615686 0.352941 0.121569 0.615686 0.352941 
0.121569 0.615686 0.352941 0.121569 0.615686 0.352941 
0.121569 0.615686 0.352941 0.121569 0.615686 0.352941 
0.121569 0.615686 0.352941 0.121569 0.615686 0.352941 
0.121569 0.615686 0.352941 0.121569 0.615686 0.352941 
0.121569 0.615686 0.352941 0.121569 0.615686 0.352941 
0.121569 0.615686 0.352941 0.121569 0.615686 0.352941 
0.121569 0.615686 0.352941 0.121569 0.615686 0.352941 
0.121569 0.615686 0.352941 0.121569 0.615686 0.352941 
0.121569 0.615686 0.352941 0.121569 0.615686 0.352941 
0.121569 0.615686 0.352941 0.121569 0.615686 0.352941 
0.121569 0.615686 0.352941 0.121569 0.615686 0.352941 
0.121569 0.615686 0.352941 0.121569 0.615686 0.352941 
0.121569 0.615686 0.352941 0.121569 0.615686 0.352941 
0.121569 0.615686 0.352941 0.121569 0.615686 0.352941 
0.121569 0.615686 0.352941 0.121569 0.615686 0.352941 
0.121569 0.615686 0.352941 0.121569 0.615686 0.352941 
0.121569 0.615686 0.352941 0.121569 0.615686 0.352941 
0.121569 0.615686 0.352941 0.121569 0.615686 0.352941 
0.121569 0.615686 0.352941 0.121569 0.615686 0.352941 
0.121569 0.615686 0.352941 0.121569 0.615686 0.352941 
0.121569 0.615686 0.352941 0.121569 0.615686 0.352941 
0.121569 0.615686 0.352941 0.121569 0.615686 0.352941 
0.121569 0.615686 0.352941 0.121569 0.615686 0.352941 
0.121569 0.615686 0.352941 0.121569 0.615686 0.352941 
0.121569 0.615686 0.352941 0.121569 0.615686 0.352941 
0.121569 0.615686 0.352941 0.121569 0.615686 0.352941 
0.121569 0.615686 0.352941 0.121569 0.615686 0.352941 
0.121569 0.615686 0.352941 0.121569 0.615686 0.352941 
0.121569 0.615686 0.352941 0.121569 0.615686 0.352941 
0.121569 0.615686 0.352941 0.121569 0.615686 0.352941 
0.121569 0.615686 0.352941 0.121569 0.615686 0.352941 
0.121569 0.615686 0.352941 0.121569 0.615686 0.352941 
0.121569 0.615686 0.352941 0.121569 0.615686 0.352941 
0.121569 0.615686 0.352941 0.121569 0.615686 0.352941 
0.121569 0.615686 0.352941 0.121569 0.615686 0.352941 
0.121569 0.615686 0.352941 0.121569 0.615686 0.352941 
0.121569 0.615686 0.352941 0.121569 0.615686 0.352941 
0.121569 0.615686 0.352941 0.121569 0.615686 0.352941 
0.121569 0.615686 0.352941 0.121569 0.615686 0.352941 
0.121569 0.615686 0.352941 0.121569 0.615686 0.352941 
0.121569 0.615686 0.352941 0.121569 0.615686 0.352941 
0.121569 0.615686 0.352941 0.121569 0.615686 0.352941 
0.121569 0.615686 0.352941 0.121569 0.615686 0.352941 
0.121569 0.615686 0.352941 0.121569 0.615686 0.352941 
0.121569 0.615686 0.352941 0.121569 0.615686 0.352941 
0.121569 0.615686 0.352941 0.121569 0.615686 0.352941 
0.121569 0.615686 0.352941 0.121569 0.615686 0.352941 
0.121569 0.615686 0.352941 0.121569 0.615686 0.352941 
0.121569 0.615686 0.352941 0.121569 0.615686 0.352941 
0.121569 0.615686 0.352941 0.121569 0.615686 0.352941 
0.121569 0.615686 0.352941 0.121569 0.615686 0.352941 
0.121569 0.615686 0.352941 0.121569 0.615686 0.352941 
0.121569 0.615686 0.352941 0.121569 0.615686 0.352941 
0.121569 0.615686 0.352941 0.121569 0.615686 0.352941 
0.121569 0.615686 0.352941 0.121569 0.615686 0.352941 
0.121569 0.615686 0.352941 0.121569 0.615686 0.352941 
0.121569 0.615686 0.352941 0.121569 0.615686 0.352941 
0.121569 0.615686 0.352941 0.121569 0.615686 0.352941 
0.121569 0.615686 0.352941 0.121569 0.615686 0.352941 
0.121569 0.615686 0.352941 0.121569 0.615686 0.352941 
0.121569 0.615686 0.352941 0.121569 0.615686 0.352941 
0.121569 0.615686 0.352941 0.121569 0.615686 0.352941 
0.121569 0.615686 0.352941 0.121569 0.615686 0.352941 
0.121569 0.615686 0.352941 0.121569 0.615686 0.352941 
0.121569 0.615686 0.352941 0.121569 0.615686 0.352941 
0.121569 0.615686 0.352941 0.121569 0.615686 0.352941 
0.121569 0.615686 0.352941 0.121569 0.615686 0.352941 
0.121569 0.615686 0.352941 0.121569 0.615686 0.352941 
0.121569 0.615686 0.352941 0.121569 0.615686 0.352941 
0.121569 0.615686 0.352941 0.121569 0.615686 0.352941 
0.121569 0.615686 0.352941 0.121569 0.615686 0.352941 
0.121569 0.615686 0.352941 0.121569 0.615686 0.352941 
0.121569 0.615686 0.352941 0.121569 0.615686 0.352941 
0.121569 0.615686 0.352941 0.121569 0.615686 0.352941 
0.121569 0.615686 0.352941 0.121569 0.615686 0.352941 
0.121569 0.615686 0.352941 0.121569 0.615686 0.352941 
0.121569 0.615686 0.352941 0.121569 0.615686 0.352941 
0.121569 0.615686 0.352941 0.121569 0.615686 0.352941 
0.121569 0.615686 0.352941 0.121569 0.615686 0.352941 
0.121569 0.615686 0.352941 0.121569 0.615686 0.352941 
0.121569 0.615686 0.352941 0.121569 0.615686 0.352941 
0.121569 0.615686 0.352941 0.121569 0.615686 0.352941 
0.121569 0.615686 0.352941 0.121569 0.615686 0.352941 
0.121569 0.615686 0.352941 0.121569 0.615686 0.352941 
0.121569 0.615686 0.352941 0.121569 0.615686 0.352941 
0.121569 0.615686 0.352941 0.121569 0.615686 0.352941 
0.121569 0.615686 0.352941 0.121569 0.615686 0.352941 
0.121569 0.615686 0.352941 0.121569 0.615686 0.352941 
0.121569 0.615686 0.352941 0.121569 0.615686 0.352941 
0.121569 0.615686 0.352941 0.121569 0.615686 0.352941 
0.121569 0.615686 0.352941 0.121569 0.615686 0.352941 
0.121569 0.615686 0.352941 0.121569 0.615686 0.352941 
0.121569 0.615686 0.352941 0.121569 0.615686 0.352941 
0.121569 0.615686 0.352941 0.121569 0.615686 0.352941 
0.121569 0.615686 0.352941 0.121569 0.615686 0.352941 
0.121569 0.615686 0.352941 0.121569 0.615686 0.352941 
0.121569 0.615686 0.352941 0.121569 0.615686 0.352941 
0.121569 0.615686 0.352941 0.121569 0.615686 0.352941 
0.121569 0.615686 0.352941 0.121569 0.615686 0.352941 
0.121569 0.615686 0.352941 0.121569 0.615686 0.352941 
0.121569 0.615686 0.352941 0.121569 0.615686 0.352941 
0.121569 0.615686 0.352941 0.121569 0.615686 0.352941 
0.121569 0.615686 0.352941 0.121569 0.615686 0.352941 
0.121569 0.615686 0.352941 0.121569 0.615686 0.352941 
0.121569 0.615686 0.352941 0.121569 0.615686 0.352941 
0.121569 0.615686 0.352941 0.121569 0.615686 0.352941 
0.121569 0.615686 0.352941 0.121569 0.615686 0.352941 
0.121569 0.615686 0.352941 0.121569 0.615686 0.352941 
0.121569 0.615686 0.352941 0.121569 0.615686 0.352941 
0.121569 0.615686 0.352941 0.121569 0.615686 0.352941 
0.121569 0.615686 0.352941 0.121569 0.615686 0.352941 
0.121569 0.615686 0.352941 0.121569 0.615686 0.352941 
0.121569 0.615686 0.352941 0.121569 0.615686 0.352941 
0.121569 0.615686 0.352941 0.121569 0.615686 0.352941 
0.121569 0.615686 0.352941 0.121569 0.615686 0.352941 
0.121569 0.615686 0.352941 0.121569 0.615686 0.352941 
0.121569 0.615686 0.352941 0.121569 0.615686 0.352941 
0.121569 0.615686 0.352941 0.121569 0.615686 0.352941 
0.121569 0.615686 0.352941 0.121569 0.615686 0.352941 
0.121569 0.615686 0.352941 0.121569 0.615686 0.352941 
0.121569 0.615686 0.352941 0.121569 0.615686 0.352941 
0.121569 0.615686 0.352941 0.121569 0.615686 0.352941 
0.121569 0.615686 0.352941 0.121569 0.615686 0.352941 
0.121569 0.615686 0.352941 0.121569 0.615686 0.352941 
0.121569 0.615686 0.352941 0.121569 0.615686 0.352941 
0.121569 0.615686 0.352941 0.121569 0.615686 0.352941 
0.121569 0.615686 0.352941 0.121569 0.615686 0.352941 
0.121569 0.615686 0.352941 0.121569 0.615686 0.352941 
0.121569 0.615686 0.352941 0.121569 0.615686 0.352941 
0.121569 0.615686 0.352941 0.121569 0.615686 0.352941 
0.121569 0.615686 0.352941 0.121569 0.615686 0.352941 
0.121569 0.615686 0.352941 0.121569 0.615686 0.352941 
0.121569 0.615686 0.352941 0.121569 0.615686 0.352941 
0.121569 0.615686 0.352941 0.121569 0.615686 0.352941 
0.121569 0.615686 0.352941 0.121569 0.615686 0.352941 
0.121569 0.615686 0.352941 0.121569 0.615686 0.352941 
0.121569 0.615686 0.352941 0.121569 0.615686 0.352941 
0.121569 0.615686 0.352941 0.121569 0.615686 0.352941 
0.121569 0.615686 0.352941 0.121569 0.615686 0.352941 
0.121569 0.615686 0.352941 0.121569 0.615686 0.352941 
0.121569 0.615686 0.352941 0.121569 0.615686 0.352941 
0.121569 0.615686 0.352941 0.121569 0.615686 0.352941 
0.121569 0.615686 0.352941 0.121569 0.615686 0.352941 
0.121569 0.615686 0.352941 0.121569 0.615686 0.352941 
0.121569 0.615686 0.352941 0.121569 0.615686 0.352941 
0.121569 0.615686 0.352941 0.121569 0.615686 0.352941 
0.121569 0.615686 0.352941 0.121569 0.615686 0.352941 
0.121569 0.615686 0.352941 0.121569 0.615686 0.352941 
0.121569 0.615686 0.352941 0.121569 0.615686 0.352941 
0.121569 0.615686 0.352941 0.121569 0.615686 0.352941 
0.121569 0.615686 0.352941 0.121569 0.615686 0.352941 
0.121569 0.615686 0.352941 0.121569 0.615686 0.352941 
0.121569 0.615686 0.352941 0.121569 0.615686 0.352941 
0.121569 0.615686 0.352941 0.121569 0.615686 0.352941 
0.121569 0.615686 0.352941 0.121569 0.615686 0.352941 
0.121569 0.615686 0.352941 0.121569 0.615686 0.352941 
0.121569 0.615686 0.352941 0.121569 0.615686 0.352941 
0.121569 0.615686 0.352941 0.121569 0.615686 0.352941 
0.121569 0.615686 0.352941 0.121569 0.615686 0.352941 
0.121569 0.615686 0.352941 0.121569 0.615686 0.352941 
0.121569 0.615686 0.352941 0.121569 0.615686 0.352941 
0.121569 0.615686 0.352941 0.121569 0.615686 0.352941 
0.121569 0.615686 0.352941 0.121569 0.615686 0.352941 
0.121569 0.615686 0.352941 0.121569 0.615686 0.352941 
0.121569 0.615686 0.352941 0.121569 0.615686 0.352941 
0.121569 0.615686 0.352941 0.121569 0.615686 0.352941 
0.121569 0.615686 0.352941 0.121569 0.615686 0.352941 
0.121569 0.615686 0.352941 0.121569 0.615686 0.352941 
0.121569 0.615686 0.352941 0.121569 0.615686 0.352941 
0.121569 0.615686 0.352941 0.121569 0.615686 0.352941 
0.121569 0.615686 0.352941 0.121569 0.615686 0.352941 
0.121569 0.615686 0.352941 0.121569 0.615686 0.352941 
0.121569 0.615686 0.352941 0.121569 0.615686 0.352941 
0.121569 0.615686 0.352941 0.121569 0.615686 0.352941 
0.121569 0.615686 0.352941 0.121569 0.615686 0.352941 
0.121569 0.615686 0.352941 0.121569 0.615686 0.352941 
0.121569 0.615686 0.352941 0.121569 0.615686 0.352941 
0.121569 0.615686 0.352941 0.121569 0.615686 0.352941 
0.121569 0.615686 0.352941 0.121569 0.615686 0.352941 
0.121569 0.615686 0.352941 0.121569 0.615686 0.352941 
0.121569 0.615686 0.352941 0.121569 0.615686 0.352941 
0.121569 0.615686 0.352941 0.121569 0.615686 0.352941 
0.121569 0.615686 0.352941 0.121569 0.615686 0.352941 
0.121569 0.615686 0.352941 0.121569 0.615686 0.352941 
0.121569 0.615686 0.352941 0.121569 0.615686 0.352941 
0.121569 0.615686 0.352941 0.121569 0.615686 0.352941 
0.121569 0.615686 0.352941 0.121569 0.615686 0.352941 
0.121569 0.615686 0.352941 0.121569 0.615686 0.352941 
0.121569 0.615686 0.352941 0.121569 0.615686 0.352941 
0.121569 0.615686 0.352941 0.121569 0.615686 0.352941 
0.121569 0.615686 0.352941 0.121569 0.615686 0.352941 
0.121569 0.615686 0.352941 0.121569 0.615686 0.352941 
0.121569 0.615686 0.352941 0.121569 0.615686 0.352941 
0.121569 0.615686 0.352941 0.121569 0.615686 0.352941 
0.121569 0.615686 0.352941 0.121569 0.615686 0.352941 
0.121569 0.615686 0.352941 0.121569 0.615686 0.352941 
0.121569 0.615686 0.352941 0.121569 0.615686 0.352941 
0.121569 0.615686 0.352941 0.121569 0.615686 0.352941 
0.121569 0.615686 0.352941 0.121569 0.615686 0.352941 
0.121569 0.615686 0.352941 0.121569 0.615686 0.352941 
0.121569 0.615686 0.352941 0.121569 0.615686 0.352941 
0.121569 0.615686 0.352941 0.121569 0.615686 0.352941 
0.121569 0.615686 0.352941 0.121569 0.615686 0.352941 
0.121569 0.615686 0.352941 0.121569 0.615686 0.352941 
0.121569 0.615686 0.352941 0.121569 0.615686 0.352941 
0.121569 0.615686 0.352941 0.121569 0.615686 0.352941 
0.121569 0.615686 0.352941 0.121569 0.615686 0.352941 
0.121569 0.615686 0.352941 0.121569 0.615686 0.352941 
0.121569 0.615686 0.352941 0.121569 0.615686 0.352941 
0.121569 0.615686 0.352941 0.121569 0.615686 0.352941 
0.121569 0.615686 0.352941 0.121569 0.615686 0.352941 
0.121569 0.615686 0.352941 0.121569 0.615686 0.352941 
0.121569 0.615686 0.352941 0.121569 0.615686 0.352941 
0.121569 0.615686 0.352941 0.121569 0.615686 0.352941 
0.121569 0.615686 0.352941 0.121569 0.615686 0.352941 
0.121569 0.615686 0.352941 0.121569 0.615686 0.352941 
0.121569 0.615686 0.352941 0.121569 0.615686 0.352941 
0.121569 0.615686 0.352941 0.121569 0.615686 0.352941 
0.121569 0.615686 0.352941 0.121569 0.615686 0.352941 
0.121569 0.615686 0.352941 0.121569 0.615686 0.352941 
0.121569 0.615686 0.352941 0.121569 0.615686 0.352941 
0.121569 0.615686 0.352941 0.121569 0.615686 0.352941 
0.121569 0.615686 0.352941 0.121569 0.615686 0.352941 
0.121569 0.615686 0.352941 0.121569 0.615686 0.352941 
0.121569 0.615686 0.352941 0.121569 0.615686 0.352941 
0.121569 0.615686 0.352941 0.121569 0.615686 0.352941 
0.121569 0.615686 0.352941 0.121569 0.615686 0.352941 
0.121569 0.615686 0.352941 0.121569 0.615686 0.352941 
0.121569 0.615686 0.352941 0.121569 0.615686 0.352941 
0.121569 0.615686 0.352941 0.121569 0.615686 0.352941 
0.121569 0.615686 0.352941 0.121569 0.615686 0.352941 
0.121569 0.615686 0.352941 0.121569 0.615686 0.352941 
0.121569 0.615686 0.352941 0.121569 0.615686 0.352941 
0.121569 0.615686 0.352941 0.121569 0.615686 0.352941 
0.121569 0.615686 0.352941 0.121569 0.615686 0.352941 
0.121569 0.615686 0.352941 0.121569 0.615686 0.352941 
0.121569 0.615686 0.352941 0.121569 0.615686 0.352941 
0.121569 0.615686 0.352941 0.121569 0.615686 0.352941 
0.121569 0.615686 0.352941 0.121569 0.615686 0.352941 
0.121569 0.615686 0.352941 0.121569 0.615686 0.352941 
0.121569 0.615686 0.352941 0.121569 0.615686 0.352941 
0.121569 0.615686 0.352941 0.121569 0.615686 0.352941 