# vtk DataFile Version 4.2
vtk output
ASCII
DATASET POLYDATA
POINTS 1098 float
157.249 109.209 114.279 157.007 109.224 114.299 157.52 109.146 114.362 
155.246 109.749 114.118 155.279 109.658 114.137 155.149 109.734 114.165 
155.366 109.711 114.152 157.199 109.414 114.31 153.788 110.74 114.357 
153.715 110.566 114.372 154.039 110.804 114.348 155.22 109.88 114.178 
158.676 108.153 114.681 155.38 109.427 114.271 155.836 108.741 114.467 
153.612 110.22 114.482 154.653 109.939 114.312 155.734 109.827 114.249 
151.811 110.898 115.04 155.21 110.295 114.3 150.606 111.38 115.618 
158.964 106.236 115.655 159.686 106.007 116.058 159.88 106.261 115.977 
154.97 107.879 115.04 157.488 110.603 114.723 149.283 110.996 116.13 
148.772 111.199 116.505 154.929 111.477 114.76 156.363 111.391 114.902 
150.692 112.205 116.222 148.696 109.928 116.438 148.045 110.462 116.709 
147.811 110.263 116.843 161.532 110.985 116.15 147.611 111.172 117.28 
152.865 112.697 116.045 156.925 113.038 116.219 158.874 104.147 117.875 
159.267 104.262 117.984 158.461 104.431 117.334 155.856 105.381 116.74 
161.49 106.973 117.299 147.682 108.847 117.446 147.592 109.868 117.059 
146.871 109.787 117.442 145.924 110.255 117.885 146.847 110.308 117.434 
148.118 111.991 117.678 151.483 113.219 117.46 162.581 113.767 117.178 
163.346 113.688 117.365 164.851 113.092 118.124 165.17 113.487 118.403 
159.002 114.342 117.486 161.747 114.524 117.46 164.436 114.133 117.945 
165.123 113.87 118.232 165.204 114.105 118.292 164.742 114.508 118.315 
165.113 114.289 118.323 160.027 104.581 118.576 148.539 107.857 117.693 
163.722 110.066 118.139 144.259 110.438 118.803 144.039 110.207 118.884 
144.972 110.495 118.495 144.225 110.879 119.004 150.155 113.16 118.687 
156.53 113.894 117.255 165.454 113.756 118.967 165.277 114.201 118.438 
161.046 115.628 118.572 163.739 115.046 118.226 162.652 115.92 118.906 
164.049 115.45 118.899 164.477 115.226 119.158 163.691 115.73 119.07 
123.824 130.188 119.63 123.659 130.338 119.619 122.781 132.598 119.532 
122.669 132.924 119.543 121.699 135.682 119.853 121.558 135.824 119.885 
121.694 135.888 119.956 143.805 109.798 119.063 142.297 110.553 119.685 
142.026 110.368 119.769 164.585 110.802 119.275 144.354 111.834 119.818 
146.895 112.324 119.541 165.609 113.832 119.271 165.637 113.829 119.45 
165.346 114.152 118.674 165.288 114.355 119.041 164.996 114.806 119.348 
163.804 115.795 119.412 124.949 126.282 120.107 123.361 128.442 119.744 
123.861 129.365 119.725 122.627 130.258 119.667 123.607 130.895 119.731 
122.408 132.013 119.577 123.643 132.137 120.098 122.337 133.849 119.745 
122.609 134.198 120.042 121.303 135.6 119.914 122.088 135.434 120.094 
121.426 136.367 120.09 121.304 137.148 120.361 120.537 138.154 120.568 
120.698 138.268 120.597 120.732 138.46 120.763 156.268 102.617 119.945 
157.364 102.896 119.558 154.134 102.85 119.974 141.702 110.01 119.949 
138.379 112.165 120.642 142.626 111.714 120.188 136.281 113.488 120.662 
136.79 112.517 120.707 138.218 113.333 120.816 165.597 113.924 119.624 
137.119 114.891 121.05 158.89 115.762 120.187 165.061 114.799 119.765 
165.158 114.649 119.982 131.565 117.084 120.703 131.32 116.679 120.732 
163.292 116.055 119.912 163.658 115.797 120.274 164.392 115.265 120.35 
131.053 117.91 120.734 161.618 116.417 120.572 162.101 116.454 120.557 
162.796 116.207 119.823 162.262 116.459 120.39 127.346 121.472 120.721 
127.204 121.187 120.75 127.677 121.593 120.776 125.759 124.32 120.532 
125.719 123.618 120.592 126.386 124.358 120.75 123.85 126.647 120.025 
122.928 128.284 119.89 122.023 128.644 120.267 121.627 130.872 120.026 
121.055 132.364 120.233 123.731 132.837 120.732 122.58 134.685 120.27 
122.708 134.854 120.665 120.181 136.874 120.641 120.332 137.926 120.611 
120.113 138.271 120.888 121.214 137.706 120.674 120.105 138.821 121.069 
120.101 139.243 121.272 120.593 138.827 121.075 120.377 139.124 121.161 
120.249 139.263 121.251 158.049 102.627 120.931 135.175 111.778 121.266 
165.283 112.623 120.807 140.355 113.264 121.257 141.226 113.074 121.376 
143.494 112.618 121.515 133.502 113.941 120.908 165.457 113.948 120.003 
165.259 113.792 120.768 131.397 114.801 121.221 164.951 114.488 120.942 
130.428 116.134 121.046 134.316 117.027 120.93 162.113 116.331 121.017 
127.387 118.952 121.156 130.508 119.901 120.999 125.871 121.261 121.029 
131.061 120.477 121.389 124.493 122.343 121.153 126.939 123.394 120.892 
122.047 126.934 120.91 125.919 127.586 120.889 120.957 129.331 121.342 
121.4 129.84 120.471 124.708 130.962 120.867 124.919 131.05 121.416 
120.446 133.079 120.964 120.245 133.648 121.219 124.665 131.674 121.634 
119.997 137.255 120.985 119.904 137.624 121.269 121.814 136.903 121.222 
121.209 137.988 121.105 120.604 139.001 121.465 120.131 139.485 121.502 
119.912 139.702 121.632 151.874 101.607 122.176 143.63 105.506 121.941 
142.239 113.098 121.855 143.37 112.89 122.254 139.862 114.706 122.295 
127.463 117.373 121.742 160.151 116.09 122.104 135.275 117.973 121.708 
160.86 116.294 121.791 161.27 116.371 121.827 161.508 116.352 121.8 
125.521 119.361 121.823 161.38 116.341 121.975 125.244 120.267 121.581 
131.307 121.514 122.058 128.275 124.483 121.886 121.914 126.013 121.713 
121.335 127.17 122.32 120.803 129.086 122.011 120.224 133.736 121.571 
124.742 131.71 122.27 124.014 132.877 121.838 120.198 134.684 121.926 
122.791 134.986 121.84 119.954 136.726 121.726 119.996 136.994 121.893 
121.719 137.053 121.713 121.142 138.173 121.533 121.357 137.698 121.82 
119.872 139.692 121.74 119.982 139.679 121.706 120.164 139.522 121.737 
118 143.009 122.017 118 143.009 122.017 118 143.009 122.017 
119.885 139.746 121.7 118 143.009 122.017 118 143.009 122.017 
154.188 100.718 123.316 155.175 100.916 123.342 156.577 101.572 123.61 
161.533 106.02 123.284 134.77 109.773 122.872 164.598 111.489 122.682 
144.759 112.578 122.991 147.575 112.349 122.865 164.532 113.652 122.644 
142.909 113.294 123.243 141.047 114.764 123.573 163.152 114.628 123.234 
127.318 115.822 122.721 160.017 115.847 122.864 161.113 115.921 122.898 
161.335 115.797 123.049 124.65 118.71 122.878 123.907 119.689 123.007 
123.157 120.456 123.642 123.73 120.678 122.5 122.75 121.878 123.114 
122.565 122.077 123.269 122.53 122.289 123.212 122.448 122.967 123.139 
121.673 126.029 123.127 121.423 127.717 123.266 121.503 128.25 123.574 
125.621 130.319 122.505 120.206 137.168 122.15 121.541 137.127 122.129 
120.313 138.355 122.288 120.73 138.771 121.98 119.945 139.584 121.825 
120.072 139.365 121.984 120.317 139.312 121.931 119.9 139.732 121.749 
120.095 139.528 121.876 118 143.009 122.018 154.739 100.577 124.537 
145.674 112.259 123.954 164.506 112.828 123.162 125.829 115.589 124.086 
138.974 117.325 124.083 137.186 119.285 124.192 122.834 121.246 124.09 
133.515 121.8 123.652 130.431 125.281 124.883 127.61 127.627 123.658 
121.671 130.739 123.873 125.531 130.497 123.461 124.131 132.456 123.161 
121.253 133.773 123.246 120.923 137.686 122.387 120.274 138.77 122.238 
120.658 138.187 122.358 120.25 139.147 122.115 120.172 139.387 121.994 
120.451 139.038 122.145 163.124 109.192 124.441 148.298 111.269 125.845 
164.016 111.188 123.835 145.105 112.22 124.74 145.629 111.98 125.002 
164.21 112.613 123.572 164.517 112.584 123.18 143.699 112.902 124.631 
125.286 115.102 125.449 125.853 114.522 125.122 124.94 115.929 125.081 
124.63 116.241 125.563 161.287 115.122 123.943 124.695 116.776 124.496 
123.558 119.228 125.361 122.849 121.569 124.533 136.931 120.198 125.065 
125.818 129.783 124.702 122.585 132.148 124.278 122.56 132.899 123.987 
122.628 133.461 123.697 121.72 136.021 122.714 120.573 138.773 122.244 
151.637 99.5847 125.814 136.323 106.122 125.478 126.32 113.122 126.18 
155.502 113.412 125.195 143.358 112.863 126.067 125.073 115.259 126.467 
141.756 114.686 125.813 158.9 114.449 125.22 123.693 119.006 125.84 
123.585 119.465 125.798 138.726 118.609 125.446 123.667 119.741 126.079 
137.642 119.887 125.733 123.033 124.198 125.478 123.216 130.173 125.084 
122.909 130.654 124.864 123.566 130.801 125.033 123.248 130.837 125.01 
125.051 130.167 125.032 123.105 131.014 124.879 123.176 131.591 124.664 
123.715 131.293 124.873 124.137 131.167 124.705 123.703 131.534 124.748 
123.502 132.002 124.404 150.516 99.1777 126.97 149.546 99.1995 127.367 
144.022 101.126 127.282 154.376 100.619 127.205 138.494 103.89 126.929 
161.581 108.104 126.554 126.234 112.695 127.265 160.07 113.252 126.687 
124.796 115.946 126.544 124.239 118.328 126.729 128.483 127.293 126.372 
124.312 129.046 125.807 124.873 129.452 125.695 123.116 130.806 124.975 
123.618 131.476 124.841 149.724 98.9795 127.931 149.84 99.0144 127.948 
146.381 99.7928 127.825 148.855 99.1244 128.044 150.369 99.1648 127.548 
145.456 100.149 127.934 156.109 102.216 128.211 136.436 104.252 127.664 
127.682 110.39 127.67 127.85 109.769 128.383 145.279 110.331 128.173 
126.868 111.47 128.312 126.441 112.237 127.63 161.218 111.318 127.578 
160.319 111.927 127.744 125.51 115.231 128.106 139.465 118.27 127.206 
124.887 121.144 127.909 136.743 121.216 127.636 125.803 128.826 126.133 
148.418 99.0309 128.97 148.885 99.0482 128.957 149.581 99.0913 128.415 
152.44 100.01 128.676 139.128 103.14 128.994 140.59 102.633 128.191 
136.783 103.786 128.353 138.133 103.343 128.83 131.063 106.026 128.95 
129.258 107.294 129.482 129.881 106.741 129.356 143.801 109.575 129.4 
145.749 108.823 129.58 160.799 109.282 128.216 127.471 110.448 129.354 
126.59 112.114 128.48 142.95 111.447 128.689 159.553 111.731 128.275 
138.791 119.104 128.25 137.521 120.421 128.774 129.44 126.448 128.034 
129.8 126.108 128.451 127.108 127.312 127.546 126.908 127.762 127.101 
146.548 99.6264 129.352 147.443 99.2012 128.944 148.122 99.1213 129.381 
143.953 101.492 129.822 137.278 103.375 129.745 137.174 103.365 129.973 
135.284 103.574 129.923 136.07 103.491 129.81 138.058 103.368 129.587 
138.56 103.495 129.969 141.09 103.129 129.785 133.876 103.876 129.977 
128.127 108.961 129.607 142.452 108.146 130.457 144.069 108.549 129.913 
[...]
POINT_DATA 1098
COLOR_SCALARS scalars 3
0.121569 0.615686 0.352941 0.121569 0.615686 0.352941 0.121569 0.615686 0.352941 
0.121569 0.615686 0.352941 0.121569 0.615686 0.352941 
0.121569 0.615686 0.352941 0.121569 0.615686 0.352941 
0.121569 0.615686 0.352941 0.121569 0.615686 0.352941 
0.121569 0.615686 0.352941 0.121569 0.615686 0.352941 
0.121569 0.615686 0.352941 0.121569 0.615686 0.352941 
0.121569 0.615686 0.352941 0.121569 0.615686 0.352941 
0.121569 0.615686 0.352941 0.121569 0.615686 0.352941 
0.121569 0.615686 0.352941 0.121569 0.615686 0.352941 
0.121569 0.615686 0.352941 0.121569 0.615686 0.352941 
0.121569 0.615686 0.352941 0.121569 0.615686 0.352941 
0.121569 0.615686 0.352941 0.121569 0.615686 0.352941 
0.121569 0.615686 0.352941 0.121569 0.615686 0.352941 
0.121569 0.615686 0.352941 0.121569 0.615686 0.352941 
0.121569 0.615686 0.352941 0.121569 0.615686 0.352941 
0.121569 0.615686 0.352941 0.121569 0.615686 0.352941 
0.121569 0.615686 0.352941 0.121569 0.615686 0.352941 
0.121569 0.615686 0.352941 0.121569 0.615686 0.352941 
0.121569 0.615686 0.352941 0.121569 0.615686 0.352941 
0.121569 0.615686 0.352941 0.121569 0.615686 0.352941 
0.121569 0.615686 0.352941 0.121569 0.615686 0.352941 
0.121569 0.615686 0.352941 0.121569 0.615686 0.352941 
0.121569 0.615686 0.352941 0.121569 0.615686 0.352941 
0.121569 0.615686 0.352941 0.121569 0.615686 0.352941 
0.121569 0.615686 0.352941 0.121569 0.615686 0.352941 
0.121569 0.615686 0.352941 0.121569 0.615686 0.352941 
0.121569 0.615686 0.352941 0.121569 0.615686 0.352941 
0.121569 0.615686 0.352941 0.121569 0.615686 0.352941 
0.121569 0.615686 0.352941 0.121569 0.615686 0.352941 
0.121569 0.615686 0.352941 0.121569 0.615686 0.352941 
0.121569 0.615686 0.352941 0.121569 0.615686 0.352941 
0.121569 0.615686 0.352941 0.121569 0.615686 0.352941 
0.121569 0.615686 0.352941 0.121569 0.615686 0.352941 
0.121569 0.615686 0.352941 0.121569 0.615686 0.352941 
0.121569 0.615686 0.352941 0.121569 0.615686 0.352941 
0.121569 0.615686 0.352941 0.121569 0.615686 0.352941 
0.121569 0.615686 0.352941 0.121569 0.615686 0.352941 
0.121569 0.615686 0.352941 0.121569 0.615686 0.352941 
0.121569 0.615686 0.352941 0.121569 0.615686 0.352941 
0.121569 0.615686 0.352941 0.121569 0.615686 0.352941 
0.121569 0.615686 0.352941 0.121569 0.615686 0.352941 
0.121569 0.615686 0.352941 0.121569 0.615686 0.352941 
0.121569 0.615686 0.352941 0.121569 0.615686 0.352941 
0.121569 0.615686 0.352941 0.121569 0.615686 0.352941 
0.121569 0.615686 0.352941 0.121569 0.615686 0.352941 
0.121569 0.615686 0.352941 0.121569 0.615686 0.352941 
0.121569 0.615686 0.352941 0.121569 0.615686 0.352941 
0.121569 0.615686 0.352941 0.121569 0.615686 0.352941 
0.121569 0.615686 0.352941 0.121569 0.615686 0.352941 
0.121569 0.615686 0.352941 0.121569 0.615686 0.352941 
0.121569 0.615686 0.352941 0.121569 0.615686 0.352941 
0.121569 0.615686 0.352941 0.121569 0.615686 0.352941 
0.121569 0.615686 0.352941 0.121569 0.615686 0.352941 
0.121569 0.615686 0.352941 0.121569 0.615686 0.352941 
0.121569 0.615686 0.352941 0.121569 0.615686 0.352941 
0.121569 0.615686 0.352941 0.121569 0.615686 0.352941 
0.121569 0.615686 0.352941 0.121569 0.615686 0.352941 
0.121569 0.615686 0.352941 0.121569 0.615686 0.352941 
0.121569 0.615686 0.352941 0.121569 0.615686 0.352941 
0.121569 0.615686 0.352941 0.121569 0.615686 0.352941 
0.121569 0.615686 0.352941 0.121569 0.615686 0.352941 
0.121569 0.615686 0.352941 0.121569 0.615686 0.352941 
0.121569 0.615686 0.352941 0.121569 0.615686 0.352941 
0.121569 0.615686 0.352941 0.121569 0.615686 0.352941 
0.121569 0.615686 0.352941 0.121569 0.615686 0.352941 
0.121569 0.615686 0.352941 0.121569 0.615686 0.352941 
0.121569 0.615686 0.352941 0.121569 0.615686 0.352941 
0.121569 0.615686 0.352941 0.121569 0.615686 0.352941 
0.121569 0.615686 0.352941 0.121569 0.615686 0.352941 
0.121569 0.615686 0.352941 0.121569 0.615686 0.352941 
0.121569 0.615686 0.352941 0.121569 0.615686 0.352941 
0.121569 0.615686 0.352941 0.121569 0.615686 0.352941 
0.121569 0.615686 0.352941 0.121569 0.615686 0.352941 
0.121569 0.615686 0.352941 0.121569 0.615686 0.352941 
0.121569 0.615686 0.352941 0.121569 0.615686 0.352941 
0.121569 0.615686 0.352941 0.121569 0.615686 0.352941 
0.121569 0.615686 0.352941 0.121569 0.615686 0.352941 
0.121569 0.615686 0.352941 0.121569 0.615686 0.352941 
0.121569 0.615686 0.352941 0.121569 0.615686 0.352941 
0.121569 0.615686 0.352941 0.121569 0.615686 0.352941 
0.121569 0.615686 0.352941 0.121569 0.615686 0.352941 
0.121569 0.615686 0.352941 0.121569 0.615686 0.352941 
0.121569 0.615686 0.352941 0.121569 0.615686 0.352941 
0.121569 0.615686 0.352941 0.121569 0.615686 0.352941 
0.121569 0.615686 0.352941 0.121569 0.615686 0.352941 
0.121569 0.615686 0.352941 0.121569 0.615686 0.352941 
0.121569 0.615686 0.352941 0.121569 0.615686 0.352941 
0.121569 0.615686 0.352941 0.121569 0.615686 0.352941 
0.121569 0.615686 0.352941 0.121569 0.615686 0.352941 
0.121569 0.615686 0.352941 0.121569 0.615686 0.352941 
0.121569 0.615686 0.352941 0.121569 0.615686 0.352941 
0.121569 0.615686 0.352941 0.121569 0.615686 0.352941 
0.121569 0.615686 0.352941 0.121569 0.615686 0.352941 
0.121569 0.615686 0.352941 0.121569 0.615686 0.352941 
0.121569 0.615686 0.352941 0.121569 0.615686 0.352941 
0.121569 0.615686 0.352941 0.121569 0.615686 0.352941 
0.121569 0.615686 0.352941 0.121569 0.615686 0.352941 
0.121569 0.615686 0.352941 0.121569 0.615686 0.352941 
0.121569 0.615686 0.352941 0.121569 0.615686 0.352941 
0.121569 0.615686 0.352941 0.121569 0.615686 0.352941 
0.121569 0.615686 0.352941 0.121569 0.615686 0.352941 
0.121569 0.615686 0.352941 0.121569 0.615686 0.352941 
0.121569 0.615686 0.352941 0.121569 0.615686 0.352941 
0.121569 0.615686 0.352941 0.121569 0.615686 0.352941 
0.121569 0.615686 0.352941 0.121569 0.615686 0.352941 
0.121569 0.615686 0.352941 0.121569 0.615686 0.352941 
0.121569 0.615686 0.352941 0.121569 0.615686 0.352941 
0.121569 0.615686 0.352941 0.121569 0.615686 0.352941 
0.121569 0.615686 0.352941 0.121569 0.615686 0.352941 
0.121569 0.615686 0.352941 0.121569 0.615686 0.352941 
0.121569 0.615686 0.352941 0.121569 0.615686 0.352941 
0.121569 0.615686 0.352941 0.121569 0.615686 0.352941 
0.121569 0.615686 0.352941 0.121569 0.615686 0.352941 
0.121569 0.615686 0.352941 0.121569 0.615686 0.352941 
0.121569 0.615686 0.352941 0.121569 0.615686 0.352941 
0.121569 0.615686 0.352941 0.121569 0.615686 0.352941 
0.121569 0.615686 0.352941 0.121569 0.615686 0.352941 
0.121569 0.615686 0.352941 0.121569 0.615686 0.352941 
0.121569 0.615686 0.352941 0.121569 0.615686 0.352941 
0.121569 0.615686 0.352941 0.121569 0.615686 0.352941 
0.121569 0.615686 0.352941 0.121569 0.615686 0.352941 
0.121569 0.615686 0.352941 0.121569 0.615686 0.352941 
0.121569 0.615686 0.352941 0.121569 0.615686 0.352941 
0.121569 0.615686 0.352941 0.121569 0.615686 0.352941 
0.121569 0.615686 0.352941 0.121569 0.615686 0.352941 
0.121569 0.615686 0.352941 0.121569 0.615686 0.352941 
0.121569 0.615686 0.352941 0.121569 0.615686 0.352941 
0.121569 0.615686 0.352941 0.121569 0.615686 0.352941 
0.121569 0.615686 0.352941 0.121569 0.615686 0.352941 
0.121569 0.615686 0.352941 0.121569 0.615686 0.352941 
0.121569 0.615686 0.352941 0.121569 0.615686 0.352941 
0.121569 0.615686 0.352941 0.121569 0.615686 0.352941 
0.121569 0.615686 0.352941 0.121569 0.615686 0.352941 
0.121569 0.615686 0.352941 0.121569 0.615686 0.352941 
0.121569 0.615686 0.352941 0.121569 0.615686 0.352941 
0.121569 0.615686 0.352941 0.121569 0.615686 0.352941 
0.121569 0.615686 0.352941 0.121569 0.615686 0.352941 
0.121569 0.615686 0.352941 0.121569 0.615686 0.352941 
0.121569 0.615686 0.352941 0.121569 0.615686 0.352941 
0.121569 0.615686 0.352941 0.121569 0.615686 0.352941 
0.121569 0.615686 0.352941 0.121569 0.615686 0.352941 
0.121569 0.615686 0.352941 0.121569 0.615686 0.352941 
0.121569 0.615686 0.352941 0.121569 0.615686 0.352941 
0.121569 0.615686 0.352941 0.121569 0.615686 0.352941 
0.121569 0.615686 0.352941 0.121569 0.615686 0.352941 
0.121569 0.615686 0.352941 0.121569 0.615686 0.352941 
0.121569 0.615686 0.352941 0.121569 0.615686 0.352941 
0.121569 0.615686 0.352941 0.121569 0.615686 0.352941 
0.121569 0.615686 0.352941 0.121569 0.615686 0.352941 
0.121569 0.615686 0.352941 0.121569 0.615686 0.352941 
0.121569 0.615686 0.352941 0.121569 0.615686 0.352941 
0.121569 0.615686 0.352941 0.121569 0.615686 0.352941 
0.121569 0.615686 0.352941 0.121569 0.615686 0.352941 
0.121569 0.615686 0.352941 0.121569 0.615686 0.352941 
0.121569 0.615686 0.352941 0.121569 0.615686 0.352941 
0.121569 0.615686 0.352941 0.121569 0.615686 0.352941 
0.121569 0.615686 0.352941 0.121569 0.615686 0.352941 
0.121569 0.615686 0.352941 0.121569 0.615686 0.352941 
0.121569 0.615686 0.352941 0.121569 0.615686 0.352941 
0.121569 0.615686 0.352941 0.121569 0.615686 0.352941 
0.121569 0.615686 0.352941 0.121569 0.615686 0.352941 
0.121569 0.615686 0.352941 0.121569 0.615686 0.352941 
0.121569 0.615686 0.352941 0.121569 0.615686 0.352941 
0.121569 0.615686 0.352941 0.121569 0.615686 0.352941 
0.121569 0.615686 0.352941 0.121569 0.615686 0.352941 
0.121569 0.615686 0.352941 0.121569 0.615686 0.352941 
0.121569 0.615686 0.352941 0.121569 0.615686 0.352941 
0.121569 0.615686 0.352941 0.121569 0.615686 0.352941 
0.121569 0.615686 0.352941 0.121569 0.615686 0.352941 
0.121569 0.615686 0.352941 0.121569 0.615686 0.352941 
0.121569 0.615686 0.352941 0.121569 0.615686 0.352941 
0.121569 0.615686 0.352941 0.121569 0.615686 0.352941 
0.121569 0.615686 0.352941 0.121569 0.615686 0.352941 
0.121569 0.615686 0.352941 0.121569 0.615686 0.352941 
0.121569 0.615686 0.352941 0.121569 0.615686 0.352941 
0.121569 0.615686 0.352941 0.121569 0.615686 0.352941 
0.121569 0.615686 0.352941 0.121569 0.615686 0.352941 
0.121569 0.615686 0.352941 0.121569 0.615686 0.352941 
0.121569 0.615686 0.352941 0.121569 0.615686 0.352941 
0.121569 0.615686 0.352941 0.121569 0.615686 0.352941 
0.121569 0.615686 0.352941 0.121569 0.615686 0.352941 
0.121569 0.615686 0.352941 0.121569 0.615686 0.352941 
0.121569 0.615686 0.352941 0.121569 0.615686 0.352941 
0.121569 0.615686 0.352941 0.121569 0.615686 0.352941 
0.121569 0.615686 0.352941 0.121569 0.615686 0.352941 
0.121569 0.615686 0.352941 0.121569 0.615686 0.352941 
0.121569 0.615686 0.352941 0.121569 0.615686 0.352941 
0.121569 0.615686 0.352941 0.121569 0.615686 0.352941 
0.121569 0.615686 0.352941 0.121569 0.615686 0.352941 
0.121569 0.615686 0.352941 0.121569 0.615686 0.352941 
0.121569 0.615686 0.352941 0.121569 0.615686 0.352941 
0.121569 0.615686 0.352941 0.121569 0.615686 0.352941 
0.121569 0.615686 0.352941 0.121569 0.615686 0.352941 
0.121569 0.615686 0.352941 0.121569 0.615686 0.352941 
0.121569 0.615686 0.352941 0.121569 0.615686 0.352941 
0.121569 0.615686 0.352941 0.121569 0.615686 0.352941 
0.121569 0.615686 0.352941 0.121569 0.615686 0.352941 
0.121569 0.615686 0.352941 0.121569 0.615686 0.352941 
0.121569 0.615686 0.352941 0.121569 0.615686 0.352941 
0.121569 0.615686 0.352941 0.121569 0.615686 0.352941 
0.121569 0.615686 0.352941 0.121569 0.615686 0.352941 
0.121569 0.615686 0.352941 0.121569 0.615686 0.352941 
0.121569 0.615686 0.352941 0.121569 0.615686 0.352941 
0.121569 0.615686 0.352941 0.121569 0.615686 0.352941 
0.121569 0.615686 0.352941 0.121569 0.615686 0.352941 
0.121569 0.615686 0.352941 0.121569 0.615686 0.352941 
0.121569 0.615686 0.352941 0.121569 0.615686 0.352941 
0.121569 0.615686 0.352941 0.121569 0.615686 0.352941 
0.121569 0.615686 0.352941 0.121569 0.615686 0.352941 
0.121569 0.615686 0.352941 0.121569 0.615686 0.352941 
0.121569 0.615686 0.352941 0.121569 0.615686 0.352941 
0.121569 0.615686 0.352941 0.121569 0.615686 0.352941 
0.121569 0.615686 0.352941 0.121569 0.615686 0.352941 
0.121569 0.615686 0.352941 0.121569 0.615686 0.352941 
0.121569 0.615686 0.352941 0.121569 0.615686 0.352941 
0.121569 0.615686 0.352941 0.121569 0.615686 0.352941 
0.121569 0.615686 0.352941 0.121569 0.615686 0.352941 
0.121569 0.615686 0.352941 0.121569 0.615686 0.352941 
0.121569 0.615686 0.352941 0.121569 0.615686 0.352941 
0.121569 0.615686 0.352941 0.121569 0.615686 0.352941 
0.121569 0.615686 0.352941 0.121569 0.615686 0.352941 
0.121569 0.615686 0.352941 0.121569 0.615686 0.352941 
0.121569 0.615686 0.352941 0.121569 0.615686 0.352941 
0.121569 0.615686 0.352941 0.121569 0.615686 0.352941 
0.121569 0.615686 0.352941 0.121569 0.615686 0.352941 
0.121569 0.615686 0.352941 0.121569 0.615686 0.352941 
0.121569 0.615686 0.352941 0.121569 0.615686 0.352941 
0.121569 0.615686 0.352941 0.121569 0.615686 0.352941 
0.121569 0.615686 0.352941 0.121569 0.615686 0.352941 
0.121569 0.615686 0.352941 0.121569 0.615686 0.352941 
0.121569 0.615686 0.352941 0.121569 0.615686 0.352941 
0.121569 0.615686 0.352941 0.121569 0.615686 0.352941 
0.121569 0.615686 0.352941 0.121569 0.615686 0.352941 
0.121569 0.615686 0.352941 0.121569 0.615686 0.352941 
0.121569 0.615686 0.352941 0.121569 0.615686 0.352941 
0.121569 0.615686 0.352941 0.121569 0.615686 0.352941 
0.121569 0.615686 0.352941 0.121569 0.615686 0.352941 
0.121569 0.615686 0.352941 0.121569 0.615686 0.352941 
0.121569 0.615686 0.352941 0.121569 0.615686 0.352941 
0.121569 0.615686 0.352941 0.121569 0.615686 0.352941 
0.121569 0.615686 0.352941 0.121569 0.615686 0.352941 
0.121569 0.615686 0.352941 0.121569 0.615686 0.352941 
0.121569 0.615686 0.352941 0.121569 0.615686 0.352941 
0.121569 0.615686 0.352941 0.121569 0.615686 0.352941 
0.121569 0.615686 0.352941 0.121569 0.615686 0.352941 
0.121569 0.615686 0.352941 0.121569 0.615686 0.352941 
0.121569 0.615686 0.352941 0.121569 0.615686 0.352941 
0.121569 0.615686 0.352941 0.121569 0.615686 0.352941 
0.121569 0.615686 0.352941 0.121569 0.615686 0.352941 
0.121569 0.615686 0.352941 0.121569 0.615686 0.352941 
0.121569 0.615686 0.352941 0.121569 0.615686 0.352941 
0.121569 0.615686 0.352941 0.121569 0.615686 0.352941 
0.121569 0.615686 0.352941 0.121569 0.615686 0.352941 
0.121569 0.615686 0.352941 0.121569 0.615686 0.352941 
0.121569 0.615686 0.352941 0.121569 0.615686 0.352941 
0.121569 0.615686 0.352941 0.121569 0.615686 0.352941 
0.121569 0.615686 0.352941 0.121569 0.615686 0.352941 
0.121569 0.615686 0.352941 0.121569 0.615686 0.352941 
0.121569 0.615686 0.352941 0.121569 0.615686 0.352941 
0.121569 0.615686 0.352941 0.121569 0.615686 0.352941 
0.121569 0.615686 0.352941 0.121569 0.615686 0.352941 
0.121569 0.615686 0.352941 0.121569 0.615686 0.352941 
0.121569 0.615686 0.352941 0.121569 0.615686 0.352941 
0.121569 0.615686 0.352941 0.121569 0.615686 0.352941 
0.121569 0.615686 0.352941 0.121569 0.615686 0.352941 
0.121569 0.615686 0.352941 0.121569 0.615686 0.352941 
0.121569 0.615686 0.352941 0.121569 0.615686 0.352941 
0.121569 0.615686 0.352941 0.121569 0.615686 0.352941 
0.121569 0.615686 0.352941 0.121569 0.615686 0.352941 
0.121569 0.615686 0.352941 0.121569 0.615686 0.352941 
0.121569 0.615686 0.352941 0.121569 0.615686 0.352941 
0.121569 0.615686 0.352941 0.121569 0.615686 0.352941 
0.121569 0.615686 0.352941 0.121569 0.615686 0.352941 
0.121569 0.615686 0.352941 0.121569 0.615686 0.352941 
0.121569 0.615686 0.352941 0.121569 0.615686 0.352941 
0.121569 0.615686 0.352941 0.121569 0.615686 0.352941 
0.121569 0.615686 0.352941 0.121569 0.615686 0.352941 
0.121569 0.615686 0.352941 0.121569 0.615686 0.352941 
0.121569 0.615686 0.352941 0.121569 0.615686 0.352941 
0.121569 0.615686 0.352941 0.121569 0.615686 0.352941 
0.121569 0.615686 0.352941 0.121569 0.615686 0.352941 
0.121569 0.615686 0.352941 0.121569 0.615686 0.352941 
0.121569 0.615686 0.352941 0.121569 0.615686 0.352941 
0.121569 0.615686 0.352941 0.121569 0.615686 0.352941 
0.121569 0.615686 0.352941 0.121569 0.615686 0.352941 
0.121569 0.615686 0.352941 0.121569 0.615686 0.352941 
0.121569 0.615686 0.352941 0.121569 0.615686 0.352941 
0.121569 0.615686 0.352941 0.121569 0.615686 0.352941 
0.121569 0.615686 0.352941 0.121569 0.615686 0.352941 
0.121569 0.615686 0.352941 0.121569 0.615686 0.352941 
0.121569 0.615686 0.352941 0.121569 0.615686 0.352941 
0.121569 0.615686 0.352941 0.121569 0.615686 0.352941 
0.121569 0.615686 0.352941 0.121569 0.615686 0.352941 
0.121569 0.615686 0.352941 0.121569 0.615686 0.352941 
0.121569 0.615686 0.352941 0.121569 0.615686 0.352941 
0.121569 0.615686 0.352941 0.121569 0.615686 0.352941 
0.121569 0.615686 0.352941 0.121569 0.615686 0.352941 
0.121569 0.615686 0.352941 0.121569 0.615686 0.352941 
0.121569 0.615686 0.352941 0.121569 0.615686 0.352941 
0.121569 0.615686 0.352941 0.121569 0.615686 0.352941 
0.121569 0.615686 0.352941 0.121569 0.615686 0.352941 
0.121569 0.615686 0.352941 0.121569 0.615686 0.352941 
0.121569 0.615686 0.352941 0.121569 0.615686 0.352941 
0.121569 0.615686 0.352941 0.121569 0.615686 0.352941 
0.121569 0.615686 0.352941 0.121569 0.615686 0.352941 
0.121569 0.615686 0.352941 0.121569 0.615686 0.352941 
0.121569 0.615686 0.352941 0.121569 0.615686 0.352941 
0.121569 0.615686 0.352941 0.121569 0.615686 0.352941 
0.121569 0.615686 0.352941 0.121569 0.615686 0.352941 
0.121569 0.615686 0.352941 0.121569 0.615686 0.352941 
0.121569 0.615686 0.352941 0.121569 0.615686 0.352941 
0.121569 0.615686 0.352941 0.121569 0.615686 0.352941 
0.121569 0.615686 0.352941 0.121569 0.615686 0.352941 
0.121569 0.615686 0.352941 0.121569 0.615686 0.352941 
0.121569 0.615686 0.352941 0.121569 0.615686 0.352941 
0.121569 0.615686 0.352941 0.121569 0.615686 0.352941 
0.121569 0.615686 0.352941 0.121569 0.615686 0.352941 
0.121569 0.615686 0.352941 0.121569 0.615686 0.352941 
0.121569 0.615686 0.352941 0.121569 0.615686 0.352941 
0.121569 0.615686 0.352941 0.121569 0.615686 0.352941 
0.121569 0.615686 0.352941 0.121569 0.615686 0.352941 
0.121569 0.615686 0.352941 0.121569 0.615686 0.352941 
0.121569 0.615686 0.352941 0.121569 0.615686 0.352941 
0.121569 0.615686 0.352941 0.121569 0.615686 0.352941 
0.121569 0.615686 0.352941 0.121569 0.615686 0.352941 
0.121569 0.615686 0.352941 0.121569 0.615686 0.352941 
0.121569 0.615686 0.352941 0.121569 0.615686 0.352941 
0.121569 0.615686 0.352941 0.121569 0.615686 0.352941 
0.121569 0.615686 0.352941 0.121569 0.615686 0.352941 
0.121569 0.615686 0.352941 0.121569 0.615686 0.352941 
0.121569 0.615686 0.352941 0.121569 0.615686 0.352941 
0.121569 0.615686 0.352941 0.121569 0.615686 0.352941 
0.121569 0.615686 0.352941 0.121569 0.615686 0.352941 
0.121569 0.615686 0.352941 0.121569 0.615686 0.352941 
0.121569 0.615686 0.352941 0.121569 0.615686 0.352941 
0.121569 0.615686 0.352941 0.121569 0.615686 0.352941 
0.121569 0.615686 0.352941 0.121569 0.615686 0.352941 
0.121569 0.615686 0.352941 0.121569 0.615686 0.352941 
0.121569 0.615686 0.352941 0.121569 0.615686 0.352941 
0.121569 0.615686 0.352941 0.121569 0.615686 0.352941 
0.121569 0.615686 0.352941 0.121569 0.615686 0.352941 
0.121569 0.615686 0.352941 0.121569 0.615686 0.352941 
0.121569 0.615686 0.352941 0.121569 0.615686 0.352941 
0.121569 0.615686 0.352941 0.121569 0.615686 0.352941 
0.121569 0.615686 0.352941 0.121569 0.615686 0.352941 
0.121569 0.615686 0.352941 0.121569 0.615686 0.352941 
0.121569 0.615686 0.352941 0.121569 0.615686 0.352941 
0.121569 0.615686 0.352941 0.121569 0.615686 0.352941 
0.121569 0.615686 0.352941 0.121569 0.615686 0.352941 
0.121569 0.615686 0.352941 0.121569 0.615686 0.352941 
0.121569 0.615686 0.352941 0.121569 0.615686 0.352941 
0.121569 0.615686 0.352941 0.121569 0.615686 0.352941 
0.121569 0.615686 0.352941 0.121569 0.615686 0.352941 
0.121569 0.615686 0.352941 0.121569 0.615686 0.352941 
0.121569 0.615686 0.352941 0.121569 0.615686 0.352941 
0.121569 0.615686 0.352941 0.121569 0.615686 0.352941 
0.121569 0.615686 0.352941 0.121569 0.615686 0.352941 
0.121569 0.615686 0.352941 0.121569 0.615686 0.352941 
0.121569 0.615686 0.352941 0.121569 0.615686 0.352941 
0.121569 0.615686 0.352941 0.121569 0.615686 0.352941 
0.121569 0.615686 0.352941 0.121569 0.615686 0.352941 
0.121569 0.615686 0.352941 0.121569 0.615686 0.352941 