# vtk DataFile Version 4.2
vtk output
ASCII
DATASET POLYDATA
POINTS 1505 float
152.049 153.301 97.2737 152.177 145.442 97.7579 152.068 150.14 97.4741 
153.294 150.388 97.8055 150.439 152.466 97.4317 150.179 160.201 97.6566 
151.567 159.214 97.7318 149.958 161.991 97.7233 151.488 161.885 97.9858 
149.455 165.71 97.8905 149.984 165.781 97.8912 150.26 166.197 97.9839 
149.615 167.718 98.2116 149.246 168.556 98.4728 149.446 168.627 98.5181 
149.777 168.58 98.7114 149.327 168.705 98.5513 152.387 139.997 98.6956 
153.039 139.484 98.8966 153.206 140.972 98.6584 152.646 159.736 98.2668 
148.886 164.567 97.9432 150.998 165.742 98.1627 148.366 167.59 98.5671 
149.478 168.83 99.1711 149.44 168.737 98.6898 150.262 168.747 99.2293 
154.311 134.753 100.182 154.112 135.867 99.8456 153.858 137.254 99.5835 
154.384 136.914 99.8332 150.425 140.378 98.9787 155.068 146.203 98.9785 
147.991 153.805 98.3919 147.213 160.798 98.7 151.823 166.798 98.888 
147.64 167.892 99.464 150.93 168.16 98.948 150.77 168.546 99.2008 
152.145 134.449 100.108 155.057 134.779 100.578 151.337 135.959 99.8528 
154.884 136.603 100.173 155.901 152.865 99.8895 148.185 168.783 100.33 
150.771 169.316 100.879 152.135 168.429 100.128 155.611 134.973 100.989 
145.567 164.646 100.066 145.177 165.722 100.755 144.938 166.59 101.675 
146.702 168.11 101.748 146.506 167.765 101.153 150.958 169.341 101.438 
151.777 169.157 101.083 152.47 168.872 101.083 156.593 126.708 102.562 
156.924 126.355 102.76 156.805 134.989 102.08 143.323 166.069 103.067 
144.237 166.036 101.948 154.507 167.364 101.847 145.275 167.374 102.698 
146.023 167.816 102.733 147.136 168.399 101.919 148.685 168.971 102.293 
148.988 168.98 102.747 151.972 169.245 101.611 153.023 168.698 101.366 
155.317 124.454 103.169 153.271 125.835 103.035 150.081 129.899 102.467 
143.135 138.683 102.836 147.831 168.677 102.437 155.292 168.034 103.212 
153.258 168.853 102.036 159.654 119.481 104.972 158.777 121.03 104.477 
158.341 120.867 104.44 157.287 121.036 104.374 141.091 164.541 104.385 
141.497 165.129 104.472 145.711 167.671 103.994 153.703 168.941 103.627 
154.808 168.776 103.894 159.879 120.222 105.002 159.682 154.355 104.7 
139.75 161.462 104.266 139.694 163.533 105.283 140.075 164.289 105.59 
158.28 164.669 104.871 140.353 164.768 105.94 155.718 168.615 105.484 
157.675 167.318 105.391 160.564 116.567 106.152 161.88 115.717 106.706 
161.286 123.842 106.051 159.717 135.683 105.532 160.352 148.852 106.37 
160.239 153.723 106.202 159.845 159.513 106.104 159.213 161.728 105.546 
138.169 163.149 106.903 141.14 165.451 106.43 141.616 165.669 106.273 
158.628 166 105.977 155.802 168.555 106.121 156.795 168.273 105.975 
162.928 112.955 107.714 161.355 114.338 107.124 160.64 114.138 107.268 
160.118 115.97 106.451 160.298 152.188 106.888 160.178 155.972 106.917 
160.089 157.324 106.391 136.485 160.928 107.111 159.446 162.551 106.949 
138.876 163.969 107.428 159.021 165.011 106.522 159.18 164.546 107.079 
140.717 165.157 107.238 141.064 165.414 106.871 141.272 165.453 107.275 
158.751 166.537 106.729 158.879 166.201 107.112 156.856 168.297 106.514 
157.098 168.168 106.912 158.021 167.605 106.36 158.322 167.441 106.702 
158.542 167.253 107.036 158.342 167.533 107.024 162.295 111.788 108.358 
163.749 112.044 108.418 159.036 114.498 107.466 162.625 124.681 107.661 
161.342 132.295 107.663 160.147 154.528 107.452 134.369 157.249 107.895 
134.696 158.967 108.028 159.691 160.8 107.582 159.237 164.057 107.662 
138.836 163.992 108.209 141.698 165.605 107.423 157.119 167.964 107.48 
157.941 167.756 107.292 158.083 167.501 107.646 158.46 167.402 107.26 
164.649 109.361 110.206 164.923 109.455 110.308 163.762 110.428 109.337 
165.505 110.478 110.137 160.199 111.523 109.079 156.216 114.592 108.646 
164.798 116.276 108.55 163.474 124.75 108.826 162.8 127.067 108.478 
162.711 128.152 108.741 162.146 130.563 108.735 161.623 132.682 108.699 
161.034 135.817 108.799 133.917 159.952 109.427 159.591 159.489 108.46 
134.197 160.544 109.623 135.703 162.029 109.652 150.395 167.407 108.502 
158.107 166.913 108.383 158.385 167.346 107.515 164.382 109.155 110.39 
163.964 109.159 110.329 165.022 109.42 110.553 165.664 109.954 110.921 
163.834 125.727 110.085 162.802 129.342 109.956 162.254 130.773 109.311 
162.631 129.877 110.088 161.977 131.786 109.866 132.627 157.063 109.322 
158.979 158.654 109.626 136.05 162.315 109.932 158.547 164.463 109.397 
155.883 167.476 109.405 163.663 108.898 110.659 163.663 108.753 110.841 
163.811 108.785 110.826 162.964 108.785 111.094 164.138 108.941 110.858 
157.973 111.289 110.601 166.932 112.43 111.302 166.955 112.139 111.621 
166.514 117.613 110.783 163.677 126.582 110.726 163.004 128.708 110.686 
162.023 131.189 110.798 132.333 132.966 110.718 161.707 132.235 110.445 
134.131 161.093 111.218 136.22 162.362 110.534 153.863 167.132 110.178 
156.362 167.281 109.443 162.717 108.531 111.681 161.867 108.635 112.009 
163.352 108.706 111.507 164.225 108.946 111.463 160.078 109.367 111.617 
164.845 109.376 112.335 166.203 110.448 112.367 167.163 117.21 111.766 
166.13 120.284 111.827 161.855 130.694 111.612 161.159 132.369 111.581 
158.188 141.086 111.987 129.969 157.501 112.564 130.273 158.008 112.84 
157.072 162.601 111.636 156.956 164.363 111.341 156.751 166.269 110.382 
160.153 108.914 112.875 160.952 108.647 112.791 162.792 108.558 111.801 
161.821 108.573 112.603 162.495 108.662 112.363 158.901 109.7 112.569 
159.012 109.567 113.045 155.052 111.879 113.246 153.221 112.809 112.69 
149.484 113.855 113.374 167.722 114.524 112.996 167.846 115.576 113.403 
167.235 118.016 112.373 167.076 118.61 112.438 167.077 118.81 112.758 
166.569 119.741 112.994 160.728 130.509 113.181 141.301 163.364 112.929 
160.623 108.85 113.261 161.51 108.848 113.265 158.993 109.651 113.361 
164.472 109.699 113.317 152.796 112.694 113.853 156.139 111.579 114.274 
167.303 113.188 114.137 167.854 114.98 114.014 167.703 116.868 113.61 
167.196 118.473 113.407 166.292 119.977 113.645 163.19 124.533 114.301 
127.286 154.447 113.642 127.715 155.94 114.515 130.06 158.082 114.004 
154.591 162.332 113.935 153.773 164.725 113.089 155.286 165.243 111.982 
154.975 112.055 114.347 166.563 112.263 114.232 167.468 114.122 114.69 
167.798 115.895 114.705 167.513 117.266 114.134 167.308 117.489 114.501 
166.87 118.206 114.664 166.24 119.05 114.885 160.243 128.875 114.546 
124.864 141.859 114.574 128.215 156.739 115.768 130.827 158.477 114.59 
131.241 158.475 115.252 131.81 158.769 115.211 133.985 159.516 115.545 
153.536 164.212 113.647 145.967 112.838 116.604 149.794 112.999 116.297 
158.668 112.516 116.261 166.803 113.385 114.906 153.183 112.976 116.353 
167.626 115.553 114.944 167.744 115.803 114.833 167.573 115.886 115 
137.768 117.637 115.164 166.573 117.334 115.419 164.125 120.462 116.189 
131.599 122.575 115.803 150.047 163.36 115.386 142.352 113.106 117.285 
166.391 114.262 115.475 137.945 115.253 117.342 165.886 116.584 116.103 
124.881 131.947 117.386 122.826 139.234 117.228 125.1 154.489 116.956 
125.551 154.944 117.082 127.406 156.012 117.242 142.841 112.738 118.203 
155.723 113.445 117.522 154.742 113.65 118.427 161.056 115.821 118.483 
132.291 119.905 117.376 128.657 123.403 118.048 126.905 126.2 118.213 
126.436 127.896 117.562 122.713 137.373 118.249 121.814 149.853 117.959 
122.712 152.396 118.412 125.18 154.731 117.958 125.989 155.232 118.169 
139.465 113.772 118.42 147.229 112.511 118.914 134.658 116.87 119.358 
135.573 116.395 118.438 162.57 118.747 118.128 128.007 123.537 119.718 
127.223 124.912 119.275 127.822 124.188 118.586 125.669 128.712 118.966 
122.297 137.668 119.47 121.384 141.099 119.246 121.13 150.741 119.429 
122.662 152.781 119.41 124.597 154.093 119.061 127.025 155.286 119.3 
148.666 158.17 119.085 143.582 160.48 118.698 147.395 161.432 117.819 
141.793 112.851 119.789 145.301 112.292 120.335 134.506 116.989 119.551 
157.019 114.688 119.949 133.596 117.831 119.629 134.422 117.155 119.811 
129.618 121.696 120.197 127.791 123.913 119.976 127.117 125.44 120.421 
125.946 128.057 120.166 121.07 151.343 120.314 122.923 153.004 119.686 
146.959 159.822 119.161 143.071 112.628 121.366 138.699 114.446 120.702 
141.307 113.399 121.867 154.438 113.809 120.82 158.815 116.096 120.738 
159.543 116.651 120.519 127.971 124.603 121.481 119.335 145.502 121.183 
119.536 149.952 121.476 123.234 152.821 121.517 145.747 112.064 121.998 
142.648 112.875 122.514 159.23 117.451 121.537 160.121 118.527 120.767 
119.221 144.999 121.934 118.897 148.555 122.393 118.969 149.232 122.244 
119.769 150.889 122.355 120.566 151.345 122.382 135.725 155.912 122.183 
158.646 116.914 121.996 157.152 121.554 122.732 121.431 140.894 123.428 
120.194 142.924 122.496 119.731 143.895 122.47 119.207 145.689 122.614 
119.394 145.469 123.08 118.985 147.271 122.83 118.76 149.826 122.98 
118.798 150.034 123.008 120.656 151.286 122.899 120.987 151.257 123.246 
140.702 156.53 122.477 142.44 156.865 122.209 154.869 113.369 123.934 
119.822 145.933 123.989 119.382 146.749 123.604 119.065 147.967 123.28 
119.263 148.167 123.613 118.813 149.693 123.148 118.99 149.314 123.275 
118.827 149.932 123.147 118.907 150.115 123.106 119.729 150.565 123.197 
119.992 150.94 122.898 141.117 114.535 125.141 156.769 115.134 124.169 
157.318 116.557 124.475 157.482 117.448 124.297 134.559 121.407 125.042 
122.279 142.263 125.4 120.186 147.606 124.641 119.347 149.692 123.568 
119.392 150.163 123.388 120.789 149.523 124.741 120.692 150.174 124.234 
140.233 152.894 124.909 144.224 111.817 125.373 156.793 115.525 126.137 
136.481 120.126 125.602 130.206 125.586 126.3 123.439 137.365 125.269 
141.706 138.13 126.317 121.356 148.37 125.599 154.898 112.088 126.594 
156.642 114.802 127.066 156.834 115.492 126.53 156.813 115.499 126.684 
143.829 131.765 127.161 123.003 148.334 126.759 147.793 109.361 128.126 
143.634 110.929 127.637 154.553 111.352 127.466 156.455 113.97 127.972 
156.698 114.709 127.465 156.679 114.696 127.623 156.531 115.295 127.506 
[...]
POINT_DATA 1505
COLOR_SCALARS scalars 3
0.121569 0.615686 0.352941 0.121569 0.615686 0.352941 0.121569 0.615686 0.352941 
0.121569 0.615686 0.352941 0.121569 0.615686 0.352941 
0.121569 0.615686 0.352941 0.121569 0.615686 0.352941 
0.121569 0.615686 0.352941 0.121569 0.615686 0.352941 
0.121569 0.615686 0.352941 0.121569 0.615686 0.352941 
0.121569 0.615686 0.352941 0.121569 0.615686 0.352941 
0.121569 0.615686 0.352941 0.121569 0.615686 0.352941 
0.121569 0.615686 0.352941 0.121569 0.615686 0.352941 
0.121569 0.615686 0.352941 0.121569 0.615686 0.352941 
0.121569 0.615686 0.352941 0.121569 0.615686 0.352941 
0.121569 0.615686 0.352941 0.121569 0.615686 0.352941 
0.121569 0.615686 0.352941 0.121569 0.615686 0.352941 
0.121569 0.615686 0.352941 0.121569 0.615686 0.352941 
0.121569 0.615686 0.352941 0.121569 0.615686 0.352941 
0.121569 0.615686 0.352941 0.121569 0.615686 0.352941 
0.121569 0.615686 0.352941 0.121569 0.615686 0.352941 
0.121569 0.615686 0.352941 0.121569 0.615686 0.352941 
0.121569 0.615686 0.352941 0.121569 0.615686 0.352941 
0.121569 0.615686 0.352941 0.121569 0.615686 0.352941 
0.121569 0.615686 0.352941 0.121569 0.615686 0.352941 
0.121569 0.615686 0.352941 0.121569 0.615686 0.352941 
0.121569 0.615686 0.352941 0.121569 0.615686 0.352941 
0.121569 0.615686 0.352941 0.121569 0.615686 0.352941 
0.121569 0.615686 0.352941 0.121569 0.615686 0.352941 
0.121569 0.615686 0.352941 0.121569 0.615686 0.352941 
0.121569 0.615686 0.352941 0.121569 0.615686 0.352941 
0.121569 0.615686 0.352941 0.121569 0.615686 0.352941 
0.121569 0.615686 0.352941 0.121569 0.615686 0.352941 
0.121569 0.615686 0.352941 0.121569 0.615686 0.352941 
0.121569 0.615686 0.352941 0.121569 0.615686 0.352941 
0.121569 0.615686 0.352941 0.121569 0.615686 0.352941 
0.121569 0.615686 0.352941 0.121569 0.615686 0.352941 
0.121569 0.615686 0.352941 0.121569 0.615686 0.352941 
0.121569 0.615686 0.352941 0.121569 0.615686 0.352941 
0.121569 0.615686 0.352941 0.121569 0.615686 0.352941 
0.121569 0.615686 0.352941 0.121569 0.615686 0.352941 
0.121569 0.615686 0.352941 0.121569 0.615686 0.352941 
0.121569 0.615686 0.352941 0.121569 0.615686 0.352941 
0.121569 0.615686 0.352941 0.121569 0.615686 0.352941 
0.121569 0.615686 0.352941 0.121569 0.615686 0.352941 
0.121569 0.615686 0.352941 0.121569 0.615686 0.352941 
0.121569 0.615686 0.352941 0.121569 0.615686 0.352941 
0.121569 0.615686 0.352941 0.121569 0.615686 0.352941 
0.121569 0.615686 0.352941 0.121569 0.615686 0.352941 
0.121569 0.615686 0.352941 0.121569 0.615686 0.352941 
0.121569 0.615686 0.352941 0.121569 0.615686 0.352941 
0.121569 0.615686 0.352941 0.121569 0.615686 0.352941 
0.121569 0.615686 0.352941 0.121569 0.615686 0.352941 
0.121569 0.615686 0.352941 0.121569 0.615686 0.352941 
0.121569 0.615686 0.352941 0.121569 0.615686 0.352941 
0.121569 0.615686 0.352941 0.121569 0.615686 0.352941 
0.121569 0.615686 0.352941 0.121569 0.615686 0.352941 
0.121569 0.615686 0.352941 0.121569 0.615686 0.352941 
0.121569 0.615686 0.352941 0.121569 0.615686 0.352941 
0.121569 0.615686 0.352941 0.121569 0.615686 0.352941 
0.121569 0.615686 0.352941 0.121569 0.615686 0.352941 
0.121569 0.615686 0.352941 0.121569 0.615686 0.352941 
0.121569 0.615686 0.352941 0.121569 0.615686 0.352941 
0.121569 0.615686 0.352941 0.121569 0.615686 0.352941 
0.121569 0.615686 0.352941 0.121569 0.615686 0.352941 
0.121569 0.615686 0.352941 0.121569 0.615686 0.352941 
0.121569 0.615686 0.352941 0.121569 0.615686 0.352941 
0.121569 0.615686 0.352941 0.121569 0.615686 0.352941 
0.121569 0.615686 0.352941 0.121569 0.615686 0.352941 
0.121569 0.615686 0.352941 0.121569 0.615686 0.352941 
0.121569 0.615686 0.352941 0.121569 0.615686 0.352941 
0.121569 0.615686 0.352941 0.121569 0.615686 0.352941 
0.121569 0.615686 0.352941 0.121569 0.615686 0.352941 
0.121569 0.615686 0.352941 0.121569 0.615686 0.352941 
0.121569 0.615686 0.352941 0.121569 0.615686 0.352941 
0.121569 0.615686 0.352941 0.121569 0.615686 0.352941 
0.121569 0.615686 0.352941 0.121569 0.615686 0.352941 
0.121569 0.615686 0.352941 0.121569 0.615686 0.352941 
0.121569 0.615686 0.352941 0.121569 0.615686 0.352941 
0.121569 0.615686 0.352941 0.121569 0.615686 0.352941 
0.121569 0.615686 0.352941 0.121569 0.615686 0.352941 
0.121569 0.615686 0.352941 0.121569 0.615686 0.352941 
0.121569 0.615686 0.352941 0.121569 0.615686 0.352941 
0.121569 0.615686 0.352941 0.121569 0.615686 0.352941 
0.121569 0.615686 0.352941 0.121569 0.615686 0.352941 
0.121569 0.615686 0.352941 0.121569 0.615686 0.352941 
0.121569 0.615686 0.352941 0.121569 0.615686 0.352941 
0.121569 0.615686 0.352941 0.121569 0.615686 0.352941 
0.121569 0.615686 0.352941 0.121569 0.615686 0.352941 
0.121569 0.615686 0.352941 0.121569 0.615686 0.352941 
0.121569 0.615686 0.352941 0.121569 0.615686 0.352941 
0.121569 0.615686 0.352941 0.121569 0.615686 0.352941 
0.121569 0.615686 0.352941 0.121569 0.615686 0.352941 
0.121569 0.615686 0.352941 0.121569 0.615686 0.352941 
0.121569 0.615686 0.352941 0.121569 0.615686 0.352941 
0.121569 0.615686 0.352941 0.121569 0.615686 0.352941 
0.121569 0.615686 0.352941 0.121569 0.615686 0.352941 
0.121569 0.615686 0.352941 0.121569 0.615686 0.352941 
0.121569 0.615686 0.352941 0.121569 0.615686 0.352941 
0.121569 0.615686 0.352941 0.121569 0.615686 0.352941 
0.121569 0.615686 0.352941 0.121569 0.615686 0.352941 
0.121569 0.615686 0.352941 0.121569 0.615686 0.352941 
0.121569 0.615686 0.352941 0.121569 0.615686 0.352941 
0.121569 0.615686 0.352941 0.121569 0.615686 0.352941 
0.121569 0.615686 0.352941 0.121569 0.615686 0.352941 
0.121569 0.615686 0.352941 0.121569 0.615686 0.352941 
0.121569 0.615686 0.352941 0.121569 0.615686 0.352941 
0.121569 0.615686 0.352941 0.121569 0.615686 0.352941 
0.121569 0.615686 0.352941 0.121569 0.615686 0.352941 
0.121569 0.615686 0.352941 0.121569 0.615686 0.352941 
0.121569 0.615686 0.352941 0.121569 0.615686 0.352941 
0.121569 0.615686 0.352941 0.121569 0.615686 0.352941 
0.121569 0.615686 0.352941 0.121569 0.615686 0.352941 
0.121569 0.615686 0.352941 0.121569 0.615686 0.352941 
0.121569 0.615686 0.352941 0.121569 0.615686 0.352941 
0.121569 0.615686 0.352941 0.121569 0.615686 0.352941 
0.121569 0.615686 0.352941 0.121569 0.615686 0.352941 
0.121569 0.615686 0.352941 0.121569 0.615686 0.352941 
0.121569 0.615686 0.352941 0.121569 0.615686 0.352941 
0.121569 0.615686 0.352941 0.121569 0.615686 0.352941 
0.121569 0.615686 0.352941 0.121569 0.615686 0.352941 
0.121569 0.615686 0.352941 0.121569 0.615686 0.352941 
0.121569 0.615686 0.352941 0.121569 0.615686 0.352941 
0.121569 0.615686 0.352941 0.121569 0.615686 0.352941 
0.121569 0.615686 0.352941 0.121569 0.615686 0.352941 
0.121569 0.615686 0.352941 0.121569 0.615686 0.352941 
0.121569 0.615686 0.352941 0.121569 0.615686 0.352941 
0.121569 0.615686 0.352941 0.121569 0.615686 0.352941 
0.121569 0.615686 0.352941 0.121569 0.615686 0.352941 
0.121569 0.615686 0.352941 0.121569 0.615686 0.352941 
0.121569 0.615686 0.352941 0.121569 0.615686 0.352941 
0.121569 0.615686 0.352941 0.121569 0.615686 0.352941 
0.121569 0.615686 0.352941 0.121569 0.615686 0.352941 
0.121569 0.615686 0.352941 0.121569 0.615686 0.352941 
0.121569 0.615686 0.352941 0.121569 0.615686 0.352941 
0.121569 0.615686 0.352941 0.121569 0.615686 0.352941 
0.121569 0.615686 0.352941 0.121569 0.615686 0.352941 
0.121569 0.615686 0.352941 0.121569 0.615686 0.352941 
0.121569 0.615686 0.352941 0.121569 0.615686 0.352941 
0.121569 0.615686 0.352941 0.121569 0.615686 0.352941 
0.121569 0.615686 0.352941 0.121569 0.615686 0.352941 
0.121569 0.615686 0.352941 0.121569 0.615686 0.352941 
0.121569 0.615686 0.352941 0.121569 0.615686 0.352941 
0.121569 0.615686 0.352941 0.121569 0.615686 0.352941 
0.121569 0.615686 0.352941 0.121569 0.615686 0.352941 
0.121569 0.615686 0.352941 0.121569 0.615686 0.352941 
0.121569 0.615686 0.352941 0.121569 0.615686 0.352941 
0.121569 0.615686 0.352941 0.121569 0.615686 0.352941 
0.121569 0.615686 0.352941 0.121569 0.615686 0.352941 
0.121569 0.615686 0.352941 0.121569 0.615686 0.352941 
0.121569 0.615686 0.352941 0.121569 0.615686 0.352941 
0.121569 0.615686 0.352941 0.121569 0.615686 0.352941 
0.121569 0.615686 0.352941 0.121569 0.615686 0.352941 
0.121569 0.615686 0.352941 0.121569 0.615686 0.352941 
0.121569 0.615686 0.352941 0.121569 0.615686 0.352941 
0.121569 0.615686 0.352941 0.121569 0.615686 0.352941 
0.121569 0.615686 0.352941 0.121569 0.615686 0.352941 
0.121569 0.615686 0.352941 0.121569 0.615686 0.352941 
0.121569 0.615686 0.352941 0.121569 0.615686 0.352941 
0.121569 0.615686 0.352941 0.121569 0.615686 0.352941 
0.121569 0.615686 0.352941 0.121569 0.615686 0.352941 
0.121569 0.615686 0.352941 0.121569 0.615686 0.352941 
0.121569 0.615686 0.352941 0.121569 0.615686 0.352941 
0.121569 0.615686 0.352941 0.121569 0.615686 0.352941 
0.121569 0.615686 0.352941 0.121569 0.615686 0.352941 
0.121569 0.615686 0.352941 0.121569 0.615686 0.352941 
0.121569 0.615686 0.352941 0.121569 0.615686 0.352941 
0.121569 0.615686 0.352941 0.121569 0.615686 0.352941 
0.121569 0.615686 0.352941 0.121569 0.615686 0.352941 
0.121569 0.615686 0.352941 0.121569 0.615686 0.352941 
0.121569 0.615686 0.352941 0.121569 0.615686 0.352941 
0.121569 0.615686 0.352941 0.121569 0.615686 0.352941 
0.121569 0.615686 0.352941 0.121569 0.615686 0.352941 
0.121569 0.615686 0.352941 0.121569 0.615686 0.352941 
0.121569 0.615686 0.352941 0.121569 0.615686 0.352941 
0.121569 0.615686 0.352941 0.121569 0.615686 0.352941 
0.121569 0.615686 0.352941 0.121569 0.615686 0.352941 
0.121569 0.615686 0.352941 0.121569 0.615686 0.352941 
0.121569 0.615686 0.352941 0.121569 0.615686 0.352941 
0.121569 0.615686 0.352941 0.121569 0.615686 0.352941 
0.121569 0.615686 0.352941 0.121569 0.615686 0.352941 
0.121569 0.615686 0.352941 0.121569 0.615686 0.352941 
0.121569 0.615686 0.352941 0.121569 0.615686 0.352941 
0.121569 0.615686 0.352941 0.121569 0.615686 0.352941 
0.121569 0.615686 0.352941 0.121569 0.615686 0.352941 
0.121569 0.615686 0.352941 0.121569 0.615686 0.352941 
0.121569 0.615686 0.352941 0.121569 0.615686 0.352941 
0.121569 0.615686 0.352941 0.121569 0.615686 0.352941 
0.121569 0.615686 0.352941 0.121569 0.615686 0.352941 
0.121569 0.615686 0.352941 0.121569 0.615686 0.352941 
0.121569 0.615686 0.352941 0.121569 0.615686 0.352941 
0.121569 0.615686 0.352941 0.121569 0.615686 0.352941 
0.121569 0.615686 0.352941 0.121569 0.615686 0.352941 
0.121569 0.615686 0.352941 0.121569 0.615686 0.352941 
0.121569 0.615686 0.352941 0.121569 0.615686 0.352941 
0.121569 0.615686 0.352941 0.121569 0.615686 0.352941 
0.121569 0.615686 0.352941 0.121569 0.615686 0.352941 
0.121569 0.615686 0.352941 0.121569 0.615686 0.352941 
0.121569 0.615686 0.352941 0.121569 0.615686 0.352941 
0.121569 0.615686 0.352941 0.121569 0.615686 0.352941 
0.121569 0.615686 0.352941 0.121569 0.615686 0.352941 
0.121569 0.615686 0.352941 0.121569 0.615686 0.352941 
0.121569 0.615686 0.352941 0.121569 0.615686 0.352941 
0.121569 0.615686 0.352941 0.121569 0.615686 0.352941 
0.121569 0.615686 0.352941 0.121569 0.615686 0.352941 
0.121569 0.615686 0.352941 0.121569 0.615686 0.352941 
0.121569 0.615686 0.352941 0.121569 0.615686 0.352941 
0.121569 0.615686 0.352941 0.121569 0.615686 0.352941 
0.121569 0.615686 0.352941 0.121569 0.615686 0.352941 
0.121569 0.615686 0.352941 0.121569 0.615686 0.352941 
0.121569 0.615686 0.352941 0.121569 0.615686 0.352941 
0.121569 0.615686 0.352941 0.121569 0.615686 0.352941 
0.121569 0.615686 0.352941 0.121569 0.615686 0.352941 
0.121569 0.615686 0.352941 0.121569 0.615686 0.352941 
0.121569 0.615686 0.352941 0.121569 0.615686 0.352941 
0.121569 0.615686 0.352941 0.121569 0.615686 0.352941 
0.121569 0.615686 0.352941 0.121569 0.615686 0.352941 
0.121569 0.615686 0.352941 0.121569 0.615686 0.352941 
0.121569 0.615686 0.352941 0.121569 0.615686 0.352941 
0.121569 0.615686 0.352941 0.121569 0.615686 0.352941 
0.121569 0.615686 0.352941 0.121569 0.615686 0.352941 
0.121569 0.615686 0.352941 0.121569 0.615686 0.352941 
0.121569 0.615686 0.352941 0.121569 0.615686 0.352941 
0.121569 0.615686 0.352941 0.121569 0.615686 0.352941 
0.121569 0.615686 0.352941 0.121569 0.615686 0.352941 
0.121569 0.615686 0.352941 0.121569 0.615686 0.352941 
0.121569 0.615686 0.352941 0.121569 0.615686 0.352941 
0.121569 0.615686 0.352941 0.121569 0.615686 0.352941 
0.121569 0.615686 0.352941 0.121569 0.615686 0.352941 
0.121569 0.615686 0.352941 0.121569 0.615686 0.352941 
0.121569 0.615686 0.352941 0.121569 0.615686 0.352941 
0.121569 0.615686 0.352941 0.121569 0.615686 0.352941 
0.121569 0.615686 0.352941 0.121569 0.615686 0.352941 
0.121569 0.615686 0.352941 0.121569 0.615686 0.352941 
0.121569 0.615686 0.352941 0.121569 0.615686 0.352941 
0.121569 0.615686 0.352941 0.121569 0.615686 0.352941 
0.121569 0.615686 0.352941 0.121569 0.615686 0.352941 
0.121569 0.615686 0.352941 0.121569 0.615686 0.352941 
0.121569 0.615686 0.352941 0.121569 0.615686 0.352941 
0.121569 0.615686 0.352941 0.121569 0.615686 0.352941 
0.121569 0.615686 0.352941 0.121569 0.615686 0.352941 
0.121569 0.615686 0.352941 0.121569 0.615686 0.352941 
0.121569 0.615686 0.352941 0.121569 0.615686 0.352941 
0.121569 0.615686 0.352941 0.121569 0.615686 0.352941 
0.121569 0.615686 0.352941 0.121569 0.615686 0.352941 
0.121569 0.615686 0.352941 0.121569 0.615686 0.352941 
0.121569 0.615686 0.352941 0.121569 0.615686 0.352941 
0.121569 0.615686 0.352941 0.121569 0.615686 0.352941 
0.121569 0.615686 0.352941 0.121569 0.615686 0.352941 
0.121569 0.615686 0.352941 0.121569 0.615686 0.352941 
0.121569 0.615686 0.352941 0.121569 0.615686 0.352941 
0.121569 0.615686 0.352941 0.121569 0.615686 0.352941 
0.121569 0.615686 0.352941 0.121569 0.615686 0.352941 
0.121569 0.615686 0.352941 0.121569 0.615686 0.352941 
0.121569 0.615686 0.352941 0.121569 0.615686 0.352941 
0.121569 0.615686 0.352941 0.121569 0.615686 0.352941 
0.121569 0.615686 0.352941 0.121569 0.615686 0.352941 
0.121569 0.615686 0.352941 0.121569 0.615686 0.352941 
0.121569 0.615686 0.352941 0.121569 0.615686 0.352941 
0.121569 0.615686 0.352941 0.121569 0.615686 0.352941 
0.121569 0.615686 0.352941 0.121569 0.615686 0.352941 
0.121569 0.615686 0.352941 0.121569 0.615686 0.352941 
0.121569 0.615686 0.352941 0.121569 0.615686 0.352941 
0.121569 0.615686 0.352941 0.121569 0.615686 0.352941 
0.121569 0.615686 0.352941 0.121569 0.615686 0.352941 
0.121569 0.615686 0.352941 0.121569 0.615686 0.352941 
0.121569 0.615686 0.352941 0.121569 0.615686 0.352941 
0.121569 0.615686 0.352941 0.121569 0.615686 0.352941 
0.121569 0.615686 0.352941 0.121569 0.615686 0.352941 
0.121569 0.615686 0.352941 0.121569 0.615686 0.352941 
0.121569 0.615686 0.352941 0.121569 0.615686 0.352941 
0.121569 0.615686 0.352941 0.121569 0.615686 0.352941 
0.121569 0.615686 0.352941 0.121569 0.615686 0.352941 
0.121569 0.615686 0.352941 0.121569 0.615686 0.352941 
0.121569 0.615686 0.352941 0.121569 0.615686 0.352941 
0.121569 0.615686 0.352941 0.121569 0.615686 0.352941 
0.121569 0.615686 0.352941 0.121569 0.615686 0.352941 
0.121569 0.615686 0.352941 0.121569 0.615686 0.352941 
0.121569 0.615686 0.352941 0.121569 0.615686 0.352941 
0.121569 0.615686 0.352941 0.121569 0.615686 0.352941 
0.121569 0.615686 0.352941 0.121569 0.615686 0.352941 
0.121569 0.615686 0.352941 0.121569 0.615686 0.352941 
0.121569 0.615686 0.352941 0.121569 0.615686 0.352941 
0.121569 0.615686 0.352941 0.121569 0.615686 0.352941 
0.121569 0.615686 0.352941 0.121569 0.615686 0.352941 
0.121569 0.615686 0.352941 0.121569 0.615686 0.352941 
0.121569 0.615686 0.352941 0.121569 0.615686 0.352941 
0.121569 0.615686 0.352941 0.121569 0.615686 0.352941 
0.121569 0.615686 0.352941 0.121569 0.615686 0.352941 
0.121569 0.615686 0.352941 0.121569 0.615686 0.352941 
0.121569 0.615686 0.352941 0.121569 0.615686 0.352941 
0.121569 0.615686 0.352941 0.121569 0.615686 0.352941 
0.121569 0.615686 0.352941 0.121569 0.615686 0.352941 
0.121569 0.615686 0.352941 0.121569 0.615686 0.352941 
0.121569 0.615686 0.352941 0.121569 0.615686 0.352941 
0.121569 0.615686 0.352941 0.121569 0.615686 0.352941 
0.121569 0.615686 0.352941 0.121569 0.615686 0.352941 
0.121569 0.615686 0.352941 0.121569 0.615686 0.352941 
0.121569 0.615686 0.352941 0.121569 0.615686 0.352941 
0.121569 0.615686 0.352941 0.121569 0.615686 0.352941 
0.121569 0.615686 0.352941 0.121569 0.615686 0.352941 
0.121569 0.615686 0.352941 0.121569 0.615686 0.352941 
0.121569 0.615686 0.352941 0.121569 0.615686 0.352941 
0.121569 0.615686 0.352941 0.121569 0.615686 0.352941 
0.121569 0.615686 0.352941 0.121569 0.615686 0.352941 
0.121569 0.615686 0.352941 0.121569 0.615686 0.352941 
0.121569 0.615686 0.352941 0.121569 0.615686 0.352941 
0.121569 0.615686 0.352941 0.121569 0.615686 0.352941 
0.121569 0.615686 0.352941 0.121569 0.615686 0.352941 
0.121569 0.615686 0.352941 0.121569 0.615686 0.352941 
0.121569 0.615686 0.352941 0.121569 0.615686 0.352941 
0.121569 0.615686 0.352941 0.121569 0.615686 0.352941 
0.121569 0.615686 0.352941 0.121569 0.615686 0.352941 
0.121569 0.615686 0.352941 0.121569 0.615686 0.352941 
0.121569 0.615686 0.352941 0.121569 0.615686 0.352941 
0.121569 0.615686 0.352941 0.121569 0.615686 0.352941 
0.121569 0.615686 0.352941 0.121569 0.615686 0.352941 
0.121569 0.615686 0.352941 0.121569 0.615686 0.352941 
0.121569 0.615686 0.352941 0.121569 0.615686 0.352941 
0.121569 0.615686 0.352941 0.121569 0.615686 0.352941 
0.121569 0.615686 0.352941 0.121569 0.615686 0.352941 
0.121569 0.615686 0.352941 0.121569 0.615686 0.352941 
0.121569 0.615686 0.352941 0.121569 0.615686 0.352941 
0.121569 0.615686 0.352941 0.121569 0.615686 0.352941 
0.121569 0.615686 0.352941 0.121569 0.615686 0.352941 
0.121569 0.615686 0.352941 0.121569 0.615686 0.352941 
0.121569 0.615686 0.352941 0.121569 0.615686 0.352941 
0.121569 0.615686 0.352941 0.121569 0.615686 0.352941 
0.121569 0.615686 0.352941 0.121569 0.615686 0.352941 
0.121569 0.615686 0.352941 0.121569 0.615686 0.352941 
0.121569 0.615686 0.352941 0.121569 0.615686 0.352941 
0.121569 0.615686 0.352941 0.121569 0.615686 0.352941 
0.121569 0.615686 0.352941 0.121569 0.615686 0.352941 
0.121569 0.615686 0.352941 0.121569 0.615686 0.352941 
0.121569 0.615686 0.352941 0.121569 0.615686 0.352941 
0.121569 0.615686 0.352941 0.121569 0.615686 0.352941 
0.121569 0.615686 0.352941 0.121569 0.615686 0.352941 
0.121569 0.615686 0.352941 0.121569 0.615686 0.352941 
0.121569 0.615686 0.352941 0.121569 0.615686 0.352941 
0.121569 0.615686 0.352941 0.121569 0.615686 0.352941 
0.121569 0.615686 0.352941 0.121569 0.615686 0.352941 
0.121569 0.615686 0.352941 0.121569 0.615686 0.352941 
0.121569 0.615686 0.352941 0.121569 0.615686 0.352941 
0.121569 0.615686 0.352941 0.121569 0.615686 0.352941 
0.121569 0.615686 0.352941 0.121569 0.615686 0.352941 
0.121569 0.615686 0.352941 0.121569 0.615686 0.352941 
0.121569 0.615686 0.352941 0.121569 0.615686 0.352941 
0.121569 0.615686 0.352941 0.121569 0.615686 0.352941 
0.121569 0.615686 0.352941 0.121569 0.615686 0.352941 
0.121569 0.615686 0.352941 0.121569 0.615686 0.352941 
0.121569 0.615686 0.352941 0.121569 0.615686 0.352941 
0.121569 0.615686 0.352941 0.121569 0.615686 0.352941 
0.121569 0.615686 0.352941 0.121569 0.615686 0.352941 
0.121569 0.615686 0.352941 0.121569 0.615686 0.352941 
0.121569 0.615686 0.352941 0.121569 0.615686 0.352941 
0.121569 0.615686 0.352941 0.121569 0.615686 0.352941 
0.121569 0.615686 0.352941 0.121569 0.615686 0.352941 
0.121569 0.615686 0.352941 0.121569 0.615686 0.352941 
0.121569 0.615686 0.352941 0.121569 0.615686 0.352941 
0.121569 0.615686 0.352941 0.121569 0.615686 0.352941 
0.121569 0.615686 0.352941 0.121569 0.615686 0.352941 
0.121569 0.615686 0.352941 0.121569 0.615686 0.352941 
0.121569 0.615686 0.352941 0.121569 0.615686 0.352941 
0.121569 0.615686 0.352941 0.121569 0.615686 0.352941 
0.121569 0.615686 0.352941 0.121569 0.615686 0.352941 
0.121569 0.615686 0.352941 0.121569 0.615686 0.352941 
0.121569 0.615686 0.352941 0.121569 0.615686 0.352941 