# vtk DataFile Version 4.2
vtk output
ASCII
DATASET POLYDATA
POINTS 2756 float
162.874 133.475 111.413 162.755 133.167 111.449 163.06 133.196 111.493 
162.469 133.89 111.437 162.553 134.189 111.515 162.275 134.392 111.665 
162.863 134.223 111.566 163.679 130.073 112.5 163.351 130.238 112.33 
164.092 130.475 112.435 163.939 130.205 112.507 164.146 130.26 112.673 
163.377 130.833 112.073 163.773 130.879 112.115 163.073 131.655 111.833 
164.207 131.409 112.22 161.918 132.228 111.79 162.292 132.972 111.565 
161.792 134.214 111.784 162.619 134.902 112.033 163.004 134.75 112.003 
163.445 134.51 112.081 163.538 129.411 113.24 164.308 130.203 113.088 
160.986 131.638 112.367 164.509 132.885 112.395 164.522 133.794 112.65 
164.535 134.158 112.86 160.266 135.358 112.785 159.682 136.396 113.412 
159.637 136.231 113.344 159.479 136.457 113.571 159.877 136.535 113.551 
162.186 128.393 113.945 161.811 128.615 113.616 164.885 130.723 113.561 
165.08 131.039 113.704 165.035 131.615 113.183 165.141 131.402 113.529 
165.1 132.071 113.19 165.186 132.306 113.405 164.632 133.437 112.654 
164.86 133.338 113.103 164.714 134.091 112.979 164.732 133.914 112.949 
164.763 134.039 113.042 159.654 135.719 113.206 164.348 134.45 113.186 
164.675 134.129 113.137 160.239 136.219 113.327 161.523 136.311 113.497 
158.905 137.39 114.552 169.19 118.519 115.495 169.184 118.306 115.536 
169.337 118.341 115.559 169.013 118.652 115.542 168.889 118.475 115.609 
168.808 118.611 115.724 169.228 118.752 115.529 168.943 118.829 115.65 
168.815 118.862 115.882 169.131 118.903 115.6 169.439 118.98 115.701 
169.047 119.02 115.768 169.218 119.059 115.725 161.887 128.155 114.363 
162.688 128.322 114.377 165.276 131.882 113.893 165.089 133.059 113.542 
164.781 133.902 113.167 164.694 133.954 113.676 157.353 136.189 114.453 
162.126 136.388 113.971 163.22 135.686 114.08 159.4 137.349 114.406 
159.764 137.373 114.478 171.146 115.977 116.341 169.235 117.963 115.737 
168.475 118.032 116.179 169.701 118.254 115.711 168.242 118.148 116.545 
168.225 118.482 116.766 169.786 118.747 115.753 168.475 118.81 116.556 
168.728 118.966 116.26 168.968 119.092 116.027 169.801 119.073 115.846 
169.319 119.233 116.025 169.956 119.25 116.018 169.914 119.404 116.141 
160.62 127.491 115.736 163.044 128.349 115.212 165.111 132.769 114.612 
164.053 134.926 114.44 161.112 137.262 115.087 155.528 137.558 115.991 
155.888 138.477 116.515 156.857 138.486 116.27 171.883 114.48 117.117 
171.872 114.377 117.179 171.147 115.575 116.562 168.576 117.597 116.24 
168.05 117.473 116.944 169.089 119.417 117.099 170.005 119.512 116.355 
160.007 127.549 115.853 161.144 127.161 116.694 159.095 127.898 115.919 
162.344 127.733 116.545 163.867 129.07 116 164.784 130.68 115.713 
163.462 135.592 116.283 158.99 138.317 116.021 159.386 138.275 116.203 
159.984 138.037 116.236 154.708 138.415 117.134 154.754 138.758 117.471 
155.614 138.92 117.061 173.75 112.328 118.458 173.715 112.223 118.504 
173.939 112.222 118.616 171.839 114.166 117.407 173.72 112.591 118.412 
172.909 113.395 117.977 171.226 114.918 117.007 172.409 114.546 117.357 
172.046 115.326 116.989 172.609 115.735 117.173 167.111 117.107 118.404 
171.784 118.032 116.794 171.793 119.618 117.656 153.869 137.234 117.266 
159.593 138.3 116.616 156.291 139.155 117.193 156.363 139.323 117.701 
173.546 112.067 118.64 173.272 111.563 119.047 174.416 112.101 118.871 
166.596 116.314 119.336 166.905 117.741 119.157 167.305 118.168 118.716 
167.643 118.627 118.654 168.529 119.269 118.204 170.472 119.974 118.255 
172.569 119.521 118.183 156.844 128.218 117.4 164.577 130.954 116.742 
152.904 137.427 118.377 152.632 137.105 118.629 152.965 138.169 119.146 
157.485 139.214 117.724 159.274 138.489 117.939 154.451 139.173 118.849 
174.763 110.794 119.605 174.359 110.334 119.816 175.552 110.823 119.77 
175.551 112.883 119.247 175.528 113.772 119.178 166.342 116.737 119.675 
167.838 118.909 119.022 173.754 119.2 118.907 171.586 120.226 118.979 
171.74 120.327 119.591 172.941 119.677 118.701 160.671 126.498 118.595 
163.599 129.357 118.171 152.158 134.382 119.179 162.558 135.621 119.111 
151.874 136.497 119.89 152.162 137.214 119.806 160.338 137.845 118.819 
154.191 139.131 119.398 174.202 109.707 120.275 177.047 110.631 120.49 
167.894 114.161 119.326 166.233 117.745 120.939 166.783 118.204 120.493 
167.798 119.058 120.676 172.362 120.372 120.036 157.223 125.387 120.082 
158.703 125.522 119.847 160.565 126.301 120.199 161.585 127.316 120.302 
162.539 128.378 119.711 153.601 128.815 120.046 151.583 133.984 120.156 
163.398 134.012 119.1 151.383 135.714 120.754 151.535 136.121 120.388 
151.418 136.081 120.601 151.47 136.234 120.574 151.644 136.478 120.622 
152.479 137.915 120.305 153.476 138.81 120.007 153.614 138.836 120.412 
157.858 139.023 119.106 178.096 109.073 121.586 165.974 117.887 121.896 
169.617 119.887 121.609 171.993 120.373 120.875 172.368 120.428 120.548 
174.91 119.517 120.637 172.919 120.372 120.64 173.447 120.232 120.55 
155.906 124.944 121.103 158.635 125.007 120.888 152.003 131.897 120.404 
163.373 132.939 119.651 151.528 136.179 121.188 152.11 137.294 120.881 
153.205 138.317 121.11 159.505 137.787 120.402 153.944 138.946 120.584 
154.193 138.9 120.928 155.749 139.148 120.333 177.428 106.575 122.672 
178.551 106.961 122.628 178.343 106.468 122.857 175.188 107.594 122.001 
176.54 106.705 122.636 179.086 110.455 122.124 178.959 112.023 122.086 
178.41 114.615 122.042 164.871 116.165 122.122 164.893 117.003 122.507 
177.286 117.209 121.717 173.064 120.36 121.213 173.401 120.252 121.635 
175.044 119.633 121.369 157.193 123.375 122.348 157.709 123.482 122.335 
158.531 123.883 122.501 155.021 124.633 121.953 158.952 124.651 121.905 
161.488 127.889 121.852 162.122 129.6 121.766 151.282 132.249 122.274 
151.066 132.946 122.537 150.796 133.638 122.113 150.744 133.675 122.274 
150.721 133.759 122.203 150.8 133.919 122.157 177.837 105.947 123.191 
179.315 105.227 123.877 180.095 106.076 123.737 179.634 107.493 123.022 
180.116 107.861 123.308 180.145 109.861 123.367 163.567 115.131 123.535 
179.075 114.926 123.453 178.552 115.923 123.183 177.62 117.614 122.813 
177.569 117.873 122.836 177.316 118.043 122.735 177.492 117.953 122.868 
156.685 122.06 123.431 157.165 121.954 123.523 173.67 120.007 122.394 
175.168 119.436 122.618 158.069 123.45 122.57 159.989 125.579 123.256 
160.729 127.364 123.291 152.279 128.077 122.694 151.825 129.117 123.336 
162.298 131.233 121.688 161.617 132.802 122.317 151.153 133.078 122.874 
150.734 133.78 122.271 150.856 133.744 122.449 150.936 134.203 122.376 
151.446 135.559 122.267 152.506 136.734 122.491 158.938 136.805 122.286 
154.514 138.365 121.98 156.952 137.785 122.459 155.797 138.334 122.089 
179.941 103.931 124.776 181.314 104.435 124.9 175.622 105.786 123.838 
180.965 109.435 124.519 179.033 115.163 123.566 161.701 116.733 124.867 
178.363 116.341 123.323 178.949 115.338 123.704 163.848 117.398 124.051 
165.047 118.011 123.91 177.384 117.887 123.098 177.546 117.867 122.908 
155.516 122.191 123.708 157.907 122.59 123.299 158.368 122.251 123.879 
158.819 122.932 123.888 153.175 124.304 123.834 159.663 124.647 124.115 
160.298 126.465 123.751 151.864 128.784 124.656 161.315 129.357 123.133 
152.09 129.939 124.683 151.707 131.572 123.628 161.362 131.1 123.006 
151.763 132.585 123.698 160.374 133.519 123.399 159.669 134.46 123.524 
153.16 136.669 123.076 154.652 137.575 122.874 181.326 102.447 126.079 
180.961 102.757 125.768 181.909 102.703 126.089 177.933 103.722 125.229 
175.236 105.594 124.281 180.848 110.268 124.986 180.264 111.746 124.622 
163.289 113.856 124.47 161.61 115.01 125.081 179.226 114.558 124.548 
159.772 117.483 125.339 158.946 117.535 125.44 159.134 118.489 125.258 
160.228 118.373 125.432 161.466 117.776 125.319 177.669 116.913 124.799 
156.685 119.233 125.231 161.047 118.944 125.994 161.998 118.408 125.856 
158.848 120.43 124.98 159.548 120.315 125.493 154.599 120.945 125.109 
159.359 123.445 124.508 151.436 126.209 125.437 153.028 131.238 125.361 
152.503 133.335 124.275 153.003 132.973 124.708 155.646 135.228 124.5 
153.904 136.352 123.627 155.697 136.39 123.836 182.646 101.66 127.012 
181.064 102.076 126.42 182.563 102.86 126.345 182.609 103.614 126.113 
176.879 103.569 125.946 182.941 104.801 126.378 181.517 108.95 125.587 
180.719 110.796 125.596 179.535 113.003 126.221 158.641 116.203 126.084 
162.643 118.148 125.575 161.845 119.121 126.711 163.943 118.484 126.192 
165.482 118.591 126.218 159.639 121.13 125.692 150.655 124.137 126.543 
150.52 125.676 126.845 159.711 125.651 126.391 152.497 129.311 126.078 
154.206 131.09 126.192 154.84 131.8 126.024 157.336 131.755 125.967 
153.507 134.231 124.54 154.747 134.432 124.796 179.019 101.977 127.085 
183.519 102.631 127.194 181.947 108.267 127.152 180.716 110.65 126.432 
159.933 113.889 126.932 178.418 114.106 127.14 176.794 116.24 126.99 
161.543 119.552 127.09 163.519 118.804 127.285 151.5 120.996 127.29 
151.306 127.262 126.621 159.184 127.081 127.177 156.748 130.092 127.13 
183.375 99.8587 128.754 179.375 101.033 128.26 184.134 104.391 128.842 
162.087 119.657 128.366 159.937 123.257 127.515 148.747 123.833 128.105 
147.918 124.496 128.565 148.861 125.487 128.239 149.707 126.457 128.303 
150.348 126.876 128.183 152.012 128.02 127.967 154.048 129.439 127.508 
157.59 128.28 128.365 142.916 131.666 129.458 142.864 131.353 129.443 
142.816 131.921 129.487 143.077 131.916 129.598 184.552 99.5675 129.455 
169.465 105.384 129.612 161.042 111.387 128.768 174.487 116.881 128.271 
163.943 118.906 129.154 166.608 118.48 128.658 150.878 119.732 128.749 
159.308 125.095 129.016 147.404 126.207 129.17 158.992 125.937 128.886 
158.626 126.386 129.171 146.323 127.291 129.638 149.559 126.904 128.937 
151.173 127.613 129.033 157.991 127.082 129.345 143.915 128.265 129.587 
144.356 129.103 129.695 145.491 129.023 130.055 155.972 128.862 128.536 
140.302 132.453 129.776 139.504 133.132 130.022 185.338 98.9928 130.302 
[...]
POINT_DATA 2756
COLOR_SCALARS scalars 3
0.121569 0.615686 0.352941 0.121569 0.615686 0.352941 0.121569 0.615686 0.352941 
0.121569 0.615686 0.352941 0.121569 0.615686 0.352941 
0.121569 0.615686 0.352941 0.121569 0.615686 0.352941 
0.121569 0.615686 0.352941 0.121569 0.615686 0.352941 
0.121569 0.615686 0.352941 0.121569 0.615686 0.352941 
0.121569 0.615686 0.352941 0.121569 0.615686 0.352941 
0.121569 0.615686 0.352941 0.121569 0.615686 0.352941 
0.121569 0.615686 0.352941 0.121569 0.615686 0.352941 
0.121569 0.615686 0.352941 0.121569 0.615686 0.352941 
0.121569 0.615686 0.352941 0.121569 0.615686 0.352941 
0.121569 0.615686 0.352941 0.121569 0.615686 0.352941 
0.121569 0.615686 0.352941 0.121569 0.615686 0.352941 
0.121569 0.615686 0.352941 0.121569 0.615686 0.352941 
0.121569 0.615686 0.352941 0.121569 0.615686 0.352941 
0.121569 0.615686 0.352941 0.121569 0.615686 0.352941 
0.121569 0.615686 0.352941 0.121569 0.615686 0.352941 
0.121569 0.615686 0.352941 0.121569 0.615686 0.352941 
0.121569 0.615686 0.352941 0.121569 0.615686 0.352941 
0.121569 0.615686 0.352941 0.121569 0.615686 0.352941 
0.121569 0.615686 0.352941 0.121569 0.615686 0.352941 
0.121569 0.615686 0.352941 0.121569 0.615686 0.352941 
0.121569 0.615686 0.352941 0.121569 0.615686 0.352941 
0.121569 0.615686 0.352941 0.121569 0.615686 0.352941 
0.121569 0.615686 0.352941 0.121569 0.615686 0.352941 
0.121569 0.615686 0.352941 0.121569 0.615686 0.352941 
0.121569 0.615686 0.352941 0.121569 0.615686 0.352941 
0.121569 0.615686 0.352941 0.121569 0.615686 0.352941 
0.121569 0.615686 0.352941 0.121569 0.615686 0.352941 
0.121569 0.615686 0.352941 0.121569 0.615686 0.352941 
0.121569 0.615686 0.352941 0.121569 0.615686 0.352941 
0.121569 0.615686 0.352941 0.121569 0.615686 0.352941 
0.121569 0.615686 0.352941 0.121569 0.615686 0.352941 
0.121569 0.615686 0.352941 0.121569 0.615686 0.352941 
0.121569 0.615686 0.352941 0.121569 0.615686 0.352941 
0.121569 0.615686 0.352941 0.121569 0.615686 0.352941 
0.121569 0.615686 0.352941 0.121569 0.615686 0.352941 
0.121569 0.615686 0.352941 0.121569 0.615686 0.352941 
0.121569 0.615686 0.352941 0.121569 0.615686 0.352941 
0.121569 0.615686 0.352941 0.121569 0.615686 0.352941 
0.121569 0.615686 0.352941 0.121569 0.615686 0.352941 
0.121569 0.615686 0.352941 0.121569 0.615686 0.352941 
0.121569 0.615686 0.352941 0.121569 0.615686 0.352941 
0.121569 0.615686 0.352941 0.121569 0.615686 0.352941 
0.121569 0.615686 0.352941 0.121569 0.615686 0.352941 
0.121569 0.615686 0.352941 0.121569 0.615686 0.352941 
0.121569 0.615686 0.352941 0.121569 0.615686 0.352941 
0.121569 0.615686 0.352941 0.121569 0.615686 0.352941 
0.121569 0.615686 0.352941 0.121569 0.615686 0.352941 
0.121569 0.615686 0.352941 0.121569 0.615686 0.352941 
0.121569 0.615686 0.352941 0.121569 0.615686 0.352941 
0.121569 0.615686 0.352941 0.121569 0.615686 0.352941 
0.121569 0.615686 0.352941 0.121569 0.615686 0.352941 
0.121569 0.615686 0.352941 0.121569 0.615686 0.352941 
0.121569 0.615686 0.352941 0.121569 0.615686 0.352941 
0.121569 0.615686 0.352941 0.121569 0.615686 0.352941 
0.121569 0.615686 0.352941 0.121569 0.615686 0.352941 
0.121569 0.615686 0.352941 0.121569 0.615686 0.352941 
0.121569 0.615686 0.352941 0.121569 0.615686 0.352941 
0.121569 0.615686 0.352941 0.121569 0.615686 0.352941 
0.121569 0.615686 0.352941 0.121569 0.615686 0.352941 
0.121569 0.615686 0.352941 0.121569 0.615686 0.352941 
0.121569 0.615686 0.352941 0.121569 0.615686 0.352941 
0.121569 0.615686 0.352941 0.121569 0.615686 0.352941 
0.121569 0.615686 0.352941 0.121569 0.615686 0.352941 
0.121569 0.615686 0.352941 0.121569 0.615686 0.352941 
0.121569 0.615686 0.352941 0.121569 0.615686 0.352941 
0.121569 0.615686 0.352941 0.121569 0.615686 0.352941 
0.121569 0.615686 0.352941 0.121569 0.615686 0.352941 
0.121569 0.615686 0.352941 0.121569 0.615686 0.352941 
0.121569 0.615686 0.352941 0.121569 0.615686 0.352941 
0.121569 0.615686 0.352941 0.121569 0.615686 0.352941 
0.121569 0.615686 0.352941 0.121569 0.615686 0.352941 
0.121569 0.615686 0.352941 0.121569 0.615686 0.352941 
0.121569 0.615686 0.352941 0.121569 0.615686 0.352941 
0.121569 0.615686 0.352941 0.121569 0.615686 0.352941 
0.121569 0.615686 0.352941 0.121569 0.615686 0.352941 
0.121569 0.615686 0.352941 0.121569 0.615686 0.352941 
0.121569 0.615686 0.352941 0.121569 0.615686 0.352941 
0.121569 0.615686 0.352941 0.121569 0.615686 0.352941 
0.121569 0.615686 0.352941 0.121569 0.615686 0.352941 
0.121569 0.615686 0.352941 0.121569 0.615686 0.352941 
0.121569 0.615686 0.352941 0.121569 0.615686 0.352941 
0.121569 0.615686 0.352941 0.121569 0.615686 0.352941 
0.121569 0.615686 0.352941 0.121569 0.615686 0.352941 
0.121569 0.615686 0.352941 0.121569 0.615686 0.352941 
0.121569 0.615686 0.352941 0.121569 0.615686 0.352941 
0.121569 0.615686 0.352941 0.121569 0.615686 0.352941 
0.121569 0.615686 0.352941 0.121569 0.615686 0.352941 
0.121569 0.615686 0.352941 0.121569 0.615686 0.352941 
0.121569 0.615686 0.352941 0.121569 0.615686 0.352941 
0.121569 0.615686 0.352941 0.121569 0.615686 0.352941 
0.121569 0.615686 0.352941 0.121569 0.615686 0.352941 
0.121569 0.615686 0.352941 0.121569 0.615686 0.352941 
0.121569 0.615686 0.352941 0.121569 0.615686 0.352941 
0.121569 0.615686 0.352941 0.121569 0.615686 0.352941 
0.121569 0.615686 0.352941 0.121569 0.615686 0.352941 
0.121569 0.615686 0.352941 0.121569 0.615686 0.352941 
0.121569 0.615686 0.352941 0.121569 0.615686 0.352941 
0.121569 0.615686 0.352941 0.121569 0.615686 0.352941 
0.121569 0.615686 0.352941 0.121569 0.615686 0.352941 
0.121569 0.615686 0.352941 0.121569 0.615686 0.352941 
0.121569 0.615686 0.352941 0.121569 0.615686 0.352941 
0.121569 0.615686 0.352941 0.121569 0.615686 0.352941 
0.121569 0.615686 0.352941 0.121569 0.615686 0.352941 
0.121569 0.615686 0.352941 0.121569 0.615686 0.352941 
0.121569 0.615686 0.352941 0.121569 0.615686 0.352941 
0.121569 0.615686 0.352941 0.121569 0.615686 0.352941 
0.121569 0.615686 0.352941 0.121569 0.615686 0.352941 
0.121569 0.615686 0.352941 0.121569 0.615686 0.352941 
0.121569 0.615686 0.352941 0.121569 0.615686 0.352941 
0.121569 0.615686 0.352941 0.121569 0.615686 0.352941 
0.121569 0.615686 0.352941 0.121569 0.615686 0.352941 
0.121569 0.615686 0.352941 0.121569 0.615686 0.352941 
0.121569 0.615686 0.352941 0.121569 0.615686 0.352941 
0.121569 0.615686 0.352941 0.121569 0.615686 0.352941 
0.121569 0.615686 0.352941 0.121569 0.615686 0.352941 
0.121569 0.615686 0.352941 0.121569 0.615686 0.352941 
0.121569 0.615686 0.352941 0.121569 0.615686 0.352941 
0.121569 0.615686 0.352941 0.121569 0.615686 0.352941 
0.121569 0.615686 0.352941 0.121569 0.615686 0.352941 
0.121569 0.615686 0.352941 0.121569 0.615686 0.352941 
0.121569 0.615686 0.352941 0.121569 0.615686 0.352941 
0.121569 0.615686 0.352941 0.121569 0.615686 0.352941 
0.121569 0.615686 0.352941 0.121569 0.615686 0.352941 
0.121569 0.615686 0.352941 0.121569 0.615686 0.352941 
0.121569 0.615686 0.352941 0.121569 0.615686 0.352941 
0.121569 0.615686 0.352941 0.121569 0.615686 0.352941 
0.121569 0.615686 0.352941 0.121569 0.615686 0.352941 
0.121569 0.615686 0.352941 0.121569 0.615686 0.352941 
0.121569 0.615686 0.352941 0.121569 0.615686 0.352941 
0.121569 0.615686 0.352941 0.121569 0.615686 0.352941 
0.121569 0.615686 0.352941 0.121569 0.615686 0.352941 
0.121569 0.615686 0.352941 0.121569 0.615686 0.352941 
0.121569 0.615686 0.352941 0.121569 0.615686 0.352941 
0.121569 0.615686 0.352941 0.121569 0.615686 0.352941 
0.121569 0.615686 0.352941 0.121569 0.615686 0.352941 
0.121569 0.615686 0.352941 0.121569 0.615686 0.352941 
0.121569 0.615686 0.352941 0.121569 0.615686 0.352941 
0.121569 0.615686 0.352941 0.121569 0.615686 0.352941 
0.121569 0.615686 0.352941 0.121569 0.615686 0.352941 
0.121569 0.615686 0.352941 0.121569 0.615686 0.352941 
0.121569 0.615686 0.352941 0.121569 0.615686 0.352941 
0.121569 0.615686 0.352941 0.121569 0.615686 0.352941 
0.121569 0.615686 0.352941 0.121569 0.615686 0.352941 
0.121569 0.615686 0.352941 0.121569 0.615686 0.352941 
0.121569 0.615686 0.352941 0.121569 0.615686 0.352941 
0.121569 0.615686 0.352941 0.121569 0.615686 0.352941 
0.121569 0.615686 0.352941 0.121569 0.615686 0.352941 
0.121569 0.615686 0.352941 0.121569 0.615686 0.352941 
0.121569 0.615686 0.352941 0.121569 0.615686 0.352941 
0.121569 0.615686 0.352941 0.121569 0.615686 0.352941 
0.121569 0.615686 0.352941 0.121569 0.615686 0.352941 
0.121569 0.615686 0.352941 0.121569 0.615686 0.352941 
0.121569 0.615686 0.352941 0.121569 0.615686 0.352941 
0.121569 0.615686 0.352941 0.121569 0.615686 0.352941 
0.121569 0.615686 0.352941 0.121569 0.615686 0.352941 
0.121569 0.615686 0.352941 0.121569 0.615686 0.352941 
0.121569 0.615686 0.352941 0.121569 0.615686 0.352941 
0.121569 0.615686 0.352941 0.121569 0.615686 0.352941 
0.121569 0.615686 0.352941 0.121569 0.615686 0.352941 
0.121569 0.615686 0.352941 0.121569 0.615686 0.352941 
0.121569 0.615686 0.352941 0.121569 0.615686 0.352941 
0.121569 0.615686 0.352941 0.121569 0.615686 0.352941 
0.121569 0.615686 0.352941 0.121569 0.615686 0.352941 
0.121569 0.615686 0.352941 0.121569 0.615686 0.352941 
0.121569 0.615686 0.352941 0.121569 0.615686 0.352941 
0.121569 0.615686 0.352941 0.121569 0.615686 0.352941 
0.121569 0.615686 0.352941 0.121569 0.615686 0.352941 
0.121569 0.615686 0.352941 0.121569 0.615686 0.352941 
0.121569 0.615686 0.352941 0.121569 0.615686 0.352941 
0.121569 0.615686 0.352941 0.121569 0.615686 0.352941 
0.121569 0.615686 0.352941 0.121569 0.615686 0.352941 
0.121569 0.615686 0.352941 0.121569 0.615686 0.352941 
0.121569 0.615686 0.352941 0.121569 0.615686 0.352941 
0.121569 0.615686 0.352941 0.121569 0.615686 0.352941 
0.121569 0.615686 0.352941 0.121569 0.615686 0.352941 
0.121569 0.615686 0.352941 0.121569 0.615686 0.352941 
0.121569 0.615686 0.352941 0.121569 0.615686 0.352941 
0.121569 0.615686 0.352941 0.121569 0.615686 0.352941 
0.121569 0.615686 0.352941 0.121569 0.615686 0.352941 
0.121569 0.615686 0.352941 0.121569 0.615686 0.352941 
0.121569 0.615686 0.352941 0.121569 0.615686 0.352941 
0.121569 0.615686 0.352941 0.121569 0.615686 0.352941 
0.121569 0.615686 0.352941 0.121569 0.615686 0.352941 
0.121569 0.615686 0.352941 0.121569 0.615686 0.352941 
0.121569 0.615686 0.352941 0.121569 0.615686 0.352941 
0.121569 0.615686 0.352941 0.121569 0.615686 0.352941 
0.121569 0.615686 0.352941 0.121569 0.615686 0.352941 
0.121569 0.615686 0.352941 0.121569 0.615686 0.352941 
0.121569 0.615686 0.352941 0.121569 0.615686 0.352941 
0.121569 0.615686 0.352941 0.121569 0.615686 0.352941 
0.121569 0.615686 0.352941 0.121569 0.615686 0.352941 
0.121569 0.615686 0.352941 0.121569 0.615686 0.352941 
0.121569 0.615686 0.352941 0.121569 0.615686 0.352941 
0.121569 0.615686 0.352941 0.121569 0.615686 0.352941 
0.121569 0.615686 0.352941 0.121569 0.615686 0.352941 
0.121569 0.615686 0.352941 0.121569 0.615686 0.352941 
0.121569 0.615686 0.352941 0.121569 0.615686 0.352941 
0.121569 0.615686 0.352941 0.121569 0.615686 0.352941 
0.121569 0.615686 0.352941 0.121569 0.615686 0.352941 
0.121569 0.615686 0.352941 0.121569 0.615686 0.352941 
0.121569 0.615686 0.352941 0.121569 0.615686 0.352941 
0.121569 0.615686 0.352941 0.121569 0.615686 0.352941 
0.121569 0.615686 0.352941 0.121569 0.615686 0.352941 
0.121569 0.615686 0.352941 0.121569 0.615686 0.352941 
0.121569 0.615686 0.352941 0.121569 0.615686 0.352941 
0.121569 0.615686 0.352941 0.121569 0.615686 0.352941 
0.121569 0.615686 0.352941 0.121569 0.615686 0.352941 
0.121569 0.615686 0.352941 0.121569 0.615686 0.352941 
0.121569 0.615686 0.352941 0.121569 0.615686 0.352941 
0.121569 0.615686 0.352941 0.121569 0.615686 0.352941 
0.121569 0.615686 0.352941 0.121569 0.615686 0.352941 
0.121569 0.615686 0.352941 0.121569 0.615686 0.352941 
0.121569 0.615686 0.352941 0.121569 0.615686 0.352941 
0.121569 0.615686 0.352941 0.121569 0.615686 0.352941 
0.121569 0.615686 0.352941 0.121569 0.615686 0.352941 
0.121569 0.615686 0.352941 0.121569 0.615686 0.352941 
0.121569 0.615686 0.352941 0.121569 0.615686 0.352941 
0.121569 0.615686 0.352941 0.121569 0.615686 0.352941 
0.121569 0.615686 0.352941 0.121569 0.615686 0.352941 
0.121569 0.615686 0.352941 0.121569 0.615686 0.352941 
0.121569 0.615686 0.352941 0.121569 0.615686 0.352941 
0.121569 0.615686 0.352941 0.121569 0.615686 0.352941 
0.121569 0.615686 0.352941 0.121569 0.615686 0.352941 
0.121569 0.615686 0.352941 0.121569 0.615686 0.352941 
0.121569 0.615686 0.352941 0.121569 0.615686 0.352941 
0.121569 0.615686 0.352941 0.121569 0.615686 0.352941 
0.121569 0.615686 0.352941 0.121569 0.615686 0.352941 
0.121569 0.615686 0.352941 0.121569 0.615686 0.352941 
0.121569 0.615686 0.352941 0.121569 0.615686 0.352941 
0.121569 0.615686 0.352941 0.121569 0.615686 0.352941 
0.121569 0.615686 0.352941 0.121569 0.615686 0.352941 
0.121569 0.615686 0.352941 0.121569 0.615686 0.352941 
0.121569 0.615686 0.352941 0.121569 0.615686 0.352941 
0.121569 0.615686 0.352941 0.121569 0.615686 0.352941 
0.121569 0.615686 0.352941 0.121569 0.615686 0.352941 
0.121569 0.615686 0.352941 0.121569 0.615686 0.352941 
0.121569 0.615686 0.352941 0.121569 0.615686 0.352941 
0.121569 0.615686 0.352941 0.121569 0.615686 0.352941 
0.121569 0.615686 0.352941 0.121569 0.615686 0.352941 
0.121569 0.615686 0.352941 0.121569 0.615686 0.352941 
0.121569 0.615686 0.352941 0.121569 0.615686 0.352941 
0.121569 0.615686 0.352941 0.121569 0.615686 0.352941 
0.121569 0.615686 0.352941 0.121569 0.615686 0.352941 
0.121569 0.615686 0.352941 0.121569 0.615686 0.352941 
0.121569 0.615686 0.352941 0.121569 0.615686 0.352941 
0.121569 0.615686 0.352941 0.121569 0.615686 0.352941 
0.121569 0.615686 0.352941 0.121569 0.615686 0.352941 
0.121569 0.615686 0.352941 0.121569 0.615686 0.352941 
0.121569 0.615686 0.352941 0.121569 0.615686 0.352941 
0.121569 0.615686 0.352941 0.121569 0.615686 0.352941 
0.121569 0.615686 0.352941 0.121569 0.615686 0.352941 
0.121569 0.615686 0.352941 0.121569 0.615686 0.352941 
0.121569 0.615686 0.352941 0.121569 0.615686 0.352941 
0.121569 0.615686 0.352941 0.121569 0.615686 0.352941 
0.121569 0.615686 0.352941 0.121569 0.615686 0.352941 
0.121569 0.615686 0.352941 0.121569 0.615686 0.352941 
0.121569 0.615686 0.352941 0.121569 0.615686 0.352941 
0.121569 0.615686 0.352941 0.121569 0.615686 0.352941 
0.121569 0.615686 0.352941 0.121569 0.615686 0.352941 
0.121569 0.615686 0.352941 0.121569 0.615686 0.352941 
0.121569 0.615686 0.352941 0.121569 0.615686 0.352941 
0.121569 0.615686 0.352941 0.121569 0.615686 0.352941 
0.121569 0.615686 0.352941 0.121569 0.615686 0.352941 
0.121569 0.615686 0.352941 0.121569 0.615686 0.352941 
0.121569 0.615686 0.352941 0.121569 0.615686 0.352941 
0.121569 0.615686 0.352941 0.121569 0.615686 0.352941 
0.121569 0.615686 0.352941 0.121569 0.615686 0.352941 
0.121569 0.615686 0.352941 0.121569 0.615686 0.352941 
0.121569 0.615686 0.352941 0.121569 0.615686 0.352941 
0.121569 0.615686 0.352941 0.121569 0.615686 0.352941 
0.121569 0.615686 0.352941 0.121569 0.615686 0.352941 
0.121569 0.615686 0.352941 0.121569 0.615686 0.352941 
0.121569 0.615686 0.352941 0.121569 0.615686 0.352941 
0.121569 0.615686 0.352941 0.121569 0.615686 0.352941 
0.121569 0.615686 0.352941 0.121569 0.615686 0.352941 
0.121569 0.615686 0.352941 0.121569 0.615686 0.352941 
0.121569 0.615686 0.352941 0.121569 0.615686 0.352941 
0.121569 0.615686 0.352941 0.121569 0.615686 0.352941 
0.121569 0.615686 0.352941 0.121569 0.615686 0.352941 
0.121569 0.615686 0.352941 0.121569 0.615686 0.352941 
0.121569 0.615686 0.352941 0.121569 0.615686 0.352941 
0.121569 0.615686 0.352941 0.121569 0.615686 0.352941 
0.121569 0.615686 0.352941 0.121569 0.615686 0.352941 
0.121569 0.615686 0.352941 0.121569 0.615686 0.352941 
0.121569 0.615686 0.352941 0.121569 0.615686 0.352941 
0.121569 0.615686 0.352941 0.121569 0.615686 0.352941 
0.121569 0.615686 0.352941 0.121569 0.615686 0.352941 
0.121569 0.615686 0.352941 0.121569 0.615686 0.352941 
0.121569 0.615686 0.352941 0.121569 0.615686 0.352941 
0.121569 0.615686 0.352941 0.121569 0.615686 0.352941 
0.121569 0.615686 0.352941 0.121569 0.615686 0.352941 
0.121569 0.615686 0.352941 0.121569 0.615686 0.352941 
0.121569 0.615686 0.352941 0.121569 0.615686 0.352941 
0.121569 0.615686 0.352941 0.121569 0.615686 0.352941 
0.121569 0.615686 0.352941 0.121569 0.615686 0.352941 
0.121569 0.615686 0.352941 0.121569 0.615686 0.352941 
0.121569 0.615686 0.352941 0.121569 0.615686 0.352941 
0.121569 0.615686 0.352941 0.121569 0.615686 0.352941 
0.121569 0.615686 0.352941 0.121569 0.615686 0.352941 
0.121569 0.615686 0.352941 0.121569 0.615686 0.352941 
0.121569 0.615686 0.352941 0.121569 0.615686 0.352941 
0.121569 0.615686 0.352941 0.121569 0.615686 0.352941 
0.121569 0.615686 0.352941 0.121569 0.615686 0.352941 
0.121569 0.615686 0.352941 0.121569 0.615686 0.352941 
0.121569 0.615686 0.352941 0.121569 0.615686 0.352941 
0.121569 0.615686 0.352941 0.121569 0.615686 0.352941 
0.121569 0.615686 0.352941 0.121569 0.615686 0.352941 
0.121569 0.615686 0.352941 0.121569 0.615686 0.352941 
0.121569 0.615686 0.352941 0.121569 0.615686 0.352941 
0.121569 0.615686 0.352941 0.121569 0.615686 0.352941 
0.121569 0.615686 0.352941 0.121569 0.615686 0.352941 
0.121569 0.615686 0.352941 0.121569 0.615686 0.352941 
0.121569 0.615686 0.352941 0.121569 0.615686 0.352941 
0.121569 0.615686 0.352941 0.121569 0.615686 0.352941 
0.121569 0.615686 0.352941 0.121569 0.615686 0.352941 
0.121569 0.615686 0.352941 0.121569 0.615686 0.352941 
0.121569 0.615686 0.352941 0.121569 0.615686 0.352941 
0.121569 0.615686 0.352941 0.121569 0.615686 0.352941 
0.121569 0.615686 0.352941 0.121569 0.615686 0.352941 
0.121569 0.615686 0.352941 0.121569 0.615686 0.352941 
0.121569 0.615686 0.352941 0.121569 0.615686 0.352941 
0.121569 0.615686 0.352941 0.121569 0.615686 0.352941 
0.121569 0.615686 0.352941 0.121569 0.615686 0.352941 
0.121569 0.615686 0.352941 0.121569 0.615686 0.352941 
0.121569 0.615686 0.352941 0.121569 0.615686 0.352941 
0.121569 0.615686 0.352941 0.121569 0.615686 0.352941 
0.121569 0.615686 0.352941 0.121569 0.615686 0.352941 
0.121569 0.615686 0.352941 0.121569 0.615686 0.352941 
0.121569 0.615686 0.352941 0.121569 0.615686 0.352941 
0.121569 0.615686 0.352941 0.121569 0.615686 0.352941 
0.121569 0.615686 0.352941 0.121569 0.615686 0.352941 
0.121569 0.615686 0.352941 0.121569 0.615686 0.352941 
0.121569 0.615686 0.352941 0.121569 0.615686 0.352941 
0.121569 0.615686 0.352941 0.121569 0.615686 0.352941 
0.121569 0.615686 0.352941 0.121569 0.615686 0.352941 
0.121569 0.615686 0.352941 0.121569 0.615686 0.352941 
0.121569 0.615686 0.352941 0.121569 0.615686 0.352941 
0.121569 0.615686 0.352941 0.121569 0.615686 0.352941 
0.121569 0.615686 0.352941 0.121569 0.615686 0.352941 
0.121569 0.615686 0.352941 0.121569 0.615686 0.352941 
0.121569 0.615686 0.352941 0.121569 0.615686 0.352941 
0.121569 0.615686 0.352941 0.121569 0.615686 0.352941 
0.121569 0.615686 0.352941 0.121569 0.615686 0.352941 
0.121569 0.615686 0.352941 0.121569 0.615686 0.352941 
0.121569 0.615686 0.352941 0.121569 0.615686 0.352941 
0.121569 0.615686 0.352941 0.121569 0.615686 0.352941 
0.121569 0.615686 0.352941 0.121569 0.615686 0.352941 
0.121569 0.615686 0.352941 0.121569 0.615686 0.352941 
0.121569 0.615686 0.352941 0.121569 0.615686 0.352941 
0.121569 0.615686 0.352941 0.121569 0.615686 0.352941 
0.121569 0.615686 0.352941 0.121569 0.615686 0.352941 
0.121569 0.615686 0.352941 0.121569 0.615686 0.352941 
0.121569 0.615686 0.352941 0.121569 0.615686 0.352941 
0.121569 0.615686 0.352941 0.121569 0.615686 0.352941 
0.121569 0.615686 0.352941 0.121569 0.615686 0.352941 
0.121569 0.615686 0.352941 0.121569 0.615686 0.352941 
0.121569 0.615686 0.352941 0.121569 0.615686 0.352941 
0.121569 0.615686 0.352941 0.121569 0.615686 0.352941 
0.121569 0.615686 0.352941 0.121569 0.615686 0.352941 
0.121569 0.615686 0.352941 0.121569 0.615686 0.352941 
0.121569 0.615686 0.352941 0.121569 0.615686 0.352941 