# vtk DataFile Version 4.2
vtk output
ASCII
DATASET POLYDATA
POINTS 606 float
150.874 139.775 120.919 150.52 139.811 120.955 151.127 139.888 120.945 
151.96 139.878 121.237 149.729 140.304 121.148 150.988 140.466 121.057 
149.411 136.873 122.363 149.138 137.359 122.061 147.849 139.62 121.727 
152.75 139.644 121.816 147.288 140.299 122.061 152.515 140.865 121.609 
153.232 140.491 121.902 153.495 140.783 122.08 150.612 141.475 121.567 
152.01 141.238 121.615 148.765 136.102 122.994 149.879 136.476 122.779 
147.868 137.538 122.19 152.732 138.715 122.393 154.522 140.378 122.985 
154.046 141.743 122.68 154.55 141.589 122.965 149.932 142.337 122.383 
147.055 135.667 123.648 147.962 135.6 123.58 150.499 136.493 123.185 
154.077 139.537 123.033 153.954 139.255 123.175 154.913 140.961 123.251 
145.311 141.13 123.755 148.365 142.887 123.402 154.194 142.674 123.195 
146.498 135.265 124.513 146.111 135.564 124.231 147.813 135.03 124.789 
144.915 136.86 124.021 143.856 139.815 124.343 143.638 140.607 124.793 
153.095 144.777 124.483 154.185 144.353 124.307 155.849 144.198 124.834 
145.24 135.33 125.083 144.349 135.891 125.033 151.315 136.445 124.658 
143.766 137.053 124.785 154.071 138.674 124.521 155.162 139.836 124.79 
142.478 139.804 125.569 156.775 142.026 125.646 144.924 142.104 125.171 
148.543 143.992 125.172 157.122 144.935 125.829 157.106 145.454 125.946 
157.522 145.286 126.133 156.792 145.807 125.974 143.663 135.174 126.231 
145.015 134.713 126.439 146.704 134.743 125.879 143.209 135.363 126.325 
147.885 134.875 126.062 149.17 135.272 125.796 142.285 137.842 125.729 
141.838 138.585 126.021 155.415 139.805 125.719 156.063 140.468 126.135 
156.498 141.086 126.025 156.575 141.466 125.682 144.825 142.522 126.323 
158.69 144.867 127.05 156.183 147.092 126.65 142.985 134.536 127.634 
142.773 134.691 127.435 143.729 134.608 127.095 143.424 134.462 127.526 
142.57 134.805 127.445 144.491 134.544 127.151 142.145 135.499 127.172 
141.958 135.318 127.629 141.686 136.131 127.135 150.907 136.168 126.496 
152.6 137.315 127.272 140.7 137.403 127.412 140.873 139.136 127.159 
140.463 139.105 127.608 140.629 139.51 127.629 140.341 139.285 127.885 
140.826 139.938 127.857 143.127 141.594 127.151 145.09 142.726 126.719 
152.275 146.815 127.052 159.006 146.615 127.368 159.785 146.94 127.978 
155.3 148.131 127.539 143.637 134.392 127.801 141.715 135.443 128.026 
147.874 135.02 127.512 140.7 136.46 128.307 139.97 137.597 128.408 
155.699 139.699 127.927 145.053 142.639 128.027 159.447 144.733 127.927 
160.049 146.65 128.271 160.102 146.9 128.368 152.256 147.757 128.453 
159.961 147.145 128.308 160.073 147.052 128.355 157.282 148.461 128.151 
159.35 147.56 128.526 160.005 147.142 128.482 142.817 134.605 128.283 
141.622 135.525 128.551 145.236 134.628 128.626 141.673 135.582 129.021 
146.729 134.944 128.459 140.056 137.123 129.226 139.746 137.636 129.122 
139.663 137.959 129.094 139.742 138.212 128.81 139.636 138.293 129.131 
140.093 139.157 128.79 140.375 139.597 128.866 142.582 141.327 128.402 
142.754 141.302 128.803 159.981 145.157 128.71 160.085 146.739 128.591 
151.549 147.35 129.539 159.867 147.14 128.861 160.072 147.012 128.517 
157.611 148.562 128.454 158.785 148.097 128.845 153.325 149.182 129.71 
156.9 149.091 129.043 152.031 155.028 130.668 152.008 155.016 130.706 
152.083 155.049 130.662 152.044 154.98 130.685 152.117 155.019 130.685 
152.077 155.062 130.691 152.156 155.068 130.708 142.704 134.962 128.99 
144.855 134.649 128.859 141.485 135.902 129.389 145.283 134.856 129.112 
146.59 135.337 129.454 140.156 137.149 129.474 139.891 137.68 129.561 
139.727 137.797 129.349 139.645 138.361 129.305 139.655 138.467 129.196 
140.506 139.499 129.412 141.475 140.371 129.29 142.682 141.002 129.338 
159.515 143.612 129.427 147.678 143.61 129.717 160.003 144.975 129.057 
160.081 145.628 129.567 160.041 146.548 129.552 159.194 147.92 129.936 
156.721 149.326 129.487 158.932 148.227 129.753 153.75 149.728 130.477 
153.638 149.761 130.897 155.368 149.904 130.411 157.539 149.1 130.013 
154.446 150.102 130.893 152.024 154.654 130.898 152.143 154.745 130.869 
152.137 154.659 130.952 151.887 154.823 130.833 151.826 154.77 130.897 
151.984 154.839 130.779 152.176 154.876 130.807 151.851 154.794 130.914 
152.287 154.989 130.846 152.283 155.09 130.8 143.895 135.539 129.997 
139.827 138.001 129.567 149.157 136.875 130.326 148.861 137.082 130.717 
140.092 138.287 129.777 140.488 138.052 130.053 140.288 138.686 129.815 
143.181 140.427 130.332 143.784 140.795 130.313 145.009 141.467 130.338 
159 142.571 130.541 159.653 143.558 130.546 159.407 146.734 131.174 
158.819 147.965 130.977 152.907 148.959 131.419 158.064 148.652 130.96 
153.233 149.397 131.073 155.6 149.937 130.741 155.983 149.828 130.896 
154.048 150.059 131.203 154.301 150.246 131.168 154.28 150.24 131.318 
154.451 150.258 131.198 154.785 150.12 131.348 151.958 154.464 131.134 
152.07 154.572 130.993 152.03 154.51 131.064 154.353 150.301 131.254 
152.092 154.563 131.05 151.855 154.596 131.038 152.262 154.883 130.966 
151.922 154.825 130.978 152.384 155.074 130.901 152.298 155.099 130.87 
142.364 136.538 130.511 144.777 136.079 130.464 147.278 136.738 130.805 
141.529 137.377 130.526 141.609 138.38 130.591 143.236 139.332 130.926 
144.335 139.049 131.336 144.548 140.849 130.614 159.568 145.84 131.395 
158.822 147.385 131.713 156.141 149.736 131.275 154.34 150.079 131.631 
154.431 150.25 131.348 151.951 154.439 131.206 151.878 154.434 131.228 
152.021 154.483 131.138 151.728 154.491 131.282 151.684 154.433 131.379 
151.803 154.42 131.326 152.138 154.703 131.096 151.691 154.456 131.37 
151.848 154.625 131.231 152.2 154.844 131.048 152.33 155.042 130.949 
152.47 155.187 130.895 148.203 137.951 131.477 151.56 139.196 132.288 
148.721 142.011 132.065 152.831 148.212 132.47 157.533 147.973 132.834 
154.005 149.917 131.848 154.132 149.632 132.397 155.7 149.362 132.714 
151.904 154.443 131.272 151.68 154.421 131.41 151.698 154.413 131.422 
151.748 154.415 131.4 151.84 154.449 131.344 151.981 154.551 131.231 
151.862 154.509 131.324 151.793 154.513 131.341 151.946 154.643 131.219 
152.477 155.187 130.909 155.212 140.699 133.808 156.724 141.167 133.387 
158.593 143.18 133.087 151.731 154.435 131.413 151.784 154.451 131.386 
151.489 140.581 133.49 155.845 141.158 134.207 157.349 142.065 133.988 
158.129 142.491 133.32 157.555 143.749 134.727 153.929 147.501 134.103 
154.327 147.747 134.17 156.75 147.231 134.041 154.764 148.348 133.921 
155.776 148.574 133.577 157.398 142.943 134.655 153.604 143.395 135.557 
157.448 143.364 134.803 154.82 146.221 135.187 154.856 147.585 134.392 
153.41 141.982 135.092 154.608 142.467 135.752 155.75 142.281 135.585 
156.169 142.573 135.615 156.789 142.755 135.171 156.416 142.908 135.679 
153.95 143.098 135.748 154.48 144.65 135.771 154.759 145.265 135.616 
155.603 145.571 135.523 154.336 142.875 135.881 155.177 142.757 136.013 
155.92 143.193 136.056 154.989 144.258 136.103 155.211 143.926 136.262 
155.363 144.167 136.189 155.181 143.189 136.204 155.544 143.416 136.223 
155.815 143.104 318.806 155.325 143.428 318.701 155.284 143.744 318.683 
155.41 143.975 318.732 155.56 143.72 318.703 155.966 143.77 318.867 
154.504 142.582 319.194 156.484 143.05 319.191 156.258 142.629 319.292 
156.744 143.321 319.327 154.761 144.406 319.046 155.398 144.368 318.938 
154.961 144.85 319.247 153.662 141.274 320.511 154.504 141.354 320.303 
155.958 141.686 320.08 157.098 142.316 320.05 156.916 142.09 320.086 
156.787 144.214 319.431 153.979 144.568 319.513 154.514 145.914 319.876 
154.885 146.157 319.882 155.108 146.512 320.059 152.688 141.259 320.802 
156.944 141.886 320.44 157.407 142.111 320.792 153.514 146.257 320.545 
156.442 146.199 320.206 156.954 146.199 320.49 154.161 147.538 320.897 
152.055 139.963 322.069 154.353 140.457 321.379 158.735 142.906 322.126 
151.993 144.742 321.136 157.833 145.111 320.758 154.403 148.629 321.611 
156.311 147.979 321.308 149.4 139.402 322.745 155.735 140.54 321.976 
150.475 140.965 321.939 157.102 141.39 321.81 149.527 141.903 322.295 
158.677 143.671 321.706 157.584 147.54 321.884 155.017 149.733 322.698 
155.945 149.228 322.415 151.75 154.354 323.63 151.739 154.352 323.65 
151.716 154.364 323.63 151.798 154.383 323.653 151.818 154.355 323.671 
144.928 136.42 324.204 147.177 136.487 324.362 142.526 137.366 323.994 
144.988 137.663 323.638 146.788 137.518 323.685 147.781 137.355 323.867 
142.434 138.087 323.979 144.479 138.216 323.577 145.489 138.279 323.456 
144.77 139.304 323.531 146.129 139.103 323.289 156.032 140.286 323.288 
147.765 140.708 322.941 148.76 140.603 322.618 158.211 141.888 322.922 
148.595 142.499 323.061 148.884 143.579 323.517 153.678 149.827 323.514 
153.704 149.924 323.794 153.959 149.827 323.214 154.379 150.126 323.512 
155.333 149.92 323.226 155.86 149.764 323.373 151.937 154.391 323.738 
151.965 154.373 323.787 151.885 154.36 323.739 152.01 154.395 323.788 
152.061 154.455 323.834 151.704 154.372 323.65 151.808 154.374 323.727 
151.987 154.537 323.797 152.09 154.564 323.871 151.72 154.416 323.674 
151.892 154.698 323.894 152.038 154.712 323.892 152.145 154.764 323.952 
152.423 155.168 324.13 152.454 155.206 324.144 152.452 155.195 324.144 
152.425 155.196 324.162 142.888 136.395 324.448 147.844 136.33 324.748 
141.181 137.167 324.701 141 138.337 324.662 141.048 138.605 324.69 
143.253 139.037 323.931 152.124 138.389 324.186 141.562 139.382 324.759 
144.102 140.778 324.45 145.43 140.869 323.916 159.125 142.707 324.232 
159.517 143.303 324.192 148.572 143.737 324.013 148.858 144.399 324.561 
159.603 146.13 323.909 150.456 146.026 324.283 158.409 148.096 323.529 
152.988 149.247 323.948 153.591 149.811 324.22 156.024 149.792 323.841 
154.051 150.135 323.924 154.277 150.307 323.805 154.28 150.318 323.948 
154.408 150.325 323.792 154.694 150.222 323.861 151.994 154.397 323.845 
151.917 154.417 323.837 152.035 154.417 323.84 152.1 154.545 323.92 
154.332 150.372 323.868 152.164 154.705 323.975 152.265 154.938 324.09 
[...]
POINT_DATA 606
COLOR_SCALARS scalars 3
0.121569 0.615686 0.352941 0.121569 0.615686 0.352941 0.121569 0.615686 0.352941 
0.121569 0.615686 0.352941 0.121569 0.615686 0.352941 
0.121569 0.615686 0.352941 0.121569 0.615686 0.352941 
0.121569 0.615686 0.352941 0.121569 0.615686 0.352941 
0.121569 0.615686 0.352941 0.121569 0.615686 0.352941 
0.121569 0.615686 0.352941 0.121569 0.615686 0.352941 
0.121569 0.615686 0.352941 0.121569 0.615686 0.352941 
0.121569 0.615686 0.352941 0.121569 0.615686 0.352941 
0.121569 0.615686 0.352941 0.121569 0.615686 0.352941 
0.121569 0.615686 0.352941 0.121569 0.615686 0.352941 
0.121569 0.615686 0.352941 0.121569 0.615686 0.352941 
0.121569 0.615686 0.352941 0.121569 0.615686 0.352941 
0.121569 0.615686 0.352941 0.121569 0.615686 0.352941 
0.121569 0.615686 0.352941 0.121569 0.615686 0.352941 
0.121569 0.615686 0.352941 0.121569 0.615686 0.352941 
0.121569 0.615686 0.352941 0.121569 0.615686 0.352941 
0.121569 0.615686 0.352941 0.121569 0.615686 0.352941 
0.121569 0.615686 0.352941 0.121569 0.615686 0.352941 
0.121569 0.615686 0.352941 0.121569 0.615686 0.352941 
0.121569 0.615686 0.352941 0.121569 0.615686 0.352941 
0.121569 0.615686 0.352941 0.121569 0.615686 0.352941 
0.121569 0.615686 0.352941 0.121569 0.615686 0.352941 
0.121569 0.615686 0.352941 0.121569 0.615686 0.352941 
0.121569 0.615686 0.352941 0.121569 0.615686 0.352941 
0.121569 0.615686 0.352941 0.121569 0.615686 0.352941 
0.121569 0.615686 0.352941 0.121569 0.615686 0.352941 
0.121569 0.615686 0.352941 0.121569 0.615686 0.352941 
0.121569 0.615686 0.352941 0.121569 0.615686 0.352941 
0.121569 0.615686 0.352941 0.121569 0.615686 0.352941 
0.121569 0.615686 0.352941 0.121569 0.615686 0.352941 
0.121569 0.615686 0.352941 0.121569 0.615686 0.352941 
0.121569 0.615686 0.352941 0.121569 0.615686 0.352941 
0.121569 0.615686 0.352941 0.121569 0.615686 0.352941 
0.121569 0.615686 0.352941 0.121569 0.615686 0.352941 
0.121569 0.615686 0.352941 0.121569 0.615686 0.352941 
0.121569 0.615686 0.352941 0.121569 0.615686 0.352941 
0.121569 0.615686 0.352941 0.121569 0.615686 0.352941 
0.121569 0.615686 0.352941 0.121569 0.615686 0.352941 
0.121569 0.615686 0.352941 0.121569 0.615686 0.352941 
0.121569 0.615686 0.352941 0.121569 0.615686 0.352941 
0.121569 0.615686 0.352941 0.121569 0.615686 0.352941 
0.121569 0.615686 0.352941 0.121569 0.615686 0.352941 
0.121569 0.615686 0.352941 0.121569 0.615686 0.352941 
0.121569 0.615686 0.352941 0.121569 0.615686 0.352941 
0.121569 0.615686 0.352941 0.121569 0.615686 0.352941 
0.121569 0.615686 0.352941 0.121569 0.615686 0.352941 
0.121569 0.615686 0.352941 0.121569 0.615686 0.352941 
0.121569 0.615686 0.352941 0.121569 0.615686 0.352941 
0.121569 0.615686 0.352941 0.121569 0.615686 0.352941 
0.121569 0.615686 0.352941 0.121569 0.615686 0.352941 
0.121569 0.615686 0.352941 0.121569 0.615686 0.352941 
0.121569 0.615686 0.352941 0.121569 0.615686 0.352941 
0.121569 0.615686 0.352941 0.121569 0.615686 0.352941 
0.121569 0.615686 0.352941 0.121569 0.615686 0.352941 
0.121569 0.615686 0.352941 0.121569 0.615686 0.352941 
0.121569 0.615686 0.352941 0.121569 0.615686 0.352941 
0.121569 0.615686 0.352941 0.121569 0.615686 0.352941 
0.121569 0.615686 0.352941 0.121569 0.615686 0.352941 
0.121569 0.615686 0.352941 0.121569 0.615686 0.352941 
0.121569 0.615686 0.352941 0.121569 0.615686 0.352941 
0.121569 0.615686 0.352941 0.121569 0.615686 0.352941 
0.121569 0.615686 0.352941 0.121569 0.615686 0.352941 
0.121569 0.615686 0.352941 0.121569 0.615686 0.352941 
0.121569 0.615686 0.352941 0.121569 0.615686 0.352941 
0.121569 0.615686 0.352941 0.121569 0.615686 0.352941 
0.121569 0.615686 0.352941 0.121569 0.615686 0.352941 
0.121569 0.615686 0.352941 0.121569 0.615686 0.352941 
0.121569 0.615686 0.352941 0.121569 0.615686 0.352941 
0.121569 0.615686 0.352941 0.121569 0.615686 0.352941 
0.121569 0.615686 0.352941 0.121569 0.615686 0.352941 
0.121569 0.615686 0.352941 0.121569 0.615686 0.352941 
0.121569 0.615686 0.352941 0.121569 0.615686 0.352941 
0.121569 0.615686 0.352941 0.121569 0.615686 0.352941 
0.121569 0.615686 0.352941 0.121569 0.615686 0.352941 
0.121569 0.615686 0.352941 0.121569 0.615686 0.352941 
0.121569 0.615686 0.352941 0.121569 0.615686 0.352941 
0.121569 0.615686 0.352941 0.121569 0.615686 0.352941 
0.121569 0.615686 0.352941 0.121569 0.615686 0.352941 
0.121569 0.615686 0.352941 0.121569 0.615686 0.352941 
0.121569 0.615686 0.352941 0.121569 0.615686 0.352941 
0.121569 0.615686 0.352941 0.121569 0.615686 0.352941 
0.121569 0.615686 0.352941 0.121569 0.615686 0.352941 
0.121569 0.615686 0.352941 0.121569 0.615686 0.352941 
0.121569 0.615686 0.352941 0.121569 0.615686 0.352941 
0.121569 0.615686 0.352941 0.121569 0.615686 0.352941 
0.121569 0.615686 0.352941 0.121569 0.615686 0.352941 
0.121569 0.615686 0.352941 0.121569 0.615686 0.352941 
0.121569 0.615686 0.352941 0.121569 0.615686 0.352941 
0.121569 0.615686 0.352941 0.121569 0.615686 0.352941 
0.121569 0.615686 0.352941 0.121569 0.615686 0.352941 
0.121569 0.615686 0.352941 0.121569 0.615686 0.352941 
0.121569 0.615686 0.352941 0.121569 0.615686 0.352941 
0.121569 0.615686 0.352941 0.121569 0.615686 0.352941 
0.121569 0.615686 0.352941 0.121569 0.615686 0.352941 
0.121569 0.615686 0.352941 0.121569 0.615686 0.352941 
0.121569 0.615686 0.352941 0.121569 0.615686 0.352941 
0.121569 0.615686 0.352941 0.121569 0.615686 0.352941 
0.121569 0.615686 0.352941 0.121569 0.615686 0.352941 
0.121569 0.615686 0.352941 0.121569 0.615686 0.352941 
0.121569 0.615686 0.352941 0.121569 0.615686 0.352941 
0.121569 0.615686 0.352941 0.121569 0.615686 0.352941 
0.121569 0.615686 0.352941 0.121569 0.615686 0.352941 
0.121569 0.615686 0.352941 0.121569 0.615686 0.352941 
0.121569 0.615686 0.352941 0.121569 0.615686 0.352941 
0.121569 0.615686 0.352941 0.121569 0.615686 0.352941 
0.121569 0.615686 0.352941 0.121569 0.615686 0.352941 
0.121569 0.615686 0.352941 0.121569 0.615686 0.352941 
0.121569 0.615686 0.352941 0.121569 0.615686 0.352941 
0.121569 0.615686 0.352941 0.121569 0.615686 0.352941 
0.121569 0.615686 0.352941 0.121569 0.615686 0.352941 
0.121569 0.615686 0.352941 0.121569 0.615686 0.352941 
0.121569 0.615686 0.352941 0.121569 0.615686 0.352941 
0.121569 0.615686 0.352941 0.121569 0.615686 0.352941 
0.121569 0.615686 0.352941 0.121569 0.615686 0.352941 
0.121569 0.615686 0.352941 0.121569 0.615686 0.352941 
0.121569 0.615686 0.352941 0.121569 0.615686 0.352941 
0.121569 0.615686 0.352941 0.121569 0.615686 0.352941 
0.121569 0.615686 0.352941 0.121569 0.615686 0.352941 
0.121569 0.615686 0.352941 0.121569 0.615686 0.352941 
0.121569 0.615686 0.352941 0.121569 0.615686 0.352941 
0.121569 0.615686 0.352941 0.121569 0.615686 0.352941 
0.121569 0.615686 0.352941 0.121569 0.615686 0.352941 
0.121569 0.615686 0.352941 0.121569 0.615686 0.352941 
0.121569 0.615686 0.352941 0.121569 0.615686 0.352941 
0.121569 0.615686 0.352941 0.121569 0.615686 0.352941 
0.121569 0.615686 0.352941 0.121569 0.615686 0.352941 
0.121569 0.615686 0.352941 0.121569 0.615686 0.352941 
0.121569 0.615686 0.352941 0.121569 0.615686 0.352941 
0.121569 0.615686 0.352941 0.121569 0.615686 0.352941 
0.121569 0.615686 0.352941 0.121569 0.615686 0.352941 
0.121569 0.615686 0.352941 0.121569 0.615686 0.352941 
0.121569 0.615686 0.352941 0.121569 0.615686 0.352941 
0.121569 0.615686 0.352941 0.121569 0.615686 0.352941 
0.121569 0.615686 0.352941 0.121569 0.615686 0.352941 
0.121569 0.615686 0.352941 0.121569 0.615686 0.352941 
0.121569 0.615686 0.352941 0.121569 0.615686 0.352941 
0.121569 0.615686 0.352941 0.121569 0.615686 0.352941 
0.121569 0.615686 0.352941 0.121569 0.615686 0.352941 
0.121569 0.615686 0.352941 0.121569 0.615686 0.352941 
0.121569 0.615686 0.352941 0.121569 0.615686 0.352941 
0.121569 0.615686 0.352941 0.121569 0.615686 0.352941 
0.121569 0.615686 0.352941 0.121569 0.615686 0.352941 
0.121569 0.615686 0.352941 0.121569 0.615686 0.352941 
0.121569 0.615686 0.352941 0.121569 0.615686 0.352941 
0.121569 0.615686 0.352941 0.121569 0.615686 0.352941 
0.121569 0.615686 0.352941 0.121569 0.615686 0.352941 
0.121569 0.615686 0.352941 0.121569 0.615686 0.352941 
0.121569 0.615686 0.352941 0.121569 0.615686 0.352941 
0.121569 0.615686 0.352941 0.121569 0.615686 0.352941 
0.121569 0.615686 0.352941 0.121569 0.615686 0.352941 
0.121569 0.615686 0.352941 0.121569 0.615686 0.352941 
0.121569 0.615686 0.352941 0.121569 0.615686 0.352941 
0.121569 0.615686 0.352941 0.121569 0.615686 0.352941 
0.121569 0.615686 0.352941 0.121569 0.615686 0.352941 
0.121569 0.615686 0.352941 0.121569 0.615686 0.352941 
0.121569 0.615686 0.352941 0.121569 0.615686 0.352941 
0.121569 0.615686 0.352941 0.121569 0.615686 0.352941 
0.121569 0.615686 0.352941 0.121569 0.615686 0.352941 
0.121569 0.615686 0.352941 0.121569 0.615686 0.352941 
0.121569 0.615686 0.352941 0.121569 0.615686 0.352941 
0.121569 0.615686 0.352941 0.121569 0.615686 0.352941 
0.121569 0.615686 0.352941 0.121569 0.615686 0.352941 
0.121569 0.615686 0.352941 0.121569 0.615686 0.352941 
0.121569 0.615686 0.352941 0.121569 0.615686 0.352941 
0.121569 0.615686 0.352941 0.121569 0.615686 0.352941 
0.121569 0.615686 0.352941 0.121569 0.615686 0.352941 
0.121569 0.615686 0.352941 0.121569 0.615686 0.352941 
0.121569 0.615686 0.352941 0.121569 0.615686 0.352941 
0.121569 0.615686 0.352941 0.121569 0.615686 0.352941 
0.121569 0.615686 0.352941 0.121569 0.615686 0.352941 
0.121569 0.615686 0.352941 0.121569 0.615686 0.352941 
0.121569 0.615686 0.352941 0.121569 0.615686 0.352941 
0.121569 0.615686 0.352941 0.121569 0.615686 0.352941 
0.121569 0.615686 0.352941 0.121569 0.615686 0.352941 
0.121569 0.615686 0.352941 0.121569 0.615686 0.352941 
0.121569 0.615686 0.352941 0.121569 0.615686 0.352941 
0.121569 0.615686 0.352941 0.121569 0.615686 0.352941 
0.121569 0.615686 0.352941 0.121569 0.615686 0.352941 
0.121569 0.615686 0.352941 0.121569 0.615686 0.352941 
0.121569 0.615686 0.352941 0.121569 0.615686 0.352941 
0.121569 0.615686 0.352941 0.121569 0.615686 0.352941 
0.121569 0.615686 0.352941 0.121569 0.615686 0.352941 
0.121569 0.615686 0.352941 0.121569 0.615686 0.352941 
0.121569 0.615686 0.352941 0.121569 0.615686 0.352941 
0.121569 0.615686 0.352941 0.121569 0.615686 0.352941 
0.121569 0.615686 0.352941 0.121569 0.615686 0.352941 
0.121569 0.615686 0.352941 0.121569 0.615686 0.352941 
0.121569 0.615686 0.352941 0.121569 0.615686 0.352941 
0.121569 0.615686 0.352941 0.121569 0.615686 0.352941 
0.121569 0.615686 0.352941 0.121569 0.615686 0.352941 
0.121569 0.615686 0.352941 0.121569 0.615686 0.352941 
0.121569 0.615686 0.352941 0.121569 0.615686 0.352941 
0.121569 0.615686 0.352941 0.121569 0.615686 0.352941 
0.121569 0.615686 0.352941 0.121569 0.615686 0.352941 
0.121569 0.615686 0.352941 0.121569 0.615686 0.352941 
0.121569 0.615686 0.352941 0.121569 0.615686 0.352941 
0.121569 0.615686 0.352941 0.121569 0.615686 0.352941 
0.121569 0.615686 0.352941 0.121569 0.615686 0.352941 
0.121569 0.615686 0.352941 0.121569 0.615686 0.352941 
0.121569 0.615686 0.352941 0.121569 0.615686 0.352941 
0.121569 0.615686 0.352941 0.121569 0.615686 0.352941 
0.121569 0.615686 0.352941 0.121569 0.615686 0.352941 
0.121569 0.615686 0.352941 0.121569 0.615686 0.352941 
0.121569 0.615686 0.352941 0.121569 0.615686 0.352941 
0.121569 0.615686 0.352941 0.121569 0.615686 0.352941 
0.121569 0.615686 0.352941 0.121569 0.615686 0.352941 
0.121569 0.615686 0.352941 0.121569 0.615686 0.352941 
0.121569 0.615686 0.352941 0.121569 0.615686 0.352941 
0.121569 0.615686 0.352941 0.121569 0.615686 0.352941 
0.121569 0.615686 0.352941 0.121569 0.615686 0.352941 
0.121569 0.615686 0.352941 0.121569 0.615686 0.352941 
0.121569 0.615686 0.352941 0.121569 0.615686 0.352941 
0.121569 0.615686 0.352941 0.121569 0.615686 0.352941 
0.121569 0.615686 0.352941 0.121569 0.615686 0.352941 
0.121569 0.615686 0.352941 0.121569 0.615686 0.352941 
0.121569 0.615686 0.352941 0.121569 0.615686 0.352941 
0.121569 0.615686 0.352941 0.121569 0.615686 0.352941 
0.121569 0.615686 0.352941 0.121569 0.615686 0.352941 
0.121569 0.615686 0.352941 0.121569 0.615686 0.352941 
0.121569 0.615686 0.352941 0.121569 0.615686 0.352941 
0.121569 0.615686 0.352941 0.121569 0.615686 0.352941 
0.121569 0.615686 0.352941 0.121569 0.615686 0.352941 
0.121569 0.615686 0.352941 0.121569 0.615686 0.352941 
0.121569 0.615686 0.352941 0.121569 0.615686 0.352941 
0.121569 0.615686 0.352941 0.121569 0.615686 0.352941 
0.121569 0.615686 0.352941 0.121569 0.615686 0.352941 
0.121569 0.615686 0.352941 0.121569 0.615686 0.352941 
0.121569 0.615686 0.352941 0.121569 0.615686 0.352941 
0.121569 0.615686 0.352941 0.121569 0.615686 0.352941 
0.121569 0.615686 0.352941 0.121569 0.615686 0.352941 
0.121569 0.615686 0.352941 0.121569 0.615686 0.352941 
0.121569 0.615686 0.352941 0.121569 0.615686 0.352941 
0.121569 0.615686 0.352941 0.121569 0.615686 0.352941 
0.121569 0.615686 0.352941 0.121569 0.615686 0.352941 
0.121569 0.615686 0.352941 0.121569 0.615686 0.352941 
0.121569 0.615686 0.352941 0.121569 0.615686 0.352941 
0.121569 0.615686 0.352941 0.121569 0.615686 0.352941 
0.121569 0.615686 0.352941 0.121569 0.615686 0.352941 
0.121569 0.615686 0.352941 0.121569 0.615686 0.352941 
0.121569 0.615686 0.352941 0.121569 0.615686 0.352941 
0.121569 0.615686 0.352941 0.121569 0.615686 0.352941 
0.121569 0.615686 0.352941 0.121569 0.615686 0.352941 
0.121569 0.615686 0.352941 0.121569 0.615686 0.352941 
0.121569 0.615686 0.352941 0.121569 0.615686 0.352941 
0.121569 0.615686 0.352941 0.121569 0.615686 0.352941 
0.121569 0.615686 0.352941 0.121569 0.615686 0.352941 
0.121569 0.615686 0.352941 0.121569 0.615686 0.352941 
0.121569 0.615686 0.352941 0.121569 0.615686 0.352941 
0.121569 0.615686 0.352941 0.121569 0.615686 0.352941 
0.121569 0.615686 0.352941 0.121569 0.615686 0.352941 
0.121569 0.615686 0.352941 0.121569 0.615686 0.352941 
0.121569 0.615686 0.352941 0.121569 0.615686 0.352941 
0.121569 0.615686 0.352941 0.121569 0.615686 0.352941 
0.121569 0.615686 0.352941 0.121569 0.615686 0.352941 
0.121569 0.615686 0.352941 0.121569 0.615686 0.352941 
0.121569 0.615686 0.352941 0.121569 0.615686 0.352941 
0.121569 0.615686 0.352941 0.121569 0.615686 0.352941 
0.121569 0.615686 0.352941 0.121569 0.615686 0.352941 
0.121569 0.615686 0.352941 0.121569 0.615686 0.352941 
0.121569 0.615686 0.352941 0.121569 0.615686 0.352941 
0.121569 0.615686 0.352941 0.121569 0.615686 0.352941 
0.121569 0.615686 0.352941 0.121569 0.615686 0.352941 
0.121569 0.615686 0.352941 0.121569 0.615686 0.352941 
0.121569 0.615686 0.352941 0.121569 0.615686 0.352941 
0.121569 0.615686 0.352941 0.121569 0.615686 0.352941 
0.121569 0.615686 0.352941 0.121569 0.615686 0.352941 
0.121569 0.615686 0.352941 0.121569 0.615686 0.352941 
0.121569 0.615686 0.352941 0.121569 0.615686 0.352941 
0.121569 0.615686 0.352941 0.121569 0.615686 0.352941 
0.121569 0.615686 0.352941 0.121569 0.615686 0.352941 
0.121569 0.615686 0.352941 0.121569 0.615686 0.352941 
0.121569 0.615686 0.352941 0.121569 0.615686 0.352941 
0.121569 0.615686 0.352941 0.121569 0.615686 0.352941 
0.121569 0.615686 0.352941 0.121569 0.615686 0.352941 
0.121569 0.615686 0.352941 0.121569 0.615686 0.352941 
0.121569 0.615686 0.352941 0.121569 0.615686 0.352941 
0.121569 0.615686 0.352941 0.121569 0.615686 0.352941 
0.121569 0.615686 0.352941 0.121569 0.615686 0.352941 
0.121569 0.615686 0.352941 0.121569 0.615686 0.352941 
0.121569 0.615686 0.352941 0.121569 0.615686 0.352941 
0.121569 0.615686 0.352941 0.121569 0.615686 0.352941 
0.121569 0.615686 0.352941 0.121569 0.615686 0.352941 
0.121569 0.615686 0.352941 0.121569 0.615686 0.352941 
0.121569 0.615686 0.352941 0.121569 0.615686 0.352941 
0.121569 0.615686 0.352941 0.121569 0.615686 0.352941 
0.121569 0.615686 0.352941 0.121569 0.615686 0.352941 
0.121569 0.615686 0.352941 0.121569 0.615686 0.352941 
0.121569 0.615686 0.352941 0.121569 0.615686 0.352941 
0.121569 0.615686 0.352941 0.121569 0.615686 0.352941 
0.121569 0.615686 0.352941 0.121569 0.615686 0.352941 
0.121569 0.615686 0.352941 0.121569 0.615686 0.352941 
0.121569 0.615686 0.352941 0.121569 0.615686 0.352941 
0.121569 0.615686 0.352941 0.121569 0.615686 0.352941 
0.121569 0.615686 0.352941 0.121569 0.615686 0.352941 
0.121569 0.615686 0.352941 0.121569 0.615686 0.352941 
0.121569 0.615686 0.352941 0.121569 0.615686 0.352941 
0.121569 0.615686 0.352941 0.121569 0.615686 0.352941 
0.121569 0.615686 0.352941 0.121569 0.615686 0.352941 
0.121569 0.615686 0.352941 0.121569 0.615686 0.352941 
0.121569 0.615686 0.352941 0.121569 0.615686 0.352941 
0.121569 0.615686 0.352941 0.121569 0.615686 0.352941 
0.121569 0.615686 0.352941 0.121569 0.615686 0.352941 
0.121569 0.615686 0.352941 
NORMALS Normals float
0.0558671 -0.218391 -0.974261 -0.155615 0.117411 -0.980815 0.187541 -0.0807346 -0.978933 
0.393153 -0.163323 -0.904852 -0.281023 0.245344 -0.927811 0.109165 0.307535 -0.945254 
0.0883803 -0.531889 -0.842189 0.144567 -0.431729 -0.890343 -0.343961 -0.122828 -0.930916 
0.478605 -0.339351 -0.809801 -0.469678 0.307982 -0.827375 0.433869 0.251843 -0.865062 
0.538371 0.00147306 -0.842707 0.5273 0.0215472 -0.849406 -0.0490158 0.521919 -0.851586 
0.305139 0.50563 -0.806988 0.190149 -0.860349 -0.472908 0.391501 -0.545436 -0.741098 
-0.329175 -0.391536 -0.859269 0.531162 -0.568553 -0.628183 0.702057 -0.192156 -0.685706 
0.438438 0.230183 -0.868785 0.584206 0.236828 -0.776284 -0.123658 0.6785 -0.724118 
-0.202515 -0.737824 -0.643897 -0.0728433 -0.804298 -0.589744 0.443906 -0.739171 -0.506531 
0.728305 -0.440308 -0.525071 0.619796 -0.561068 -0.548685 0.785187 -0.275406 -0.554646 
-0.483149 0.510745 -0.71113 -0.322985 0.66887 -0.669547 0.304331 0.535678 -0.787674 
-0.211406 -0.892569 -0.398282 -0.33282 -0.781768 -0.527323 0.172217 -0.936148 -0.306544 
-0.490564 -0.360291 -0.793434 -0.596105 0.0593825 -0.800708 -0.657178 0.402397 -0.637333 
-0.00138667 0.701975 -0.7122 0.367526 0.582402 -0.725074 0.423507 0.411004 -0.80729 
-0.377671 -0.720291 -0.581847 -0.444282 -0.626423 -0.640474 0.424824 -0.892484 -0.151644 
-0.563127 -0.385524 -0.730931 0.688358 -0.682045 -0.246938 0.783948 -0.572416 -0.240344 
-0.681609 0.282054 -0.67517 0.839576 -0.436836 -0.322934 -0.443246 0.761551 -0.472836 
-0.323731 0.858572 -0.397559 0.476581 0.149465 -0.866332 0.394439 0.323617 -0.860052 
0.478069 0.315387 -0.819745 0.212484 0.425948 -0.879443 -0.327631 -0.743902 -0.582468 
0.03178 -0.987595 -0.153772 -0.0438064 -0.956933 -0.286985 -0.504725 -0.572953 -0.645738 
0.217561 -0.974968 0.0458866 0.343434 -0.922656 -0.175384 -0.637073 -0.13617 -0.758681 
-0.717611 -0.0680415 -0.693112 0.794233 -0.573178 -0.201646 0.735382 -0.630215 -0.249084 
0.943883 -0.330209 0.00685714 0.929372 -0.333077 -0.159144 -0.48519 0.858806 -0.16445 
0.698033 -0.155291 -0.699024 0.0274969 0.605695 -0.795222 -0.33007 -0.922954 -0.198017 
-0.368858 -0.793158 -0.484607 -0.202608 -0.842897 -0.498472 -0.134586 -0.946965 -0.291795 
-0.528648 -0.748448 -0.400446 0.0333222 -0.966245 -0.255461 -0.686645 -0.49489 -0.532544 
-0.669369 -0.717005 -0.194551 -0.682603 -0.43346 -0.588358 0.455286 -0.886736 0.0800792 
0.567369 -0.817105 0.102131 -0.747401 -0.296457 -0.594563 -0.695496 0.298343 -0.653665 
-0.794108 0.156231 -0.587354 -0.682454 0.455217 -0.571869 -0.862444 0.328496 -0.385073 
-0.694698 0.629076 -0.348794 -0.588791 0.781769 -0.205335 -0.411443 0.900043 -0.143656 
-0.438875 0.762425 -0.475496 0.218565 0.602356 -0.767722 0.646513 0.198941 -0.736508 
-0.143084 0.686407 -0.713003 -0.0509925 -0.997239 -0.0539759 -0.716011 -0.648185 -0.259199 
0.277049 -0.940283 0.197769 -0.742959 -0.655048 -0.137564 -0.860133 -0.195801 -0.470991 
0.820762 -0.568749 0.053615 -0.51581 0.855774 0.0398944 0.788455 -0.371318 -0.490368 
0.935931 -0.0935541 -0.339529 0.989204 0.0479036 -0.138491 -0.503623 0.769759 -0.392218 
0.55899 0.727261 -0.398273 0.862325 0.371575 -0.343987 0.217163 0.725216 -0.653377 
0.428753 0.758617 -0.490582 0.710579 0.699875 0.0724738 -0.40753 -0.900558 0.151375 