# vtk DataFile Version 4.2
vtk output
ASCII
DATASET POLYDATA
POINTS 1024 float
161.586 147.652 108.272 162.051 148.154 108.248 162.579 148.623 108.337 
161.982 151.035 108.114 161.462 152.442 108.122 162.588 152.551 108.204 
162.328 154.412 108.19 161.746 155.726 108.26 162.124 155.804 108.297 
161.854 141.081 109.489 162.258 140.955 109.578 161.712 142.132 109.271 
162.047 142.308 109.266 160.925 145.32 108.772 161.892 145.681 108.565 
161.384 146.114 108.51 161.001 148.968 108.294 162.984 150.878 108.362 
163.454 150.672 108.59 163.028 151.894 108.357 160.963 153.849 108.257 
160.529 155.353 108.514 161.219 155.849 108.363 162.888 155.374 108.46 
161.834 157.634 108.552 161.091 162.383 108.938 160.885 162.821 109.036 
161.062 164.683 109.236 160.975 164.808 109.314 161.171 164.823 109.307 
162.158 138.41 110.37 162.059 138.238 110.427 161.478 139.577 109.976 
161.455 140.146 109.806 161.157 139.834 109.987 160.517 142.474 109.535 
162.385 142.917 109.252 163.285 143.854 109.457 160.055 144.553 109.266 
159.881 150.837 108.709 164.116 156.435 109.275 160.007 159.92 109.015 
160.59 164.634 109.455 161.12 165.295 109.524 160.988 166.118 109.816 
160.673 166.76 110.215 160.452 166.844 110.514 161.341 166.73 110.047 
160.903 167.138 110.53 161.326 167.139 110.193 161.663 167.203 110.359 
161.232 167.222 110.23 161.99 138.084 110.569 162.03 137.904 110.718 
161.879 137.976 110.749 162.222 137.9 110.775 162.555 137.994 110.821 
160.958 139.058 110.524 160.738 139.804 110.258 163.741 141.92 110.074 
164.502 150.853 109.385 163.025 164.37 109.888 159.53 165.379 110.313 
162.653 165.415 110.011 162.508 166.948 110.653 161.057 167.331 111.009 
161.494 167.37 110.692 161.373 167.284 110.331 162.06 167.261 110.558 
161.979 167.424 110.564 162.053 137.853 110.893 162.844 137.483 111.201 
162.918 137.416 111.246 163.005 137.491 111.217 162.976 137.397 111.216 
163.032 137.402 111.225 162.469 137.702 111.265 162.85 137.734 111.113 
163.183 137.771 111.387 163.706 138.974 111.052 159.961 139.097 111.657 
159.138 140.366 111.508 162.361 167.45 111.146 163.021 167.467 111.353 
163.343 167.553 111.637 163.639 167.426 111.731 162.903 137.538 111.37 
163.025 137.451 111.27 162.978 137.708 111.879 164.07 138.315 112.068 
160.161 138.765 111.952 160.22 138.621 112.552 156.311 159.233 111.832 
165.361 165.157 111.91 164.715 166.414 111.905 159.385 166.698 112.889 
164.883 166.607 112.243 163.336 167.644 111.873 163.575 167.625 112.181 
164.007 167.323 112.113 166 136.009 113.017 166 136.009 113.017 
166 136.009 113.017 166 136.009 113.017 161.745 137.85 112.839 
166 136.009 113.017 159.472 139.157 112.902 164.88 139.024 113.307 
157.924 140.188 113.623 158.972 139.41 113.625 166.026 144.063 112.033 
165.454 166.383 112.694 161.555 167.615 112.936 164.757 166.987 112.613 
165.961 166.555 113.395 163.998 167.492 112.818 163.807 167.546 112.254 
166 136.009 113.018 163.355 137.944 113.085 164.144 138.302 113.252 
165.398 139.776 113.782 166.913 143.544 113.574 167.139 143.183 114.246 
167.574 145.086 113.848 168.043 155.995 113.218 154.85 162.311 114.17 
166.938 164.828 113.426 166.677 165.929 113.662 166.67 166.461 114.172 
164.771 167.429 114.001 162.669 137.963 113.602 163.655 138.486 114.295 
158.889 139.504 115.135 164.971 139.238 114.301 165.77 140.367 114.625 
169.174 154.406 115.083 168.829 158.626 115.128 154.272 162.528 115.232 
168.384 162.237 115.073 155.378 164.054 115.747 156.717 164.939 115.565 
167.375 165.593 114.499 163.909 167.634 114.642 164.201 167.551 115.228 
166.168 167.04 114.957 163.544 138.946 115.317 161.675 138.817 115.303 
164.123 139.309 115.581 164.898 139.419 114.818 156.106 140.847 116.304 
157.545 140.316 116.28 154.512 141.941 116.169 165.327 140.413 115.902 
168.63 144.816 116.306 168.268 163.529 115.868 155.379 164.193 116.366 
167.709 165.531 115.351 167.233 166.398 115.378 167.415 166.213 115.682 
157.615 140.406 116.942 152.847 141.972 118.127 154.777 141.353 117.655 
155.528 141.118 117.432 165.53 140.928 116.401 152.683 142.706 117.084 
168.888 144.994 117.294 169.242 145.635 117.338 169.527 147.358 116.25 
169.924 149.487 116.742 169.982 149.334 117.034 151.039 157.499 116.892 
155.89 164.535 117.223 167.921 164.412 116.984 167.432 165.84 116.643 
164.612 167.176 116.466 165.715 167.169 116.121 166.217 166.997 116.235 
167.108 166.36 116.386 166.644 166.786 116.123 161.89 139.678 116.511 
157.938 140.464 117.339 152.876 141.77 118.779 169.534 146.166 118.168 
150.766 159.801 118.169 151.169 160.614 118.338 168.123 162.184 117.836 
151.93 161.673 118.731 167.34 165.532 117.22 151.937 141.947 119.506 
153.373 141.612 119.173 155.95 141.209 118.722 150.66 143.357 118.466 
165.947 143.331 118.911 168.664 144.86 118.128 168.471 144.89 118.538 
148.512 146.455 119.03 169.687 147.148 118.67 148.68 157.288 119.278 
149.481 158.585 119.006 151.97 161.755 119.553 153.26 162.617 119.644 
166.87 164.788 118.462 166.652 165.525 118.106 151.888 141.934 119.938 
149.985 142.991 119.728 150.899 142.375 120.347 148.709 143.822 120.3 
169.006 145.851 118.92 169.333 146.265 118.824 169.288 147.306 119.309 
149.519 159.384 119.688 150.19 160.362 120.601 151.231 161.258 120.141 
167.026 162.518 119.497 166.288 163.749 119.793 166.568 164.301 119.135 
165.985 164.549 119.56 162.571 165.52 119.627 152.15 141.909 120.207 
147.383 143.661 121.581 150.779 142.471 120.92 148.36 143.414 121.416 
149.531 142.972 121.412 168.211 146.902 120.377 148.354 158.999 121.836 
151.633 161.283 121.36 164.322 165.413 119.748 165.237 165.182 119.603 
152.689 142.297 121.308 148.898 143.153 122.199 167.238 146.919 121.165 
166.922 147.791 121.652 166.964 148.369 121.739 145.408 155.025 121.919 
147.208 158.135 122.753 165.608 162.661 121.006 165.349 163.526 120.786 
164.531 164.212 120.895 144.175 144.401 123.525 149.497 143.149 122.801 
149.927 143.366 123.54 153.243 143.447 123.09 143.694 145.699 123.055 
166.112 146.475 121.654 144.713 155.352 123.145 145.45 156.496 123.543 
146.099 157.064 123.14 146.191 157.28 123.643 147.203 158.145 123.152 
147.907 158.545 123.567 152.48 161.17 122.827 164.265 163.371 121.653 
143.281 144.275 124.36 149.82 143.606 124.23 144.142 155.152 124.076 
146.691 157.629 124.172 163.566 159.141 124.075 152.927 160.687 124.202 
163.249 162.998 122.517 142.248 143.529 125.949 143.051 143.968 124.883 
140.861 145.576 125.36 151.759 144.576 125.11 141.172 151.932 125.343 
142.091 153.571 125.871 144.301 155.548 125.141 146.089 156.734 125.619 
163.283 156.58 124.861 148.941 158.446 125.11 162.367 159.968 124.86 
142.114 143.082 126.593 142.933 143.084 126.322 144.669 142.987 126.238 
148.148 143.608 125.545 139.749 145.467 126.242 150.068 144.56 126.313 
139.628 146.369 126.106 140.956 152.531 126.341 141.287 153.052 126.697 
143.032 154.484 126.213 161.473 161.071 124.855 160.892 161.238 125.026 
145.751 142.991 126.854 147.552 143.528 126.37 149.653 144.448 126.598 
139.077 147.745 126.5 162.386 148.848 125.641 160.485 158.74 126.986 
160.204 159.585 126.695 157.52 160.937 126.142 138.457 142.345 128.386 
140.357 141.564 128.44 144.306 142.46 127.656 147.26 143.394 127.434 
151.334 146.09 128.166 153.362 147.528 128.025 141.175 153.127 127.968 
142.44 153.811 128.149 160.304 157.247 127.825 159.348 160.26 126.694 
151.316 146.402 129.389 137.45 149.685 129.712 153.452 149.017 129.834 
138.08 150.254 129.027 137.943 150.375 129.656 154.495 149.754 129.914 
138.295 150.737 129.393 138.559 151.045 129.573 151.253 155.994 129.503 
159.521 156.019 129.055 159.437 158.497 127.936 158.619 159.202 127.933 
138.286 139.213 130.721 136.115 141.088 130.375 141.247 140.695 129.316 
146.377 142.34 129.507 147.936 143.26 129.576 151.309 146.376 130.07 
135.977 147.72 130.216 153.568 150.022 130.938 154.092 150.154 130.44 
138.613 151.102 130.06 139.279 151.454 130.572 154.094 151.004 130.963 
151.878 154.862 130.549 152.715 154.031 131.176 149.251 155.228 129.794 
152.827 154.72 131.095 158.606 156.397 129.817 137.017 139.3 131.313 
134.908 145.076 130.933 150.476 145.233 130.591 151.93 146.905 131.266 
135.924 148.517 131.656 153.305 149.43 131.081 153.546 150.013 131.418 
155.586 150.774 130.712 158.288 151.683 129.919 153.687 150.892 131.254 
153.361 152.194 131.28 153.437 151.895 131.409 153.724 151.851 131.294 
154.415 151.284 131.404 155.519 151.075 131.238 151.989 153.918 131.128 
152.143 153.575 131.531 152.806 152.948 131.383 152.703 153.408 131.216 
153.055 153.142 131.407 158.684 153.106 130.146 151.128 154.28 131.069 
152.978 154.078 131.548 153.291 154.84 131.58 153.766 156.341 130.541 
157.81 157.05 129.996 135.308 139.972 132.108 135.318 139.795 132.35 
135.07 140.097 132.415 146.655 140.445 131.802 134.762 142.984 131.382 
134.384 144.44 132.309 150.471 144.336 131.818 134.532 146.321 132.092 
135.136 147.675 132.433 135.425 148.027 132.364 136.488 148.982 132.377 
153.556 149.654 131.837 156.244 151.182 131.118 153.366 152.372 131.486 
153.969 151.055 131.671 155.143 151.053 131.936 156.185 151.502 131.825 
152.629 153.264 131.667 152.86 153.498 131.819 151.239 153.855 132.213 
153.093 154.194 132.216 157.694 154.097 131.338 157.585 155.618 130.907 
156.965 155.871 131.187 156.782 156.472 130.881 146.553 137.856 134.191 
135.396 139.657 132.707 135.216 139.735 133.056 136.27 139.16 133.528 
137.627 138.543 133.349 147.723 138.748 133.994 135.005 139.947 133.086 
134.864 140.139 132.951 147.948 139.339 133.642 134.835 140.317 132.701 
134.785 140.414 132.946 134.705 141.4 132.743 134.569 144.058 133.195 
134.605 145.005 133.378 134.487 145.623 133.152 134.635 146.902 132.925 
152.834 147.253 132.82 134.794 147.176 132.969 137.543 149.572 132.768 
153.85 149.958 132.098 154.117 150.03 132.384 154.117 150.402 132.101 
155.482 150.944 132.783 154.555 150.687 132.182 156.506 152.274 132.375 
151.951 153.743 132.156 152.415 153.586 131.979 156.648 152.973 132.503 
152.456 153.809 132.438 156.773 153.624 132.333 156.318 153.803 132.768 
[...]
POINT_DATA 1024
COLOR_SCALARS scalars 3
0.121569 0.615686 0.352941 0.121569 0.615686 0.352941 0.121569 0.615686 0.352941 
0.121569 0.615686 0.352941 0.121569 0.615686 0.352941 
0.121569 0.615686 0.352941 0.121569 0.615686 0.352941 
0.121569 0.615686 0.352941 0.121569 0.615686 0.352941 
0.121569 0.615686 0.352941 0.121569 0.615686 0.352941 
0.121569 0.615686 0.352941 0.121569 0.615686 0.352941 
0.121569 0.615686 0.352941 0.121569 0.615686 0.352941 
0.121569 0.615686 0.352941 0.121569 0.615686 0.352941 
0.121569 0.615686 0.352941 0.121569 0.615686 0.352941 
0.121569 0.615686 0.352941 0.121569 0.615686 0.352941 
0.121569 0.615686 0.352941 0.121569 0.615686 0.352941 
0.121569 0.615686 0.352941 0.121569 0.615686 0.352941 
0.121569 0.615686 0.352941 0.121569 0.615686 0.352941 
0.121569 0.615686 0.352941 0.121569 0.615686 0.352941 
0.121569 0.615686 0.352941 0.121569 0.615686 0.352941 
0.121569 0.615686 0.352941 0.121569 0.615686 0.352941 
0.121569 0.615686 0.352941 0.121569 0.615686 0.352941 
0.121569 0.615686 0.352941 0.121569 0.615686 0.352941 
0.121569 0.615686 0.352941 0.121569 0.615686 0.352941 
0.121569 0.615686 0.352941 0.121569 0.615686 0.352941 
0.121569 0.615686 0.352941 0.121569 0.615686 0.352941 
0.121569 0.615686 0.352941 0.121569 0.615686 0.352941 
0.121569 0.615686 0.352941 0.121569 0.615686 0.352941 
0.121569 0.615686 0.352941 0.121569 0.615686 0.352941 
0.121569 0.615686 0.352941 0.121569 0.615686 0.352941 
0.121569 0.615686 0.352941 0.121569 0.615686 0.352941 
0.121569 0.615686 0.352941 0.121569 0.615686 0.352941 
0.121569 0.615686 0.352941 0.121569 0.615686 0.352941 
0.121569 0.615686 0.352941 0.121569 0.615686 0.352941 
0.121569 0.615686 0.352941 0.121569 0.615686 0.352941 
0.121569 0.615686 0.352941 0.121569 0.615686 0.352941 
0.121569 0.615686 0.352941 0.121569 0.615686 0.352941 
0.121569 0.615686 0.352941 0.121569 0.615686 0.352941 
0.121569 0.615686 0.352941 0.121569 0.615686 0.352941 
0.121569 0.615686 0.352941 0.121569 0.615686 0.352941 
0.121569 0.615686 0.352941 0.121569 0.615686 0.352941 
0.121569 0.615686 0.352941 0.121569 0.615686 0.352941 
0.121569 0.615686 0.352941 0.121569 0.615686 0.352941 
0.121569 0.615686 0.352941 0.121569 0.615686 0.352941 
0.121569 0.615686 0.352941 0.121569 0.615686 0.352941 
0.121569 0.615686 0.352941 0.121569 0.615686 0.352941 
0.121569 0.615686 0.352941 0.121569 0.615686 0.352941 
0.121569 0.615686 0.352941 0.121569 0.615686 0.352941 
0.121569 0.615686 0.352941 0.121569 0.615686 0.352941 
0.121569 0.615686 0.352941 0.121569 0.615686 0.352941 
0.121569 0.615686 0.352941 0.121569 0.615686 0.352941 
0.121569 0.615686 0.352941 0.121569 0.615686 0.352941 
0.121569 0.615686 0.352941 0.121569 0.615686 0.352941 
0.121569 0.615686 0.352941 0.121569 0.615686 0.352941 
0.121569 0.615686 0.352941 0.121569 0.615686 0.352941 
0.121569 0.615686 0.352941 0.121569 0.615686 0.352941 
0.121569 0.615686 0.352941 0.121569 0.615686 0.352941 
0.121569 0.615686 0.352941 0.121569 0.615686 0.352941 
0.121569 0.615686 0.352941 0.121569 0.615686 0.352941 
0.121569 0.615686 0.352941 0.121569 0.615686 0.352941 
0.121569 0.615686 0.352941 0.121569 0.615686 0.352941 
0.121569 0.615686 0.352941 0.121569 0.615686 0.352941 
0.121569 0.615686 0.352941 0.121569 0.615686 0.352941 
0.121569 0.615686 0.352941 0.121569 0.615686 0.352941 
0.121569 0.615686 0.352941 0.121569 0.615686 0.352941 
0.121569 0.615686 0.352941 0.121569 0.615686 0.352941 
0.121569 0.615686 0.352941 0.121569 0.615686 0.352941 
0.121569 0.615686 0.352941 0.121569 0.615686 0.352941 
0.121569 0.615686 0.352941 0.121569 0.615686 0.352941 
0.121569 0.615686 0.352941 0.121569 0.615686 0.352941 
0.121569 0.615686 0.352941 0.121569 0.615686 0.352941 
0.121569 0.615686 0.352941 0.121569 0.615686 0.352941 
0.121569 0.615686 0.352941 0.121569 0.615686 0.352941 
0.121569 0.615686 0.352941 0.121569 0.615686 0.352941 
0.121569 0.615686 0.352941 0.121569 0.615686 0.352941 
0.121569 0.615686 0.352941 0.121569 0.615686 0.352941 
0.121569 0.615686 0.352941 0.121569 0.615686 0.352941 
0.121569 0.615686 0.352941 0.121569 0.615686 0.352941 
0.121569 0.615686 0.352941 0.121569 0.615686 0.352941 
0.121569 0.615686 0.352941 0.121569 0.615686 0.352941 
0.121569 0.615686 0.352941 0.121569 0.615686 0.352941 
0.121569 0.615686 0.352941 0.121569 0.615686 0.352941 
0.121569 0.615686 0.352941 0.121569 0.615686 0.352941 
0.121569 0.615686 0.352941 0.121569 0.615686 0.352941 
0.121569 0.615686 0.352941 0.121569 0.615686 0.352941 
0.121569 0.615686 0.352941 0.121569 0.615686 0.352941 
0.121569 0.615686 0.352941 0.121569 0.615686 0.352941 
0.121569 0.615686 0.352941 0.121569 0.615686 0.352941 
0.121569 0.615686 0.352941 0.121569 0.615686 0.352941 
0.121569 0.615686 0.352941 0.121569 0.615686 0.352941 
0.121569 0.615686 0.352941 0.121569 0.615686 0.352941 
0.121569 0.615686 0.352941 0.121569 0.615686 0.352941 
0.121569 0.615686 0.352941 0.121569 0.615686 0.352941 
0.121569 0.615686 0.352941 0.121569 0.615686 0.352941 
0.121569 0.615686 0.352941 0.121569 0.615686 0.352941 
0.121569 0.615686 0.352941 0.121569 0.615686 0.352941 
0.121569 0.615686 0.352941 0.121569 0.615686 0.352941 
0.121569 0.615686 0.352941 0.121569 0.615686 0.352941 
0.121569 0.615686 0.352941 0.121569 0.615686 0.352941 
0.121569 0.615686 0.352941 0.121569 0.615686 0.352941 
0.121569 0.615686 0.352941 0.121569 0.615686 0.352941 
0.121569 0.615686 0.352941 0.121569 0.615686 0.352941 
0.121569 0.615686 0.352941 0.121569 0.615686 0.352941 
0.121569 0.615686 0.352941 0.121569 0.615686 0.352941 
0.121569 0.615686 0.352941 0.121569 0.615686 0.352941 
0.121569 0.615686 0.352941 0.121569 0.615686 0.352941 
0.121569 0.615686 0.352941 0.121569 0.615686 0.352941 
0.121569 0.615686 0.352941 0.121569 0.615686 0.352941 
0.121569 0.615686 0.352941 0.121569 0.615686 0.352941 
0.121569 0.615686 0.352941 0.121569 0.615686 0.352941 
0.121569 0.615686 0.352941 0.121569 0.615686 0.352941 
0.121569 0.615686 0.352941 0.121569 0.615686 0.352941 
0.121569 0.615686 0.352941 0.121569 0.615686 0.352941 
0.121569 0.615686 0.352941 0.121569 0.615686 0.352941 
0.121569 0.615686 0.352941 0.121569 0.615686 0.352941 
0.121569 0.615686 0.352941 0.121569 0.615686 0.352941 
0.121569 0.615686 0.352941 0.121569 0.615686 0.352941 
0.121569 0.615686 0.352941 0.121569 0.615686 0.352941 
0.121569 0.615686 0.352941 0.121569 0.615686 0.352941 
0.121569 0.615686 0.352941 0.121569 0.615686 0.352941 
0.121569 0.615686 0.352941 0.121569 0.615686 0.352941 
0.121569 0.615686 0.352941 0.121569 0.615686 0.352941 
0.121569 0.615686 0.352941 0.121569 0.615686 0.352941 
0.121569 0.615686 0.352941 0.121569 0.615686 0.352941 
0.121569 0.615686 0.352941 0.121569 0.615686 0.352941 
0.121569 0.615686 0.352941 0.121569 0.615686 0.352941 
0.121569 0.615686 0.352941 0.121569 0.615686 0.352941 
0.121569 0.615686 0.352941 0.121569 0.615686 0.352941 
0.121569 0.615686 0.352941 0.121569 0.615686 0.352941 
0.121569 0.615686 0.352941 0.121569 0.615686 0.352941 
0.121569 0.615686 0.352941 0.121569 0.615686 0.352941 
0.121569 0.615686 0.352941 0.121569 0.615686 0.352941 
0.121569 0.615686 0.352941 0.121569 0.615686 0.352941 
0.121569 0.615686 0.352941 0.121569 0.615686 0.352941 
0.121569 0.615686 0.352941 0.121569 0.615686 0.352941 
0.121569 0.615686 0.352941 0.121569 0.615686 0.352941 
0.121569 0.615686 0.352941 0.121569 0.615686 0.352941 
0.121569 0.615686 0.352941 0.121569 0.615686 0.352941 
0.121569 0.615686 0.352941 0.121569 0.615686 0.352941 
0.121569 0.615686 0.352941 0.121569 0.615686 0.352941 
0.121569 0.615686 0.352941 0.121569 0.615686 0.352941 
0.121569 0.615686 0.352941 0.121569 0.615686 0.352941 
0.121569 0.615686 0.352941 0.121569 0.615686 0.352941 
0.121569 0.615686 0.352941 0.121569 0.615686 0.352941 
0.121569 0.615686 0.352941 0.121569 0.615686 0.352941 
0.121569 0.615686 0.352941 0.121569 0.615686 0.352941 
0.121569 0.615686 0.352941 0.121569 0.615686 0.352941 
0.121569 0.615686 0.352941 0.121569 0.615686 0.352941 
0.121569 0.615686 0.352941 0.121569 0.615686 0.352941 
0.121569 0.615686 0.352941 0.121569 0.615686 0.352941 
0.121569 0.615686 0.352941 0.121569 0.615686 0.352941 
0.121569 0.615686 0.352941 0.121569 0.615686 0.352941 
0.121569 0.615686 0.352941 0.121569 0.615686 0.352941 
0.121569 0.615686 0.352941 0.121569 0.615686 0.352941 
0.121569 0.615686 0.352941 0.121569 0.615686 0.352941 
0.121569 0.615686 0.352941 0.121569 0.615686 0.352941 
0.121569 0.615686 0.352941 0.121569 0.615686 0.352941 
0.121569 0.615686 0.352941 0.121569 0.615686 0.352941 
0.121569 0.615686 0.352941 0.121569 0.615686 0.352941 
0.121569 0.615686 0.352941 0.121569 0.615686 0.352941 
0.121569 0.615686 0.352941 0.121569 0.615686 0.352941 
0.121569 0.615686 0.352941 0.121569 0.615686 0.352941 
0.121569 0.615686 0.352941 0.121569 0.615686 0.352941 
0.121569 0.615686 0.352941 0.121569 0.615686 0.352941 
0.121569 0.615686 0.352941 0.121569 0.615686 0.352941 
0.121569 0.615686 0.352941 0.121569 0.615686 0.352941 
0.121569 0.615686 0.352941 0.121569 0.615686 0.352941 
0.121569 0.615686 0.352941 0.121569 0.615686 0.352941 
0.121569 0.615686 0.352941 0.121569 0.615686 0.352941 
0.121569 0.615686 0.352941 0.121569 0.615686 0.352941 
0.121569 0.615686 0.352941 0.121569 0.615686 0.352941 
0.121569 0.615686 0.352941 0.121569 0.615686 0.352941 
0.121569 0.615686 0.352941 0.121569 0.615686 0.352941 
0.121569 0.615686 0.352941 0.121569 0.615686 0.352941 
0.121569 0.615686 0.352941 0.121569 0.615686 0.352941 
0.121569 0.615686 0.352941 0.121569 0.615686 0.352941 
0.121569 0.615686 0.352941 0.121569 0.615686 0.352941 
0.121569 0.615686 0.352941 0.121569 0.615686 0.352941 
0.121569 0.615686 0.352941 0.121569 0.615686 0.352941 
0.121569 0.615686 0.352941 0.121569 0.615686 0.352941 
0.121569 0.615686 0.352941 0.121569 0.615686 0.352941 
0.121569 0.615686 0.352941 0.121569 0.615686 0.352941 
0.121569 0.615686 0.352941 0.121569 0.615686 0.352941 
0.121569 0.615686 0.352941 0.121569 0.615686 0.352941 
0.121569 0.615686 0.352941 0.121569 0.615686 0.352941 
0.121569 0.615686 0.352941 0.121569 0.615686 0.352941 
0.121569 0.615686 0.352941 0.121569 0.615686 0.352941 
0.121569 0.615686 0.352941 0.121569 0.615686 0.352941 
0.121569 0.615686 0.352941 0.121569 0.615686 0.352941 
0.121569 0.615686 0.352941 0.121569 0.615686 0.352941 
0.121569 0.615686 0.352941 0.121569 0.615686 0.352941 
0.121569 0.615686 0.352941 0.121569 0.615686 0.352941 
0.121569 0.615686 0.352941 0.121569 0.615686 0.352941 
0.121569 0.615686 0.352941 0.121569 0.615686 0.352941 
0.121569 0.615686 0.352941 0.121569 0.615686 0.352941 
0.121569 0.615686 0.352941 0.121569 0.615686 0.352941 
0.121569 0.615686 0.352941 0.121569 0.615686 0.352941 
0.121569 0.615686 0.352941 0.121569 0.615686 0.352941 
0.121569 0.615686 0.352941 0.121569 0.615686 0.352941 
0.121569 0.615686 0.352941 0.121569 0.615686 0.352941 
0.121569 0.615686 0.352941 0.121569 0.615686 0.352941 
0.121569 0.615686 0.352941 0.121569 0.615686 0.352941 
0.121569 0.615686 0.352941 0.121569 0.615686 0.352941 
0.121569 0.615686 0.352941 0.121569 0.615686 0.352941 
0.121569 0.615686 0.352941 0.121569 0.615686 0.352941 
0.121569 0.615686 0.352941 0.121569 0.615686 0.352941 
0.121569 0.615686 0.352941 0.121569 0.615686 0.352941 
0.121569 0.615686 0.352941 0.121569 0.615686 0.352941 
0.121569 0.615686 0.352941 0.121569 0.615686 0.352941 
0.121569 0.615686 0.352941 0.121569 0.615686 0.352941 
0.121569 0.615686 0.352941 0.121569 0.615686 0.352941 
0.121569 0.615686 0.352941 0.121569 0.615686 0.352941 
0.121569 0.615686 0.352941 0.121569 0.615686 0.352941 
0.121569 0.615686 0.352941 0.121569 0.615686 0.352941 
0.121569 0.615686 0.352941 0.121569 0.615686 0.352941 
0.121569 0.615686 0.352941 0.121569 0.615686 0.352941 
0.121569 0.615686 0.352941 0.121569 0.615686 0.352941 
0.121569 0.615686 0.352941 0.121569 0.615686 0.352941 
0.121569 0.615686 0.352941 0.121569 0.615686 0.352941 
0.121569 0.615686 0.352941 0.121569 0.615686 0.352941 
0.121569 0.615686 0.352941 0.121569 0.615686 0.352941 
0.121569 0.615686 0.352941 0.121569 0.615686 0.352941 
0.121569 0.615686 0.352941 0.121569 0.615686 0.352941 
0.121569 0.615686 0.352941 0.121569 0.615686 0.352941 
0.121569 0.615686 0.352941 0.121569 0.615686 0.352941 
0.121569 0.615686 0.352941 0.121569 0.615686 0.352941 
0.121569 0.615686 0.352941 0.121569 0.615686 0.352941 
0.121569 0.615686 0.352941 0.121569 0.615686 0.352941 
0.121569 0.615686 0.352941 0.121569 0.615686 0.352941 
0.121569 0.615686 0.352941 0.121569 0.615686 0.352941 
0.121569 0.615686 0.352941 0.121569 0.615686 0.352941 
0.121569 0.615686 0.352941 0.121569 0.615686 0.352941 
0.121569 0.615686 0.352941 0.121569 0.615686 0.352941 
0.121569 0.615686 0.352941 0.121569 0.615686 0.352941 
0.121569 0.615686 0.352941 0.121569 0.615686 0.352941 
0.121569 0.615686 0.352941 0.121569 0.615686 0.352941 
0.121569 0.615686 0.352941 0.121569 0.615686 0.352941 
0.121569 0.615686 0.352941 0.121569 0.615686 0.352941 
0.121569 0.615686 0.352941 0.121569 0.615686 0.352941 
0.121569 0.615686 0.352941 0.121569 0.615686 0.352941 
0.121569 0.615686 0.352941 0.121569 0.615686 0.352941 
0.121569 0.615686 0.352941 0.121569 0.615686 0.352941 
0.121569 0.615686 0.352941 0.121569 0.615686 0.352941 
0.121569 0.615686 0.352941 0.121569 0.615686 0.352941 
0.121569 0.615686 0.352941 0.121569 0.615686 0.352941 
0.121569 0.615686 0.352941 0.121569 0.615686 0.352941 
0.121569 0.615686 0.352941 0.121569 0.615686 0.352941 
0.121569 0.615686 0.352941 0.121569 0.615686 0.352941 
0.121569 0.615686 0.352941 0.121569 0.615686 0.352941 
0.121569 0.615686 0.352941 0.121569 0.615686 0.352941 
0.121569 0.615686 0.352941 0.121569 0.615686 0.352941 
0.121569 0.615686 0.352941 0.121569 0.615686 0.352941 
0.121569 0.615686 0.352941 0.121569 0.615686 0.352941 
0.121569 0.615686 0.352941 0.121569 0.615686 0.352941 
0.121569 0.615686 0.352941 0.121569 0.615686 0.352941 
0.121569 0.615686 0.352941 0.121569 0.615686 0.352941 
0.121569 0.615686 0.352941 0.121569 0.615686 0.352941 
0.121569 0.615686 0.352941 0.121569 0.615686 0.352941 
0.121569 0.615686 0.352941 0.121569 0.615686 0.352941 
0.121569 0.615686 0.352941 0.121569 0.615686 0.352941 
0.121569 0.615686 0.352941 0.121569 0.615686 0.352941 
0.121569 0.615686 0.352941 0.121569 0.615686 0.352941 
0.121569 0.615686 0.352941 0.121569 0.615686 0.352941 
0.121569 0.615686 0.352941 0.121569 0.615686 0.352941 
0.121569 0.615686 0.352941 0.121569 0.615686 0.352941 
0.121569 0.615686 0.352941 0.121569 0.615686 0.352941 
0.121569 0.615686 0.352941 0.121569 0.615686 0.352941 
0.121569 0.615686 0.352941 0.121569 0.615686 0.352941 
0.121569 0.615686 0.352941 0.121569 0.615686 0.352941 
0.121569 0.615686 0.352941 0.121569 0.615686 0.352941 
0.121569 0.615686 0.352941 0.121569 0.615686 0.352941 
0.121569 0.615686 0.352941 0.121569 0.615686 0.352941 
0.121569 0.615686 0.352941 0.121569 0.615686 0.352941 
0.121569 0.615686 0.352941 0.121569 0.615686 0.352941 
0.121569 0.615686 0.352941 0.121569 0.615686 0.352941 
0.121569 0.615686 0.352941 0.121569 0.615686 0.352941 
0.121569 0.615686 0.352941 0.121569 0.615686 0.352941 
0.121569 0.615686 0.352941 0.121569 0.615686 0.352941 
0.121569 0.615686 0.352941 0.121569 0.615686 0.352941 
0.121569 0.615686 0.352941 0.121569 0.615686 0.352941 
0.121569 0.615686 0.352941 0.121569 0.615686 0.352941 
0.121569 0.615686 0.352941 0.121569 0.615686 0.352941 
0.121569 0.615686 0.352941 0.121569 0.615686 0.352941 
0.121569 0.615686 0.352941 0.121569 0.615686 0.352941 
0.121569 0.615686 0.352941 0.121569 0.615686 0.352941 
0.121569 0.615686 0.352941 0.121569 0.615686 0.352941 
0.121569 0.615686 0.352941 0.121569 0.615686 0.352941 
0.121569 0.615686 0.352941 0.121569 0.615686 0.352941 
0.121569 0.615686 0.352941 0.121569 0.615686 0.352941 
0.121569 0.615686 0.352941 0.121569 0.615686 0.352941 
0.121569 0.615686 0.352941 0.121569 0.615686 0.352941 
0.121569 0.615686 0.352941 0.121569 0.615686 0.352941 
0.121569 0.615686 0.352941 0.121569 0.615686 0.352941 
0.121569 0.615686 0.352941 0.121569 0.615686 0.352941 
0.121569 0.615686 0.352941 0.121569 0.615686 0.352941 
0.121569 0.615686 0.352941 0.121569 0.615686 0.352941 
0.121569 0.615686 0.352941 0.121569 0.615686 0.352941 
0.121569 0.615686 0.352941 0.121569 0.615686 0.352941 
0.121569 0.615686 0.352941 0.121569 0.615686 0.352941 
0.121569 0.615686 0.352941 0.121569 0.615686 0.352941 
0.121569 0.615686 0.352941 0.121569 0.615686 0.352941 
0.121569 0.615686 0.352941 0.121569 0.615686 0.352941 
0.121569 0.615686 0.352941 0.121569 0.615686 0.352941 
0.121569 0.615686 0.352941 0.121569 0.615686 0.352941 
0.121569 0.615686 0.352941 0.121569 0.615686 0.352941 
0.121569 0.615686 0.352941 0.121569 0.615686 0.352941 
0.121569 0.615686 0.352941 0.121569 0.615686 0.352941 
0.121569 0.615686 0.352941 0.121569 0.615686 0.352941 
0.121569 0.615686 0.352941 0.121569 0.615686 0.352941 
0.121569 0.615686 0.352941 0.121569 0.615686 0.352941 
0.121569 0.615686 0.352941 0.121569 0.615686 0.352941 
0.121569 0.615686 0.352941 0.121569 0.615686 0.352941 
0.121569 0.615686 0.352941 0.121569 0.615686 0.352941 
0.121569 0.615686 0.352941 0.121569 0.615686 0.352941 
0.121569 0.615686 0.352941 0.121569 0.615686 0.352941 
0.121569 0.615686 0.352941 0.121569 0.615686 0.352941 
0.121569 0.615686 0.352941 0.121569 0.615686 0.352941 
0.121569 0.615686 0.352941 0.121569 0.615686 0.352941 
0.121569 0.615686 0.352941 0.121569 0.615686 0.352941 
0.121569 0.615686 0.352941 0.121569 0.615686 0.352941 
0.121569 0.615686 0.352941 0.121569 0.615686 0.352941 
0.121569 0.615686 0.352941 0.121569 0.615686 0.352941 
0.121569 0.615686 0.352941 0.121569 0.615686 0.352941 
0.121569 0.615686 0.352941 0.121569 0.615686 0.352941 
0.121569 0.615686 0.352941 0.121569 0.615686 0.352941 
0.121569 0.615686 0.352941 0.121569 0.615686 0.352941 
0.121569 0.615686 0.352941 0.121569 0.615686 0.352941 
0.121569 0.615686 0.352941 0.121569 0.615686 0.352941 
0.121569 0.615686 0.352941 0.121569 0.615686 0.352941 
0.121569 0.615686 0.352941 0.121569 0.615686 0.352941 
0.121569 0.615686 0.352941 0.121569 0.615686 0.352941 
0.121569 0.615686 0.352941 0.121569 0.615686 0.352941 
0.121569 0.615686 0.352941 0.121569 0.615686 0.352941 
0.121569 0.615686 0.352941 0.121569 0.615686 0.352941 
0.121569 0.615686 0.352941 0.121569 0.615686 0.352941 
0.121569 0.615686 0.352941 0.121569 0.615686 0.352941 
0.121569 0.615686 0.352941 0.121569 0.615686 0.352941 
0.121569 0.615686 0.352941 0.121569 0.615686 0.352941 
0.121569 0.615686 0.352941 0.121569 0.615686 0.352941 
0.121569 0.615686 0.352941 0.121569 0.615686 0.352941 
0.121569 0.615686 0.352941 0.121569 0.615686 0.352941 
0.121569 0.615686 0.352941 0.121569 0.615686 0.352941 
0.121569 0.615686 0.352941 0.121569 0.615686 0.352941 
0.121569 0.615686 0.352941 0.121569 0.615686 0.352941 
0.121569 0.615686 0.352941 0.121569 0.615686 0.352941 
0.121569 0.615686 0.352941 0.121569 0.615686 0.352941 
0.121569 0.615686 0.352941 0.121569 0.615686 0.352941 
0.121569 0.615686 0.352941 0.121569 0.615686 0.352941 
0.121569 0.615686 0.352941 0.121569 0.615686 0.352941 
0.121569 0.615686 0.352941 0.121569 0.615686 0.352941 
0.121569 0.615686 0.352941 0.121569 0.615686 0.352941 
0.121569 0.615686 0.352941 0.121569 0.615686 0.352941 
0.121569 0.615686 0.352941 0.121569 0.615686 0.352941 
0.121569 0.615686 0.352941 0.121569 0.615686 0.352941 
0.121569 0.615686 0.352941 0.121569 0.615686 0.352941 
0.121569 0.615686 0.352941 0.121569 0.615686 0.352941 
0.121569 0.615686 0.352941 0.121569 0.615686 0.352941 
0.121569 0.615686 0.352941 0.121569 0.615686 0.352941 
0.121569 0.615686 0.352941 0.121569 0.615686 0.352941 
0.121569 0.615686 0.352941 0.121569 0.615686 0.352941 
0.121569 0.615686 0.352941 0.121569 0.615686 0.352941 
0.121569 0.615686 0.352941 0.121569 0.615686 0.352941 
0.121569 0.615686 0.352941 0.121569 0.615686 0.352941 
0.121569 0.615686 0.352941 0.121569 0.615686 0.352941 
0.121569 0.615686 0.352941 0.121569 0.615686 0.352941 
0.121569 0.615686 0.352941 0.121569 0.615686 0.352941 
0.121569 0.615686 0.352941 0.121569 0.615686 0.352941 