# vtk DataFile Version 4.2
vtk output
ASCII
DATASET POLYDATA
POINTS 1939 float
165.227 126.944 112.897 165.197 127.076 112.935 165.314 127.081 112.909 
165.288 127.224 112.993 165.994 125.652 113.105 165.88 125.182 113.196 
165.307 126.332 113.05 166.346 125.901 113.189 164.753 126.819 113.368 
165.528 127.232 113.054 165.301 127.465 113.242 166.117 128.259 113.485 
166.028 128.166 113.457 167.96 122.076 114.566 166.372 122.856 113.987 
168.101 122.424 114.45 166.4 123.708 113.683 165.691 123.614 113.727 
167.155 123.626 113.798 167.712 123.285 114.025 164.98 124.198 113.712 
166.307 124.731 113.384 167.471 124.854 113.721 166.783 126.706 113.376 
165.798 127.884 113.432 166.371 127.586 113.407 165.673 128.777 114.101 
166.889 121.087 115.319 167.396 121.154 115.257 168.271 122.107 114.744 
165.587 122.432 114.345 168.164 123.288 114.203 168.036 125.853 113.998 
167.07 128.864 114.104 166.453 129.61 114.339 166.982 131.337 114.84 
167.255 131.788 114.967 166.329 134.881 115.359 166.188 135.819 115.487 
167.792 121.127 115.479 162.586 124.196 115.713 166.044 130.816 114.918 
166.362 131.947 115.1 167.797 131.936 115.136 166.686 132.489 115.14 
166.232 133.743 115.351 165.426 136.5 115.989 166.46 137.227 115.736 
166.029 137.526 115.909 166.891 137.317 115.722 167.567 136.938 115.764 
164.582 120.732 116.275 163.833 121.235 116.227 170.118 124.659 115.671 
161.651 123.911 116.808 165.919 131.838 115.298 165.448 132 115.723 
164.394 136.301 116.827 162.448 121.852 116.907 171.887 123.544 117.405 
161.034 122.807 117.882 164.863 131.42 116.231 163.545 138.902 117.6 
164.961 139.959 117.101 166.011 140.396 116.986 166.598 140.352 116.898 
167.218 141.296 117.471 168.05 141.169 117.552 172.649 122.942 118.423 
169.869 140.357 118.174 164.514 141.71 118.225 167.264 142.524 118.501 
168.797 119.693 119.613 171.222 121.148 118.783 161.105 125.744 118.557 
171.85 135.959 118.927 159.81 140.283 120.037 161.614 141.875 119.475 
170.42 141.377 119.247 167.901 143.041 119.208 168.891 143.017 119.627 
169.664 142.605 119.548 172.682 121.481 119.807 159.345 122.817 120.685 
173.73 123.693 119.322 159.331 123.253 120.518 159.372 123.417 120.429 
162.193 128.506 119.547 163.364 132.676 118.867 170.705 140.738 119.237 
171.334 140.186 120.167 158.998 141.51 120.774 170.517 141.872 119.845 
161.658 143.217 120.377 162.051 143.609 120.585 170.534 141.981 120.13 
165.066 143.948 120.314 169.378 142.997 120.204 169.805 142.695 120.215 
162.881 118.36 121.116 159.781 121.021 120.749 159.064 122.113 121.579 
158.995 122.443 121.72 159.361 123.436 120.655 172.977 136.777 121.209 
172.718 137.652 120.951 157.612 140.685 122.041 157.602 140.938 122.013 
157.861 140.25 121.925 157.733 141.15 121.932 158.779 142.091 121.3 
159.231 142.418 121.116 170.621 141.777 121.117 170.724 141.717 120.4 
159.583 143.379 121.843 170.325 142.216 120.465 164.636 144.394 120.991 
166.568 144.106 120.759 167.417 143.9 120.696 166.147 144.419 121.424 
167.722 143.904 121.138 161.185 119.018 121.802 166.791 118.63 121.949 
159.966 120.192 121.793 175.468 121.639 121.899 159.671 124.968 122.192 
176.434 126.762 121.999 176.112 128.34 122.039 174.74 132.427 121.784 
157.514 139.728 122.653 157.503 140.822 122.201 158.147 142.014 122.102 
161.662 144.514 121.932 168.3 143.562 121.887 161.622 118.494 122.882 
161.633 118.455 123.189 161.866 118.361 123.06 161.313 118.832 122.425 
163.757 118.112 122.805 177.907 120.751 123.456 177.493 120.27 123.494 
172.678 120.021 122.391 177.965 121.425 123.331 158.939 122.087 122.512 
158.914 122.449 122.576 158.957 122.766 122.372 159.459 124.659 123.101 
177.983 124.638 123.201 161.878 130.49 121.341 176.341 130.065 123.255 
149.704 131.743 124.404 149.399 131.583 124.385 149.206 131.651 124.403 
148.965 131.889 124.499 149.636 132.134 124.448 161.754 132.323 121.377 
149.474 132.482 124.562 174.656 133.491 122.551 173.616 135.56 122.746 
157.448 138.113 123.231 171.796 138.57 123.069 157.443 140.833 122.482 
168.085 143.336 122.925 164.373 145.247 122.859 166.01 144.728 122.707 
160.766 119.172 123.782 178.265 119.386 124.025 159.21 121.387 123.382 
149.413 130.044 124.917 150.152 129.557 125.284 177.733 128.064 124.192 
177.432 128.931 124.488 148.105 131.343 124.827 147.965 131.633 124.866 
150.731 131.816 124.707 175.843 131.857 123.794 147.767 131.762 124.985 
160.052 133.415 123.01 175.182 132.96 123.6 156.301 137.92 124.632 
166.95 143.737 124.126 161.289 145.237 123.911 161.076 145.212 124.4 
162.39 145.654 124.459 163.664 145.641 124.161 163.345 145.711 124.507 
164.933 145.176 124.185 182.2 112.016 126.227 182.2 111.563 126.384 
182.168 115.828 125.777 161.978 118.588 124.813 159.52 120.945 124.376 
175.92 118.858 124.356 180.831 120.188 125.073 159.481 121.237 124.722 
180.5 121.743 125.066 149.193 128.645 125.861 147.646 130.254 125.345 
152.777 131.059 125.556 176.719 130.173 125.114 175.814 131.818 124.003 
146.749 131.716 125.761 151.953 133.128 125.19 147.995 133.548 125.869 
151.249 134.31 125.631 173.771 134.657 124.506 156.056 136.363 124.809 
156.25 137.161 124.676 156.443 139.307 124.811 158.512 143.228 125.48 
162.226 145.613 125.461 164.898 144.997 125.079 163.307 145.652 125.015 
182.876 110.55 126.86 163.007 118.35 125.214 159.208 125.611 126.233 
180.246 124.67 126.396 148.309 128.385 126.387 179.062 126.436 125.591 
147.582 128.818 126.281 159.407 127.572 125.244 153.386 133.327 125.35 
156.465 131.795 125.617 153.188 134.904 125.693 154.699 134.338 125.293 
156.59 133.854 124.901 153.83 135.496 125.748 154.619 137.202 126.09 
156.177 139.554 125.707 156.569 140.44 126.051 159.872 144.45 125.546 
165.134 143.912 126.172 161.667 145.404 125.7 162.56 145.569 125.759 
183.921 108.443 127.857 183.437 109.019 127.59 182.553 109.866 127.22 
181.657 110.299 127.208 183.867 110.371 127.225 177.35 115.029 126.932 
183.089 116.232 126.377 183.019 118.251 126.622 161.296 119.456 126.878 
183.56 119.389 127.657 147.827 127.64 127.802 147.567 127.824 127.56 
148.534 127.741 127.309 150.478 127.98 127.029 178.111 127.656 127.082 
145.452 130.132 127.593 157.705 129.357 126.585 176.863 129.572 126.318 
145.374 130.617 127.376 155.329 130.099 126.679 155.912 130.04 126.714 
157.018 130.315 126.283 158.063 130.289 125.78 145.02 131.275 127.663 
145.046 131.336 127.524 145.16 131.383 127.396 145.345 131.714 127.342 
151.317 135.818 126.923 169.253 138.13 126.635 154.718 138.475 127.172 
158.274 142.49 127.324 162.159 145.27 126.526 183.997 107.616 128.39 
183.861 107.024 128.83 185.201 107.408 128.836 184.86 108.664 128.162 
185.03 109.905 127.962 179.541 111.07 128.119 162.999 118.671 128.278 
172.102 118.019 126.727 183.929 119.362 128.269 183.317 120.342 128.046 
147.743 127.631 128.235 148.528 127.435 128.053 179.336 125.876 127.791 
146.916 128.262 128.801 149.711 127.503 128.252 158.147 127.717 127.362 
145.272 130.076 128.326 152.954 128.384 127.985 145.213 131.957 127.914 
146.504 133.517 127.509 146.248 133.544 128.08 155.076 139.418 128.534 
156.926 140.99 127.814 163.799 143.274 127.975 161.379 144.923 127.068 
186.244 105.228 130.539 186.181 105.72 130.134 185.902 108.48 128.871 
186.102 111.321 128.71 185.829 113.683 128.539 185.489 114.83 128.337 
185.876 116.696 129.647 167.366 117.841 128.268 184.533 119.121 129.251 
178.845 125.693 129.155 157.6 126.811 129.127 145.858 129.315 129.09 
154.513 128.389 128.593 156.449 128.171 128.484 176.06 128.923 128.647 
145.014 131.287 128.724 145.195 132.154 128.479 145.385 132.463 128.261 
146.05 133.548 128.606 154.971 139.548 129.333 161.99 144.733 127.405 
185.515 104.635 131.205 186.965 104.861 131.112 181.876 106.996 130.314 
186.141 116.909 130.314 186.085 117.236 130.691 185.013 118.636 129.813 
184.296 119.638 129.87 150.321 127.483 129.358 148.697 127.774 130.213 
155.118 127.83 129.655 145.376 130.668 129.782 145.177 132.058 128.948 
145.371 132.457 129.345 145.867 133.379 128.865 147.095 134.728 129.134 
163.546 141.433 129.683 162.232 142.709 129.289 186.688 103.837 132.154 
186.933 104.113 131.843 184.496 104.791 131.444 186.879 116.17 131.136 
186.172 117.281 131.273 184.291 119.632 130.466 146.297 130.079 131.216 
145.421 131.528 130.262 145.604 132.496 130.663 145.812 133.278 130.13 
146.619 134.446 129.969 186.71 103.452 132.871 189.022 113.116 132.153 
164.843 117.672 131.39 185.834 117.713 132.225 162.146 118.989 131.455 
163.469 118.161 131.763 149.627 127.93 131.681 159.647 141.217 131.431 
161.325 141.275 131.121 188.878 104.774 132.527 189.34 113.581 133.012 
189.119 114.354 133.651 162.117 118.746 132.632 148.173 129.199 133.41 
146.291 133.868 132.562 189.353 102.952 134.224 177.257 109.354 134.59 
190.258 113.108 134.591 160.148 120.577 132.949 150.758 127.986 133.86 
148.969 137.901 134.389 150.451 138.84 134.279 156.143 140.31 134.015 
160.127 139.986 133.632 169.897 113.92 134.486 188.548 115.067 135.198 
146.518 132.104 135.009 146.309 133.689 135.559 146.857 135.688 134.607 
148.231 137.412 134.814 191.155 100.734 137.154 176.203 109.676 135.738 
191.693 111.71 136.396 188.068 115.218 136.062 163.122 116.973 135.273 
161.438 118.288 135.039 170.16 128.145 135.702 147.437 130.484 135.592 
146.749 131.601 135.496 193.64 100.061 138.505 190.996 100.543 137.391 
192.174 100.199 137.958 193.937 100.546 138.28 193.782 104.091 136.995 
193.012 107.538 136.272 193.285 108.779 137.179 174.886 110.022 136.895 
146.16 133.564 137.345 148.745 138.336 136.79 157.484 139.712 136.597 
190.316 100.226 138.13 191.639 99.8376 138.519 194.491 101.144 138.309 
193.928 108.48 138.439 173.851 110.168 137.835 155.909 123.586 137.719 
146.304 132.432 137.729 146.458 135.71 137.68 147.078 136.942 137.973 
152.585 140.526 138.917 195.502 99.5966 139.929 192.776 99.129 139.829 
193.448 99.2844 139.54 196.137 99.8476 140.143 190.74 99.5465 139.481 
194.172 108.507 139.106 193.644 109.187 139.009 158.692 118.598 138.227 
154.313 124.719 138.639 152.858 126.18 138.067 146.425 131.662 138.468 
[...]
POINT_DATA 1939
COLOR_SCALARS scalars 3
0.121569 0.615686 0.352941 0.121569 0.615686 0.352941 0.121569 0.615686 0.352941 
0.121569 0.615686 0.352941 0.121569 0.615686 0.352941 
0.121569 0.615686 0.352941 0.121569 0.615686 0.352941 
0.121569 0.615686 0.352941 0.121569 0.615686 0.352941 
0.121569 0.615686 0.352941 0.121569 0.615686 0.352941 
0.121569 0.615686 0.352941 0.121569 0.615686 0.352941 
0.121569 0.615686 0.352941 0.121569 0.615686 0.352941 
0.121569 0.615686 0.352941 0.121569 0.615686 0.352941 
0.121569 0.615686 0.352941 0.121569 0.615686 0.352941 
0.121569 0.615686 0.352941 0.121569 0.615686 0.352941 
0.121569 0.615686 0.352941 0.121569 0.615686 0.352941 
0.121569 0.615686 0.352941 0.121569 0.615686 0.352941 
0.121569 0.615686 0.352941 0.121569 0.615686 0.352941 
0.121569 0.615686 0.352941 0.121569 0.615686 0.352941 
0.121569 0.615686 0.352941 0.121569 0.615686 0.352941 
0.121569 0.615686 0.352941 0.121569 0.615686 0.352941 
0.121569 0.615686 0.352941 0.121569 0.615686 0.352941 
0.121569 0.615686 0.352941 0.121569 0.615686 0.352941 
0.121569 0.615686 0.352941 0.121569 0.615686 0.352941 
0.121569 0.615686 0.352941 0.121569 0.615686 0.352941 
0.121569 0.615686 0.352941 0.121569 0.615686 0.352941 
0.121569 0.615686 0.352941 0.121569 0.615686 0.352941 
0.121569 0.615686 0.352941 0.121569 0.615686 0.352941 
0.121569 0.615686 0.352941 0.121569 0.615686 0.352941 
0.121569 0.615686 0.352941 0.121569 0.615686 0.352941 
0.121569 0.615686 0.352941 0.121569 0.615686 0.352941 
0.121569 0.615686 0.352941 0.121569 0.615686 0.352941 
0.121569 0.615686 0.352941 0.121569 0.615686 0.352941 
0.121569 0.615686 0.352941 0.121569 0.615686 0.352941 
0.121569 0.615686 0.352941 0.121569 0.615686 0.352941 
0.121569 0.615686 0.352941 0.121569 0.615686 0.352941 
0.121569 0.615686 0.352941 0.121569 0.615686 0.352941 
0.121569 0.615686 0.352941 0.121569 0.615686 0.352941 
0.121569 0.615686 0.352941 0.121569 0.615686 0.352941 
0.121569 0.615686 0.352941 0.121569 0.615686 0.352941 
0.121569 0.615686 0.352941 0.121569 0.615686 0.352941 
0.121569 0.615686 0.352941 0.121569 0.615686 0.352941 
0.121569 0.615686 0.352941 0.121569 0.615686 0.352941 
0.121569 0.615686 0.352941 0.121569 0.615686 0.352941 
0.121569 0.615686 0.352941 0.121569 0.615686 0.352941 
0.121569 0.615686 0.352941 0.121569 0.615686 0.352941 
0.121569 0.615686 0.352941 0.121569 0.615686 0.352941 
0.121569 0.615686 0.352941 0.121569 0.615686 0.352941 
0.121569 0.615686 0.352941 0.121569 0.615686 0.352941 
0.121569 0.615686 0.352941 0.121569 0.615686 0.352941 
0.121569 0.615686 0.352941 0.121569 0.615686 0.352941 
0.121569 0.615686 0.352941 0.121569 0.615686 0.352941 
0.121569 0.615686 0.352941 0.121569 0.615686 0.352941 
0.121569 0.615686 0.352941 0.121569 0.615686 0.352941 
0.121569 0.615686 0.352941 0.121569 0.615686 0.352941 
0.121569 0.615686 0.352941 0.121569 0.615686 0.352941 
0.121569 0.615686 0.352941 0.121569 0.615686 0.352941 
0.121569 0.615686 0.352941 0.121569 0.615686 0.352941 
0.121569 0.615686 0.352941 0.121569 0.615686 0.352941 
0.121569 0.615686 0.352941 0.121569 0.615686 0.352941 
0.121569 0.615686 0.352941 0.121569 0.615686 0.352941 
0.121569 0.615686 0.352941 0.121569 0.615686 0.352941 
0.121569 0.615686 0.352941 0.121569 0.615686 0.352941 
0.121569 0.615686 0.352941 0.121569 0.615686 0.352941 
0.121569 0.615686 0.352941 0.121569 0.615686 0.352941 
0.121569 0.615686 0.352941 0.121569 0.615686 0.352941 
0.121569 0.615686 0.352941 0.121569 0.615686 0.352941 
0.121569 0.615686 0.352941 0.121569 0.615686 0.352941 
0.121569 0.615686 0.352941 0.121569 0.615686 0.352941 
0.121569 0.615686 0.352941 0.121569 0.615686 0.352941 
0.121569 0.615686 0.352941 0.121569 0.615686 0.352941 
0.121569 0.615686 0.352941 0.121569 0.615686 0.352941 
0.121569 0.615686 0.352941 0.121569 0.615686 0.352941 
0.121569 0.615686 0.352941 0.121569 0.615686 0.352941 
0.121569 0.615686 0.352941 0.121569 0.615686 0.352941 
0.121569 0.615686 0.352941 0.121569 0.615686 0.352941 
0.121569 0.615686 0.352941 0.121569 0.615686 0.352941 
0.121569 0.615686 0.352941 0.121569 0.615686 0.352941 
0.121569 0.615686 0.352941 0.121569 0.615686 0.352941 
0.121569 0.615686 0.352941 0.121569 0.615686 0.352941 
0.121569 0.615686 0.352941 0.121569 0.615686 0.352941 
0.121569 0.615686 0.352941 0.121569 0.615686 0.352941 
0.121569 0.615686 0.352941 0.121569 0.615686 0.352941 
0.121569 0.615686 0.352941 0.121569 0.615686 0.352941 
0.121569 0.615686 0.352941 0.121569 0.615686 0.352941 
0.121569 0.615686 0.352941 0.121569 0.615686 0.352941 
0.121569 0.615686 0.352941 0.121569 0.615686 0.352941 
0.121569 0.615686 0.352941 0.121569 0.615686 0.352941 
0.121569 0.615686 0.352941 0.121569 0.615686 0.352941 
0.121569 0.615686 0.352941 0.121569 0.615686 0.352941 
0.121569 0.615686 0.352941 0.121569 0.615686 0.352941 
0.121569 0.615686 0.352941 0.121569 0.615686 0.352941 
0.121569 0.615686 0.352941 0.121569 0.615686 0.352941 
0.121569 0.615686 0.352941 0.121569 0.615686 0.352941 
0.121569 0.615686 0.352941 0.121569 0.615686 0.352941 
0.121569 0.615686 0.352941 0.121569 0.615686 0.352941 
0.121569 0.615686 0.352941 0.121569 0.615686 0.352941 
0.121569 0.615686 0.352941 0.121569 0.615686 0.352941 
0.121569 0.615686 0.352941 0.121569 0.615686 0.352941 
0.121569 0.615686 0.352941 0.121569 0.615686 0.352941 
0.121569 0.615686 0.352941 0.121569 0.615686 0.352941 
0.121569 0.615686 0.352941 0.121569 0.615686 0.352941 
0.121569 0.615686 0.352941 0.121569 0.615686 0.352941 
0.121569 0.615686 0.352941 0.121569 0.615686 0.352941 
0.121569 0.615686 0.352941 0.121569 0.615686 0.352941 
0.121569 0.615686 0.352941 0.121569 0.615686 0.352941 
0.121569 0.615686 0.352941 0.121569 0.615686 0.352941 
0.121569 0.615686 0.352941 0.121569 0.615686 0.352941 
0.121569 0.615686 0.352941 0.121569 0.615686 0.352941 
0.121569 0.615686 0.352941 0.121569 0.615686 0.352941 
0.121569 0.615686 0.352941 0.121569 0.615686 0.352941 
0.121569 0.615686 0.352941 0.121569 0.615686 0.352941 
0.121569 0.615686 0.352941 0.121569 0.615686 0.352941 
0.121569 0.615686 0.352941 0.121569 0.615686 0.352941 
0.121569 0.615686 0.352941 0.121569 0.615686 0.352941 
0.121569 0.615686 0.352941 0.121569 0.615686 0.352941 
0.121569 0.615686 0.352941 0.121569 0.615686 0.352941 
0.121569 0.615686 0.352941 0.121569 0.615686 0.352941 
0.121569 0.615686 0.352941 0.121569 0.615686 0.352941 
0.121569 0.615686 0.352941 0.121569 0.615686 0.352941 
0.121569 0.615686 0.352941 0.121569 0.615686 0.352941 
0.121569 0.615686 0.352941 0.121569 0.615686 0.352941 
0.121569 0.615686 0.352941 0.121569 0.615686 0.352941 
0.121569 0.615686 0.352941 0.121569 0.615686 0.352941 
0.121569 0.615686 0.352941 0.121569 0.615686 0.352941 
0.121569 0.615686 0.352941 0.121569 0.615686 0.352941 
0.121569 0.615686 0.352941 0.121569 0.615686 0.352941 
0.121569 0.615686 0.352941 0.121569 0.615686 0.352941 
0.121569 0.615686 0.352941 0.121569 0.615686 0.352941 
0.121569 0.615686 0.352941 0.121569 0.615686 0.352941 
0.121569 0.615686 0.352941 0.121569 0.615686 0.352941 
0.121569 0.615686 0.352941 0.121569 0.615686 0.352941 
0.121569 0.615686 0.352941 0.121569 0.615686 0.352941 
0.121569 0.615686 0.352941 0.121569 0.615686 0.352941 
0.121569 0.615686 0.352941 0.121569 0.615686 0.352941 
0.121569 0.615686 0.352941 0.121569 0.615686 0.352941 
0.121569 0.615686 0.352941 0.121569 0.615686 0.352941 
0.121569 0.615686 0.352941 0.121569 0.615686 0.352941 
0.121569 0.615686 0.352941 0.121569 0.615686 0.352941 
0.121569 0.615686 0.352941 0.121569 0.615686 0.352941 
0.121569 0.615686 0.352941 0.121569 0.615686 0.352941 
0.121569 0.615686 0.352941 0.121569 0.615686 0.352941 
0.121569 0.615686 0.352941 0.121569 0.615686 0.352941 
0.121569 0.615686 0.352941 0.121569 0.615686 0.352941 
0.121569 0.615686 0.352941 0.121569 0.615686 0.352941 
0.121569 0.615686 0.352941 0.121569 0.615686 0.352941 
0.121569 0.615686 0.352941 0.121569 0.615686 0.352941 
0.121569 0.615686 0.352941 0.121569 0.615686 0.352941 
0.121569 0.615686 0.352941 0.121569 0.615686 0.352941 
0.121569 0.615686 0.352941 0.121569 0.615686 0.352941 
0.121569 0.615686 0.352941 0.121569 0.615686 0.352941 
0.121569 0.615686 0.352941 0.121569 0.615686 0.352941 
0.121569 0.615686 0.352941 0.121569 0.615686 0.352941 
0.121569 0.615686 0.352941 0.121569 0.615686 0.352941 
0.121569 0.615686 0.352941 0.121569 0.615686 0.352941 
0.121569 0.615686 0.352941 0.121569 0.615686 0.352941 
0.121569 0.615686 0.352941 0.121569 0.615686 0.352941 
0.121569 0.615686 0.352941 0.121569 0.615686 0.352941 
0.121569 0.615686 0.352941 0.121569 0.615686 0.352941 
0.121569 0.615686 0.352941 0.121569 0.615686 0.352941 
0.121569 0.615686 0.352941 0.121569 0.615686 0.352941 
0.121569 0.615686 0.352941 0.121569 0.615686 0.352941 
0.121569 0.615686 0.352941 0.121569 0.615686 0.352941 
0.121569 0.615686 0.352941 0.121569 0.615686 0.352941 
0.121569 0.615686 0.352941 0.121569 0.615686 0.352941 
0.121569 0.615686 0.352941 0.121569 0.615686 0.352941 
0.121569 0.615686 0.352941 0.121569 0.615686 0.352941 
0.121569 0.615686 0.352941 0.121569 0.615686 0.352941 
0.121569 0.615686 0.352941 0.121569 0.615686 0.352941 
0.121569 0.615686 0.352941 0.121569 0.615686 0.352941 
0.121569 0.615686 0.352941 0.121569 0.615686 0.352941 
0.121569 0.615686 0.352941 0.121569 0.615686 0.352941 
0.121569 0.615686 0.352941 0.121569 0.615686 0.352941 
0.121569 0.615686 0.352941 0.121569 0.615686 0.352941 
0.121569 0.615686 0.352941 0.121569 0.615686 0.352941 
0.121569 0.615686 0.352941 0.121569 0.615686 0.352941 
0.121569 0.615686 0.352941 0.121569 0.615686 0.352941 
0.121569 0.615686 0.352941 0.121569 0.615686 0.352941 
0.121569 0.615686 0.352941 0.121569 0.615686 0.352941 
0.121569 0.615686 0.352941 0.121569 0.615686 0.352941 
0.121569 0.615686 0.352941 0.121569 0.615686 0.352941 
0.121569 0.615686 0.352941 0.121569 0.615686 0.352941 
0.121569 0.615686 0.352941 0.121569 0.615686 0.352941 
0.121569 0.615686 0.352941 0.121569 0.615686 0.352941 
0.121569 0.615686 0.352941 0.121569 0.615686 0.352941 
0.121569 0.615686 0.352941 0.121569 0.615686 0.352941 
0.121569 0.615686 0.352941 0.121569 0.615686 0.352941 
0.121569 0.615686 0.352941 0.121569 0.615686 0.352941 
0.121569 0.615686 0.352941 0.121569 0.615686 0.352941 
0.121569 0.615686 0.352941 0.121569 0.615686 0.352941 
0.121569 0.615686 0.352941 0.121569 0.615686 0.352941 
0.121569 0.615686 0.352941 0.121569 0.615686 0.352941 
0.121569 0.615686 0.352941 0.121569 0.615686 0.352941 
0.121569 0.615686 0.352941 0.121569 0.615686 0.352941 
0.121569 0.615686 0.352941 0.121569 0.615686 0.352941 
0.121569 0.615686 0.352941 0.121569 0.615686 0.352941 
0.121569 0.615686 0.352941 0.121569 0.615686 0.352941 
0.121569 0.615686 0.352941 0.121569 0.615686 0.352941 
0.121569 0.615686 0.352941 0.121569 0.615686 0.352941 
0.121569 0.615686 0.352941 0.121569 0.615686 0.352941 
0.121569 0.615686 0.352941 0.121569 0.615686 0.352941 
0.121569 0.615686 0.352941 0.121569 0.615686 0.352941 
0.121569 0.615686 0.352941 0.121569 0.615686 0.352941 
0.121569 0.615686 0.352941 0.121569 0.615686 0.352941 
0.121569 0.615686 0.352941 0.121569 0.615686 0.352941 
0.121569 0.615686 0.352941 0.121569 0.615686 0.352941 
0.121569 0.615686 0.352941 0.121569 0.615686 0.352941 
0.121569 0.615686 0.352941 0.121569 0.615686 0.352941 
0.121569 0.615686 0.352941 0.121569 0.615686 0.352941 
0.121569 0.615686 0.352941 0.121569 0.615686 0.352941 
0.121569 0.615686 0.352941 0.121569 0.615686 0.352941 
0.121569 0.615686 0.352941 0.121569 0.615686 0.352941 
0.121569 0.615686 0.352941 0.121569 0.615686 0.352941 
0.121569 0.615686 0.352941 0.121569 0.615686 0.352941 
0.121569 0.615686 0.352941 0.121569 0.615686 0.352941 
0.121569 0.615686 0.352941 0.121569 0.615686 0.352941 
0.121569 0.615686 0.352941 0.121569 0.615686 0.352941 
0.121569 0.615686 0.352941 0.121569 0.615686 0.352941 
0.121569 0.615686 0.352941 0.121569 0.615686 0.352941 
0.121569 0.615686 0.352941 0.121569 0.615686 0.352941 
0.121569 0.615686 0.352941 0.121569 0.615686 0.352941 
0.121569 0.615686 0.352941 0.121569 0.615686 0.352941 
0.121569 0.615686 0.352941 0.121569 0.615686 0.352941 
0.121569 0.615686 0.352941 0.121569 0.615686 0.352941 
0.121569 0.615686 0.352941 0.121569 0.615686 0.352941 
0.121569 0.615686 0.352941 0.121569 0.615686 0.352941 
0.121569 0.615686 0.352941 0.121569 0.615686 0.352941 
0.121569 0.615686 0.352941 0.121569 0.615686 0.352941 
0.121569 0.615686 0.352941 0.121569 0.615686 0.352941 
0.121569 0.615686 0.352941 0.121569 0.615686 0.352941 
0.121569 0.615686 0.352941 0.121569 0.615686 0.352941 
0.121569 0.615686 0.352941 0.121569 0.615686 0.352941 
0.121569 0.615686 0.352941 0.121569 0.615686 0.352941 
0.121569 0.615686 0.352941 0.121569 0.615686 0.352941 
0.121569 0.615686 0.352941 0.121569 0.615686 0.352941 
0.121569 0.615686 0.352941 0.121569 0.615686 0.352941 
0.121569 0.615686 0.352941 0.121569 0.615686 0.352941 
0.121569 0.615686 0.352941 0.121569 0.615686 0.352941 
0.121569 0.615686 0.352941 0.121569 0.615686 0.352941 
0.121569 0.615686 0.352941 0.121569 0.615686 0.352941 
0.121569 0.615686 0.352941 0.121569 0.615686 0.352941 
0.121569 0.615686 0.352941 0.121569 0.615686 0.352941 
0.121569 0.615686 0.352941 0.121569 0.615686 0.352941 
0.121569 0.615686 0.352941 0.121569 0.615686 0.352941 
0.121569 0.615686 0.352941 0.121569 0.615686 0.352941 
0.121569 0.615686 0.352941 0.121569 0.615686 0.352941 
0.121569 0.615686 0.352941 0.121569 0.615686 0.352941 
0.121569 0.615686 0.352941 0.121569 0.615686 0.352941 
0.121569 0.615686 0.352941 0.121569 0.615686 0.352941 
0.121569 0.615686 0.352941 0.121569 0.615686 0.352941 
0.121569 0.615686 0.352941 0.121569 0.615686 0.352941 
0.121569 0.615686 0.352941 0.121569 0.615686 0.352941 
0.121569 0.615686 0.352941 0.121569 0.615686 0.352941 
0.121569 0.615686 0.352941 0.121569 0.615686 0.352941 
0.121569 0.615686 0.352941 0.121569 0.615686 0.352941 
0.121569 0.615686 0.352941 0.121569 0.615686 0.352941 
0.121569 0.615686 0.352941 0.121569 0.615686 0.352941 
0.121569 0.615686 0.352941 0.121569 0.615686 0.352941 
0.121569 0.615686 0.352941 0.121569 0.615686 0.352941 
0.121569 0.615686 0.352941 0.121569 0.615686 0.352941 
0.121569 0.615686 0.352941 0.121569 0.615686 0.352941 
0.121569 0.615686 0.352941 0.121569 0.615686 0.352941 
0.121569 0.615686 0.352941 0.121569 0.615686 0.352941 
0.121569 0.615686 0.352941 0.121569 0.615686 0.352941 
0.121569 0.615686 0.352941 0.121569 0.615686 0.352941 
0.121569 0.615686 0.352941 0.121569 0.615686 0.352941 
0.121569 0.615686 0.352941 0.121569 0.615686 0.352941 
0.121569 0.615686 0.352941 0.121569 0.615686 0.352941 
0.121569 0.615686 0.352941 0.121569 0.615686 0.352941 
0.121569 0.615686 0.352941 0.121569 0.615686 0.352941 
0.121569 0.615686 0.352941 0.121569 0.615686 0.352941 
0.121569 0.615686 0.352941 0.121569 0.615686 0.352941 
0.121569 0.615686 0.352941 0.121569 0.615686 0.352941 
0.121569 0.615686 0.352941 0.121569 0.615686 0.352941 
0.121569 0.615686 0.352941 0.121569 0.615686 0.352941 
0.121569 0.615686 0.352941 0.121569 0.615686 0.352941 
0.121569 0.615686 0.352941 0.121569 0.615686 0.352941 
0.121569 0.615686 0.352941 0.121569 0.615686 0.352941 
0.121569 0.615686 0.352941 0.121569 0.615686 0.352941 
0.121569 0.615686 0.352941 0.121569 0.615686 0.352941 
0.121569 0.615686 0.352941 0.121569 0.615686 0.352941 
0.121569 0.615686 0.352941 0.121569 0.615686 0.352941 
0.121569 0.615686 0.352941 0.121569 0.615686 0.352941 
0.121569 0.615686 0.352941 0.121569 0.615686 0.352941 
0.121569 0.615686 0.352941 0.121569 0.615686 0.352941 
0.121569 0.615686 0.352941 0.121569 0.615686 0.352941 
0.121569 0.615686 0.352941 0.121569 0.615686 0.352941 
0.121569 0.615686 0.352941 0.121569 0.615686 0.352941 
0.121569 0.615686 0.352941 0.121569 0.615686 0.352941 
0.121569 0.615686 0.352941 0.121569 0.615686 0.352941 
0.121569 0.615686 0.352941 0.121569 0.615686 0.352941 
0.121569 0.615686 0.352941 0.121569 0.615686 0.352941 
0.121569 0.615686 0.352941 0.121569 0.615686 0.352941 
0.121569 0.615686 0.352941 0.121569 0.615686 0.352941 
0.121569 0.615686 0.352941 0.121569 0.615686 0.352941 
0.121569 0.615686 0.352941 0.121569 0.615686 0.352941 
0.121569 0.615686 0.352941 0.121569 0.615686 0.352941 
0.121569 0.615686 0.352941 0.121569 0.615686 0.352941 
0.121569 0.615686 0.352941 0.121569 0.615686 0.352941 
0.121569 0.615686 0.352941 0.121569 0.615686 0.352941 
0.121569 0.615686 0.352941 0.121569 0.615686 0.352941 
0.121569 0.615686 0.352941 0.121569 0.615686 0.352941 
0.121569 0.615686 0.352941 0.121569 0.615686 0.352941 
0.121569 0.615686 0.352941 0.121569 0.615686 0.352941 
0.121569 0.615686 0.352941 0.121569 0.615686 0.352941 
0.121569 0.615686 0.352941 0.121569 0.615686 0.352941 
0.121569 0.615686 0.352941 0.121569 0.615686 0.352941 
0.121569 0.615686 0.352941 0.121569 0.615686 0.352941 
0.121569 0.615686 0.352941 0.121569 0.615686 0.352941 
0.121569 0.615686 0.352941 0.121569 0.615686 0.352941 
0.121569 0.615686 0.352941 0.121569 0.615686 0.352941 
0.121569 0.615686 0.352941 0.121569 0.615686 0.352941 
0.121569 0.615686 0.352941 0.121569 0.615686 0.352941 
0.121569 0.615686 0.352941 0.121569 0.615686 0.352941 
0.121569 0.615686 0.352941 0.121569 0.615686 0.352941 
0.121569 0.615686 0.352941 0.121569 0.615686 0.352941 
0.121569 0.615686 0.352941 0.121569 0.615686 0.352941 
0.121569 0.615686 0.352941 0.121569 0.615686 0.352941 
0.121569 0.615686 0.352941 0.121569 0.615686 0.352941 
0.121569 0.615686 0.352941 0.121569 0.615686 0.352941 
0.121569 0.615686 0.352941 0.121569 0.615686 0.352941 
0.121569 0.615686 0.352941 0.121569 0.615686 0.352941 
0.121569 0.615686 0.352941 0.121569 0.615686 0.352941 
0.121569 0.615686 0.352941 0.121569 0.615686 0.352941 
0.121569 0.615686 0.352941 0.121569 0.615686 0.352941 
0.121569 0.615686 0.352941 0.121569 0.615686 0.352941 
0.121569 0.615686 0.352941 0.121569 0.615686 0.352941 
0.121569 0.615686 0.352941 0.121569 0.615686 0.352941 
0.121569 0.615686 0.352941 0.121569 0.615686 0.352941 
0.121569 0.615686 0.352941 0.121569 0.615686 0.352941 
0.121569 0.615686 0.352941 0.121569 0.615686 0.352941 
0.121569 0.615686 0.352941 0.121569 0.615686 0.352941 
0.121569 0.615686 0.352941 0.121569 0.615686 0.352941 
0.121569 0.615686 0.352941 0.121569 0.615686 0.352941 
0.121569 0.615686 0.352941 0.121569 0.615686 0.352941 
0.121569 0.615686 0.352941 0.121569 0.615686 0.352941 
0.121569 0.615686 0.352941 0.121569 0.615686 0.352941 
0.121569 0.615686 0.352941 0.121569 0.615686 0.352941 
0.121569 0.615686 0.352941 0.121569 0.615686 0.352941 
0.121569 0.615686 0.352941 0.121569 0.615686 0.352941 
0.121569 0.615686 0.352941 0.121569 0.615686 0.352941 
0.121569 0.615686 0.352941 0.121569 0.615686 0.352941 
0.121569 0.615686 0.352941 0.121569 0.615686 0.352941 
0.121569 0.615686 0.352941 0.121569 0.615686 0.352941 
0.121569 0.615686 0.352941 0.121569 0.615686 0.352941 
0.121569 0.615686 0.352941 0.121569 0.615686 0.352941 
0.121569 0.615686 0.352941 0.121569 0.615686 0.352941 
0.121569 0.615686 0.352941 0.121569 0.615686 0.352941 
0.121569 0.615686 0.352941 0.121569 0.615686 0.352941 
0.121569 0.615686 0.352941 0.121569 0.615686 0.352941 
0.121569 0.615686 0.352941 0.121569 0.615686 0.352941 
0.121569 0.615686 0.352941 0.121569 0.615686 0.352941 
0.121569 0.615686 0.352941 0.121569 0.615686 0.352941 
0.121569 0.615686 0.352941 0.121569 0.615686 0.352941 
0.121569 0.615686 0.352941 0.121569 0.615686 0.352941 
0.121569 0.615686 0.352941 0.121569 0.615686 0.352941 
0.121569 0.615686 0.352941 0.121569 0.615686 0.352941 
0.121569 0.615686 0.352941 0.121569 0.615686 0.352941 
0.121569 0.615686 0.352941 0.121569 0.615686 0.352941 
0.121569 0.615686 0.352941 0.121569 0.615686 0.352941 
0.121569 0.615686 0.352941 0.121569 0.615686 0.352941 
0.121569 0.615686 0.352941 0.121569 0.615686 0.352941 
0.121569 0.615686 0.352941 0.121569 0.615686 0.352941 
0.121569 0.615686 0.352941 0.121569 0.615686 0.352941 
0.121569 0.615686 0.352941 0.121569 0.615686 0.352941 
0.121569 0.615686 0.352941 0.121569 0.615686 0.352941 
0.121569 0.615686 0.352941 0.121569 0.615686 0.352941 