# vtk DataFile Version 4.2
vtk output
ASCII
DATASET POLYDATA
POINTS 1881 float
130 85.3097 133.12 129.853 85.346 133.234 130.198 85.1755 133.292 
129.938 85.4223 133.009 129.899 85.44 133.03 129.93 85.4645 132.991 
130.035 85.414 133.027 130.155 85.3561 133.146 130.005 85.4658 133.041 
130.143 85.4362 133.137 129.687 85.1601 133.491 129.928 85.4859 133.566 
130.453 85.3675 133.452 130.752 85.1058 133.572 129.79 84.3075 134.011 
130.707 84.4296 133.858 130.417 83.8746 134.209 131.247 84.3244 134.049 
129.41 85.0233 133.959 129.701 85.4308 133.93 131.411 85.2177 133.976 
130.374 85.6231 133.918 130.915 85.5819 133.976 131.386 85.7334 134.409 
131.698 85.598 134.378 132.794 82.3496 135.211 132.791 82.2563 135.271 
132.676 82.334 135.235 132.877 82.3297 135.287 130.349 83.4172 134.582 
131.336 83.5039 134.497 132.766 82.5352 135.2 129.62 84.1083 134.275 
129.057 84.3809 134.914 131.521 85.9476 134.973 132.753 82.07 135.493 
132.201 82.527 135.179 131.889 82.1298 135.419 133.198 82.5028 135.434 
129.908 82.6435 135.56 132.757 83.2324 135.063 128.353 84.125 136.183 
132.838 84.1501 134.928 128.798 84.6587 135.709 132.912 84.789 134.974 
133.871 84.041 135.637 132.99 85.1763 135.126 133.243 85.3329 135.461 
133.771 84.6521 135.648 131.125 86.2065 135.899 132.44 85.6313 135.046 
133.615 85.0947 135.675 134.37 80.8567 136.757 130.276 81.7562 136.184 
133.318 85.7702 136.044 133.147 80.1036 137.153 127.581 83.0829 138.078 
127.949 82.5422 137.611 136.778 78.5963 139.028 128.613 81.2077 138.14 
128.066 81.9355 137.959 127.746 81.7947 138.597 137.042 82.3559 138.207 
135.169 85.4136 137.767 135.748 84.9696 137.957 134.416 85.9936 137.694 
136.162 77.813 139.427 135.117 78.0667 139.129 137.42 78.6316 139.314 
138.37 79.9149 139.473 128.085 81.0722 138.96 127.548 82.1034 138.682 
129.456 85.5481 139.434 134.063 86.2617 138.117 135.096 86.1639 139.143 
138.822 76.5945 141.006 136.561 76.7439 140.465 138.703 78.2385 140.147 
138.905 80.1377 139.813 127.669 81.0653 139.714 139.191 80.4249 140.032 
127.246 82.3929 140.543 127.675 83.5895 140.486 128.505 84.6205 140.486 
137.181 85.4109 139.881 140.042 77.1049 141.445 127.207 81.751 141.185 
127.267 82.635 140.887 139.423 84.7135 141.189 138.221 85.7707 141.032 
131.063 86.1354 140.941 140.483 75.2014 142.641 140.273 74.8141 142.857 
136.327 75.3709 142.045 140.862 78.2475 141.744 127.399 82.5857 142.221 
137.72 87.2637 142.509 139.275 74.0936 143.407 140.288 74.1612 143.711 
141.083 74.5737 143.655 127.716 79.2823 142.492 127.139 81.6214 142.538 
127.717 82.5701 143.385 134.523 86.9279 142.11 137.747 87.6016 143.035 
140.045 88.1659 144.145 142.31 74.8946 144.738 133.315 75.2877 143.704 
129.752 77.1375 143.554 127.457 79.5254 143.162 127.215 80.3656 143.677 
127.142 80.7993 143.297 141.099 87.3584 144.149 138.985 88.6302 144.799 
140.757 87.9288 144.431 139.742 88.5905 144.588 139.997 88.4976 144.614 
128.837 77.5524 144.125 128.419 77.7114 144.674 128.153 77.9519 144.829 
127.424 79.5054 143.829 127.344 81.0777 144.142 142.379 87.0585 145.436 
141.145 87.8701 145.479 138.282 88.759 145.572 138.744 88.8332 145.23 
138.934 88.8265 145.192 139.271 88.7388 145.304 138.8 88.8827 145.285 
137.558 72.6074 146.256 140.698 73.1809 146.019 131.574 75.0793 145.675 
128.11 77.9524 145.281 145.177 77.3836 146.522 127.522 79.6431 145.207 
137.233 88.5684 145.797 136.721 88.5526 146.412 140.449 88.3115 145.605 
140.041 88.4753 145.835 141.903 87.4052 145.995 138.892 88.7779 145.783 
138.817 88.8462 145.406 138.191 88.8337 146.367 130.525 75.5011 146.292 
145.861 79.343 146.832 145.017 82.3151 146.264 141.304 87.6548 146.987 
139.739 71.695 148.252 135.692 72.2114 147.919 146.927 78.7179 148.326 
134.809 88.1282 148.091 137.008 88.593 147.535 128.86 81.5705 149.125 
146.528 82.8488 148.766 130.625 84.8963 149.447 134.076 87.9357 148.902 
134.328 88.0991 148.864 134.438 88.1413 148.83 143.214 73.0211 149.761 
147.547 77.609 150.289 128.676 79.9628 149.971 148.012 81.5794 150.28 
147.263 82.9247 150.48 145.112 84.5887 150.059 145.619 84.1662 150.476 
132.886 87.2746 149.465 136.654 88.0019 149.669 134.437 88.0847 149 
133.572 87.7568 149.51 137.284 69.7932 151.549 144.024 73.1787 150.834 
148.488 80.4305 150.676 149.021 80.5517 151.862 148.192 81.9437 150.934 
148.548 81.6489 151.668 148.367 82.0546 151.306 148.332 82.2002 151.33 
147.058 83.2059 150.742 146.85 83.3621 150.921 147.908 82.5227 151.406 
148.243 82.2824 151.4 151.621 67.1527 154.239 151.543 67.0625 154.307 
151.719 67.25 154.254 148.871 78.8676 151.936 148.138 82.0803 152.243 
148.381 82.098 151.462 147.004 83.1125 151.653 136.819 87.122 151.73 
152.147 66.0661 154.468 151.962 66.0671 154.51 142.443 67.7039 154.236 
143.016 67.9472 154.157 151.505 66.7032 154.495 152.024 67.191 154.325 
152.511 66.7851 154.455 151.73 67.5988 154.348 143.355 69.1097 153.419 
151.684 68.1926 154.518 151.875 68.034 154.465 130.016 75.1776 152.447 
148.906 78.6001 153.112 149.488 80.2631 153.057 149.535 80.102 153.403 
149.349 80.6843 152.986 149.651 80.3545 153.374 149.6 80.4973 153.259 
149.711 80.4631 153.356 148.91 81.2878 152.799 148.73 81.4183 152.962 
149.417 80.648 153.406 149.661 80.5091 153.39 148.227 81.7458 153.042 
130.982 84.9831 153.348 153.282 64.1912 155.368 153.119 64.2593 155.321 
153.22 64.3701 155.253 141.611 67.0108 155.016 151.058 67.0663 154.749 
153.309 67.037 154.759 152.822 67.8039 154.629 151.718 68.9391 154.972 
148.528 77.9972 154.027 149.184 79.3854 153.655 149.532 80.2077 153.618 
149.594 80.4332 153.525 149.708 80.4498 153.41 131.984 85.9238 153.51 
153.732 64.1941 155.64 152.487 64.6103 155.382 146.042 71.0437 154.837 
153.72 69.5809 155.902 152.906 70.2526 156.196 148.963 79.504 154.35 
149.262 80.1284 153.97 148.387 80.9073 154.306 147.95 80.6324 155.103 
129.576 81.8638 155.079 153.677 63.4328 156.47 154.918 63.2929 156.897 
152.604 64.2611 155.664 152.524 64.0266 156.123 155.002 63.6872 156.727 
149.069 67.3428 155.942 154.771 67.8559 155.942 148.489 68.7607 155.896 
147.844 68.1089 155.94 150.074 68.6368 155.51 147.488 70.2536 155.886 
148.92 69.6743 156.064 149.709 69.5443 155.931 154.278 69.2133 156.069 
153.582 70.4818 156.638 154.559 71.0739 157.543 154.68 71.0435 157.481 
154.609 70.9637 157.388 154.775 71.0585 157.674 147.761 76.6976 155.861 
128.987 78.7047 156.246 130.864 83.6048 156.176 131.964 84.8921 155.745 
154.988 62.8636 157.37 154.766 62.9085 157.243 155.233 63.0358 157.328 
155.141 62.9069 157.38 155.246 62.9565 157.465 153.527 63.2723 156.792 
153.15 63.3185 156.985 155.39 63.1752 157.565 155.612 63.6805 157.485 
155.546 64.6489 156.89 150.079 65.3772 156.505 145.939 66.9998 156.033 
147.587 66.8626 156.338 148.597 70.6349 156.4 150.224 70.1837 156.193 
155.401 69.5601 157.339 148.081 71.2331 156.452 150.556 70.7934 156.646 
154.423 70.6654 157.205 154.156 71.2301 157.706 154.936 70.7785 157.643 
146.903 73.9574 155.525 129.408 75.7373 156.485 147.611 76.1129 156.274 
147.715 77.63 156.962 133.054 84.814 156.638 134.63 85.0578 156.246 
132.655 84.7348 156.623 154.8 62.8385 157.488 155.112 62.9041 157.649 
154.66 62.8385 157.893 155.392 63.115 158.029 155.683 63.483 157.959 
155.941 64.0077 157.928 147.27 65.7605 157.044 147.584 65.135 157.57 
156.466 66.1327 157.808 156.547 66.7232 157.885 132.363 71.5691 157.402 
147.984 73.3008 157.35 147.547 74.3054 156.931 147.641 75.5884 157.229 
129.358 80.1519 157.963 147.485 79.011 156.883 131.662 83.6006 157.598 
150.2 63.6851 158.634 153.043 62.9748 158.841 153.895 62.8785 158.944 
154.481 62.9 158.915 155.897 63.7673 159.008 156.631 64.7661 159.53 
137.314 66.6777 158.896 156.991 67.2438 158.957 155.645 71.142 159.643 
148.85 73.2736 158.317 147.778 74.6737 157.586 129.136 74.3231 158.748 
128.642 76.3462 158.786 111.664 79.8828 160.403 146.76 78.6173 158.638 
112.097 80.7837 160.114 114.122 80.2413 159.836 145.787 79.7338 158.535 
113.404 82.6713 159.853 115.073 82.1075 159.564 115.02 84.0014 159.623 
116.44 83.0042 159.65 114.152 85.5475 160.178 115.675 85.5728 159.753 
117.471 84.5541 160.102 115.632 86.3481 159.88 115.462 87.385 160.251 
116.148 86.8367 159.964 115.777 87.4667 160.201 116.034 87.6883 160.354 
116.518 87.191 160.115 116.881 87.075 160.213 116.755 87.3811 160.312 
154.979 63.211 159.734 156.954 65.5197 159.849 156.907 68.6453 160.381 
156.436 70.2421 160.357 150.341 72.7274 158.739 155.262 71.591 159.914 
128.216 75.6278 159.888 147.413 77.0877 159.611 112.884 78.7244 160.576 
115.749 78.7684 160.599 110.917 80.0556 160.818 111.291 81.1749 160.679 
111.319 82.6451 161.271 117.751 86.3786 160.607 114.952 87.6438 160.911 
115.587 88.0309 161.023 115.892 88.1078 160.987 116.194 88.0272 160.825 
116.032 88.0974 160.867 149.215 62.397 161.737 145.805 62.9205 161.108 
151.797 62.8186 160.739 156.255 64.5942 161.099 157.065 66.0521 160.556 
156.949 65.8123 160.931 126.576 72.1019 161.762 128.074 71.7001 161.036 
127.28 72.8525 161.106 127.189 74.2359 161.096 148.235 75.6786 159.811 
116.535 76.7786 161.964 127.968 76.6877 160.827 110.188 79.7372 161.552 
128.94 78.8889 160.539 143.746 79.041 161.809 110.003 79.8908 161.655 
109.872 80.0725 161.799 110.46 82.1155 161.83 132.219 82.0742 160.718 
112.151 84.1069 161.276 118.378 84.1474 160.722 118.712 85.6489 161.5 
113.812 86.6644 161.406 118.934 85.7906 162.151 118.084 86.7604 161.522 
116.556 87.8875 161.04 116.249 88.0562 161.384 117.024 87.5542 160.903 
153.289 63.0472 161.923 156.95 69.0355 162.242 126.074 71.8197 162.253 
156.463 70.8912 162.232 156.705 70.4624 162.757 125.513 72.2391 162.443 
125.442 72.6755 162.351 155.703 71.805 161.626 149.385 74.7183 160.546 
146.912 77.2161 161.855 109.377 79.6564 162.547 110.26 78.6093 162.416 
144.376 78.4943 162.334 109.093 79.853 162.856 118.812 79.1233 161.923 
130.37 80.4432 162.046 137.807 80.8842 162.219 109.893 82.2196 162.854 
112.75 85.7249 162.319 118.052 87.0013 162.051 148.483 61.8046 163.461 
146.989 62.1575 162.377 147.658 61.8545 163.102 156.769 66.816 162.676 
[...]
POINT_DATA 1881
COLOR_SCALARS scalars 3
0.121569 0.615686 0.352941 0.121569 0.615686 0.352941 0.121569 0.615686 0.352941 
0.121569 0.615686 0.352941 0.121569 0.615686 0.352941 
0.121569 0.615686 0.352941 0.121569 0.615686 0.352941 
0.121569 0.615686 0.352941 0.121569 0.615686 0.352941 
0.121569 0.615686 0.352941 0.121569 0.615686 0.352941 
0.121569 0.615686 0.352941 0.121569 0.615686 0.352941 
0.121569 0.615686 0.352941 0.121569 0.615686 0.352941 
0.121569 0.615686 0.352941 0.121569 0.615686 0.352941 
0.121569 0.615686 0.352941 0.121569 0.615686 0.352941 
0.121569 0.615686 0.352941 0.121569 0.615686 0.352941 
0.121569 0.615686 0.352941 0.121569 0.615686 0.352941 
0.121569 0.615686 0.352941 0.121569 0.615686 0.352941 
0.121569 0.615686 0.352941 0.121569 0.615686 0.352941 
0.121569 0.615686 0.352941 0.121569 0.615686 0.352941 
0.121569 0.615686 0.352941 0.121569 0.615686 0.352941 
0.121569 0.615686 0.352941 0.121569 0.615686 0.352941 
0.121569 0.615686 0.352941 0.121569 0.615686 0.352941 
0.121569 0.615686 0.352941 0.121569 0.615686 0.352941 
0.121569 0.615686 0.352941 0.121569 0.615686 0.352941 
0.121569 0.615686 0.352941 0.121569 0.615686 0.352941 
0.121569 0.615686 0.352941 0.121569 0.615686 0.352941 
0.121569 0.615686 0.352941 0.121569 0.615686 0.352941 
0.121569 0.615686 0.352941 0.121569 0.615686 0.352941 
0.121569 0.615686 0.352941 0.121569 0.615686 0.352941 
0.121569 0.615686 0.352941 0.121569 0.615686 0.352941 
0.121569 0.615686 0.352941 0.121569 0.615686 0.352941 
0.121569 0.615686 0.352941 0.121569 0.615686 0.352941 
0.121569 0.615686 0.352941 0.121569 0.615686 0.352941 
0.121569 0.615686 0.352941 0.121569 0.615686 0.352941 
0.121569 0.615686 0.352941 0.121569 0.615686 0.352941 
0.121569 0.615686 0.352941 0.121569 0.615686 0.352941 
0.121569 0.615686 0.352941 0.121569 0.615686 0.352941 
0.121569 0.615686 0.352941 0.121569 0.615686 0.352941 
0.121569 0.615686 0.352941 0.121569 0.615686 0.352941 
0.121569 0.615686 0.352941 0.121569 0.615686 0.352941 
0.121569 0.615686 0.352941 0.121569 0.615686 0.352941 
0.121569 0.615686 0.352941 0.121569 0.615686 0.352941 
0.121569 0.615686 0.352941 0.121569 0.615686 0.352941 
0.121569 0.615686 0.352941 0.121569 0.615686 0.352941 
0.121569 0.615686 0.352941 0.121569 0.615686 0.352941 
0.121569 0.615686 0.352941 0.121569 0.615686 0.352941 
0.121569 0.615686 0.352941 0.121569 0.615686 0.352941 
0.121569 0.615686 0.352941 0.121569 0.615686 0.352941 
0.121569 0.615686 0.352941 0.121569 0.615686 0.352941 
0.121569 0.615686 0.352941 0.121569 0.615686 0.352941 
0.121569 0.615686 0.352941 0.121569 0.615686 0.352941 
0.121569 0.615686 0.352941 0.121569 0.615686 0.352941 
0.121569 0.615686 0.352941 0.121569 0.615686 0.352941 
0.121569 0.615686 0.352941 0.121569 0.615686 0.352941 
0.121569 0.615686 0.352941 0.121569 0.615686 0.352941 
0.121569 0.615686 0.352941 0.121569 0.615686 0.352941 
0.121569 0.615686 0.352941 0.121569 0.615686 0.352941 
0.121569 0.615686 0.352941 0.121569 0.615686 0.352941 
0.121569 0.615686 0.352941 0.121569 0.615686 0.352941 
0.121569 0.615686 0.352941 0.121569 0.615686 0.352941 
0.121569 0.615686 0.352941 0.121569 0.615686 0.352941 
0.121569 0.615686 0.352941 0.121569 0.615686 0.352941 
0.121569 0.615686 0.352941 0.121569 0.615686 0.352941 
0.121569 0.615686 0.352941 0.121569 0.615686 0.352941 
0.121569 0.615686 0.352941 0.121569 0.615686 0.352941 
0.121569 0.615686 0.352941 0.121569 0.615686 0.352941 
0.121569 0.615686 0.352941 0.121569 0.615686 0.352941 
0.121569 0.615686 0.352941 0.121569 0.615686 0.352941 
0.121569 0.615686 0.352941 0.121569 0.615686 0.352941 
0.121569 0.615686 0.352941 0.121569 0.615686 0.352941 
0.121569 0.615686 0.352941 0.121569 0.615686 0.352941 
0.121569 0.615686 0.352941 0.121569 0.615686 0.352941 
0.121569 0.615686 0.352941 0.121569 0.615686 0.352941 
0.121569 0.615686 0.352941 0.121569 0.615686 0.352941 
0.121569 0.615686 0.352941 0.121569 0.615686 0.352941 
0.121569 0.615686 0.352941 0.121569 0.615686 0.352941 
0.121569 0.615686 0.352941 0.121569 0.615686 0.352941 
0.121569 0.615686 0.352941 0.121569 0.615686 0.352941 
0.121569 0.615686 0.352941 0.121569 0.615686 0.352941 
0.121569 0.615686 0.352941 0.121569 0.615686 0.352941 
0.121569 0.615686 0.352941 0.121569 0.615686 0.352941 
0.121569 0.615686 0.352941 0.121569 0.615686 0.352941 
0.121569 0.615686 0.352941 0.121569 0.615686 0.352941 
0.121569 0.615686 0.352941 0.121569 0.615686 0.352941 
0.121569 0.615686 0.352941 0.121569 0.615686 0.352941 
0.121569 0.615686 0.352941 0.121569 0.615686 0.352941 
0.121569 0.615686 0.352941 0.121569 0.615686 0.352941 
0.121569 0.615686 0.352941 0.121569 0.615686 0.352941 
0.121569 0.615686 0.352941 0.121569 0.615686 0.352941 
0.121569 0.615686 0.352941 0.121569 0.615686 0.352941 
0.121569 0.615686 0.352941 0.121569 0.615686 0.352941 
0.121569 0.615686 0.352941 0.121569 0.615686 0.352941 
0.121569 0.615686 0.352941 0.121569 0.615686 0.352941 
0.121569 0.615686 0.352941 0.121569 0.615686 0.352941 
0.121569 0.615686 0.352941 0.121569 0.615686 0.352941 
0.121569 0.615686 0.352941 0.121569 0.615686 0.352941 
0.121569 0.615686 0.352941 0.121569 0.615686 0.352941 
0.121569 0.615686 0.352941 0.121569 0.615686 0.352941 
0.121569 0.615686 0.352941 0.121569 0.615686 0.352941 
0.121569 0.615686 0.352941 0.121569 0.615686 0.352941 
0.121569 0.615686 0.352941 0.121569 0.615686 0.352941 
0.121569 0.615686 0.352941 0.121569 0.615686 0.352941 
0.121569 0.615686 0.352941 0.121569 0.615686 0.352941 
0.121569 0.615686 0.352941 0.121569 0.615686 0.352941 
0.121569 0.615686 0.352941 0.121569 0.615686 0.352941 
0.121569 0.615686 0.352941 0.121569 0.615686 0.352941 
0.121569 0.615686 0.352941 0.121569 0.615686 0.352941 
0.121569 0.615686 0.352941 0.121569 0.615686 0.352941 
0.121569 0.615686 0.352941 0.121569 0.615686 0.352941 
0.121569 0.615686 0.352941 0.121569 0.615686 0.352941 
0.121569 0.615686 0.352941 0.121569 0.615686 0.352941 
0.121569 0.615686 0.352941 0.121569 0.615686 0.352941 
0.121569 0.615686 0.352941 0.121569 0.615686 0.352941 
0.121569 0.615686 0.352941 0.121569 0.615686 0.352941 
0.121569 0.615686 0.352941 0.121569 0.615686 0.352941 
0.121569 0.615686 0.352941 0.121569 0.615686 0.352941 
0.121569 0.615686 0.352941 0.121569 0.615686 0.352941 
0.121569 0.615686 0.352941 0.121569 0.615686 0.352941 
0.121569 0.615686 0.352941 0.121569 0.615686 0.352941 
0.121569 0.615686 0.352941 0.121569 0.615686 0.352941 
0.121569 0.615686 0.352941 0.121569 0.615686 0.352941 
0.121569 0.615686 0.352941 0.121569 0.615686 0.352941 
0.121569 0.615686 0.352941 0.121569 0.615686 0.352941 
0.121569 0.615686 0.352941 0.121569 0.615686 0.352941 
0.121569 0.615686 0.352941 0.121569 0.615686 0.352941 
0.121569 0.615686 0.352941 0.121569 0.615686 0.352941 
0.121569 0.615686 0.352941 0.121569 0.615686 0.352941 
0.121569 0.615686 0.352941 0.121569 0.615686 0.352941 
0.121569 0.615686 0.352941 0.121569 0.615686 0.352941 
0.121569 0.615686 0.352941 0.121569 0.615686 0.352941 
0.121569 0.615686 0.352941 0.121569 0.615686 0.352941 
0.121569 0.615686 0.352941 0.121569 0.615686 0.352941 
0.121569 0.615686 0.352941 0.121569 0.615686 0.352941 
0.121569 0.615686 0.352941 0.121569 0.615686 0.352941 
0.121569 0.615686 0.352941 0.121569 0.615686 0.352941 
0.121569 0.615686 0.352941 0.121569 0.615686 0.352941 
0.121569 0.615686 0.352941 0.121569 0.615686 0.352941 
0.121569 0.615686 0.352941 0.121569 0.615686 0.352941 
0.121569 0.615686 0.352941 0.121569 0.615686 0.352941 
0.121569 0.615686 0.352941 0.121569 0.615686 0.352941 
0.121569 0.615686 0.352941 0.121569 0.615686 0.352941 
0.121569 0.615686 0.352941 0.121569 0.615686 0.352941 
0.121569 0.615686 0.352941 0.121569 0.615686 0.352941 
0.121569 0.615686 0.352941 0.121569 0.615686 0.352941 
0.121569 0.615686 0.352941 0.121569 0.615686 0.352941 
0.121569 0.615686 0.352941 0.121569 0.615686 0.352941 
0.121569 0.615686 0.352941 0.121569 0.615686 0.352941 
0.121569 0.615686 0.352941 0.121569 0.615686 0.352941 
0.121569 0.615686 0.352941 0.121569 0.615686 0.352941 
0.121569 0.615686 0.352941 0.121569 0.615686 0.352941 
0.121569 0.615686 0.352941 0.121569 0.615686 0.352941 
0.121569 0.615686 0.352941 0.121569 0.615686 0.352941 
0.121569 0.615686 0.352941 0.121569 0.615686 0.352941 
0.121569 0.615686 0.352941 0.121569 0.615686 0.352941 
0.121569 0.615686 0.352941 0.121569 0.615686 0.352941 
0.121569 0.615686 0.352941 0.121569 0.615686 0.352941 
0.121569 0.615686 0.352941 0.121569 0.615686 0.352941 
0.121569 0.615686 0.352941 0.121569 0.615686 0.352941 
0.121569 0.615686 0.352941 0.121569 0.615686 0.352941 
0.121569 0.615686 0.352941 0.121569 0.615686 0.352941 
0.121569 0.615686 0.352941 0.121569 0.615686 0.352941 
0.121569 0.615686 0.352941 0.121569 0.615686 0.352941 
0.121569 0.615686 0.352941 0.121569 0.615686 0.352941 
0.121569 0.615686 0.352941 0.121569 0.615686 0.352941 
0.121569 0.615686 0.352941 0.121569 0.615686 0.352941 
0.121569 0.615686 0.352941 0.121569 0.615686 0.352941 
0.121569 0.615686 0.352941 0.121569 0.615686 0.352941 
0.121569 0.615686 0.352941 0.121569 0.615686 0.352941 
0.121569 0.615686 0.352941 0.121569 0.615686 0.352941 
0.121569 0.615686 0.352941 0.121569 0.615686 0.352941 
0.121569 0.615686 0.352941 0.121569 0.615686 0.352941 
0.121569 0.615686 0.352941 0.121569 0.615686 0.352941 
0.121569 0.615686 0.352941 0.121569 0.615686 0.352941 
0.121569 0.615686 0.352941 0.121569 0.615686 0.352941 
0.121569 0.615686 0.352941 0.121569 0.615686 0.352941 
0.121569 0.615686 0.352941 0.121569 0.615686 0.352941 
0.121569 0.615686 0.352941 0.121569 0.615686 0.352941 
0.121569 0.615686 0.352941 0.121569 0.615686 0.352941 
0.121569 0.615686 0.352941 0.121569 0.615686 0.352941 
0.121569 0.615686 0.352941 0.121569 0.615686 0.352941 
0.121569 0.615686 0.352941 0.121569 0.615686 0.352941 
0.121569 0.615686 0.352941 0.121569 0.615686 0.352941 
0.121569 0.615686 0.352941 0.121569 0.615686 0.352941 
0.121569 0.615686 0.352941 0.121569 0.615686 0.352941 
0.121569 0.615686 0.352941 0.121569 0.615686 0.352941 
0.121569 0.615686 0.352941 0.121569 0.615686 0.352941 
0.121569 0.615686 0.352941 0.121569 0.615686 0.352941 
0.121569 0.615686 0.352941 0.121569 0.615686 0.352941 
0.121569 0.615686 0.352941 0.121569 0.615686 0.352941 
0.121569 0.615686 0.352941 0.121569 0.615686 0.352941 
0.121569 0.615686 0.352941 0.121569 0.615686 0.352941 
0.121569 0.615686 0.352941 0.121569 0.615686 0.352941 
0.121569 0.615686 0.352941 0.121569 0.615686 0.352941 
0.121569 0.615686 0.352941 0.121569 0.615686 0.352941 
0.121569 0.615686 0.352941 0.121569 0.615686 0.352941 
0.121569 0.615686 0.352941 0.121569 0.615686 0.352941 
0.121569 0.615686 0.352941 0.121569 0.615686 0.352941 
0.121569 0.615686 0.352941 0.121569 0.615686 0.352941 
0.121569 0.615686 0.352941 0.121569 0.615686 0.352941 
0.121569 0.615686 0.352941 0.121569 0.615686 0.352941 
0.121569 0.615686 0.352941 0.121569 0.615686 0.352941 
0.121569 0.615686 0.352941 0.121569 0.615686 0.352941 
0.121569 0.615686 0.352941 0.121569 0.615686 0.352941 
0.121569 0.615686 0.352941 0.121569 0.615686 0.352941 
0.121569 0.615686 0.352941 0.121569 0.615686 0.352941 
0.121569 0.615686 0.352941 0.121569 0.615686 0.352941 
0.121569 0.615686 0.352941 0.121569 0.615686 0.352941 
0.121569 0.615686 0.352941 0.121569 0.615686 0.352941 
0.121569 0.615686 0.352941 0.121569 0.615686 0.352941 
0.121569 0.615686 0.352941 0.121569 0.615686 0.352941 
0.121569 0.615686 0.352941 0.121569 0.615686 0.352941 
0.121569 0.615686 0.352941 0.121569 0.615686 0.352941 
0.121569 0.615686 0.352941 0.121569 0.615686 0.352941 
0.121569 0.615686 0.352941 0.121569 0.615686 0.352941 
0.121569 0.615686 0.352941 0.121569 0.615686 0.352941 
0.121569 0.615686 0.352941 0.121569 0.615686 0.352941 
0.121569 0.615686 0.352941 0.121569 0.615686 0.352941 
0.121569 0.615686 0.352941 0.121569 0.615686 0.352941 
0.121569 0.615686 0.352941 0.121569 0.615686 0.352941 
0.121569 0.615686 0.352941 0.121569 0.615686 0.352941 
0.121569 0.615686 0.352941 0.121569 0.615686 0.352941 
0.121569 0.615686 0.352941 0.121569 0.615686 0.352941 
0.121569 0.615686 0.352941 0.121569 0.615686 0.352941 
0.121569 0.615686 0.352941 0.121569 0.615686 0.352941 
0.121569 0.615686 0.352941 0.121569 0.615686 0.352941 
0.121569 0.615686 0.352941 0.121569 0.615686 0.352941 
0.121569 0.615686 0.352941 0.121569 0.615686 0.352941 
0.121569 0.615686 0.352941 0.121569 0.615686 0.352941 
0.121569 0.615686 0.352941 0.121569 0.615686 0.352941 
0.121569 0.615686 0.352941 0.121569 0.615686 0.352941 
0.121569 0.615686 0.352941 0.121569 0.615686 0.352941 
0.121569 0.615686 0.352941 0.121569 0.615686 0.352941 
0.121569 0.615686 0.352941 0.121569 0.615686 0.352941 
0.121569 0.615686 0.352941 0.121569 0.615686 0.352941 
0.121569 0.615686 0.352941 0.121569 0.615686 0.352941 
0.121569 0.615686 0.352941 0.121569 0.615686 0.352941 
0.121569 0.615686 0.352941 0.121569 0.615686 0.352941 
0.121569 0.615686 0.352941 0.121569 0.615686 0.352941 
0.121569 0.615686 0.352941 0.121569 0.615686 0.352941 
0.121569 0.615686 0.352941 0.121569 0.615686 0.352941 
0.121569 0.615686 0.352941 0.121569 0.615686 0.352941 
0.121569 0.615686 0.352941 0.121569 0.615686 0.352941 
0.121569 0.615686 0.352941 0.121569 0.615686 0.352941 
0.121569 0.615686 0.352941 0.121569 0.615686 0.352941 
0.121569 0.615686 0.352941 0.121569 0.615686 0.352941 
0.121569 0.615686 0.352941 0.121569 0.615686 0.352941 
0.121569 0.615686 0.352941 0.121569 0.615686 0.352941 
0.121569 0.615686 0.352941 0.121569 0.615686 0.352941 
0.121569 0.615686 0.352941 0.121569 0.615686 0.352941 
0.121569 0.615686 0.352941 0.121569 0.615686 0.352941 
0.121569 0.615686 0.352941 0.121569 0.615686 0.352941 
0.121569 0.615686 0.352941 0.121569 0.615686 0.352941 
0.121569 0.615686 0.352941 0.121569 0.615686 0.352941 
0.121569 0.615686 0.352941 0.121569 0.615686 0.352941 
0.121569 0.615686 0.352941 0.121569 0.615686 0.352941 
0.121569 0.615686 0.352941 0.121569 0.615686 0.352941 
0.121569 0.615686 0.352941 0.121569 0.615686 0.352941 
0.121569 0.615686 0.352941 0.121569 0.615686 0.352941 
0.121569 0.615686 0.352941 0.121569 0.615686 0.352941 
0.121569 0.615686 0.352941 0.121569 0.615686 0.352941 
0.121569 0.615686 0.352941 0.121569 0.615686 0.352941 
0.121569 0.615686 0.352941 0.121569 0.615686 0.352941 
0.121569 0.615686 0.352941 0.121569 0.615686 0.352941 
0.121569 0.615686 0.352941 0.121569 0.615686 0.352941 
0.121569 0.615686 0.352941 0.121569 0.615686 0.352941 
0.121569 0.615686 0.352941 0.121569 0.615686 0.352941 
0.121569 0.615686 0.352941 0.121569 0.615686 0.352941 
0.121569 0.615686 0.352941 0.121569 0.615686 0.352941 
0.121569 0.615686 0.352941 0.121569 0.615686 0.352941 
0.121569 0.615686 0.352941 0.121569 0.615686 0.352941 
0.121569 0.615686 0.352941 0.121569 0.615686 0.352941 
0.121569 0.615686 0.352941 0.121569 0.615686 0.352941 
0.121569 0.615686 0.352941 0.121569 0.615686 0.352941 
0.121569 0.615686 0.352941 0.121569 0.615686 0.352941 
0.121569 0.615686 0.352941 0.121569 0.615686 0.352941 
0.121569 0.615686 0.352941 0.121569 0.615686 0.352941 
0.121569 0.615686 0.352941 0.121569 0.615686 0.352941 
0.121569 0.615686 0.352941 0.121569 0.615686 0.352941 
0.121569 0.615686 0.352941 0.121569 0.615686 0.352941 
0.121569 0.615686 0.352941 0.121569 0.615686 0.352941 
0.121569 0.615686 0.352941 0.121569 0.615686 0.352941 
0.121569 0.615686 0.352941 0.121569 0.615686 0.352941 
0.121569 0.615686 0.352941 0.121569 0.615686 0.352941 
0.121569 0.615686 0.352941 0.121569 0.615686 0.352941 
0.121569 0.615686 0.352941 0.121569 0.615686 0.352941 
0.121569 0.615686 0.352941 0.121569 0.615686 0.352941 
0.121569 0.615686 0.352941 0.121569 0.615686 0.352941 
0.121569 0.615686 0.352941 0.121569 0.615686 0.352941 
0.121569 0.615686 0.352941 0.121569 0.615686 0.352941 
0.121569 0.615686 0.352941 0.121569 0.615686 0.352941 
0.121569 0.615686 0.352941 0.121569 0.615686 0.352941 
0.121569 0.615686 0.352941 0.121569 0.615686 0.352941 
0.121569 0.615686 0.352941 0.121569 0.615686 0.352941 
0.121569 0.615686 0.352941 0.121569 0.615686 0.352941 
0.121569 0.615686 0.352941 0.121569 0.615686 0.352941 
0.121569 0.615686 0.352941 0.121569 0.615686 0.352941 
0.121569 0.615686 0.352941 0.121569 0.615686 0.352941 
0.121569 0.615686 0.352941 0.121569 0.615686 0.352941 
0.121569 0.615686 0.352941 0.121569 0.615686 0.352941 
0.121569 0.615686 0.352941 0.121569 0.615686 0.352941 
0.121569 0.615686 0.352941 0.121569 0.615686 0.352941 
0.121569 0.615686 0.352941 0.121569 0.615686 0.352941 
0.121569 0.615686 0.352941 0.121569 0.615686 0.352941 
0.121569 0.615686 0.352941 0.121569 0.615686 0.352941 
0.121569 0.615686 0.352941 0.121569 0.615686 0.352941 
0.121569 0.615686 0.352941 0.121569 0.615686 0.352941 
0.121569 0.615686 0.352941 0.121569 0.615686 0.352941 
0.121569 0.615686 0.352941 0.121569 0.615686 0.352941 
0.121569 0.615686 0.352941 0.121569 0.615686 0.352941 
0.121569 0.615686 0.352941 0.121569 0.615686 0.352941 
0.121569 0.615686 0.352941 0.121569 0.615686 0.352941 
0.121569 0.615686 0.352941 0.121569 0.615686 0.352941 
0.121569 0.615686 0.352941 0.121569 0.615686 0.352941 
0.121569 0.615686 0.352941 0.121569 0.615686 0.352941 
0.121569 0.615686 0.352941 0.121569 0.615686 0.352941 
0.121569 0.615686 0.352941 0.121569 0.615686 0.352941 
0.121569 0.615686 0.352941 0.121569 0.615686 0.352941 
0.121569 0.615686 0.352941 0.121569 0.615686 0.352941 
0.121569 0.615686 0.352941 0.121569 0.615686 0.352941 
0.121569 0.615686 0.352941 0.121569 0.615686 0.352941 
0.121569 0.615686 0.352941 0.121569 0.615686 0.352941 
0.121569 0.615686 0.352941 0.121569 0.615686 0.352941 
0.121569 0.615686 0.352941 0.121569 0.615686 0.352941 
0.121569 0.615686 0.352941 0.121569 0.615686 0.352941 
0.121569 0.615686 0.352941 0.121569 0.615686 0.352941 
0.121569 0.615686 0.352941 0.121569 0.615686 0.352941 
0.121569 0.615686 0.352941 0.121569 0.615686 0.352941 
0.121569 0.615686 0.352941 0.121569 0.615686 0.352941 
0.121569 0.615686 0.352941 0.121569 0.615686 0.352941 
0.121569 0.615686 0.352941 0.121569 0.615686 0.352941 
0.121569 0.615686 0.352941 0.121569 0.615686 0.352941 
0.121569 0.615686 0.352941 0.121569 0.615686 0.352941 
0.121569 0.615686 0.352941 0.121569 0.615686 0.352941 
0.121569 0.615686 0.352941 0.121569 0.615686 0.352941 
0.121569 0.615686 0.352941 0.121569 0.615686 0.352941 
0.121569 0.615686 0.352941 0.121569 0.615686 0.352941 
0.121569 0.615686 0.352941 0.121569 0.615686 0.352941 
0.121569 0.615686 0.352941 0.121569 0.615686 0.352941 
0.121569 0.615686 0.352941 0.121569 0.615686 0.352941 
0.121569 0.615686 0.352941 0.121569 0.615686 0.352941 
0.121569 0.615686 0.352941 0.121569 0.615686 0.352941 
0.121569 0.615686 0.352941 0.121569 0.615686 0.352941 
0.121569 0.615686 0.352941 0.121569 0.615686 0.352941 
0.121569 0.615686 0.352941 0.121569 0.615686 0.352941 
0.121569 0.615686 0.352941 0.121569 0.615686 0.352941 
0.121569 0.615686 0.352941 0.121569 0.615686 0.352941 
0.121569 0.615686 0.352941 0.121569 0.615686 0.352941 
0.121569 0.615686 0.352941 0.121569 0.615686 0.352941 
0.121569 0.615686 0.352941 0.121569 0.615686 0.352941 
0.121569 0.615686 0.352941 0.121569 0.615686 0.352941 
0.121569 0.615686 0.352941 0.121569 0.615686 0.352941 
0.121569 0.615686 0.352941 0.121569 0.615686 0.352941 
0.121569 0.615686 0.352941 0.121569 0.615686 0.352941 
0.121569 0.615686 0.352941 0.121569 0.615686 0.352941 
0.121569 0.615686 0.352941 0.121569 0.615686 0.352941 
0.121569 0.615686 0.352941 0.121569 0.615686 0.352941 
0.121569 0.615686 0.352941 0.121569 0.615686 0.352941 
0.121569 0.615686 0.352941 0.121569 0.615686 0.352941 
0.121569 0.615686 0.352941 0.121569 0.615686 0.352941 
0.121569 0.615686 0.352941 0.121569 0.615686 0.352941 
0.121569 0.615686 0.352941 0.121569 0.615686 0.352941 
0.121569 0.615686 0.352941 0.121569 0.615686 0.352941 
0.121569 0.615686 0.352941 0.121569 0.615686 0.352941 
0.121569 0.615686 0.352941 0.121569 0.615686 0.352941 
0.121569 0.615686 0.352941 0.121569 0.615686 0.352941 
0.121569 0.615686 0.352941 0.121569 0.615686 0.352941 
0.121569 0.615686 0.352941 0.121569 0.615686 0.352941 