# vtk DataFile Version 4.2
vtk output
ASCII
DATASET POLYDATA
POINTS 531 float
120.567 68.1862 196.346 120.178 68.3223 196.467 120.884 67.7946 196.583 
121.348 68.0302 196.267 121.251 67.7928 196.454 121.099 68.8829 196.004 
120.598 69.48 195.988 121.28 69.7951 196 121.928 67.1707 197.005 
119.238 68.3693 197.4 122.18 68.5565 196.253 134.006 68.0586 197.243 
118.213 69.7857 197.263 119.271 69.617 196.589 135.196 67.9535 197.674 
135.048 68.3507 197.671 118.446 70.0496 196.987 133.139 69.0536 197.407 
134.35 68.9761 197.646 118.819 70.7406 196.76 118.971 71.1781 196.774 
134.059 69.2504 197.747 123.035 71.4124 196.5 121.445 72.7605 196.937 
123.103 66.7517 197.407 123.146 66.5576 197.539 123.022 66.5805 197.535 
130.862 65.6813 197.393 122.724 66.6593 197.615 134.048 65.3548 197.987 
135.653 65.8068 198.477 119.729 67.9406 197.363 130.624 67.1915 197.123 
118.628 68.6608 197.788 124.56 68.2911 196.954 136.774 67.4374 198.697 
131.908 68.4202 197.174 135.874 68.4346 198.243 117.138 70.2188 198.208 
124.726 69.6678 196.827 131.75 70.065 197.996 119.661 72.5269 197.073 
119.191 73.6134 197.837 122.155 73.9443 197.911 124.593 72.9865 197.894 
130.552 63.2995 198.916 131.516 62.9809 199.059 132.717 63.2426 198.881 
126.623 65.0518 198.783 129.151 64.7157 198.146 123.731 66.284 198.172 
124.62 66.8807 197.63 136.756 66.6637 198.76 127.163 67.9476 197.339 
116.489 70.6925 199.087 135.858 69.1045 198.798 116.678 71.2452 198.541 
126.745 70.575 197.532 132.125 70.3769 198.354 132.655 70.4424 198.639 
126.527 71.2693 197.717 127.141 72.4755 198.761 132.298 62.3095 199.76 
130.531 63.0326 199.262 132.795 62.2187 200.215 128.928 63.3707 200.012 
128.343 63.8394 199.515 130.351 62.9045 199.683 126.525 64.7716 199.179 
126.293 64.6675 199.62 120.449 67.0965 199.204 118.711 68.1155 199.327 
137.708 67.7073 199.649 137.959 67.6543 199.96 117.003 69.6598 199.24 
116.35 70.5113 199.621 135.456 69.7409 199.308 133.658 70.7163 199.71 
130.983 71.4471 199.262 116.894 73.6541 199.541 126.387 73.2701 199.161 
132.86 61.9422 200.867 132.664 62.0176 200.606 132.222 62.1517 200.428 
122.69 66.0871 199.805 138.116 67.7506 200.256 137.159 69.0545 200.176 
137.922 68.326 200.509 138.169 67.9462 200.571 116.306 70.2442 200.499 
116.667 69.8362 200.589 115.904 71.1266 200.779 115.726 71.8636 200.722 
116.12 70.5359 200.792 115.909 72.0866 200.097 116.139 72.4194 199.749 
127.465 73.5641 200.334 117.432 74.8529 200.136 124.55 75.0095 200.517 
121.948 75.6351 199.983 133.404 61.9633 201.355 135.264 63.208 201.156 
127.55 63.7841 201.587 137.978 66.6105 200.645 119.295 67.869 200.984 
138.354 67.7567 201.039 136.313 69.9855 200.934 115.758 71.1858 201.808 
115.634 73.0981 201.182 117.006 74.8731 200.805 119.6 76.896 202.068 
133.024 61.8759 201.922 132.575 61.9138 201.569 133.846 62.0927 202.001 
126.278 64.4791 202.247 116.43 70.148 201.597 115.553 71.5784 202.125 
115.424 72.7207 202.358 115.731 73.756 201.982 121.639 76.9404 202.584 
118.586 76.847 203.211 133.011 61.9024 202.388 133.924 62.1513 202.764 
138.209 66.4465 202.662 138.012 69.0888 202.088 138.227 68.9218 202.389 
138.379 68.6104 202.427 117.942 69.3785 203.262 115.741 71.3427 203.097 
115.456 73.2975 202.923 119.461 77.1734 202.92 133.587 62.0467 202.948 
131.766 62.2697 203.133 136.855 64.4409 203.39 124.344 65.92 203.979 
138.315 68.8632 202.793 137.308 70.0273 203.134 116.073 71.2103 204.073 
115.405 72.9628 204.084 116.702 75.268 203.975 117.687 76.2221 204.137 
138.417 67.6726 204.277 115.519 72.4339 204.698 115.648 72.2494 204.976 
119.439 77.2442 205.593 121.076 77.5554 204.258 134.64 63.1403 205.444 
135.69 63.8793 205.539 136.795 71.2933 205.823 115.796 72.2695 205.353 
116.017 72.1342 205.584 115.594 72.9275 205.338 115.652 73.2937 205.338 
116.154 74.1327 205.693 123.128 77.717 205.758 133.392 62.799 205.52 
133.757 62.8984 205.68 132.851 63.274 206.418 136.209 64.9018 206.438 
137.339 66.752 206.572 137.741 69.2648 206.707 137.511 70.4996 206.58 
137.244 70.9746 206.299 137.477 70.8986 206.807 137.451 71.0207 206.86 
137.125 71.3379 206.731 116.009 73.7906 205.914 121.88 77.8279 206.712 
131.185 64.1827 207.207 132.782 63.7229 207.18 137.555 68.7208 207.437 
119.429 71.2133 208.021 137.381 71.0787 207.035 117.712 72.2972 207.569 
137.096 71.6279 207.557 116.064 73.3633 206.244 134.847 73.3834 207.144 
136.279 72.5873 207.575 116.603 73.6432 206.962 116.838 74.0101 207.067 
125.444 77.686 207.348 133.854 63.7688 207.074 133.404 64.3593 207.946 
136.619 68.4768 209.228 137.36 70.1249 208.431 137.263 71.276 208.56 
116.709 73.3892 207.13 117.118 73.2532 207.536 118.356 72.5571 208.349 
119.059 72.3089 208.735 136.889 72.1669 208.184 117.298 73.6083 207.778 
134.554 73.9732 208.102 131.377 75.4499 207.934 120.024 76.1745 208.879 
127.983 77.2813 208.921 123.94 78.3182 208.454 124.416 78.3512 208.648 
125.058 78.3233 208.978 125.754 78.0517 208.954 123.956 78.3828 208.905 
123.905 78.3439 209.522 124.382 78.4842 209.066 134.169 66.0795 209.638 
134.67 66.8531 210.117 123.527 69.8301 209.58 137.008 70.1283 209.474 
136.924 71.8969 209.562 137.012 72.0199 209.039 136.898 72.2901 208.782 
117.605 73.7022 208.067 136.365 73.152 209.623 118.001 73.9752 208.338 
119.086 75.043 208.889 119.395 74.8646 209.299 133.543 74.8935 209.252 
125.68 78.1871 209.483 124.571 78.5219 209.304 124.342 78.4467 209.716 
132.423 66.0535 210.056 132.988 66.0471 210.037 135.32 68.5437 211.101 
118.739 73.2936 208.971 119.438 73.3268 209.472 136.529 72.7013 210.123 
136.452 73.1539 210.05 136.439 73.2537 209.983 136.424 73.2754 210.116 
136.345 73.3282 210.049 122.447 76.9558 210.678 134.446 74.6288 210.77 
125.153 78.2344 210.233 124.806 78.2358 210.403 124.497 78.2684 210.315 
125.026 78.3936 209.774 128.345 68.873 211.567 134.919 68.7035 211.636 
136.148 71.7265 211.317 121.971 72.9123 211.273 136.29 73.2579 210.287 
134.064 74.3738 211.79 129.885 76.4813 210.999 126.597 77.3898 211.371 
133.671 68.5895 212.362 129.292 69.7486 212.893 134.965 70.1225 212.463 
122.181 74.1953 211.892 135.987 72.8656 211.162 132.228 74.8127 212.506 
126.394 76.6828 212.468 133.557 69.4507 213.11 134.11 70.0846 213.18 
134.541 72.2511 213.031 123.232 74.1428 212.765 123.888 73.8824 213.067 
132.452 73.6595 213.637 134.053 72.7905 213.244 131.011 74.4116 213.475 
132.751 73.9361 213.239 122.945 75.4845 212.653 124.158 76.0578 212.901 
132.603 69.3671 213.389 129.259 71.6693 214.041 134.255 71.086 213.433 
132.616 72.528 214.133 133.158 72.4104 213.975 125.606 73.5512 213.773 
129.808 73.9001 214.013 125.368 73.9004 213.771 126.367 74.8312 213.882 
123.513 75.7288 213.029 132.587 70.1442 213.927 133.07 70.5407 214.013 
131.945 71.3011 214.355 131.739 72.1332 214.356 133.011 71.9137 214.148 
125.402 74.3964 213.79 123.637 75.7254 213.098 132.917 70.8888 214.172 
132.796 71.0748 240.608 133.339 71.1646 240.765 133.481 70.7633 240.989 
132.095 71.6322 240.545 132.965 71.7755 240.617 133.345 71.5551 240.752 
132.61 70.7415 240.756 133.473 70.1292 241.369 130.958 70.9379 240.816 
134.195 71.0929 241.366 134.1 71.4799 241.266 126.686 73.1064 240.991 
131.154 72.7996 240.726 132.989 72.5636 240.904 125.795 73.8143 241.001 
131.061 73.56 240.929 125.165 74.3168 241.12 125.004 74.1533 241.166 
126.396 74.3782 240.95 129.16 74.0375 240.91 123.911 75.4135 241.713 
123.786 75.2459 241.764 123.78 75.5291 241.848 125.079 74.7346 241.272 
128.28 71.1674 241.397 134.442 70.3838 241.816 134.849 72.1484 242.152 
130.614 74.1384 241.147 132.083 73.7086 241.211 133.354 73.4769 241.623 
134.396 72.8823 242.011 127.026 74.9026 241.108 129.911 74.619 241.306 
133.024 73.9767 241.907 123.231 75.3642 242.171 127.241 75.7582 241.676 
132.84 68.5796 242.319 130.006 75.3463 242.01 123.792 76.6395 242.844 
135.776 70.7713 243.11 121.785 73.2605 243.65 135.738 73.2245 243.574 
136.212 73.0589 244.123 133.303 74.692 243.029 135.788 73.4957 243.854 
132.254 75.3405 243.367 124.453 77.7129 243.982 133.41 66.5696 244.418 
136.47 71.7531 244.1 136.633 72.5702 244.924 136.429 73.0846 244.446 
136.376 73.19 244.299 136.398 73.2261 244.393 136.001 73.5181 244.26 
136.301 73.2748 244.314 132.471 75.4007 243.791 132.915 75.2635 244.082 
135.653 73.8757 244.361 121.861 76.3739 244.396 130.34 76.4249 244.357 
124.225 78.0543 244.49 124.375 78.2399 244.697 131.806 66.0459 245.017 
135.894 68.2266 244.772 136.856 72.4157 245.508 119.059 73.2959 245.766 
136.323 73.2386 244.591 136.3 73.1809 245.179 134.781 74.4359 244.961 
133.03 75.2391 244.753 123.687 78.2069 245.459 124.502 78.4739 245.26 
124.745 78.4986 245.386 133.913 65.1633 246.257 134.882 66.2333 245.625 
135.74 66.8954 245.807 137.28 70.3739 246.039 119.925 71.4513 246.244 
137.241 71.4859 246.027 137.213 71.6618 246.441 118.132 72.7669 246.76 
117.747 73.453 246.96 136.63 72.6232 246.383 118.204 73.8147 246.566 
132.205 75.51 245.729 120.938 76.9615 246.199 123.457 78.1707 245.923 
124.7 78.4945 245.658 124.841 78.4297 245.847 137.159 67.649 247.225 
137.42 69.0024 246.884 137.467 69.7969 246.765 137.457 70.9367 247.313 
117.641 72.1294 247.633 135.754 73.0978 247.174 131.583 75.1006 247.6 
118.998 75.8131 246.909 127.19 77.3172 246.985 134.044 63.2732 248.64 
137.67 70.2732 248.598 137.396 71.2179 247.722 136.964 71.8125 247.658 
116.113 73.0411 248.866 134.079 73.8518 247.683 119.314 76.6741 247.912 
120.059 77.2331 248.347 115.765 73.1275 249.704 117.655 75.6819 248.755 
124.888 66.1631 249.657 137.546 65.8987 249.876 138.301 67.3158 250.468 
138.438 68.5817 250.413 138.497 68.6166 251.031 138.288 69.1085 251.188 
115.976 71.8795 249.898 119.934 77.3945 250.24 137.499 65.6232 250.336 
137.193 65.1006 250.646 138.392 67.2799 251.272 138.537 67.8571 251.183 
138.539 68.2358 250.895 138.566 68.1828 251.489 136.728 70.632 251.399 
115.618 72.0745 250.54 116.036 74.3421 250.879 118.215 76.6404 251.329 
121.024 77.4618 250.825 133.525 61.9831 252.247 138.454 68.5909 252.278 
138.326 68.7965 252.537 137.232 70.0859 252.007 116.266 74.6739 252.278 
[...]
POINT_DATA 531
COLOR_SCALARS scalars 3
0.121569 0.615686 0.352941 0.121569 0.615686 0.352941 0.121569 0.615686 0.352941 
0.121569 0.615686 0.352941 0.121569 0.615686 0.352941 
0.121569 0.615686 0.352941 0.121569 0.615686 0.352941 
0.121569 0.615686 0.352941 0.121569 0.615686 0.352941 
0.121569 0.615686 0.352941 0.121569 0.615686 0.352941 
0.121569 0.615686 0.352941 0.121569 0.615686 0.352941 
0.121569 0.615686 0.352941 0.121569 0.615686 0.352941 
0.121569 0.615686 0.352941 0.121569 0.615686 0.352941 
0.121569 0.615686 0.352941 0.121569 0.615686 0.352941 
0.121569 0.615686 0.352941 0.121569 0.615686 0.352941 
0.121569 0.615686 0.352941 0.121569 0.615686 0.352941 
0.121569 0.615686 0.352941 0.121569 0.615686 0.352941 
0.121569 0.615686 0.352941 0.121569 0.615686 0.352941 
0.121569 0.615686 0.352941 0.121569 0.615686 0.352941 
0.121569 0.615686 0.352941 0.121569 0.615686 0.352941 
0.121569 0.615686 0.352941 0.121569 0.615686 0.352941 
0.121569 0.615686 0.352941 0.121569 0.615686 0.352941 
0.121569 0.615686 0.352941 0.121569 0.615686 0.352941 
0.121569 0.615686 0.352941 0.121569 0.615686 0.352941 
0.121569 0.615686 0.352941 0.121569 0.615686 0.352941 
0.121569 0.615686 0.352941 0.121569 0.615686 0.352941 
0.121569 0.615686 0.352941 0.121569 0.615686 0.352941 
0.121569 0.615686 0.352941 0.121569 0.615686 0.352941 
0.121569 0.615686 0.352941 0.121569 0.615686 0.352941 
0.121569 0.615686 0.352941 0.121569 0.615686 0.352941 
0.121569 0.615686 0.352941 0.121569 0.615686 0.352941 
0.121569 0.615686 0.352941 0.121569 0.615686 0.352941 
0.121569 0.615686 0.352941 0.121569 0.615686 0.352941 
0.121569 0.615686 0.352941 0.121569 0.615686 0.352941 
0.121569 0.615686 0.352941 0.121569 0.615686 0.352941 
0.121569 0.615686 0.352941 0.121569 0.615686 0.352941 
0.121569 0.615686 0.352941 0.121569 0.615686 0.352941 
0.121569 0.615686 0.352941 0.121569 0.615686 0.352941 
0.121569 0.615686 0.352941 0.121569 0.615686 0.352941 
0.121569 0.615686 0.352941 0.121569 0.615686 0.352941 
0.121569 0.615686 0.352941 0.121569 0.615686 0.352941 
0.121569 0.615686 0.352941 0.121569 0.615686 0.352941 
0.121569 0.615686 0.352941 0.121569 0.615686 0.352941 
0.121569 0.615686 0.352941 0.121569 0.615686 0.352941 
0.121569 0.615686 0.352941 0.121569 0.615686 0.352941 
0.121569 0.615686 0.352941 0.121569 0.615686 0.352941 
0.121569 0.615686 0.352941 0.121569 0.615686 0.352941 
0.121569 0.615686 0.352941 0.121569 0.615686 0.352941 
0.121569 0.615686 0.352941 0.121569 0.615686 0.352941 
0.121569 0.615686 0.352941 0.121569 0.615686 0.352941 
0.121569 0.615686 0.352941 0.121569 0.615686 0.352941 
0.121569 0.615686 0.352941 0.121569 0.615686 0.352941 
0.121569 0.615686 0.352941 0.121569 0.615686 0.352941 
0.121569 0.615686 0.352941 0.121569 0.615686 0.352941 
0.121569 0.615686 0.352941 0.121569 0.615686 0.352941 
0.121569 0.615686 0.352941 0.121569 0.615686 0.352941 
0.121569 0.615686 0.352941 0.121569 0.615686 0.352941 
0.121569 0.615686 0.352941 0.121569 0.615686 0.352941 
0.121569 0.615686 0.352941 0.121569 0.615686 0.352941 
0.121569 0.615686 0.352941 0.121569 0.615686 0.352941 
0.121569 0.615686 0.352941 0.121569 0.615686 0.352941 
0.121569 0.615686 0.352941 0.121569 0.615686 0.352941 
0.121569 0.615686 0.352941 0.121569 0.615686 0.352941 
0.121569 0.615686 0.352941 0.121569 0.615686 0.352941 
0.121569 0.615686 0.352941 0.121569 0.615686 0.352941 
0.121569 0.615686 0.352941 0.121569 0.615686 0.352941 
0.121569 0.615686 0.352941 0.121569 0.615686 0.352941 
0.121569 0.615686 0.352941 0.121569 0.615686 0.352941 
0.121569 0.615686 0.352941 0.121569 0.615686 0.352941 
0.121569 0.615686 0.352941 0.121569 0.615686 0.352941 
0.121569 0.615686 0.352941 0.121569 0.615686 0.352941 
0.121569 0.615686 0.352941 0.121569 0.615686 0.352941 
0.121569 0.615686 0.352941 0.121569 0.615686 0.352941 
0.121569 0.615686 0.352941 0.121569 0.615686 0.352941 
0.121569 0.615686 0.352941 0.121569 0.615686 0.352941 
0.121569 0.615686 0.352941 0.121569 0.615686 0.352941 
0.121569 0.615686 0.352941 0.121569 0.615686 0.352941 
0.121569 0.615686 0.352941 0.121569 0.615686 0.352941 
0.121569 0.615686 0.352941 0.121569 0.615686 0.352941 
0.121569 0.615686 0.352941 0.121569 0.615686 0.352941 
0.121569 0.615686 0.352941 0.121569 0.615686 0.352941 
0.121569 0.615686 0.352941 0.121569 0.615686 0.352941 
0.121569 0.615686 0.352941 0.121569 0.615686 0.352941 
0.121569 0.615686 0.352941 0.121569 0.615686 0.352941 
0.121569 0.615686 0.352941 0.121569 0.615686 0.352941 
0.121569 0.615686 0.352941 0.121569 0.615686 0.352941 
0.121569 0.615686 0.352941 0.121569 0.615686 0.352941 
0.121569 0.615686 0.352941 0.121569 0.615686 0.352941 
0.121569 0.615686 0.352941 0.121569 0.615686 0.352941 
0.121569 0.615686 0.352941 0.121569 0.615686 0.352941 
0.121569 0.615686 0.352941 0.121569 0.615686 0.352941 
0.121569 0.615686 0.352941 0.121569 0.615686 0.352941 
0.121569 0.615686 0.352941 0.121569 0.615686 0.352941 
0.121569 0.615686 0.352941 0.121569 0.615686 0.352941 
0.121569 0.615686 0.352941 0.121569 0.615686 0.352941 
0.121569 0.615686 0.352941 0.121569 0.615686 0.352941 
0.121569 0.615686 0.352941 0.121569 0.615686 0.352941 
0.121569 0.615686 0.352941 0.121569 0.615686 0.352941 
0.121569 0.615686 0.352941 0.121569 0.615686 0.352941 
0.121569 0.615686 0.352941 0.121569 0.615686 0.352941 
0.121569 0.615686 0.352941 0.121569 0.615686 0.352941 
0.121569 0.615686 0.352941 0.121569 0.615686 0.352941 
0.121569 0.615686 0.352941 0.121569 0.615686 0.352941 
0.121569 0.615686 0.352941 0.121569 0.615686 0.352941 
0.121569 0.615686 0.352941 0.121569 0.615686 0.352941 
0.121569 0.615686 0.352941 0.121569 0.615686 0.352941 
0.121569 0.615686 0.352941 0.121569 0.615686 0.352941 
0.121569 0.615686 0.352941 0.121569 0.615686 0.352941 
0.121569 0.615686 0.352941 0.121569 0.615686 0.352941 
0.121569 0.615686 0.352941 0.121569 0.615686 0.352941 
0.121569 0.615686 0.352941 0.121569 0.615686 0.352941 
0.121569 0.615686 0.352941 0.121569 0.615686 0.352941 
0.121569 0.615686 0.352941 0.121569 0.615686 0.352941 
0.121569 0.615686 0.352941 0.121569 0.615686 0.352941 
0.121569 0.615686 0.352941 0.121569 0.615686 0.352941 
0.121569 0.615686 0.352941 0.121569 0.615686 0.352941 
0.121569 0.615686 0.352941 0.121569 0.615686 0.352941 
0.121569 0.615686 0.352941 0.121569 0.615686 0.352941 
0.121569 0.615686 0.352941 0.121569 0.615686 0.352941 
0.121569 0.615686 0.352941 0.121569 0.615686 0.352941 
0.121569 0.615686 0.352941 0.121569 0.615686 0.352941 
0.121569 0.615686 0.352941 0.121569 0.615686 0.352941 
0.121569 0.615686 0.352941 0.121569 0.615686 0.352941 
0.121569 0.615686 0.352941 0.121569 0.615686 0.352941 
0.121569 0.615686 0.352941 0.121569 0.615686 0.352941 
0.121569 0.615686 0.352941 0.121569 0.615686 0.352941 
0.121569 0.615686 0.352941 0.121569 0.615686 0.352941 
0.121569 0.615686 0.352941 0.121569 0.615686 0.352941 
0.121569 0.615686 0.352941 0.121569 0.615686 0.352941 
0.121569 0.615686 0.352941 0.121569 0.615686 0.352941 
0.121569 0.615686 0.352941 0.121569 0.615686 0.352941 
0.121569 0.615686 0.352941 0.121569 0.615686 0.352941 
0.121569 0.615686 0.352941 0.121569 0.615686 0.352941 
0.121569 0.615686 0.352941 0.121569 0.615686 0.352941 
0.121569 0.615686 0.352941 0.121569 0.615686 0.352941 
0.121569 0.615686 0.352941 0.121569 0.615686 0.352941 
0.121569 0.615686 0.352941 0.121569 0.615686 0.352941 
0.121569 0.615686 0.352941 0.121569 0.615686 0.352941 
0.121569 0.615686 0.352941 0.121569 0.615686 0.352941 
0.121569 0.615686 0.352941 0.121569 0.615686 0.352941 
0.121569 0.615686 0.352941 0.121569 0.615686 0.352941 
0.121569 0.615686 0.352941 0.121569 0.615686 0.352941 
0.121569 0.615686 0.352941 0.121569 0.615686 0.352941 
0.121569 0.615686 0.352941 0.121569 0.615686 0.352941 
0.121569 0.615686 0.352941 0.121569 0.615686 0.352941 
0.121569 0.615686 0.352941 0.121569 0.615686 0.352941 
0.121569 0.615686 0.352941 0.121569 0.615686 0.352941 
0.121569 0.615686 0.352941 0.121569 0.615686 0.352941 
0.121569 0.615686 0.352941 0.121569 0.615686 0.352941 
0.121569 0.615686 0.352941 0.121569 0.615686 0.352941 
0.121569 0.615686 0.352941 0.121569 0.615686 0.352941 
0.121569 0.615686 0.352941 0.121569 0.615686 0.352941 
0.121569 0.615686 0.352941 0.121569 0.615686 0.352941 
0.121569 0.615686 0.352941 0.121569 0.615686 0.352941 
0.121569 0.615686 0.352941 0.121569 0.615686 0.352941 
0.121569 0.615686 0.352941 0.121569 0.615686 0.352941 
0.121569 0.615686 0.352941 0.121569 0.615686 0.352941 
0.121569 0.615686 0.352941 0.121569 0.615686 0.352941 
0.121569 0.615686 0.352941 0.121569 0.615686 0.352941 
0.121569 0.615686 0.352941 0.121569 0.615686 0.352941 
0.121569 0.615686 0.352941 0.121569 0.615686 0.352941 
0.121569 0.615686 0.352941 0.121569 0.615686 0.352941 
0.121569 0.615686 0.352941 0.121569 0.615686 0.352941 
0.121569 0.615686 0.352941 0.121569 0.615686 0.352941 
0.121569 0.615686 0.352941 0.121569 0.615686 0.352941 
0.121569 0.615686 0.352941 0.121569 0.615686 0.352941 
0.121569 0.615686 0.352941 0.121569 0.615686 0.352941 
0.121569 0.615686 0.352941 0.121569 0.615686 0.352941 
0.121569 0.615686 0.352941 0.121569 0.615686 0.352941 
0.121569 0.615686 0.352941 0.121569 0.615686 0.352941 
0.121569 0.615686 0.352941 0.121569 0.615686 0.352941 
0.121569 0.615686 0.352941 0.121569 0.615686 0.352941 
0.121569 0.615686 0.352941 0.121569 0.615686 0.352941 
0.121569 0.615686 0.352941 0.121569 0.615686 0.352941 
0.121569 0.615686 0.352941 0.121569 0.615686 0.352941 
0.121569 0.615686 0.352941 0.121569 0.615686 0.352941 
0.121569 0.615686 0.352941 0.121569 0.615686 0.352941 
0.121569 0.615686 0.352941 0.121569 0.615686 0.352941 
0.121569 0.615686 0.352941 0.121569 0.615686 0.352941 
0.121569 0.615686 0.352941 0.121569 0.615686 0.352941 
0.121569 0.615686 0.352941 0.121569 0.615686 0.352941 
0.121569 0.615686 0.352941 0.121569 0.615686 0.352941 
0.121569 0.615686 0.352941 0.121569 0.615686 0.352941 
0.121569 0.615686 0.352941 0.121569 0.615686 0.352941 
0.121569 0.615686 0.352941 0.121569 0.615686 0.352941 
0.121569 0.615686 0.352941 0.121569 0.615686 0.352941 
0.121569 0.615686 0.352941 0.121569 0.615686 0.352941 
0.121569 0.615686 0.352941 0.121569 0.615686 0.352941 
0.121569 0.615686 0.352941 0.121569 0.615686 0.352941 
0.121569 0.615686 0.352941 0.121569 0.615686 0.352941 
0.121569 0.615686 0.352941 0.121569 0.615686 0.352941 
0.121569 0.615686 0.352941 0.121569 0.615686 0.352941 
0.121569 0.615686 0.352941 0.121569 0.615686 0.352941 
0.121569 0.615686 0.352941 0.121569 0.615686 0.352941 
0.121569 0.615686 0.352941 0.121569 0.615686 0.352941 
0.121569 0.615686 0.352941 0.121569 0.615686 0.352941 
0.121569 0.615686 0.352941 0.121569 0.615686 0.352941 
0.121569 0.615686 0.352941 0.121569 0.615686 0.352941 
0.121569 0.615686 0.352941 0.121569 0.615686 0.352941 
0.121569 0.615686 0.352941 0.121569 0.615686 0.352941 
0.121569 0.615686 0.352941 0.121569 0.615686 0.352941 
0.121569 0.615686 0.352941 0.121569 0.615686 0.352941 
0.121569 0.615686 0.352941 0.121569 0.615686 0.352941 
0.121569 0.615686 0.352941 0.121569 0.615686 0.352941 
0.121569 0.615686 0.352941 0.121569 0.615686 0.352941 
0.121569 0.615686 0.352941 0.121569 0.615686 0.352941 
0.121569 0.615686 0.352941 0.121569 0.615686 0.352941 
0.121569 0.615686 0.352941 0.121569 0.615686 0.352941 
0.121569 0.615686 0.352941 0.121569 0.615686 0.352941 
0.121569 0.615686 0.352941 0.121569 0.615686 0.352941 
0.121569 0.615686 0.352941 0.121569 0.615686 0.352941 
0.121569 0.615686 0.352941 0.121569 0.615686 0.352941 
0.121569 0.615686 0.352941 0.121569 0.615686 0.352941 
0.121569 0.615686 0.352941 0.121569 0.615686 0.352941 
0.121569 0.615686 0.352941 0.121569 0.615686 0.352941 
0.121569 0.615686 0.352941 0.121569 0.615686 0.352941 
0.121569 0.615686 0.352941 0.121569 0.615686 0.352941 
0.121569 0.615686 0.352941 0.121569 0.615686 0.352941 
0.121569 0.615686 0.352941 0.121569 0.615686 0.352941 
0.121569 0.615686 0.352941 0.121569 0.615686 0.352941 
0.121569 0.615686 0.352941 0.121569 0.615686 0.352941 
0.121569 0.615686 0.352941 0.121569 0.615686 0.352941 
0.121569 0.615686 0.352941 0.121569 0.615686 0.352941 
0.121569 0.615686 0.352941 0.121569 0.615686 0.352941 
0.121569 0.615686 0.352941 0.121569 0.615686 0.352941 
0.121569 0.615686 0.352941 0.121569 0.615686 0.352941 
0.121569 0.615686 0.352941 0.121569 0.615686 0.352941 
0.121569 0.615686 0.352941 0.121569 0.615686 0.352941 
0.121569 0.615686 0.352941 0.121569 0.615686 0.352941 
0.121569 0.615686 0.352941 0.121569 0.615686 0.352941 
0.121569 0.615686 0.352941 0.121569 0.615686 0.352941 
0.121569 0.615686 0.352941 0.121569 0.615686 0.352941 
0.121569 0.615686 0.352941 0.121569 0.615686 0.352941 
0.121569 0.615686 0.352941 0.121569 0.615686 0.352941 
0.121569 0.615686 0.352941 0.121569 0.615686 0.352941 
0.121569 0.615686 0.352941 0.121569 0.615686 0.352941 
0.121569 0.615686 0.352941 0.121569 0.615686 0.352941 
0.121569 0.615686 0.352941 0.121569 0.615686 0.352941 
0.121569 0.615686 0.352941 0.121569 0.615686 0.352941 
0.121569 0.615686 0.352941 0.121569 0.615686 0.352941 
0.121569 0.615686 0.352941 0.121569 0.615686 0.352941 
0.121569 0.615686 0.352941 0.121569 0.615686 0.352941 
0.121569 0.615686 0.352941 0.121569 0.615686 0.352941 
0.121569 0.615686 0.352941 0.121569 0.615686 0.352941 
0.121569 0.615686 0.352941 0.121569 0.615686 0.352941 
0.121569 0.615686 0.352941 0.121569 0.615686 0.352941 
0.121569 0.615686 0.352941 0.121569 0.615686 0.352941 
0.121569 0.615686 0.352941 0.121569 0.615686 0.352941 
0.121569 0.615686 0.352941 0.121569 0.615686 0.352941 
0.121569 0.615686 0.352941 0.121569 0.615686 0.352941 
0.121569 0.615686 0.352941 0.121569 0.615686 0.352941 
0.121569 0.615686 0.352941 0.121569 0.615686 0.352941 
0.121569 0.615686 0.352941 0.121569 0.615686 0.352941 
0.121569 0.615686 0.352941 0.121569 0.615686 0.352941 
0.121569 0.615686 0.352941 0.121569 0.615686 0.352941 
0.121569 0.615686 0.352941 0.121569 0.615686 0.352941 
0.121569 0.615686 0.352941 0.121569 0.615686 0.352941 
0.121569 0.615686 0.352941 0.121569 0.615686 0.352941 
0.121569 0.615686 0.352941 0.121569 0.615686 0.352941 
0.121569 0.615686 0.352941 0.121569 0.615686 0.352941 
0.121569 0.615686 0.352941 0.121569 0.615686 0.352941 
0.121569 0.615686 0.352941 0.121569 0.615686 0.352941 
0.121569 0.615686 0.352941 0.121569 0.615686 0.352941 
0.121569 0.615686 0.352941 0.121569 0.615686 0.352941 
0.121569 0.615686 0.352941 0.121569 0.615686 0.352941 
0.121569 0.615686 0.352941 0.121569 0.615686 0.352941 
0.121569 0.615686 0.352941 0.121569 0.615686 0.352941 
0.121569 0.615686 0.352941 0.121569 0.615686 0.352941 
0.121569 0.615686 0.352941 0.121569 0.615686 0.352941 
0.121569 0.615686 0.352941 0.121569 0.615686 0.352941 

NORMALS Normals float
-0.37214 -0.606968 -0.702212 -0.490413 -0.337296 -0.803571 -0.366458 -0.72898 -0.578185 
-0.00456019 -0.289434 -0.957187 0.0347228 -0.646879 -0.761802 0.0448233 -0.182089 -0.98226 
-0.259049 -0.0383208 -0.965104 0.132386 0.0599228 -0.989385 -0.0778326 -0.738701 -0.669524 
-0.575604 -0.790616 -0.208822 0.205273 -0.153215 -0.966638 0.222958 0.00564809 -0.974812 
-0.693824 -0.160143 -0.702113 -0.404957 -0.0914804 -0.909748 0.373722 0.00116618 -0.92754 
0.504034 0.412859 -0.758615 -0.61597 -0.211134 -0.758949 0.12189 0.494447 -0.860619 
0.322792 0.409891 -0.853109 -0.58086 0.171878 -0.795651 -0.339764 0.235902 -0.910445 
0.343676 0.668831 -0.659205 0.222977 0.257747 -0.940132 -0.0178768 0.438611 -0.898499 
-0.0200274 -0.576898 -0.816571 0.0207631 -0.814266 -0.58012 -0.243073 -0.794706 -0.5562 
0.0143861 -0.306347 -0.951811 -0.276935 -0.907538 -0.315724 0.258815 -0.47173 -0.842903 
0.504397 -0.504975 -0.700417 -0.47444 -0.786467 -0.395446 -0.0908475 0.00620146 -0.995846 
-0.596179 -0.647064 -0.475268 0.151801 -0.339319 -0.928342 0.640854 0.171694 -0.748216 
-0.0281391 0.173193 -0.984486 0.594375 0.397713 -0.698959 -0.766169 -0.372523 -0.523652 
0.0967929 0.259513 -0.960877 0.10338 0.545507 -0.831706 -0.337301 0.391671 -0.85605 
-0.255814 0.628273 -0.734733 0.138852 0.711577 -0.688751 0.267336 0.628985 -0.730006 
-0.221082 -0.629448 -0.744928 -0.102505 -0.765637 -0.635054 0.2089 -0.60065 -0.771739 
-0.334614 -0.696052 -0.635252 -0.188925 -0.564715 -0.803371 -0.168199 -0.87608 -0.451877 
-0.0190361 -0.615604 -0.787826 0.589018 -0.299269 -0.750664 0.073789 -0.0836009 -0.993764 
-0.890656 -0.260443 -0.372694 0.560504 0.57199 -0.598885 -0.800348 0.0689073 -0.595562 
0.177845 0.368789 -0.912341 0.209164 0.765206 -0.60886 0.221786 0.747478 -0.626168 
0.345649 0.462859 -0.816265 0.318284 0.62559 -0.712272 0.0934453 -0.848135 -0.521474 
-0.344497 -0.796621 -0.496705 0.256911 -0.857942 -0.444896 -0.468942 -0.842003 -0.26669 
-0.436958 -0.870064 -0.22816 -0.353945 -0.878844 -0.319931 -0.391592 -0.792277 -0.467924 
-0.421778 -0.852688 -0.308262 -0.467424 -0.840408 -0.274281 -0.548622 -0.827004 -0.122796 
0.745373 0.201882 -0.635344 0.789269 0.26249 -0.555116 -0.659465 -0.729838 -0.180119 
-0.906414 -0.296291 -0.301041 0.479046 0.733256 -0.482545 0.289989 0.886567 -0.360423 
0.312642 0.817844 -0.4831 -0.636647 0.408882 -0.653832 0.28854 0.729583 -0.620042 
0.0297058 -0.976269 -0.214513 -0.0501109 -0.942672 -0.329938 -0.239393 -0.954135 -0.179768 
-0.401474 -0.915335 -0.0313098 0.907348 0.117401 -0.403654 0.655221 0.606288 -0.450666 
0.782045 0.541091 -0.309234 0.80307 0.475832 -0.358695 -0.845636 -0.518817 -0.125415 
-0.686111 -0.727421 -0.0105182 -0.933234 -0.326128 -0.150718 -0.981369 0.00653335 -0.19202 
-0.868442 -0.49496 0.0286937 -0.940777 0.0114532 -0.338832 -0.844501 0.315677 -0.432627 
0.323178 0.838992 -0.437776 -0.411594 0.724958 -0.552292 0.324952 0.842374 -0.429899 
0.0399508 0.833157 -0.551592 0.298854 -0.940891 -0.159404 0.57203 -0.731825 -0.370424 
-0.35274 -0.935722 0.000235735 0.816789 -0.445449 -0.366648 -0.502976 -0.830608 0.238967 
0.982177 0.0802032 -0.169987 0.533779 0.799902 -0.274292 -0.931202 -0.354665 -0.0841182 
-0.952824 0.1244 -0.276858 -0.680261 0.655288 -0.328396 -0.158649 0.892473 -0.422282 
-0.0263872 -0.99931 0.0261241 -0.163093 -0.985776 -0.0405845 0.532458 -0.846268 -0.017864 
-0.411974 -0.902672 0.124342 -0.786818 -0.609783 0.0952995 -0.977609 -0.206304 -0.0414726 
-0.995799 0.0651291 -0.06437 -0.833503 0.534766 -0.138916 0.178477 0.918713 -0.352295 
-0.530473 0.830156 -0.171582 0.125707 -0.988617 0.082669 0.475029 -0.878646 0.0482488 
0.925077 -0.379641 -0.0102948 0.731024 0.635365 -0.248829 0.820549 0.537406 -0.194663 
0.93352 0.311713 -0.177133 -0.541921 -0.803174 0.247451 -0.852199 -0.508481 0.123304 
-0.97398 0.221219 0.0492392 -0.183187 0.959825 -0.212554 0.159342 -0.962121 0.221208 
-0.350013 -0.913845 0.20586 0.74733 -0.660791 0.0696613 -0.411428 -0.85074 0.327061 
0.873053 0.486608 -0.0314807 0.545963 0.809543 -0.215788 -0.748339 -0.614881 0.248819 
-0.976935 0.196037 0.0846647 -0.740803 0.670521 -0.0401458 -0.651867 0.751171 0.103978 
0.959868 -0.227426 0.164109 -0.967916 -0.20957 0.138632 -0.849349 -0.443065 0.286879 
-0.452892 0.879434 0.146572 0.244646 0.915957 -0.318073 0.509214 -0.838048 0.1959 
0.597862 -0.67338 0.434879 0.723958 0.621854 -0.298635 -0.813335 -0.382975 0.437969 
-0.68749 -0.533439 0.492748 -0.919359 -0.0737244 0.38645 -0.950649 0.26334 0.164069 
-0.757874 0.587991 0.282655 0.0969355 0.952666 -0.28815 -0.0154234 -0.943196 0.33188 
0.212865 -0.912084 0.350415 -0.109719 -0.886829 0.448882 0.724253 -0.582347 0.369228 
0.854651 -0.364331 0.369913 0.967927 0.0580904 0.244425 0.985889 0.166847 -0.013559 
0.809233 0.396442 -0.433563 0.989731 0.0912096 0.110063 0.864731 0.46158 -0.197948 
0.716972 0.666571 -0.204045 -0.78915 0.379523 0.482912 -0.0796616 0.985364 -0.150708 
-0.295429 -0.822664 0.485742 -0.0608151 -0.809894 0.583415 0.933836 -0.0296958 0.356468 
-0.448484 -0.668631 0.593123 0.913695 0.154521 0.375879 -0.634552 -0.435399 0.63857 
0.880192 0.453841 -0.138889 -0.795386 0.01069 0.606009 0.487534 0.771799 -0.408211 
0.615101 0.686783 -0.387273 -0.74206 0.216717 0.634335 -0.74404 0.40723 0.529687 
0.265542 0.876947 -0.400564 0.243066 -0.796177 0.554095 0.163651 -0.740912 0.651358 