# vtk DataFile Version 4.2
vtk output
ASCII
DATASET POLYDATA
POINTS 2031 float
119.146 101.145 122.582 118.848 101.179 122.649 119.365 100.827 122.611 
118.983 101.384 122.635 118.737 101.453 122.755 119.43 101.145 122.606 
119.347 101.791 122.822 120.658 99.3584 123.05 120.587 99.281 123.074 
120.522 99.3973 123.012 120.885 99.299 123.217 119.565 100.187 122.748 
120.602 99.5065 123.045 120.757 97.9281 123.673 120.213 99.4885 123.023 
118.063 99.8297 123.404 120.69 100.039 123.099 117.272 100.137 123.795 
121.781 100.707 123.719 120.569 103.893 124.035 123.004 95.4825 125.193 
122.873 95.8244 125.098 117.128 98.7564 124.482 116.107 100.896 125.023 
117.008 101.599 124.08 117.404 102.577 124.118 123.435 93.8245 126.082 
122.694 95.1196 125.287 122.329 94.8761 125.429 123.474 94.0377 126.028 
115.21 99.072 126.173 122.727 103.291 124.85 122.974 93.5066 126.327 
123.986 93.4279 126.613 115.111 100.857 126.548 123.609 103.841 125.75 
117.282 105.308 125.902 123.413 105.637 126.095 120.348 107.612 126.116 
121.865 108.19 126.562 114.973 97.2986 127.492 122.799 108.991 127.506 
125.529 90.9321 128.377 114.404 100.293 127.971 124.747 105.701 127.443 
124.46 107.074 127.684 124.842 106.78 128.037 115.904 109.162 128.414 
117.292 109.956 128.241 121.894 110.069 128.408 123.725 109.183 128.579 
123.03 109.76 128.762 123.487 109.497 128.746 126.882 88.8675 130.038 
126.126 88.9963 129.856 126.936 91.4739 128.873 115.02 95.2684 129.137 
114.369 103.638 129.529 114.588 105.942 129.341 125.462 106.483 129.133 
115.119 107.945 128.764 115.391 108.818 128.653 124.87 107.86 129.184 
124.577 108.34 129.2 123.425 109.59 129.049 123.035 109.85 129.158 
123.785 109.229 129.342 113.922 111.051 129.755 114.588 111.531 129.737 
126.612 103.825 129.611 126.303 105.433 130.413 113.89 106.699 130.517 
125.083 107.544 129.62 124.612 108.286 129.844 124.299 108.494 130.102 
124.859 107.902 129.944 112.74 109.671 130.828 123.92 108.99 129.808 
112.481 111.057 130.795 122.853 109.933 129.44 112.449 111.625 130.847 
112.739 111.876 130.716 112.899 112.207 130.818 118.381 111.715 129.899 
119.16 111.471 129.794 119.78 111.328 129.926 120.264 111.12 129.891 
114.375 112.412 130.532 119.426 111.487 130.2 126.402 87.8389 130.907 
129.215 87.9209 132.241 126.562 104.887 130.303 124.737 107.783 130.483 
112.111 109.759 131.808 111.567 110.627 131.906 111.136 111.375 132.121 
121.079 110.414 131.055 120.264 111.027 130.733 110.998 112.28 132.132 
111.231 112.625 131.986 119.442 111.447 130.669 118.702 111.707 130.97 
111.53 112.716 131.816 111.703 112.896 131.846 112.798 112.652 131.253 
116.326 112.615 130.776 116.925 112.451 130.861 114.165 113.092 131.617 
115.666 112.958 131.408 115.926 112.906 131.273 128.062 86.7574 132.886 
116.048 91.6732 132.09 128.003 102.297 131.847 126.416 105.151 131.411 
113.258 107.483 132.321 112.328 109.21 132.35 121.654 109.214 132.036 
111.388 110.675 132.236 111.39 110.585 132.701 110.79 111.632 132.611 
110.669 112.116 132.538 117.33 111.963 132.108 110.898 113.018 132.456 
112.614 113.344 132.234 113.584 113.36 132.47 125.544 86.2705 133.17 
114.034 93.5801 132.456 113.055 96.1597 133.233 129.331 100.778 133.398 
127.374 103.351 132.727 126.5 104.542 132.412 111.708 110.255 133.116 
110.575 111.763 133.022 110.302 112.413 133.246 116.615 111.714 132.909 
110.446 112.705 132.873 110.327 112.702 133.26 110.46 112.909 132.979 
110.617 113.078 132.898 114.871 112.932 132.415 110.921 113.268 132.961 
111.371 113.43 132.857 111.218 113.422 133.121 113.404 113.28 133.052 
131.829 94.4323 133.744 112.76 96.3512 134.219 126.706 103.415 134.045 
113.666 104.934 134.138 113.544 107.039 133.467 121.168 107.421 134.062 
113.171 108.586 133.57 110.613 111.785 133.665 116.269 110.784 133.806 
110.254 112.703 133.607 114.19 112.455 133.476 110.341 112.921 133.63 
110.957 113.249 133.616 112.231 113.322 133.465 112.421 113.169 133.621 
128.738 86.0588 135.046 132.546 88.471 135.305 133.068 88.8551 135.535 
132.049 96.596 135.137 130.767 98.6558 134.168 130.982 98.7158 135.219 
128.679 101.379 134.587 126.484 102.65 135.362 114.049 107.813 134.58 
113.557 109.225 134.209 113.639 110.426 134.312 112.719 111.168 134.327 
114.912 110.611 134.23 110.322 112.405 133.92 112.881 111.623 134.247 
111.652 112.374 134.32 112.471 112.826 133.859 110.423 113.036 133.846 
110.693 113.037 133.958 133.751 90.1912 135.72 112.011 97.121 135.832 
132.781 96.1353 136.305 132.345 96.8494 136.568 131.242 98.3204 135.825 
112.423 99.6355 135.231 130.543 99.2685 135.678 130.807 98.8692 136.025 
113.332 103.685 135.23 121.154 105.442 135.868 114.017 105.759 135.32 
114.884 106.723 135.822 114.995 107.544 135.393 115.116 108.433 135.067 
116.046 108.251 135.307 114.347 109.053 134.65 111.22 111.788 134.33 
111.693 111.442 134.284 112.168 111.322 134.326 110.884 112.123 134.353 
111.093 112.106 134.485 111.252 112.018 134.498 111.658 111.922 134.408 
111.23 112.131 134.52 110.339 112.727 134.192 110.473 112.538 134.302 
111.067 112.369 134.411 110.646 112.539 134.411 111.116 112.188 134.531 
110.343 112.87 134.224 110.273 112.884 134.115 110.589 112.734 134.282 
110.418 112.941 134.174 110.529 112.6 134.388 119.683 86.3614 137.107 
130.586 86.2273 137.087 134.741 88.7725 137.54 134.697 92.3697 136.859 
111.853 96.0102 136.455 130.451 98.9945 136.554 129.889 99.244 136.96 
125.726 101.664 137.124 121.09 103.942 137.363 113.827 104.963 136.25 
117.964 105.8 137.016 114.737 105.927 136.452 111.154 112.117 134.547 
110.545 112.529 134.405 110.308 112.945 134.176 135.318 88.0218 138.799 
135.922 89.3259 138.536 107.326 93.3395 139.176 107.344 93.2239 139.257 
106.463 94.3727 138.806 112.726 93.2794 138.115 106.016 95.1686 138.553 
110.665 95.323 137.866 101.931 97.3951 138.658 101.915 96.9651 138.785 
110.913 96.6155 137.209 131.597 97.6347 137.316 100.136 99.0716 138.87 
110.826 99.9511 137.203 111.427 100.379 136.803 111.239 101.627 137.36 
111.707 102.128 137.177 112.12 102.629 137.014 112.318 103.7 137.79 
113.03 104.196 137.562 113.7 104.685 137.771 116.218 105.815 137.279 
114.88 105.391 137.402 115.436 105.913 136.977 128.816 84.8635 139.302 
134.78 87.3885 139.316 136.139 88.1283 139.747 136.379 88.7839 139.327 
136.667 89.9613 139.268 107.404 92.9832 139.525 108.151 93.4919 139.241 
134.164 95.0244 138.736 107 97.2386 138.295 108.806 96.8081 138.05 
109.649 96.4285 137.891 103.758 98.1392 138.541 109.614 98.6441 137.713 
98.1054 98.8039 139.984 104.43 99.7961 138.636 110.23 99.4675 137.497 
109.699 100.775 137.972 110.299 103.597 138.948 111.868 103.92 138.536 
112.797 104.288 138.374 116.244 104.72 138.588 113.591 104.569 138.88 
114.504 104.9 138.211 137.337 88.9718 140.664 137.55 89.8033 140.462 
107.027 91.4901 140.777 137.342 90.4685 140.122 137.587 91.1923 140.759 
137.6 91.0998 140.705 137.635 91.0885 140.866 136.825 91.6197 139.893 
102.876 94.0382 139.952 111.194 93.517 139.078 101.521 95.2892 139.785 
133.088 95.5123 140.045 133.754 95.2302 139.556 104.536 100.691 138.778 
97.4101 100.312 140.925 104.986 102.984 139.35 107.861 102.615 138.973 
102.819 103.686 139.998 115.639 103.872 140.081 102.099 104.608 140.778 
107.379 104.193 139.718 110.395 104.189 139.485 111.434 104.154 139.11 
114.157 104.5 139.357 110.872 104.636 140.158 111.636 104.621 140.228 
105.792 105.516 140.644 138.06 89.9805 141.695 137.537 90.8597 140.594 
137.095 91.4857 140.399 137.152 91.6558 141.345 136.004 92.8201 141.218 
96.6748 99.844 141.672 98.1742 101.958 141.281 113.323 104.079 140.976 
111.949 104.558 140.718 111.679 104.528 141.312 110.246 104.917 140.725 
103.569 106.253 141.926 105.273 106.638 142.014 105.394 106.412 141.628 
106.171 106.275 141.46 106.626 106.391 141.795 137.011 88.2652 142.034 
137.733 88.9439 141.851 138.163 89.573 142.066 138.189 89.4537 142.338 
138.282 89.6794 142.399 138.212 90.0384 142.338 115.904 90.1411 141.171 
137.597 91.1942 141.631 111.143 91.5905 141.795 134.937 93.6552 141.402 
97.8857 96.2024 141.616 96.2062 98.5198 142.142 96.3038 97.7217 142.276 
99.357 103.759 142.064 103.075 106.397 142.976 104.329 106.691 142.537 
104.228 106.711 143.033 107.913 106.089 142.045 105.99 106.667 142.412 
117.917 83.5693 143.377 136.899 88.3086 143.083 138.114 89.3999 142.646 
137.935 89.2863 142.956 116.583 88.9482 141.973 138.023 89.5599 143.022 
138.288 89.674 142.701 138.343 89.8245 142.57 138.35 89.8042 142.705 
111.921 91.3474 142.278 114.157 90.9152 142.144 112.708 103.137 143.019 
108.055 105.917 142.85 124.261 79.3569 144.929 127.176 81.7436 143.541 
137.38 89.1566 143.642 137.976 89.9911 143.036 137.625 90.0657 143.509 
138.241 89.7911 142.837 95.5986 96.583 144.179 95.6795 100.264 143.782 
101.863 105.999 143.999 106.339 106.515 143.263 104.759 106.61 143.738 
129.135 83.0024 145.038 115.193 88.9344 143.935 114.635 89.3134 144.056 
135.891 91.0685 144.692 94.8691 99.846 145.304 101.666 105.881 144.978 
124.899 78.5584 146.044 107.865 87.2636 146.169 135.049 87.7974 145.06 
110.215 89.4316 144.363 113.797 88.7468 144.901 136.113 89.501 145.253 
133.123 91.7589 146.01 95.2021 95.5835 145.679 100.216 105.219 145.961 
126.289 77.838 147.481 123.693 77.643 147.507 114.748 82.5155 147.191 
131.291 85.0999 147.037 133.121 86.6984 146.045 111.107 89.1403 144.848 
135.819 89.8266 145.533 129.85 92.4461 147.225 112.385 99.7829 147.332 
100.067 105.118 146.977 123.233 77.5542 147.855 127.789 79.0208 147.713 
129.741 82.4818 148.538 110.572 85.2652 147.58 103.793 87.4661 147.831 
111.6 87.2593 146.184 92.8613 97.0116 148.339 127.726 75.8243 150.473 
125.554 76.5691 148.793 128.442 78.9221 148.981 106.417 85.3298 149.334 
131.7 86.1814 148.602 132.593 88.1551 148.343 133.575 89.6668 147.373 
94.0253 101.371 149.025 100.572 104.953 149.19 101.557 105.054 148.753 
127.769 74.7796 151.321 128.755 74.5737 151.894 128.742 75.4036 151.474 
128.84 79.0244 149.892 91.8404 98.5074 149.593 95.8782 103.249 150.278 
101.509 104.889 149.347 130.011 73.4812 152.974 127.566 74.5754 151.486 
[...]
POINT_DATA 2031
COLOR_SCALARS scalars 3
0.121569 0.615686 0.352941 0.121569 0.615686 0.352941 0.121569 0.615686 0.352941 
0.121569 0.615686 0.352941 0.121569 0.615686 0.352941 
0.121569 0.615686 0.352941 0.121569 0.615686 0.352941 
0.121569 0.615686 0.352941 0.121569 0.615686 0.352941 
0.121569 0.615686 0.352941 0.121569 0.615686 0.352941 
0.121569 0.615686 0.352941 0.121569 0.615686 0.352941 
0.121569 0.615686 0.352941 0.121569 0.615686 0.352941 
0.121569 0.615686 0.352941 0.121569 0.615686 0.352941 
0.121569 0.615686 0.352941 0.121569 0.615686 0.352941 
0.121569 0.615686 0.352941 0.121569 0.615686 0.352941 
0.121569 0.615686 0.352941 0.121569 0.615686 0.352941 
0.121569 0.615686 0.352941 0.121569 0.615686 0.352941 
0.121569 0.615686 0.352941 0.121569 0.615686 0.352941 
0.121569 0.615686 0.352941 0.121569 0.615686 0.352941 
0.121569 0.615686 0.352941 0.121569 0.615686 0.352941 
0.121569 0.615686 0.352941 0.121569 0.615686 0.352941 
0.121569 0.615686 0.352941 0.121569 0.615686 0.352941 
0.121569 0.615686 0.352941 0.121569 0.615686 0.352941 
0.121569 0.615686 0.352941 0.121569 0.615686 0.352941 
0.121569 0.615686 0.352941 0.121569 0.615686 0.352941 
0.121569 0.615686 0.352941 0.121569 0.615686 0.352941 
0.121569 0.615686 0.352941 0.121569 0.615686 0.352941 
0.121569 0.615686 0.352941 0.121569 0.615686 0.352941 
0.121569 0.615686 0.352941 0.121569 0.615686 0.352941 
0.121569 0.615686 0.352941 0.121569 0.615686 0.352941 
0.121569 0.615686 0.352941 0.121569 0.615686 0.352941 
0.121569 0.615686 0.352941 0.121569 0.615686 0.352941 
0.121569 0.615686 0.352941 0.121569 0.615686 0.352941 
0.121569 0.615686 0.352941 0.121569 0.615686 0.352941 
0.121569 0.615686 0.352941 0.121569 0.615686 0.352941 
0.121569 0.615686 0.352941 0.121569 0.615686 0.352941 
0.121569 0.615686 0.352941 0.121569 0.615686 0.352941 
0.121569 0.615686 0.352941 0.121569 0.615686 0.352941 
0.121569 0.615686 0.352941 0.121569 0.615686 0.352941 
0.121569 0.615686 0.352941 0.121569 0.615686 0.352941 
0.121569 0.615686 0.352941 0.121569 0.615686 0.352941 
0.121569 0.615686 0.352941 0.121569 0.615686 0.352941 
0.121569 0.615686 0.352941 0.121569 0.615686 0.352941 
0.121569 0.615686 0.352941 0.121569 0.615686 0.352941 
0.121569 0.615686 0.352941 0.121569 0.615686 0.352941 
0.121569 0.615686 0.352941 0.121569 0.615686 0.352941 
0.121569 0.615686 0.352941 0.121569 0.615686 0.352941 
0.121569 0.615686 0.352941 0.121569 0.615686 0.352941 
0.121569 0.615686 0.352941 0.121569 0.615686 0.352941 
0.121569 0.615686 0.352941 0.121569 0.615686 0.352941 
0.121569 0.615686 0.352941 0.121569 0.615686 0.352941 
0.121569 0.615686 0.352941 0.121569 0.615686 0.352941 
0.121569 0.615686 0.352941 0.121569 0.615686 0.352941 
0.121569 0.615686 0.352941 0.121569 0.615686 0.352941 
0.121569 0.615686 0.352941 0.121569 0.615686 0.352941 
0.121569 0.615686 0.352941 0.121569 0.615686 0.352941 
0.121569 0.615686 0.352941 0.121569 0.615686 0.352941 
0.121569 0.615686 0.352941 0.121569 0.615686 0.352941 
0.121569 0.615686 0.352941 0.121569 0.615686 0.352941 
0.121569 0.615686 0.352941 0.121569 0.615686 0.352941 
0.121569 0.615686 0.352941 0.121569 0.615686 0.352941 
0.121569 0.615686 0.352941 0.121569 0.615686 0.352941 
0.121569 0.615686 0.352941 0.121569 0.615686 0.352941 
0.121569 0.615686 0.352941 0.121569 0.615686 0.352941 
0.121569 0.615686 0.352941 0.121569 0.615686 0.352941 
0.121569 0.615686 0.352941 0.121569 0.615686 0.352941 
0.121569 0.615686 0.352941 0.121569 0.615686 0.352941 
0.121569 0.615686 0.352941 0.121569 0.615686 0.352941 
0.121569 0.615686 0.352941 0.121569 0.615686 0.352941 
0.121569 0.615686 0.352941 0.121569 0.615686 0.352941 
0.121569 0.615686 0.352941 0.121569 0.615686 0.352941 
0.121569 0.615686 0.352941 0.121569 0.615686 0.352941 
0.121569 0.615686 0.352941 0.121569 0.615686 0.352941 
0.121569 0.615686 0.352941 0.121569 0.615686 0.352941 
0.121569 0.615686 0.352941 0.121569 0.615686 0.352941 
0.121569 0.615686 0.352941 0.121569 0.615686 0.352941 
0.121569 0.615686 0.352941 0.121569 0.615686 0.352941 
0.121569 0.615686 0.352941 0.121569 0.615686 0.352941 
0.121569 0.615686 0.352941 0.121569 0.615686 0.352941 
0.121569 0.615686 0.352941 0.121569 0.615686 0.352941 
0.121569 0.615686 0.352941 0.121569 0.615686 0.352941 
0.121569 0.615686 0.352941 0.121569 0.615686 0.352941 
0.121569 0.615686 0.352941 0.121569 0.615686 0.352941 
0.121569 0.615686 0.352941 0.121569 0.615686 0.352941 
0.121569 0.615686 0.352941 0.121569 0.615686 0.352941 
0.121569 0.615686 0.352941 0.121569 0.615686 0.352941 
0.121569 0.615686 0.352941 0.121569 0.615686 0.352941 
0.121569 0.615686 0.352941 0.121569 0.615686 0.352941 
0.121569 0.615686 0.352941 0.121569 0.615686 0.352941 
0.121569 0.615686 0.352941 0.121569 0.615686 0.352941 
0.121569 0.615686 0.352941 0.121569 0.615686 0.352941 
0.121569 0.615686 0.352941 0.121569 0.615686 0.352941 
0.121569 0.615686 0.352941 0.121569 0.615686 0.352941 
0.121569 0.615686 0.352941 0.121569 0.615686 0.352941 
0.121569 0.615686 0.352941 0.121569 0.615686 0.352941 
0.121569 0.615686 0.352941 0.121569 0.615686 0.352941 
0.121569 0.615686 0.352941 0.121569 0.615686 0.352941 
0.121569 0.615686 0.352941 0.121569 0.615686 0.352941 
0.121569 0.615686 0.352941 0.121569 0.615686 0.352941 
0.121569 0.615686 0.352941 0.121569 0.615686 0.352941 
0.121569 0.615686 0.352941 0.121569 0.615686 0.352941 
0.121569 0.615686 0.352941 0.121569 0.615686 0.352941 
0.121569 0.615686 0.352941 0.121569 0.615686 0.352941 
0.121569 0.615686 0.352941 0.121569 0.615686 0.352941 
0.121569 0.615686 0.352941 0.121569 0.615686 0.352941 
0.121569 0.615686 0.352941 0.121569 0.615686 0.352941 
0.121569 0.615686 0.352941 0.121569 0.615686 0.352941 
0.121569 0.615686 0.352941 0.121569 0.615686 0.352941 
0.121569 0.615686 0.352941 0.121569 0.615686 0.352941 
0.121569 0.615686 0.352941 0.121569 0.615686 0.352941 
0.121569 0.615686 0.352941 0.121569 0.615686 0.352941 
0.121569 0.615686 0.352941 0.121569 0.615686 0.352941 
0.121569 0.615686 0.352941 0.121569 0.615686 0.352941 
0.121569 0.615686 0.352941 0.121569 0.615686 0.352941 
0.121569 0.615686 0.352941 0.121569 0.615686 0.352941 
0.121569 0.615686 0.352941 0.121569 0.615686 0.352941 
0.121569 0.615686 0.352941 0.121569 0.615686 0.352941 
0.121569 0.615686 0.352941 0.121569 0.615686 0.352941 
0.121569 0.615686 0.352941 0.121569 0.615686 0.352941 
0.121569 0.615686 0.352941 0.121569 0.615686 0.352941 
0.121569 0.615686 0.352941 0.121569 0.615686 0.352941 
0.121569 0.615686 0.352941 0.121569 0.615686 0.352941 
0.121569 0.615686 0.352941 0.121569 0.615686 0.352941 
0.121569 0.615686 0.352941 0.121569 0.615686 0.352941 
0.121569 0.615686 0.352941 0.121569 0.615686 0.352941 
0.121569 0.615686 0.352941 0.121569 0.615686 0.352941 
0.121569 0.615686 0.352941 0.121569 0.615686 0.352941 
0.121569 0.615686 0.352941 0.121569 0.615686 0.352941 
0.121569 0.615686 0.352941 0.121569 0.615686 0.352941 
0.121569 0.615686 0.352941 0.121569 0.615686 0.352941 
0.121569 0.615686 0.352941 0.121569 0.615686 0.352941 
0.121569 0.615686 0.352941 0.121569 0.615686 0.352941 
0.121569 0.615686 0.352941 0.121569 0.615686 0.352941 
0.121569 0.615686 0.352941 0.121569 0.615686 0.352941 
0.121569 0.615686 0.352941 0.121569 0.615686 0.352941 
0.121569 0.615686 0.352941 0.121569 0.615686 0.352941 
0.121569 0.615686 0.352941 0.121569 0.615686 0.352941 
0.121569 0.615686 0.352941 0.121569 0.615686 0.352941 
0.121569 0.615686 0.352941 0.121569 0.615686 0.352941 
0.121569 0.615686 0.352941 0.121569 0.615686 0.352941 
0.121569 0.615686 0.352941 0.121569 0.615686 0.352941 
0.121569 0.615686 0.352941 0.121569 0.615686 0.352941 
0.121569 0.615686 0.352941 0.121569 0.615686 0.352941 
0.121569 0.615686 0.352941 0.121569 0.615686 0.352941 
0.121569 0.615686 0.352941 0.121569 0.615686 0.352941 
0.121569 0.615686 0.352941 0.121569 0.615686 0.352941 
0.121569 0.615686 0.352941 0.121569 0.615686 0.352941 
0.121569 0.615686 0.352941 0.121569 0.615686 0.352941 
0.121569 0.615686 0.352941 0.121569 0.615686 0.352941 
0.121569 0.615686 0.352941 0.121569 0.615686 0.352941 
0.121569 0.615686 0.352941 0.121569 0.615686 0.352941 
0.121569 0.615686 0.352941 0.121569 0.615686 0.352941 
0.121569 0.615686 0.352941 0.121569 0.615686 0.352941 
0.121569 0.615686 0.352941 0.121569 0.615686 0.352941 
0.121569 0.615686 0.352941 0.121569 0.615686 0.352941 
0.121569 0.615686 0.352941 0.121569 0.615686 0.352941 
0.121569 0.615686 0.352941 0.121569 0.615686 0.352941 
0.121569 0.615686 0.352941 0.121569 0.615686 0.352941 
0.121569 0.615686 0.352941 0.121569 0.615686 0.352941 
0.121569 0.615686 0.352941 0.121569 0.615686 0.352941 
0.121569 0.615686 0.352941 0.121569 0.615686 0.352941 
0.121569 0.615686 0.352941 0.121569 0.615686 0.352941 
0.121569 0.615686 0.352941 0.121569 0.615686 0.352941 
0.121569 0.615686 0.352941 0.121569 0.615686 0.352941 
0.121569 0.615686 0.352941 0.121569 0.615686 0.352941 
0.121569 0.615686 0.352941 0.121569 0.615686 0.352941 
0.121569 0.615686 0.352941 0.121569 0.615686 0.352941 
0.121569 0.615686 0.352941 0.121569 0.615686 0.352941 
0.121569 0.615686 0.352941 0.121569 0.615686 0.352941 
0.121569 0.615686 0.352941 0.121569 0.615686 0.352941 
0.121569 0.615686 0.352941 0.121569 0.615686 0.352941 
0.121569 0.615686 0.352941 0.121569 0.615686 0.352941 
0.121569 0.615686 0.352941 0.121569 0.615686 0.352941 
0.121569 0.615686 0.352941 0.121569 0.615686 0.352941 
0.121569 0.615686 0.352941 0.121569 0.615686 0.352941 
0.121569 0.615686 0.352941 0.121569 0.615686 0.352941 
0.121569 0.615686 0.352941 0.121569 0.615686 0.352941 
0.121569 0.615686 0.352941 0.121569 0.615686 0.352941 
0.121569 0.615686 0.352941 0.121569 0.615686 0.352941 
0.121569 0.615686 0.352941 0.121569 0.615686 0.352941 
0.121569 0.615686 0.352941 0.121569 0.615686 0.352941 
0.121569 0.615686 0.352941 0.121569 0.615686 0.352941 
0.121569 0.615686 0.352941 0.121569 0.615686 0.352941 
0.121569 0.615686 0.352941 0.121569 0.615686 0.352941 
0.121569 0.615686 0.352941 0.121569 0.615686 0.352941 
0.121569 0.615686 0.352941 0.121569 0.615686 0.352941 
0.121569 0.615686 0.352941 0.121569 0.615686 0.352941 
0.121569 0.615686 0.352941 0.121569 0.615686 0.352941 
0.121569 0.615686 0.352941 0.121569 0.615686 0.352941 
0.121569 0.615686 0.352941 0.121569 0.615686 0.352941 
0.121569 0.615686 0.352941 0.121569 0.615686 0.352941 
0.121569 0.615686 0.352941 0.121569 0.615686 0.352941 
0.121569 0.615686 0.352941 0.121569 0.615686 0.352941 
0.121569 0.615686 0.352941 0.121569 0.615686 0.352941 
0.121569 0.615686 0.352941 0.121569 0.615686 0.352941 
0.121569 0.615686 0.352941 0.121569 0.615686 0.352941 
0.121569 0.615686 0.352941 0.121569 0.615686 0.352941 
0.121569 0.615686 0.352941 0.121569 0.615686 0.352941 
0.121569 0.615686 0.352941 0.121569 0.615686 0.352941 
0.121569 0.615686 0.352941 0.121569 0.615686 0.352941 
0.121569 0.615686 0.352941 0.121569 0.615686 0.352941 
0.121569 0.615686 0.352941 0.121569 0.615686 0.352941 
0.121569 0.615686 0.352941 0.121569 0.615686 0.352941 
0.121569 0.615686 0.352941 0.121569 0.615686 0.352941 
0.121569 0.615686 0.352941 0.121569 0.615686 0.352941 
0.121569 0.615686 0.352941 0.121569 0.615686 0.352941 
0.121569 0.615686 0.352941 0.121569 0.615686 0.352941 
0.121569 0.615686 0.352941 0.121569 0.615686 0.352941 
0.121569 0.615686 0.352941 0.121569 0.615686 0.352941 
0.121569 0.615686 0.352941 0.121569 0.615686 0.352941 
0.121569 0.615686 0.352941 0.121569 0.615686 0.352941 
0.121569 0.615686 0.352941 0.121569 0.615686 0.352941 
0.121569 0.615686 0.352941 0.121569 0.615686 0.352941 
0.121569 0.615686 0.352941 0.121569 0.615686 0.352941 
0.121569 0.615686 0.352941 0.121569 0.615686 0.352941 
0.121569 0.615686 0.352941 0.121569 0.615686 0.352941 
0.121569 0.615686 0.352941 0.121569 0.615686 0.352941 
0.121569 0.615686 0.352941 0.121569 0.615686 0.352941 
0.121569 0.615686 0.352941 0.121569 0.615686 0.352941 
0.121569 0.615686 0.352941 0.121569 0.615686 0.352941 
0.121569 0.615686 0.352941 0.121569 0.615686 0.352941 
0.121569 0.615686 0.352941 0.121569 0.615686 0.352941 
0.121569 0.615686 0.352941 0.121569 0.615686 0.352941 
0.121569 0.615686 0.352941 0.121569 0.615686 0.352941 
0.121569 0.615686 0.352941 0.121569 0.615686 0.352941 
0.121569 0.615686 0.352941 0.121569 0.615686 0.352941 
0.121569 0.615686 0.352941 0.121569 0.615686 0.352941 
0.121569 0.615686 0.352941 0.121569 0.615686 0.352941 
0.121569 0.615686 0.352941 0.121569 0.615686 0.352941 
0.121569 0.615686 0.352941 0.121569 0.615686 0.352941 
0.121569 0.615686 0.352941 0.121569 0.615686 0.352941 
0.121569 0.615686 0.352941 0.121569 0.615686 0.352941 
0.121569 0.615686 0.352941 0.121569 0.615686 0.352941 
0.121569 0.615686 0.352941 0.121569 0.615686 0.352941 
0.121569 0.615686 0.352941 0.121569 0.615686 0.352941 
0.121569 0.615686 0.352941 0.121569 0.615686 0.352941 
0.121569 0.615686 0.352941 0.121569 0.615686 0.352941 
0.121569 0.615686 0.352941 0.121569 0.615686 0.352941 
0.121569 0.615686 0.352941 0.121569 0.615686 0.352941 
0.121569 0.615686 0.352941 0.121569 0.615686 0.352941 
0.121569 0.615686 0.352941 0.121569 0.615686 0.352941 
0.121569 0.615686 0.352941 0.121569 0.615686 0.352941 
0.121569 0.615686 0.352941 0.121569 0.615686 0.352941 
0.121569 0.615686 0.352941 0.121569 0.615686 0.352941 
0.121569 0.615686 0.352941 0.121569 0.615686 0.352941 
0.121569 0.615686 0.352941 0.121569 0.615686 0.352941 
0.121569 0.615686 0.352941 0.121569 0.615686 0.352941 
0.121569 0.615686 0.352941 0.121569 0.615686 0.352941 
0.121569 0.615686 0.352941 0.121569 0.615686 0.352941 
0.121569 0.615686 0.352941 0.121569 0.615686 0.352941 
0.121569 0.615686 0.352941 0.121569 0.615686 0.352941 
0.121569 0.615686 0.352941 0.121569 0.615686 0.352941 
0.121569 0.615686 0.352941 0.121569 0.615686 0.352941 
0.121569 0.615686 0.352941 0.121569 0.615686 0.352941 
0.121569 0.615686 0.352941 0.121569 0.615686 0.352941 
0.121569 0.615686 0.352941 0.121569 0.615686 0.352941 
0.121569 0.615686 0.352941 0.121569 0.615686 0.352941 
0.121569 0.615686 0.352941 0.121569 0.615686 0.352941 
0.121569 0.615686 0.352941 0.121569 0.615686 0.352941 
0.121569 0.615686 0.352941 0.121569 0.615686 0.352941 
0.121569 0.615686 0.352941 0.121569 0.615686 0.352941 
0.121569 0.615686 0.352941 0.121569 0.615686 0.352941 
0.121569 0.615686 0.352941 0.121569 0.615686 0.352941 
0.121569 0.615686 0.352941 0.121569 0.615686 0.352941 
0.121569 0.615686 0.352941 0.121569 0.615686 0.352941 
0.121569 0.615686 0.352941 0.121569 0.615686 0.352941 
0.121569 0.615686 0.352941 0.121569 0.615686 0.352941 
0.121569 0.615686 0.352941 0.121569 0.615686 0.352941 
0.121569 0.615686 0.352941 0.121569 0.615686 0.352941 
0.121569 0.615686 0.352941 0.121569 0.615686 0.352941 
0.121569 0.615686 0.352941 0.121569 0.615686 0.352941 
0.121569 0.615686 0.352941 0.121569 0.615686 0.352941 
0.121569 0.615686 0.352941 0.121569 0.615686 0.352941 
0.121569 0.615686 0.352941 0.121569 0.615686 0.352941 
0.121569 0.615686 0.352941 0.121569 0.615686 0.352941 
0.121569 0.615686 0.352941 0.121569 0.615686 0.352941 
0.121569 0.615686 0.352941 0.121569 0.615686 0.352941 
0.121569 0.615686 0.352941 0.121569 0.615686 0.352941 
0.121569 0.615686 0.352941 0.121569 0.615686 0.352941 
0.121569 0.615686 0.352941 0.121569 0.615686 0.352941 
0.121569 0.615686 0.352941 0.121569 0.615686 0.352941 
0.121569 0.615686 0.352941 0.121569 0.615686 0.352941 
0.121569 0.615686 0.352941 0.121569 0.615686 0.352941 
0.121569 0.615686 0.352941 0.121569 0.615686 0.352941 
0.121569 0.615686 0.352941 0.121569 0.615686 0.352941 
0.121569 0.615686 0.352941 0.121569 0.615686 0.352941 
0.121569 0.615686 0.352941 0.121569 0.615686 0.352941 
0.121569 0.615686 0.352941 0.121569 0.615686 0.352941 
0.121569 0.615686 0.352941 0.121569 0.615686 0.352941 
0.121569 0.615686 0.352941 0.121569 0.615686 0.352941 
0.121569 0.615686 0.352941 0.121569 0.615686 0.352941 
0.121569 0.615686 0.352941 0.121569 0.615686 0.352941 
0.121569 0.615686 0.352941 0.121569 0.615686 0.352941 
0.121569 0.615686 0.352941 0.121569 0.615686 0.352941 
0.121569 0.615686 0.352941 0.121569 0.615686 0.352941 
0.121569 0.615686 0.352941 0.121569 0.615686 0.352941 
0.121569 0.615686 0.352941 0.121569 0.615686 0.352941 
0.121569 0.615686 0.352941 0.121569 0.615686 0.352941 
0.121569 0.615686 0.352941 0.121569 0.615686 0.352941 
0.121569 0.615686 0.352941 0.121569 0.615686 0.352941 
0.121569 0.615686 0.352941 0.121569 0.615686 0.352941 
0.121569 0.615686 0.352941 0.121569 0.615686 0.352941 
0.121569 0.615686 0.352941 0.121569 0.615686 0.352941 
0.121569 0.615686 0.352941 0.121569 0.615686 0.352941 
0.121569 0.615686 0.352941 0.121569 0.615686 0.352941 
0.121569 0.615686 0.352941 0.121569 0.615686 0.352941 
0.121569 0.615686 0.352941 0.121569 0.615686 0.352941 
0.121569 0.615686 0.352941 0.121569 0.615686 0.352941 
0.121569 0.615686 0.352941 0.121569 0.615686 0.352941 
0.121569 0.615686 0.352941 0.121569 0.615686 0.352941 
0.121569 0.615686 0.352941 0.121569 0.615686 0.352941 
0.121569 0.615686 0.352941 0.121569 0.615686 0.352941 
0.121569 0.615686 0.352941 0.121569 0.615686 0.352941 
0.121569 0.615686 0.352941 0.121569 0.615686 0.352941 
0.121569 0.615686 0.352941 0.121569 0.615686 0.352941 
0.121569 0.615686 0.352941 0.121569 0.615686 0.352941 
0.121569 0.615686 0.352941 0.121569 0.615686 0.352941 
0.121569 0.615686 0.352941 0.121569 0.615686 0.352941 
0.121569 0.615686 0.352941 0.121569 0.615686 0.352941 
0.121569 0.615686 0.352941 0.121569 0.615686 0.352941 
0.121569 0.615686 0.352941 0.121569 0.615686 0.352941 
0.121569 0.615686 0.352941 0.121569 0.615686 0.352941 
0.121569 0.615686 0.352941 0.121569 0.615686 0.352941 
0.121569 0.615686 0.352941 0.121569 0.615686 0.352941 
0.121569 0.615686 0.352941 0.121569 0.615686 0.352941 
0.121569 0.615686 0.352941 0.121569 0.615686 0.352941 
0.121569 0.615686 0.352941 0.121569 0.615686 0.352941 
0.121569 0.615686 0.352941 0.121569 0.615686 0.352941 
0.121569 0.615686 0.352941 0.121569 0.615686 0.352941 
0.121569 0.615686 0.352941 0.121569 0.615686 0.352941 
0.121569 0.615686 0.352941 0.121569 0.615686 0.352941 
0.121569 0.615686 0.352941 0.121569 0.615686 0.352941 
0.121569 0.615686 0.352941 0.121569 0.615686 0.352941 
0.121569 0.615686 0.352941 0.121569 0.615686 0.352941 
0.121569 0.615686 0.352941 0.121569 0.615686 0.352941 
0.121569 0.615686 0.352941 0.121569 0.615686 0.352941 
0.121569 0.615686 0.352941 0.121569 0.615686 0.352941 
0.121569 0.615686 0.352941 0.121569 0.615686 0.352941 
0.121569 0.615686 0.352941 0.121569 0.615686 0.352941 
0.121569 0.615686 0.352941 0.121569 0.615686 0.352941 
0.121569 0.615686 0.352941 0.121569 0.615686 0.352941 
0.121569 0.615686 0.352941 0.121569 0.615686 0.352941 
0.121569 0.615686 0.352941 0.121569 0.615686 0.352941 
0.121569 0.615686 0.352941 0.121569 0.615686 0.352941 
0.121569 0.615686 0.352941 0.121569 0.615686 0.352941 
0.121569 0.615686 0.352941 0.121569 0.615686 0.352941 
0.121569 0.615686 0.352941 0.121569 0.615686 0.352941 
0.121569 0.615686 0.352941 0.121569 0.615686 0.352941 
0.121569 0.615686 0.352941 0.121569 0.615686 0.352941 
0.121569 0.615686 0.352941 0.121569 0.615686 0.352941 
0.121569 0.615686 0.352941 0.121569 0.615686 0.352941 
0.121569 0.615686 0.352941 0.121569 0.615686 0.352941 
0.121569 0.615686 0.352941 0.121569 0.615686 0.352941 
0.121569 0.615686 0.352941 0.121569 0.615686 0.352941 
0.121569 0.615686 0.352941 0.121569 0.615686 0.352941 
0.121569 0.615686 0.352941 0.121569 0.615686 0.352941 
0.121569 0.615686 0.352941 0.121569 0.615686 0.352941 
0.121569 0.615686 0.352941 0.121569 0.615686 0.352941 
0.121569 0.615686 0.352941 0.121569 0.615686 0.352941 
0.121569 0.615686 0.352941 0.121569 0.615686 0.352941 
0.121569 0.615686 0.352941 0.121569 0.615686 0.352941 
0.121569 0.615686 0.352941 0.121569 0.615686 0.352941 
0.121569 0.615686 0.352941 0.121569 0.615686 0.352941 
0.121569 0.615686 0.352941 0.121569 0.615686 0.352941 
0.121569 0.615686 0.352941 0.121569 0.615686 0.352941 
0.121569 0.615686 0.352941 0.121569 0.615686 0.352941 
0.121569 0.615686 0.352941 0.121569 0.615686 0.352941 