# vtk DataFile Version 4.2
vtk output
ASCII
DATASET POLYDATA
POINTS 1678 float
174.503 66.4227 174.452 174.47 66.7799 174.295 175.126 66.7138 174.245 
174.655 66.9955 174.204 174.638 67.532 174.265 175.49 67.2045 174.233 
175.326 67.4802 174.24 175.691 67.4294 174.327 174.727 67.784 174.376 
174.995 67.9713 174.432 174.31 66.0241 174.757 176.357 66.128 174.815 
174.457 68.2708 174.93 176.607 67.8718 175.036 175.147 68.6284 175.326 
175.95 68.4237 175.115 176.297 68.2707 175.127 176.206 68.4959 175.37 
176.412 64.624 175.667 171.709 66.2944 175.851 176.912 66.3952 174.959 
171.965 66.6859 175.643 171.894 67.1359 175.722 177.368 66.9074 175.197 
172.368 67.5475 175.584 177.135 67.5189 175.187 177.562 67.925 175.768 
172.59 68.6566 176.306 173.217 68.9664 176.453 177.244 68.2036 175.825 
175.769 68.8275 176.012 171.721 65.7205 176.114 180.222 65.0625 176.563 
170.536 65.9801 176.638 170.772 66.7852 176.366 179.988 66.7074 176.796 
171.841 68.4121 176.467 181.064 61.9741 177.946 181.848 62.6544 177.706 
181.791 64.1471 177.229 170.41 65.5421 176.949 169.769 66.6589 177.026 
182.519 66.7813 177.359 179.517 67.5375 177.436 180.613 67.4171 177.45 
180.433 67.8299 178.033 181.569 67.5638 177.562 170.061 68.1487 177.544 
177.5 68.2966 176.553 178.327 67.9478 177.091 173.781 69.5338 177.732 
184.07 70.8729 178.607 183.938 70.6081 178.585 184.305 70.9337 178.624 
184.094 70.9971 178.692 179.005 62.2675 177.662 174.958 63.0379 177.548 
184.123 65.4951 177.802 167.157 66.5167 178.85 167.273 66.7539 178.795 
167.404 67.0665 178.858 169.095 67.5224 177.837 178.881 67.7868 178.281 
168.331 67.7717 178.644 169.526 68.7077 178.669 181.722 68.9113 179.01 
183.404 69.9464 178.6 173.242 69.6187 178.261 173.666 69.6985 178.085 
173.658 69.6989 178.28 173.863 69.6698 178.073 174.224 69.4787 178.196 
175.136 69.128 178.181 173.765 69.7307 178.162 184.058 71.2301 178.995 
186.102 71.2455 178.644 185.559 72.1179 178.886 185.606 72.8632 179.196 
185.899 73.0047 179.276 186.6 73.56 179.441 186.592 73.5997 179.534 
170.206 63.7725 178.638 177.922 67.4925 179.633 179.529 67.7902 179.095 
180.16 68.0392 179.774 182.455 70.0939 179.831 173.742 69.5423 178.696 
173.855 69.6682 178.268 184.684 72.5474 179.86 187.157 72.2187 179.203 
187.984 71.6446 179.368 185.508 72.9378 179.382 186.516 73.1289 179.351 
187.926 72.3886 179.727 186.199 73.3687 179.485 186.098 73.4872 179.782 
187.079 73.1873 179.811 187.741 72.7319 179.906 186.393 73.5869 179.609 
186.579 73.6371 179.717 182.946 59.4909 180.097 165.317 65.4059 180.549 
165.141 64.972 180.916 177.946 66.8609 180.71 177.647 66.7984 180.882 
178.102 66.7075 181.017 165.189 65.8204 180.675 178.266 67.0292 180.455 
178.641 67.018 180.784 166.035 66.6546 180.043 170.302 69.5099 179.981 
190.259 70.0923 180.266 184.226 72.3094 180.12 188.998 71.9384 180.375 
186.153 73.5334 180.092 186.575 73.6235 179.941 187.946 58.0941 181.579 
188.641 58.3803 181.542 189.828 62.1771 180.618 165.674 64.1826 180.931 
166.303 63.4024 181.285 178.124 66.6229 181.361 178.327 66.7486 181.071 
190.714 68.7645 180.283 174.096 68.7881 180.946 192.772 68.6087 181.335 
192.966 68.9179 181.606 192.707 69.4486 181.785 190.629 70.7588 181.089 
191.377 70.5129 181.609 192.292 69.8784 181.764 189.912 71.6076 181.52 
189.569 71.7352 180.925 189.545 56.4944 182.786 190.603 57.2717 182.452 
189.491 58.8282 181.523 191.241 59.5616 181.714 177.149 66.5524 182.428 
178.57 66.7362 182.117 176.045 67.0885 182.173 164.468 66.4329 181.865 
194.261 66.2768 181.814 195.275 67.5855 182.732 195.062 68.0142 182.592 
195.055 68.1852 182.652 194.072 68.8357 182.517 192.222 70.2474 182.955 
193.654 69.2267 182.732 190.05 71.6498 182.289 183.208 71.8027 182.011 
188.192 72.7962 181.875 187.338 73.1669 181.736 188.908 55.946 183.253 
194.941 59.2315 182.902 195.375 60.34 182.803 195.739 61.19 182.768 
196.202 62.9537 182.733 197.418 64.0705 183.164 197.682 65.5841 183.711 
195.165 68.0622 182.747 195.239 68.0868 183.053 195.739 67.6331 183.517 
189.851 71.7536 182.705 185.582 73.0906 182.894 193.246 54.0531 184.713 
187.798 55.3015 184.098 161.911 63.6322 184.982 177.509 66.4008 183.292 
200.398 64.3836 184.712 162.388 65.7045 184.139 199.432 65.0049 184.46 
200.155 64.7795 184.631 200.138 64.938 184.699 196.929 67.0284 184.279 
171.81 68.9784 183.777 194.553 68.7738 183.718 196.022 67.7046 184.415 
168.36 69.354 184.225 193.746 69.2811 184.217 192.449 69.97 184.169 
185.912 72.8872 183.52 184.373 72.6557 183.629 203.508 61.1061 185.133 
161.894 62.9284 185.843 203.631 61.6101 185.235 204.411 62.3558 185.782 
204.494 61.9834 185.648 161.452 64.2055 185.241 201.805 62.8814 184.965 
176.383 66.5975 184.102 176.684 66.5002 184.236 200.962 63.8246 184.873 
204.469 62.8191 186.307 200.264 64.8299 184.771 200.387 64.8492 185.056 
201.042 64.3979 185.348 201.831 64.065 185.717 196.073 67.7309 185.022 
193.196 69.2769 185.316 169.829 69.3344 184.495 183.654 72.0835 184.588 
184.154 72.4583 184.099 184.854 72.6164 184.2 184.504 72.6106 184.045 
194.353 52.627 186.054 199.201 52.1107 186.456 200.504 53.1417 186.059 
200.777 53.7847 185.857 206.711 59.516 186.257 206.527 60.4806 186.381 
162.931 62.1597 185.982 206.783 60.8808 186.74 205.943 61.7516 186.672 
206.534 61.4628 187.054 160.783 64.534 186.382 176.866 66.5202 184.505 
177.294 66.5369 184.505 202.346 63.9013 186.027 201.961 64.2252 186.143 
203.991 63.1921 186.664 175.77 66.9855 185.741 178.162 66.955 185.193 
200.311 65.1883 185.965 195.886 67.7993 185.463 162.981 68.2059 186.173 
183.461 71.9244 185.478 202.746 49.8311 188.051 200.852 50.8397 187.395 
203.088 50.3444 187.686 192.559 52.1917 187.117 204.079 54.0438 186.386 
186.525 54.105 186.864 207.916 55.4726 186.844 175.394 57.8756 186.879 
210.237 57.7441 187.26 209.721 58.9264 187.343 210.38 59.1056 187.718 
211.728 58.7726 188.294 168.604 60.0968 186.717 211.397 59.1978 188.382 
161.53 62.462 187.169 160.608 63.5792 187.084 160.371 63.7078 187.51 
205.443 62.5573 188.173 200.413 65.1695 187.125 201.687 64.4869 187.1 
201.7 64.4551 186.465 202.486 64.0816 187.461 177.064 67.0292 186.337 
199.384 65.7107 186.878 161.211 66.454 186.396 195.314 67.9152 186.281 
195.977 50.5922 188.498 213.779 56.8881 188.499 213.445 56.6502 188.293 
213.069 56.5797 188.149 211.911 58.1126 188.103 211.815 59.0689 188.631 
210.194 59.919 188.236 210.897 59.7666 188.763 208.598 60.7088 188.157 
160.488 63.0895 188.168 202.395 64.0936 188.133 160.185 64.7439 187.63 
176.541 67.0458 186.481 195.134 67.2398 188.642 181.849 70.648 188.136 
203.076 48.7176 189.082 215.764 54.0051 188.905 220.179 54.4289 189.806 
220.025 54.4306 189.778 220.31 54.3513 189.891 215.122 55.5893 188.844 
220.163 54.533 189.9 220.819 54.9136 190.351 220.819 55.042 190.422 
220.989 54.9376 190.519 214.831 56.4713 188.947 216.473 56.1587 189.543 
215.604 56.7953 189.503 216.292 56.7824 189.869 167.495 60.0386 188.981 
168.208 59.9079 187.931 168.26 59.8128 188.585 211.931 59.1885 188.992 
209.592 60.4182 188.663 161.069 62.4752 188.27 159.844 64.7614 189.133 
161.607 68.4894 188.784 183.682 71.466 187.455 213.641 49.398 189.594 
192.777 50.8615 190 220.997 52.3616 190.108 220.215 53.8457 189.88 
221.932 52.9039 190.374 222.476 53.5253 190.768 219.548 54.3657 189.744 
220.75 54.5297 190.235 219.98 54.9541 190.135 221.539 54.7013 190.93 
218.542 56.0962 190.491 219.631 55.8254 190.93 220.188 55.4079 190.638 
220.741 55.3618 190.938 216.4 57.0371 190.231 216.077 57.3429 190.443 
170.947 58.6485 189.791 209.613 60.5729 190.113 161.656 62.1226 189.577 
159.945 63.9234 189.384 184.161 70.9671 189.737 219.675 51.5155 189.932 
224.736 52.0768 191.35 225.315 52.762 191.98 220.882 55.4298 191.328 
174.574 56.8445 190.545 219.113 56.3061 191.667 219.535 56.0551 191.397 
170.203 59.0011 190.697 166.575 60.3975 189.781 163.559 61.5189 190.665 
204.45 62.6818 191.061 200.801 64.1646 191.256 159.956 66.3621 190.751 
215.612 45.3156 191.569 234.057 49.4853 193.219 230.033 49.9417 192.416 
232.143 50.4182 193.509 225.098 53.336 192.519 220.798 55.5587 191.723 
174.559 56.4292 192.216 218.286 56.7527 192.618 169.64 59.5427 191.718 
167.948 60.5005 191.577 162.181 62.0756 190.897 168.407 61.043 192.804 
176.628 68.7525 190.71 160.734 67.944 191.804 161.753 69.2845 191.611 
169.833 70.3581 191.38 169.843 70.4856 192.082 167.676 71.2858 191.855 
180.676 70.8509 192.471 165.692 71.571 192.557 218.734 42.9587 193.144 
221.394 42.69 193.237 249.335 42.541 195 249.321 42.476 195.013 
249.098 42.5454 195.001 249.376 42.4859 195.067 249.32 42.5893 195.094 
241.817 44.5732 193.442 245.056 44.6183 194.049 245.589 44.1074 194.052 
236.193 45.3658 193.095 241.492 45.621 193.665 242.221 45.2946 193.685 
244.287 45.0851 194.108 245.642 45.0408 194.498 240.913 46.1949 193.844 
244.637 45.4073 194.462 234.468 47.5699 193.009 237.204 47.0097 193.436 
237.97 47.1631 193.694 238.991 46.9237 193.805 229.692 48.3159 192.176 
237.721 47.7312 194.006 239.441 47.189 194.156 234.361 49.0999 193.403 
235.554 48.7367 193.97 234.046 49.6793 193.762 225.045 53.5213 192.909 
225.326 53.538 193.581 171.549 58.2018 192.642 185 60 193 
185 60 193 185 60 193 185 60 193 
185 60 193 161.532 62.9504 191.733 168.215 61.5543 193.27 
160.56 64.4597 192.169 168.353 62.507 194.357 160.223 66.1033 192.459 
160.544 67.3069 193.09 162.678 70.0867 192.854 169.808 70.6017 192.772 
183.834 70.8721 193.397 164.544 71.236 193.278 219.491 41.7875 194.213 
221.094 41.3652 194.456 224.838 41.4797 194.065 226.549 41.7986 193.874 
228.095 42.9815 193.415 235.213 42.5331 193.641 246.616 42.9582 194.208 
249.258 42.2678 195.151 249.374 42.476 195.285 244.324 43.3318 193.743 
249.156 42.8168 195.311 247.84 43.7869 195.057 245.385 45.4465 194.897 
242.993 46.1858 194.654 244.027 45.9753 195.016 237.814 48.0097 194.35 
237.425 48.3123 194.553 230.081 51.4393 193.87 184 57 194 
184 57 194 184 57 194 184 57 194 
171.363 58.4332 193.523 184 57 194 185 60 193 
162.561 63.2552 193.269 169.201 62.104 194.651 162.015 69.3447 193.844 
[...]
POINT_DATA 1678
COLOR_SCALARS scalars 3
0.121569 0.615686 0.352941 0.121569 0.615686 0.352941 0.121569 0.615686 0.352941 
0.121569 0.615686 0.352941 0.121569 0.615686 0.352941 
0.121569 0.615686 0.352941 0.121569 0.615686 0.352941 
0.121569 0.615686 0.352941 0.121569 0.615686 0.352941 
0.121569 0.615686 0.352941 0.121569 0.615686 0.352941 
0.121569 0.615686 0.352941 0.121569 0.615686 0.352941 
0.121569 0.615686 0.352941 0.121569 0.615686 0.352941 
0.121569 0.615686 0.352941 0.121569 0.615686 0.352941 
0.121569 0.615686 0.352941 0.121569 0.615686 0.352941 
0.121569 0.615686 0.352941 0.121569 0.615686 0.352941 
0.121569 0.615686 0.352941 0.121569 0.615686 0.352941 
0.121569 0.615686 0.352941 0.121569 0.615686 0.352941 
0.121569 0.615686 0.352941 0.121569 0.615686 0.352941 
0.121569 0.615686 0.352941 0.121569 0.615686 0.352941 
0.121569 0.615686 0.352941 0.121569 0.615686 0.352941 
0.121569 0.615686 0.352941 0.121569 0.615686 0.352941 
0.121569 0.615686 0.352941 0.121569 0.615686 0.352941 
0.121569 0.615686 0.352941 0.121569 0.615686 0.352941 
0.121569 0.615686 0.352941 0.121569 0.615686 0.352941 
0.121569 0.615686 0.352941 0.121569 0.615686 0.352941 
0.121569 0.615686 0.352941 0.121569 0.615686 0.352941 
0.121569 0.615686 0.352941 0.121569 0.615686 0.352941 
0.121569 0.615686 0.352941 0.121569 0.615686 0.352941 
0.121569 0.615686 0.352941 0.121569 0.615686 0.352941 
0.121569 0.615686 0.352941 0.121569 0.615686 0.352941 
0.121569 0.615686 0.352941 0.121569 0.615686 0.352941 
0.121569 0.615686 0.352941 0.121569 0.615686 0.352941 
0.121569 0.615686 0.352941 0.121569 0.615686 0.352941 
0.121569 0.615686 0.352941 0.121569 0.615686 0.352941 
0.121569 0.615686 0.352941 0.121569 0.615686 0.352941 
0.121569 0.615686 0.352941 0.121569 0.615686 0.352941 
0.121569 0.615686 0.352941 0.121569 0.615686 0.352941 
0.121569 0.615686 0.352941 0.121569 0.615686 0.352941 
0.121569 0.615686 0.352941 0.121569 0.615686 0.352941 
0.121569 0.615686 0.352941 0.121569 0.615686 0.352941 
0.121569 0.615686 0.352941 0.121569 0.615686 0.352941 
0.121569 0.615686 0.352941 0.121569 0.615686 0.352941 
0.121569 0.615686 0.352941 0.121569 0.615686 0.352941 
0.121569 0.615686 0.352941 0.121569 0.615686 0.352941 
0.121569 0.615686 0.352941 0.121569 0.615686 0.352941 
0.121569 0.615686 0.352941 0.121569 0.615686 0.352941 
0.121569 0.615686 0.352941 0.121569 0.615686 0.352941 
0.121569 0.615686 0.352941 0.121569 0.615686 0.352941 
0.121569 0.615686 0.352941 0.121569 0.615686 0.352941 
0.121569 0.615686 0.352941 0.121569 0.615686 0.352941 
0.121569 0.615686 0.352941 0.121569 0.615686 0.352941 
0.121569 0.615686 0.352941 0.121569 0.615686 0.352941 
0.121569 0.615686 0.352941 0.121569 0.615686 0.352941 
0.121569 0.615686 0.352941 0.121569 0.615686 0.352941 
0.121569 0.615686 0.352941 0.121569 0.615686 0.352941 
0.121569 0.615686 0.352941 0.121569 0.615686 0.352941 
0.121569 0.615686 0.352941 0.121569 0.615686 0.352941 
0.121569 0.615686 0.352941 0.121569 0.615686 0.352941 
0.121569 0.615686 0.352941 0.121569 0.615686 0.352941 
0.121569 0.615686 0.352941 0.121569 0.615686 0.352941 
0.121569 0.615686 0.352941 0.121569 0.615686 0.352941 
0.121569 0.615686 0.352941 0.121569 0.615686 0.352941 
0.121569 0.615686 0.352941 0.121569 0.615686 0.352941 
0.121569 0.615686 0.352941 0.121569 0.615686 0.352941 
0.121569 0.615686 0.352941 0.121569 0.615686 0.352941 
0.121569 0.615686 0.352941 0.121569 0.615686 0.352941 
0.121569 0.615686 0.352941 0.121569 0.615686 0.352941 
0.121569 0.615686 0.352941 0.121569 0.615686 0.352941 
0.121569 0.615686 0.352941 0.121569 0.615686 0.352941 
0.121569 0.615686 0.352941 0.121569 0.615686 0.352941 
0.121569 0.615686 0.352941 0.121569 0.615686 0.352941 
0.121569 0.615686 0.352941 0.121569 0.615686 0.352941 
0.121569 0.615686 0.352941 0.121569 0.615686 0.352941 
0.121569 0.615686 0.352941 0.121569 0.615686 0.352941 
0.121569 0.615686 0.352941 0.121569 0.615686 0.352941 
0.121569 0.615686 0.352941 0.121569 0.615686 0.352941 
0.121569 0.615686 0.352941 0.121569 0.615686 0.352941 
0.121569 0.615686 0.352941 0.121569 0.615686 0.352941 
0.121569 0.615686 0.352941 0.121569 0.615686 0.352941 
0.121569 0.615686 0.352941 0.121569 0.615686 0.352941 
0.121569 0.615686 0.352941 0.121569 0.615686 0.352941 
0.121569 0.615686 0.352941 0.121569 0.615686 0.352941 
0.121569 0.615686 0.352941 0.121569 0.615686 0.352941 
0.121569 0.615686 0.352941 0.121569 0.615686 0.352941 
0.121569 0.615686 0.352941 0.121569 0.615686 0.352941 
0.121569 0.615686 0.352941 0.121569 0.615686 0.352941 
0.121569 0.615686 0.352941 0.121569 0.615686 0.352941 
0.121569 0.615686 0.352941 0.121569 0.615686 0.352941 
0.121569 0.615686 0.352941 0.121569 0.615686 0.352941 
0.121569 0.615686 0.352941 0.121569 0.615686 0.352941 
0.121569 0.615686 0.352941 0.121569 0.615686 0.352941 
0.121569 0.615686 0.352941 0.121569 0.615686 0.352941 
0.121569 0.615686 0.352941 0.121569 0.615686 0.352941 
0.121569 0.615686 0.352941 0.121569 0.615686 0.352941 
0.121569 0.615686 0.352941 0.121569 0.615686 0.352941 
0.121569 0.615686 0.352941 0.121569 0.615686 0.352941 
0.121569 0.615686 0.352941 0.121569 0.615686 0.352941 
0.121569 0.615686 0.352941 0.121569 0.615686 0.352941 
0.121569 0.615686 0.352941 0.121569 0.615686 0.352941 
0.121569 0.615686 0.352941 0.121569 0.615686 0.352941 
0.121569 0.615686 0.352941 0.121569 0.615686 0.352941 
0.121569 0.615686 0.352941 0.121569 0.615686 0.352941 
0.121569 0.615686 0.352941 0.121569 0.615686 0.352941 
0.121569 0.615686 0.352941 0.121569 0.615686 0.352941 
0.121569 0.615686 0.352941 0.121569 0.615686 0.352941 
0.121569 0.615686 0.352941 0.121569 0.615686 0.352941 
0.121569 0.615686 0.352941 0.121569 0.615686 0.352941 
0.121569 0.615686 0.352941 0.121569 0.615686 0.352941 
0.121569 0.615686 0.352941 0.121569 0.615686 0.352941 
0.121569 0.615686 0.352941 0.121569 0.615686 0.352941 
0.121569 0.615686 0.352941 0.121569 0.615686 0.352941 
0.121569 0.615686 0.352941 0.121569 0.615686 0.352941 
0.121569 0.615686 0.352941 0.121569 0.615686 0.352941 
0.121569 0.615686 0.352941 0.121569 0.615686 0.352941 
0.121569 0.615686 0.352941 0.121569 0.615686 0.352941 
0.121569 0.615686 0.352941 0.121569 0.615686 0.352941 
0.121569 0.615686 0.352941 0.121569 0.615686 0.352941 
0.121569 0.615686 0.352941 0.121569 0.615686 0.352941 
0.121569 0.615686 0.352941 0.121569 0.615686 0.352941 
0.121569 0.615686 0.352941 0.121569 0.615686 0.352941 
0.121569 0.615686 0.352941 0.121569 0.615686 0.352941 
0.121569 0.615686 0.352941 0.121569 0.615686 0.352941 
0.121569 0.615686 0.352941 0.121569 0.615686 0.352941 
0.121569 0.615686 0.352941 0.121569 0.615686 0.352941 
0.121569 0.615686 0.352941 0.121569 0.615686 0.352941 
0.121569 0.615686 0.352941 0.121569 0.615686 0.352941 
0.121569 0.615686 0.352941 0.121569 0.615686 0.352941 
0.121569 0.615686 0.352941 0.121569 0.615686 0.352941 
0.121569 0.615686 0.352941 0.121569 0.615686 0.352941 
0.121569 0.615686 0.352941 0.121569 0.615686 0.352941 
0.121569 0.615686 0.352941 0.121569 0.615686 0.352941 
0.121569 0.615686 0.352941 0.121569 0.615686 0.352941 
0.121569 0.615686 0.352941 0.121569 0.615686 0.352941 
0.121569 0.615686 0.352941 0.121569 0.615686 0.352941 
0.121569 0.615686 0.352941 0.121569 0.615686 0.352941 
0.121569 0.615686 0.352941 0.121569 0.615686 0.352941 
0.121569 0.615686 0.352941 0.121569 0.615686 0.352941 
0.121569 0.615686 0.352941 0.121569 0.615686 0.352941 
0.121569 0.615686 0.352941 0.121569 0.615686 0.352941 
0.121569 0.615686 0.352941 0.121569 0.615686 0.352941 
0.121569 0.615686 0.352941 0.121569 0.615686 0.352941 
0.121569 0.615686 0.352941 0.121569 0.615686 0.352941 
0.121569 0.615686 0.352941 0.121569 0.615686 0.352941 
0.121569 0.615686 0.352941 0.121569 0.615686 0.352941 
0.121569 0.615686 0.352941 0.121569 0.615686 0.352941 
0.121569 0.615686 0.352941 0.121569 0.615686 0.352941 
0.121569 0.615686 0.352941 0.121569 0.615686 0.352941 
0.121569 0.615686 0.352941 0.121569 0.615686 0.352941 
0.121569 0.615686 0.352941 0.121569 0.615686 0.352941 
0.121569 0.615686 0.352941 0.121569 0.615686 0.352941 
0.121569 0.615686 0.352941 0.121569 0.615686 0.352941 
0.121569 0.615686 0.352941 0.121569 0.615686 0.352941 
0.121569 0.615686 0.352941 0.121569 0.615686 0.352941 
0.121569 0.615686 0.352941 0.121569 0.615686 0.352941 
0.121569 0.615686 0.352941 0.121569 0.615686 0.352941 
0.121569 0.615686 0.352941 0.121569 0.615686 0.352941 
0.121569 0.615686 0.352941 0.121569 0.615686 0.352941 
0.121569 0.615686 0.352941 0.121569 0.615686 0.352941 
0.121569 0.615686 0.352941 0.121569 0.615686 0.352941 
0.121569 0.615686 0.352941 0.121569 0.615686 0.352941 
0.121569 0.615686 0.352941 0.121569 0.615686 0.352941 
0.121569 0.615686 0.352941 0.121569 0.615686 0.352941 
0.121569 0.615686 0.352941 0.121569 0.615686 0.352941 
0.121569 0.615686 0.352941 0.121569 0.615686 0.352941 
0.121569 0.615686 0.352941 0.121569 0.615686 0.352941 
0.121569 0.615686 0.352941 0.121569 0.615686 0.352941 
0.121569 0.615686 0.352941 0.121569 0.615686 0.352941 
0.121569 0.615686 0.352941 0.121569 0.615686 0.352941 
0.121569 0.615686 0.352941 0.121569 0.615686 0.352941 
0.121569 0.615686 0.352941 0.121569 0.615686 0.352941 
0.121569 0.615686 0.352941 0.121569 0.615686 0.352941 
0.121569 0.615686 0.352941 0.121569 0.615686 0.352941 
0.121569 0.615686 0.352941 0.121569 0.615686 0.352941 
0.121569 0.615686 0.352941 0.121569 0.615686 0.352941 
0.121569 0.615686 0.352941 0.121569 0.615686 0.352941 
0.121569 0.615686 0.352941 0.121569 0.615686 0.352941 
0.121569 0.615686 0.352941 0.121569 0.615686 0.352941 
0.121569 0.615686 0.352941 0.121569 0.615686 0.352941 
0.121569 0.615686 0.352941 0.121569 0.615686 0.352941 
0.121569 0.615686 0.352941 0.121569 0.615686 0.352941 
0.121569 0.615686 0.352941 0.121569 0.615686 0.352941 
0.121569 0.615686 0.352941 0.121569 0.615686 0.352941 
0.121569 0.615686 0.352941 0.121569 0.615686 0.352941 
0.121569 0.615686 0.352941 0.121569 0.615686 0.352941 
0.121569 0.615686 0.352941 0.121569 0.615686 0.352941 
0.121569 0.615686 0.352941 0.121569 0.615686 0.352941 
0.121569 0.615686 0.352941 0.121569 0.615686 0.352941 
0.121569 0.615686 0.352941 0.121569 0.615686 0.352941 
0.121569 0.615686 0.352941 0.121569 0.615686 0.352941 
0.121569 0.615686 0.352941 0.121569 0.615686 0.352941 
0.121569 0.615686 0.352941 0.121569 0.615686 0.352941 
0.121569 0.615686 0.352941 0.121569 0.615686 0.352941 
0.121569 0.615686 0.352941 0.121569 0.615686 0.352941 
0.121569 0.615686 0.352941 0.121569 0.615686 0.352941 
0.121569 0.615686 0.352941 0.121569 0.615686 0.352941 
0.121569 0.615686 0.352941 0.121569 0.615686 0.352941 
0.121569 0.615686 0.352941 0.121569 0.615686 0.352941 
0.121569 0.615686 0.352941 0.121569 0.615686 0.352941 
0.121569 0.615686 0.352941 0.121569 0.615686 0.352941 
0.121569 0.615686 0.352941 0.121569 0.615686 0.352941 
0.121569 0.615686 0.352941 0.121569 0.615686 0.352941 
0.121569 0.615686 0.352941 0.121569 0.615686 0.352941 
0.121569 0.615686 0.352941 0.121569 0.615686 0.352941 
0.121569 0.615686 0.352941 0.121569 0.615686 0.352941 
0.121569 0.615686 0.352941 0.121569 0.615686 0.352941 
0.121569 0.615686 0.352941 0.121569 0.615686 0.352941 
0.121569 0.615686 0.352941 0.121569 0.615686 0.352941 
0.121569 0.615686 0.352941 0.121569 0.615686 0.352941 
0.121569 0.615686 0.352941 0.121569 0.615686 0.352941 
0.121569 0.615686 0.352941 0.121569 0.615686 0.352941 
0.121569 0.615686 0.352941 0.121569 0.615686 0.352941 
0.121569 0.615686 0.352941 0.121569 0.615686 0.352941 
0.121569 0.615686 0.352941 0.121569 0.615686 0.352941 
0.121569 0.615686 0.352941 0.121569 0.615686 0.352941 
0.121569 0.615686 0.352941 0.121569 0.615686 0.352941 
0.121569 0.615686 0.352941 0.121569 0.615686 0.352941 
0.121569 0.615686 0.352941 0.121569 0.615686 0.352941 
0.121569 0.615686 0.352941 0.121569 0.615686 0.352941 
0.121569 0.615686 0.352941 0.121569 0.615686 0.352941 
0.121569 0.615686 0.352941 0.121569 0.615686 0.352941 
0.121569 0.615686 0.352941 0.121569 0.615686 0.352941 
0.121569 0.615686 0.352941 0.121569 0.615686 0.352941 
0.121569 0.615686 0.352941 0.121569 0.615686 0.352941 
0.121569 0.615686 0.352941 0.121569 0.615686 0.352941 
0.121569 0.615686 0.352941 0.121569 0.615686 0.352941 
0.121569 0.615686 0.352941 0.121569 0.615686 0.352941 
0.121569 0.615686 0.352941 0.121569 0.615686 0.352941 
0.121569 0.615686 0.352941 0.121569 0.615686 0.352941 
0.121569 0.615686 0.352941 0.121569 0.615686 0.352941 
0.121569 0.615686 0.352941 0.121569 0.615686 0.352941 
0.121569 0.615686 0.352941 0.121569 0.615686 0.352941 
0.121569 0.615686 0.352941 0.121569 0.615686 0.352941 
0.121569 0.615686 0.352941 0.121569 0.615686 0.352941 
0.121569 0.615686 0.352941 0.121569 0.615686 0.352941 
0.121569 0.615686 0.352941 0.121569 0.615686 0.352941 
0.121569 0.615686 0.352941 0.121569 0.615686 0.352941 
0.121569 0.615686 0.352941 0.121569 0.615686 0.352941 
0.121569 0.615686 0.352941 0.121569 0.615686 0.352941 
0.121569 0.615686 0.352941 0.121569 0.615686 0.352941 
0.121569 0.615686 0.352941 0.121569 0.615686 0.352941 
0.121569 0.615686 0.352941 0.121569 0.615686 0.352941 
0.121569 0.615686 0.352941 0.121569 0.615686 0.352941 
0.121569 0.615686 0.352941 0.121569 0.615686 0.352941 
0.121569 0.615686 0.352941 0.121569 0.615686 0.352941 
0.121569 0.615686 0.352941 0.121569 0.615686 0.352941 
0.121569 0.615686 0.352941 0.121569 0.615686 0.352941 
0.121569 0.615686 0.352941 0.121569 0.615686 0.352941 
0.121569 0.615686 0.352941 0.121569 0.615686 0.352941 
0.121569 0.615686 0.352941 0.121569 0.615686 0.352941 
0.121569 0.615686 0.352941 0.121569 0.615686 0.352941 
0.121569 0.615686 0.352941 0.121569 0.615686 0.352941 
0.121569 0.615686 0.352941 0.121569 0.615686 0.352941 
0.121569 0.615686 0.352941 0.121569 0.615686 0.352941 
0.121569 0.615686 0.352941 0.121569 0.615686 0.352941 
0.121569 0.615686 0.352941 0.121569 0.615686 0.352941 
0.121569 0.615686 0.352941 0.121569 0.615686 0.352941 
0.121569 0.615686 0.352941 0.121569 0.615686 0.352941 
0.121569 0.615686 0.352941 0.121569 0.615686 0.352941 
0.121569 0.615686 0.352941 0.121569 0.615686 0.352941 
0.121569 0.615686 0.352941 0.121569 0.615686 0.352941 
0.121569 0.615686 0.352941 0.121569 0.615686 0.352941 
0.121569 0.615686 0.352941 0.121569 0.615686 0.352941 
0.121569 0.615686 0.352941 0.121569 0.615686 0.352941 
0.121569 0.615686 0.352941 0.121569 0.615686 0.352941 
0.121569 0.615686 0.352941 0.121569 0.615686 0.352941 
0.121569 0.615686 0.352941 0.121569 0.615686 0.352941 
0.121569 0.615686 0.352941 0.121569 0.615686 0.352941 
0.121569 0.615686 0.352941 0.121569 0.615686 0.352941 
0.121569 0.615686 0.352941 0.121569 0.615686 0.352941 
0.121569 0.615686 0.352941 0.121569 0.615686 0.352941 
0.121569 0.615686 0.352941 0.121569 0.615686 0.352941 
0.121569 0.615686 0.352941 0.121569 0.615686 0.352941 
0.121569 0.615686 0.352941 0.121569 0.615686 0.352941 
0.121569 0.615686 0.352941 0.121569 0.615686 0.352941 
0.121569 0.615686 0.352941 0.121569 0.615686 0.352941 
0.121569 0.615686 0.352941 0.121569 0.615686 0.352941 
0.121569 0.615686 0.352941 0.121569 0.615686 0.352941 
0.121569 0.615686 0.352941 0.121569 0.615686 0.352941 
0.121569 0.615686 0.352941 0.121569 0.615686 0.352941 
0.121569 0.615686 0.352941 0.121569 0.615686 0.352941 
0.121569 0.615686 0.352941 0.121569 0.615686 0.352941 
0.121569 0.615686 0.352941 0.121569 0.615686 0.352941 
0.121569 0.615686 0.352941 0.121569 0.615686 0.352941 
0.121569 0.615686 0.352941 0.121569 0.615686 0.352941 
0.121569 0.615686 0.352941 0.121569 0.615686 0.352941 
0.121569 0.615686 0.352941 0.121569 0.615686 0.352941 
0.121569 0.615686 0.352941 0.121569 0.615686 0.352941 
0.121569 0.615686 0.352941 0.121569 0.615686 0.352941 
0.121569 0.615686 0.352941 0.121569 0.615686 0.352941 
0.121569 0.615686 0.352941 0.121569 0.615686 0.352941 
0.121569 0.615686 0.352941 0.121569 0.615686 0.352941 
0.121569 0.615686 0.352941 0.121569 0.615686 0.352941 
0.121569 0.615686 0.352941 0.121569 0.615686 0.352941 
0.121569 0.615686 0.352941 0.121569 0.615686 0.352941 
0.121569 0.615686 0.352941 0.121569 0.615686 0.352941 
0.121569 0.615686 0.352941 0.121569 0.615686 0.352941 
0.121569 0.615686 0.352941 0.121569 0.615686 0.352941 
0.121569 0.615686 0.352941 0.121569 0.615686 0.352941 
0.121569 0.615686 0.352941 0.121569 0.615686 0.352941 
0.121569 0.615686 0.352941 0.121569 0.615686 0.352941 
0.121569 0.615686 0.352941 0.121569 0.615686 0.352941 
0.121569 0.615686 0.352941 0.121569 0.615686 0.352941 
0.121569 0.615686 0.352941 0.121569 0.615686 0.352941 
0.121569 0.615686 0.352941 0.121569 0.615686 0.352941 
0.121569 0.615686 0.352941 0.121569 0.615686 0.352941 
0.121569 0.615686 0.352941 0.121569 0.615686 0.352941 
0.121569 0.615686 0.352941 0.121569 0.615686 0.352941 
0.121569 0.615686 0.352941 0.121569 0.615686 0.352941 
0.121569 0.615686 0.352941 0.121569 0.615686 0.352941 
0.121569 0.615686 0.352941 0.121569 0.615686 0.352941 
0.121569 0.615686 0.352941 0.121569 0.615686 0.352941 
0.121569 0.615686 0.352941 0.121569 0.615686 0.352941 
0.121569 0.615686 0.352941 0.121569 0.615686 0.352941 
0.121569 0.615686 0.352941 0.121569 0.615686 0.352941 
0.121569 0.615686 0.352941 0.121569 0.615686 0.352941 
0.121569 0.615686 0.352941 0.121569 0.615686 0.352941 
0.121569 0.615686 0.352941 0.121569 0.615686 0.352941 
0.121569 0.615686 0.352941 0.121569 0.615686 0.352941 
0.121569 0.615686 0.352941 0.121569 0.615686 0.352941 
0.121569 0.615686 0.352941 0.121569 0.615686 0.352941 
0.121569 0.615686 0.352941 0.121569 0.615686 0.352941 
0.121569 0.615686 0.352941 0.121569 0.615686 0.352941 
0.121569 0.615686 0.352941 0.121569 0.615686 0.352941 
0.121569 0.615686 0.352941 0.121569 0.615686 0.352941 
0.121569 0.615686 0.352941 0.121569 0.615686 0.352941 
0.121569 0.615686 0.352941 0.121569 0.615686 0.352941 
0.121569 0.615686 0.352941 0.121569 0.615686 0.352941 
0.121569 0.615686 0.352941 0.121569 0.615686 0.352941 
0.121569 0.615686 0.352941 0.121569 0.615686 0.352941 
0.121569 0.615686 0.352941 0.121569 0.615686 0.352941 
0.121569 0.615686 0.352941 0.121569 0.615686 0.352941 
0.121569 0.615686 0.352941 0.121569 0.615686 0.352941 
0.121569 0.615686 0.352941 0.121569 0.615686 0.352941 
0.121569 0.615686 0.352941 0.121569 0.615686 0.352941 
0.121569 0.615686 0.352941 0.121569 0.615686 0.352941 
0.121569 0.615686 0.352941 0.121569 0.615686 0.352941 
0.121569 0.615686 0.352941 0.121569 0.615686 0.352941 
0.121569 0.615686 0.352941 0.121569 0.615686 0.352941 
0.121569 0.615686 0.352941 0.121569 0.615686 0.352941 
0.121569 0.615686 0.352941 0.121569 0.615686 0.352941 
0.121569 0.615686 0.352941 0.121569 0.615686 0.352941 
0.121569 0.615686 0.352941 0.121569 0.615686 0.352941 
0.121569 0.615686 0.352941 0.121569 0.615686 0.352941 
0.121569 0.615686 0.352941 0.121569 0.615686 0.352941 
0.121569 0.615686 0.352941 0.121569 0.615686 0.352941 
0.121569 0.615686 0.352941 0.121569 0.615686 0.352941 
0.121569 0.615686 0.352941 0.121569 0.615686 0.352941 
0.121569 0.615686 0.352941 0.121569 0.615686 0.352941 
0.121569 0.615686 0.352941 0.121569 0.615686 0.352941 
0.121569 0.615686 0.352941 0.121569 0.615686 0.352941 
0.121569 0.615686 0.352941 0.121569 0.615686 0.352941 
0.121569 0.615686 0.352941 0.121569 0.615686 0.352941 
0.121569 0.615686 0.352941 0.121569 0.615686 0.352941 
0.121569 0.615686 0.352941 0.121569 0.615686 0.352941 
0.121569 0.615686 0.352941 0.121569 0.615686 0.352941 
0.121569 0.615686 0.352941 0.121569 0.615686 0.352941 
0.121569 0.615686 0.352941 0.121569 0.615686 0.352941 
0.121569 0.615686 0.352941 0.121569 0.615686 0.352941 
0.121569 0.615686 0.352941 0.121569 0.615686 0.352941 
0.121569 0.615686 0.352941 0.121569 0.615686 0.352941 
0.121569 0.615686 0.352941 0.121569 0.615686 0.352941 
0.121569 0.615686 0.352941 0.121569 0.615686 0.352941 
0.121569 0.615686 0.352941 0.121569 0.615686 0.352941 
0.121569 0.615686 0.352941 0.121569 0.615686 0.352941 
0.121569 0.615686 0.352941 0.121569 0.615686 0.352941 
0.121569 0.615686 0.352941 0.121569 0.615686 0.352941 
0.121569 0.615686 0.352941 0.121569 0.615686 0.352941 