# vtk DataFile Version 4.2
vtk output
ASCII
DATASET POLYDATA
POINTS 3243 float
118.769 130.36 122.954 118.518 130.89 122.892 119.308 130.997 122.947 
118.893 133.202 122.756 119.259 134.439 122.803 118.784 136.397 122.694 
116.932 141.275 122.987 117.999 140.625 122.827 118.149 142.023 123.01 
120.885 123.33 124.209 120.779 123.248 124.228 120.918 123.567 124.208 
117.94 130.971 122.988 119.868 131.317 123.101 120.298 138.734 123.406 
115.733 141.395 123.491 119.108 140.814 123.06 118.666 143.104 123.296 
116.909 146.594 123.95 116.857 147.925 124.595 117.208 147.932 124.517 
119.682 122.628 124.541 122.13 127.555 124.404 114.487 141.218 124.221 
120.697 141.719 123.989 114.636 143.344 124.411 116.045 145.228 123.882 
115.6 146.083 124.368 120.036 145.442 124.374 115.896 147.278 124.632 
118.048 147.263 124.2 118.858 121.826 125.157 118.095 122.829 125.081 
122.743 124.399 125.114 114.996 146.764 125.237 119.589 147.273 124.928 
116.12 148.319 125.632 116.195 148.091 125.221 117.976 148.303 125.054 
117.457 148.675 125.716 122.936 116.469 126.922 120.159 118.774 126.192 
123.273 141.968 125.794 113.517 142.919 125.25 113.765 145.662 125.992 
114.89 147.45 126.125 115.173 147.852 126.284 115.8 148.229 125.859 
116.619 148.645 126.195 118.494 148.794 125.994 123.304 114.924 127.7 
123.807 114.782 127.886 122.174 116.975 126.779 123.743 117.386 127.092 
112.87 145.794 127.396 114.046 147.099 127.279 115.186 148.047 127.286 
118.174 148.958 126.664 123.029 114.129 128.074 123.427 113.757 128.302 
122.096 114.661 127.913 121.531 114.834 127.961 124.685 115.089 128.127 
124.729 115.516 128.036 125.025 115.258 128.28 125.746 125.328 127.624 
112.23 145.95 128.677 122.287 148.093 127.76 121.664 148.518 127.885 
124.774 113.813 128.645 125.8 146.786 129.407 114.501 147.544 128.769 
124.989 147.407 129.592 125.931 109.708 130.446 124.964 110.21 130.066 
126.544 110.684 130.263 127.19 146.564 130.26 115.49 147.549 129.899 
127.158 146.994 130.635 123.309 147.957 129.846 125.367 147.683 130.466 
125.979 147.457 130.283 125.725 147.623 130.417 126.03 147.583 130.549 
127.103 106.878 132.263 127.376 108.289 131.709 123.227 109.558 130.774 
129.937 140.673 131.265 129.279 142.843 130.725 109.883 144.5 131.038 
109.712 144.489 131.511 128.311 144.654 130.164 129.145 144.451 130.884 
109.966 144.759 131.359 109.863 144.735 131.513 110.499 144.991 131.165 
110.078 144.841 131.497 109.93 144.812 131.472 121.952 147.795 131.219 
122.627 147.834 131.141 126.265 147.545 130.8 126.579 106.396 132.513 
126.299 106.463 132.397 128.377 108.295 132.457 130.63 133.67 131.688 
130.04 138.792 131.066 130.737 137.948 132.171 130.356 140.623 132.271 
107.956 142.901 132.367 129.76 144.117 131.707 130.047 143.608 132.309 
109.606 144.233 132.06 109.93 144.671 131.713 109.923 144.794 131.543 
110.392 144.84 131.77 114.575 146.018 132.194 128.984 146.838 132.034 
129.314 146.72 132.161 126.672 147.428 132.007 127.63 147.249 132.205 
129.181 146.863 132.365 126.392 105.793 133.407 129.74 109.565 133.226 
131.3 131.132 132.731 104.562 137.202 133.035 130.515 139.884 132.858 
105.491 140.489 133.752 130.257 142.12 132.874 108.21 143.146 132.615 
108.678 143.47 132.658 130.054 144.775 132.885 129.835 145.95 132.363 
130.001 145.343 132.663 129.933 146.325 132.708 130.002 146.326 132.93 
127.776 147.188 132.767 128.078 147.059 133.07 129.927 146.503 132.868 
129.486 146.771 132.699 129.755 146.635 132.925 126.696 105.535 133.77 
126.709 105.445 133.874 126.524 105.467 133.923 126.797 105.49 133.859 
125.873 105.43 134.056 126.964 105.686 133.849 131.758 131.149 133.695 
131.889 130.843 134.138 131.677 131.787 133.748 103.383 133.192 133.901 
131.045 135.75 133.715 104.125 138.64 134.277 130.274 140.134 134.082 
107.807 142.689 133.524 130.065 143.577 133.382 129.828 144.04 133.848 
126.168 146.901 133.684 129.983 146.224 133.086 129.921 146.457 133.043 
129.737 146.542 133.137 128.864 146.863 133.098 126.742 105.455 133.991 
126.627 105.375 134.506 118.461 106.968 135.241 132.526 125.031 135.001 
132.336 128.456 134.611 132.33 128.186 134.759 132.345 128.516 134.724 
131.775 130.898 135.07 131.774 131.454 134.381 131.229 132.685 135.112 
103.514 138.675 135.629 129.521 141.116 135.129 129.108 146.566 133.419 
124.595 104.461 135.736 124.623 104.294 135.991 124.349 104.25 136.116 
123.613 104.147 136.32 120.938 104.839 136.048 132.787 122.156 135.284 
131.592 129.599 136.119 130.733 132.24 136.098 102.136 137.041 136.478 
128.549 144.243 135.263 125.525 145.24 135.732 124.716 104.244 136.183 
125.43 104.301 136.826 132.36 126.445 136.519 129.114 136.826 136.522 
102.625 138.072 137.065 103.528 139.002 137.001 127.588 141.12 137.017 
107.292 141.473 136.063 125.335 144.397 136.538 127.636 143.856 136.086 
127.956 145.288 135.089 122.592 102.994 137.929 133.851 121.74 137.581 
133.122 123.908 137.471 132.68 124.472 138.041 129.439 129.468 138.475 
101.13 136.434 138.192 101.418 136.917 138.378 121.593 101.928 139.288 
111.015 107.81 139.084 133.425 108.521 138.818 135.816 108.93 139.928 
135.687 111.171 138.953 135.185 117.052 138.166 135.227 117.977 138.535 
135.35 118.381 139.099 125.389 140.11 138.847 136.242 108.108 140.553 
135.159 119.142 139.577 133.997 121.008 139.581 101.272 136.671 139.88 
102.537 137.623 139.669 124.183 139.991 139.625 121.653 141.771 139.365 
121.883 100.345 141.468 138.166 104.261 142.159 137.043 105.205 141.889 
136.809 106.013 141.628 138.263 105.968 141.866 134.811 107.032 141.021 
135.742 106.022 141.814 133.051 107.675 139.805 137.807 107.428 141.36 
138.319 109.444 141.411 104.966 111.442 141.172 137.608 112.147 140.684 
137.989 112.54 141.15 135.313 118.515 141.096 125.438 130.464 141.338 
103.935 137.189 141.459 103.408 137.697 140.287 122.814 139.563 140.515 
123.332 140.965 139.536 137.803 95.3908 142.918 137.326 97.614 142.803 
138.562 97.9415 142.7 139.145 97.5582 142.818 138.858 100.313 142.652 
137.757 103.463 142.329 137.105 103.193 142.525 136.698 103.38 142.662 
112.069 104.826 142.347 127.211 104.133 142.545 135.547 105.288 142.5 
134.897 105.808 142.517 105.558 110.163 141.798 138.118 113.533 141.706 
136.85 116.339 141.574 99.1071 122.59 141.586 136.433 94.4802 143.376 
138.804 95.3121 143.015 139.769 98.1047 143.004 122.437 99.8124 142.573 
136.736 98.9436 143.012 136.805 100.97 142.996 139.714 102.185 142.883 
136.744 102.743 142.801 139.278 104.565 142.517 132.937 106.54 142.47 
107.272 108.311 142.511 130.478 106.295 142.82 105.169 109.508 143.314 
138.536 113.572 142.875 138.227 114.161 143.162 136.975 115.99 142.419 
135.69 117.176 142.897 136.16 116.421 143.392 97.7069 132.034 143.141 
98.493 133.375 142.639 105.582 136.251 143.496 121.404 135.841 142.752 
141.609 91.0185 144.912 135.86 92.5086 144.394 142.11 91.8758 144.801 
133.701 94.9769 144.41 122.111 98.5222 144.473 135.195 101.38 144.38 
113.782 101.84 144.784 140.985 104.037 143.634 134.921 104.543 144.24 
134.425 105.39 144.013 129.501 105.645 144.088 141.048 106.594 143.719 
106.302 108.568 143.832 131.93 106.414 143.492 140.76 108.66 143.678 
101.35 113.767 143.543 137.416 115.011 143.686 134.787 117.493 143.531 
98.0613 133.299 144.259 98.2051 133.665 145.152 111.65 136.788 144.049 
119.93 136.49 143.277 119.014 137.357 143.183 142.406 90.0626 145.695 
132.972 93.7481 145.26 143.255 92.8299 145.225 132.599 95.2755 145.205 
121.32 97.8318 145.227 134.961 102.363 144.909 112.292 104 145.697 
127.9 104.027 144.842 134.703 104.685 144.753 130.066 105.803 144.881 
130.654 106.094 144.733 100.329 113.58 145.332 138.651 113.344 145.227 
137.605 114.156 145.163 132.847 117.415 145.165 96.4587 131.152 145.107 
96.6938 131.996 145.335 96.9984 132.713 145.659 100.498 134.885 144.356 
113.504 135.956 145.25 142.78 88.6848 146.737 139.146 90.0606 145.602 
134.497 91.8264 145.589 131.724 93.8446 146.283 131.769 94.7487 145.978 
118.601 97.0071 146.611 132.763 97.6361 145.511 112.94 102.158 146.134 
110.566 106.252 146.078 132.601 106.273 145.39 133.62 105.935 145.724 
142.712 108.188 146.518 101.77 111.659 146.092 100.38 113.164 145.912 
129.981 117.983 146.456 98.605 134.02 146.519 114.939 135.827 145.249 
115.627 135.653 145.289 143.919 87.7167 147.781 131.69 92.6668 147.231 
120.776 96.3299 147.705 115.487 97.899 147.069 112.702 101.583 146.96 
133.114 100.895 146.96 112.581 102.443 146.77 134.424 102.852 146.46 
112.058 104.264 147.311 134.406 105.181 146.511 134.625 104.75 147.184 
110.786 106.206 146.572 130.771 105.888 146.645 143.446 106.951 146.75 
132.066 106.397 147.216 105.185 109.624 147.079 142.451 108.798 147.039 
101.332 112.089 146.293 141.211 110.171 146.915 141.906 109.428 147.373 
100.33 113.118 146.288 100.25 113.095 146.819 98.8837 114.416 147.138 
100.968 134.42 147.082 98.4864 134.038 147.246 134.922 89.9366 147.942 
132.55 91.5327 147.773 146.577 90.8286 147.945 131.857 92.0864 147.964 
130.85 95.7429 147.412 131.517 99.897 147.82 133.593 102.46 148.326 
129.487 104.502 147.286 134.207 105.972 147.537 111.205 106.091 147.815 
134.717 106.36 148.751 144.737 106.132 148.347 133.559 106.705 148.236 
134.217 106.731 148.688 142.663 108.658 148.132 142.43 108.917 147.729 
101.855 111.795 147.176 101.847 112.046 147.796 102.823 111.636 148.146 
100.442 113.02 147.919 117.716 127.314 148.199 94.6478 130.895 148.479 
95.0463 132.416 148.98 145.991 86.0335 149.849 147.277 85.9794 150.37 
145.267 85.9653 149.805 146.719 86.9382 149.444 147.746 87.0784 149.995 
131.697 92.0298 149.164 122.667 96.9825 148.837 123.343 97.4151 149.221 
129.09 99.0114 149.427 130.326 98.838 148.504 111.518 100.171 148.671 
127.886 100.671 148.406 127.587 99.9515 149.003 130.095 99.7208 148.731 
130.975 99.8455 148.23 131.806 101.145 148.475 111.81 102.15 148.267 
128.929 102.15 148.187 129.534 103.561 148.235 134.879 104.371 149 
146.414 104.099 149.237 146.497 104.436 149.725 135.22 106.01 149.211 
135.594 105.848 149.778 145.202 106.088 149.493 132.331 106.729 149.012 
132.87 106.995 149.066 134.041 107.096 149.084 135.243 106.789 149.551 
[...]
POINT_DATA 3243
COLOR_SCALARS scalars 3
0.121569 0.615686 0.352941 0.121569 0.615686 0.352941 0.121569 0.615686 0.352941 
0.121569 0.615686 0.352941 0.121569 0.615686 0.352941 
0.121569 0.615686 0.352941 0.121569 0.615686 0.352941 
0.121569 0.615686 0.352941 0.121569 0.615686 0.352941 
0.121569 0.615686 0.352941 0.121569 0.615686 0.352941 
0.121569 0.615686 0.352941 0.121569 0.615686 0.352941 
0.121569 0.615686 0.352941 0.121569 0.615686 0.352941 
0.121569 0.615686 0.352941 0.121569 0.615686 0.352941 
0.121569 0.615686 0.352941 0.121569 0.615686 0.352941 
0.121569 0.615686 0.352941 0.121569 0.615686 0.352941 
0.121569 0.615686 0.352941 0.121569 0.615686 0.352941 
0.121569 0.615686 0.352941 0.121569 0.615686 0.352941 
0.121569 0.615686 0.352941 0.121569 0.615686 0.352941 
0.121569 0.615686 0.352941 0.121569 0.615686 0.352941 
0.121569 0.615686 0.352941 0.121569 0.615686 0.352941 
0.121569 0.615686 0.352941 0.121569 0.615686 0.352941 
0.121569 0.615686 0.352941 0.121569 0.615686 0.352941 
0.121569 0.615686 0.352941 0.121569 0.615686 0.352941 
0.121569 0.615686 0.352941 0.121569 0.615686 0.352941 
0.121569 0.615686 0.352941 0.121569 0.615686 0.352941 
0.121569 0.615686 0.352941 0.121569 0.615686 0.352941 
0.121569 0.615686 0.352941 0.121569 0.615686 0.352941 
0.121569 0.615686 0.352941 0.121569 0.615686 0.352941 
0.121569 0.615686 0.352941 0.121569 0.615686 0.352941 
0.121569 0.615686 0.352941 0.121569 0.615686 0.352941 
0.121569 0.615686 0.352941 0.121569 0.615686 0.352941 
0.121569 0.615686 0.352941 0.121569 0.615686 0.352941 
0.121569 0.615686 0.352941 0.121569 0.615686 0.352941 
0.121569 0.615686 0.352941 0.121569 0.615686 0.352941 
0.121569 0.615686 0.352941 0.121569 0.615686 0.352941 
0.121569 0.615686 0.352941 0.121569 0.615686 0.352941 
0.121569 0.615686 0.352941 0.121569 0.615686 0.352941 
0.121569 0.615686 0.352941 0.121569 0.615686 0.352941 
0.121569 0.615686 0.352941 0.121569 0.615686 0.352941 
0.121569 0.615686 0.352941 0.121569 0.615686 0.352941 
0.121569 0.615686 0.352941 0.121569 0.615686 0.352941 
0.121569 0.615686 0.352941 0.121569 0.615686 0.352941 
0.121569 0.615686 0.352941 0.121569 0.615686 0.352941 
0.121569 0.615686 0.352941 0.121569 0.615686 0.352941 
0.121569 0.615686 0.352941 0.121569 0.615686 0.352941 
0.121569 0.615686 0.352941 0.121569 0.615686 0.352941 
0.121569 0.615686 0.352941 0.121569 0.615686 0.352941 
0.121569 0.615686 0.352941 0.121569 0.615686 0.352941 
0.121569 0.615686 0.352941 0.121569 0.615686 0.352941 
0.121569 0.615686 0.352941 0.121569 0.615686 0.352941 
0.121569 0.615686 0.352941 0.121569 0.615686 0.352941 
0.121569 0.615686 0.352941 0.121569 0.615686 0.352941 
0.121569 0.615686 0.352941 0.121569 0.615686 0.352941 
0.121569 0.615686 0.352941 0.121569 0.615686 0.352941 
0.121569 0.615686 0.352941 0.121569 0.615686 0.352941 
0.121569 0.615686 0.352941 0.121569 0.615686 0.352941 
0.121569 0.615686 0.352941 0.121569 0.615686 0.352941 
0.121569 0.615686 0.352941 0.121569 0.615686 0.352941 
0.121569 0.615686 0.352941 0.121569 0.615686 0.352941 
0.121569 0.615686 0.352941 0.121569 0.615686 0.352941 
0.121569 0.615686 0.352941 0.121569 0.615686 0.352941 
0.121569 0.615686 0.352941 0.121569 0.615686 0.352941 
0.121569 0.615686 0.352941 0.121569 0.615686 0.352941 
0.121569 0.615686 0.352941 0.121569 0.615686 0.352941 
0.121569 0.615686 0.352941 0.121569 0.615686 0.352941 
0.121569 0.615686 0.352941 0.121569 0.615686 0.352941 
0.121569 0.615686 0.352941 0.121569 0.615686 0.352941 
0.121569 0.615686 0.352941 0.121569 0.615686 0.352941 
0.121569 0.615686 0.352941 0.121569 0.615686 0.352941 
0.121569 0.615686 0.352941 0.121569 0.615686 0.352941 
0.121569 0.615686 0.352941 0.121569 0.615686 0.352941 
0.121569 0.615686 0.352941 0.121569 0.615686 0.352941 
0.121569 0.615686 0.352941 0.121569 0.615686 0.352941 
0.121569 0.615686 0.352941 0.121569 0.615686 0.352941 
0.121569 0.615686 0.352941 0.121569 0.615686 0.352941 
0.121569 0.615686 0.352941 0.121569 0.615686 0.352941 
0.121569 0.615686 0.352941 0.121569 0.615686 0.352941 
0.121569 0.615686 0.352941 0.121569 0.615686 0.352941 
0.121569 0.615686 0.352941 0.121569 0.615686 0.352941 
0.121569 0.615686 0.352941 0.121569 0.615686 0.352941 
0.121569 0.615686 0.352941 0.121569 0.615686 0.352941 
0.121569 0.615686 0.352941 0.121569 0.615686 0.352941 
0.121569 0.615686 0.352941 0.121569 0.615686 0.352941 
0.121569 0.615686 0.352941 0.121569 0.615686 0.352941 
0.121569 0.615686 0.352941 0.121569 0.615686 0.352941 
0.121569 0.615686 0.352941 0.121569 0.615686 0.352941 
0.121569 0.615686 0.352941 0.121569 0.615686 0.352941 
0.121569 0.615686 0.352941 0.121569 0.615686 0.352941 
0.121569 0.615686 0.352941 0.121569 0.615686 0.352941 
0.121569 0.615686 0.352941 0.121569 0.615686 0.352941 
0.121569 0.615686 0.352941 0.121569 0.615686 0.352941 
0.121569 0.615686 0.352941 0.121569 0.615686 0.352941 
0.121569 0.615686 0.352941 0.121569 0.615686 0.352941 
0.121569 0.615686 0.352941 0.121569 0.615686 0.352941 
0.121569 0.615686 0.352941 0.121569 0.615686 0.352941 
0.121569 0.615686 0.352941 0.121569 0.615686 0.352941 
0.121569 0.615686 0.352941 0.121569 0.615686 0.352941 
0.121569 0.615686 0.352941 0.121569 0.615686 0.352941 
0.121569 0.615686 0.352941 0.121569 0.615686 0.352941 
0.121569 0.615686 0.352941 0.121569 0.615686 0.352941 
0.121569 0.615686 0.352941 0.121569 0.615686 0.352941 
0.121569 0.615686 0.352941 0.121569 0.615686 0.352941 
0.121569 0.615686 0.352941 0.121569 0.615686 0.352941 
0.121569 0.615686 0.352941 0.121569 0.615686 0.352941 
0.121569 0.615686 0.352941 0.121569 0.615686 0.352941 
0.121569 0.615686 0.352941 0.121569 0.615686 0.352941 
0.121569 0.615686 0.352941 0.121569 0.615686 0.352941 
0.121569 0.615686 0.352941 0.121569 0.615686 0.352941 
0.121569 0.615686 0.352941 0.121569 0.615686 0.352941 
0.121569 0.615686 0.352941 0.121569 0.615686 0.352941 
0.121569 0.615686 0.352941 0.121569 0.615686 0.352941 
0.121569 0.615686 0.352941 0.121569 0.615686 0.352941 
0.121569 0.615686 0.352941 0.121569 0.615686 0.352941 
0.121569 0.615686 0.352941 0.121569 0.615686 0.352941 
0.121569 0.615686 0.352941 0.121569 0.615686 0.352941 
0.121569 0.615686 0.352941 0.121569 0.615686 0.352941 
0.121569 0.615686 0.352941 0.121569 0.615686 0.352941 
0.121569 0.615686 0.352941 0.121569 0.615686 0.352941 
0.121569 0.615686 0.352941 0.121569 0.615686 0.352941 
0.121569 0.615686 0.352941 0.121569 0.615686 0.352941 
0.121569 0.615686 0.352941 0.121569 0.615686 0.352941 
0.121569 0.615686 0.352941 0.121569 0.615686 0.352941 
0.121569 0.615686 0.352941 0.121569 0.615686 0.352941 
0.121569 0.615686 0.352941 0.121569 0.615686 0.352941 
0.121569 0.615686 0.352941 0.121569 0.615686 0.352941 
0.121569 0.615686 0.352941 0.121569 0.615686 0.352941 
0.121569 0.615686 0.352941 0.121569 0.615686 0.352941 
0.121569 0.615686 0.352941 0.121569 0.615686 0.352941 
0.121569 0.615686 0.352941 0.121569 0.615686 0.352941 
0.121569 0.615686 0.352941 0.121569 0.615686 0.352941 
0.121569 0.615686 0.352941 0.121569 0.615686 0.352941 
0.121569 0.615686 0.352941 0.121569 0.615686 0.352941 
0.121569 0.615686 0.352941 0.121569 0.615686 0.352941 
0.121569 0.615686 0.352941 0.121569 0.615686 0.352941 
0.121569 0.615686 0.352941 0.121569 0.615686 0.352941 
0.121569 0.615686 0.352941 0.121569 0.615686 0.352941 
0.121569 0.615686 0.352941 0.121569 0.615686 0.352941 
0.121569 0.615686 0.352941 0.121569 0.615686 0.352941 
0.121569 0.615686 0.352941 0.121569 0.615686 0.352941 
0.121569 0.615686 0.352941 0.121569 0.615686 0.352941 
0.121569 0.615686 0.352941 0.121569 0.615686 0.352941 
0.121569 0.615686 0.352941 0.121569 0.615686 0.352941 
0.121569 0.615686 0.352941 0.121569 0.615686 0.352941 
0.121569 0.615686 0.352941 0.121569 0.615686 0.352941 
0.121569 0.615686 0.352941 0.121569 0.615686 0.352941 
0.121569 0.615686 0.352941 0.121569 0.615686 0.352941 
0.121569 0.615686 0.352941 0.121569 0.615686 0.352941 
0.121569 0.615686 0.352941 0.121569 0.615686 0.352941 
0.121569 0.615686 0.352941 0.121569 0.615686 0.352941 
0.121569 0.615686 0.352941 0.121569 0.615686 0.352941 
0.121569 0.615686 0.352941 0.121569 0.615686 0.352941 
0.121569 0.615686 0.352941 0.121569 0.615686 0.352941 
0.121569 0.615686 0.352941 0.121569 0.615686 0.352941 
0.121569 0.615686 0.352941 0.121569 0.615686 0.352941 
0.121569 0.615686 0.352941 0.121569 0.615686 0.352941 
0.121569 0.615686 0.352941 0.121569 0.615686 0.352941 
0.121569 0.615686 0.352941 0.121569 0.615686 0.352941 
0.121569 0.615686 0.352941 0.121569 0.615686 0.352941 
0.121569 0.615686 0.352941 0.121569 0.615686 0.352941 
0.121569 0.615686 0.352941 0.121569 0.615686 0.352941 
0.121569 0.615686 0.352941 0.121569 0.615686 0.352941 
0.121569 0.615686 0.352941 0.121569 0.615686 0.352941 
0.121569 0.615686 0.352941 0.121569 0.615686 0.352941 
0.121569 0.615686 0.352941 0.121569 0.615686 0.352941 
0.121569 0.615686 0.352941 0.121569 0.615686 0.352941 
0.121569 0.615686 0.352941 0.121569 0.615686 0.352941 
0.121569 0.615686 0.352941 0.121569 0.615686 0.352941 
0.121569 0.615686 0.352941 0.121569 0.615686 0.352941 
0.121569 0.615686 0.352941 0.121569 0.615686 0.352941 
0.121569 0.615686 0.352941 0.121569 0.615686 0.352941 
0.121569 0.615686 0.352941 0.121569 0.615686 0.352941 
0.121569 0.615686 0.352941 0.121569 0.615686 0.352941 
0.121569 0.615686 0.352941 0.121569 0.615686 0.352941 
0.121569 0.615686 0.352941 0.121569 0.615686 0.352941 
0.121569 0.615686 0.352941 0.121569 0.615686 0.352941 
0.121569 0.615686 0.352941 0.121569 0.615686 0.352941 
0.121569 0.615686 0.352941 0.121569 0.615686 0.352941 
0.121569 0.615686 0.352941 0.121569 0.615686 0.352941 
0.121569 0.615686 0.352941 0.121569 0.615686 0.352941 
0.121569 0.615686 0.352941 0.121569 0.615686 0.352941 
0.121569 0.615686 0.352941 0.121569 0.615686 0.352941 
0.121569 0.615686 0.352941 0.121569 0.615686 0.352941 
0.121569 0.615686 0.352941 0.121569 0.615686 0.352941 
0.121569 0.615686 0.352941 0.121569 0.615686 0.352941 
0.121569 0.615686 0.352941 0.121569 0.615686 0.352941 
0.121569 0.615686 0.352941 0.121569 0.615686 0.352941 
0.121569 0.615686 0.352941 0.121569 0.615686 0.352941 
0.121569 0.615686 0.352941 0.121569 0.615686 0.352941 
0.121569 0.615686 0.352941 0.121569 0.615686 0.352941 
0.121569 0.615686 0.352941 0.121569 0.615686 0.352941 
0.121569 0.615686 0.352941 0.121569 0.615686 0.352941 
0.121569 0.615686 0.352941 0.121569 0.615686 0.352941 
0.121569 0.615686 0.352941 0.121569 0.615686 0.352941 
0.121569 0.615686 0.352941 0.121569 0.615686 0.352941 
0.121569 0.615686 0.352941 0.121569 0.615686 0.352941 
0.121569 0.615686 0.352941 0.121569 0.615686 0.352941 
0.121569 0.615686 0.352941 0.121569 0.615686 0.352941 
0.121569 0.615686 0.352941 0.121569 0.615686 0.352941 
0.121569 0.615686 0.352941 0.121569 0.615686 0.352941 
0.121569 0.615686 0.352941 0.121569 0.615686 0.352941 
0.121569 0.615686 0.352941 0.121569 0.615686 0.352941 
0.121569 0.615686 0.352941 0.121569 0.615686 0.352941 
0.121569 0.615686 0.352941 0.121569 0.615686 0.352941 
0.121569 0.615686 0.352941 0.121569 0.615686 0.352941 
0.121569 0.615686 0.352941 0.121569 0.615686 0.352941 
0.121569 0.615686 0.352941 0.121569 0.615686 0.352941 
0.121569 0.615686 0.352941 0.121569 0.615686 0.352941 
0.121569 0.615686 0.352941 0.121569 0.615686 0.352941 
0.121569 0.615686 0.352941 0.121569 0.615686 0.352941 
0.121569 0.615686 0.352941 0.121569 0.615686 0.352941 
0.121569 0.615686 0.352941 0.121569 0.615686 0.352941 
0.121569 0.615686 0.352941 0.121569 0.615686 0.352941 
0.121569 0.615686 0.352941 0.121569 0.615686 0.352941 
0.121569 0.615686 0.352941 0.121569 0.615686 0.352941 
0.121569 0.615686 0.352941 0.121569 0.615686 0.352941 
0.121569 0.615686 0.352941 0.121569 0.615686 0.352941 
0.121569 0.615686 0.352941 0.121569 0.615686 0.352941 
0.121569 0.615686 0.352941 0.121569 0.615686 0.352941 
0.121569 0.615686 0.352941 0.121569 0.615686 0.352941 
0.121569 0.615686 0.352941 0.121569 0.615686 0.352941 
0.121569 0.615686 0.352941 0.121569 0.615686 0.352941 
0.121569 0.615686 0.352941 0.121569 0.615686 0.352941 
0.121569 0.615686 0.352941 0.121569 0.615686 0.352941 
0.121569 0.615686 0.352941 0.121569 0.615686 0.352941 
0.121569 0.615686 0.352941 0.121569 0.615686 0.352941 
0.121569 0.615686 0.352941 0.121569 0.615686 0.352941 
0.121569 0.615686 0.352941 0.121569 0.615686 0.352941 
0.121569 0.615686 0.352941 0.121569 0.615686 0.352941 
0.121569 0.615686 0.352941 0.121569 0.615686 0.352941 
0.121569 0.615686 0.352941 0.121569 0.615686 0.352941 
0.121569 0.615686 0.352941 0.121569 0.615686 0.352941 
0.121569 0.615686 0.352941 0.121569 0.615686 0.352941 
0.121569 0.615686 0.352941 0.121569 0.615686 0.352941 
0.121569 0.615686 0.352941 0.121569 0.615686 0.352941 
0.121569 0.615686 0.352941 0.121569 0.615686 0.352941 
0.121569 0.615686 0.352941 0.121569 0.615686 0.352941 
0.121569 0.615686 0.352941 0.121569 0.615686 0.352941 
0.121569 0.615686 0.352941 0.121569 0.615686 0.352941 
0.121569 0.615686 0.352941 0.121569 0.615686 0.352941 
0.121569 0.615686 0.352941 0.121569 0.615686 0.352941 
0.121569 0.615686 0.352941 0.121569 0.615686 0.352941 
0.121569 0.615686 0.352941 0.121569 0.615686 0.352941 
0.121569 0.615686 0.352941 0.121569 0.615686 0.352941 
0.121569 0.615686 0.352941 0.121569 0.615686 0.352941 
0.121569 0.615686 0.352941 0.121569 0.615686 0.352941 
0.121569 0.615686 0.352941 0.121569 0.615686 0.352941 
0.121569 0.615686 0.352941 0.121569 0.615686 0.352941 
0.121569 0.615686 0.352941 0.121569 0.615686 0.352941 
0.121569 0.615686 0.352941 0.121569 0.615686 0.352941 
0.121569 0.615686 0.352941 0.121569 0.615686 0.352941 
0.121569 0.615686 0.352941 0.121569 0.615686 0.352941 
0.121569 0.615686 0.352941 0.121569 0.615686 0.352941 
0.121569 0.615686 0.352941 0.121569 0.615686 0.352941 
0.121569 0.615686 0.352941 0.121569 0.615686 0.352941 
0.121569 0.615686 0.352941 0.121569 0.615686 0.352941 
0.121569 0.615686 0.352941 0.121569 0.615686 0.352941 
0.121569 0.615686 0.352941 0.121569 0.615686 0.352941 
0.121569 0.615686 0.352941 0.121569 0.615686 0.352941 
0.121569 0.615686 0.352941 0.121569 0.615686 0.352941 
0.121569 0.615686 0.352941 0.121569 0.615686 0.352941 
0.121569 0.615686 0.352941 0.121569 0.615686 0.352941 
0.121569 0.615686 0.352941 0.121569 0.615686 0.352941 
0.121569 0.615686 0.352941 0.121569 0.615686 0.352941 
0.121569 0.615686 0.352941 0.121569 0.615686 0.352941 
0.121569 0.615686 0.352941 0.121569 0.615686 0.352941 
0.121569 0.615686 0.352941 0.121569 0.615686 0.352941 
0.121569 0.615686 0.352941 0.121569 0.615686 0.352941 
0.121569 0.615686 0.352941 0.121569 0.615686 0.352941 
0.121569 0.615686 0.352941 0.121569 0.615686 0.352941 
0.121569 0.615686 0.352941 0.121569 0.615686 0.352941 
0.121569 0.615686 0.352941 0.121569 0.615686 0.352941 
0.121569 0.615686 0.352941 0.121569 0.615686 0.352941 
0.121569 0.615686 0.352941 0.121569 0.615686 0.352941 
0.121569 0.615686 0.352941 0.121569 0.615686 0.352941 
0.121569 0.615686 0.352941 0.121569 0.615686 0.352941 
0.121569 0.615686 0.352941 0.121569 0.615686 0.352941 
0.121569 0.615686 0.352941 0.121569 0.615686 0.352941 
0.121569 0.615686 0.352941 0.121569 0.615686 0.352941 
0.121569 0.615686 0.352941 0.121569 0.615686 0.352941 
0.121569 0.615686 0.352941 0.121569 0.615686 0.352941 
0.121569 0.615686 0.352941 0.121569 0.615686 0.352941 
0.121569 0.615686 0.352941 0.121569 0.615686 0.352941 
0.121569 0.615686 0.352941 0.121569 0.615686 0.352941 
0.121569 0.615686 0.352941 0.121569 0.615686 0.352941 
0.121569 0.615686 0.352941 0.121569 0.615686 0.352941 
0.121569 0.615686 0.352941 0.121569 0.615686 0.352941 
0.121569 0.615686 0.352941 0.121569 0.615686 0.352941 
0.121569 0.615686 0.352941 0.121569 0.615686 0.352941 
0.121569 0.615686 0.352941 0.121569 0.615686 0.352941 
0.121569 0.615686 0.352941 0.121569 0.615686 0.352941 
0.121569 0.615686 0.352941 0.121569 0.615686 0.352941 
0.121569 0.615686 0.352941 0.121569 0.615686 0.352941 
0.121569 0.615686 0.352941 0.121569 0.615686 0.352941 
0.121569 0.615686 0.352941 0.121569 0.615686 0.352941 
0.121569 0.615686 0.352941 0.121569 0.615686 0.352941 
0.121569 0.615686 0.352941 0.121569 0.615686 0.352941 
0.121569 0.615686 0.352941 0.121569 0.615686 0.352941 
0.121569 0.615686 0.352941 0.121569 0.615686 0.352941 
0.121569 0.615686 0.352941 0.121569 0.615686 0.352941 
0.121569 0.615686 0.352941 0.121569 0.615686 0.352941 
0.121569 0.615686 0.352941 0.121569 0.615686 0.352941 
0.121569 0.615686 0.352941 0.121569 0.615686 0.352941 
0.121569 0.615686 0.352941 0.121569 0.615686 0.352941 
0.121569 0.615686 0.352941 0.121569 0.615686 0.352941 
0.121569 0.615686 0.352941 0.121569 0.615686 0.352941 
0.121569 0.615686 0.352941 0.121569 0.615686 0.352941 
0.121569 0.615686 0.352941 0.121569 0.615686 0.352941 
0.121569 0.615686 0.352941 0.121569 0.615686 0.352941 
0.121569 0.615686 0.352941 0.121569 0.615686 0.352941 
0.121569 0.615686 0.352941 0.121569 0.615686 0.352941 
0.121569 0.615686 0.352941 0.121569 0.615686 0.352941 
0.121569 0.615686 0.352941 0.121569 0.615686 0.352941 
0.121569 0.615686 0.352941 0.121569 0.615686 0.352941 
0.121569 0.615686 0.352941 0.121569 0.615686 0.352941 
0.121569 0.615686 0.352941 0.121569 0.615686 0.352941 
0.121569 0.615686 0.352941 0.121569 0.615686 0.352941 
0.121569 0.615686 0.352941 0.121569 0.615686 0.352941 
0.121569 0.615686 0.352941 0.121569 0.615686 0.352941 
0.121569 0.615686 0.352941 0.121569 0.615686 0.352941 
0.121569 0.615686 0.352941 0.121569 0.615686 0.352941 
0.121569 0.615686 0.352941 0.121569 0.615686 0.352941 
0.121569 0.615686 0.352941 0.121569 0.615686 0.352941 
0.121569 0.615686 0.352941 0.121569 0.615686 0.352941 
0.121569 0.615686 0.352941 0.121569 0.615686 0.352941 
0.121569 0.615686 0.352941 0.121569 0.615686 0.352941 
0.121569 0.615686 0.352941 0.121569 0.615686 0.352941 
0.121569 0.615686 0.352941 0.121569 0.615686 0.352941 
0.121569 0.615686 0.352941 0.121569 0.615686 0.352941 
0.121569 0.615686 0.352941 0.121569 0.615686 0.352941 
0.121569 0.615686 0.352941 0.121569 0.615686 0.352941 
0.121569 0.615686 0.352941 0.121569 0.615686 0.352941 
0.121569 0.615686 0.352941 0.121569 0.615686 0.352941 
0.121569 0.615686 0.352941 0.121569 0.615686 0.352941 
0.121569 0.615686 0.352941 0.121569 0.615686 0.352941 
0.121569 0.615686 0.352941 0.121569 0.615686 0.352941 
0.121569 0.615686 0.352941 0.121569 0.615686 0.352941 
0.121569 0.615686 0.352941 0.121569 0.615686 0.352941 
0.121569 0.615686 0.352941 0.121569 0.615686 0.352941 
0.121569 0.615686 0.352941 0.121569 0.615686 0.352941 
0.121569 0.615686 0.352941 0.121569 0.615686 0.352941 
0.121569 0.615686 0.352941 0.121569 0.615686 0.352941 
0.121569 0.615686 0.352941 0.121569 0.615686 0.352941 
0.121569 0.615686 0.352941 0.121569 0.615686 0.352941 
0.121569 0.615686 0.352941 0.121569 0.615686 0.352941 
0.121569 0.615686 0.352941 0.121569 0.615686 0.352941 
0.121569 0.615686 0.352941 0.121569 0.615686 0.352941 
0.121569 0.615686 0.352941 0.121569 0.615686 0.352941 
0.121569 0.615686 0.352941 0.121569 0.615686 0.352941 
0.121569 0.615686 0.352941 0.121569 0.615686 0.352941 
0.121569 0.615686 0.352941 0.121569 0.615686 0.352941 
0.121569 0.615686 0.352941 0.121569 0.615686 0.352941 
0.121569 0.615686 0.352941 0.121569 0.615686 0.352941 
0.121569 0.615686 0.352941 0.121569 0.615686 0.352941 
0.121569 0.615686 0.352941 0.121569 0.615686 0.352941 
0.121569 0.615686 0.352941 0.121569 0.615686 0.352941 
0.121569 0.615686 0.352941 0.121569 0.615686 0.352941 
0.121569 0.615686 0.352941 0.121569 0.615686 0.352941 
0.121569 0.615686 0.352941 0.121569 0.615686 0.352941 
0.121569 0.615686 0.352941 0.121569 0.615686 0.352941 
0.121569 0.615686 0.352941 0.121569 0.615686 0.352941 
0.121569 0.615686 0.352941 0.121569 0.615686 0.352941 
0.121569 0.615686 0.352941 0.121569 0.615686 0.352941 
0.121569 0.615686 0.352941 0.121569 0.615686 0.352941 
0.121569 0.615686 0.352941 0.121569 0.615686 0.352941 
0.121569 0.615686 0.352941 0.121569 0.615686 0.352941 
0.121569 0.615686 0.352941 0.121569 0.615686 0.352941 
0.121569 0.615686 0.352941 0.121569 0.615686 0.352941 