# vtk DataFile Version 4.2
vtk output
ASCII
DATASET POLYDATA
POINTS 2522 float
147.051 102.631 160.133 146.737 102.562 160.082 147.308 102.394 160.359 
146.35 102.959 159.95 146.159 103.142 159.986 147.066 102.922 160.075 
146.472 103.192 159.967 146.857 103.183 160.028 147.187 103.12 160.189 
146.276 102.393 160.271 147.622 102.336 160.596 147.373 101.99 160.674 
145.287 103.2 160.461 145.648 102.909 160.295 147.717 102.566 160.599 
145.56 103.583 160.437 146.611 103.482 160.096 146.785 103.751 160.3 
147.078 101.27 161.406 147.593 101.647 161.058 145.761 102.339 160.659 
148.071 101.896 161.401 145.016 103.225 160.989 145.18 102.824 160.786 
145.442 103.653 160.694 147.793 103.023 160.894 145.997 104.142 160.812 
145.858 104.205 161.114 146.598 104 160.434 146.427 104.408 161.06 
146.607 104.235 160.668 146.858 104.247 160.816 146.544 104.387 160.868 
146.711 104.365 160.864 161.428 95.4826 163.374 161.413 95.3579 163.497 
161.346 95.4798 163.399 161.623 95.5597 163.438 161.422 95.5821 163.391 
147.772 101.171 161.667 147.593 101.037 161.763 146.395 101.317 161.606 
148.148 101.476 161.915 148.293 101.878 161.931 148.305 102.348 161.924 
145.168 103.667 161.598 145.922 104.28 161.328 146.871 104.326 161.036 
161.273 95.437 163.513 161.197 95.5183 163.672 161.747 95.1715 163.674 
161.309 95.6001 163.496 161.513 95.8396 163.514 161.736 96.285 163.626 
161.992 96.5835 163.665 162.498 96.4848 163.614 162.191 96.5978 163.623 
148.342 101.428 162.522 144.822 101.984 162.71 144.848 103.014 162.17 
145.063 103.51 162.095 145.32 103.766 162.592 147.644 103.85 162.059 
163.143 94.0053 164.345 161.732 94.7453 164.03 163.825 94.6325 164.048 
161.327 94.9452 164.068 162.252 96.9157 163.836 163.258 98.172 164.32 
144.5 102.184 163.252 144.624 102.855 163.448 145.801 104.027 163.064 
146.493 104.323 162.776 160.963 94.9247 164.634 165.719 96.1238 164.293 
161.655 96.8962 164.197 164.941 96.9738 164.076 164.647 98.306 164.302 
147.011 100.291 163.429 148.736 101.235 164.243 144.929 103.332 164.112 
146.349 104.104 163.791 147.278 104.148 163.347 146.888 104.266 163.155 
166.048 91.9193 166.09 166.769 92.6063 165.757 162.266 93.3635 165.137 
166.649 94.6337 164.945 147.569 99.7639 164.889 147.334 99.3994 165.556 
163.036 98.7021 164.883 167.154 98.5856 165.104 144.919 99.6595 165.851 
148.068 100.099 164.674 148.666 100.379 165.197 144.212 101.168 164.62 
143.892 100.93 165.44 144.331 102.886 165.4 166.842 102.965 166.029 
144.732 103.219 165.158 145.219 103.557 164.957 145.69 103.753 165.475 
166.812 103.887 166.358 167.235 103.441 166.149 159 116.009 165.017 
159 116.009 165.017 159 116.009 165.017 159 116.009 165.017 
159 116.009 165.017 165.287 91.4538 166.523 167.659 91.9482 166.387 
161.225 93.2487 166.111 160.38 94.1062 166.418 160.552 96.1623 165.677 
146.227 98.917 166.513 148.638 99.5312 166.373 144.026 100.079 166.112 
143.279 100.938 166.431 143.075 101.3 166.665 149.487 101.429 166.08 
143.418 101.875 166.198 143.585 102.327 166.415 149.792 101.582 166.76 
166.796 102.31 165.918 148.332 103.496 165.558 146.275 103.882 166 
147 103.913 165.763 167.296 105.258 166.901 157.389 114.467 167.306 
157.326 114.643 167.236 157.525 114.67 167.11 157.566 114.779 166.987 
157.465 114.816 166.995 157.506 114.861 166.932 159 116.009 165.017 
157.569 114.818 166.949 157.526 114.866 166.92 168.288 90.1262 167.844 
169.185 89.9339 168.233 160.626 93.2786 166.881 160.012 94.8837 166.772 
159.921 95.5258 167.024 148.141 98.5165 167.537 149.629 99.9984 167.028 
149.654 100.441 166.738 142.871 101.504 167.106 144.249 103.256 167.646 
149.757 102.444 167.19 144.908 103.526 167.223 145.573 103.749 166.926 
146.164 103.941 167.488 147.741 103.818 166.62 169.398 104.708 167.179 
169.189 106.187 167.615 168.815 106.855 167.852 168.699 107.169 168.007 
168.854 107.106 168.214 168.591 107.262 168.025 157.032 113.14 167.997 
156.822 113.432 167.908 158.366 113.035 168.387 157.386 113.992 167.61 
157.75 113.799 167.835 158.212 113.386 168.151 158.196 113.488 168.157 
156.411 114.207 167.945 157.023 114.25 167.562 157.51 114.351 167.509 
157.546 114.714 167.08 157.765 113.899 168.114 156.662 114.363 167.725 
156.507 114.391 167.854 156.818 114.449 167.736 156.658 114.458 167.722 
157.464 114.689 167.171 156.594 114.446 167.746 166.899 89.7905 168.152 
169.988 90.3501 168.202 171.077 91.576 168.296 170.879 93.5408 167.505 
149.736 99.2317 167.883 162.208 100.275 167.139 142.158 101.037 168.189 
142.87 102.157 167.777 146.907 104.107 168.086 170.484 105.193 168.016 
169.371 106.359 167.832 167.717 107.144 168.129 167.029 107.724 168.952 
168.219 107.453 168.598 168.581 107.295 168.165 168.996 107.159 168.675 
167.621 107.693 168.661 156.564 111.574 168.793 157.661 111.4 168.8 
155.886 112.287 168.667 158.864 112.289 168.815 158.953 111.809 169.022 
159.111 112.148 169.037 158.695 112.608 168.685 156.031 113.419 168.331 
158.279 113.359 168.273 158.34 113.274 168.551 155.5 114.004 168.8 
156.327 114.335 168.207 156.575 114.446 167.82 169.221 89.0116 169.492 
170.875 89.6693 169.731 172.352 91.5231 169.839 145.977 97.9578 168.399 
141.967 100.191 168.607 141.567 101.329 169.04 172.544 102.848 168.767 
148.684 103.787 167.958 170.861 106.096 169.359 166.293 108.025 169.589 
166.79 108.009 169.328 167.512 107.885 169.469 166.853 108.07 169.409 
154.934 111.044 169.472 159.089 111.314 169.264 159.514 111.27 169.631 
154.293 112.139 169.587 159.279 112.102 169.181 159.298 111.887 169.246 
159.353 112.018 169.268 159.126 112.325 169.216 159.318 112.105 169.263 
156.738 114.081 169.511 169.704 88.6841 170.476 170.679 89.1769 170.332 
164.282 89.4258 169.73 149.574 97.486 169.792 142.036 98.6722 170.003 
139.777 100.088 170.665 151.853 100.795 169.613 139.613 100.889 170.819 
162.086 102.129 168.688 150.854 102.802 169.086 162.146 102.749 168.974 
150.068 103.558 169.017 148.582 104.524 169.512 163.167 107.922 170.042 
153.671 110.388 170.258 160.421 109.991 170.177 160.944 109.849 170.406 
163.059 108.84 170.497 164.282 108.749 170.569 160.12 110.581 170.076 
159.369 111.952 169.479 159.59 111.72 170.113 160.201 111.003 170.402 
171.189 89.4436 171.081 172.554 91.1331 171.456 149.218 95.9521 171.722 
158.425 94.3081 170.884 138.318 100.05 171.881 153.278 100.75 170.789 
140.722 102.049 170.503 174.664 102.137 170.633 143.737 103.979 170.59 
151.543 104.126 170.294 151.368 105.271 170.709 161.7 107.284 170.248 
161.782 108.061 170.292 152.561 108.679 171.001 159.862 108.907 170.193 
165.31 108.907 171.574 166.829 108.354 171.251 151.859 109.483 171.231 
162.222 109.217 170.68 164.851 108.992 171.29 161.682 110.203 171.466 
159.925 111.53 170.982 158.656 112.54 171.633 159.2 112.146 171.496 
153.371 113.812 170.937 154.768 114.285 170.856 154.123 114.265 171.306 
171.678 89.9092 172.023 158.918 91.8053 171.808 148.47 95.5518 172.111 
176.188 97.2831 172.577 154.56 98.1729 172.312 158.258 97.473 170.943 
138.039 98.9383 172.879 137.745 99.3677 172.689 176.65 98.9558 172.468 
176.729 99.1749 172.505 137.129 99.9753 172.855 136.735 99.8274 173.236 
136.803 100.054 173.086 158.499 100.14 171.187 159.215 99.5628 170.454 
136.924 100.32 173 137.592 100.332 172.466 176.172 100.9 172.122 
160.157 102.337 170.57 160.625 105.063 170.63 148.649 106.729 171.702 
152.437 106.23 171.035 172.828 105.375 171.792 163.505 109.617 172.192 
151.191 111.569 171.988 154.042 114.321 171.895 154.401 114.289 172.242 
153.476 114.254 172.033 157.699 93.9505 173.256 146.753 95.0664 173.624 
152.128 96.1486 174.126 156.957 95.5504 173.437 156.692 96.1824 173.247 
156.995 96.8455 172.452 156.285 96.927 172.998 156.405 97.9773 172.34 
155.323 99.5648 171.907 156.178 99.2491 172.018 157.78 98.7978 171.483 
136.335 99.8253 173.661 136.184 100.124 173.773 156.885 100.193 171.809 
157.821 99.9661 171.515 176.864 100.322 173.193 176.914 100.653 173.558 
176.791 101.098 173.741 158.448 102.753 171.679 176.214 102.001 173.357 
154.789 105.074 171.442 156.79 105.34 171.724 168.004 107.778 173.374 
161.907 110.333 173.041 149.951 112.14 173.342 156.814 113.31 172.992 
154.516 114.193 173.055 167.91 86.8964 174.829 165.967 87.2124 173.391 
181.767 88.9774 175.355 181.634 88.6545 175.561 170.166 88.4854 174.008 
181.083 90.1311 175.483 182.042 90.6285 175.083 180.711 91.5998 176.056 
181.395 92.5079 175.969 181.484 92.0276 175.571 182.066 91.7425 175.182 
181.942 92.0737 175.351 148.564 94.8153 173.874 149.465 94.9153 174.303 
182.338 92.4463 175.453 156.928 94.9585 174.471 156.191 96.3003 173.714 
155.182 97.0174 173.391 154.706 96.6372 174.113 155.581 96.4624 174.025 
138.438 98.0047 173.844 136.701 99.1449 173.821 135.974 100.867 174.215 
177.047 100.107 174.063 157.642 103.216 171.947 175.954 102.505 174.271 
157.472 104.241 171.943 149.693 112.405 173.766 150.168 113.448 174.285 
151.721 114.191 173.802 182.695 86.6394 176.316 183.535 86.9766 175.895 
180.591 89.521 176.094 182.622 89.6339 175.142 183.905 89.4288 175.295 
182.899 91.5719 175.154 184.111 91.9852 175.449 147.906 94.6792 174.493 
183.63 93.0855 175.715 145.373 95.0549 174.467 150.207 95.1815 174.922 
150.092 95.1611 175.504 182.697 93.55 176.276 183.63 93.5406 176.025 
156.16 95.8393 174.637 184.132 93.8569 176.329 153.671 96.3456 175.566 
136.775 98.3227 174.942 135.05 100.405 175.291 135.466 101.393 175.168 
176.756 101.234 174.787 149.68 113.695 175.153 185.762 85.6616 176.814 
185.837 87.6417 176.102 158.889 89.9389 175.576 179.685 90.4226 177.319 
179.62 90.9022 177.552 180.7 92.3666 176.579 144.866 94.8625 175.858 
183.11 94.13 177.144 184.563 93.7398 176.296 183.679 94.2146 176.96 
184.228 94.1917 176.791 141.675 95.7867 175.867 134.416 99.4785 176.32 
135.233 98.669 176.182 141.886 106.706 176.129 186.929 84.5978 177.667 
186.29 84.5208 177.802 187.563 84.1798 178.111 188.09 84.2235 178.056 
184.129 85.1478 177.596 187.968 84.8906 177.558 182.468 86.1509 177.156 
188 86.0233 177.176 158.424 90.6004 176.422 179.616 89.7711 177.764 
188.362 89.4224 176.94 179.421 90.7926 178.158 179.849 91.7705 177.629 
[...]
POINT_DATA 2522
COLOR_SCALARS scalars 3
0.121569 0.615686 0.352941 0.121569 0.615686 0.352941 0.121569 0.615686 0.352941 
0.121569 0.615686 0.352941 0.121569 0.615686 0.352941 
0.121569 0.615686 0.352941 0.121569 0.615686 0.352941 
0.121569 0.615686 0.352941 0.121569 0.615686 0.352941 
0.121569 0.615686 0.352941 0.121569 0.615686 0.352941 
0.121569 0.615686 0.352941 0.121569 0.615686 0.352941 
0.121569 0.615686 0.352941 0.121569 0.615686 0.352941 
0.121569 0.615686 0.352941 0.121569 0.615686 0.352941 
0.121569 0.615686 0.352941 0.121569 0.615686 0.352941 
0.121569 0.615686 0.352941 0.121569 0.615686 0.352941 
0.121569 0.615686 0.352941 0.121569 0.615686 0.352941 
0.121569 0.615686 0.352941 0.121569 0.615686 0.352941 
0.121569 0.615686 0.352941 0.121569 0.615686 0.352941 
0.121569 0.615686 0.352941 0.121569 0.615686 0.352941 
0.121569 0.615686 0.352941 0.121569 0.615686 0.352941 
0.121569 0.615686 0.352941 0.121569 0.615686 0.352941 
0.121569 0.615686 0.352941 0.121569 0.615686 0.352941 
0.121569 0.615686 0.352941 0.121569 0.615686 0.352941 
0.121569 0.615686 0.352941 0.121569 0.615686 0.352941 
0.121569 0.615686 0.352941 0.121569 0.615686 0.352941 
0.121569 0.615686 0.352941 0.121569 0.615686 0.352941 
0.121569 0.615686 0.352941 0.121569 0.615686 0.352941 
0.121569 0.615686 0.352941 0.121569 0.615686 0.352941 
0.121569 0.615686 0.352941 0.121569 0.615686 0.352941 
0.121569 0.615686 0.352941 0.121569 0.615686 0.352941 
0.121569 0.615686 0.352941 0.121569 0.615686 0.352941 
0.121569 0.615686 0.352941 0.121569 0.615686 0.352941 
0.121569 0.615686 0.352941 0.121569 0.615686 0.352941 
0.121569 0.615686 0.352941 0.121569 0.615686 0.352941 
0.121569 0.615686 0.352941 0.121569 0.615686 0.352941 
0.121569 0.615686 0.352941 0.121569 0.615686 0.352941 
0.121569 0.615686 0.352941 0.121569 0.615686 0.352941 
0.121569 0.615686 0.352941 0.121569 0.615686 0.352941 
0.121569 0.615686 0.352941 0.121569 0.615686 0.352941 
0.121569 0.615686 0.352941 0.121569 0.615686 0.352941 
0.121569 0.615686 0.352941 0.121569 0.615686 0.352941 
0.121569 0.615686 0.352941 0.121569 0.615686 0.352941 
0.121569 0.615686 0.352941 0.121569 0.615686 0.352941 
0.121569 0.615686 0.352941 0.121569 0.615686 0.352941 
0.121569 0.615686 0.352941 0.121569 0.615686 0.352941 
0.121569 0.615686 0.352941 0.121569 0.615686 0.352941 
0.121569 0.615686 0.352941 0.121569 0.615686 0.352941 
0.121569 0.615686 0.352941 0.121569 0.615686 0.352941 
0.121569 0.615686 0.352941 0.121569 0.615686 0.352941 
0.121569 0.615686 0.352941 0.121569 0.615686 0.352941 
0.121569 0.615686 0.352941 0.121569 0.615686 0.352941 
0.121569 0.615686 0.352941 0.121569 0.615686 0.352941 
0.121569 0.615686 0.352941 0.121569 0.615686 0.352941 
0.121569 0.615686 0.352941 0.121569 0.615686 0.352941 
0.121569 0.615686 0.352941 0.121569 0.615686 0.352941 
0.121569 0.615686 0.352941 0.121569 0.615686 0.352941 
0.121569 0.615686 0.352941 0.121569 0.615686 0.352941 
0.121569 0.615686 0.352941 0.121569 0.615686 0.352941 
0.121569 0.615686 0.352941 0.121569 0.615686 0.352941 
0.121569 0.615686 0.352941 0.121569 0.615686 0.352941 
0.121569 0.615686 0.352941 0.121569 0.615686 0.352941 
0.121569 0.615686 0.352941 0.121569 0.615686 0.352941 
0.121569 0.615686 0.352941 0.121569 0.615686 0.352941 
0.121569 0.615686 0.352941 0.121569 0.615686 0.352941 
0.121569 0.615686 0.352941 0.121569 0.615686 0.352941 
0.121569 0.615686 0.352941 0.121569 0.615686 0.352941 
0.121569 0.615686 0.352941 0.121569 0.615686 0.352941 
0.121569 0.615686 0.352941 0.121569 0.615686 0.352941 
0.121569 0.615686 0.352941 0.121569 0.615686 0.352941 
0.121569 0.615686 0.352941 0.121569 0.615686 0.352941 
0.121569 0.615686 0.352941 0.121569 0.615686 0.352941 
0.121569 0.615686 0.352941 0.121569 0.615686 0.352941 
0.121569 0.615686 0.352941 0.121569 0.615686 0.352941 
0.121569 0.615686 0.352941 0.121569 0.615686 0.352941 
0.121569 0.615686 0.352941 0.121569 0.615686 0.352941 
0.121569 0.615686 0.352941 0.121569 0.615686 0.352941 
0.121569 0.615686 0.352941 0.121569 0.615686 0.352941 
0.121569 0.615686 0.352941 0.121569 0.615686 0.352941 
0.121569 0.615686 0.352941 0.121569 0.615686 0.352941 
0.121569 0.615686 0.352941 0.121569 0.615686 0.352941 
0.121569 0.615686 0.352941 0.121569 0.615686 0.352941 
0.121569 0.615686 0.352941 0.121569 0.615686 0.352941 
0.121569 0.615686 0.352941 0.121569 0.615686 0.352941 
0.121569 0.615686 0.352941 0.121569 0.615686 0.352941 
0.121569 0.615686 0.352941 0.121569 0.615686 0.352941 
0.121569 0.615686 0.352941 0.121569 0.615686 0.352941 
0.121569 0.615686 0.352941 0.121569 0.615686 0.352941 
0.121569 0.615686 0.352941 0.121569 0.615686 0.352941 
0.121569 0.615686 0.352941 0.121569 0.615686 0.352941 
0.121569 0.615686 0.352941 0.121569 0.615686 0.352941 
0.121569 0.615686 0.352941 0.121569 0.615686 0.352941 
0.121569 0.615686 0.352941 0.121569 0.615686 0.352941 
0.121569 0.615686 0.352941 0.121569 0.615686 0.352941 
0.121569 0.615686 0.352941 0.121569 0.615686 0.352941 
0.121569 0.615686 0.352941 0.121569 0.615686 0.352941 
0.121569 0.615686 0.352941 0.121569 0.615686 0.352941 
0.121569 0.615686 0.352941 0.121569 0.615686 0.352941 
0.121569 0.615686 0.352941 0.121569 0.615686 0.352941 
0.121569 0.615686 0.352941 0.121569 0.615686 0.352941 
0.121569 0.615686 0.352941 0.121569 0.615686 0.352941 
0.121569 0.615686 0.352941 0.121569 0.615686 0.352941 
0.121569 0.615686 0.352941 0.121569 0.615686 0.352941 
0.121569 0.615686 0.352941 0.121569 0.615686 0.352941 
0.121569 0.615686 0.352941 0.121569 0.615686 0.352941 
0.121569 0.615686 0.352941 0.121569 0.615686 0.352941 
0.121569 0.615686 0.352941 0.121569 0.615686 0.352941 
0.121569 0.615686 0.352941 0.121569 0.615686 0.352941 
0.121569 0.615686 0.352941 0.121569 0.615686 0.352941 
0.121569 0.615686 0.352941 0.121569 0.615686 0.352941 
0.121569 0.615686 0.352941 0.121569 0.615686 0.352941 
0.121569 0.615686 0.352941 0.121569 0.615686 0.352941 
0.121569 0.615686 0.352941 0.121569 0.615686 0.352941 
0.121569 0.615686 0.352941 0.121569 0.615686 0.352941 
0.121569 0.615686 0.352941 0.121569 0.615686 0.352941 
0.121569 0.615686 0.352941 0.121569 0.615686 0.352941 
0.121569 0.615686 0.352941 0.121569 0.615686 0.352941 
0.121569 0.615686 0.352941 0.121569 0.615686 0.352941 
0.121569 0.615686 0.352941 0.121569 0.615686 0.352941 
0.121569 0.615686 0.352941 0.121569 0.615686 0.352941 
0.121569 0.615686 0.352941 0.121569 0.615686 0.352941 
0.121569 0.615686 0.352941 0.121569 0.615686 0.352941 
0.121569 0.615686 0.352941 0.121569 0.615686 0.352941 
0.121569 0.615686 0.352941 0.121569 0.615686 0.352941 
0.121569 0.615686 0.352941 0.121569 0.615686 0.352941 
0.121569 0.615686 0.352941 0.121569 0.615686 0.352941 
0.121569 0.615686 0.352941 0.121569 0.615686 0.352941 
0.121569 0.615686 0.352941 0.121569 0.615686 0.352941 
0.121569 0.615686 0.352941 0.121569 0.615686 0.352941 
0.121569 0.615686 0.352941 0.121569 0.615686 0.352941 
0.121569 0.615686 0.352941 0.121569 0.615686 0.352941 
0.121569 0.615686 0.352941 0.121569 0.615686 0.352941 
0.121569 0.615686 0.352941 0.121569 0.615686 0.352941 
0.121569 0.615686 0.352941 0.121569 0.615686 0.352941 
0.121569 0.615686 0.352941 0.121569 0.615686 0.352941 
0.121569 0.615686 0.352941 0.121569 0.615686 0.352941 
0.121569 0.615686 0.352941 0.121569 0.615686 0.352941 
0.121569 0.615686 0.352941 0.121569 0.615686 0.352941 
0.121569 0.615686 0.352941 0.121569 0.615686 0.352941 
0.121569 0.615686 0.352941 0.121569 0.615686 0.352941 
0.121569 0.615686 0.352941 0.121569 0.615686 0.352941 
0.121569 0.615686 0.352941 0.121569 0.615686 0.352941 
0.121569 0.615686 0.352941 0.121569 0.615686 0.352941 
0.121569 0.615686 0.352941 0.121569 0.615686 0.352941 
0.121569 0.615686 0.352941 0.121569 0.615686 0.352941 
0.121569 0.615686 0.352941 0.121569 0.615686 0.352941 
0.121569 0.615686 0.352941 0.121569 0.615686 0.352941 
0.121569 0.615686 0.352941 0.121569 0.615686 0.352941 
0.121569 0.615686 0.352941 0.121569 0.615686 0.352941 
0.121569 0.615686 0.352941 0.121569 0.615686 0.352941 
0.121569 0.615686 0.352941 0.121569 0.615686 0.352941 
0.121569 0.615686 0.352941 0.121569 0.615686 0.352941 
0.121569 0.615686 0.352941 0.121569 0.615686 0.352941 
0.121569 0.615686 0.352941 0.121569 0.615686 0.352941 
0.121569 0.615686 0.352941 0.121569 0.615686 0.352941 
0.121569 0.615686 0.352941 0.121569 0.615686 0.352941 
0.121569 0.615686 0.352941 0.121569 0.615686 0.352941 
0.121569 0.615686 0.352941 0.121569 0.615686 0.352941 
0.121569 0.615686 0.352941 0.121569 0.615686 0.352941 
0.121569 0.615686 0.352941 0.121569 0.615686 0.352941 
0.121569 0.615686 0.352941 0.121569 0.615686 0.352941 
0.121569 0.615686 0.352941 0.121569 0.615686 0.352941 
0.121569 0.615686 0.352941 0.121569 0.615686 0.352941 
0.121569 0.615686 0.352941 0.121569 0.615686 0.352941 
0.121569 0.615686 0.352941 0.121569 0.615686 0.352941 
0.121569 0.615686 0.352941 0.121569 0.615686 0.352941 
0.121569 0.615686 0.352941 0.121569 0.615686 0.352941 
0.121569 0.615686 0.352941 0.121569 0.615686 0.352941 
0.121569 0.615686 0.352941 0.121569 0.615686 0.352941 
0.121569 0.615686 0.352941 0.121569 0.615686 0.352941 
0.121569 0.615686 0.352941 0.121569 0.615686 0.352941 
0.121569 0.615686 0.352941 0.121569 0.615686 0.352941 
0.121569 0.615686 0.352941 0.121569 0.615686 0.352941 
0.121569 0.615686 0.352941 0.121569 0.615686 0.352941 
0.121569 0.615686 0.352941 0.121569 0.615686 0.352941 
0.121569 0.615686 0.352941 0.121569 0.615686 0.352941 
0.121569 0.615686 0.352941 0.121569 0.615686 0.352941 
0.121569 0.615686 0.352941 0.121569 0.615686 0.352941 
0.121569 0.615686 0.352941 0.121569 0.615686 0.352941 
0.121569 0.615686 0.352941 0.121569 0.615686 0.352941 
0.121569 0.615686 0.352941 0.121569 0.615686 0.352941 
0.121569 0.615686 0.352941 0.121569 0.615686 0.352941 
0.121569 0.615686 0.352941 0.121569 0.615686 0.352941 
0.121569 0.615686 0.352941 0.121569 0.615686 0.352941 
0.121569 0.615686 0.352941 0.121569 0.615686 0.352941 
0.121569 0.615686 0.352941 0.121569 0.615686 0.352941 
0.121569 0.615686 0.352941 0.121569 0.615686 0.352941 
0.121569 0.615686 0.352941 0.121569 0.615686 0.352941 
0.121569 0.615686 0.352941 0.121569 0.615686 0.352941 
0.121569 0.615686 0.352941 0.121569 0.615686 0.352941 
0.121569 0.615686 0.352941 0.121569 0.615686 0.352941 
0.121569 0.615686 0.352941 0.121569 0.615686 0.352941 
0.121569 0.615686 0.352941 0.121569 0.615686 0.352941 
0.121569 0.615686 0.352941 0.121569 0.615686 0.352941 
0.121569 0.615686 0.352941 0.121569 0.615686 0.352941 
0.121569 0.615686 0.352941 0.121569 0.615686 0.352941 
0.121569 0.615686 0.352941 0.121569 0.615686 0.352941 
0.121569 0.615686 0.352941 0.121569 0.615686 0.352941 
0.121569 0.615686 0.352941 0.121569 0.615686 0.352941 
0.121569 0.615686 0.352941 0.121569 0.615686 0.352941 
0.121569 0.615686 0.352941 0.121569 0.615686 0.352941 
0.121569 0.615686 0.352941 0.121569 0.615686 0.352941 
0.121569 0.615686 0.352941 0.121569 0.615686 0.352941 
0.121569 0.615686 0.352941 0.121569 0.615686 0.352941 
0.121569 0.615686 0.352941 0.121569 0.615686 0.352941 
0.121569 0.615686 0.352941 0.121569 0.615686 0.352941 
0.121569 0.615686 0.352941 0.121569 0.615686 0.352941 
0.121569 0.615686 0.352941 0.121569 0.615686 0.352941 
0.121569 0.615686 0.352941 0.121569 0.615686 0.352941 
0.121569 0.615686 0.352941 0.121569 0.615686 0.352941 
0.121569 0.615686 0.352941 0.121569 0.615686 0.352941 
0.121569 0.615686 0.352941 0.121569 0.615686 0.352941 
0.121569 0.615686 0.352941 0.121569 0.615686 0.352941 
0.121569 0.615686 0.352941 0.121569 0.615686 0.352941 
0.121569 0.615686 0.352941 0.121569 0.615686 0.352941 
0.121569 0.615686 0.352941 0.121569 0.615686 0.352941 
0.121569 0.615686 0.352941 0.121569 0.615686 0.352941 
0.121569 0.615686 0.352941 0.121569 0.615686 0.352941 
0.121569 0.615686 0.352941 0.121569 0.615686 0.352941 
0.121569 0.615686 0.352941 0.121569 0.615686 0.352941 
0.121569 0.615686 0.352941 0.121569 0.615686 0.352941 
0.121569 0.615686 0.352941 0.121569 0.615686 0.352941 
0.121569 0.615686 0.352941 0.121569 0.615686 0.352941 
0.121569 0.615686 0.352941 0.121569 0.615686 0.352941 
0.121569 0.615686 0.352941 0.121569 0.615686 0.352941 
0.121569 0.615686 0.352941 0.121569 0.615686 0.352941 
0.121569 0.615686 0.352941 0.121569 0.615686 0.352941 
0.121569 0.615686 0.352941 0.121569 0.615686 0.352941 
0.121569 0.615686 0.352941 0.121569 0.615686 0.352941 
0.121569 0.615686 0.352941 0.121569 0.615686 0.352941 
0.121569 0.615686 0.352941 0.121569 0.615686 0.352941 
0.121569 0.615686 0.352941 0.121569 0.615686 0.352941 
0.121569 0.615686 0.352941 0.121569 0.615686 0.352941 
0.121569 0.615686 0.352941 0.121569 0.615686 0.352941 
0.121569 0.615686 0.352941 0.121569 0.615686 0.352941 
0.121569 0.615686 0.352941 0.121569 0.615686 0.352941 
0.121569 0.615686 0.352941 0.121569 0.615686 0.352941 
0.121569 0.615686 0.352941 0.121569 0.615686 0.352941 
0.121569 0.615686 0.352941 0.121569 0.615686 0.352941 
0.121569 0.615686 0.352941 0.121569 0.615686 0.352941 
0.121569 0.615686 0.352941 0.121569 0.615686 0.352941 
0.121569 0.615686 0.352941 0.121569 0.615686 0.352941 
0.121569 0.615686 0.352941 0.121569 0.615686 0.352941 
0.121569 0.615686 0.352941 0.121569 0.615686 0.352941 
0.121569 0.615686 0.352941 0.121569 0.615686 0.352941 
0.121569 0.615686 0.352941 0.121569 0.615686 0.352941 
0.121569 0.615686 0.352941 0.121569 0.615686 0.352941 
0.121569 0.615686 0.352941 0.121569 0.615686 0.352941 
0.121569 0.615686 0.352941 0.121569 0.615686 0.352941 
0.121569 0.615686 0.352941 0.121569 0.615686 0.352941 
0.121569 0.615686 0.352941 0.121569 0.615686 0.352941 
0.121569 0.615686 0.352941 0.121569 0.615686 0.352941 
0.121569 0.615686 0.352941 0.121569 0.615686 0.352941 
0.121569 0.615686 0.352941 0.121569 0.615686 0.352941 
0.121569 0.615686 0.352941 0.121569 0.615686 0.352941 
0.121569 0.615686 0.352941 0.121569 0.615686 0.352941 
0.121569 0.615686 0.352941 0.121569 0.615686 0.352941 
0.121569 0.615686 0.352941 0.121569 0.615686 0.352941 
0.121569 0.615686 0.352941 0.121569 0.615686 0.352941 
0.121569 0.615686 0.352941 0.121569 0.615686 0.352941 
0.121569 0.615686 0.352941 0.121569 0.615686 0.352941 
0.121569 0.615686 0.352941 0.121569 0.615686 0.352941 
0.121569 0.615686 0.352941 0.121569 0.615686 0.352941 
0.121569 0.615686 0.352941 0.121569 0.615686 0.352941 
0.121569 0.615686 0.352941 0.121569 0.615686 0.352941 
0.121569 0.615686 0.352941 0.121569 0.615686 0.352941 
0.121569 0.615686 0.352941 0.121569 0.615686 0.352941 
0.121569 0.615686 0.352941 0.121569 0.615686 0.352941 
0.121569 0.615686 0.352941 0.121569 0.615686 0.352941 
0.121569 0.615686 0.352941 0.121569 0.615686 0.352941 
0.121569 0.615686 0.352941 0.121569 0.615686 0.352941 
0.121569 0.615686 0.352941 0.121569 0.615686 0.352941 
0.121569 0.615686 0.352941 0.121569 0.615686 0.352941 
0.121569 0.615686 0.352941 0.121569 0.615686 0.352941 
0.121569 0.615686 0.352941 0.121569 0.615686 0.352941 
0.121569 0.615686 0.352941 0.121569 0.615686 0.352941 
0.121569 0.615686 0.352941 0.121569 0.615686 0.352941 
0.121569 0.615686 0.352941 0.121569 0.615686 0.352941 
0.121569 0.615686 0.352941 0.121569 0.615686 0.352941 
0.121569 0.615686 0.352941 0.121569 0.615686 0.352941 
0.121569 0.615686 0.352941 0.121569 0.615686 0.352941 
0.121569 0.615686 0.352941 0.121569 0.615686 0.352941 
0.121569 0.615686 0.352941 0.121569 0.615686 0.352941 
0.121569 0.615686 0.352941 0.121569 0.615686 0.352941 
0.121569 0.615686 0.352941 0.121569 0.615686 0.352941 
0.121569 0.615686 0.352941 0.121569 0.615686 0.352941 
0.121569 0.615686 0.352941 0.121569 0.615686 0.352941 
0.121569 0.615686 0.352941 0.121569 0.615686 0.352941 
0.121569 0.615686 0.352941 0.121569 0.615686 0.352941 
0.121569 0.615686 0.352941 0.121569 0.615686 0.352941 
0.121569 0.615686 0.352941 0.121569 0.615686 0.352941 
0.121569 0.615686 0.352941 0.121569 0.615686 0.352941 
0.121569 0.615686 0.352941 0.121569 0.615686 0.352941 
0.121569 0.615686 0.352941 0.121569 0.615686 0.352941 
0.121569 0.615686 0.352941 0.121569 0.615686 0.352941 
0.121569 0.615686 0.352941 0.121569 0.615686 0.352941 
0.121569 0.615686 0.352941 0.121569 0.615686 0.352941 
0.121569 0.615686 0.352941 0.121569 0.615686 0.352941 
0.121569 0.615686 0.352941 0.121569 0.615686 0.352941 
0.121569 0.615686 0.352941 0.121569 0.615686 0.352941 
0.121569 0.615686 0.352941 0.121569 0.615686 0.352941 
0.121569 0.615686 0.352941 0.121569 0.615686 0.352941 
0.121569 0.615686 0.352941 0.121569 0.615686 0.352941 
0.121569 0.615686 0.352941 0.121569 0.615686 0.352941 
0.121569 0.615686 0.352941 0.121569 0.615686 0.352941 
0.121569 0.615686 0.352941 0.121569 0.615686 0.352941 
0.121569 0.615686 0.352941 0.121569 0.615686 0.352941 
0.121569 0.615686 0.352941 0.121569 0.615686 0.352941 
0.121569 0.615686 0.352941 0.121569 0.615686 0.352941 
0.121569 0.615686 0.352941 0.121569 0.615686 0.352941 
0.121569 0.615686 0.352941 0.121569 0.615686 0.352941 
0.121569 0.615686 0.352941 0.121569 0.615686 0.352941 
0.121569 0.615686 0.352941 0.121569 0.615686 0.352941 
0.121569 0.615686 0.352941 0.121569 0.615686 0.352941 
0.121569 0.615686 0.352941 0.121569 0.615686 0.352941 
0.121569 0.615686 0.352941 0.121569 0.615686 0.352941 
0.121569 0.615686 0.352941 0.121569 0.615686 0.352941 
0.121569 0.615686 0.352941 0.121569 0.615686 0.352941 
0.121569 0.615686 0.352941 0.121569 0.615686 0.352941 
0.121569 0.615686 0.352941 0.121569 0.615686 0.352941 
0.121569 0.615686 0.352941 0.121569 0.615686 0.352941 
0.121569 0.615686 0.352941 0.121569 0.615686 0.352941 
0.121569 0.615686 0.352941 0.121569 0.615686 0.352941 
0.121569 0.615686 0.352941 0.121569 0.615686 0.352941 
0.121569 0.615686 0.352941 0.121569 0.615686 0.352941 
0.121569 0.615686 0.352941 0.121569 0.615686 0.352941 
0.121569 0.615686 0.352941 0.121569 0.615686 0.352941 
0.121569 0.615686 0.352941 0.121569 0.615686 0.352941 
0.121569 0.615686 0.352941 0.121569 0.615686 0.352941 
0.121569 0.615686 0.352941 0.121569 0.615686 0.352941 
0.121569 0.615686 0.352941 0.121569 0.615686 0.352941 
0.121569 0.615686 0.352941 0.121569 0.615686 0.352941 
0.121569 0.615686 0.352941 0.121569 0.615686 0.352941 
0.121569 0.615686 0.352941 0.121569 0.615686 0.352941 
0.121569 0.615686 0.352941 0.121569 0.615686 0.352941 
0.121569 0.615686 0.352941 0.121569 0.615686 0.352941 
0.121569 0.615686 0.352941 0.121569 0.615686 0.352941 
0.121569 0.615686 0.352941 0.121569 0.615686 0.352941 
0.121569 0.615686 0.352941 0.121569 0.615686 0.352941 
0.121569 0.615686 0.352941 0.121569 0.615686 0.352941 
0.121569 0.615686 0.352941 0.121569 0.615686 0.352941 
0.121569 0.615686 0.352941 0.121569 0.615686 0.352941 
0.121569 0.615686 0.352941 0.121569 0.615686 0.352941 
0.121569 0.615686 0.352941 0.121569 0.615686 0.352941 
0.121569 0.615686 0.352941 0.121569 0.615686 0.352941 
0.121569 0.615686 0.352941 0.121569 0.615686 0.352941 
0.121569 0.615686 0.352941 0.121569 0.615686 0.352941 
0.121569 0.615686 0.352941 0.121569 0.615686 0.352941 
0.121569 0.615686 0.352941 0.121569 0.615686 0.352941 
0.121569 0.615686 0.352941 0.121569 0.615686 0.352941 
0.121569 0.615686 0.352941 0.121569 0.615686 0.352941 
0.121569 0.615686 0.352941 0.121569 0.615686 0.352941 
0.121569 0.615686 0.352941 0.121569 0.615686 0.352941 
0.121569 0.615686 0.352941 0.121569 0.615686 0.352941 
0.121569 0.615686 0.352941 0.121569 0.615686 0.352941 
0.121569 0.615686 0.352941 0.121569 0.615686 0.352941 
0.121569 0.615686 0.352941 0.121569 0.615686 0.352941 
0.121569 0.615686 0.352941 0.121569 0.615686 0.352941 
0.121569 0.615686 0.352941 0.121569 0.615686 0.352941 
0.121569 0.615686 0.352941 0.121569 0.615686 0.352941 
0.121569 0.615686 0.352941 0.121569 0.615686 0.352941 
0.121569 0.615686 0.352941 0.121569 0.615686 0.352941 
0.121569 0.615686 0.352941 0.121569 0.615686 0.352941 
0.121569 0.615686 0.352941 0.121569 0.615686 0.352941 
0.121569 0.615686 0.352941 0.121569 0.615686 0.352941 
0.121569 0.615686 0.352941 0.121569 0.615686 0.352941 
0.121569 0.615686 0.352941 0.121569 0.615686 0.352941 
0.121569 0.615686 0.352941 0.121569 0.615686 0.352941 