# vtk DataFile Version 4.2
vtk output
ASCII
DATASET POLYDATA
POINTS 810 float
210.212 75.9046 184.673 209.771 76.663 184.857 210.651 76.1592 184.569 
210.837 77.5613 184.517 211.15 77.9812 184.509 210.359 78.7776 184.718 
209.055 79.6838 185.442 210.716 79.3828 184.757 209.896 80.2053 185.088 
209.22 80.7915 185.459 210.216 80.7556 185.192 209.986 81.2532 185.414 
209.249 81.5634 185.715 210.004 84.0131 184.009 210.004 84.0132 184.009 
210.004 84.0132 184.009 210.004 84.0131 184.009 210.004 84.0132 184.009 
204.997 66.048 186.013 208.28 65.0586 185.55 204.327 67.1528 186.081 
207.219 68.161 185.238 209.13 69.1061 184.875 206.078 70.1506 186.21 
206.749 69.9306 185.741 207.075 71.6929 186.174 207.928 72.1753 185.714 
208.865 72.4137 185.259 210.982 72.1359 184.657 209.231 74.4126 185.192 
216.198 74.6755 184.902 211.345 79.119 184.69 212.534 78.7905 184.783 
212.782 79.9295 185.258 210.049 81.6518 185.691 211 81.6958 186.005 
212.871 80.9223 186.091 210.092 82.0135 186.117 210.004 84.0131 184.009 
209.249 82.1123 186.293 210.811 63.3983 186.438 205.062 64.7361 186.679 
218.862 71.0022 185.581 220.462 75.022 186.211 215.502 79.1615 186.095 
216.8 79.1229 186.969 213.059 81.0603 186.438 214.269 80.4359 186.674 
208.398 81.6217 186.605 208.211 81.4083 186.818 210.729 82.1202 186.641 
208.595 81.8865 186.616 208.547 82.0601 187.079 209.738 62.6886 187.072 
209.039 62.5484 187.35 214.435 63.4829 186.538 202.599 65.7813 187.785 
202.862 65.308 187.752 203.215 67.066 187.06 222.949 68.9375 186.284 
220.944 70.0394 185.994 205.292 70.7397 187.257 228.607 70.1663 187.186 
207.531 74.0256 186.526 222.598 75.1018 187.08 220.89 76.2633 186.967 
220.103 77.1794 187.364 221.364 76.7725 187.729 220.384 77.3103 187.756 
217.223 78.9544 187.162 216.904 79.2371 187.356 214.863 80.1537 186.831 
214.524 80.4761 187.122 212.668 81.4156 187.123 213.262 81.1624 187.288 
208.21 81.7897 187.524 209.558 82.4152 186.826 209.271 82.4667 187.088 
215.66 60.6363 188.079 217.545 60.6953 187.868 203.014 64.4194 188.278 
202.175 66.2706 188.365 230.606 66.9301 187.742 230.898 70.2759 187.991 
232.277 70.2651 188.536 229.715 71.9621 188.121 228.28 72.9361 188.097 
230.131 72.5476 188.825 227.009 74.3482 188.831 223.423 75.9781 188.295 
223.134 76.2695 188.554 224.292 75.6905 188.684 221.412 76.9735 188.102 
221.073 77.2378 188.327 221.587 77.0154 188.619 219.718 77.861 188.429 
216.76 79.385 187.706 214.355 80.6345 187.606 208.162 81.8913 188.173 
208.789 82.3882 187.701 222.903 57.1727 189.854 224.515 58.5753 188.892 
215.217 59.0176 189.798 229.029 59.0167 189.966 230.055 60.1648 190.215 
208.47 61.332 189.276 226.09 61.0412 188.104 203.928 63.1395 189.225 
232.417 64.587 189.558 232.769 64.5071 190.178 202.079 64.8703 189.069 
201.693 65.2753 189.55 233.671 65.7561 190.137 233.377 67.2508 188.994 
234.127 67.2766 189.584 234.806 68.1987 189.778 234.628 68.8215 189.523 
235.309 68.5276 190.106 235.257 68.9336 189.929 235.58 68.893 190.25 
233.83 69.5604 189.157 235.621 69.1654 190.138 235.72 69.3491 190.216 
234.409 69.9273 189.645 235.653 69.5127 190.276 233.619 70.7826 189.801 
232.463 71.5751 189.962 230.17 72.7877 189.17 229.851 73.0792 189.349 
230.327 72.8667 189.662 227.326 74.371 189.254 223.079 76.3949 188.935 
222.679 76.6011 189.215 223.872 76.0512 189.357 220.522 77.5645 188.951 
217.035 79.1309 189.09 213.251 81.0945 188.423 213.256 80.8569 189.293 
208.183 82.0023 188.933 208.837 82.3364 188.676 209.375 82.3918 188.716 
225.802 55.5133 191.011 222.589 56.5725 190.432 225.521 56.8429 189.898 
227.618 55.8788 190.951 228.015 56.0945 191.027 227.027 57.405 189.766 
229.143 57.5869 191.152 229.876 59.2229 191.307 201.628 64.4715 190.166 
232.736 64.2698 190.762 201.504 64.8056 190.08 201.276 64.8509 190.55 
233.97 65.9746 190.546 201.627 67.3232 190.108 235.756 69.1966 190.338 
235.773 69.4057 190.363 235.001 70.1159 190.275 234.761 70.3697 190.402 
232.53 71.7344 190.567 229.349 73.471 189.911 223.946 75.9781 189.934 
220.991 77.2277 189.983 211.304 81.6863 189.338 207.969 81.9836 189.704 
208.4 82.1878 189.553 208.091 82.1658 189.813 207.979 82.1214 189.957 
228.035 54.388 192.262 227.904 54.1442 192.439 228.453 54.9241 192.384 
228.437 56.1039 191.456 219.369 56.6937 191.484 229.092 57.2509 191.401 
215.88 58.1098 190.963 201.336 64.5428 190.802 232.381 63.7363 190.855 
234.295 66.4675 191.273 235.776 69.3121 190.536 234.424 70.6415 190.754 
234.145 70.8264 191.294 235.147 70.0279 191.336 231.914 72.0608 191.185 
204.123 73.6523 191.049 225.081 75.2742 190.945 221.617 76.7726 190.639 
209.774 81.8064 190.053 207.942 81.9552 190.26 208.125 82.1694 189.965 
207.979 82.0943 190.117 227.87 53.9559 192.834 227.629 54.069 192.491 
226.085 54.4779 192.104 228.709 55.1211 192.863 228.974 55.9326 192.791 
230.181 60.0329 192.466 201.476 64.2059 191.809 232.923 64.7195 191.877 
235.599 69.0667 191.542 235.594 69.3624 191.345 232.967 71.2355 192.129 
231.816 71.9321 191.748 205.721 76.9398 191.845 208.904 80.8876 191.284 
209.718 80.8701 191.208 222.716 55.0215 192.712 219.931 55.9865 192.769 
235.108 68.3886 192.299 235.241 69.3145 192.315 201.398 69.8648 193.138 
234.888 69.8043 192.386 202.708 72.4292 192.744 223.991 75.2719 191.907 
205.12 76.0953 192.727 214.943 76.8727 193.23 206.933 78.4956 192.196 
209.057 78.648 192.923 210.791 78.3473 193.036 208.153 79.9562 191.94 
207.949 80.3028 191.594 228.453 54.0266 194.26 200.998 64.892 194.211 
232.925 66.2206 193.741 200.704 68.5517 194.432 235.05 69.0777 192.755 
235.132 69.3451 192.701 235.092 69.5053 192.625 235.067 69.4408 192.787 
233.652 70.3416 192.921 232.271 70.6567 193.396 224.774 72.7146 194.101 
204.773 75.369 193.58 207.767 78.281 192.916 207.389 78.6195 192.528 
228.23 53.6189 194.618 228.184 53.4718 195.018 228.005 53.4462 194.756 
227.132 53.2458 195.246 228.643 54.1367 194.933 206.108 60.9598 194.733 
232.206 66.2172 194.419 233.721 67.4889 193.784 232.36 68.6179 194.481 
233.562 68.9707 193.834 234.766 69.0376 193.054 232.699 69.6329 193.965 
201.693 71.2555 194.947 204.051 74.3705 194.047 228.491 53.7546 195.537 
228.977 55.4467 195.865 202.668 62.9058 196.343 201.169 64.284 196.708 
230.61 64.6621 195.008 232.567 67.9983 194.476 233.224 67.958 194.161 
233.735 67.8771 193.842 200.655 68.7488 195.931 201.153 70.0186 196.239 
202.114 71.7545 195.68 204.137 74.0881 194.649 204.287 73.6655 195.342 
226.448 53.2695 197.129 227.5 53.264 196.324 228.664 54.1847 196.273 
228.753 54.762 196.503 218.879 55.8379 196.565 228.934 62.5223 196.2 
225.556 66.4421 197.167 201.726 70.6675 196.9 202.113 71.2243 196.836 
204.289 72.1549 196.96 225.627 53.38 197.716 226.89 53.3684 197.526 
228.326 58.1465 198.123 207.397 60.8207 198.08 202.627 71.3226 197.327 
202.336 71.1881 197.234 228.4 53.5406 196.849 228.274 53.4921 196.918 
227.401 53.6187 197.866 228.069 53.6906 197.266 228.296 53.5399 197.069 
214.105 58.048 198.266 227.348 62.5239 197.822 200.724 65.4857 198.801 
200.598 67.3071 198.068 201.197 68.7216 198.142 205.374 69.0016 199.293 
202.302 70.3666 197.92 202.584 69.9307 198.451 202.508 70.9225 197.606 
228.362 53.5105 196.985 227.615 54.3915 198.966 227.41 58.6963 199.66 
214.245 58.608 199.8 227.179 59.4859 199.512 209.915 60.1147 199.147 
211.844 59.5871 199.702 226.741 60.1617 199.603 207.015 61.319 199.086 
201.445 64.5478 199.376 201.766 64.3425 199.54 200.741 65.4707 199.52 
200.704 65.5935 199.387 200.726 66.0841 199.526 200.817 67.0502 199.271 
200.973 67.6178 198.961 201.419 68.2205 198.947 202.271 68.7618 199.229 
202.529 68.4562 199.536 201.908 68.7685 198.977 202.905 69.4757 198.914 
225.749 53.7561 199.742 226.069 53.8682 200.062 224.469 54.21 200.328 
227.534 56.4409 200.53 210.688 60.1865 199.888 225.104 60.1273 200.857 
225.451 59.728 200.93 221.593 60.9597 201.339 223.682 60.4039 201.202 
207.568 61.7983 200.191 219.832 62.0264 201.057 200.762 65.6108 199.609 
200.964 65.5956 199.858 200.762 66.2635 199.993 201.042 65.8985 200.074 
200.798 66.6108 199.655 203.485 67.3429 200.349 200.985 66.9446 199.71 
201.421 67.3191 199.843 201.604 67.1653 200.037 226.963 54.3351 200.244 
227.158 54.8442 200.598 225.545 54.1878 200.791 227.372 55.3929 200.659 
223.263 55.3241 201.409 218.969 57.2008 201.136 213.378 59.6402 200.759 
215.865 58.9105 201.208 224.613 58.7362 201.877 226.491 57.8491 201.419 
211.559 60.3299 200.531 204.745 63.3796 200.463 211.719 63.1815 201.314 
202.925 64.2746 200.338 201.645 65.334 200.429 202.956 64.6828 200.579 
200.875 66.3221 200.056 202.577 66.1907 200.725 199.004 67.0131 202.009 
199.004 67.0132 202.009 199.004 67.0132 202.009 199.004 67.0131 202.009 
201.596 66.1538 200.463 199.004 67.0132 202.009 226.525 54.2875 200.815 
226.805 54.7813 201.098 223.413 55.5966 201.817 227.053 55.9259 201.428 
219.519 57.3768 201.562 226.151 57.1685 202.022 218.238 58.0533 201.585 
223.769 58.1488 202.257 223.1 58.0675 202.318 223.526 57.6679 202.37 
225.055 57.4079 202.298 226.197 57.695 201.73 220.844 58.661 202.236 
222.003 58.7901 202.199 214.053 60.3235 201.46 214.631 59.9746 201.537 
209.687 61.9077 200.988 211.654 61.3158 201.184 212.237 60.8853 201.202 
213.559 61.0359 201.496 214.652 60.71 201.651 211.347 62.098 201.318 
199.004 67.0131 202.009 225.119 55.5069 202.237 226.718 55.7581 201.841 
225.075 55.7829 202.413 226.57 56.106 202.083 226.318 56.1077 202.28 
226.437 55.8568 202.178 222.939 57.01 202.308 225.415 56.4579 202.489 
219.751 58.2379 202.048 215.04 60.0822 201.703 225.947 55.4786 202.202 
226.339 55.5449 202.084 225.68 56.0536 202.473 226.252 55.3575 252.69 
225.996 55.0551 252.85 226.593 55.394 252.792 225.397 55.9877 252.436 
224.989 55.9952 252.455 225.014 56.2927 252.43 225.798 56.0041 252.497 
226.644 55.6736 252.792 226.844 55.4775 252.971 226.017 56.3359 252.64 
221.351 57.9147 252.47 221.316 57.7963 252.504 221.063 58.0443 252.566 
226.429 54.5303 253.206 226.711 54.805 253.093 226.65 54.5509 253.26 
226.951 54.6687 253.425 224.082 55.8184 252.796 223.793 55.3615 253.29 
[...]
POINT_DATA 810
COLOR_SCALARS scalars 3
0.121569 0.615686 0.352941 0.121569 0.615686 0.352941 0.121569 0.615686 0.352941 
0.121569 0.615686 0.352941 0.121569 0.615686 0.352941 
0.121569 0.615686 0.352941 0.121569 0.615686 0.352941 
0.121569 0.615686 0.352941 0.121569 0.615686 0.352941 
0.121569 0.615686 0.352941 0.121569 0.615686 0.352941 
0.121569 0.615686 0.352941 0.121569 0.615686 0.352941 
0.121569 0.615686 0.352941 0.121569 0.615686 0.352941 
0.121569 0.615686 0.352941 0.121569 0.615686 0.352941 
0.121569 0.615686 0.352941 0.121569 0.615686 0.352941 
0.121569 0.615686 0.352941 0.121569 0.615686 0.352941 
0.121569 0.615686 0.352941 0.121569 0.615686 0.352941 
0.121569 0.615686 0.352941 0.121569 0.615686 0.352941 
0.121569 0.615686 0.352941 0.121569 0.615686 0.352941 
0.121569 0.615686 0.352941 0.121569 0.615686 0.352941 
0.121569 0.615686 0.352941 0.121569 0.615686 0.352941 
0.121569 0.615686 0.352941 0.121569 0.615686 0.352941 
0.121569 0.615686 0.352941 0.121569 0.615686 0.352941 
0.121569 0.615686 0.352941 0.121569 0.615686 0.352941 
0.121569 0.615686 0.352941 0.121569 0.615686 0.352941 
0.121569 0.615686 0.352941 0.121569 0.615686 0.352941 
0.121569 0.615686 0.352941 0.121569 0.615686 0.352941 
0.121569 0.615686 0.352941 0.121569 0.615686 0.352941 
0.121569 0.615686 0.352941 0.121569 0.615686 0.352941 
0.121569 0.615686 0.352941 0.121569 0.615686 0.352941 
0.121569 0.615686 0.352941 0.121569 0.615686 0.352941 
0.121569 0.615686 0.352941 0.121569 0.615686 0.352941 
0.121569 0.615686 0.352941 0.121569 0.615686 0.352941 
0.121569 0.615686 0.352941 0.121569 0.615686 0.352941 
0.121569 0.615686 0.352941 0.121569 0.615686 0.352941 
0.121569 0.615686 0.352941 0.121569 0.615686 0.352941 
0.121569 0.615686 0.352941 0.121569 0.615686 0.352941 
0.121569 0.615686 0.352941 0.121569 0.615686 0.352941 
0.121569 0.615686 0.352941 0.121569 0.615686 0.352941 
0.121569 0.615686 0.352941 0.121569 0.615686 0.352941 
0.121569 0.615686 0.352941 0.121569 0.615686 0.352941 
0.121569 0.615686 0.352941 0.121569 0.615686 0.352941 
0.121569 0.615686 0.352941 0.121569 0.615686 0.352941 
0.121569 0.615686 0.352941 0.121569 0.615686 0.352941 
0.121569 0.615686 0.352941 0.121569 0.615686 0.352941 
0.121569 0.615686 0.352941 0.121569 0.615686 0.352941 
0.121569 0.615686 0.352941 0.121569 0.615686 0.352941 
0.121569 0.615686 0.352941 0.121569 0.615686 0.352941 
0.121569 0.615686 0.352941 0.121569 0.615686 0.352941 
0.121569 0.615686 0.352941 0.121569 0.615686 0.352941 
0.121569 0.615686 0.352941 0.121569 0.615686 0.352941 
0.121569 0.615686 0.352941 0.121569 0.615686 0.352941 
0.121569 0.615686 0.352941 0.121569 0.615686 0.352941 
0.121569 0.615686 0.352941 0.121569 0.615686 0.352941 
0.121569 0.615686 0.352941 0.121569 0.615686 0.352941 
0.121569 0.615686 0.352941 0.121569 0.615686 0.352941 
0.121569 0.615686 0.352941 0.121569 0.615686 0.352941 
0.121569 0.615686 0.352941 0.121569 0.615686 0.352941 
0.121569 0.615686 0.352941 0.121569 0.615686 0.352941 
0.121569 0.615686 0.352941 0.121569 0.615686 0.352941 
0.121569 0.615686 0.352941 0.121569 0.615686 0.352941 
0.121569 0.615686 0.352941 0.121569 0.615686 0.352941 
0.121569 0.615686 0.352941 0.121569 0.615686 0.352941 
0.121569 0.615686 0.352941 0.121569 0.615686 0.352941 
0.121569 0.615686 0.352941 0.121569 0.615686 0.352941 
0.121569 0.615686 0.352941 0.121569 0.615686 0.352941 
0.121569 0.615686 0.352941 0.121569 0.615686 0.352941 
0.121569 0.615686 0.352941 0.121569 0.615686 0.352941 
0.121569 0.615686 0.352941 0.121569 0.615686 0.352941 
0.121569 0.615686 0.352941 0.121569 0.615686 0.352941 
0.121569 0.615686 0.352941 0.121569 0.615686 0.352941 
0.121569 0.615686 0.352941 0.121569 0.615686 0.352941 
0.121569 0.615686 0.352941 0.121569 0.615686 0.352941 
0.121569 0.615686 0.352941 0.121569 0.615686 0.352941 
0.121569 0.615686 0.352941 0.121569 0.615686 0.352941 
0.121569 0.615686 0.352941 0.121569 0.615686 0.352941 
0.121569 0.615686 0.352941 0.121569 0.615686 0.352941 
0.121569 0.615686 0.352941 0.121569 0.615686 0.352941 
0.121569 0.615686 0.352941 0.121569 0.615686 0.352941 
0.121569 0.615686 0.352941 0.121569 0.615686 0.352941 
0.121569 0.615686 0.352941 0.121569 0.615686 0.352941 
0.121569 0.615686 0.352941 0.121569 0.615686 0.352941 
0.121569 0.615686 0.352941 0.121569 0.615686 0.352941 
0.121569 0.615686 0.352941 0.121569 0.615686 0.352941 
0.121569 0.615686 0.352941 0.121569 0.615686 0.352941 
0.121569 0.615686 0.352941 0.121569 0.615686 0.352941 
0.121569 0.615686 0.352941 0.121569 0.615686 0.352941 
0.121569 0.615686 0.352941 0.121569 0.615686 0.352941 
0.121569 0.615686 0.352941 0.121569 0.615686 0.352941 
0.121569 0.615686 0.352941 0.121569 0.615686 0.352941 
0.121569 0.615686 0.352941 0.121569 0.615686 0.352941 
0.121569 0.615686 0.352941 0.121569 0.615686 0.352941 
0.121569 0.615686 0.352941 0.121569 0.615686 0.352941 
0.121569 0.615686 0.352941 0.121569 0.615686 0.352941 
0.121569 0.615686 0.352941 0.121569 0.615686 0.352941 
0.121569 0.615686 0.352941 0.121569 0.615686 0.352941 
0.121569 0.615686 0.352941 0.121569 0.615686 0.352941 
0.121569 0.615686 0.352941 0.121569 0.615686 0.352941 
0.121569 0.615686 0.352941 0.121569 0.615686 0.352941 
0.121569 0.615686 0.352941 0.121569 0.615686 0.352941 
0.121569 0.615686 0.352941 0.121569 0.615686 0.352941 
0.121569 0.615686 0.352941 0.121569 0.615686 0.352941 
0.121569 0.615686 0.352941 0.121569 0.615686 0.352941 
0.121569 0.615686 0.352941 0.121569 0.615686 0.352941 
0.121569 0.615686 0.352941 0.121569 0.615686 0.352941 
0.121569 0.615686 0.352941 0.121569 0.615686 0.352941 
0.121569 0.615686 0.352941 0.121569 0.615686 0.352941 
0.121569 0.615686 0.352941 0.121569 0.615686 0.352941 
0.121569 0.615686 0.352941 0.121569 0.615686 0.352941 
0.121569 0.615686 0.352941 0.121569 0.615686 0.352941 
0.121569 0.615686 0.352941 0.121569 0.615686 0.352941 
0.121569 0.615686 0.352941 0.121569 0.615686 0.352941 
0.121569 0.615686 0.352941 0.121569 0.615686 0.352941 
0.121569 0.615686 0.352941 0.121569 0.615686 0.352941 
0.121569 0.615686 0.352941 0.121569 0.615686 0.352941 
0.121569 0.615686 0.352941 0.121569 0.615686 0.352941 
0.121569 0.615686 0.352941 0.121569 0.615686 0.352941 
0.121569 0.615686 0.352941 0.121569 0.615686 0.352941 
0.121569 0.615686 0.352941 0.121569 0.615686 0.352941 
0.121569 0.615686 0.352941 0.121569 0.615686 0.352941 
0.121569 0.615686 0.352941 0.121569 0.615686 0.352941 
0.121569 0.615686 0.352941 0.121569 0.615686 0.352941 
0.121569 0.615686 0.352941 0.121569 0.615686 0.352941 
0.121569 0.615686 0.352941 0.121569 0.615686 0.352941 
0.121569 0.615686 0.352941 0.121569 0.615686 0.352941 
0.121569 0.615686 0.352941 0.121569 0.615686 0.352941 
0.121569 0.615686 0.352941 0.121569 0.615686 0.352941 
0.121569 0.615686 0.352941 0.121569 0.615686 0.352941 
0.121569 0.615686 0.352941 0.121569 0.615686 0.352941 
0.121569 0.615686 0.352941 0.121569 0.615686 0.352941 
0.121569 0.615686 0.352941 0.121569 0.615686 0.352941 
0.121569 0.615686 0.352941 0.121569 0.615686 0.352941 
0.121569 0.615686 0.352941 0.121569 0.615686 0.352941 
0.121569 0.615686 0.352941 0.121569 0.615686 0.352941 
0.121569 0.615686 0.352941 0.121569 0.615686 0.352941 
0.121569 0.615686 0.352941 0.121569 0.615686 0.352941 
0.121569 0.615686 0.352941 0.121569 0.615686 0.352941 
0.121569 0.615686 0.352941 0.121569 0.615686 0.352941 
0.121569 0.615686 0.352941 0.121569 0.615686 0.352941 
0.121569 0.615686 0.352941 0.121569 0.615686 0.352941 
0.121569 0.615686 0.352941 0.121569 0.615686 0.352941 
0.121569 0.615686 0.352941 0.121569 0.615686 0.352941 
0.121569 0.615686 0.352941 0.121569 0.615686 0.352941 
0.121569 0.615686 0.352941 0.121569 0.615686 0.352941 
0.121569 0.615686 0.352941 0.121569 0.615686 0.352941 
0.121569 0.615686 0.352941 0.121569 0.615686 0.352941 
0.121569 0.615686 0.352941 0.121569 0.615686 0.352941 
0.121569 0.615686 0.352941 0.121569 0.615686 0.352941 
0.121569 0.615686 0.352941 0.121569 0.615686 0.352941 
0.121569 0.615686 0.352941 0.121569 0.615686 0.352941 
0.121569 0.615686 0.352941 0.121569 0.615686 0.352941 
0.121569 0.615686 0.352941 0.121569 0.615686 0.352941 
0.121569 0.615686 0.352941 0.121569 0.615686 0.352941 
0.121569 0.615686 0.352941 0.121569 0.615686 0.352941 
0.121569 0.615686 0.352941 0.121569 0.615686 0.352941 
0.121569 0.615686 0.352941 0.121569 0.615686 0.352941 
0.121569 0.615686 0.352941 0.121569 0.615686 0.352941 
0.121569 0.615686 0.352941 0.121569 0.615686 0.352941 
0.121569 0.615686 0.352941 0.121569 0.615686 0.352941 
0.121569 0.615686 0.352941 0.121569 0.615686 0.352941 
0.121569 0.615686 0.352941 0.121569 0.615686 0.352941 
0.121569 0.615686 0.352941 0.121569 0.615686 0.352941 
0.121569 0.615686 0.352941 0.121569 0.615686 0.352941 
0.121569 0.615686 0.352941 0.121569 0.615686 0.352941 
0.121569 0.615686 0.352941 0.121569 0.615686 0.352941 
0.121569 0.615686 0.352941 0.121569 0.615686 0.352941 
0.121569 0.615686 0.352941 0.121569 0.615686 0.352941 
0.121569 0.615686 0.352941 0.121569 0.615686 0.352941 
0.121569 0.615686 0.352941 0.121569 0.615686 0.352941 
0.121569 0.615686 0.352941 0.121569 0.615686 0.352941 
0.121569 0.615686 0.352941 0.121569 0.615686 0.352941 
0.121569 0.615686 0.352941 0.121569 0.615686 0.352941 
0.121569 0.615686 0.352941 0.121569 0.615686 0.352941 
0.121569 0.615686 0.352941 0.121569 0.615686 0.352941 
0.121569 0.615686 0.352941 0.121569 0.615686 0.352941 
0.121569 0.615686 0.352941 0.121569 0.615686 0.352941 
0.121569 0.615686 0.352941 0.121569 0.615686 0.352941 
0.121569 0.615686 0.352941 0.121569 0.615686 0.352941 
0.121569 0.615686 0.352941 0.121569 0.615686 0.352941 
0.121569 0.615686 0.352941 0.121569 0.615686 0.352941 
0.121569 0.615686 0.352941 0.121569 0.615686 0.352941 
0.121569 0.615686 0.352941 0.121569 0.615686 0.352941 
0.121569 0.615686 0.352941 0.121569 0.615686 0.352941 
0.121569 0.615686 0.352941 0.121569 0.615686 0.352941 
0.121569 0.615686 0.352941 0.121569 0.615686 0.352941 
0.121569 0.615686 0.352941 0.121569 0.615686 0.352941 
0.121569 0.615686 0.352941 0.121569 0.615686 0.352941 
0.121569 0.615686 0.352941 0.121569 0.615686 0.352941 
0.121569 0.615686 0.352941 0.121569 0.615686 0.352941 
0.121569 0.615686 0.352941 0.121569 0.615686 0.352941 
0.121569 0.615686 0.352941 0.121569 0.615686 0.352941 
0.121569 0.615686 0.352941 0.121569 0.615686 0.352941 
0.121569 0.615686 0.352941 0.121569 0.615686 0.352941 
0.121569 0.615686 0.352941 0.121569 0.615686 0.352941 
0.121569 0.615686 0.352941 0.121569 0.615686 0.352941 
0.121569 0.615686 0.352941 0.121569 0.615686 0.352941 
0.121569 0.615686 0.352941 0.121569 0.615686 0.352941 
0.121569 0.615686 0.352941 0.121569 0.615686 0.352941 
0.121569 0.615686 0.352941 0.121569 0.615686 0.352941 
0.121569 0.615686 0.352941 0.121569 0.615686 0.352941 
0.121569 0.615686 0.352941 0.121569 0.615686 0.352941 
0.121569 0.615686 0.352941 0.121569 0.615686 0.352941 
0.121569 0.615686 0.352941 0.121569 0.615686 0.352941 
0.121569 0.615686 0.352941 0.121569 0.615686 0.352941 
0.121569 0.615686 0.352941 0.121569 0.615686 0.352941 
0.121569 0.615686 0.352941 0.121569 0.615686 0.352941 
0.121569 0.615686 0.352941 0.121569 0.615686 0.352941 
0.121569 0.615686 0.352941 0.121569 0.615686 0.352941 
0.121569 0.615686 0.352941 0.121569 0.615686 0.352941 
0.121569 0.615686 0.352941 0.121569 0.615686 0.352941 
0.121569 0.615686 0.352941 0.121569 0.615686 0.352941 
0.121569 0.615686 0.352941 0.121569 0.615686 0.352941 
0.121569 0.615686 0.352941 0.121569 0.615686 0.352941 
0.121569 0.615686 0.352941 0.121569 0.615686 0.352941 
0.121569 0.615686 0.352941 0.121569 0.615686 0.352941 
0.121569 0.615686 0.352941 0.121569 0.615686 0.352941 
0.121569 0.615686 0.352941 0.121569 0.615686 0.352941 
0.121569 0.615686 0.352941 0.121569 0.615686 0.352941 
0.121569 0.615686 0.352941 0.121569 0.615686 0.352941 
0.121569 0.615686 0.352941 0.121569 0.615686 0.352941 
0.121569 0.615686 0.352941 0.121569 0.615686 0.352941 
0.121569 0.615686 0.352941 0.121569 0.615686 0.352941 
0.121569 0.615686 0.352941 0.121569 0.615686 0.352941 
0.121569 0.615686 0.352941 0.121569 0.615686 0.352941 
0.121569 0.615686 0.352941 0.121569 0.615686 0.352941 
0.121569 0.615686 0.352941 0.121569 0.615686 0.352941 
0.121569 0.615686 0.352941 0.121569 0.615686 0.352941 
0.121569 0.615686 0.352941 0.121569 0.615686 0.352941 
0.121569 0.615686 0.352941 0.121569 0.615686 0.352941 
0.121569 0.615686 0.352941 0.121569 0.615686 0.352941 
0.121569 0.615686 0.352941 0.121569 0.615686 0.352941 
0.121569 0.615686 0.352941 0.121569 0.615686 0.352941 
0.121569 0.615686 0.352941 0.121569 0.615686 0.352941 
0.121569 0.615686 0.352941 0.121569 0.615686 0.352941 
0.121569 0.615686 0.352941 0.121569 0.615686 0.352941 
0.121569 0.615686 0.352941 0.121569 0.615686 0.352941 
0.121569 0.615686 0.352941 0.121569 0.615686 0.352941 
0.121569 0.615686 0.352941 0.121569 0.615686 0.352941 
0.121569 0.615686 0.352941 0.121569 0.615686 0.352941 
0.121569 0.615686 0.352941 0.121569 0.615686 0.352941 
0.121569 0.615686 0.352941 0.121569 0.615686 0.352941 
0.121569 0.615686 0.352941 0.121569 0.615686 0.352941 
0.121569 0.615686 0.352941 0.121569 0.615686 0.352941 
0.121569 0.615686 0.352941 0.121569 0.615686 0.352941 
0.121569 0.615686 0.352941 0.121569 0.615686 0.352941 
0.121569 0.615686 0.352941 0.121569 0.615686 0.352941 
0.121569 0.615686 0.352941 0.121569 0.615686 0.352941 
0.121569 0.615686 0.352941 0.121569 0.615686 0.352941 
0.121569 0.615686 0.352941 0.121569 0.615686 0.352941 
0.121569 0.615686 0.352941 0.121569 0.615686 0.352941 
0.121569 0.615686 0.352941 0.121569 0.615686 0.352941 
0.121569 0.615686 0.352941 0.121569 0.615686 0.352941 
0.121569 0.615686 0.352941 0.121569 0.615686 0.352941 
0.121569 0.615686 0.352941 0.121569 0.615686 0.352941 
0.121569 0.615686 0.352941 0.121569 0.615686 0.352941 
0.121569 0.615686 0.352941 0.121569 0.615686 0.352941 
0.121569 0.615686 0.352941 0.121569 0.615686 0.352941 
0.121569 0.615686 0.352941 0.121569 0.615686 0.352941 
0.121569 0.615686 0.352941 0.121569 0.615686 0.352941 
0.121569 0.615686 0.352941 0.121569 0.615686 0.352941 
0.121569 0.615686 0.352941 0.121569 0.615686 0.352941 
0.121569 0.615686 0.352941 0.121569 0.615686 0.352941 
0.121569 0.615686 0.352941 0.121569 0.615686 0.352941 
0.121569 0.615686 0.352941 0.121569 0.615686 0.352941 
0.121569 0.615686 0.352941 0.121569 0.615686 0.352941 
0.121569 0.615686 0.352941 0.121569 0.615686 0.352941 
0.121569 0.615686 0.352941 0.121569 0.615686 0.352941 
0.121569 0.615686 0.352941 0.121569 0.615686 0.352941 
0.121569 0.615686 0.352941 0.121569 0.615686 0.352941 
0.121569 0.615686 0.352941 0.121569 0.615686 0.352941 
0.121569 0.615686 0.352941 0.121569 0.615686 0.352941 
0.121569 0.615686 0.352941 0.121569 0.615686 0.352941 
0.121569 0.615686 0.352941 0.121569 0.615686 0.352941 
0.121569 0.615686 0.352941 0.121569 0.615686 0.352941 
0.121569 0.615686 0.352941 0.121569 0.615686 0.352941 
0.121569 0.615686 0.352941 0.121569 0.615686 0.352941 
0.121569 0.615686 0.352941 0.121569 0.615686 0.352941 
0.121569 0.615686 0.352941 0.121569 0.615686 0.352941 
0.121569 0.615686 0.352941 0.121569 0.615686 0.352941 
0.121569 0.615686 0.352941 0.121569 0.615686 0.352941 
0.121569 0.615686 0.352941 0.121569 0.615686 0.352941 
0.121569 0.615686 0.352941 0.121569 0.615686 0.352941 
0.121569 0.615686 0.352941 0.121569 0.615686 0.352941 
0.121569 0.615686 0.352941 0.121569 0.615686 0.352941 
0.121569 0.615686 0.352941 0.121569 0.615686 0.352941 
0.121569 0.615686 0.352941 0.121569 0.615686 0.352941 
0.121569 0.615686 0.352941 0.121569 0.615686 0.352941 
0.121569 0.615686 0.352941 0.121569 0.615686 0.352941 
0.121569 0.615686 0.352941 0.121569 0.615686 0.352941 
0.121569 0.615686 0.352941 0.121569 0.615686 0.352941 
0.121569 0.615686 0.352941 0.121569 0.615686 0.352941 
0.121569 0.615686 0.352941 0.121569 0.615686 0.352941 
0.121569 0.615686 0.352941 0.121569 0.615686 0.352941 
0.121569 0.615686 0.352941 0.121569 0.615686 0.352941 
0.121569 0.615686 0.352941 0.121569 0.615686 0.352941 
0.121569 0.615686 0.352941 0.121569 0.615686 0.352941 
0.121569 0.615686 0.352941 0.121569 0.615686 0.352941 
0.121569 0.615686 0.352941 0.121569 0.615686 0.352941 
0.121569 0.615686 0.352941 0.121569 0.615686 0.352941 
0.121569 0.615686 0.352941 0.121569 0.615686 0.352941 
0.121569 0.615686 0.352941 0.121569 0.615686 0.352941 
0.121569 0.615686 0.352941 0.121569 0.615686 0.352941 
0.121569 0.615686 0.352941 0.121569 0.615686 0.352941 
0.121569 0.615686 0.352941 0.121569 0.615686 0.352941 
0.121569 0.615686 0.352941 0.121569 0.615686 0.352941 
0.121569 0.615686 0.352941 0.121569 0.615686 0.352941 
0.121569 0.615686 0.352941 0.121569 0.615686 0.352941 
0.121569 0.615686 0.352941 0.121569 0.615686 0.352941 
0.121569 0.615686 0.352941 0.121569 0.615686 0.352941 
0.121569 0.615686 0.352941 0.121569 0.615686 0.352941 
0.121569 0.615686 0.352941 0.121569 0.615686 0.352941 
0.121569 0.615686 0.352941 0.121569 0.615686 0.352941 
0.121569 0.615686 0.352941 0.121569 0.615686 0.352941 
0.121569 0.615686 0.352941 0.121569 0.615686 0.352941 
0.121569 0.615686 0.352941 0.121569 0.615686 0.352941 
0.121569 0.615686 0.352941 0.121569 0.615686 0.352941 
0.121569 0.615686 0.352941 0.121569 0.615686 0.352941 
0.121569 0.615686 0.352941 0.121569 0.615686 0.352941 
0.121569 0.615686 0.352941 0.121569 0.615686 0.352941 
0.121569 0.615686 0.352941 0.121569 0.615686 0.352941 
0.121569 0.615686 0.352941 0.121569 0.615686 0.352941 
0.121569 0.615686 0.352941 0.121569 0.615686 0.352941 
0.121569 0.615686 0.352941 0.121569 0.615686 0.352941 
0.121569 0.615686 0.352941 0.121569 0.615686 0.352941 
0.121569 0.615686 0.352941 0.121569 0.615686 0.352941 
0.121569 0.615686 0.352941 0.121569 0.615686 0.352941 
0.121569 0.615686 0.352941 0.121569 0.615686 0.352941 
0.121569 0.615686 0.352941 0.121569 0.615686 0.352941 
0.121569 0.615686 0.352941 0.121569 0.615686 0.352941 
0.121569 0.615686 0.352941 0.121569 0.615686 0.352941 
0.121569 0.615686 0.352941 0.121569 0.615686 0.352941 
0.121569 0.615686 0.352941 0.121569 0.615686 0.352941 
0.121569 0.615686 0.352941 0.121569 0.615686 0.352941 
0.121569 0.615686 0.352941 0.121569 0.615686 0.352941 
0.121569 0.615686 0.352941 0.121569 0.615686 0.352941 
0.121569 0.615686 0.352941 0.121569 0.615686 0.352941 
0.121569 0.615686 0.352941 0.121569 0.615686 0.352941 
0.121569 0.615686 0.352941 0.121569 0.615686 0.352941 
0.121569 0.615686 0.352941 0.121569 0.615686 0.352941 
0.121569 0.615686 0.352941 0.121569 0.615686 0.352941 
0.121569 0.615686 0.352941 0.121569 0.615686 0.352941 
0.121569 0.615686 0.352941 0.121569 0.615686 0.352941 
0.121569 0.615686 0.352941 0.121569 0.615686 0.352941 
0.121569 0.615686 0.352941 0.121569 0.615686 0.352941 
0.121569 0.615686 0.352941 0.121569 0.615686 0.352941 
0.121569 0.615686 0.352941 0.121569 0.615686 0.352941 
0.121569 0.615686 0.352941 0.121569 0.615686 0.352941 
0.121569 0.615686 0.352941 0.121569 0.615686 0.352941 
0.121569 0.615686 0.352941 0.121569 0.615686 0.352941 
0.121569 0.615686 0.352941 0.121569 0.615686 0.352941 
0.121569 0.615686 0.352941 0.121569 0.615686 0.352941 
0.121569 0.615686 0.352941 0.121569 0.615686 0.352941 
0.121569 0.615686 0.352941 0.121569 0.615686 0.352941 
0.121569 0.615686 0.352941 0.121569 0.615686 0.352941 
0.121569 0.615686 0.352941 0.121569 0.615686 0.352941 
0.121569 0.615686 0.352941 0.121569 0.615686 0.352941 
0.121569 0.615686 0.352941 0.121569 0.615686 0.352941 
0.121569 0.615686 0.352941 0.121569 0.615686 0.352941 
0.121569 0.615686 0.352941 0.121569 0.615686 0.352941 
0.121569 0.615686 0.352941 0.121569 0.615686 0.352941 
0.121569 0.615686 0.352941 0.121569 0.615686 0.352941 
0.121569 0.615686 0.352941 0.121569 0.615686 0.352941 
0.121569 0.615686 0.352941 0.121569 0.615686 0.352941 
0.121569 0.615686 0.352941 0.121569 0.615686 0.352941 
0.121569 0.615686 0.352941 0.121569 0.615686 0.352941 
0.121569 0.615686 0.352941 0.121569 0.615686 0.352941 
0.121569 0.615686 0.352941 0.121569 0.615686 0.352941 
0.121569 0.615686 0.352941 0.121569 0.615686 0.352941 