# vtk DataFile Version 4.2
vtk output
ASCII
DATASET POLYDATA
POINTS 925 float
133.134 132.987 135.607 132.99 132.76 135.611 133.3 132.758 135.602 
133.147 133.218 135.696 132.948 133.417 135.839 133.571 130.753 135.796 
132.681 131.358 135.761 134.916 131.525 135.942 132.509 132.634 135.748 
134.469 132.346 135.848 131.57 132.819 136.063 134.063 127.976 136.681 
131.525 131.142 136.172 135.663 133.04 136.411 134.843 133.802 136.44 
133.633 126.326 137.387 136.551 130.662 136.851 133.294 134.698 136.792 
134.46 134.659 136.921 130.289 135.386 137.967 132.608 135.262 137.426 
133.594 124.63 138.189 135.358 124.499 138.31 138.216 130.999 137.933 
127.651 136.108 139.538 127.581 135.919 139.461 127.5 136.088 139.69 
135.508 122.172 139.491 136.582 121.937 139.779 132.271 123.757 139.168 
126.653 134.846 139.73 127.851 135.492 139.14 136.475 136.051 138.653 
136.725 136.483 139.097 140.371 136.183 139.484 140.623 137.277 139.83 
141.598 138.752 140.264 141.97 138.776 140.348 141.464 139.005 140.378 
126.225 131.479 140.197 141.354 132.84 140.004 125.833 133.893 140.534 
130.493 136.928 139.805 141.052 139.425 140.628 143.891 142.768 141.495 
144.08 142.842 141.566 137.278 118.843 141.615 137.927 119.661 141.331 
131.722 122.129 140.708 125.475 132.541 141.45 125.42 133.485 141.625 
125.461 134.253 141.351 125.775 134.89 141.425 126.405 135.917 141.273 
143.764 142.109 141.38 143.341 142.537 141.646 145.558 142.682 141.602 
144.219 143.673 142.089 145.688 144.427 142.154 146.072 145.469 142.715 
146.395 145.097 142.298 146.454 145.498 142.506 146.781 145.474 142.439 
137.797 117.83 142.34 136.418 118.393 141.944 133.364 120.078 141.546 
140.155 121.338 142.013 125.285 130.667 142.155 125.499 134.387 141.491 
125.466 134.172 141.994 127.85 137.401 142.591 136.215 138.199 141.062 
140.843 140.894 141.589 142.852 142.696 142.009 143.498 143.819 142.708 
147.011 143.44 142.044 147.771 144.464 142.458 147.11 146.132 142.942 
146.968 146.025 142.807 147.228 146.002 142.838 147.132 146.121 142.853 
139.797 116.755 143.486 126.094 126.17 142.903 125.688 134.919 142.781 
126.883 136.594 142.961 130.746 138.162 142.007 136.318 139.029 142.11 
147.896 140.49 142.955 148.907 142.693 143.409 144.63 145.145 144.098 
144.944 145.166 143.42 147.806 145.864 142.998 148.821 145.885 143.523 
147.369 146.103 143.243 147.212 146.136 142.942 148.127 146.141 143.461 
148.489 146.213 143.513 148.348 146.11 143.336 148.598 146.112 143.473 
148.532 146.212 143.453 125.246 127.779 144.748 125.256 128.706 144.676 
126.462 135.964 144.318 128.626 138.16 144.144 136.328 139.891 143.452 
149.711 141.953 144.552 141.213 142.863 144.117 149.649 143.576 144.346 
143.6 144.501 144.865 149.486 145.073 143.914 149.411 145.598 143.877 
146.265 145.713 144.397 149.468 145.918 143.979 148.72 146.125 143.837 
148.606 146.214 143.555 149.214 146.116 143.982 149.422 146.067 144.018 
149.541 145.98 144.093 149.379 146.095 144.121 149.498 146.039 144.153 
141.463 113.196 145.754 137.693 114.399 145.136 125.489 131.97 145.032 
149.936 140.683 145.411 149.897 142.303 144.804 139.923 142.171 144.893 
150.002 142.565 145.09 149.963 143.009 144.991 149.874 143.404 145.014 
148.278 145.948 144.799 149.57 145.522 144.43 149.399 145.919 144.33 
149.553 145.887 144.222 143.089 112.836 146.492 143.315 114.209 146.124 
145.945 128.226 145.649 150.21 138.813 146.519 129.766 138.896 145.517 
129.763 138.849 145.927 150.19 139.577 146.148 130.148 139.054 145.765 
150.148 140.386 145.88 150.223 140.203 146.114 150.025 141.605 145.409 
150.048 142.163 145.513 149.974 142.402 146.029 144.581 144.744 145.77 
143.588 110.56 147.919 142.55 110.793 147.686 144.272 112.108 147.413 
124.442 120.484 147.972 124.648 123.732 147.147 126.669 134.811 147.133 
128.029 136.902 147.536 150.373 138.339 147.033 131.721 139.315 147.219 
136.447 140.65 147.472 150.257 140.053 146.481 148.071 145.035 146.428 
148.845 144.945 146.113 143.737 110.109 148.324 142.79 109.927 148.406 
145.203 110.164 148.688 125.328 128.052 147.898 150.229 133.67 148.182 
128.549 137.358 147.707 150.542 137.575 147.939 150.186 139.783 147.902 
135.229 140.043 148.149 140.285 142.083 147.758 147.679 144.53 147.211 
149.038 144.29 146.601 140.598 110.034 149.006 123.983 118.898 149.61 
123.662 119.58 149.395 123.03 120.574 150.118 150.106 130.76 149.101 
150.744 133.598 149.182 128.747 136.911 148.948 149.63 141.474 148.283 
148.733 143.015 148.199 148.4 143.75 147.752 147.759 143.929 147.878 
147.337 107.878 150.613 137.345 111.216 149.57 129.009 115.449 149.704 
148.59 119.176 149.914 123.014 121.836 150.692 150.675 131.886 149.626 
150.978 133.071 150.018 151.002 134.135 149.585 127.893 135.438 149.69 
130.132 136.948 150.342 132.083 137.929 150.294 146.804 106.63 151.422 
146.404 106.164 151.855 148.982 106.472 151.992 149.097 107.162 151.697 
139.11 109.472 150.931 130.892 114.051 151.075 122.362 119.71 151.361 
151.115 129.744 151.072 151.133 131.735 150.708 151.012 133.95 150.002 
151.131 132.705 150.75 138.132 109.518 151.879 135.031 111.665 152.236 
122.321 118.891 152.129 122.639 118.215 152.141 122.229 119.199 152.253 
122.637 121.602 152.387 126.629 131.746 151.962 151.254 132.129 151.848 
150.978 133.01 152.194 149.979 104.342 154.184 149.749 104.513 153.882 
150.412 104.466 154.196 150.91 105.004 154.068 146.416 105.355 152.845 
150.882 105.492 153.592 150.994 105.317 153.835 145.255 105.997 152.364 
151.31 106.094 153.823 150.686 107.458 152.617 151.655 107.796 153.493 
136.715 110.169 153.17 125.388 115.881 152.842 122.481 117.929 153.055 
126.793 131.818 152.939 150.402 134.179 152.738 150.535 104.381 154.449 
150.483 104.304 154.62 147.858 104.495 153.864 151.117 105.622 153.767 
151.996 107.175 154.387 139.273 108.196 153.393 134.203 112.507 153.654 
127.303 115.086 153.504 124.959 116.029 153.668 123.92 116.611 153.773 
122.229 118.726 153.591 152.103 121.954 153.092 152.435 124.773 153.686 
152.239 127.09 154.032 152.045 128.174 153.76 128.105 133.054 154.471 
149.045 104.029 154.717 150.237 104.35 155.402 150.872 104.644 155.068 
139.982 107.367 154.697 141.985 106.215 154.77 152.368 107.761 154.726 
138.681 108.381 154.064 138.336 108.615 154.291 152.79 108.126 155.588 
136.927 109.957 154.163 152.888 110.548 154.391 133.221 113.589 154.485 
124.545 116.33 154.232 125.564 116.034 154.598 122.556 117.872 153.823 
122.773 117.666 154.023 122.629 117.951 154.113 122.357 118.677 154.001 
153.158 122.096 154.329 153.355 124.33 155.465 151.506 129.326 154.808 
151.426 129.031 155.446 147.424 138.091 154.562 148.484 103.928 155.338 
149.047 103.962 155.701 149.864 104.362 155.997 146.3 104.405 155.171 
147.439 104.085 155.758 143.404 105.217 156.021 150.994 105.038 155.565 
141.697 106.137 155.614 139.397 107.717 155.31 152.339 107.194 156.295 
138.077 108.946 155.316 136.662 110.673 155.119 153.461 109.718 156.477 
153.737 110.495 156.156 136.266 111.437 155.395 135.741 112.738 155.973 
125.144 116.341 154.855 134.017 114.201 155.829 124.928 116.806 155.333 
130.852 115.654 156.174 123.855 117.604 155.392 122.639 118.329 154.365 
123.551 117.958 155.384 154.546 120.694 155.906 153.119 125.214 155.958 
126.769 131.019 157.15 129.023 133.045 156.481 147.947 103.962 155.941 
148.08 104.015 156.263 149.182 104.154 156.316 145.521 104.539 156.018 
141.01 106.538 156.278 139.114 108.027 155.76 139.474 107.86 156.279 
152.09 107.234 156.871 152.764 108.43 156.975 137.462 110.474 156.258 
137.583 111.629 157.132 134.411 114.577 156.408 135.127 115.284 157.272 
155.13 116.575 156.249 134.844 115.684 157.409 155.68 119.474 157.24 
155.3 121.215 157.456 154.649 122.632 157.098 152.892 125.517 156.852 
151.11 128.238 157.028 127.332 131.587 157.927 144.762 104.947 157.395 
148.464 104.523 157.038 142.347 105.733 156.969 142.068 106.028 157.232 
143.118 105.412 157.261 143.594 105.169 157.057 138.507 109.555 156.908 
139.043 110.052 157.731 154.579 112.194 157.823 156.329 115.783 158.343 
135.779 116.385 158.165 136.129 116.891 158.529 155.71 120.478 157.955 
155.265 121.468 157.626 155.187 121.669 157.827 154.602 122.705 158.058 
126.536 130.259 159.029 143.656 105.621 158.129 144.013 105.14 157.453 
145.618 105.186 158.081 142.074 106.401 157.738 148.425 105.515 158.02 
142.098 107.426 158.557 150.474 107.318 158.335 141.456 108.867 158.85 
152.698 110.929 159.021 153.935 111.762 158.536 155.523 114.365 159.4 
137.482 117.611 159.256 138.22 117.428 159.461 127.143 120.288 159.071 
156.57 119.25 158.966 155.79 120.514 158.561 156.278 119.832 159.12 
124.866 122.185 157.933 125.359 122.021 158.499 125.409 127.276 158.574 
126.964 130.814 159.628 127.971 131.823 159.539 144.542 137.328 157.527 
144.345 106.771 159.063 143.284 107.722 159.187 145.946 107.517 159.532 
142.044 112.924 160.004 156.419 115.691 160.201 157.335 116.782 160.289 
138.991 117.153 159.682 139.811 116.878 159.938 157.45 117.154 160.418 
157.239 117.887 159.994 138.937 120.162 160.698 156.36 119.729 159.634 
155.31 121.095 159.71 153.519 123.384 159.482 128.437 131.908 160.562 
155.402 115.158 160.511 155.11 115.25 160.757 157.314 116.757 160.567 
157.333 116.893 160.862 157.515 117.098 160.766 157.584 117.269 160.711 
157.615 117.246 160.807 157.433 117.543 160.704 157.597 117.336 160.795 
156.735 118.942 160.249 156.138 119.573 160.674 126.338 128.252 160.515 
126.72 129.653 161.1 126.973 130.227 161.387 127.538 131.222 161.08 
127.567 131.084 161.564 128.396 131.788 161.101 139.479 135.105 160.454 
155.623 116.227 161.281 155.9 116.655 161.431 157.514 117.311 160.901 
157.35 117.331 161.092 157.308 117.555 161.03 157.152 117.473 161.213 
155.982 118.851 161.421 129.07 124.309 161.966 127.266 127.166 161.899 
127.059 127.7 161.795 127.678 130.989 162.04 128.081 131.615 161.192 
156.213 117.617 161.653 153.074 118.318 162.389 154.155 119.855 162.007 
147.986 120.37 163.092 145.648 121.475 163.281 128.789 126.554 162.928 
127.249 130.13 162.315 127.724 130.695 162.492 128.138 131.035 162.636 
[...]
POINT_DATA 925
COLOR_SCALARS scalars 3
0.121569 0.615686 0.352941 0.121569 0.615686 0.352941 0.121569 0.615686 0.352941 
0.121569 0.615686 0.352941 0.121569 0.615686 0.352941 
0.121569 0.615686 0.352941 0.121569 0.615686 0.352941 
0.121569 0.615686 0.352941 0.121569 0.615686 0.352941 
0.121569 0.615686 0.352941 0.121569 0.615686 0.352941 
0.121569 0.615686 0.352941 0.121569 0.615686 0.352941 
0.121569 0.615686 0.352941 0.121569 0.615686 0.352941 
0.121569 0.615686 0.352941 0.121569 0.615686 0.352941 
0.121569 0.615686 0.352941 0.121569 0.615686 0.352941 
0.121569 0.615686 0.352941 0.121569 0.615686 0.352941 
0.121569 0.615686 0.352941 0.121569 0.615686 0.352941 
0.121569 0.615686 0.352941 0.121569 0.615686 0.352941 
0.121569 0.615686 0.352941 0.121569 0.615686 0.352941 
0.121569 0.615686 0.352941 0.121569 0.615686 0.352941 
0.121569 0.615686 0.352941 0.121569 0.615686 0.352941 
0.121569 0.615686 0.352941 0.121569 0.615686 0.352941 
0.121569 0.615686 0.352941 0.121569 0.615686 0.352941 
0.121569 0.615686 0.352941 0.121569 0.615686 0.352941 
0.121569 0.615686 0.352941 0.121569 0.615686 0.352941 
0.121569 0.615686 0.352941 0.121569 0.615686 0.352941 
0.121569 0.615686 0.352941 0.121569 0.615686 0.352941 
0.121569 0.615686 0.352941 0.121569 0.615686 0.352941 
0.121569 0.615686 0.352941 0.121569 0.615686 0.352941 
0.121569 0.615686 0.352941 0.121569 0.615686 0.352941 
0.121569 0.615686 0.352941 0.121569 0.615686 0.352941 
0.121569 0.615686 0.352941 0.121569 0.615686 0.352941 
0.121569 0.615686 0.352941 0.121569 0.615686 0.352941 
0.121569 0.615686 0.352941 0.121569 0.615686 0.352941 
0.121569 0.615686 0.352941 0.121569 0.615686 0.352941 
0.121569 0.615686 0.352941 0.121569 0.615686 0.352941 
0.121569 0.615686 0.352941 0.121569 0.615686 0.352941 
0.121569 0.615686 0.352941 0.121569 0.615686 0.352941 
0.121569 0.615686 0.352941 0.121569 0.615686 0.352941 
0.121569 0.615686 0.352941 0.121569 0.615686 0.352941 
0.121569 0.615686 0.352941 0.121569 0.615686 0.352941 
0.121569 0.615686 0.352941 0.121569 0.615686 0.352941 
0.121569 0.615686 0.352941 0.121569 0.615686 0.352941 
0.121569 0.615686 0.352941 0.121569 0.615686 0.352941 
0.121569 0.615686 0.352941 0.121569 0.615686 0.352941 
0.121569 0.615686 0.352941 0.121569 0.615686 0.352941 
0.121569 0.615686 0.352941 0.121569 0.615686 0.352941 
0.121569 0.615686 0.352941 0.121569 0.615686 0.352941 
0.121569 0.615686 0.352941 0.121569 0.615686 0.352941 
0.121569 0.615686 0.352941 0.121569 0.615686 0.352941 
0.121569 0.615686 0.352941 0.121569 0.615686 0.352941 
0.121569 0.615686 0.352941 0.121569 0.615686 0.352941 
0.121569 0.615686 0.352941 0.121569 0.615686 0.352941 
0.121569 0.615686 0.352941 0.121569 0.615686 0.352941 
0.121569 0.615686 0.352941 0.121569 0.615686 0.352941 
0.121569 0.615686 0.352941 0.121569 0.615686 0.352941 
0.121569 0.615686 0.352941 0.121569 0.615686 0.352941 
0.121569 0.615686 0.352941 0.121569 0.615686 0.352941 
0.121569 0.615686 0.352941 0.121569 0.615686 0.352941 
0.121569 0.615686 0.352941 0.121569 0.615686 0.352941 
0.121569 0.615686 0.352941 0.121569 0.615686 0.352941 
0.121569 0.615686 0.352941 0.121569 0.615686 0.352941 
0.121569 0.615686 0.352941 0.121569 0.615686 0.352941 
0.121569 0.615686 0.352941 0.121569 0.615686 0.352941 
0.121569 0.615686 0.352941 0.121569 0.615686 0.352941 
0.121569 0.615686 0.352941 0.121569 0.615686 0.352941 
0.121569 0.615686 0.352941 0.121569 0.615686 0.352941 
0.121569 0.615686 0.352941 0.121569 0.615686 0.352941 
0.121569 0.615686 0.352941 0.121569 0.615686 0.352941 
0.121569 0.615686 0.352941 0.121569 0.615686 0.352941 
0.121569 0.615686 0.352941 0.121569 0.615686 0.352941 
0.121569 0.615686 0.352941 0.121569 0.615686 0.352941 
0.121569 0.615686 0.352941 0.121569 0.615686 0.352941 
0.121569 0.615686 0.352941 0.121569 0.615686 0.352941 
0.121569 0.615686 0.352941 0.121569 0.615686 0.352941 
0.121569 0.615686 0.352941 0.121569 0.615686 0.352941 
0.121569 0.615686 0.352941 0.121569 0.615686 0.352941 
0.121569 0.615686 0.352941 0.121569 0.615686 0.352941 
0.121569 0.615686 0.352941 0.121569 0.615686 0.352941 
0.121569 0.615686 0.352941 0.121569 0.615686 0.352941 
0.121569 0.615686 0.352941 0.121569 0.615686 0.352941 
0.121569 0.615686 0.352941 0.121569 0.615686 0.352941 
0.121569 0.615686 0.352941 0.121569 0.615686 0.352941 
0.121569 0.615686 0.352941 0.121569 0.615686 0.352941 
0.121569 0.615686 0.352941 0.121569 0.615686 0.352941 
0.121569 0.615686 0.352941 0.121569 0.615686 0.352941 
0.121569 0.615686 0.352941 0.121569 0.615686 0.352941 
0.121569 0.615686 0.352941 0.121569 0.615686 0.352941 
0.121569 0.615686 0.352941 0.121569 0.615686 0.352941 
0.121569 0.615686 0.352941 0.121569 0.615686 0.352941 
0.121569 0.615686 0.352941 0.121569 0.615686 0.352941 
0.121569 0.615686 0.352941 0.121569 0.615686 0.352941 
0.121569 0.615686 0.352941 0.121569 0.615686 0.352941 
0.121569 0.615686 0.352941 0.121569 0.615686 0.352941 
0.121569 0.615686 0.352941 0.121569 0.615686 0.352941 
0.121569 0.615686 0.352941 0.121569 0.615686 0.352941 
0.121569 0.615686 0.352941 0.121569 0.615686 0.352941 
0.121569 0.615686 0.352941 0.121569 0.615686 0.352941 
0.121569 0.615686 0.352941 0.121569 0.615686 0.352941 
0.121569 0.615686 0.352941 0.121569 0.615686 0.352941 
0.121569 0.615686 0.352941 0.121569 0.615686 0.352941 
0.121569 0.615686 0.352941 0.121569 0.615686 0.352941 
0.121569 0.615686 0.352941 0.121569 0.615686 0.352941 
0.121569 0.615686 0.352941 0.121569 0.615686 0.352941 
0.121569 0.615686 0.352941 0.121569 0.615686 0.352941 
0.121569 0.615686 0.352941 0.121569 0.615686 0.352941 
0.121569 0.615686 0.352941 0.121569 0.615686 0.352941 
0.121569 0.615686 0.352941 0.121569 0.615686 0.352941 
0.121569 0.615686 0.352941 0.121569 0.615686 0.352941 
0.121569 0.615686 0.352941 0.121569 0.615686 0.352941 
0.121569 0.615686 0.352941 0.121569 0.615686 0.352941 
0.121569 0.615686 0.352941 0.121569 0.615686 0.352941 
0.121569 0.615686 0.352941 0.121569 0.615686 0.352941 
0.121569 0.615686 0.352941 0.121569 0.615686 0.352941 
0.121569 0.615686 0.352941 0.121569 0.615686 0.352941 
0.121569 0.615686 0.352941 0.121569 0.615686 0.352941 
0.121569 0.615686 0.352941 0.121569 0.615686 0.352941 
0.121569 0.615686 0.352941 0.121569 0.615686 0.352941 
0.121569 0.615686 0.352941 0.121569 0.615686 0.352941 
0.121569 0.615686 0.352941 0.121569 0.615686 0.352941 
0.121569 0.615686 0.352941 0.121569 0.615686 0.352941 
0.121569 0.615686 0.352941 0.121569 0.615686 0.352941 
0.121569 0.615686 0.352941 0.121569 0.615686 0.352941 
0.121569 0.615686 0.352941 0.121569 0.615686 0.352941 
0.121569 0.615686 0.352941 0.121569 0.615686 0.352941 
0.121569 0.615686 0.352941 0.121569 0.615686 0.352941 
0.121569 0.615686 0.352941 0.121569 0.615686 0.352941 
0.121569 0.615686 0.352941 0.121569 0.615686 0.352941 
0.121569 0.615686 0.352941 0.121569 0.615686 0.352941 
0.121569 0.615686 0.352941 0.121569 0.615686 0.352941 
0.121569 0.615686 0.352941 0.121569 0.615686 0.352941 
0.121569 0.615686 0.352941 0.121569 0.615686 0.352941 
0.121569 0.615686 0.352941 0.121569 0.615686 0.352941 
0.121569 0.615686 0.352941 0.121569 0.615686 0.352941 
0.121569 0.615686 0.352941 0.121569 0.615686 0.352941 
0.121569 0.615686 0.352941 0.121569 0.615686 0.352941 
0.121569 0.615686 0.352941 0.121569 0.615686 0.352941 
0.121569 0.615686 0.352941 0.121569 0.615686 0.352941 
0.121569 0.615686 0.352941 0.121569 0.615686 0.352941 
0.121569 0.615686 0.352941 0.121569 0.615686 0.352941 
0.121569 0.615686 0.352941 0.121569 0.615686 0.352941 
0.121569 0.615686 0.352941 0.121569 0.615686 0.352941 
0.121569 0.615686 0.352941 0.121569 0.615686 0.352941 
0.121569 0.615686 0.352941 0.121569 0.615686 0.352941 
0.121569 0.615686 0.352941 0.121569 0.615686 0.352941 
0.121569 0.615686 0.352941 0.121569 0.615686 0.352941 
0.121569 0.615686 0.352941 0.121569 0.615686 0.352941 
0.121569 0.615686 0.352941 0.121569 0.615686 0.352941 
0.121569 0.615686 0.352941 0.121569 0.615686 0.352941 
0.121569 0.615686 0.352941 0.121569 0.615686 0.352941 
0.121569 0.615686 0.352941 0.121569 0.615686 0.352941 
0.121569 0.615686 0.352941 0.121569 0.615686 0.352941 
0.121569 0.615686 0.352941 0.121569 0.615686 0.352941 
0.121569 0.615686 0.352941 0.121569 0.615686 0.352941 
0.121569 0.615686 0.352941 0.121569 0.615686 0.352941 
0.121569 0.615686 0.352941 0.121569 0.615686 0.352941 
0.121569 0.615686 0.352941 0.121569 0.615686 0.352941 
0.121569 0.615686 0.352941 0.121569 0.615686 0.352941 
0.121569 0.615686 0.352941 0.121569 0.615686 0.352941 
0.121569 0.615686 0.352941 0.121569 0.615686 0.352941 
0.121569 0.615686 0.352941 0.121569 0.615686 0.352941 
0.121569 0.615686 0.352941 0.121569 0.615686 0.352941 
0.121569 0.615686 0.352941 0.121569 0.615686 0.352941 
0.121569 0.615686 0.352941 0.121569 0.615686 0.352941 
0.121569 0.615686 0.352941 0.121569 0.615686 0.352941 
0.121569 0.615686 0.352941 0.121569 0.615686 0.352941 
0.121569 0.615686 0.352941 0.121569 0.615686 0.352941 
0.121569 0.615686 0.352941 0.121569 0.615686 0.352941 
0.121569 0.615686 0.352941 0.121569 0.615686 0.352941 
0.121569 0.615686 0.352941 0.121569 0.615686 0.352941 
0.121569 0.615686 0.352941 0.121569 0.615686 0.352941 
0.121569 0.615686 0.352941 0.121569 0.615686 0.352941 
0.121569 0.615686 0.352941 0.121569 0.615686 0.352941 
0.121569 0.615686 0.352941 0.121569 0.615686 0.352941 
0.121569 0.615686 0.352941 0.121569 0.615686 0.352941 
0.121569 0.615686 0.352941 0.121569 0.615686 0.352941 
0.121569 0.615686 0.352941 0.121569 0.615686 0.352941 
0.121569 0.615686 0.352941 0.121569 0.615686 0.352941 
0.121569 0.615686 0.352941 0.121569 0.615686 0.352941 
0.121569 0.615686 0.352941 0.121569 0.615686 0.352941 
0.121569 0.615686 0.352941 0.121569 0.615686 0.352941 
0.121569 0.615686 0.352941 0.121569 0.615686 0.352941 
0.121569 0.615686 0.352941 0.121569 0.615686 0.352941 
0.121569 0.615686 0.352941 0.121569 0.615686 0.352941 
0.121569 0.615686 0.352941 0.121569 0.615686 0.352941 
0.121569 0.615686 0.352941 0.121569 0.615686 0.352941 
0.121569 0.615686 0.352941 0.121569 0.615686 0.352941 
0.121569 0.615686 0.352941 0.121569 0.615686 0.352941 
0.121569 0.615686 0.352941 0.121569 0.615686 0.352941 
0.121569 0.615686 0.352941 0.121569 0.615686 0.352941 
0.121569 0.615686 0.352941 0.121569 0.615686 0.352941 
0.121569 0.615686 0.352941 0.121569 0.615686 0.352941 
0.121569 0.615686 0.352941 0.121569 0.615686 0.352941 
0.121569 0.615686 0.352941 0.121569 0.615686 0.352941 
0.121569 0.615686 0.352941 0.121569 0.615686 0.352941 
0.121569 0.615686 0.352941 0.121569 0.615686 0.352941 
0.121569 0.615686 0.352941 0.121569 0.615686 0.352941 
0.121569 0.615686 0.352941 0.121569 0.615686 0.352941 
0.121569 0.615686 0.352941 0.121569 0.615686 0.352941 
0.121569 0.615686 0.352941 0.121569 0.615686 0.352941 
0.121569 0.615686 0.352941 0.121569 0.615686 0.352941 
0.121569 0.615686 0.352941 0.121569 0.615686 0.352941 
0.121569 0.615686 0.352941 0.121569 0.615686 0.352941 
0.121569 0.615686 0.352941 0.121569 0.615686 0.352941 
0.121569 0.615686 0.352941 0.121569 0.615686 0.352941 
0.121569 0.615686 0.352941 0.121569 0.615686 0.352941 
0.121569 0.615686 0.352941 0.121569 0.615686 0.352941 
0.121569 0.615686 0.352941 0.121569 0.615686 0.352941 
0.121569 0.615686 0.352941 0.121569 0.615686 0.352941 
0.121569 0.615686 0.352941 0.121569 0.615686 0.352941 
0.121569 0.615686 0.352941 0.121569 0.615686 0.352941 
0.121569 0.615686 0.352941 0.121569 0.615686 0.352941 
0.121569 0.615686 0.352941 0.121569 0.615686 0.352941 
0.121569 0.615686 0.352941 0.121569 0.615686 0.352941 
0.121569 0.615686 0.352941 0.121569 0.615686 0.352941 
0.121569 0.615686 0.352941 0.121569 0.615686 0.352941 
0.121569 0.615686 0.352941 0.121569 0.615686 0.352941 
0.121569 0.615686 0.352941 0.121569 0.615686 0.352941 
0.121569 0.615686 0.352941 0.121569 0.615686 0.352941 
0.121569 0.615686 0.352941 0.121569 0.615686 0.352941 
0.121569 0.615686 0.352941 0.121569 0.615686 0.352941 
0.121569 0.615686 0.352941 0.121569 0.615686 0.352941 
0.121569 0.615686 0.352941 0.121569 0.615686 0.352941 
0.121569 0.615686 0.352941 0.121569 0.615686 0.352941 
0.121569 0.615686 0.352941 0.121569 0.615686 0.352941 
0.121569 0.615686 0.352941 0.121569 0.615686 0.352941 
0.121569 0.615686 0.352941 0.121569 0.615686 0.352941 
0.121569 0.615686 0.352941 0.121569 0.615686 0.352941 
0.121569 0.615686 0.352941 0.121569 0.615686 0.352941 
0.121569 0.615686 0.352941 0.121569 0.615686 0.352941 
0.121569 0.615686 0.352941 0.121569 0.615686 0.352941 
0.121569 0.615686 0.352941 0.121569 0.615686 0.352941 
0.121569 0.615686 0.352941 0.121569 0.615686 0.352941 
0.121569 0.615686 0.352941 0.121569 0.615686 0.352941 
0.121569 0.615686 0.352941 0.121569 0.615686 0.352941 
0.121569 0.615686 0.352941 0.121569 0.615686 0.352941 
0.121569 0.615686 0.352941 0.121569 0.615686 0.352941 
0.121569 0.615686 0.352941 0.121569 0.615686 0.352941 
0.121569 0.615686 0.352941 0.121569 0.615686 0.352941 
0.121569 0.615686 0.352941 0.121569 0.615686 0.352941 
0.121569 0.615686 0.352941 0.121569 0.615686 0.352941 
0.121569 0.615686 0.352941 0.121569 0.615686 0.352941 
0.121569 0.615686 0.352941 0.121569 0.615686 0.352941 
0.121569 0.615686 0.352941 0.121569 0.615686 0.352941 
0.121569 0.615686 0.352941 0.121569 0.615686 0.352941 
0.121569 0.615686 0.352941 0.121569 0.615686 0.352941 
0.121569 0.615686 0.352941 0.121569 0.615686 0.352941 
0.121569 0.615686 0.352941 0.121569 0.615686 0.352941 
0.121569 0.615686 0.352941 0.121569 0.615686 0.352941 
0.121569 0.615686 0.352941 0.121569 0.615686 0.352941 
0.121569 0.615686 0.352941 0.121569 0.615686 0.352941 
0.121569 0.615686 0.352941 0.121569 0.615686 0.352941 
0.121569 0.615686 0.352941 0.121569 0.615686 0.352941 
0.121569 0.615686 0.352941 0.121569 0.615686 0.352941 
0.121569 0.615686 0.352941 0.121569 0.615686 0.352941 
0.121569 0.615686 0.352941 0.121569 0.615686 0.352941 
0.121569 0.615686 0.352941 0.121569 0.615686 0.352941 
0.121569 0.615686 0.352941 0.121569 0.615686 0.352941 
0.121569 0.615686 0.352941 0.121569 0.615686 0.352941 
0.121569 0.615686 0.352941 0.121569 0.615686 0.352941 
0.121569 0.615686 0.352941 0.121569 0.615686 0.352941 
0.121569 0.615686 0.352941 0.121569 0.615686 0.352941 
0.121569 0.615686 0.352941 0.121569 0.615686 0.352941 
0.121569 0.615686 0.352941 0.121569 0.615686 0.352941 
0.121569 0.615686 0.352941 0.121569 0.615686 0.352941 
0.121569 0.615686 0.352941 0.121569 0.615686 0.352941 
0.121569 0.615686 0.352941 0.121569 0.615686 0.352941 
0.121569 0.615686 0.352941 0.121569 0.615686 0.352941 
0.121569 0.615686 0.352941 0.121569 0.615686 0.352941 
0.121569 0.615686 0.352941 0.121569 0.615686 0.352941 
0.121569 0.615686 0.352941 0.121569 0.615686 0.352941 
0.121569 0.615686 0.352941 0.121569 0.615686 0.352941 
0.121569 0.615686 0.352941 0.121569 0.615686 0.352941 
0.121569 0.615686 0.352941 0.121569 0.615686 0.352941 
0.121569 0.615686 0.352941 0.121569 0.615686 0.352941 
0.121569 0.615686 0.352941 0.121569 0.615686 0.352941 
0.121569 0.615686 0.352941 0.121569 0.615686 0.352941 
0.121569 0.615686 0.352941 0.121569 0.615686 0.352941 
0.121569 0.615686 0.352941 0.121569 0.615686 0.352941 
0.121569 0.615686 0.352941 0.121569 0.615686 0.352941 
0.121569 0.615686 0.352941 0.121569 0.615686 0.352941 
0.121569 0.615686 0.352941 0.121569 0.615686 0.352941 
0.121569 0.615686 0.352941 0.121569 0.615686 0.352941 
0.121569 0.615686 0.352941 0.121569 0.615686 0.352941 
0.121569 0.615686 0.352941 0.121569 0.615686 0.352941 
0.121569 0.615686 0.352941 0.121569 0.615686 0.352941 
0.121569 0.615686 0.352941 0.121569 0.615686 0.352941 
0.121569 0.615686 0.352941 0.121569 0.615686 0.352941 
0.121569 0.615686 0.352941 0.121569 0.615686 0.352941 
0.121569 0.615686 0.352941 0.121569 0.615686 0.352941 
0.121569 0.615686 0.352941 0.121569 0.615686 0.352941 
0.121569 0.615686 0.352941 0.121569 0.615686 0.352941 
0.121569 0.615686 0.352941 0.121569 0.615686 0.352941 
0.121569 0.615686 0.352941 0.121569 0.615686 0.352941 
0.121569 0.615686 0.352941 0.121569 0.615686 0.352941 
0.121569 0.615686 0.352941 0.121569 0.615686 0.352941 
0.121569 0.615686 0.352941 0.121569 0.615686 0.352941 
0.121569 0.615686 0.352941 0.121569 0.615686 0.352941 
0.121569 0.615686 0.352941 0.121569 0.615686 0.352941 
0.121569 0.615686 0.352941 0.121569 0.615686 0.352941 
0.121569 0.615686 0.352941 0.121569 0.615686 0.352941 
0.121569 0.615686 0.352941 0.121569 0.615686 0.352941 
0.121569 0.615686 0.352941 0.121569 0.615686 0.352941 
0.121569 0.615686 0.352941 0.121569 0.615686 0.352941 
0.121569 0.615686 0.352941 0.121569 0.615686 0.352941 
0.121569 0.615686 0.352941 0.121569 0.615686 0.352941 
0.121569 0.615686 0.352941 0.121569 0.615686 0.352941 
0.121569 0.615686 0.352941 0.121569 0.615686 0.352941 
0.121569 0.615686 0.352941 0.121569 0.615686 0.352941 
0.121569 0.615686 0.352941 0.121569 0.615686 0.352941 
0.121569 0.615686 0.352941 0.121569 0.615686 0.352941 
0.121569 0.615686 0.352941 0.121569 0.615686 0.352941 
0.121569 0.615686 0.352941 0.121569 0.615686 0.352941 
0.121569 0.615686 0.352941 0.121569 0.615686 0.352941 
0.121569 0.615686 0.352941 0.121569 0.615686 0.352941 
0.121569 0.615686 0.352941 0.121569 0.615686 0.352941 
0.121569 0.615686 0.352941 0.121569 0.615686 0.352941 
0.121569 0.615686 0.352941 0.121569 0.615686 0.352941 
0.121569 0.615686 0.352941 0.121569 0.615686 0.352941 
0.121569 0.615686 0.352941 0.121569 0.615686 0.352941 
0.121569 0.615686 0.352941 0.121569 0.615686 0.352941 
0.121569 0.615686 0.352941 0.121569 0.615686 0.352941 
0.121569 0.615686 0.352941 0.121569 0.615686 0.352941 
0.121569 0.615686 0.352941 0.121569 0.615686 0.352941 
0.121569 0.615686 0.352941 0.121569 0.615686 0.352941 
0.121569 0.615686 0.352941 0.121569 0.615686 0.352941 
0.121569 0.615686 0.352941 0.121569 0.615686 0.352941 
0.121569 0.615686 0.352941 0.121569 0.615686 0.352941 
0.121569 0.615686 0.352941 0.121569 0.615686 0.352941 
0.121569 0.615686 0.352941 0.121569 0.615686 0.352941 
0.121569 0.615686 0.352941 0.121569 0.615686 0.352941 
0.121569 0.615686 0.352941 0.121569 0.615686 0.352941 
0.121569 0.615686 0.352941 0.121569 0.615686 0.352941 
0.121569 0.615686 0.352941 0.121569 0.615686 0.352941 
0.121569 0.615686 0.352941 0.121569 0.615686 0.352941 
0.121569 0.615686 0.352941 0.121569 0.615686 0.352941 
0.121569 0.615686 0.352941 0.121569 0.615686 0.352941 
0.121569 0.615686 0.352941 0.121569 0.615686 0.352941 
0.121569 0.615686 0.352941 0.121569 0.615686 0.352941 
0.121569 0.615686 0.352941 0.121569 0.615686 0.352941 
0.121569 0.615686 0.352941 0.121569 0.615686 0.352941 
0.121569 0.615686 0.352941 0.121569 0.615686 0.352941 
0.121569 0.615686 0.352941 0.121569 0.615686 0.352941 
0.121569 0.615686 0.352941 0.121569 0.615686 0.352941 
0.121569 0.615686 0.352941 0.121569 0.615686 0.352941 
0.121569 0.615686 0.352941 0.121569 0.615686 0.352941 
0.121569 0.615686 0.352941 0.121569 0.615686 0.352941 
0.121569 0.615686 0.352941 0.121569 0.615686 0.352941 
0.121569 0.615686 0.352941 0.121569 0.615686 0.352941 
0.121569 0.615686 0.352941 0.121569 0.615686 0.352941 
0.121569 0.615686 0.352941 0.121569 0.615686 0.352941 
0.121569 0.615686 0.352941 0.121569 0.615686 0.352941 
0.121569 0.615686 0.352941 0.121569 0.615686 0.352941 
0.121569 0.615686 0.352941 0.121569 0.615686 0.352941 
0.121569 0.615686 0.352941 0.121569 0.615686 0.352941 
0.121569 0.615686 0.352941 0.121569 0.615686 0.352941 
0.121569 0.615686 0.352941 0.121569 0.615686 0.352941 
0.121569 0.615686 0.352941 0.121569 0.615686 0.352941 
0.121569 0.615686 0.352941 0.121569 0.615686 0.352941 
0.121569 0.615686 0.352941 0.121569 0.615686 0.352941 
0.121569 0.615686 0.352941 0.121569 0.615686 0.352941 
0.121569 0.615686 0.352941 0.121569 0.615686 0.352941 
0.121569 0.615686 0.352941 0.121569 0.615686 0.352941 
0.121569 0.615686 0.352941 0.121569 0.615686 0.352941 
0.121569 0.615686 0.352941 0.121569 0.615686 0.352941 
0.121569 0.615686 0.352941 0.121569 0.615686 0.352941 
0.121569 0.615686 0.352941 0.121569 0.615686 0.352941 
0.121569 0.615686 0.352941 0.121569 0.615686 0.352941 