# vtk DataFile Version 4.2
vtk output
ASCII
DATASET POLYDATA
POINTS 572 float
187.78 75.4769 181.768 187.694 75.3273 181.809 187.562 75.4605 181.794 
187.733 75.6725 181.747 187.573 75.714 181.768 188.026 75.7044 181.845 
189.235 78.0622 181.669 188.985 79.4096 181.68 189.748 78.016 181.756 
189.021 80.1452 181.768 189.852 81.4118 181.73 190.914 82.6927 181.369 
191.857 82.0917 181.378 191.692 82.5042 181.319 193.109 84.3937 181.459 
192.918 84.4833 181.514 193.394 85.3904 181.837 193.828 85.5742 181.884 
187.384 74.7919 182.31 187.12 75.1219 182.081 188.451 75.7757 182.022 
187.336 77.3125 182.077 189.866 77.2648 182.087 187.762 78.4884 182.088 
188.863 80.6239 182.004 191.212 83.5968 181.697 192.397 84.3663 181.657 
193.067 85.3419 181.942 192.961 85.4478 182.129 195.624 85.6658 182.072 
196.127 86.4197 182.305 195.428 87.0458 182.53 196.19 86.7036 182.401 
196.041 86.9363 182.479 186.993 74.8959 182.327 188.134 74.7521 182.596 
185.887 74.8298 182.966 188.492 75.0637 182.507 186.381 75.6686 182.484 
192.813 85.5404 182.476 195.869 85.7218 182.165 196.41 86.5855 182.49 
195.153 87.3636 183.21 196.192 87.6184 183.058 196.172 87.7772 183.293 
196.587 87.4869 183.018 197.058 87.6405 183.278 197.299 87.6349 183.399 
197.233 87.7813 183.491 186.47 73.4616 184.068 187.714 73.8583 183.505 
188.764 74.3402 183.571 194.531 87.1184 183.483 197.793 87.0022 184.009 
195.528 87.6518 183.577 196.372 87.8881 183.55 197.422 87.7214 183.554 
197.519 87.682 183.661 196.775 87.9134 183.766 197.145 87.8664 183.724 
197.442 87.7621 183.804 186.936 73.0127 184.581 185.267 73.9618 184.096 
186.578 79.9866 184.236 197.553 84.3107 184.286 195.345 87.6471 183.957 
197.617 87.5472 183.834 197.714 87.5664 184.262 183.042 74.1696 185.834 
183.289 75.6513 185.194 194.285 87.0289 185.405 198.951 86.2204 185.521 
197.527 87.8351 185.047 196.981 87.9291 185.012 182.952 73.6648 186.316 
182.707 74.9925 185.793 187.446 81.8818 186.636 191.941 85.4218 185.393 
198.913 87.1251 186.467 182.233 76.8798 186.662 198.79 83.832 186.689 
193.299 86.0471 187.35 199.591 86.1631 187.2 199.46 86.5517 187.591 
197.806 87.6523 187.078 188.786 70.5462 188.349 180.617 73.9819 188.449 
179.732 74.704 189.111 180.438 75.5869 188.15 180.865 77.0043 188.229 
199.678 85.8692 187.504 199.602 86.2029 188.084 199.023 86.9393 188.183 
197.297 87.7532 186.892 189.08 69.8371 189.546 189.47 70.3161 189.043 
189.339 70.0459 189.323 187.328 69.893 189.707 188.209 70.1814 188.954 
178.788 74.4319 190.244 180.11 76.467 188.789 198.768 82.6264 188.552 
199.668 84.9244 187.916 199.651 84.8102 188.699 199.64 85.8149 188.569 
198.649 87.219 188.073 199.002 86.7625 188.695 189.963 70.0426 189.895 
179.887 73.3899 190.061 180.599 72.7819 190.301 178.259 74.6 191.047 
188.591 82.7142 189.729 199.343 83.662 189.119 199.269 83.6326 189.627 
199.274 84.2834 189.781 193.233 85.2282 189.412 199.491 85.9065 188.969 
195.425 86.5238 188.99 198.433 86.9314 188.907 199.101 86.4306 189.019 
197.009 87.0611 188.812 189.333 69.1314 191.208 190.105 69.2198 191.374 
188.28 69.027 191.716 190.455 69.938 190.6 183.503 71.0042 190.967 
178.181 75.0073 190.968 178.282 75.7864 190.958 198.52 81.8604 190.224 
198.919 84.019 190.458 192.841 84.5196 190.348 196.554 85.807 190.259 
198.595 85.0372 190.352 199.369 85.5911 189.348 198.271 86.1398 189.795 
192.044 71.1337 191.401 177.399 75.3172 192.866 177.918 76.0298 191.772 
178.329 76.9698 191.764 196.449 78.2085 191.158 180.001 78.7572 191.625 
197.664 80.5844 191.847 198.728 82.5128 190.725 188.889 82.3732 191.619 
197.31 83.6461 191.652 197.827 83.5301 191.482 196.085 84.6152 191.228 
198.167 84.6409 190.821 189.363 68.7196 192.655 191.038 69.0368 192.971 
179.781 72.7975 193.495 177.749 74.4065 193.282 177.251 75.2139 193.403 
177.707 76.9504 193.157 197.229 79.738 192.578 180.926 79.8322 193.065 
197.539 80.4005 192.425 183.461 80.8885 192.865 197.594 82.1124 191.969 
197.973 82.885 191.579 193.139 83.5728 191.682 191.212 68.5533 194.254 
191.047 68.5517 194.052 191.415 68.6908 194.315 189.422 68.5822 193.511 
176.858 75.4294 194.513 176.991 76.0717 194.036 196.059 77.3088 192.858 
197.078 79.2023 192.986 196.736 79.6602 193.204 195.848 80.9501 193.287 
193.112 81.8438 193.24 191.928 69.205 194.759 186.972 69.262 194.729 
192.86 70.7572 194.223 181.575 71.9187 194.868 194.051 73.2759 194.376 
178.001 74.1238 195.059 176.917 75.2859 195.231 176.815 75.3851 194.872 
194.829 75.3147 194.505 176.714 76.0108 195.174 195.292 76.2769 194.118 
177.09 77.023 195.286 196.152 78.5035 193.711 191.007 68.4516 194.943 
187.058 69.4715 196.022 183.106 71.2413 195.391 194.003 74.3732 196.002 
176.592 76.2931 196.109 176.794 76.7591 195.661 178.044 77.8727 195.517 
178.722 78.3248 195.554 179.689 78.988 195.305 191.438 68.6706 195.632 
189.761 68.5593 195.871 192.262 69.7581 196.532 183.742 71.2974 196.553 
193.434 72.2233 196.256 179.884 73.3212 196.324 179.183 74.0498 196.84 
193.831 74.1813 196.436 193.914 74.3103 196.344 193.839 74.2934 196.47 
177.614 75.1387 196.668 193.681 74.9139 196.343 176.736 76.1968 196.684 
176.607 76.2892 196.413 176.611 76.5066 196.329 180.744 79.0727 195.801 
190.875 68.8015 196.922 186.611 70.1369 197.229 192.655 70.8849 197.269 
193.225 72.9418 197.107 179.36 74.2969 197.382 193.625 74.287 196.629 
177.786 75.311 197.182 191.057 75.1283 197.812 176.782 76.4627 196.981 
176.788 76.7206 197.229 176.906 76.9312 197.13 178.915 77.6339 196.998 
179.699 77.7066 197.133 180.534 77.7251 197.271 190.567 68.8943 197.271 
190.918 68.981 197.415 185.085 71.4475 198.065 192.279 71.2759 198.315 
183.244 72.2599 197.82 183.679 72.133 197.97 192.242 71.9316 198.325 
181.387 73.3959 197.753 184.137 72.3089 198.359 179.7 74.4122 197.711 
192.152 73.76 197.913 177.781 75.492 197.356 178.099 75.3312 197.467 
179.875 74.5944 197.94 177.024 76.5224 197.37 177.489 76.1506 197.458 
183.677 75.3929 198.609 176.752 76.848 197.456 176.798 76.7713 197.515 
176.709 76.8444 197.572 177.556 76.6536 197.535 178.506 76.8154 197.607 
179.699 76.1517 198.045 180.423 76.597 197.958 176.723 76.8687 197.565 
176.867 76.8911 197.482 177.308 77.0104 197.272 191.132 69.1885 197.676 
182.917 73.0102 198.319 184.042 72.8026 198.598 182.454 73.7218 198.505 
184.294 74.2469 198.932 179.14 75.3527 197.976 179.575 75.0604 198.103 
179.976 74.8782 198.12 180.787 75.1636 198.295 180.002 75.1745 198.239 
182.2 74.3664 198.597 182.786 74.3965 198.722 177.943 76.0736 197.685 
178.51 75.8651 197.837 179.66 75.2361 198.182 176.748 76.8497 197.581 
191.111 69.7782 198.594 190.397 70.3394 199.169 190.901 70.075 198.969 
191.765 70.5033 198.792 189.67 70.923 199.419 190.372 71.0131 199.372 
190.664 70.5875 199.331 191.36 70.7314 199.21 188.557 72.0151 199.347 
183.164 73.8517 198.74 179.794 75.0806 198.202 190.846 70.3965 199.241 
191.2 70.4059 199.146 191.529 70.506 199.033 189.343 71.0934 199.456 
191.104 70.2921 255.692 191.347 70.3922 255.74 191.248 70.0955 255.899 
191.602 70.4724 255.852 191.781 70.4003 256.115 189.55 71.1921 255.383 
189.439 71.0565 255.448 189.202 71.3158 255.49 189.787 71.1996 255.372 
190.977 70.6338 255.641 190.063 71.0521 255.448 189.993 71.3605 255.423 
188.568 70.7608 255.936 190.214 70.5535 255.674 190.551 71.2451 255.577 
183.493 73.2488 256.249 189.582 72.5825 255.679 180.242 75.2784 256.549 
179.981 75.4062 256.606 180.717 75.1324 256.547 183.614 74.3389 256.105 
191.141 69.169 256.974 191.019 68.914 257.334 190.845 69.0791 256.986 
189.806 69.7787 256.292 191.896 69.8925 256.866 184.611 71.9996 256.619 
189.423 73.6023 256.016 179.677 74.9579 256.939 178.184 75.7695 257.24 
178.029 75.6332 257.368 182.474 75.5041 256.434 176.865 76.5981 257.443 
176.921 76.5283 257.565 176.852 76.6239 257.482 176.942 76.6115 257.447 
178.094 76.1671 257.29 177.125 76.5337 257.496 178.877 76.2474 257.054 
176.89 76.6529 257.469 177.101 76.6993 257.565 190.694 68.9108 257.254 
190.406 68.8624 257.444 191.184 68.7422 257.912 186.65 70.2628 257.478 
184.372 71.4474 257.45 182.505 72.4117 257.542 178.725 74.5404 257.877 
193.473 73.7253 258.195 177.258 76.1826 257.698 185.71 75.9541 256.694 
176.928 76.6605 257.626 176.945 76.5265 257.917 177.577 76.6103 257.501 
177.141 76.8481 258.004 177.428 76.8736 257.71 178.405 77.1489 257.642 
178.204 77.3527 257.995 191.428 68.668 258.292 191.379 68.552 258.614 
191.186 68.5515 258.398 187.792 69.3874 258.294 192.287 69.5794 258.791 
185.047 70.6328 258.39 193.113 71.3904 258.72 193.729 73.3969 258.713 
178.789 73.9018 258.797 193.722 73.8078 258.367 193.795 73.8427 258.461 
193.725 74.4746 258.652 176.663 76.0908 258.53 176.579 76.108 258.783 
177.432 77.1627 258.367 191.745 68.8157 259.149 190.127 68.5831 258.528 
194.075 74.0423 259.337 176.697 75.5353 259.522 194.561 75.2832 259.8 
194.146 76.2563 259.328 193.972 76.7865 259.344 194.777 76.5181 259.859 
177.107 76.9608 259.089 177.488 77.28 259.788 182.94 78.5527 258.286 
193.08 77.38 259.147 180.468 78.5678 258.682 179.834 79.074 260.089 
191.124 68.4981 259.408 187.545 69.1429 259.708 179.601 73.0461 259.758 
176.747 75.2553 260.038 176.711 75.2913 260.403 176.587 75.9035 259.324 
176.669 75.5024 260.124 176.69 75.9395 259.976 195.426 77.4111 260.55 
194.373 77.9078 259.927 195.521 77.8508 260.633 195.693 77.7309 260.804 
193.42 78.6492 259.873 195.377 78.1776 260.593 181.784 80.0762 260.869 
184.771 80.2963 260.08 191.543 68.7584 260.06 187.56 69.0425 261.445 
176.766 75.2087 260.714 195.62 76.7021 261.258 196.225 77.8191 261.658 
196.49 78.4444 261.658 196.435 78.9206 261.561 196.778 78.5885 262.04 
196.779 78.8634 261.888 196.92 78.8617 262.065 196.971 79.0835 262.158 
186.377 80.5658 260.365 192.435 80.7014 260.846 184.552 80.9662 261.282 
190.243 81.1387 261.039 186.819 81.3947 261.612 190.006 68.761 261.74 
193.08 71.6711 261.793 178.644 73.4952 262.011 177.247 74.7998 261.702 
195.381 76.0649 261.492 178.366 77.5762 262.483 196.974 78.9271 262.272 
197.146 79.482 262.689 196.877 79.9215 262.172 197.321 80.1694 262.612 
[...]
POINT_DATA 572
COLOR_SCALARS scalars 3
0.121569 0.615686 0.352941 0.121569 0.615686 0.352941 0.121569 0.615686 0.352941 
0.121569 0.615686 0.352941 0.121569 0.615686 0.352941 
0.121569 0.615686 0.352941 0.121569 0.615686 0.352941 
0.121569 0.615686 0.352941 0.121569 0.615686 0.352941 
0.121569 0.615686 0.352941 0.121569 0.615686 0.352941 
0.121569 0.615686 0.352941 0.121569 0.615686 0.352941 
0.121569 0.615686 0.352941 0.121569 0.615686 0.352941 
0.121569 0.615686 0.352941 0.121569 0.615686 0.352941 
0.121569 0.615686 0.352941 0.121569 0.615686 0.352941 
0.121569 0.615686 0.352941 0.121569 0.615686 0.352941 
0.121569 0.615686 0.352941 0.121569 0.615686 0.352941 
0.121569 0.615686 0.352941 0.121569 0.615686 0.352941 
0.121569 0.615686 0.352941 0.121569 0.615686 0.352941 
0.121569 0.615686 0.352941 0.121569 0.615686 0.352941 
0.121569 0.615686 0.352941 0.121569 0.615686 0.352941 
0.121569 0.615686 0.352941 0.121569 0.615686 0.352941 
0.121569 0.615686 0.352941 0.121569 0.615686 0.352941 
0.121569 0.615686 0.352941 0.121569 0.615686 0.352941 
0.121569 0.615686 0.352941 0.121569 0.615686 0.352941 
0.121569 0.615686 0.352941 0.121569 0.615686 0.352941 
0.121569 0.615686 0.352941 0.121569 0.615686 0.352941 
0.121569 0.615686 0.352941 0.121569 0.615686 0.352941 
0.121569 0.615686 0.352941 0.121569 0.615686 0.352941 
0.121569 0.615686 0.352941 0.121569 0.615686 0.352941 
0.121569 0.615686 0.352941 0.121569 0.615686 0.352941 
0.121569 0.615686 0.352941 0.121569 0.615686 0.352941 
0.121569 0.615686 0.352941 0.121569 0.615686 0.352941 
0.121569 0.615686 0.352941 0.121569 0.615686 0.352941 
0.121569 0.615686 0.352941 0.121569 0.615686 0.352941 
0.121569 0.615686 0.352941 0.121569 0.615686 0.352941 
0.121569 0.615686 0.352941 0.121569 0.615686 0.352941 
0.121569 0.615686 0.352941 0.121569 0.615686 0.352941 
0.121569 0.615686 0.352941 0.121569 0.615686 0.352941 
0.121569 0.615686 0.352941 0.121569 0.615686 0.352941 
0.121569 0.615686 0.352941 0.121569 0.615686 0.352941 
0.121569 0.615686 0.352941 0.121569 0.615686 0.352941 
0.121569 0.615686 0.352941 0.121569 0.615686 0.352941 
0.121569 0.615686 0.352941 0.121569 0.615686 0.352941 
0.121569 0.615686 0.352941 0.121569 0.615686 0.352941 
0.121569 0.615686 0.352941 0.121569 0.615686 0.352941 
0.121569 0.615686 0.352941 0.121569 0.615686 0.352941 
0.121569 0.615686 0.352941 0.121569 0.615686 0.352941 
0.121569 0.615686 0.352941 0.121569 0.615686 0.352941 
0.121569 0.615686 0.352941 0.121569 0.615686 0.352941 
0.121569 0.615686 0.352941 0.121569 0.615686 0.352941 
0.121569 0.615686 0.352941 0.121569 0.615686 0.352941 
0.121569 0.615686 0.352941 0.121569 0.615686 0.352941 
0.121569 0.615686 0.352941 0.121569 0.615686 0.352941 
0.121569 0.615686 0.352941 0.121569 0.615686 0.352941 
0.121569 0.615686 0.352941 0.121569 0.615686 0.352941 
0.121569 0.615686 0.352941 0.121569 0.615686 0.352941 
0.121569 0.615686 0.352941 0.121569 0.615686 0.352941 
0.121569 0.615686 0.352941 0.121569 0.615686 0.352941 
0.121569 0.615686 0.352941 0.121569 0.615686 0.352941 
0.121569 0.615686 0.352941 0.121569 0.615686 0.352941 
0.121569 0.615686 0.352941 0.121569 0.615686 0.352941 
0.121569 0.615686 0.352941 0.121569 0.615686 0.352941 
0.121569 0.615686 0.352941 0.121569 0.615686 0.352941 
0.121569 0.615686 0.352941 0.121569 0.615686 0.352941 
0.121569 0.615686 0.352941 0.121569 0.615686 0.352941 
0.121569 0.615686 0.352941 0.121569 0.615686 0.352941 
0.121569 0.615686 0.352941 0.121569 0.615686 0.352941 
0.121569 0.615686 0.352941 0.121569 0.615686 0.352941 
0.121569 0.615686 0.352941 0.121569 0.615686 0.352941 
0.121569 0.615686 0.352941 0.121569 0.615686 0.352941 
0.121569 0.615686 0.352941 0.121569 0.615686 0.352941 
0.121569 0.615686 0.352941 0.121569 0.615686 0.352941 
0.121569 0.615686 0.352941 0.121569 0.615686 0.352941 
0.121569 0.615686 0.352941 0.121569 0.615686 0.352941 
0.121569 0.615686 0.352941 0.121569 0.615686 0.352941 
0.121569 0.615686 0.352941 0.121569 0.615686 0.352941 
0.121569 0.615686 0.352941 0.121569 0.615686 0.352941 
0.121569 0.615686 0.352941 0.121569 0.615686 0.352941 
0.121569 0.615686 0.352941 0.121569 0.615686 0.352941 
0.121569 0.615686 0.352941 0.121569 0.615686 0.352941 
0.121569 0.615686 0.352941 0.121569 0.615686 0.352941 
0.121569 0.615686 0.352941 0.121569 0.615686 0.352941 
0.121569 0.615686 0.352941 0.121569 0.615686 0.352941 
0.121569 0.615686 0.352941 0.121569 0.615686 0.352941 
0.121569 0.615686 0.352941 0.121569 0.615686 0.352941 
0.121569 0.615686 0.352941 0.121569 0.615686 0.352941 
0.121569 0.615686 0.352941 0.121569 0.615686 0.352941 
0.121569 0.615686 0.352941 0.121569 0.615686 0.352941 
0.121569 0.615686 0.352941 0.121569 0.615686 0.352941 
0.121569 0.615686 0.352941 0.121569 0.615686 0.352941 
0.121569 0.615686 0.352941 0.121569 0.615686 0.352941 
0.121569 0.615686 0.352941 0.121569 0.615686 0.352941 
0.121569 0.615686 0.352941 0.121569 0.615686 0.352941 
0.121569 0.615686 0.352941 0.121569 0.615686 0.352941 
0.121569 0.615686 0.352941 0.121569 0.615686 0.352941 
0.121569 0.615686 0.352941 0.121569 0.615686 0.352941 
0.121569 0.615686 0.352941 0.121569 0.615686 0.352941 
0.121569 0.615686 0.352941 0.121569 0.615686 0.352941 
0.121569 0.615686 0.352941 0.121569 0.615686 0.352941 
0.121569 0.615686 0.352941 0.121569 0.615686 0.352941 
0.121569 0.615686 0.352941 0.121569 0.615686 0.352941 
0.121569 0.615686 0.352941 0.121569 0.615686 0.352941 
0.121569 0.615686 0.352941 0.121569 0.615686 0.352941 
0.121569 0.615686 0.352941 0.121569 0.615686 0.352941 
0.121569 0.615686 0.352941 0.121569 0.615686 0.352941 
0.121569 0.615686 0.352941 0.121569 0.615686 0.352941 
0.121569 0.615686 0.352941 0.121569 0.615686 0.352941 
0.121569 0.615686 0.352941 0.121569 0.615686 0.352941 
0.121569 0.615686 0.352941 0.121569 0.615686 0.352941 
0.121569 0.615686 0.352941 0.121569 0.615686 0.352941 
0.121569 0.615686 0.352941 0.121569 0.615686 0.352941 
0.121569 0.615686 0.352941 0.121569 0.615686 0.352941 
0.121569 0.615686 0.352941 0.121569 0.615686 0.352941 
0.121569 0.615686 0.352941 0.121569 0.615686 0.352941 
0.121569 0.615686 0.352941 0.121569 0.615686 0.352941 
0.121569 0.615686 0.352941 0.121569 0.615686 0.352941 
0.121569 0.615686 0.352941 0.121569 0.615686 0.352941 
0.121569 0.615686 0.352941 0.121569 0.615686 0.352941 
0.121569 0.615686 0.352941 0.121569 0.615686 0.352941 
0.121569 0.615686 0.352941 0.121569 0.615686 0.352941 
0.121569 0.615686 0.352941 0.121569 0.615686 0.352941 
0.121569 0.615686 0.352941 0.121569 0.615686 0.352941 
0.121569 0.615686 0.352941 0.121569 0.615686 0.352941 
0.121569 0.615686 0.352941 0.121569 0.615686 0.352941 
0.121569 0.615686 0.352941 0.121569 0.615686 0.352941 
0.121569 0.615686 0.352941 0.121569 0.615686 0.352941 
0.121569 0.615686 0.352941 0.121569 0.615686 0.352941 
0.121569 0.615686 0.352941 0.121569 0.615686 0.352941 
0.121569 0.615686 0.352941 0.121569 0.615686 0.352941 
0.121569 0.615686 0.352941 0.121569 0.615686 0.352941 
0.121569 0.615686 0.352941 0.121569 0.615686 0.352941 
0.121569 0.615686 0.352941 0.121569 0.615686 0.352941 
0.121569 0.615686 0.352941 0.121569 0.615686 0.352941 
0.121569 0.615686 0.352941 0.121569 0.615686 0.352941 
0.121569 0.615686 0.352941 0.121569 0.615686 0.352941 
0.121569 0.615686 0.352941 0.121569 0.615686 0.352941 
0.121569 0.615686 0.352941 0.121569 0.615686 0.352941 
0.121569 0.615686 0.352941 0.121569 0.615686 0.352941 
0.121569 0.615686 0.352941 0.121569 0.615686 0.352941 
0.121569 0.615686 0.352941 0.121569 0.615686 0.352941 
0.121569 0.615686 0.352941 0.121569 0.615686 0.352941 
0.121569 0.615686 0.352941 0.121569 0.615686 0.352941 
0.121569 0.615686 0.352941 0.121569 0.615686 0.352941 
0.121569 0.615686 0.352941 0.121569 0.615686 0.352941 
0.121569 0.615686 0.352941 0.121569 0.615686 0.352941 
0.121569 0.615686 0.352941 0.121569 0.615686 0.352941 
0.121569 0.615686 0.352941 0.121569 0.615686 0.352941 
0.121569 0.615686 0.352941 0.121569 0.615686 0.352941 
0.121569 0.615686 0.352941 0.121569 0.615686 0.352941 
0.121569 0.615686 0.352941 0.121569 0.615686 0.352941 
0.121569 0.615686 0.352941 0.121569 0.615686 0.352941 
0.121569 0.615686 0.352941 0.121569 0.615686 0.352941 
0.121569 0.615686 0.352941 0.121569 0.615686 0.352941 
0.121569 0.615686 0.352941 0.121569 0.615686 0.352941 
0.121569 0.615686 0.352941 0.121569 0.615686 0.352941 
0.121569 0.615686 0.352941 0.121569 0.615686 0.352941 
0.121569 0.615686 0.352941 0.121569 0.615686 0.352941 
0.121569 0.615686 0.352941 0.121569 0.615686 0.352941 
0.121569 0.615686 0.352941 0.121569 0.615686 0.352941 
0.121569 0.615686 0.352941 0.121569 0.615686 0.352941 
0.121569 0.615686 0.352941 0.121569 0.615686 0.352941 
0.121569 0.615686 0.352941 0.121569 0.615686 0.352941 
0.121569 0.615686 0.352941 0.121569 0.615686 0.352941 
0.121569 0.615686 0.352941 0.121569 0.615686 0.352941 
0.121569 0.615686 0.352941 0.121569 0.615686 0.352941 
0.121569 0.615686 0.352941 0.121569 0.615686 0.352941 
0.121569 0.615686 0.352941 0.121569 0.615686 0.352941 
0.121569 0.615686 0.352941 0.121569 0.615686 0.352941 
0.121569 0.615686 0.352941 0.121569 0.615686 0.352941 
0.121569 0.615686 0.352941 0.121569 0.615686 0.352941 
0.121569 0.615686 0.352941 0.121569 0.615686 0.352941 
0.121569 0.615686 0.352941 0.121569 0.615686 0.352941 
0.121569 0.615686 0.352941 0.121569 0.615686 0.352941 
0.121569 0.615686 0.352941 0.121569 0.615686 0.352941 
0.121569 0.615686 0.352941 0.121569 0.615686 0.352941 
0.121569 0.615686 0.352941 0.121569 0.615686 0.352941 
0.121569 0.615686 0.352941 0.121569 0.615686 0.352941 
0.121569 0.615686 0.352941 0.121569 0.615686 0.352941 
0.121569 0.615686 0.352941 0.121569 0.615686 0.352941 
0.121569 0.615686 0.352941 0.121569 0.615686 0.352941 
0.121569 0.615686 0.352941 0.121569 0.615686 0.352941 
0.121569 0.615686 0.352941 0.121569 0.615686 0.352941 
0.121569 0.615686 0.352941 0.121569 0.615686 0.352941 
0.121569 0.615686 0.352941 0.121569 0.615686 0.352941 
0.121569 0.615686 0.352941 0.121569 0.615686 0.352941 
0.121569 0.615686 0.352941 0.121569 0.615686 0.352941 
0.121569 0.615686 0.352941 0.121569 0.615686 0.352941 
0.121569 0.615686 0.352941 0.121569 0.615686 0.352941 
0.121569 0.615686 0.352941 0.121569 0.615686 0.352941 
0.121569 0.615686 0.352941 0.121569 0.615686 0.352941 
0.121569 0.615686 0.352941 0.121569 0.615686 0.352941 
0.121569 0.615686 0.352941 0.121569 0.615686 0.352941 
0.121569 0.615686 0.352941 0.121569 0.615686 0.352941 
0.121569 0.615686 0.352941 0.121569 0.615686 0.352941 
0.121569 0.615686 0.352941 0.121569 0.615686 0.352941 
0.121569 0.615686 0.352941 0.121569 0.615686 0.352941 
0.121569 0.615686 0.352941 0.121569 0.615686 0.352941 
0.121569 0.615686 0.352941 0.121569 0.615686 0.352941 
0.121569 0.615686 0.352941 0.121569 0.615686 0.352941 
0.121569 0.615686 0.352941 0.121569 0.615686 0.352941 
0.121569 0.615686 0.352941 0.121569 0.615686 0.352941 
0.121569 0.615686 0.352941 0.121569 0.615686 0.352941 
0.121569 0.615686 0.352941 0.121569 0.615686 0.352941 
0.121569 0.615686 0.352941 0.121569 0.615686 0.352941 
0.121569 0.615686 0.352941 0.121569 0.615686 0.352941 
0.121569 0.615686 0.352941 0.121569 0.615686 0.352941 
0.121569 0.615686 0.352941 0.121569 0.615686 0.352941 
0.121569 0.615686 0.352941 0.121569 0.615686 0.352941 
0.121569 0.615686 0.352941 0.121569 0.615686 0.352941 
0.121569 0.615686 0.352941 0.121569 0.615686 0.352941 
0.121569 0.615686 0.352941 0.121569 0.615686 0.352941 
0.121569 0.615686 0.352941 0.121569 0.615686 0.352941 
0.121569 0.615686 0.352941 0.121569 0.615686 0.352941 
0.121569 0.615686 0.352941 0.121569 0.615686 0.352941 
0.121569 0.615686 0.352941 0.121569 0.615686 0.352941 
0.121569 0.615686 0.352941 0.121569 0.615686 0.352941 
0.121569 0.615686 0.352941 0.121569 0.615686 0.352941 
0.121569 0.615686 0.352941 0.121569 0.615686 0.352941 
0.121569 0.615686 0.352941 0.121569 0.615686 0.352941 
0.121569 0.615686 0.352941 0.121569 0.615686 0.352941 
0.121569 0.615686 0.352941 0.121569 0.615686 0.352941 
0.121569 0.615686 0.352941 0.121569 0.615686 0.352941 
0.121569 0.615686 0.352941 0.121569 0.615686 0.352941 
0.121569 0.615686 0.352941 0.121569 0.615686 0.352941 
0.121569 0.615686 0.352941 0.121569 0.615686 0.352941 
0.121569 0.615686 0.352941 0.121569 0.615686 0.352941 
0.121569 0.615686 0.352941 0.121569 0.615686 0.352941 
0.121569 0.615686 0.352941 0.121569 0.615686 0.352941 
0.121569 0.615686 0.352941 0.121569 0.615686 0.352941 
0.121569 0.615686 0.352941 0.121569 0.615686 0.352941 
0.121569 0.615686 0.352941 0.121569 0.615686 0.352941 
0.121569 0.615686 0.352941 0.121569 0.615686 0.352941 
0.121569 0.615686 0.352941 0.121569 0.615686 0.352941 
0.121569 0.615686 0.352941 0.121569 0.615686 0.352941 
0.121569 0.615686 0.352941 0.121569 0.615686 0.352941 
0.121569 0.615686 0.352941 0.121569 0.615686 0.352941 
0.121569 0.615686 0.352941 0.121569 0.615686 0.352941 
0.121569 0.615686 0.352941 0.121569 0.615686 0.352941 
0.121569 0.615686 0.352941 0.121569 0.615686 0.352941 
0.121569 0.615686 0.352941 0.121569 0.615686 0.352941 
0.121569 0.615686 0.352941 0.121569 0.615686 0.352941 
0.121569 0.615686 0.352941 0.121569 0.615686 0.352941 
0.121569 0.615686 0.352941 0.121569 0.615686 0.352941 
0.121569 0.615686 0.352941 0.121569 0.615686 0.352941 
0.121569 0.615686 0.352941 0.121569 0.615686 0.352941 
0.121569 0.615686 0.352941 0.121569 0.615686 0.352941 
0.121569 0.615686 0.352941 0.121569 0.615686 0.352941 
0.121569 0.615686 0.352941 0.121569 0.615686 0.352941 
0.121569 0.615686 0.352941 0.121569 0.615686 0.352941 
0.121569 0.615686 0.352941 0.121569 0.615686 0.352941 
0.121569 0.615686 0.352941 0.121569 0.615686 0.352941 
0.121569 0.615686 0.352941 0.121569 0.615686 0.352941 
0.121569 0.615686 0.352941 0.121569 0.615686 0.352941 
0.121569 0.615686 0.352941 0.121569 0.615686 0.352941 
0.121569 0.615686 0.352941 0.121569 0.615686 0.352941 
0.121569 0.615686 0.352941 0.121569 0.615686 0.352941 
0.121569 0.615686 0.352941 0.121569 0.615686 0.352941 
0.121569 0.615686 0.352941 0.121569 0.615686 0.352941 
0.121569 0.615686 0.352941 0.121569 0.615686 0.352941 
0.121569 0.615686 0.352941 0.121569 0.615686 0.352941 
0.121569 0.615686 0.352941 0.121569 0.615686 0.352941 
0.121569 0.615686 0.352941 0.121569 0.615686 0.352941 
0.121569 0.615686 0.352941 0.121569 0.615686 0.352941 
0.121569 0.615686 0.352941 0.121569 0.615686 0.352941 
0.121569 0.615686 0.352941 0.121569 0.615686 0.352941 
0.121569 0.615686 0.352941 0.121569 0.615686 0.352941 
0.121569 0.615686 0.352941 0.121569 0.615686 0.352941 
0.121569 0.615686 0.352941 0.121569 0.615686 0.352941 
0.121569 0.615686 0.352941 0.121569 0.615686 0.352941 
0.121569 0.615686 0.352941 0.121569 0.615686 0.352941 
0.121569 0.615686 0.352941 0.121569 0.615686 0.352941 
0.121569 0.615686 0.352941 0.121569 0.615686 0.352941 
0.121569 0.615686 0.352941 0.121569 0.615686 0.352941 
0.121569 0.615686 0.352941 0.121569 0.615686 0.352941 
0.121569 0.615686 0.352941 0.121569 0.615686 0.352941 
0.121569 0.615686 0.352941 0.121569 0.615686 0.352941 
0.121569 0.615686 0.352941 0.121569 0.615686 0.352941 
0.121569 0.615686 0.352941 0.121569 0.615686 0.352941 
0.121569 0.615686 0.352941 0.121569 0.615686 0.352941 
0.121569 0.615686 0.352941 0.121569 0.615686 0.352941 
0.121569 0.615686 0.352941 0.121569 0.615686 0.352941 
0.121569 0.615686 0.352941 0.121569 0.615686 0.352941 
0.121569 0.615686 0.352941 0.121569 0.615686 0.352941 
0.121569 0.615686 0.352941 0.121569 0.615686 0.352941 
0.121569 0.615686 0.352941 0.121569 0.615686 0.352941 
0.121569 0.615686 0.352941 0.121569 0.615686 0.352941 
0.121569 0.615686 0.352941 0.121569 0.615686 0.352941 
0.121569 0.615686 0.352941 0.121569 0.615686 0.352941 
0.121569 0.615686 0.352941 0.121569 0.615686 0.352941 
0.121569 0.615686 0.352941 0.121569 0.615686 0.352941 
0.121569 0.615686 0.352941 
NORMALS Normals float
0.211026 -0.245571 -0.94613 0.175796 -0.529581 -0.829843 -0.235023 -0.179592 -0.955254 
0.0530461 0.0373244 -0.997894 -0.364253 0.00880149 -0.931258 0.370808 -0.22211 -0.901759 
0.0366234 -0.115846 -0.992592 -0.263324 0.062709 -0.962667 0.235275 -0.213147 -0.948269 
-0.404404 0.159807 -0.900511 -0.448295 0.257561 -0.855976 -0.339447 0.187284 -0.921792 
0.0332045 -0.0933967 -0.995075 -0.053936 0.0525285 -0.997162 0.000913358 0.146374 -0.989229 
-0.222056 0.323219 -0.919902 -0.234272 0.554554 -0.79849 -0.163436 0.639045 -0.751605 
0.0694981 -0.735889 -0.673526 -0.400593 -0.382043 -0.832808 0.552233 -0.369261 -0.747452 
-0.321315 0.16953 -0.931674 0.511183 -0.445848 -0.734787 -0.471644 0.165457 -0.866127 
-0.609486 0.350547 -0.711087 -0.546173 0.567992 -0.615695 -0.310322 0.360854 -0.87948 
-0.313806 0.596882 -0.738415 -0.418152 0.708487 -0.568503 0.18667 0.125516 -0.974372 
0.227014 0.201834 -0.952747 -0.202093 0.611065 -0.765349 0.352012 0.376745 -0.856826 
0.193023 0.496775 -0.846142 -0.385217 -0.597405 -0.70336 0.291062 -0.723017 -0.626521 
-0.512678 -0.447035 -0.733022 0.501173 -0.536107 -0.679275 -0.603269 -0.0107021 -0.797466 
-0.533482 0.763676 -0.363587 0.482846 -0.21828 -0.848064 0.574582 0.186752 -0.796855 
-0.396011 0.837421 -0.376698 -0.044184 0.797041 -0.602306 -0.177786 0.917266 -0.356391 
0.253482 0.604195 -0.755444 0.312292 0.549552 -0.774897 0.611081 0.210238 -0.763138 
0.235207 0.856396 -0.459634 -0.242693 -0.750579 -0.614599 -0.029346 -0.7694 -0.638092 
0.536145 -0.652277 -0.535802 -0.560584 0.80259 -0.203946 0.845106 0.0756069 -0.529226 
-0.344353 0.882528 -0.320258 0.0288778 0.938734 -0.343431 0.568888 0.677645 -0.466007 
0.833706 0.379605 -0.401041 0.066675 0.997488 -0.0239395 0.229639 0.97302 0.0223265 
0.533562 0.842138 -0.0782064 -0.0822272 -0.852466 -0.516276 -0.348117 -0.641844 -0.683265 
-0.675255 0.601851 -0.426387 0.740019 -0.357682 -0.569592 -0.325167 0.945563 -0.0133383 
0.883143 0.426527 -0.195278 0.620093 0.77066 -0.146863 -0.646362 -0.339047 -0.683567 
-0.669549 -0.0173258 -0.742566 -0.435632 0.884971 0.164472 0.881611 0.122912 -0.455691 
0.346304 0.934116 -0.0866012 -0.0330595 0.999054 0.0282508 -0.547569 -0.619616 -0.562357 
-0.724616 -0.149326 -0.672781 -0.577012 0.781933 -0.235878 -0.599451 0.799077 0.0462089 
0.703587 0.697309 -0.136838 -0.677969 0.386555 -0.625247 0.82303 -0.38495 -0.417654 
-0.564955 0.80928 0.160908 0.941563 0.0218837 -0.336125 0.831698 0.555213 -0.00415423 
0.229015 0.96215 0.147716 0.200883 -0.71401 -0.670698 -0.644282 -0.481612 -0.594097 
-0.757097 -0.181016 -0.627723 -0.738063 -0.0076505 -0.674688 -0.674133 0.446946 -0.588034 
0.988326 0.116405 -0.0982896 0.944854 0.305132 0.118935 0.674434 0.702949 0.225837 
-0.145288 0.966429 0.21191 0.116193 -0.856121 -0.503544 0.331231 -0.701211 -0.631339 
0.423744 -0.682833 -0.59513 -0.252423 -0.883387 -0.394855 -0.0778836 -0.805336 -0.58768 
-0.768788 -0.487313 -0.414114 -0.770412 0.259123 -0.582513 0.848531 -0.500972 -0.170359 
0.961349 -0.208516 -0.179803 0.987629 -0.0474589 0.149456 0.942578 0.243675 0.228406 
0.404808 0.893801 0.193005 0.590582 0.709769 0.38398 0.505902 -0.693271 -0.513263 
-0.656387 -0.646663 -0.388566 -0.529852 -0.821096 -0.21227 -0.830854 -0.478892 -0.283451 
-0.418581 0.903908 0.0879778 0.956243 -0.286282 0.0603416 0.94511 -0.240385 0.221321 
0.912607 0.0354232 0.407301 -0.379421 0.81357 0.440617 0.760555 0.41052 0.503021 
-0.260538 0.802805 0.536306 0.299722 0.807321 0.508331 0.696093 0.567705 0.439506 
-0.164967 0.907955 0.385232 0.160165 -0.91517 -0.369881 0.251372 -0.919566 -0.302012 
-0.16411 -0.972268 -0.166624 0.513217 -0.709247 -0.483297 -0.393331 -0.880072 -0.266015 
-0.864629 -0.0366678 -0.501072 -0.776086 0.319325 -0.543804 0.900212 -0.391529 0.190587 
0.758369 0.142399 0.636081 -0.35542 0.826833 0.435918 -0.0879736 0.732348 0.675224 
0.524718 0.426365 0.736806 0.812925 0.241101 0.530117 0.255444 0.629664 0.73367 
0.727829 -0.498047 -0.471395 -0.944356 -0.0963156 -0.314508 -0.923192 0.147703 -0.354824 
-0.691866 0.598162 -0.404379 0.824775 -0.527853 -0.202773 -0.615578 0.695596 -0.370419 
0.945722 -0.273173 0.17603 0.88798 -0.243711 0.389996 -0.243386 0.873519 0.421578 