# vtk DataFile Version 4.2
vtk output
ASCII
DATASET POLYDATA
POINTS 349 float
174.994 242.112 219.31 173.923 243.175 218.804 175.522 243.525 219.203 
172.617 243.993 218.85 172.431 244.408 218.976 174.502 244.672 219.023 
176.097 244.81 219.521 176.517 244.482 219.688 171.995 245.063 219.399 
175.053 245.115 219.241 172.47 236.645 220.188 172.163 238.542 219.452 
172.965 239.372 219.407 173.716 239.233 219.82 174.13 241.817 219.077 
172.437 242.383 218.736 177.296 243.924 220.214 169.867 244.46 219.957 
175.402 245.52 219.536 175.995 245.368 219.677 171.425 230.426 221.121 
171.41 230.297 221.127 170.327 231.555 220.596 170.187 232.361 220.456 
171.401 232.059 220.969 171.459 234.059 220.581 171.989 233.47 221.207 
171.924 235.223 220.45 169.048 236.148 219.846 170.662 236.054 219.815 
171.443 235.902 220.009 173.443 236.599 221.209 176.633 242.071 220.491 
167.396 242.712 221.093 177.388 243.398 220.467 177.526 244.667 220.466 
175.166 246.568 220.32 173.334 247.026 220.886 171.822 223.476 222.222 
169.471 224.546 221.325 171.383 224.056 221.863 171.862 224.039 222.021 
172.106 224.23 222.148 172.12 223.971 222.146 172.247 224.048 222.249 
168.538 225.444 221.161 170.646 224.825 221.529 171.177 224.577 221.729 
172.134 224.498 222.304 172.279 224.227 222.377 170.551 225.642 221.446 
171.031 226.236 221.69 171.572 225.956 222.118 170.666 228.385 221.401 
168.931 229.949 220.675 171.233 229.83 221.378 168.612 232.75 220.354 
172.455 233.502 221.912 164.591 240.485 222.289 178.19 243.26 221.711 
178.763 244.106 221.981 178.492 244.614 221.481 169.91 245.772 221.374 
178.535 245.032 221.602 166.904 219.192 222.841 167.314 220.452 222.368 
167.824 220.246 222.527 167.244 221.304 222.092 169.595 221.023 222.866 
170.997 222.387 222.634 171.142 222.22 223.072 172.032 223.562 222.351 
172.131 223.551 222.71 172.315 224.011 222.409 172.336 224.104 222.623 
171.685 227.254 222.444 163.604 233.464 221.845 173.215 235.076 222.299 
162.943 237.294 222.239 163.576 239.493 222.576 163.321 239.925 223.131 
179.271 244.721 222.541 179.174 245.302 222.424 179.256 246.732 222.936 
165.529 217.834 223.266 166.361 216.938 223.805 166.915 217.227 223.861 
168.503 219.561 223.271 164.857 222.742 222.18 171.868 223.072 222.992 
172.297 223.879 222.615 172.203 225.813 223.233 172.144 229.344 223.72 
161.705 238.887 223.927 163.388 240.324 223.503 179.44 244.473 222.903 
179.665 246.728 223.29 178.449 247.423 222.914 172.851 248.704 224.021 
176.44 248.53 223.36 165.316 214.347 224.679 165.075 215.623 224.167 
164.647 215.014 224.426 165.776 215.604 224.255 165.984 214.607 224.757 
166.293 216.037 224.252 166.748 215.611 224.807 162.865 217.385 224.057 
168.444 218.663 224.213 161.517 222.882 223.684 171.923 222.954 223.626 
160.096 233.136 224.423 160.066 235.692 224.604 160.654 237.18 224.206 
160.715 238.776 225.32 180.533 245.209 224.344 181.101 246.36 225.048 
170.922 247.833 224.134 178.23 248.431 224.159 165.577 211.728 225.847 
165.482 211.458 226.048 165.325 211.7 225.895 165.735 212.115 225.696 
164.498 212.406 225.816 163.956 213.512 225.394 163.715 213.198 225.769 
164.109 214.133 224.97 162.534 214.904 225.456 163.335 215.123 224.795 
162.623 215.967 224.763 167.218 216.254 224.851 160.988 218.04 225.029 
160.51 218.119 225.453 160.223 218.489 225.646 160.338 219.706 225.127 
159.908 223.526 225.162 159.506 224.695 225.788 159.767 226.459 225.194 
159.318 231.499 225.833 159.497 236.199 225.946 161.276 239.714 225.943 
162.357 240.394 225.287 180.261 247.69 225.071 174.519 249.577 225.575 
178.662 248.738 225.291 165.363 211.036 226.55 165.372 210.84 226.859 
165.571 210.887 226.7 165.91 211.085 226.51 165.791 210.903 226.707 
165.984 210.977 226.726 164.375 211.638 226.865 166.074 211.781 226.058 
162.672 213.47 226.784 162.369 214.015 226.601 167.147 214.725 226.06 
160.7 216.318 226.706 167.876 216.453 225.968 160.142 217.404 226.535 
159.82 219.351 226.035 170.776 220.863 226.484 159.316 223.89 226.417 
159.246 225.874 226.455 172.895 232.663 225.911 159.51 237.239 226.858 
175.469 238.167 225.959 160.054 238.686 227.417 181.627 246.602 226.305 
179.683 248.39 225.631 173.171 249.525 226.699 165.159 210.873 227.021 
165.354 210.748 227.15 165.917 210.866 226.94 164.035 211.837 227.166 
162.411 213.715 227.031 167.23 214.505 226.637 160.769 216.071 227.173 
167.564 215.325 226.952 159.679 218.519 227.213 159.665 219.162 226.662 
159.131 226.074 227.138 159.171 235.718 227.316 181.323 245.209 226.653 
181.696 246.261 226.641 181.74 246.638 227.185 181.488 247.105 226.603 
173.872 249.764 227.473 176.429 249.768 227.067 165.423 210.72 227.457 
166.082 211.027 227.688 165.213 210.792 227.653 164.416 211.532 227.96 
166.962 213.331 227.77 162.054 214.258 227.909 161.103 215.602 227.709 
167.346 214.637 227.963 171.063 221.223 228.266 159.232 223.279 227.757 
159.156 225.294 227.817 159.066 234.089 227.899 159.504 237.531 228.388 
165.536 242.974 227.485 180.355 243.863 227.74 181.425 245.394 227.518 
181.684 246.846 227.454 181.358 247.417 227.416 180.408 248.129 227.615 
165.419 210.741 227.781 165.5 210.814 228.068 165.73 210.85 228.135 
165.944 210.944 228.053 166.011 211.118 228.307 166.144 211.452 228.418 
166.57 212.27 228.159 163.536 212.629 228.571 161.605 215.244 228.669 
160.467 216.751 228.203 160.171 217.65 228.669 159.963 217.97 228.409 
181.378 246.304 228.826 181.156 247.35 228.544 181.402 247.156 228.275 
165.573 211.01 228.433 165.84 210.982 228.321 165.606 211.281 228.715 
165.863 211.25 228.569 165.101 211.472 228.707 166.018 211.679 228.745 
165.863 211.914 228.979 162.6 213.969 228.857 163.536 213.104 229.024 
162.415 214.754 229.255 161.535 215.898 229.151 159.991 218.762 228.866 
168.434 218.05 229.93 169.152 219.129 230.08 159.567 223.809 229.118 
172.316 223.655 229.757 160.183 238.717 229.959 163.262 241.097 229.892 
180.395 244.278 229.453 181.133 246.211 229.516 181.375 246.897 228.648 
181.017 247.016 229.555 179.381 248.457 229.216 174.653 249.623 229.258 
164.57 213.52 229.701 165.1 214.428 230.196 165.969 214.115 229.775 
165.835 214.678 230.167 162.945 215.402 230.013 166.531 215.412 230.099 
163.61 216.005 230.609 167.361 216.268 229.833 172.398 224.178 230.983 
172.534 225.371 230.449 160.059 231.521 230.407 160.404 238.162 230.656 
180.838 246.652 230.218 172.097 248.473 230.962 178.178 248.605 230.227 
165.632 215.68 230.666 164.97 217.499 231.495 163.901 218.365 231.556 
169.396 220.3 231.547 163.164 221.108 231.951 172.425 225.011 231.55 
161.067 231.456 231.446 160.899 238.847 230.824 162.736 240.244 230.981 
177.077 240.665 231.394 178.195 242.158 231.633 178.922 243.28 231.657 
167.434 244.131 231.891 180.225 246.534 231.128 179.92 247.059 231.062 
179.763 246.886 231.396 172.811 248.464 231.582 165.401 217.995 231.705 
166.794 217.745 231.336 166.662 218.627 231.842 168.494 219.549 231.694 
168.366 219.841 232.019 165.787 221.056 232.727 172.168 223.834 232.073 
172.363 224.47 232.303 172.332 224.356 232.538 172.313 224.895 232.163 
172.284 224.577 232.551 171.863 227.008 232.256 173.097 234.585 232.504 
162.883 238.937 232.345 178.391 247.253 232.085 174.281 248.559 231.73 
167.317 219.93 232.392 167.807 222.243 233.183 171.938 223.568 232.341 
172.073 223.94 232.554 172.245 224.215 232.617 172.249 224.379 232.686 
172.085 224.882 232.635 172.115 224.53 232.757 171.486 228.743 232.769 
171.471 227.984 232.813 171.332 230.013 233.375 165.295 236.493 234.07 
177.32 242.337 233.705 166.091 241.999 232.898 178.424 244.66 233.374 
172.059 224.261 232.771 169.944 225.158 233.642 171.1 224.563 233.219 
171.703 224.593 232.942 170.629 228.692 233.562 171.429 230.565 233.754 
171.467 230.515 233.615 170.506 229.995 233.94 171.541 231.316 233.699 
171.662 232.063 233.732 168.562 232.928 234.654 170.146 232.561 234.563 
172.838 236.03 234.18 165.488 240.794 233.316 167.005 240.538 234.505 
177.378 243.796 234.496 169.058 244.45 234.375 177.23 245.288 234.522 
172.807 246.945 234.073 171.346 230.616 233.819 171.369 233.142 234.234 
174.212 239.34 234.959 177.016 243.423 234.82 177.201 244.422 234.776 
176.377 244.993 235.335 174.776 246.479 234.687 172.781 240.203 235.928 
173.488 240.093 235.692 171.928 241.16 236.175 172.385 242.401 236.293 
173.833 243.073 236.286 170.382 244.335 235.367 175.578 244.596 235.83 
174.571 244.995 235.888 171.974 245.211 235.456 175.25 243.243 236.03 
175.693 243.072 235.792 174.672 243.868 236.172 175.092 243.64 236.108 
171.41 230.297 221.127 
POLYGONS 692 2768
3 0 2 34 
3 0 1 5 
3 0 5 2 
3 34 2 7 
3 7 16 34 
3 3 4 1 
3 5 1 4 
3 2 5 9 
3 6 7 9 
3 9 7 2 
3 4 9 5 
3 6 9 18 
3 11 13 10 
3 13 11 12 
3 11 28 12 
3 17 15 28 
3 12 28 14 
3 14 28 15 
3 13 12 14 
3 13 14 32 
3 0 32 14 
3 32 0 34 
3 1 14 15 
3 0 14 1 
3 15 17 3 
3 1 15 3 
3 3 8 4 
3 3 17 8 
3 16 7 35 
3 6 18 19 
3 6 19 7 
3 35 7 19 
3 4 8 37 
3 9 4 36 
3 18 9 36 
3 19 18 36 
3 22 24 20 
3 24 22 23 
3 57 20 24 
3 26 24 23 
3 25 26 23 
3 26 25 27 
3 27 25 29 
3 29 25 28 
3 30 27 29 
3 10 27 30 
3 10 29 11 
3 30 29 10 
3 10 13 31 
3 11 29 28 
3 34 16 59 
3 16 35 59 
3 8 17 37 
3 37 36 4 
3 45 39 68 
3 69 68 40 
3 40 68 39 
3 69 40 38 
3 47 40 39 
3 43 38 41 
3 41 38 40 
3 41 42 43 
3 43 42 44 
3 46 39 45 
3 47 39 46 
3 41 40 48 
3 48 40 47 
3 48 49 42 
3 48 42 41 
3 44 42 49 
3 50 46 45 
3 47 46 48 
3 48 46 50 
3 48 50 51 
3 51 50 45 
3 51 52 48 
3 75 52 51 
3 53 45 54 
3 51 53 75 
3 51 45 53 
3 53 55 75 
3 53 54 55 
3 21 55 20 
3 20 54 22 
3 55 54 20 
3 348 20 57 
3 78 56 76 
3 22 54 76 
3 22 76 23 
3 23 76 56 
3 23 56 25 
3 24 26 57 
3 25 56 28 
3 56 78 28 
3 27 10 31 
3 28 78 17 
3 78 58 17 
3 17 58 33 
3 34 59 32 
3 60 59 61 
3 59 35 61 
3 35 63 61 
3 60 61 63 
3 17 62 37 
3 19 36 97 
3 35 19 97 
3 66 64 65 
3 87 66 68 
3 88 67 65 
3 66 65 68 
3 68 65 67 
3 68 67 88 
3 38 71 72 
3 45 68 88 
3 38 43 71 
3 71 73 72 
3 71 43 73 
3 73 43 44 
3 48 74 49 
3 73 44 49 
3 74 73 49 
3 48 52 74 
3 54 45 76 
3 75 55 92 
3 92 55 348 
3 92 348 57 
3 26 77 57 
3 77 26 27 
3 27 31 77 
3 79 78 80 
3 58 78 79 
3 58 79 94 
3 79 80 94 
3 13 32 59 
3 81 59 60 
3 17 33 62 
3 81 60 82 
3 81 82 95 
3 63 35 97 
3 63 82 60 
3 63 97 82 
3 116 95 82 
3 83 96 82 
3 83 82 97 
3 116 82 96 
3 98 37 117 
3 36 37 98 
3 99 36 98 
3 97 36 99 
3 84 86 85 
3 64 84 107 
3 86 84 64 
3 64 66 86 
3 64 107 65 
3 65 107 88 
3 87 68 108 
3 88 107 109 
3 69 70 68 
3 69 110 70 
3 38 89 69 
3 69 89 110 
3 89 38 72 
3 90 72 73 
3 90 89 72 
3 74 91 90 
3 73 74 90 
3 88 109 45 
3 52 91 74 
3 45 109 137 
3 75 92 91 
3 91 52 75 
3 45 137 76 
3 76 137 111 
3 113 111 112 
3 76 111 113 
3 57 77 163 
3 76 113 78 
3 78 113 93 
3 78 93 80 
3 31 13 165 
3 59 81 95 
3 115 95 116 
3 37 62 117 
3 83 97 142 
3 104 100 102 
3 102 101 104 
3 104 101 103 
3 102 107 101 
3 103 101 105 
3 106 104 103 
3 105 106 103 
3 85 101 84 
3 105 101 85 
3 105 130 106 
3 105 85 130 
3 85 86 130 
3 101 107 84 
3 66 108 86 
3 108 66 87 
3 108 68 70 
3 135 109 134 
3 89 90 110 
3 92 255 91 
3 163 92 57 
3 77 31 163 
3 114 113 164 
3 31 165 163 
3 93 113 114 
3 80 93 141 
3 80 141 94 
3 94 141 58 
3 201 33 58 
3 59 182 13 
3 59 95 182 
3 182 95 115 
3 62 33 117 
3 116 96 142 
3 96 83 142 
3 99 118 97 
3 118 144 97 
3 144 142 97 
3 99 98 143 
3 118 99 143 
3 119 120 121 
3 122 121 123 
3 121 122 119 
3 152 119 122 
3 124 125 153 
3 123 125 124 
3 123 124 122 
3 100 122 124 
3 152 122 104 
3 104 122 100 
3 104 155 152 
3 127 124 153 
3 126 124 127 
3 100 124 126 
3 126 127 128 
3 102 100 128 
3 100 126 128 
3 127 154 129 
3 128 127 129 
3 102 129 107 
3 102 128 129 
3 155 104 106 
3 129 154 131 
3 130 86 157 
3 132 131 158 
3 129 131 107 
3 86 108 157 
3 132 133 131 
3 131 133 134 
3 107 131 134 
3 134 133 159 
3 107 134 109 
3 135 134 179 
3 70 160 108 
3 110 237 70 
3 70 237 160 
3 110 90 237 
3 136 135 161 
3 109 135 136 
3 162 137 136 
3 109 136 137 
3 91 255 90 
3 137 180 111 
3 111 180 138 
3 181 112 111 
3 113 112 139 
3 114 164 140 
3 114 140 93 
3 141 93 140 
3 58 141 201 
3 201 117 33 
3 115 116 182 
3 167 116 142 
3 98 117 143 
3 118 143 187 
3 118 187 144 
3 145 148 147 
3 146 145 147 
3 147 148 149 
3 149 148 150 
3 151 120 145 
3 148 145 120 
3 119 148 120 
3 123 151 173 
3 120 151 123 
3 120 123 121 
3 148 119 152 
3 152 150 148 
3 123 173 125 
3 150 152 155 
3 125 173 153 
3 127 153 154 
3 154 156 131 
3 157 106 130 
3 131 156 158 
3 132 158 133 
3 92 163 255 
3 138 199 111 
3 111 199 181 
3 112 181 139 
3 139 164 113 
3 164 166 140 
3 201 141 140 
3 202 13 182 
3 183 182 116 
3 183 116 167 
3 167 142 185 
3 168 142 144 
3 143 117 169 
3 143 169 187 
3 146 170 145 
3 171 170 146 
3 171 146 172 
3 172 146 147 
3 149 172 147 
3 149 150 172 
3 145 170 151 
3 189 172 150 
3 153 174 154 
3 173 214 153 
3 155 189 150 
3 156 154 194 
3 175 192 155 
3 195 192 175 
3 156 194 176 
3 175 177 195 
3 106 157 177 
3 106 177 175 
3 106 175 155 
3 156 176 158 
3 158 178 133 
3 178 179 133 
3 133 179 159 
3 108 160 157 
3 159 179 134 
3 179 197 135 
3 135 197 161 
3 161 197 136 
3 197 198 136 
3 90 255 237 
3 136 198 162 
3 198 180 162 
3 162 180 137 
3 181 200 139 
3 139 200 164 
3 164 200 166 
3 202 165 13 
3 183 167 184 
3 167 185 184 
3 144 187 168 
3 142 168 206 
3 187 169 186 
3 172 207 188 
3 171 172 188 
3 189 207 172 
3 188 170 171 
3 190 170 188 
3 151 191 173 
3 190 151 170 
3 191 151 190 
3 189 155 192 
3 154 174 193 
3 214 174 153 
3 193 174 214 
3 193 194 154 
3 215 194 193 
3 195 177 157 
3 158 176 178 
3 157 160 234 
3 179 178 233 
3 179 233 197 
3 160 237 196 
3 180 256 138 
3 199 238 181 
3 181 238 200 
3 200 238 166 
3 201 140 239 
3 117 201 259 
3 202 203 219 
3 182 203 202 
3 183 203 182 
3 203 183 184 
3 204 184 205 
3 259 169 117 
3 185 206 205 
3 142 206 185 
3 205 184 185 
3 168 187 206 
3 207 208 226 
3 208 207 209 
3 189 211 210 
3 189 210 207 
3 207 210 209 
3 190 207 226 
3 188 207 190 
3 211 189 212 
3 173 191 214 
3 226 191 190 
3 214 191 226 
3 212 189 213 
3 213 227 212 
3 213 189 192 
3 230 229 193 
3 214 230 193 
3 193 229 231 
3 195 251 192 
3 194 215 232 
3 231 215 193 
3 216 232 217 
3 216 176 232 
3 176 194 232 
3 195 157 234 
3 216 217 178 
3 216 178 176 
3 217 218 178 
3 160 196 235 
3 233 236 197 
3 197 236 198 
3 198 236 180 
3 140 166 238 
3 140 238 239 
3 240 202 219 
3 203 184 219 
3 219 184 221 
3 221 184 204 
3 205 221 204 
3 206 275 220 
3 244 275 206 
3 221 206 220 
3 221 205 206 
3 244 206 187 
3 186 245 187 
3 208 209 222 
3 226 208 222 
3 209 210 223 
3 222 209 223 
3 210 211 223 
3 224 226 222 
3 224 222 225 
3 222 223 225 
3 211 212 225 
3 223 211 225 
3 227 224 225 
3 228 224 227 
3 225 212 227 
3 213 192 227 
3 192 251 227 
3 195 253 251 
3 234 253 195 
3 218 233 178 
3 233 218 217 
3 160 235 234 
3 264 235 196 
3 236 256 180 
3 199 256 238 
3 163 165 270 
3 202 240 272 
3 219 241 240 
3 242 243 219 
3 243 241 219 
3 219 221 242 
3 242 220 243 
3 242 221 220 
3 220 275 243 
3 245 260 187 
3 169 245 186 
3 226 246 214 
3 226 224 246 
3 224 228 246 
3 230 214 246 
3 230 246 229 
3 228 248 246 
3 228 227 248 
3 246 250 229 
3 247 248 249 
3 247 246 248 
3 227 251 248 
3 231 250 215 
3 231 229 250 
3 250 246 247 
3 249 248 251 
3 232 215 250 
3 252 232 250 
3 247 252 250 
3 217 232 233 
3 234 235 253 
3 233 267 236 
3 237 255 254 
3 267 256 236 
3 290 255 163 
3 256 199 138 
3 256 257 238 
3 290 163 270 
3 290 270 321 
3 270 165 202 
3 239 269 201 
3 270 202 272 
3 271 270 272 
3 274 272 240 
3 258 240 241 
3 243 258 241 
3 258 243 275 
3 169 259 293 
3 169 293 245 
3 260 244 187 
3 249 251 247 
3 247 251 261 
3 252 247 261 
3 252 261 262 
3 251 253 261 
3 232 252 262 
3 279 262 261 
3 253 279 261 
3 262 263 232 
3 263 262 278 
3 281 253 235 
3 263 265 232 
3 265 233 232 
3 235 264 281 
3 233 265 267 
3 237 254 196 
3 285 254 266 
3 266 254 255 
3 303 255 290 
3 268 257 256 
3 257 268 238 
3 239 238 268 
3 239 268 269 
3 201 269 273 
3 273 259 201 
3 240 258 274 
3 258 275 274 
3 274 275 276 
3 245 292 260 
3 276 275 244 
3 276 244 292 
3 292 244 260 
3 259 277 293 
3 262 279 278 
3 279 280 278 
3 253 280 279 
3 278 280 263 
3 253 294 280 
3 281 294 253 
3 280 283 263 
3 283 280 294 
3 282 281 264 
3 265 263 283 
3 295 265 283 
3 254 296 196 
3 196 296 264 
3 284 296 254 
3 310 265 295 
3 286 284 285 
3 284 254 285 
3 285 287 288 
3 285 266 287 
3 286 285 288 
3 266 289 300 
3 255 289 266 
3 300 287 266 
3 265 310 267 
3 289 255 303 
3 305 268 256 
3 291 268 305 
3 268 291 269 
3 291 273 269 
3 322 273 291 
3 270 271 306 
3 271 308 306 
3 271 272 308 
3 322 307 273 
3 272 274 308 
3 293 292 245 
3 294 281 282 
3 294 295 283 
3 295 294 282 
3 264 296 282 
3 296 297 309 
3 284 297 296 
3 284 286 297 
3 286 298 297 
3 299 298 286 
3 288 300 301 
3 287 300 288 
3 299 286 288 
3 301 299 288 
3 303 290 302 
3 304 302 315 
3 302 290 315 
3 315 290 318 
3 310 305 267 
3 305 310 319 
3 305 256 267 
3 329 290 321 
3 322 305 323 
3 330 321 270 
3 305 322 291 
3 324 306 308 
3 325 273 307 
3 325 259 273 
3 308 276 326 
3 308 274 276 
3 276 292 326 
3 292 334 326 
3 277 259 327 
3 293 277 327 
3 334 293 327 
3 292 293 334 
3 296 309 282 
3 282 310 295 
3 297 298 309 
3 298 299 309 
3 282 311 310 
3 309 312 282 
3 312 311 282 
3 301 300 312 
3 301 312 309 
3 299 301 309 
3 300 289 311 
3 300 311 312 
3 311 303 310 
3 311 289 303 
3 313 319 310 
3 303 302 313 
3 303 313 310 
3 313 316 319 
3 313 304 316 
3 313 302 304 
3 316 304 328 
3 315 314 304 
3 328 304 314 
3 314 315 317 
3 316 328 319 
3 315 318 317 
3 318 290 329 
3 320 319 328 
3 319 320 329 
3 319 323 305 
3 270 306 330 
3 307 322 323 
3 326 324 308 
3 259 325 340 
3 259 340 327 
3 334 333 326 
3 314 317 328 
3 317 318 328 
3 320 328 318 
3 318 329 320 
3 319 329 321 
3 323 319 337 
3 330 306 345 
3 344 330 345 
3 306 331 345 
3 306 324 331 
3 307 323 325 
3 331 324 332 
3 326 333 332 
3 326 332 324 
3 319 321 335 
3 330 335 321 
3 335 337 319 
3 330 336 335 
3 323 337 338 
3 336 337 335 
3 330 344 336 
3 336 338 337 
3 344 338 336 
3 338 340 323 
3 339 338 344 
3 325 323 340 
3 338 339 340 
3 333 345 331 
3 333 341 345 
3 331 332 333 
3 343 340 339 
3 340 343 327 
3 334 327 342 
3 327 343 342 
3 341 334 342 
3 333 334 341 
3 339 344 346 
3 347 346 344 
3 345 341 344 
3 341 347 344 
3 346 342 339 
3 347 342 346 
3 347 341 342 
3 342 343 339 

POINT_DATA 349
COLOR_SCALARS scalars 3
0.588235 0.654902 0.827451 0.588235 0.654902 0.827451 0.588235 0.654902 0.827451 
0.588235 0.654902 0.827451 0.588235 0.654902 0.827451 
0.588235 0.654902 0.827451 0.588235 0.654902 0.827451 
0.588235 0.654902 0.827451 0.588235 0.654902 0.827451 
0.588235 0.654902 0.827451 0.588235 0.654902 0.827451 
0.588235 0.654902 0.827451 0.588235 0.654902 0.827451 
0.588235 0.654902 0.827451 0.588235 0.654902 0.827451 
0.588235 0.654902 0.827451 0.588235 0.654902 0.827451 
0.588235 0.654902 0.827451 0.588235 0.654902 0.827451 
0.588235 0.654902 0.827451 0.588235 0.654902 0.827451 
0.588235 0.654902 0.827451 0.588235 0.654902 0.827451 
0.588235 0.654902 0.827451 0.588235 0.654902 0.827451 
0.588235 0.654902 0.827451 0.588235 0.654902 0.827451 
0.588235 0.654902 0.827451 0.588235 0.654902 0.827451 
0.588235 0.654902 0.827451 0.588235 0.654902 0.827451 
0.588235 0.654902 0.827451 0.588235 0.654902 0.827451 
0.588235 0.654902 0.827451 0.588235 0.654902 0.827451 
0.588235 0.654902 0.827451 0.588235 0.654902 0.827451 
0.588235 0.654902 0.827451 0.588235 0.654902 0.827451 
0.588235 0.654902 0.827451 0.588235 0.654902 0.827451 
0.588235 0.654902 0.827451 0.588235 0.654902 0.827451 
0.588235 0.654902 0.827451 0.588235 0.654902 0.827451 
0.588235 0.654902 0.827451 0.588235 0.654902 0.827451 
0.588235 0.654902 0.827451 0.588235 0.654902 0.827451 
0.588235 0.654902 0.827451 0.588235 0.654902 0.827451 
0.588235 0.654902 0.827451 0.588235 0.654902 0.827451 
0.588235 0.654902 0.827451 0.588235 0.654902 0.827451 
0.588235 0.654902 0.827451 0.588235 0.654902 0.827451 
0.588235 0.654902 0.827451 0.588235 0.654902 0.827451 
0.588235 0.654902 0.827451 0.588235 0.654902 0.827451 
0.588235 0.654902 0.827451 0.588235 0.654902 0.827451 
0.588235 0.654902 0.827451 0.588235 0.654902 0.827451 
0.588235 0.654902 0.827451 0.588235 0.654902 0.827451 
0.588235 0.654902 0.827451 0.588235 0.654902 0.827451 
0.588235 0.654902 0.827451 0.588235 0.654902 0.827451 
0.588235 0.654902 0.827451 0.588235 0.654902 0.827451 
0.588235 0.654902 0.827451 0.588235 0.654902 0.827451 
0.588235 0.654902 0.827451 0.588235 0.654902 0.827451 
0.588235 0.654902 0.827451 0.588235 0.654902 0.827451 
0.588235 0.654902 0.827451 0.588235 0.654902 0.827451 
0.588235 0.654902 0.827451 0.588235 0.654902 0.827451 
0.588235 0.654902 0.827451 0.588235 0.654902 0.827451 
0.588235 0.654902 0.827451 0.588235 0.654902 0.827451 
0.588235 0.654902 0.827451 0.588235 0.654902 0.827451 
0.588235 0.654902 0.827451 0.588235 0.654902 0.827451 
0.588235 0.654902 0.827451 0.588235 0.654902 0.827451 
0.588235 0.654902 0.827451 0.588235 0.654902 0.827451 
0.588235 0.654902 0.827451 0.588235 0.654902 0.827451 
0.588235 0.654902 0.827451 0.588235 0.654902 0.827451 
0.588235 0.654902 0.827451 0.588235 0.654902 0.827451 
0.588235 0.654902 0.827451 0.588235 0.654902 0.827451 
0.588235 0.654902 0.827451 0.588235 0.654902 0.827451 
0.588235 0.654902 0.827451 0.588235 0.654902 0.827451 
0.588235 0.654902 0.827451 0.588235 0.654902 0.827451 
0.588235 0.654902 0.827451 0.588235 0.654902 0.827451 
0.588235 0.654902 0.827451 0.588235 0.654902 0.827451 
0.588235 0.654902 0.827451 0.588235 0.654902 0.827451 
0.588235 0.654902 0.827451 0.588235 0.654902 0.827451 
0.588235 0.654902 0.827451 0.588235 0.654902 0.827451 
0.588235 0.654902 0.827451 0.588235 0.654902 0.827451 
0.588235 0.654902 0.827451 0.588235 0.654902 0.827451 
0.588235 0.654902 0.827451 0.588235 0.654902 0.827451 
0.588235 0.654902 0.827451 0.588235 0.654902 0.827451 
0.588235 0.654902 0.827451 0.588235 0.654902 0.827451 
0.588235 0.654902 0.827451 0.588235 0.654902 0.827451 
0.588235 0.654902 0.827451 0.588235 0.654902 0.827451 
0.588235 0.654902 0.827451 0.588235 0.654902 0.827451 
0.588235 0.654902 0.827451 0.588235 0.654902 0.827451 
0.588235 0.654902 0.827451 0.588235 0.654902 0.827451 
0.588235 0.654902 0.827451 0.588235 0.654902 0.827451 
0.588235 0.654902 0.827451 0.588235 0.654902 0.827451 
0.588235 0.654902 0.827451 0.588235 0.654902 0.827451 
0.588235 0.654902 0.827451 0.588235 0.654902 0.827451 
0.588235 0.654902 0.827451 0.588235 0.654902 0.827451 
0.588235 0.654902 0.827451 0.588235 0.654902 0.827451 
0.588235 0.654902 0.827451 0.588235 0.654902 0.827451 
0.588235 0.654902 0.827451 0.588235 0.654902 0.827451 
0.588235 0.654902 0.827451 0.588235 0.654902 0.827451 
0.588235 0.654902 0.827451 0.588235 0.654902 0.827451 
0.588235 0.654902 0.827451 0.588235 0.654902 0.827451 
0.588235 0.654902 0.827451 0.588235 0.654902 0.827451 
0.588235 0.654902 0.827451 0.588235 0.654902 0.827451 
0.588235 0.654902 0.827451 0.588235 0.654902 0.827451 
0.588235 0.654902 0.827451 0.588235 0.654902 0.827451 
0.588235 0.654902 0.827451 0.588235 0.654902 0.827451 
0.588235 0.654902 0.827451 0.588235 0.654902 0.827451 
0.588235 0.654902 0.827451 0.588235 0.654902 0.827451 
0.588235 0.654902 0.827451 0.588235 0.654902 0.827451 
0.588235 0.654902 0.827451 0.588235 0.654902 0.827451 
0.588235 0.654902 0.827451 0.588235 0.654902 0.827451 
0.588235 0.654902 0.827451 0.588235 0.654902 0.827451 
0.588235 0.654902 0.827451 0.588235 0.654902 0.827451 
0.588235 0.654902 0.827451 0.588235 0.654902 0.827451 
0.588235 0.654902 0.827451 0.588235 0.654902 0.827451 
0.588235 0.654902 0.827451 0.588235 0.654902 0.827451 
0.588235 0.654902 0.827451 0.588235 0.654902 0.827451 
0.588235 0.654902 0.827451 0.588235 0.654902 0.827451 
0.588235 0.654902 0.827451 0.588235 0.654902 0.827451 
0.588235 0.654902 0.827451 0.588235 0.654902 0.827451 
0.588235 0.654902 0.827451 0.588235 0.654902 0.827451 
0.588235 0.654902 0.827451 0.588235 0.654902 0.827451 
0.588235 0.654902 0.827451 0.588235 0.654902 0.827451 
0.588235 0.654902 0.827451 0.588235 0.654902 0.827451 
0.588235 0.654902 0.827451 0.588235 0.654902 0.827451 
0.588235 0.654902 0.827451 0.588235 0.654902 0.827451 
0.588235 0.654902 0.827451 0.588235 0.654902 0.827451 
0.588235 0.654902 0.827451 0.588235 0.654902 0.827451 
0.588235 0.654902 0.827451 0.588235 0.654902 0.827451 
0.588235 0.654902 0.827451 0.588235 0.654902 0.827451 
0.588235 0.654902 0.827451 0.588235 0.654902 0.827451 
0.588235 0.654902 0.827451 0.588235 0.654902 0.827451 
0.588235 0.654902 0.827451 0.588235 0.654902 0.827451 
0.588235 0.654902 0.827451 0.588235 0.654902 0.827451 
0.588235 0.654902 0.827451 0.588235 0.654902 0.827451 
0.588235 0.654902 0.827451 0.588235 0.654902 0.827451 
0.588235 0.654902 0.827451 0.588235 0.654902 0.827451 
0.588235 0.654902 0.827451 0.588235 0.654902 0.827451 
0.588235 0.654902 0.827451 0.588235 0.654902 0.827451 
0.588235 0.654902 0.827451 0.588235 0.654902 0.827451 
0.588235 0.654902 0.827451 0.588235 0.654902 0.827451 
0.588235 0.654902 0.827451 0.588235 0.654902 0.827451 
0.588235 0.654902 0.827451 0.588235 0.654902 0.827451 
0.588235 0.654902 0.827451 0.588235 0.654902 0.827451 
0.588235 0.654902 0.827451 0.588235 0.654902 0.827451 
0.588235 0.654902 0.827451 0.588235 0.654902 0.827451 
0.588235 0.654902 0.827451 0.588235 0.654902 0.827451 
0.588235 0.654902 0.827451 0.588235 0.654902 0.827451 
0.588235 0.654902 0.827451 0.588235 0.654902 0.827451 
0.588235 0.654902 0.827451 0.588235 0.654902 0.827451 
0.588235 0.654902 0.827451 0.588235 0.654902 0.827451 
0.588235 0.654902 0.827451 0.588235 0.654902 0.827451 
0.588235 0.654902 0.827451 0.588235 0.654902 0.827451 
0.588235 0.654902 0.827451 0.588235 0.654902 0.827451 
0.588235 0.654902 0.827451 0.588235 0.654902 0.827451 
0.588235 0.654902 0.827451 0.588235 0.654902 0.827451 
0.588235 0.654902 0.827451 0.588235 0.654902 0.827451 
0.588235 0.654902 0.827451 0.588235 0.654902 0.827451 
0.588235 0.654902 0.827451 0.588235 0.654902 0.827451 
0.588235 0.654902 0.827451 0.588235 0.654902 0.827451 
0.588235 0.654902 0.827451 0.588235 0.654902 0.827451 
0.588235 0.654902 0.827451 0.588235 0.654902 0.827451 
0.588235 0.654902 0.827451 0.588235 0.654902 0.827451 
0.588235 0.654902 0.827451 0.588235 0.654902 0.827451 
0.588235 0.654902 0.827451 0.588235 0.654902 0.827451 
0.588235 0.654902 0.827451 0.588235 0.654902 0.827451 
0.588235 0.654902 0.827451 0.588235 0.654902 0.827451 
0.588235 0.654902 0.827451 0.588235 0.654902 0.827451 
0.588235 0.654902 0.827451 0.588235 0.654902 0.827451 
0.588235 0.654902 0.827451 0.588235 0.654902 0.827451 
0.588235 0.654902 0.827451 0.588235 0.654902 0.827451 
0.588235 0.654902 0.827451 0.588235 0.654902 0.827451 
0.588235 0.654902 0.827451 0.588235 0.654902 0.827451 
0.588235 0.654902 0.827451 0.588235 0.654902 0.827451 
0.588235 0.654902 0.827451 0.588235 0.654902 0.827451 
0.588235 0.654902 0.827451 0.588235 0.654902 0.827451 
0.588235 0.654902 0.827451 0.588235 0.654902 0.827451 
0.588235 0.654902 0.827451 0.588235 0.654902 0.827451 
0.588235 0.654902 0.827451 0.588235 0.654902 0.827451 
0.588235 0.654902 0.827451 0.588235 0.654902 0.827451 
0.588235 0.654902 0.827451 0.588235 0.654902 0.827451 
0.588235 0.654902 0.827451 0.588235 0.654902 0.827451 
0.588235 0.654902 0.827451 0.588235 0.654902 0.827451 
0.588235 0.654902 0.827451 0.588235 0.654902 0.827451 
0.588235 0.654902 0.827451 0.588235 0.654902 0.827451 
0.588235 0.654902 0.827451 0.588235 0.654902 0.827451 
0.588235 0.654902 0.827451 0.588235 0.654902 0.827451 
0.588235 0.654902 0.827451 0.588235 0.654902 0.827451 
0.588235 0.654902 0.827451 0.588235 0.654902 0.827451 
0.588235 0.654902 0.827451 0.588235 0.654902 0.827451 
0.588235 0.654902 0.827451 0.588235 0.654902 0.827451 
0.588235 0.654902 0.827451 0.588235 0.654902 0.827451 
0.588235 0.654902 0.827451 0.588235 0.654902 0.827451 
0.588235 0.654902 0.827451 0.588235 0.654902 0.827451 
0.588235 0.654902 0.827451 0.588235 0.654902 0.827451 

NORMALS Normals float
0.394379 -0.273493 -0.877307 0.181712 0.0406484 -0.982511 0.364399 -0.0575319 -0.929464 
-0.28621 0.136611 -0.948378 -0.121657 0.406675 -0.905437 0.150199 0.126935 -0.980473 
0.356603 0.187768 -0.915193 0.462739 0.0105006 -0.886432 -0.412066 0.389767 -0.823579 
0.152863 0.304512 -0.940162 0.436299 -0.302114 -0.847568 0.144749 -0.190984 -0.970862 
0.132303 -0.166795 -0.977075 0.65595 -0.49502 -0.569811 0.276952 -0.301382 -0.912396 
-0.101358 -0.0382175 -0.994116 0.681066 -0.123956 -0.721654 -0.456073 0.357971 -0.814773 
0.241168 0.47675 -0.845309 0.451482 0.443049 -0.774514 0.30356 -0.180365 -0.935585 
-0.877531 0.0778053 -0.473167 0.114398 -0.110341 -0.987288 0.175815 -0.303951 -0.936324 
0.546643 -0.10173 -0.831163 0.275888 -0.242275 -0.930155 0.670562 -0.23893 -0.702324 
0.525343 -0.357139 -0.772313 -0.141928 -0.0902719 -0.985752 0.150013 -0.270731 -0.950895 
0.245286 -0.293109 -0.924079 0.834241 -0.363636 -0.414501 0.601933 -0.510368 -0.614167 
-0.695201 0.595128 -0.403136 0.604105 -0.281837 -0.745402 0.679161 0.148481 -0.718814 
0.105566 0.712547 -0.693637 -0.206648 0.748579 -0.630021 0.494532 -0.573953 -0.652699 
0.114624 -0.250071 -0.961419 0.28953 -0.215552 -0.932582 0.305707 0.0466811 -0.950981 
0.565832 0.234989 -0.790325 0.608312 -0.304589 -0.732927 0.810853 -0.0457824 -0.583457 
-0.0734946 -0.0611615 -0.995418 0.311313 0.00931148 -0.950262 0.384303 -0.00229947 -0.923204 
0.617792 0.275865 -0.736364 0.901888 0.261199 -0.344055 0.301961 0.043633 -0.952321 
0.497395 0.0910109 -0.862737 0.822567 0.186666 -0.537158 0.430822 -0.111889 -0.895474 
0.103879 -0.160912 -0.981487 0.426499 -0.273406 -0.862176 -0.149857 -0.25948 -0.954051 
0.873844 -0.210731 -0.438165 -0.577494 0.583877 -0.570604 0.794137 -0.39775 -0.459502 
0.827335 -0.165026 -0.53692 0.771522 -0.0969583 -0.62877 -0.541098 0.698966 -0.467611 
0.758884 0.179988 -0.625859 0.0198011 -0.332561 -0.942874 0.0163278 -0.288005 -0.95749 
0.272706 -0.460187 -0.844902 0.13822 -0.00781802 -0.990371 0.32012 -0.385123 -0.865566 
0.553358 -0.611083 -0.566015 0.732504 -0.61589 -0.290031 0.695827 -0.590018 -0.409516 