# vtk DataFile Version 4.2
vtk output
ASCII
DATASET POLYDATA
POINTS 948 float
134.744 171.705 144.283 134.777 171.326 144.417 134.999 171.966 144.17 
134.855 172.646 144.141 133.359 173.65 144.622 136.179 168.708 145.044 
137.076 168.639 144.694 135.298 169.854 144.965 134.749 170.388 145.055 
138.493 169.604 144.4 135.399 172.339 144.08 136.02 172.049 144.071 
133.362 172.635 144.937 138.543 171.964 144.359 134.344 174.451 144.264 
131.787 176.74 145.508 131.696 176.836 145.668 131.889 176.777 145.491 
137.257 166.534 146.117 137.179 167.428 145.477 137.914 166.565 145.847 
139.646 166.565 146.108 136.066 167.922 145.82 141.562 168.002 145.953 
141.32 167.673 146.042 141.644 168.526 145.757 142.123 169.23 145.738 
142.484 169.149 145.948 142.702 169.343 146.042 141.859 169.839 145.552 
142.789 169.711 146.049 141.588 170.671 145.476 132.401 174.533 145.255 
132.281 176.471 145.377 131.912 177.059 145.641 134.606 177.288 145.224 
131.591 177.809 146.284 132.287 177.89 145.854 131.992 178.056 146.102 
137.629 165.837 146.954 138.73 165.755 146.723 139.851 166.041 146.728 
139.599 165.82 146.87 140.332 166.245 146.921 135.679 168.191 146.015 
142.204 168.227 146.477 142.504 168.631 146.659 142.854 169.436 146.236 
142.974 169.686 146.221 142.977 169.839 146.208 143.03 169.774 146.286 
142.844 170.115 146.244 141.991 172.187 146.103 142.708 170.71 146.498 
131.593 175.535 145.945 131.321 178.017 146.769 131.482 178.545 147.036 
133.062 178.991 146.535 132.634 179.343 147.058 132.006 179.207 146.978 
138.467 165.401 147.461 138.905 165.357 147.51 141.056 166.643 147.311 
141.914 167.661 147.015 135.193 168.467 146.728 134.036 169.839 147.184 
142.513 174.61 147.03 143.057 174.575 147.63 143.016 175.279 147.559 
143.49 175.868 148.098 130.543 176.082 147.524 141.632 176.878 146.863 
143.389 176.543 147.939 132.21 179.35 147.603 132.16 179.299 147.105 
134.242 180.034 147.49 137.627 165.642 148.007 136.5 166.824 148.087 
131.718 171.955 148.4 143.311 173.898 148.29 143.903 177.703 148.516 
144.221 177.524 148.764 130.886 178.063 148.802 141.066 178.925 147.42 
131.553 178.945 148.375 131.754 179.065 148.732 137.226 180.434 147.585 
137.949 181.213 148.47 138.531 181.136 148.331 136.933 181.153 148.615 
138.187 165.392 148.153 138.364 165.409 148.263 139.37 165.44 148.082 
140.448 166.1 148.223 137.603 165.9 148.467 142.114 168.206 148.178 
134.605 168.99 148.715 132.112 171.31 148.828 142.933 171.339 148.914 
130.08 176.532 149.235 144.431 177.261 149.154 144.411 177.473 149.003 
130.229 177.015 150.027 144.468 177.725 149.155 144.388 177.95 149.13 
144.256 179.698 149.848 136.263 181.213 149.541 140.639 181.579 149.053 
138.296 181.778 149.256 138.742 181.804 149.156 138.494 181.798 149.165 
139.666 165.89 148.853 140.109 166.056 148.848 140.293 166.291 149.075 
139.156 166.21 149.436 137.769 166.819 149.749 140.818 167.068 149.419 
136.671 167.664 150.049 143.077 172.499 150.028 129.72 174.82 149.845 
144.475 177.39 149.42 130.501 177.363 150.219 131.946 178.821 149.93 
144.601 180.698 150.657 138.391 181.941 149.792 143.328 182.479 150.259 
140.64 183.069 150.633 141.348 183.1 150.43 132.861 170.024 151.074 
143.649 174.81 150.789 129.588 175.713 151.344 144.693 179.995 151.153 
145.359 181.615 151.674 145.974 182.566 151.855 146.251 182.555 152.183 
140.459 183.594 151.673 141.32 184.39 152.007 142.227 184.326 151.375 
141.647 184.609 151.997 139.807 167.407 150.52 139.203 168.057 151.334 
135.645 168.861 151.65 129.223 173.581 152.034 143.056 174.301 151.889 
129.433 174.718 152.236 144.442 178.747 151.318 144.817 180.319 151.94 
144.81 180.598 152.628 137.628 181.584 151.517 145.273 181.207 152.417 
146.422 182.505 152.563 139.405 182.775 151.523 146.855 183.048 152.633 
149.163 184.162 153.308 149.266 184.163 153.325 149.171 184.108 153.379 
149.287 184.152 153.349 141.492 184.652 152.271 146.306 184.742 152.352 
147.256 184.209 152.584 149.158 184.246 153.4 149.283 184.18 153.353 
143.85 185.952 152.663 130.785 169.769 153.505 135.16 169.285 152.993 
140.773 170.274 152.505 129.411 171.058 153.146 129.165 171.297 153.305 
129.115 173.371 153.689 142.725 174.336 152.436 129.875 174.701 153.768 
143.499 175.944 151.902 144.011 179.425 152.824 145.029 181.178 153.258 
148.861 183.967 153.425 148.648 183.764 153.545 148.855 183.867 153.692 
140.591 183.821 153.294 148.518 184.115 153.216 149.06 184.08 153.693 
149.22 184.184 153.465 148.784 184.478 153.473 149.066 184.374 153.782 
148.848 184.809 153.985 128.417 171.383 155.069 128.544 172.003 155.225 
130.727 175.133 154.411 141.939 175.129 153.5 142.481 175.598 153.094 
142.07 177.974 153.87 136.394 178.926 153.495 142.946 179.46 153.852 
138.652 180.872 153.565 143.459 180.964 154.563 143.949 181.492 154.844 
145.862 181.913 153.401 146.29 182.241 153.362 139.782 182.742 153.278 
148.873 183.907 154.049 148.858 185.151 154.624 145.67 187.086 153.932 
129.341 168.224 155.486 128.711 168.608 155.518 128.134 169.044 155.929 
128.057 169.64 155.928 132.954 168.892 154.723 133.926 169.046 154.833 
134.888 169.323 154.672 136.586 169.7 154.16 128.743 172.462 155.356 
140.894 174.099 154.092 140.789 174.861 154.239 139.854 177.147 154.602 
138.126 178.6 154.373 140.46 178.989 154.504 141.28 180.122 154.68 
142.159 180.792 154.862 140.778 183.148 154.761 144.309 182.07 155.458 
141.272 184.697 154.753 146.21 187.659 155.614 143.891 188.517 155.936 
143.725 188.636 156.189 143.948 188.686 156.137 128.156 168.489 156.196 
134.098 168.845 155.565 134.427 168.844 156.001 137.083 170.853 155.731 
128.037 170.674 156.492 137.373 172.503 156.229 132.362 175.081 155.84 
137.89 174.943 155.478 137.569 175.937 155.263 135.84 176.548 155.069 
140.394 181.048 154.655 141.098 181.068 154.917 141.793 181.527 155.232 
141.518 182.723 155.688 141.252 183.602 155.622 142.611 182.299 155.944 
147.682 183.301 155.542 148.684 185.831 155.684 143.456 188.439 156.259 
145.901 187.9 156.328 144.362 188.628 156.373 143.872 188.779 156.304 
143.9 188.82 156.416 128.416 166.198 157.682 129.112 166.06 157.523 
130.136 166.506 156.984 127.32 168.847 158.019 127.382 169.224 158.185 
136.189 170.168 156.269 136.709 170.941 156.468 136.466 171.398 157.317 
128.292 171.073 157.347 128.849 171.808 157.29 136.847 172.287 156.781 
136.381 172.939 157.197 135.953 173.281 157.514 136.079 173.923 156.815 
134.66 174.247 157.344 141.964 183.492 156.816 148.049 183.578 155.771 
141.592 184.541 156.852 148.889 184.686 155.99 148.726 185.115 156.549 
148.789 184.809 156.381 148.845 185.315 156.157 148.426 185.964 156.591 
142.988 188.109 156.923 143.258 188.405 157.263 144.168 188.731 156.701 
128.706 165.285 158.467 127.377 166.994 158.406 127.121 167.259 158.821 
127.096 167.776 158.871 127.279 168.264 158.143 135.025 168.943 157.298 
136.046 170.379 157.527 127.544 169.579 158.342 135.921 172.48 158.484 
141.825 184.141 157.213 142.566 183.515 157.44 143.095 183.422 157.612 
144.921 183.441 157.572 147.374 183.473 156.365 147.704 183.685 156.481 
148.485 184.146 156.171 143.375 183.779 158.203 141.653 185.231 157.221 
148.318 185.758 157.057 148.003 185.991 157.386 143.468 188.526 157.497 
143.762 188.634 157.408 128.503 164.587 159.55 128.224 164.871 159.364 
129.047 164.347 159.646 127.712 165.633 159.062 133.927 167.293 158.224 
134.184 166.891 159.255 127.017 167.799 159.71 127.48 169.083 159.322 
127.525 168.796 160.125 127.601 169.54 158.782 128.165 169.701 159.85 
135.934 172.101 158.911 135.38 173.077 158.739 142.385 184.021 157.988 
146.319 184.129 157.862 147.696 184.241 157.139 141.758 185.464 157.848 
141.925 185.496 158.435 147.708 185.457 157.86 147.581 185.031 157.832 
141.823 185.853 158.159 142.432 187.421 157.802 146.785 187.079 158.046 
146.414 187.29 158.299 142.774 187.641 158.744 145.826 187.609 158.386 
143.603 188.467 157.85 144.355 188.326 158.381 130.643 163.444 160.966 
133.086 165.349 159.925 126.981 167.161 160.575 126.915 167.545 160.465 
126.925 167.695 160.396 135.882 170.622 159.714 135.693 172.286 159.677 
131.698 172.504 159.772 133.154 173.206 159.726 142.363 184.857 158.845 
146.415 185.016 158.688 147.131 185.447 158.337 141.92 186.022 158.565 
146.967 186.121 158.515 142.014 186.348 158.79 142.167 186.781 158.791 
146.741 186.557 158.658 145.792 187.223 159.04 146.202 186.985 158.951 
146.403 186.718 158.94 142.926 187.532 159.346 143.165 187.891 158.879 
143.892 187.935 159.195 130.292 163.148 161.457 129.833 163.145 161.577 
130.73 163.17 161.484 128.63 163.745 161.354 131.16 163.382 161.47 
131.995 164.085 160.941 127.331 165.232 160.741 127.252 165.156 161.482 
127.045 167.671 160.684 135.602 169.574 160.569 135.875 171.111 161.001 
135.407 172.503 160.376 135.328 172.485 160.86 142.898 185.363 159.695 
143.381 185.288 159.789 145.384 185.463 159.461 146.139 185.422 159.061 
142.752 185.801 159.911 145.392 186.358 159.782 142.306 186.448 159.545 
144.247 187.52 159.763 144.295 187.228 160.05 144.759 186.968 160.014 
142.621 187.152 159.603 129.657 163.06 161.954 129.331 163.139 162.189 
130.208 162.889 162.467 130.481 162.923 162.229 131.169 163.219 161.944 
130.878 163.042 162.175 131.204 163.214 162.207 127.483 164.665 161.911 
132.962 164.896 161.532 127.125 165.6 161.802 127.263 166.619 162.345 
127.402 167.047 162.282 128.144 167.898 162.45 135.76 170.57 161.566 
135.915 170.972 161.48 135.922 171.148 161.465 135.943 171.057 161.59 
135.793 171.44 161.491 135.893 171.131 161.658 135.601 171.874 161.684 
135.095 172.632 161.081 135.371 172.299 161.54 142.683 186.164 160.049 
142.992 186.102 160.203 143.431 186.07 160.288 144.512 186.18 160.208 
142.856 186.439 160.251 143.685 186.418 160.416 144.472 186.519 160.335 
144.861 186.533 160.112 144.537 186.733 160.283 142.668 186.815 160.096 
142.912 186.939 160.217 143.083 187.217 160.059 143.521 187.328 160.049 
129.64 162.962 163.125 129.234 163.128 162.752 128.764 163.397 163.066 
127.916 164.122 163.098 133.338 165.417 162.345 127.304 165.687 163.089 
[...]
POINT_DATA 948
COLOR_SCALARS scalars 3
0.141176 0.541176 0.368627 0.141176 0.541176 0.368627 0.141176 0.541176 0.368627 
0.141176 0.541176 0.368627 0.141176 0.541176 0.368627 
0.141176 0.541176 0.368627 0.141176 0.541176 0.368627 
0.141176 0.541176 0.368627 0.141176 0.541176 0.368627 
0.141176 0.541176 0.368627 0.141176 0.541176 0.368627 
0.141176 0.541176 0.368627 0.141176 0.541176 0.368627 
0.141176 0.541176 0.368627 0.141176 0.541176 0.368627 
0.141176 0.541176 0.368627 0.141176 0.541176 0.368627 
0.141176 0.541176 0.368627 0.141176 0.541176 0.368627 
0.141176 0.541176 0.368627 0.141176 0.541176 0.368627 
0.141176 0.541176 0.368627 0.141176 0.541176 0.368627 
0.141176 0.541176 0.368627 0.141176 0.541176 0.368627 
0.141176 0.541176 0.368627 0.141176 0.541176 0.368627 
0.141176 0.541176 0.368627 0.141176 0.541176 0.368627 
0.141176 0.541176 0.368627 0.141176 0.541176 0.368627 
0.141176 0.541176 0.368627 0.141176 0.541176 0.368627 
0.141176 0.541176 0.368627 0.141176 0.541176 0.368627 
0.141176 0.541176 0.368627 0.141176 0.541176 0.368627 
0.141176 0.541176 0.368627 0.141176 0.541176 0.368627 
0.141176 0.541176 0.368627 0.141176 0.541176 0.368627 
0.141176 0.541176 0.368627 0.141176 0.541176 0.368627 
0.141176 0.541176 0.368627 0.141176 0.541176 0.368627 
0.141176 0.541176 0.368627 0.141176 0.541176 0.368627 
0.141176 0.541176 0.368627 0.141176 0.541176 0.368627 
0.141176 0.541176 0.368627 0.141176 0.541176 0.368627 
0.141176 0.541176 0.368627 0.141176 0.541176 0.368627 
0.141176 0.541176 0.368627 0.141176 0.541176 0.368627 
0.141176 0.541176 0.368627 0.141176 0.541176 0.368627 
0.141176 0.541176 0.368627 0.141176 0.541176 0.368627 
0.141176 0.541176 0.368627 0.141176 0.541176 0.368627 
0.141176 0.541176 0.368627 0.141176 0.541176 0.368627 
0.141176 0.541176 0.368627 0.141176 0.541176 0.368627 
0.141176 0.541176 0.368627 0.141176 0.541176 0.368627 
0.141176 0.541176 0.368627 0.141176 0.541176 0.368627 
0.141176 0.541176 0.368627 0.141176 0.541176 0.368627 
0.141176 0.541176 0.368627 0.141176 0.541176 0.368627 
0.141176 0.541176 0.368627 0.141176 0.541176 0.368627 
0.141176 0.541176 0.368627 0.141176 0.541176 0.368627 
0.141176 0.541176 0.368627 0.141176 0.541176 0.368627 
0.141176 0.541176 0.368627 0.141176 0.541176 0.368627 
0.141176 0.541176 0.368627 0.141176 0.541176 0.368627 
0.141176 0.541176 0.368627 0.141176 0.541176 0.368627 
0.141176 0.541176 0.368627 0.141176 0.541176 0.368627 
0.141176 0.541176 0.368627 0.141176 0.541176 0.368627 
0.141176 0.541176 0.368627 0.141176 0.541176 0.368627 
0.141176 0.541176 0.368627 0.141176 0.541176 0.368627 
0.141176 0.541176 0.368627 0.141176 0.541176 0.368627 
0.141176 0.541176 0.368627 0.141176 0.541176 0.368627 
0.141176 0.541176 0.368627 0.141176 0.541176 0.368627 
0.141176 0.541176 0.368627 0.141176 0.541176 0.368627 
0.141176 0.541176 0.368627 0.141176 0.541176 0.368627 
0.141176 0.541176 0.368627 0.141176 0.541176 0.368627 
0.141176 0.541176 0.368627 0.141176 0.541176 0.368627 
0.141176 0.541176 0.368627 0.141176 0.541176 0.368627 
0.141176 0.541176 0.368627 0.141176 0.541176 0.368627 
0.141176 0.541176 0.368627 0.141176 0.541176 0.368627 
0.141176 0.541176 0.368627 0.141176 0.541176 0.368627 
0.141176 0.541176 0.368627 0.141176 0.541176 0.368627 
0.141176 0.541176 0.368627 0.141176 0.541176 0.368627 
0.141176 0.541176 0.368627 0.141176 0.541176 0.368627 
0.141176 0.541176 0.368627 0.141176 0.541176 0.368627 
0.141176 0.541176 0.368627 0.141176 0.541176 0.368627 
0.141176 0.541176 0.368627 0.141176 0.541176 0.368627 
0.141176 0.541176 0.368627 0.141176 0.541176 0.368627 
0.141176 0.541176 0.368627 0.141176 0.541176 0.368627 
0.141176 0.541176 0.368627 0.141176 0.541176 0.368627 
0.141176 0.541176 0.368627 0.141176 0.541176 0.368627 
0.141176 0.541176 0.368627 0.141176 0.541176 0.368627 
0.141176 0.541176 0.368627 0.141176 0.541176 0.368627 
0.141176 0.541176 0.368627 0.141176 0.541176 0.368627 
0.141176 0.541176 0.368627 0.141176 0.541176 0.368627 
0.141176 0.541176 0.368627 0.141176 0.541176 0.368627 
0.141176 0.541176 0.368627 0.141176 0.541176 0.368627 
0.141176 0.541176 0.368627 0.141176 0.541176 0.368627 
0.141176 0.541176 0.368627 0.141176 0.541176 0.368627 
0.141176 0.541176 0.368627 0.141176 0.541176 0.368627 
0.141176 0.541176 0.368627 0.141176 0.541176 0.368627 
0.141176 0.541176 0.368627 0.141176 0.541176 0.368627 
0.141176 0.541176 0.368627 0.141176 0.541176 0.368627 
0.141176 0.541176 0.368627 0.141176 0.541176 0.368627 
0.141176 0.541176 0.368627 0.141176 0.541176 0.368627 
0.141176 0.541176 0.368627 0.141176 0.541176 0.368627 
0.141176 0.541176 0.368627 0.141176 0.541176 0.368627 
0.141176 0.541176 0.368627 0.141176 0.541176 0.368627 
0.141176 0.541176 0.368627 0.141176 0.541176 0.368627 
0.141176 0.541176 0.368627 0.141176 0.541176 0.368627 
0.141176 0.541176 0.368627 0.141176 0.541176 0.368627 
0.141176 0.541176 0.368627 0.141176 0.541176 0.368627 
0.141176 0.541176 0.368627 0.141176 0.541176 0.368627 
0.141176 0.541176 0.368627 0.141176 0.541176 0.368627 
0.141176 0.541176 0.368627 0.141176 0.541176 0.368627 
0.141176 0.541176 0.368627 0.141176 0.541176 0.368627 
0.141176 0.541176 0.368627 0.141176 0.541176 0.368627 
0.141176 0.541176 0.368627 0.141176 0.541176 0.368627 
0.141176 0.541176 0.368627 0.141176 0.541176 0.368627 
0.141176 0.541176 0.368627 0.141176 0.541176 0.368627 
0.141176 0.541176 0.368627 0.141176 0.541176 0.368627 
0.141176 0.541176 0.368627 0.141176 0.541176 0.368627 
0.141176 0.541176 0.368627 0.141176 0.541176 0.368627 
0.141176 0.541176 0.368627 0.141176 0.541176 0.368627 
0.141176 0.541176 0.368627 0.141176 0.541176 0.368627 
0.141176 0.541176 0.368627 0.141176 0.541176 0.368627 
0.141176 0.541176 0.368627 0.141176 0.541176 0.368627 
0.141176 0.541176 0.368627 0.141176 0.541176 0.368627 
0.141176 0.541176 0.368627 0.141176 0.541176 0.368627 
0.141176 0.541176 0.368627 0.141176 0.541176 0.368627 
0.141176 0.541176 0.368627 0.141176 0.541176 0.368627 
0.141176 0.541176 0.368627 0.141176 0.541176 0.368627 
0.141176 0.541176 0.368627 0.141176 0.541176 0.368627 
0.141176 0.541176 0.368627 0.141176 0.541176 0.368627 
0.141176 0.541176 0.368627 0.141176 0.541176 0.368627 
0.141176 0.541176 0.368627 0.141176 0.541176 0.368627 
0.141176 0.541176 0.368627 0.141176 0.541176 0.368627 
0.141176 0.541176 0.368627 0.141176 0.541176 0.368627 
0.141176 0.541176 0.368627 0.141176 0.541176 0.368627 
0.141176 0.541176 0.368627 0.141176 0.541176 0.368627 
0.141176 0.541176 0.368627 0.141176 0.541176 0.368627 
0.141176 0.541176 0.368627 0.141176 0.541176 0.368627 
0.141176 0.541176 0.368627 0.141176 0.541176 0.368627 
0.141176 0.541176 0.368627 0.141176 0.541176 0.368627 
0.141176 0.541176 0.368627 0.141176 0.541176 0.368627 
0.141176 0.541176 0.368627 0.141176 0.541176 0.368627 
0.141176 0.541176 0.368627 0.141176 0.541176 0.368627 
0.141176 0.541176 0.368627 0.141176 0.541176 0.368627 
0.141176 0.541176 0.368627 0.141176 0.541176 0.368627 
0.141176 0.541176 0.368627 0.141176 0.541176 0.368627 
0.141176 0.541176 0.368627 0.141176 0.541176 0.368627 
0.141176 0.541176 0.368627 0.141176 0.541176 0.368627 
0.141176 0.541176 0.368627 0.141176 0.541176 0.368627 
0.141176 0.541176 0.368627 0.141176 0.541176 0.368627 
0.141176 0.541176 0.368627 0.141176 0.541176 0.368627 
0.141176 0.541176 0.368627 0.141176 0.541176 0.368627 
0.141176 0.541176 0.368627 0.141176 0.541176 0.368627 
0.141176 0.541176 0.368627 0.141176 0.541176 0.368627 
0.141176 0.541176 0.368627 0.141176 0.541176 0.368627 
0.141176 0.541176 0.368627 0.141176 0.541176 0.368627 
0.141176 0.541176 0.368627 0.141176 0.541176 0.368627 
0.141176 0.541176 0.368627 0.141176 0.541176 0.368627 
0.141176 0.541176 0.368627 0.141176 0.541176 0.368627 
0.141176 0.541176 0.368627 0.141176 0.541176 0.368627 
0.141176 0.541176 0.368627 0.141176 0.541176 0.368627 
0.141176 0.541176 0.368627 0.141176 0.541176 0.368627 
0.141176 0.541176 0.368627 0.141176 0.541176 0.368627 
0.141176 0.541176 0.368627 0.141176 0.541176 0.368627 
0.141176 0.541176 0.368627 0.141176 0.541176 0.368627 
0.141176 0.541176 0.368627 0.141176 0.541176 0.368627 
0.141176 0.541176 0.368627 0.141176 0.541176 0.368627 
0.141176 0.541176 0.368627 0.141176 0.541176 0.368627 
0.141176 0.541176 0.368627 0.141176 0.541176 0.368627 
0.141176 0.541176 0.368627 0.141176 0.541176 0.368627 
0.141176 0.541176 0.368627 0.141176 0.541176 0.368627 
0.141176 0.541176 0.368627 0.141176 0.541176 0.368627 
0.141176 0.541176 0.368627 0.141176 0.541176 0.368627 
0.141176 0.541176 0.368627 0.141176 0.541176 0.368627 
0.141176 0.541176 0.368627 0.141176 0.541176 0.368627 
0.141176 0.541176 0.368627 0.141176 0.541176 0.368627 
0.141176 0.541176 0.368627 0.141176 0.541176 0.368627 
0.141176 0.541176 0.368627 0.141176 0.541176 0.368627 
0.141176 0.541176 0.368627 0.141176 0.541176 0.368627 
0.141176 0.541176 0.368627 0.141176 0.541176 0.368627 
0.141176 0.541176 0.368627 0.141176 0.541176 0.368627 
0.141176 0.541176 0.368627 0.141176 0.541176 0.368627 
0.141176 0.541176 0.368627 0.141176 0.541176 0.368627 
0.141176 0.541176 0.368627 0.141176 0.541176 0.368627 
0.141176 0.541176 0.368627 0.141176 0.541176 0.368627 
0.141176 0.541176 0.368627 0.141176 0.541176 0.368627 
0.141176 0.541176 0.368627 0.141176 0.541176 0.368627 
0.141176 0.541176 0.368627 0.141176 0.541176 0.368627 
0.141176 0.541176 0.368627 0.141176 0.541176 0.368627 
0.141176 0.541176 0.368627 0.141176 0.541176 0.368627 
0.141176 0.541176 0.368627 0.141176 0.541176 0.368627 
0.141176 0.541176 0.368627 0.141176 0.541176 0.368627 
0.141176 0.541176 0.368627 0.141176 0.541176 0.368627 
0.141176 0.541176 0.368627 0.141176 0.541176 0.368627 
0.141176 0.541176 0.368627 0.141176 0.541176 0.368627 
0.141176 0.541176 0.368627 0.141176 0.541176 0.368627 
0.141176 0.541176 0.368627 0.141176 0.541176 0.368627 
0.141176 0.541176 0.368627 0.141176 0.541176 0.368627 
0.141176 0.541176 0.368627 0.141176 0.541176 0.368627 
0.141176 0.541176 0.368627 0.141176 0.541176 0.368627 
0.141176 0.541176 0.368627 0.141176 0.541176 0.368627 
0.141176 0.541176 0.368627 0.141176 0.541176 0.368627 
0.141176 0.541176 0.368627 0.141176 0.541176 0.368627 
0.141176 0.541176 0.368627 0.141176 0.541176 0.368627 
0.141176 0.541176 0.368627 0.141176 0.541176 0.368627 
0.141176 0.541176 0.368627 0.141176 0.541176 0.368627 
0.141176 0.541176 0.368627 0.141176 0.541176 0.368627 
0.141176 0.541176 0.368627 0.141176 0.541176 0.368627 
0.141176 0.541176 0.368627 0.141176 0.541176 0.368627 
0.141176 0.541176 0.368627 0.141176 0.541176 0.368627 
0.141176 0.541176 0.368627 0.141176 0.541176 0.368627 
0.141176 0.541176 0.368627 0.141176 0.541176 0.368627 
0.141176 0.541176 0.368627 0.141176 0.541176 0.368627 
0.141176 0.541176 0.368627 0.141176 0.541176 0.368627 
0.141176 0.541176 0.368627 0.141176 0.541176 0.368627 
0.141176 0.541176 0.368627 0.141176 0.541176 0.368627 
0.141176 0.541176 0.368627 0.141176 0.541176 0.368627 
0.141176 0.541176 0.368627 0.141176 0.541176 0.368627 
0.141176 0.541176 0.368627 0.141176 0.541176 0.368627 
0.141176 0.541176 0.368627 0.141176 0.541176 0.368627 
0.141176 0.541176 0.368627 0.141176 0.541176 0.368627 
0.141176 0.541176 0.368627 0.141176 0.541176 0.368627 
0.141176 0.541176 0.368627 0.141176 0.541176 0.368627 
0.141176 0.541176 0.368627 0.141176 0.541176 0.368627 
0.141176 0.541176 0.368627 0.141176 0.541176 0.368627 
0.141176 0.541176 0.368627 0.141176 0.541176 0.368627 
0.141176 0.541176 0.368627 0.141176 0.541176 0.368627 
0.141176 0.541176 0.368627 0.141176 0.541176 0.368627 
0.141176 0.541176 0.368627 0.141176 0.541176 0.368627 
0.141176 0.541176 0.368627 0.141176 0.541176 0.368627 
0.141176 0.541176 0.368627 0.141176 0.541176 0.368627 
0.141176 0.541176 0.368627 0.141176 0.541176 0.368627 
0.141176 0.541176 0.368627 0.141176 0.541176 0.368627 
0.141176 0.541176 0.368627 0.141176 0.541176 0.368627 
0.141176 0.541176 0.368627 0.141176 0.541176 0.368627 
0.141176 0.541176 0.368627 0.141176 0.541176 0.368627 
0.141176 0.541176 0.368627 0.141176 0.541176 0.368627 
0.141176 0.541176 0.368627 0.141176 0.541176 0.368627 
0.141176 0.541176 0.368627 0.141176 0.541176 0.368627 
0.141176 0.541176 0.368627 0.141176 0.541176 0.368627 
0.141176 0.541176 0.368627 0.141176 0.541176 0.368627 
0.141176 0.541176 0.368627 0.141176 0.541176 0.368627 
0.141176 0.541176 0.368627 0.141176 0.541176 0.368627 
0.141176 0.541176 0.368627 0.141176 0.541176 0.368627 
0.141176 0.541176 0.368627 0.141176 0.541176 0.368627 
0.141176 0.541176 0.368627 0.141176 0.541176 0.368627 
0.141176 0.541176 0.368627 0.141176 0.541176 0.368627 
0.141176 0.541176 0.368627 0.141176 0.541176 0.368627 
0.141176 0.541176 0.368627 0.141176 0.541176 0.368627 
0.141176 0.541176 0.368627 0.141176 0.541176 0.368627 
0.141176 0.541176 0.368627 0.141176 0.541176 0.368627 
0.141176 0.541176 0.368627 0.141176 0.541176 0.368627 
0.141176 0.541176 0.368627 0.141176 0.541176 0.368627 
0.141176 0.541176 0.368627 0.141176 0.541176 0.368627 
0.141176 0.541176 0.368627 0.141176 0.541176 0.368627 
0.141176 0.541176 0.368627 0.141176 0.541176 0.368627 
0.141176 0.541176 0.368627 0.141176 0.541176 0.368627 
0.141176 0.541176 0.368627 0.141176 0.541176 0.368627 
0.141176 0.541176 0.368627 0.141176 0.541176 0.368627 
0.141176 0.541176 0.368627 0.141176 0.541176 0.368627 
0.141176 0.541176 0.368627 0.141176 0.541176 0.368627 
0.141176 0.541176 0.368627 0.141176 0.541176 0.368627 
0.141176 0.541176 0.368627 0.141176 0.541176 0.368627 
0.141176 0.541176 0.368627 0.141176 0.541176 0.368627 
0.141176 0.541176 0.368627 0.141176 0.541176 0.368627 
0.141176 0.541176 0.368627 0.141176 0.541176 0.368627 
0.141176 0.541176 0.368627 0.141176 0.541176 0.368627 
0.141176 0.541176 0.368627 0.141176 0.541176 0.368627 
0.141176 0.541176 0.368627 0.141176 0.541176 0.368627 
0.141176 0.541176 0.368627 0.141176 0.541176 0.368627 
0.141176 0.541176 0.368627 0.141176 0.541176 0.368627 
0.141176 0.541176 0.368627 0.141176 0.541176 0.368627 
0.141176 0.541176 0.368627 0.141176 0.541176 0.368627 
0.141176 0.541176 0.368627 0.141176 0.541176 0.368627 
0.141176 0.541176 0.368627 0.141176 0.541176 0.368627 
0.141176 0.541176 0.368627 0.141176 0.541176 0.368627 
0.141176 0.541176 0.368627 0.141176 0.541176 0.368627 
0.141176 0.541176 0.368627 0.141176 0.541176 0.368627 
0.141176 0.541176 0.368627 0.141176 0.541176 0.368627 
0.141176 0.541176 0.368627 0.141176 0.541176 0.368627 
0.141176 0.541176 0.368627 0.141176 0.541176 0.368627 
0.141176 0.541176 0.368627 0.141176 0.541176 0.368627 
0.141176 0.541176 0.368627 0.141176 0.541176 0.368627 
0.141176 0.541176 0.368627 0.141176 0.541176 0.368627 
0.141176 0.541176 0.368627 0.141176 0.541176 0.368627 
0.141176 0.541176 0.368627 0.141176 0.541176 0.368627 
0.141176 0.541176 0.368627 0.141176 0.541176 0.368627 
0.141176 0.541176 0.368627 0.141176 0.541176 0.368627 
0.141176 0.541176 0.368627 0.141176 0.541176 0.368627 
0.141176 0.541176 0.368627 0.141176 0.541176 0.368627 
0.141176 0.541176 0.368627 0.141176 0.541176 0.368627 
0.141176 0.541176 0.368627 0.141176 0.541176 0.368627 
0.141176 0.541176 0.368627 0.141176 0.541176 0.368627 
0.141176 0.541176 0.368627 0.141176 0.541176 0.368627 
0.141176 0.541176 0.368627 0.141176 0.541176 0.368627 
0.141176 0.541176 0.368627 0.141176 0.541176 0.368627 
0.141176 0.541176 0.368627 0.141176 0.541176 0.368627 
0.141176 0.541176 0.368627 0.141176 0.541176 0.368627 
0.141176 0.541176 0.368627 0.141176 0.541176 0.368627 
0.141176 0.541176 0.368627 0.141176 0.541176 0.368627 
0.141176 0.541176 0.368627 0.141176 0.541176 0.368627 
0.141176 0.541176 0.368627 0.141176 0.541176 0.368627 
0.141176 0.541176 0.368627 0.141176 0.541176 0.368627 
0.141176 0.541176 0.368627 0.141176 0.541176 0.368627 
0.141176 0.541176 0.368627 0.141176 0.541176 0.368627 
0.141176 0.541176 0.368627 0.141176 0.541176 0.368627 
0.141176 0.541176 0.368627 0.141176 0.541176 0.368627 
0.141176 0.541176 0.368627 0.141176 0.541176 0.368627 
0.141176 0.541176 0.368627 0.141176 0.541176 0.368627 
0.141176 0.541176 0.368627 0.141176 0.541176 0.368627 
0.141176 0.541176 0.368627 0.141176 0.541176 0.368627 
0.141176 0.541176 0.368627 0.141176 0.541176 0.368627 
0.141176 0.541176 0.368627 0.141176 0.541176 0.368627 
0.141176 0.541176 0.368627 0.141176 0.541176 0.368627 
0.141176 0.541176 0.368627 0.141176 0.541176 0.368627 
0.141176 0.541176 0.368627 0.141176 0.541176 0.368627 
0.141176 0.541176 0.368627 0.141176 0.541176 0.368627 
0.141176 0.541176 0.368627 0.141176 0.541176 0.368627 
0.141176 0.541176 0.368627 0.141176 0.541176 0.368627 
0.141176 0.541176 0.368627 0.141176 0.541176 0.368627 
0.141176 0.541176 0.368627 0.141176 0.541176 0.368627 
0.141176 0.541176 0.368627 0.141176 0.541176 0.368627 
0.141176 0.541176 0.368627 0.141176 0.541176 0.368627 
0.141176 0.541176 0.368627 0.141176 0.541176 0.368627 
0.141176 0.541176 0.368627 0.141176 0.541176 0.368627 
0.141176 0.541176 0.368627 0.141176 0.541176 0.368627 
0.141176 0.541176 0.368627 0.141176 0.541176 0.368627 
0.141176 0.541176 0.368627 0.141176 0.541176 0.368627 
0.141176 0.541176 0.368627 0.141176 0.541176 0.368627 
0.141176 0.541176 0.368627 0.141176 0.541176 0.368627 
0.141176 0.541176 0.368627 0.141176 0.541176 0.368627 
0.141176 0.541176 0.368627 0.141176 0.541176 0.368627 
0.141176 0.541176 0.368627 0.141176 0.541176 0.368627 
0.141176 0.541176 0.368627 0.141176 0.541176 0.368627 
0.141176 0.541176 0.368627 0.141176 0.541176 0.368627 
0.141176 0.541176 0.368627 0.141176 0.541176 0.368627 
0.141176 0.541176 0.368627 0.141176 0.541176 0.368627 
0.141176 0.541176 0.368627 0.141176 0.541176 0.368627 
0.141176 0.541176 0.368627 0.141176 0.541176 0.368627 
0.141176 0.541176 0.368627 0.141176 0.541176 0.368627 
0.141176 0.541176 0.368627 0.141176 0.541176 0.368627 
0.141176 0.541176 0.368627 0.141176 0.541176 0.368627 
0.141176 0.541176 0.368627 0.141176 0.541176 0.368627 
0.141176 0.541176 0.368627 0.141176 0.541176 0.368627 
0.141176 0.541176 0.368627 0.141176 0.541176 0.368627 
0.141176 0.541176 0.368627 0.141176 0.541176 0.368627 
0.141176 0.541176 0.368627 0.141176 0.541176 0.368627 
0.141176 0.541176 0.368627 0.141176 0.541176 0.368627 
0.141176 0.541176 0.368627 0.141176 0.541176 0.368627 
0.141176 0.541176 0.368627 0.141176 0.541176 0.368627 
0.141176 0.541176 0.368627 0.141176 0.541176 0.368627 
0.141176 0.541176 0.368627 0.141176 0.541176 0.368627 
0.141176 0.541176 0.368627 0.141176 0.541176 0.368627 
0.141176 0.541176 0.368627 0.141176 0.541176 0.368627 
0.141176 0.541176 0.368627 0.141176 0.541176 0.368627 
0.141176 0.541176 0.368627 0.141176 0.541176 0.368627 
0.141176 0.541176 0.368627 0.141176 0.541176 0.368627 
0.141176 0.541176 0.368627 0.141176 0.541176 0.368627 
0.141176 0.541176 0.368627 0.141176 0.541176 0.368627 
0.141176 0.541176 0.368627 0.141176 0.541176 0.368627 
0.141176 0.541176 0.368627 0.141176 0.541176 0.368627 
0.141176 0.541176 0.368627 0.141176 0.541176 0.368627 
0.141176 0.541176 0.368627 0.141176 0.541176 0.368627 
0.141176 0.541176 0.368627 0.141176 0.541176 0.368627 
0.141176 0.541176 0.368627 0.141176 0.541176 0.368627 
0.141176 0.541176 0.368627 0.141176 0.541176 0.368627 
0.141176 0.541176 0.368627 0.141176 0.541176 0.368627 
0.141176 0.541176 0.368627 0.141176 0.541176 0.368627 
0.141176 0.541176 0.368627 0.141176 0.541176 0.368627 
0.141176 0.541176 0.368627 0.141176 0.541176 0.368627 
0.141176 0.541176 0.368627 0.141176 0.541176 0.368627 
0.141176 0.541176 0.368627 0.141176 0.541176 0.368627 
0.141176 0.541176 0.368627 0.141176 0.541176 0.368627 
0.141176 0.541176 0.368627 0.141176 0.541176 0.368627 
0.141176 0.541176 0.368627 0.141176 0.541176 0.368627 
0.141176 0.541176 0.368627 0.141176 0.541176 0.368627 
0.141176 0.541176 0.368627 0.141176 0.541176 0.368627 
0.141176 0.541176 0.368627 0.141176 0.541176 0.368627 
0.141176 0.541176 0.368627 0.141176 0.541176 0.368627 
0.141176 0.541176 0.368627 0.141176 0.541176 0.368627 
0.141176 0.541176 0.368627 0.141176 0.541176 0.368627 
0.141176 0.541176 0.368627 0.141176 0.541176 0.368627 