# vtk DataFile Version 4.2
vtk output
ASCII
DATASET POLYDATA
POINTS 1148 float
139.53 162.659 147.929 139.536 162.678 148.012 139.54 162.567 147.92 
139.659 162.654 147.968 136.751 160.557 148.705 136.471 160.266 148.795 
136.684 160.597 148.847 136.953 160.574 148.635 136.985 160.731 148.71 
138.156 161.49 148.389 138.934 161.419 148.091 139.772 161.786 147.968 
138.862 162.324 148.511 139.02 162.286 148.231 139.392 162.287 147.974 
140.047 161.679 148.046 140.352 162.044 148.225 140.6 161.667 148.503 
140.344 162.299 148.263 140.566 162.067 148.515 139.69 162.693 148.136 
140.204 162.475 148.225 134.753 159.59 149.368 134.7 159.62 149.433 
135.055 159.659 149.269 135.778 159.465 148.93 136.312 160.478 149.228 
137.627 160.977 148.565 139.037 160.899 148.186 140.6 160.789 148.687 
137.65 161.382 149.119 138.29 161.884 148.969 138.938 162.391 148.659 
139.917 162.67 148.35 140.18 162.563 148.391 130.559 156.82 150.526 
130.199 156.769 150.828 131.176 156.961 150.246 130.555 156.4 150.381 
132.665 157.231 149.733 131.491 157.663 150.655 134.381 158.746 149.447 
136.214 159.033 148.864 139.263 158.413 149.151 140.317 159.162 149.163 
141.002 158.793 149.793 134.303 159.256 149.916 140.618 159.736 149.107 
141.09 159.608 149.595 139.184 162.303 149.451 140.392 162.428 148.697 
128.359 155.419 151.368 128.095 155.41 151.678 128.356 155.059 151.187 
129.114 155.155 150.84 130.646 155.877 150.301 134.415 155.676 149.959 
129.655 156.459 151.248 130.832 157.391 151.153 140.677 157.617 150.133 
141.47 160.607 150.135 137.918 161.594 150.013 139.653 162.172 150.106 
141.091 161.652 149.854 139.917 162.291 149.748 124.57 152.71 152.404 
125.205 152.884 152.086 126.122 152.467 151.684 128.501 153.251 151.107 
124.609 152.988 152.618 124.931 153.33 152.72 128.437 153.86 151.03 
129.805 153.281 151.016 126.869 154.411 151.951 130.132 154.585 150.594 
127.546 155.11 152.133 142.124 155.963 151.974 142.126 158.291 151.522 
141.949 159.921 151.353 138.374 161.622 150.76 141.104 161.612 150.239 
140.424 161.998 150.241 121.814 150.695 153.404 121.862 150.824 153.365 
121.978 150.565 153.272 125.007 151.111 152.047 128.361 152.14 151.497 
130.212 152.12 151.6 123.681 152.271 153.211 138.48 153.59 151.984 
126.447 154.466 152.817 141.243 154.671 152.041 141.861 154.892 152.3 
131.26 157.405 152.293 133.581 158.782 151.909 141.986 160 151.759 
141.229 161.173 151.064 141.86 160.205 151.922 124.454 149.263 152.691 
120.345 149.038 154.614 121.015 149.52 153.93 121.762 149.873 153.37 
122.584 149.918 152.897 129.587 149.642 153.085 120.742 149.471 154.372 
121.626 150.399 153.838 132.375 151.45 152.701 133.767 151.652 153.389 
135.539 152.189 153.279 122.524 151.439 153.685 143.016 153.72 153.662 
126.629 154.57 153.02 142.753 154.97 153.168 142.949 155.286 153.485 
142.249 159.106 152.94 139.066 161.27 152.225 118.4 146.021 155.045 
118.27 145.545 154.98 118.581 146.546 155.217 118.681 145.958 154.749 
119.2 146.089 154.479 119.02 147.387 155.511 119.264 147.436 154.995 
120.606 149.371 154.74 120.697 149.42 155.043 131.85 150.181 154.666 
138.92 152.393 153.945 138.898 152.338 154.309 140.968 152.32 154.238 
134.607 152.07 154.242 137.234 152.451 154.078 141.235 152.394 154.05 
141.213 152.641 153.693 124.255 152.551 154.515 143.24 153.457 153.923 
143.074 153.134 154.044 143.408 153.386 154.047 143.446 153.363 154.095 
143.383 153.499 154.076 133.275 157.796 153.566 142.129 158.675 153.887 
114.876 141.343 156.498 114.851 141.376 156.623 115.007 141.326 156.43 
115.053 141.506 156.455 117.791 143.334 155.127 118.195 142.481 155.169 
119.983 143.217 154.861 116.996 144.566 156.245 117.923 144.833 155.15 
118.338 146.51 155.895 130.241 147.626 155.09 130.706 147.894 155.543 
118.902 147.211 155.938 119.115 147.529 155.712 130.939 148.497 155.347 
121.226 149.711 155.48 132.68 151.104 154.577 132.256 151.07 155.151 
138.703 152.38 154.465 139.556 152.379 154.672 141.513 152.335 154.343 
142.156 152.384 154.402 143.307 152.441 154.671 143.471 152.308 154.846 
143.635 152.365 154.859 143.636 152.281 154.879 143.666 152.282 154.909 
133.18 151.774 154.844 139.224 152.492 154.83 143.476 152.619 154.693 
143.561 152.516 154.867 133.021 152.707 155.343 134.944 152.795 154.941 
143.345 153.267 154.382 143.419 152.856 154.812 126.725 153.752 154.879 
131.298 155.194 154.918 138.683 159.968 154.324 139.27 160.058 154.345 
140.474 159.902 154.262 114.76 139.546 156.607 114.217 139.185 156.978 
113.937 139.207 157.298 113.963 139.715 157.479 114.403 140.544 157.067 
115.626 141.776 156.22 126.115 144.11 155.346 116.439 143.77 156.974 
119.475 147.577 156.647 130.768 148.201 156.263 131.345 149.713 155.781 
131.644 150.632 155.709 143.348 152.365 154.956 143.591 152.282 154.916 
131.41 152.092 155.982 139.127 152.819 155.181 143.303 152.49 155.045 
143.427 152.561 154.975 137.12 153.365 155.367 143.157 153.448 154.87 
139.962 153.582 155.826 129.502 154.169 155.409 132.803 154.521 155.375 
133.945 154.308 155.474 141.96 156.702 155.406 141.752 157.813 155.132 
139.927 159.395 155.087 112.671 135.567 158.129 112.445 135.076 158.493 
112.387 135.493 158.416 112.965 135.562 157.951 113.094 136.089 157.806 
112.627 136.783 158.307 113.58 136.164 157.591 113.776 136.881 157.434 
114.451 138.097 157 113.183 138.016 157.993 113.763 138.396 157.398 
113.703 139.559 158.242 114.109 140.465 157.814 128.553 143.41 157.362 
128.843 143.778 157.493 128.304 143.971 156.55 129.923 146.004 156.796 
130.211 146.74 156.756 120 147.72 157.283 130.662 148.378 156.762 
130.703 148.969 156.844 130.814 150.55 156.615 130.779 151.515 156.452 
139.122 154.158 156.065 141.82 154.988 155.792 135.628 156.914 155.587 
137.842 158.591 155.548 140.032 158.769 155.61 138.8 159.247 155.373 
112.268 134.539 158.941 112.032 135.579 159.049 114.407 135.783 157.58 
112.575 137.344 158.989 112.965 138.001 158.522 127.279 152.094 156.999 
138.004 155.751 156.394 138.845 157.329 156.482 139.635 157.93 156.258 
112.173 132.374 160.03 112.789 131.922 159.779 112.012 133.118 159.919 
113.033 133.111 159.112 112.339 133.88 159.197 111.823 134.918 159.697 
111.896 135.552 159.472 111.985 135.946 159.707 127.027 138.125 159.675 
114.503 140.819 158.937 129.368 146.348 158.767 123.462 148.938 158.902 
127.3 150.467 158.567 139.362 157.742 156.402 112.501 131.354 160.272 
112.698 130.725 160.529 113.707 131.253 159.903 115.729 131.844 159.57 
118.631 132.361 159.725 111.778 135.313 160.457 112.303 136.726 160.312 
128.265 149.311 159.15 112.033 129.383 161.813 112.343 130.105 161.127 
111.427 132.07 161.521 111.609 134.542 161.108 112.05 135.791 161.415 
112.708 136.838 161.605 127.953 140.805 161.828 126.061 148.558 160.19 
112.298 127.114 162.935 112.573 127.123 162.736 112.35 128.157 162.253 
111.377 130.208 162.4 111.201 131.949 162.429 127.336 147.504 160.513 
126.744 147.526 160.784 112.342 126.209 163.712 112.904 125.667 163.912 
113.608 125.967 163.49 111.082 130.115 163.303 111.353 133.321 163.19 
128.274 137.388 163.056 115.083 139.257 162.657 127.122 142.02 163.563 
126.48 143.823 163.157 123.347 146.014 162.092 126.685 145.371 161.996 
124.383 146.634 161.718 112.421 125.361 164.602 112.066 125.931 164.335 
111.078 128.266 164.222 110.851 128.204 165.148 129.974 131.382 165.952 
112.723 123.988 166.318 111.316 125.629 166.035 130.23 130.574 166.605 
130.381 131.995 166.59 130.369 132.617 166.788 113.112 123.476 166.918 
111.395 124.76 166.971 126.691 127.385 166.576 130.985 131.315 167.502 
131.27 131.525 168.092 119.772 140.136 166.746 125.784 141.628 166.225 
124.307 142.263 166.264 111.932 123.1 168.452 127.878 138.557 167.645 
112.186 122.522 169.043 112.872 122.286 168.927 113.445 122.127 168.947 
113.831 121.864 169.305 129.746 127.327 168.853 132.515 129.418 169.745 
132.207 130.133 169.387 132.609 129.587 169.807 132.738 129.615 170.073 
122.478 140.166 169.049 123.752 141.006 168.312 111.43 121.541 170.87 
111.089 121.706 171.068 111.797 121.149 171.105 112.237 121.212 170.768 
110.773 123.668 169.718 131.711 128.439 169.664 132.808 130.014 170.63 
131.754 132.059 169.872 125.814 140.247 169.559 111.155 120.892 172.007 
110.455 122.028 171.817 110.332 122.817 171.48 110.254 124.344 170.868 
112.705 131.035 171.621 119.438 137.153 170.837 126.884 139.421 170.881 
111.694 119.842 173.053 132.974 129.279 171.306 133.006 129.596 171.397 
132.958 129.821 171.818 124.87 139.807 171.523 111.21 119.694 173.624 
112.046 119.358 173.649 110.304 120.961 173.241 131.048 125.87 172.531 
132.763 130.547 172.665 126.466 139.603 172 127.052 139.368 172.567 
125.777 139.658 172.792 110.375 119.628 174.587 110.091 120.087 174.521 
109.934 120.87 174.167 111.222 128.073 173.797 132.988 127.813 173.963 
132.723 130.282 173.964 115.648 132.886 173.741 129.077 137.351 173.429 
124.438 138.906 174.133 127.892 138.923 173.398 110.448 118.631 175.695 
110.107 118.921 175.786 110.665 118.326 175.96 109.612 120.71 175.074 
123.883 121.162 174.704 110.476 126.09 175.068 133.003 127.777 174.82 
130.787 133.701 174.981 119.415 135.348 174.217 126.953 139.583 174.614 
132.236 125.689 175.231 132.726 126.574 174.701 111.929 128.503 175.646 
132.784 128.176 175.852 124.97 138.862 175.114 128.55 138.676 175.314 
126.45 139.428 175.796 128.187 139.337 175.678 112.538 117.823 176.225 
115.81 118.034 176.698 122.272 119.958 176.238 129.258 123.349 176.122 
130.968 124.389 176.039 132.338 125.574 176.055 111.306 127.159 176.64 
132.62 127.914 176.375 113.132 129.388 176.845 113.339 129.756 176.534 
131.734 130.187 176.142 118.659 133.578 176.331 128.794 136.966 176.262 
128.699 138.441 176.273 128.635 139.269 176.631 127.66 139.852 176.742 
128.167 139.918 176.62 127.93 139.958 176.75 117.015 117.988 177.569 
122.277 119.568 177.793 123.752 120.223 177.123 124.028 120.283 177.482 
126.007 121.319 177.316 128.435 122.965 177.634 129.866 123.726 176.58 
131.323 124.814 176.648 132.459 125.713 176.199 132.245 125.507 176.339 
132.753 126.514 176.491 132.683 126.319 176.619 111.632 127.035 177.714 
[...]
POINT_DATA 1148
COLOR_SCALARS scalars 3
0.141176 0.541176 0.368627 0.141176 0.541176 0.368627 0.141176 0.541176 0.368627 
0.141176 0.541176 0.368627 0.141176 0.541176 0.368627 
0.141176 0.541176 0.368627 0.141176 0.541176 0.368627 
0.141176 0.541176 0.368627 0.141176 0.541176 0.368627 
0.141176 0.541176 0.368627 0.141176 0.541176 0.368627 
0.141176 0.541176 0.368627 0.141176 0.541176 0.368627 
0.141176 0.541176 0.368627 0.141176 0.541176 0.368627 
0.141176 0.541176 0.368627 0.141176 0.541176 0.368627 
0.141176 0.541176 0.368627 0.141176 0.541176 0.368627 
0.141176 0.541176 0.368627 0.141176 0.541176 0.368627 
0.141176 0.541176 0.368627 0.141176 0.541176 0.368627 
0.141176 0.541176 0.368627 0.141176 0.541176 0.368627 
0.141176 0.541176 0.368627 0.141176 0.541176 0.368627 
0.141176 0.541176 0.368627 0.141176 0.541176 0.368627 
0.141176 0.541176 0.368627 0.141176 0.541176 0.368627 
0.141176 0.541176 0.368627 0.141176 0.541176 0.368627 
0.141176 0.541176 0.368627 0.141176 0.541176 0.368627 
0.141176 0.541176 0.368627 0.141176 0.541176 0.368627 
0.141176 0.541176 0.368627 0.141176 0.541176 0.368627 
0.141176 0.541176 0.368627 0.141176 0.541176 0.368627 
0.141176 0.541176 0.368627 0.141176 0.541176 0.368627 
0.141176 0.541176 0.368627 0.141176 0.541176 0.368627 
0.141176 0.541176 0.368627 0.141176 0.541176 0.368627 
0.141176 0.541176 0.368627 0.141176 0.541176 0.368627 
0.141176 0.541176 0.368627 0.141176 0.541176 0.368627 
0.141176 0.541176 0.368627 0.141176 0.541176 0.368627 
0.141176 0.541176 0.368627 0.141176 0.541176 0.368627 
0.141176 0.541176 0.368627 0.141176 0.541176 0.368627 
0.141176 0.541176 0.368627 0.141176 0.541176 0.368627 
0.141176 0.541176 0.368627 0.141176 0.541176 0.368627 
0.141176 0.541176 0.368627 0.141176 0.541176 0.368627 
0.141176 0.541176 0.368627 0.141176 0.541176 0.368627 
0.141176 0.541176 0.368627 0.141176 0.541176 0.368627 
0.141176 0.541176 0.368627 0.141176 0.541176 0.368627 
0.141176 0.541176 0.368627 0.141176 0.541176 0.368627 
0.141176 0.541176 0.368627 0.141176 0.541176 0.368627 
0.141176 0.541176 0.368627 0.141176 0.541176 0.368627 
0.141176 0.541176 0.368627 0.141176 0.541176 0.368627 
0.141176 0.541176 0.368627 0.141176 0.541176 0.368627 
0.141176 0.541176 0.368627 0.141176 0.541176 0.368627 
0.141176 0.541176 0.368627 0.141176 0.541176 0.368627 
0.141176 0.541176 0.368627 0.141176 0.541176 0.368627 
0.141176 0.541176 0.368627 0.141176 0.541176 0.368627 
0.141176 0.541176 0.368627 0.141176 0.541176 0.368627 
0.141176 0.541176 0.368627 0.141176 0.541176 0.368627 
0.141176 0.541176 0.368627 0.141176 0.541176 0.368627 
0.141176 0.541176 0.368627 0.141176 0.541176 0.368627 
0.141176 0.541176 0.368627 0.141176 0.541176 0.368627 
0.141176 0.541176 0.368627 0.141176 0.541176 0.368627 
0.141176 0.541176 0.368627 0.141176 0.541176 0.368627 
0.141176 0.541176 0.368627 0.141176 0.541176 0.368627 
0.141176 0.541176 0.368627 0.141176 0.541176 0.368627 
0.141176 0.541176 0.368627 0.141176 0.541176 0.368627 
0.141176 0.541176 0.368627 0.141176 0.541176 0.368627 
0.141176 0.541176 0.368627 0.141176 0.541176 0.368627 
0.141176 0.541176 0.368627 0.141176 0.541176 0.368627 
0.141176 0.541176 0.368627 0.141176 0.541176 0.368627 
0.141176 0.541176 0.368627 0.141176 0.541176 0.368627 
0.141176 0.541176 0.368627 0.141176 0.541176 0.368627 
0.141176 0.541176 0.368627 0.141176 0.541176 0.368627 
0.141176 0.541176 0.368627 0.141176 0.541176 0.368627 
0.141176 0.541176 0.368627 0.141176 0.541176 0.368627 
0.141176 0.541176 0.368627 0.141176 0.541176 0.368627 
0.141176 0.541176 0.368627 0.141176 0.541176 0.368627 
0.141176 0.541176 0.368627 0.141176 0.541176 0.368627 
0.141176 0.541176 0.368627 0.141176 0.541176 0.368627 
0.141176 0.541176 0.368627 0.141176 0.541176 0.368627 
0.141176 0.541176 0.368627 0.141176 0.541176 0.368627 
0.141176 0.541176 0.368627 0.141176 0.541176 0.368627 
0.141176 0.541176 0.368627 0.141176 0.541176 0.368627 
0.141176 0.541176 0.368627 0.141176 0.541176 0.368627 
0.141176 0.541176 0.368627 0.141176 0.541176 0.368627 
0.141176 0.541176 0.368627 0.141176 0.541176 0.368627 
0.141176 0.541176 0.368627 0.141176 0.541176 0.368627 
0.141176 0.541176 0.368627 0.141176 0.541176 0.368627 
0.141176 0.541176 0.368627 0.141176 0.541176 0.368627 
0.141176 0.541176 0.368627 0.141176 0.541176 0.368627 
0.141176 0.541176 0.368627 0.141176 0.541176 0.368627 
0.141176 0.541176 0.368627 0.141176 0.541176 0.368627 
0.141176 0.541176 0.368627 0.141176 0.541176 0.368627 
0.141176 0.541176 0.368627 0.141176 0.541176 0.368627 
0.141176 0.541176 0.368627 0.141176 0.541176 0.368627 
0.141176 0.541176 0.368627 0.141176 0.541176 0.368627 
0.141176 0.541176 0.368627 0.141176 0.541176 0.368627 
0.141176 0.541176 0.368627 0.141176 0.541176 0.368627 
0.141176 0.541176 0.368627 0.141176 0.541176 0.368627 
0.141176 0.541176 0.368627 0.141176 0.541176 0.368627 
0.141176 0.541176 0.368627 0.141176 0.541176 0.368627 
0.141176 0.541176 0.368627 0.141176 0.541176 0.368627 
0.141176 0.541176 0.368627 0.141176 0.541176 0.368627 
0.141176 0.541176 0.368627 0.141176 0.541176 0.368627 
0.141176 0.541176 0.368627 0.141176 0.541176 0.368627 
0.141176 0.541176 0.368627 0.141176 0.541176 0.368627 
0.141176 0.541176 0.368627 0.141176 0.541176 0.368627 
0.141176 0.541176 0.368627 0.141176 0.541176 0.368627 
0.141176 0.541176 0.368627 0.141176 0.541176 0.368627 
0.141176 0.541176 0.368627 0.141176 0.541176 0.368627 
0.141176 0.541176 0.368627 0.141176 0.541176 0.368627 
0.141176 0.541176 0.368627 0.141176 0.541176 0.368627 
0.141176 0.541176 0.368627 0.141176 0.541176 0.368627 
0.141176 0.541176 0.368627 0.141176 0.541176 0.368627 
0.141176 0.541176 0.368627 0.141176 0.541176 0.368627 
0.141176 0.541176 0.368627 0.141176 0.541176 0.368627 
0.141176 0.541176 0.368627 0.141176 0.541176 0.368627 
0.141176 0.541176 0.368627 0.141176 0.541176 0.368627 
0.141176 0.541176 0.368627 0.141176 0.541176 0.368627 
0.141176 0.541176 0.368627 0.141176 0.541176 0.368627 
0.141176 0.541176 0.368627 0.141176 0.541176 0.368627 
0.141176 0.541176 0.368627 0.141176 0.541176 0.368627 
0.141176 0.541176 0.368627 0.141176 0.541176 0.368627 
0.141176 0.541176 0.368627 0.141176 0.541176 0.368627 
0.141176 0.541176 0.368627 0.141176 0.541176 0.368627 
0.141176 0.541176 0.368627 0.141176 0.541176 0.368627 
0.141176 0.541176 0.368627 0.141176 0.541176 0.368627 
0.141176 0.541176 0.368627 0.141176 0.541176 0.368627 
0.141176 0.541176 0.368627 0.141176 0.541176 0.368627 
0.141176 0.541176 0.368627 0.141176 0.541176 0.368627 
0.141176 0.541176 0.368627 0.141176 0.541176 0.368627 
0.141176 0.541176 0.368627 0.141176 0.541176 0.368627 
0.141176 0.541176 0.368627 0.141176 0.541176 0.368627 
0.141176 0.541176 0.368627 0.141176 0.541176 0.368627 
0.141176 0.541176 0.368627 0.141176 0.541176 0.368627 
0.141176 0.541176 0.368627 0.141176 0.541176 0.368627 
0.141176 0.541176 0.368627 0.141176 0.541176 0.368627 
0.141176 0.541176 0.368627 0.141176 0.541176 0.368627 
0.141176 0.541176 0.368627 0.141176 0.541176 0.368627 
0.141176 0.541176 0.368627 0.141176 0.541176 0.368627 
0.141176 0.541176 0.368627 0.141176 0.541176 0.368627 
0.141176 0.541176 0.368627 0.141176 0.541176 0.368627 
0.141176 0.541176 0.368627 0.141176 0.541176 0.368627 
0.141176 0.541176 0.368627 0.141176 0.541176 0.368627 
0.141176 0.541176 0.368627 0.141176 0.541176 0.368627 
0.141176 0.541176 0.368627 0.141176 0.541176 0.368627 
0.141176 0.541176 0.368627 0.141176 0.541176 0.368627 
0.141176 0.541176 0.368627 0.141176 0.541176 0.368627 
0.141176 0.541176 0.368627 0.141176 0.541176 0.368627 
0.141176 0.541176 0.368627 0.141176 0.541176 0.368627 
0.141176 0.541176 0.368627 0.141176 0.541176 0.368627 
0.141176 0.541176 0.368627 0.141176 0.541176 0.368627 
0.141176 0.541176 0.368627 0.141176 0.541176 0.368627 
0.141176 0.541176 0.368627 0.141176 0.541176 0.368627 
0.141176 0.541176 0.368627 0.141176 0.541176 0.368627 
0.141176 0.541176 0.368627 0.141176 0.541176 0.368627 
0.141176 0.541176 0.368627 0.141176 0.541176 0.368627 
0.141176 0.541176 0.368627 0.141176 0.541176 0.368627 
0.141176 0.541176 0.368627 0.141176 0.541176 0.368627 
0.141176 0.541176 0.368627 0.141176 0.541176 0.368627 
0.141176 0.541176 0.368627 0.141176 0.541176 0.368627 
0.141176 0.541176 0.368627 0.141176 0.541176 0.368627 
0.141176 0.541176 0.368627 0.141176 0.541176 0.368627 
0.141176 0.541176 0.368627 0.141176 0.541176 0.368627 
0.141176 0.541176 0.368627 0.141176 0.541176 0.368627 
0.141176 0.541176 0.368627 0.141176 0.541176 0.368627 
0.141176 0.541176 0.368627 0.141176 0.541176 0.368627 
0.141176 0.541176 0.368627 0.141176 0.541176 0.368627 
0.141176 0.541176 0.368627 0.141176 0.541176 0.368627 
0.141176 0.541176 0.368627 0.141176 0.541176 0.368627 
0.141176 0.541176 0.368627 0.141176 0.541176 0.368627 
0.141176 0.541176 0.368627 0.141176 0.541176 0.368627 
0.141176 0.541176 0.368627 0.141176 0.541176 0.368627 
0.141176 0.541176 0.368627 0.141176 0.541176 0.368627 
0.141176 0.541176 0.368627 0.141176 0.541176 0.368627 
0.141176 0.541176 0.368627 0.141176 0.541176 0.368627 
0.141176 0.541176 0.368627 0.141176 0.541176 0.368627 
0.141176 0.541176 0.368627 0.141176 0.541176 0.368627 
0.141176 0.541176 0.368627 0.141176 0.541176 0.368627 
0.141176 0.541176 0.368627 0.141176 0.541176 0.368627 
0.141176 0.541176 0.368627 0.141176 0.541176 0.368627 
0.141176 0.541176 0.368627 0.141176 0.541176 0.368627 
0.141176 0.541176 0.368627 0.141176 0.541176 0.368627 
0.141176 0.541176 0.368627 0.141176 0.541176 0.368627 
0.141176 0.541176 0.368627 0.141176 0.541176 0.368627 
0.141176 0.541176 0.368627 0.141176 0.541176 0.368627 
0.141176 0.541176 0.368627 0.141176 0.541176 0.368627 
0.141176 0.541176 0.368627 0.141176 0.541176 0.368627 
0.141176 0.541176 0.368627 0.141176 0.541176 0.368627 
0.141176 0.541176 0.368627 0.141176 0.541176 0.368627 
0.141176 0.541176 0.368627 0.141176 0.541176 0.368627 
0.141176 0.541176 0.368627 0.141176 0.541176 0.368627 
0.141176 0.541176 0.368627 0.141176 0.541176 0.368627 
0.141176 0.541176 0.368627 0.141176 0.541176 0.368627 
0.141176 0.541176 0.368627 0.141176 0.541176 0.368627 
0.141176 0.541176 0.368627 0.141176 0.541176 0.368627 
0.141176 0.541176 0.368627 0.141176 0.541176 0.368627 
0.141176 0.541176 0.368627 0.141176 0.541176 0.368627 
0.141176 0.541176 0.368627 0.141176 0.541176 0.368627 
0.141176 0.541176 0.368627 0.141176 0.541176 0.368627 
0.141176 0.541176 0.368627 0.141176 0.541176 0.368627 
0.141176 0.541176 0.368627 0.141176 0.541176 0.368627 
0.141176 0.541176 0.368627 0.141176 0.541176 0.368627 
0.141176 0.541176 0.368627 0.141176 0.541176 0.368627 
0.141176 0.541176 0.368627 0.141176 0.541176 0.368627 
0.141176 0.541176 0.368627 0.141176 0.541176 0.368627 
0.141176 0.541176 0.368627 0.141176 0.541176 0.368627 
0.141176 0.541176 0.368627 0.141176 0.541176 0.368627 
0.141176 0.541176 0.368627 0.141176 0.541176 0.368627 
0.141176 0.541176 0.368627 0.141176 0.541176 0.368627 
0.141176 0.541176 0.368627 0.141176 0.541176 0.368627 
0.141176 0.541176 0.368627 0.141176 0.541176 0.368627 
0.141176 0.541176 0.368627 0.141176 0.541176 0.368627 
0.141176 0.541176 0.368627 0.141176 0.541176 0.368627 
0.141176 0.541176 0.368627 0.141176 0.541176 0.368627 
0.141176 0.541176 0.368627 0.141176 0.541176 0.368627 
0.141176 0.541176 0.368627 0.141176 0.541176 0.368627 
0.141176 0.541176 0.368627 0.141176 0.541176 0.368627 
0.141176 0.541176 0.368627 0.141176 0.541176 0.368627 
0.141176 0.541176 0.368627 0.141176 0.541176 0.368627 
0.141176 0.541176 0.368627 0.141176 0.541176 0.368627 
0.141176 0.541176 0.368627 0.141176 0.541176 0.368627 
0.141176 0.541176 0.368627 0.141176 0.541176 0.368627 
0.141176 0.541176 0.368627 0.141176 0.541176 0.368627 
0.141176 0.541176 0.368627 0.141176 0.541176 0.368627 
0.141176 0.541176 0.368627 0.141176 0.541176 0.368627 
0.141176 0.541176 0.368627 0.141176 0.541176 0.368627 
0.141176 0.541176 0.368627 0.141176 0.541176 0.368627 
0.141176 0.541176 0.368627 0.141176 0.541176 0.368627 
0.141176 0.541176 0.368627 0.141176 0.541176 0.368627 
0.141176 0.541176 0.368627 0.141176 0.541176 0.368627 
0.141176 0.541176 0.368627 0.141176 0.541176 0.368627 
0.141176 0.541176 0.368627 0.141176 0.541176 0.368627 
0.141176 0.541176 0.368627 0.141176 0.541176 0.368627 
0.141176 0.541176 0.368627 0.141176 0.541176 0.368627 
0.141176 0.541176 0.368627 0.141176 0.541176 0.368627 
0.141176 0.541176 0.368627 0.141176 0.541176 0.368627 
0.141176 0.541176 0.368627 0.141176 0.541176 0.368627 
0.141176 0.541176 0.368627 0.141176 0.541176 0.368627 
0.141176 0.541176 0.368627 0.141176 0.541176 0.368627 
0.141176 0.541176 0.368627 0.141176 0.541176 0.368627 
0.141176 0.541176 0.368627 0.141176 0.541176 0.368627 
0.141176 0.541176 0.368627 0.141176 0.541176 0.368627 
0.141176 0.541176 0.368627 0.141176 0.541176 0.368627 
0.141176 0.541176 0.368627 0.141176 0.541176 0.368627 
0.141176 0.541176 0.368627 0.141176 0.541176 0.368627 
0.141176 0.541176 0.368627 0.141176 0.541176 0.368627 
0.141176 0.541176 0.368627 0.141176 0.541176 0.368627 
0.141176 0.541176 0.368627 0.141176 0.541176 0.368627 
0.141176 0.541176 0.368627 0.141176 0.541176 0.368627 
0.141176 0.541176 0.368627 0.141176 0.541176 0.368627 
0.141176 0.541176 0.368627 0.141176 0.541176 0.368627 
0.141176 0.541176 0.368627 0.141176 0.541176 0.368627 
0.141176 0.541176 0.368627 0.141176 0.541176 0.368627 
0.141176 0.541176 0.368627 0.141176 0.541176 0.368627 
0.141176 0.541176 0.368627 0.141176 0.541176 0.368627 
0.141176 0.541176 0.368627 0.141176 0.541176 0.368627 
0.141176 0.541176 0.368627 0.141176 0.541176 0.368627 
0.141176 0.541176 0.368627 0.141176 0.541176 0.368627 
0.141176 0.541176 0.368627 0.141176 0.541176 0.368627 
0.141176 0.541176 0.368627 0.141176 0.541176 0.368627 
0.141176 0.541176 0.368627 0.141176 0.541176 0.368627 
0.141176 0.541176 0.368627 0.141176 0.541176 0.368627 
0.141176 0.541176 0.368627 0.141176 0.541176 0.368627 
0.141176 0.541176 0.368627 0.141176 0.541176 0.368627 
0.141176 0.541176 0.368627 0.141176 0.541176 0.368627 
0.141176 0.541176 0.368627 0.141176 0.541176 0.368627 
0.141176 0.541176 0.368627 0.141176 0.541176 0.368627 
0.141176 0.541176 0.368627 0.141176 0.541176 0.368627 
0.141176 0.541176 0.368627 0.141176 0.541176 0.368627 
0.141176 0.541176 0.368627 0.141176 0.541176 0.368627 
0.141176 0.541176 0.368627 0.141176 0.541176 0.368627 
0.141176 0.541176 0.368627 0.141176 0.541176 0.368627 
0.141176 0.541176 0.368627 0.141176 0.541176 0.368627 
0.141176 0.541176 0.368627 0.141176 0.541176 0.368627 
0.141176 0.541176 0.368627 0.141176 0.541176 0.368627 
0.141176 0.541176 0.368627 0.141176 0.541176 0.368627 
0.141176 0.541176 0.368627 0.141176 0.541176 0.368627 
0.141176 0.541176 0.368627 0.141176 0.541176 0.368627 
0.141176 0.541176 0.368627 0.141176 0.541176 0.368627 
0.141176 0.541176 0.368627 0.141176 0.541176 0.368627 
0.141176 0.541176 0.368627 0.141176 0.541176 0.368627 
0.141176 0.541176 0.368627 0.141176 0.541176 0.368627 
0.141176 0.541176 0.368627 0.141176 0.541176 0.368627 
0.141176 0.541176 0.368627 0.141176 0.541176 0.368627 
0.141176 0.541176 0.368627 0.141176 0.541176 0.368627 
0.141176 0.541176 0.368627 0.141176 0.541176 0.368627 
0.141176 0.541176 0.368627 0.141176 0.541176 0.368627 
0.141176 0.541176 0.368627 0.141176 0.541176 0.368627 
0.141176 0.541176 0.368627 0.141176 0.541176 0.368627 
0.141176 0.541176 0.368627 0.141176 0.541176 0.368627 
0.141176 0.541176 0.368627 0.141176 0.541176 0.368627 
0.141176 0.541176 0.368627 0.141176 0.541176 0.368627 
0.141176 0.541176 0.368627 0.141176 0.541176 0.368627 
0.141176 0.541176 0.368627 0.141176 0.541176 0.368627 
0.141176 0.541176 0.368627 0.141176 0.541176 0.368627 
0.141176 0.541176 0.368627 0.141176 0.541176 0.368627 
0.141176 0.541176 0.368627 0.141176 0.541176 0.368627 
0.141176 0.541176 0.368627 0.141176 0.541176 0.368627 
0.141176 0.541176 0.368627 0.141176 0.541176 0.368627 
0.141176 0.541176 0.368627 0.141176 0.541176 0.368627 
0.141176 0.541176 0.368627 0.141176 0.541176 0.368627 
0.141176 0.541176 0.368627 0.141176 0.541176 0.368627 
0.141176 0.541176 0.368627 0.141176 0.541176 0.368627 
0.141176 0.541176 0.368627 0.141176 0.541176 0.368627 
0.141176 0.541176 0.368627 0.141176 0.541176 0.368627 
0.141176 0.541176 0.368627 0.141176 0.541176 0.368627 
0.141176 0.541176 0.368627 0.141176 0.541176 0.368627 
0.141176 0.541176 0.368627 0.141176 0.541176 0.368627 
0.141176 0.541176 0.368627 0.141176 0.541176 0.368627 
0.141176 0.541176 0.368627 0.141176 0.541176 0.368627 
0.141176 0.541176 0.368627 0.141176 0.541176 0.368627 
0.141176 0.541176 0.368627 0.141176 0.541176 0.368627 
0.141176 0.541176 0.368627 0.141176 0.541176 0.368627 
0.141176 0.541176 0.368627 0.141176 0.541176 0.368627 
0.141176 0.541176 0.368627 0.141176 0.541176 0.368627 
0.141176 0.541176 0.368627 0.141176 0.541176 0.368627 
0.141176 0.541176 0.368627 0.141176 0.541176 0.368627 
0.141176 0.541176 0.368627 0.141176 0.541176 0.368627 
0.141176 0.541176 0.368627 0.141176 0.541176 0.368627 
0.141176 0.541176 0.368627 0.141176 0.541176 0.368627 
0.141176 0.541176 0.368627 0.141176 0.541176 0.368627 
0.141176 0.541176 0.368627 0.141176 0.541176 0.368627 
0.141176 0.541176 0.368627 0.141176 0.541176 0.368627 
0.141176 0.541176 0.368627 0.141176 0.541176 0.368627 
0.141176 0.541176 0.368627 0.141176 0.541176 0.368627 
0.141176 0.541176 0.368627 0.141176 0.541176 0.368627 
0.141176 0.541176 0.368627 0.141176 0.541176 0.368627 
0.141176 0.541176 0.368627 0.141176 0.541176 0.368627 
0.141176 0.541176 0.368627 0.141176 0.541176 0.368627 
0.141176 0.541176 0.368627 0.141176 0.541176 0.368627 
0.141176 0.541176 0.368627 0.141176 0.541176 0.368627 
0.141176 0.541176 0.368627 0.141176 0.541176 0.368627 
0.141176 0.541176 0.368627 0.141176 0.541176 0.368627 
0.141176 0.541176 0.368627 0.141176 0.541176 0.368627 
0.141176 0.541176 0.368627 0.141176 0.541176 0.368627 
0.141176 0.541176 0.368627 0.141176 0.541176 0.368627 
0.141176 0.541176 0.368627 0.141176 0.541176 0.368627 
0.141176 0.541176 0.368627 0.141176 0.541176 0.368627 
0.141176 0.541176 0.368627 0.141176 0.541176 0.368627 
0.141176 0.541176 0.368627 0.141176 0.541176 0.368627 
0.141176 0.541176 0.368627 0.141176 0.541176 0.368627 
0.141176 0.541176 0.368627 0.141176 0.541176 0.368627 
0.141176 0.541176 0.368627 0.141176 0.541176 0.368627 
0.141176 0.541176 0.368627 0.141176 0.541176 0.368627 
0.141176 0.541176 0.368627 0.141176 0.541176 0.368627 
0.141176 0.541176 0.368627 0.141176 0.541176 0.368627 
0.141176 0.541176 0.368627 0.141176 0.541176 0.368627 
0.141176 0.541176 0.368627 0.141176 0.541176 0.368627 
0.141176 0.541176 0.368627 0.141176 0.541176 0.368627 
0.141176 0.541176 0.368627 0.141176 0.541176 0.368627 
0.141176 0.541176 0.368627 0.141176 0.541176 0.368627 
0.141176 0.541176 0.368627 0.141176 0.541176 0.368627 
0.141176 0.541176 0.368627 0.141176 0.541176 0.368627 
0.141176 0.541176 0.368627 0.141176 0.541176 0.368627 
0.141176 0.541176 0.368627 0.141176 0.541176 0.368627 
0.141176 0.541176 0.368627 0.141176 0.541176 0.368627 
0.141176 0.541176 0.368627 0.141176 0.541176 0.368627 
0.141176 0.541176 0.368627 0.141176 0.541176 0.368627 
0.141176 0.541176 0.368627 0.141176 0.541176 0.368627 
0.141176 0.541176 0.368627 0.141176 0.541176 0.368627 
0.141176 0.541176 0.368627 0.141176 0.541176 0.368627 
0.141176 0.541176 0.368627 0.141176 0.541176 0.368627 
0.141176 0.541176 0.368627 0.141176 0.541176 0.368627 
0.141176 0.541176 0.368627 0.141176 0.541176 0.368627 
0.141176 0.541176 0.368627 0.141176 0.541176 0.368627 
0.141176 0.541176 0.368627 0.141176 0.541176 0.368627 
0.141176 0.541176 0.368627 0.141176 0.541176 0.368627 
0.141176 0.541176 0.368627 0.141176 0.541176 0.368627 
0.141176 0.541176 0.368627 0.141176 0.541176 0.368627 
0.141176 0.541176 0.368627 0.141176 0.541176 0.368627 
0.141176 0.541176 0.368627 0.141176 0.541176 0.368627 
0.141176 0.541176 0.368627 0.141176 0.541176 0.368627 
0.141176 0.541176 0.368627 0.141176 0.541176 0.368627 
0.141176 0.541176 0.368627 0.141176 0.541176 0.368627 