# vtk DataFile Version 4.2
vtk output
ASCII
DATASET POLYDATA
POINTS 2430 float
122.529 137.279 179.549 122.331 137.217 179.567 123.418 138.328 179.528 
123.552 138.334 179.573 115.579 133.383 179.718 116.441 132.818 180.439 
114.092 133.09 179.705 117.398 134.023 179.787 117.778 133.731 180.173 
113.455 133.709 179.565 116.438 134.79 179.195 117.338 134.779 179.342 
114.483 135.612 179.039 120.09 135.69 179.702 120.947 136.013 179.863 
114.025 136.404 179.127 121.425 136.138 180.098 121.928 136.468 180.221 
121.744 137.222 179.409 122.902 137.428 180.054 122.788 137.872 179.53 
120.753 138.83 178.845 123.637 138.85 179.572 124.93 139.651 180.096 
125.033 139.536 180.332 113.455 139.903 179.591 124.947 140.054 179.967 
122.36 140.404 179.059 124.009 140.672 179.45 125.558 141.35 179.989 
126.625 142.117 180.22 126.498 142.237 180.17 126.685 142.241 180.199 
123.808 142.02 179.452 126.749 142.415 180.262 112.232 130.36 180.785 
113.419 130.37 181.216 111.463 130.416 180.623 111.254 131.789 180.277 
111.355 132.245 180.247 112.955 131.998 180.141 117.737 133.372 180.604 
111.075 133.753 180.715 111.35 134.458 180.752 111.772 133.995 180.269 
112.738 133.815 179.785 111.591 135.381 180.848 113.403 135.044 179.429 
114.058 135.25 179.162 119.951 134.75 180.725 121.007 135.491 180.803 
112.21 136.19 180.32 124.793 139.168 180.478 125.835 140.356 180.92 
112.226 141.06 181.125 126.281 141.075 180.747 126.443 141.798 180.376 
127.261 141.9 181.274 114.349 141.699 179.778 125.788 142.116 179.978 
127.137 142.626 180.614 112.701 142.214 180.912 113.353 142.971 180.676 
126.528 142.783 180.214 127.793 142.962 181.155 122.128 144.247 179.828 
128.39 143.898 181.373 125.221 144.297 180.128 108.595 125.877 181.768 
109.339 125.71 182.148 109.659 125.707 182.378 112.818 129.224 182.002 
107.437 130.312 181.092 113.924 130.448 181.467 103.243 132.097 182.051 
103.31 132.542 182.225 103.679 131.797 181.838 107.61 132.372 182.127 
108.56 132.428 181.859 109.912 133.118 181.545 103.823 132.956 182.35 
104.652 132.922 182.419 118.884 133.792 181.275 103.114 133.7 182.894 
103.22 133.597 182.831 103.217 133.752 182.955 111.809 137.8 181.536 
112.072 141.251 181.508 127.017 141.5 181.397 127.019 141.387 181.862 
113.007 142.904 180.965 112.71 143.463 181.93 116.062 145.505 180.876 
128.57 145.765 181.528 128.802 145.609 181.667 114.975 146.405 182.312 
128.379 146.182 181.57 115.47 146.7 182.138 118.853 147.394 181.322 
108.36 124 182.786 107.969 124.418 182.402 108.874 124.52 182.833 
109.84 125.486 182.831 114.338 130.002 182.772 101.386 130.352 182.272 
115.773 131.497 181.787 101.02 131.666 182.995 103.755 131.093 181.657 
101.009 132.135 183.289 109.794 133.513 182.458 101.739 132.934 183.35 
102.431 133.133 183.054 103.362 133.143 182.621 110.478 134.077 182.005 
102.809 133.755 183.432 104.068 133.589 183.069 111.167 135.37 182.074 
111.327 135.672 182.522 120.922 135.252 181.852 124.037 138.16 182.177 
111.924 140.449 182.048 111.978 140.104 182.467 127.093 141.473 182.653 
112.064 141.912 182.144 127.757 142.211 182.206 112.192 142.489 182.169 
128.626 143.384 182.829 129.166 144.455 182.609 129.559 145.957 182.487 
123.708 147.778 181.462 117.138 148.375 182.74 118.086 148.637 182.431 
105.273 120.985 183.488 107.127 122.003 183.628 107.413 121.68 184.13 
108.154 123.494 183.231 98.2222 126.68 183.59 100.525 127.158 182.542 
98.0609 128.758 184.059 108.317 133.194 183.416 109.836 133.665 183.148 
101.77 133.563 184.174 111.165 135.051 183.139 118.889 133.626 182.716 
120.564 135.154 183.076 112.368 137.262 183.789 123.052 137.288 182.617 
112.217 139.166 183.16 124.898 139.15 182.777 112.082 141.905 182.549 
112.328 142.83 182.468 112.592 143.159 182.949 113.583 145.08 183.019 
113.953 145.649 183.402 114.373 146.157 183.146 130.771 148.178 183.48 
130.965 148.008 183.712 104.797 119.757 184.311 105.073 119.524 184.652 
105.489 119.559 184.794 104.777 120.088 184.002 102.116 120.273 184.164 
104.134 120.48 183.737 101.34 121.286 183.793 107.841 121.859 184.628 
96.6272 126.55 184.755 97.8032 128.889 184.383 113.023 128.268 184.084 
97.7996 129.215 184.642 98.6077 130.366 184.542 109.113 133.464 184.085 
110.207 133.912 183.551 110.415 133.952 184.28 103.918 134.131 183.899 
112.089 136.154 183.907 112.64 136.587 184.383 122.617 137.45 183.685 
113.418 144.35 183.957 131.039 147.404 184.667 131.232 148.121 184.134 
116.88 148.873 184.297 129.654 150.134 183.468 131.263 149.922 184.088 
132.268 149.938 184.858 119.425 150.771 184.392 132.209 150.436 184.842 
100.363 119.757 185.258 100.293 119.518 185.693 103.005 119.175 185.331 
104.525 119.23 185.201 105.537 119.471 185.113 105.344 119.382 185.392 
99.3783 120.043 185.942 103.123 119.62 184.515 97.617 121.468 186.053 
97.434 121.829 185.805 97.0142 122.436 185.882 99.3896 121.147 184.599 
98.5041 122.153 184.547 96.2565 123.795 185.853 95.7332 125.249 185.605 
96.1842 125.047 185.145 95.788 125.429 185.608 95.8098 125.973 185.722 
96.5811 127.545 185.249 96.6794 127.975 185.452 109.17 133.567 185.1 
118.133 133.38 184.82 101.38 133.84 185.511 107.198 133.849 185.475 
119.061 134.172 184.451 102.549 134.688 186.125 114.404 138.434 185.254 
113.183 140.437 184.293 126.125 141.536 185.29 127.882 142.904 184.951 
113.148 143.564 183.904 113.799 144.651 184.63 114.054 145.573 184.513 
116.279 148.411 184.724 132.15 149.398 185.785 132.318 149.816 185.299 
132.981 151.068 185.98 132.363 152.218 185.116 133.485 153.147 185.818 
140.424 168.82 185.864 140.156 168.585 185.912 140.457 168.547 186.12 
140.456 169.211 185.737 140.608 168.853 185.953 140.707 169.055 185.976 
140.607 169.517 185.762 140.72 169.856 185.895 139.587 170.948 185.487 
140.412 170.586 185.662 138.296 172.063 185.556 137.174 173.032 185.954 
137.688 173.081 185.736 136.509 174.013 186.595 137.998 173.452 185.751 
138.994 172.891 185.717 140.128 172.321 186.147 140.356 171.801 186.027 
136.88 174.45 186.42 137.346 174.256 186.126 138.903 173.621 186.036 
139.479 173.394 186.287 139.887 172.956 186.377 136.823 174.917 186.645 
137.678 174.561 186.188 138.78 174.315 186.399 137.347 175.268 186.658 
137.243 175.515 186.965 137.732 175.02 186.468 138.507 174.798 186.627 
137.908 175.285 186.741 99.9076 119.652 185.91 100.223 119.469 186.02 
100.685 119.335 185.926 102.027 119.127 185.955 98.2936 120.678 186.486 
104.644 119.249 185.925 98.034 120.934 186.73 96.7948 122.489 186.71 
96.0428 124.112 186.067 95.6887 125.305 185.739 95.6879 125.396 186.099 
95.5546 125.882 186.182 95.5296 125.978 186.098 95.5905 125.86 186.017 
95.6021 126.073 186.029 95.7458 126.452 186.154 96.0446 127.067 185.951 
96.2057 127.609 186.296 110.973 133.975 185.36 112.224 134.775 185.338 
113.173 135.831 185.291 118.973 134.414 184.945 114.669 136.517 185.862 
120.427 136.507 185.092 118.267 138.082 186.13 120.987 138.09 185.435 
122.583 138.36 184.656 116.036 139.264 185.816 120.783 138.913 185.817 
122.445 139.064 185.246 124.12 140.075 185.087 117.642 140.717 186.26 
114.358 142.346 185.308 120.254 141.07 186.602 121.727 141.493 186.852 
114.447 144.252 185.568 130.663 147.048 186.398 115.745 147.846 185.74 
134.424 154.009 186.571 134.226 154.382 186.446 140.183 168.284 186.104 
140.141 168.074 186.239 140.248 168.169 186.294 139.615 167.717 186.635 
139.266 168.04 186.331 140.375 168.339 186.438 140.651 168.857 186.107 
140.697 170.785 186.113 140.554 171.366 186.09 140.04 173.023 186.765 
136.319 175.157 187.37 139.35 174.193 187.021 136.657 175.408 187.202 
138.227 175.222 186.918 91.9246 115.771 188.269 91.7659 115.472 188.355 
92.3522 115.732 188.399 92.6634 115.693 188.58 92.8388 115.48 188.783 
91.6067 116.239 188.224 91.0945 116.15 188.171 89.6755 116.962 188.321 
89.2203 116.836 188.48 90.3081 116.849 188.234 92.5478 116.531 188.757 
88.948 116.952 188.701 89.6883 117.431 188.415 91.4631 117.123 188.461 
89.1621 117.655 188.776 89.5064 117.729 188.614 98.9019 120.291 187.011 
104.984 119.66 187.002 89.6895 118.069 188.781 90.0456 118.28 188.891 
107.447 120.969 186.288 96.6333 122.849 186.908 96.0988 124.284 187.055 
95.5691 126.095 186.193 95.6409 126.083 186.536 114.999 130.023 186.688 
99.8324 132.815 186.849 110.175 133.643 186.969 113.04 134.287 186.648 
113.649 135.074 186.156 114.617 135.025 186.602 118.09 134.253 185.897 
101.758 134.518 186.992 115.219 134.852 186.844 117.134 134.877 186.633 
119.251 135.552 185.513 118.591 135.253 185.89 104.261 135.215 187.022 
117.017 136.057 186.418 118.731 135.966 185.946 119.906 136.086 185.289 
116.182 137.031 186.155 117.612 136.586 186.274 116.94 137.516 186.159 
123.538 141.943 187.178 116.031 144.958 186.956 120.425 143.848 188.305 
131.805 148.933 186.913 134.614 154.675 187.047 135.666 158.384 187.583 
136.581 159.83 188.095 136.462 159.718 188.038 136.589 159.716 188.158 
139.113 166.06 187.585 139 166.054 187.586 139.168 166.129 187.628 
138.697 165.834 187.834 138.314 166.245 187.449 139.206 166.576 187.352 
139.309 166.461 187.609 139.094 166.986 187.057 139.479 167.046 187.262 
140.045 167.966 186.388 139.925 167.736 187.202 140.643 169.483 187.051 
140.567 171.589 186.892 140.226 172.739 186.934 140.277 172.562 187.262 
135.941 174.92 187.756 139.625 173.875 187.396 136.727 175.879 187.985 
138.722 175.111 187.63 88.8784 115.067 189.335 89.9617 114.722 189.487 
90.9309 115 188.846 92.4399 115.2 188.668 92.716 115.268 188.749 
92.6831 115.112 188.921 88.5005 115.197 189.448 88.4377 115.543 189.315 
89.2767 115.573 188.756 88.6209 115.897 189.02 88.9926 115.858 188.759 
88.5908 116.839 189.129 92.6254 117.283 189.355 89.157 118.241 189.421 
91.0006 118.18 188.926 89.6306 118.408 189.173 90.0132 118.597 189.194 
101.608 119.842 187.92 90.2003 118.796 189.436 96.5661 124.084 188.265 
95.8776 125.807 187.565 95.8252 126.38 187.51 115.52 130.817 187.338 
115.923 131.773 187.533 116.372 132.705 187.131 113.83 133.929 187.452 
116.066 134.272 187.081 117.572 134.183 186.328 103.687 135.64 188.4 
121.331 144.166 188.941 129.289 145.654 187.645 118.03 150.952 187.395 
[...]
POINT_DATA 2430
COLOR_SCALARS scalars 3
0.141176 0.541176 0.368627 0.141176 0.541176 0.368627 0.141176 0.541176 0.368627 
0.141176 0.541176 0.368627 0.141176 0.541176 0.368627 
0.141176 0.541176 0.368627 0.141176 0.541176 0.368627 
0.141176 0.541176 0.368627 0.141176 0.541176 0.368627 
0.141176 0.541176 0.368627 0.141176 0.541176 0.368627 
0.141176 0.541176 0.368627 0.141176 0.541176 0.368627 
0.141176 0.541176 0.368627 0.141176 0.541176 0.368627 
0.141176 0.541176 0.368627 0.141176 0.541176 0.368627 
0.141176 0.541176 0.368627 0.141176 0.541176 0.368627 
0.141176 0.541176 0.368627 0.141176 0.541176 0.368627 
0.141176 0.541176 0.368627 0.141176 0.541176 0.368627 
0.141176 0.541176 0.368627 0.141176 0.541176 0.368627 
0.141176 0.541176 0.368627 0.141176 0.541176 0.368627 
0.141176 0.541176 0.368627 0.141176 0.541176 0.368627 
0.141176 0.541176 0.368627 0.141176 0.541176 0.368627 
0.141176 0.541176 0.368627 0.141176 0.541176 0.368627 
0.141176 0.541176 0.368627 0.141176 0.541176 0.368627 
0.141176 0.541176 0.368627 0.141176 0.541176 0.368627 
0.141176 0.541176 0.368627 0.141176 0.541176 0.368627 
0.141176 0.541176 0.368627 0.141176 0.541176 0.368627 
0.141176 0.541176 0.368627 0.141176 0.541176 0.368627 
0.141176 0.541176 0.368627 0.141176 0.541176 0.368627 
0.141176 0.541176 0.368627 0.141176 0.541176 0.368627 
0.141176 0.541176 0.368627 0.141176 0.541176 0.368627 
0.141176 0.541176 0.368627 0.141176 0.541176 0.368627 
0.141176 0.541176 0.368627 0.141176 0.541176 0.368627 
0.141176 0.541176 0.368627 0.141176 0.541176 0.368627 
0.141176 0.541176 0.368627 0.141176 0.541176 0.368627 
0.141176 0.541176 0.368627 0.141176 0.541176 0.368627 
0.141176 0.541176 0.368627 0.141176 0.541176 0.368627 
0.141176 0.541176 0.368627 0.141176 0.541176 0.368627 
0.141176 0.541176 0.368627 0.141176 0.541176 0.368627 
0.141176 0.541176 0.368627 0.141176 0.541176 0.368627 
0.141176 0.541176 0.368627 0.141176 0.541176 0.368627 
0.141176 0.541176 0.368627 0.141176 0.541176 0.368627 
0.141176 0.541176 0.368627 0.141176 0.541176 0.368627 
0.141176 0.541176 0.368627 0.141176 0.541176 0.368627 
0.141176 0.541176 0.368627 0.141176 0.541176 0.368627 
0.141176 0.541176 0.368627 0.141176 0.541176 0.368627 
0.141176 0.541176 0.368627 0.141176 0.541176 0.368627 
0.141176 0.541176 0.368627 0.141176 0.541176 0.368627 
0.141176 0.541176 0.368627 0.141176 0.541176 0.368627 
0.141176 0.541176 0.368627 0.141176 0.541176 0.368627 
0.141176 0.541176 0.368627 0.141176 0.541176 0.368627 
0.141176 0.541176 0.368627 0.141176 0.541176 0.368627 
0.141176 0.541176 0.368627 0.141176 0.541176 0.368627 
0.141176 0.541176 0.368627 0.141176 0.541176 0.368627 
0.141176 0.541176 0.368627 0.141176 0.541176 0.368627 
0.141176 0.541176 0.368627 0.141176 0.541176 0.368627 
0.141176 0.541176 0.368627 0.141176 0.541176 0.368627 
0.141176 0.541176 0.368627 0.141176 0.541176 0.368627 
0.141176 0.541176 0.368627 0.141176 0.541176 0.368627 
0.141176 0.541176 0.368627 0.141176 0.541176 0.368627 
0.141176 0.541176 0.368627 0.141176 0.541176 0.368627 
0.141176 0.541176 0.368627 0.141176 0.541176 0.368627 
0.141176 0.541176 0.368627 0.141176 0.541176 0.368627 
0.141176 0.541176 0.368627 0.141176 0.541176 0.368627 
0.141176 0.541176 0.368627 0.141176 0.541176 0.368627 
0.141176 0.541176 0.368627 0.141176 0.541176 0.368627 
0.141176 0.541176 0.368627 0.141176 0.541176 0.368627 
0.141176 0.541176 0.368627 0.141176 0.541176 0.368627 
0.141176 0.541176 0.368627 0.141176 0.541176 0.368627 
0.141176 0.541176 0.368627 0.141176 0.541176 0.368627 
0.141176 0.541176 0.368627 0.141176 0.541176 0.368627 
0.141176 0.541176 0.368627 0.141176 0.541176 0.368627 
0.141176 0.541176 0.368627 0.141176 0.541176 0.368627 
0.141176 0.541176 0.368627 0.141176 0.541176 0.368627 
0.141176 0.541176 0.368627 0.141176 0.541176 0.368627 
0.141176 0.541176 0.368627 0.141176 0.541176 0.368627 
0.141176 0.541176 0.368627 0.141176 0.541176 0.368627 
0.141176 0.541176 0.368627 0.141176 0.541176 0.368627 
0.141176 0.541176 0.368627 0.141176 0.541176 0.368627 
0.141176 0.541176 0.368627 0.141176 0.541176 0.368627 
0.141176 0.541176 0.368627 0.141176 0.541176 0.368627 
0.141176 0.541176 0.368627 0.141176 0.541176 0.368627 
0.141176 0.541176 0.368627 0.141176 0.541176 0.368627 
0.141176 0.541176 0.368627 0.141176 0.541176 0.368627 
0.141176 0.541176 0.368627 0.141176 0.541176 0.368627 
0.141176 0.541176 0.368627 0.141176 0.541176 0.368627 
0.141176 0.541176 0.368627 0.141176 0.541176 0.368627 
0.141176 0.541176 0.368627 0.141176 0.541176 0.368627 
0.141176 0.541176 0.368627 0.141176 0.541176 0.368627 
0.141176 0.541176 0.368627 0.141176 0.541176 0.368627 
0.141176 0.541176 0.368627 0.141176 0.541176 0.368627 
0.141176 0.541176 0.368627 0.141176 0.541176 0.368627 
0.141176 0.541176 0.368627 0.141176 0.541176 0.368627 
0.141176 0.541176 0.368627 0.141176 0.541176 0.368627 
0.141176 0.541176 0.368627 0.141176 0.541176 0.368627 
0.141176 0.541176 0.368627 0.141176 0.541176 0.368627 
0.141176 0.541176 0.368627 0.141176 0.541176 0.368627 
0.141176 0.541176 0.368627 0.141176 0.541176 0.368627 
0.141176 0.541176 0.368627 0.141176 0.541176 0.368627 
0.141176 0.541176 0.368627 0.141176 0.541176 0.368627 
0.141176 0.541176 0.368627 0.141176 0.541176 0.368627 
0.141176 0.541176 0.368627 0.141176 0.541176 0.368627 
0.141176 0.541176 0.368627 0.141176 0.541176 0.368627 
0.141176 0.541176 0.368627 0.141176 0.541176 0.368627 
0.141176 0.541176 0.368627 0.141176 0.541176 0.368627 
0.141176 0.541176 0.368627 0.141176 0.541176 0.368627 
0.141176 0.541176 0.368627 0.141176 0.541176 0.368627 
0.141176 0.541176 0.368627 0.141176 0.541176 0.368627 
0.141176 0.541176 0.368627 0.141176 0.541176 0.368627 
0.141176 0.541176 0.368627 0.141176 0.541176 0.368627 
0.141176 0.541176 0.368627 0.141176 0.541176 0.368627 
0.141176 0.541176 0.368627 0.141176 0.541176 0.368627 
0.141176 0.541176 0.368627 0.141176 0.541176 0.368627 
0.141176 0.541176 0.368627 0.141176 0.541176 0.368627 
0.141176 0.541176 0.368627 0.141176 0.541176 0.368627 
0.141176 0.541176 0.368627 0.141176 0.541176 0.368627 
0.141176 0.541176 0.368627 0.141176 0.541176 0.368627 
0.141176 0.541176 0.368627 0.141176 0.541176 0.368627 
0.141176 0.541176 0.368627 0.141176 0.541176 0.368627 
0.141176 0.541176 0.368627 0.141176 0.541176 0.368627 
0.141176 0.541176 0.368627 0.141176 0.541176 0.368627 
0.141176 0.541176 0.368627 0.141176 0.541176 0.368627 
0.141176 0.541176 0.368627 0.141176 0.541176 0.368627 
0.141176 0.541176 0.368627 0.141176 0.541176 0.368627 
0.141176 0.541176 0.368627 0.141176 0.541176 0.368627 
0.141176 0.541176 0.368627 0.141176 0.541176 0.368627 
0.141176 0.541176 0.368627 0.141176 0.541176 0.368627 
0.141176 0.541176 0.368627 0.141176 0.541176 0.368627 
0.141176 0.541176 0.368627 0.141176 0.541176 0.368627 
0.141176 0.541176 0.368627 0.141176 0.541176 0.368627 
0.141176 0.541176 0.368627 0.141176 0.541176 0.368627 
0.141176 0.541176 0.368627 0.141176 0.541176 0.368627 
0.141176 0.541176 0.368627 0.141176 0.541176 0.368627 
0.141176 0.541176 0.368627 0.141176 0.541176 0.368627 
0.141176 0.541176 0.368627 0.141176 0.541176 0.368627 
0.141176 0.541176 0.368627 0.141176 0.541176 0.368627 
0.141176 0.541176 0.368627 0.141176 0.541176 0.368627 
0.141176 0.541176 0.368627 0.141176 0.541176 0.368627 
0.141176 0.541176 0.368627 0.141176 0.541176 0.368627 
0.141176 0.541176 0.368627 0.141176 0.541176 0.368627 
0.141176 0.541176 0.368627 0.141176 0.541176 0.368627 
0.141176 0.541176 0.368627 0.141176 0.541176 0.368627 
0.141176 0.541176 0.368627 0.141176 0.541176 0.368627 
0.141176 0.541176 0.368627 0.141176 0.541176 0.368627 
0.141176 0.541176 0.368627 0.141176 0.541176 0.368627 
0.141176 0.541176 0.368627 0.141176 0.541176 0.368627 
0.141176 0.541176 0.368627 0.141176 0.541176 0.368627 
0.141176 0.541176 0.368627 0.141176 0.541176 0.368627 
0.141176 0.541176 0.368627 0.141176 0.541176 0.368627 
0.141176 0.541176 0.368627 0.141176 0.541176 0.368627 
0.141176 0.541176 0.368627 0.141176 0.541176 0.368627 
0.141176 0.541176 0.368627 0.141176 0.541176 0.368627 
0.141176 0.541176 0.368627 0.141176 0.541176 0.368627 
0.141176 0.541176 0.368627 0.141176 0.541176 0.368627 
0.141176 0.541176 0.368627 0.141176 0.541176 0.368627 
0.141176 0.541176 0.368627 0.141176 0.541176 0.368627 
0.141176 0.541176 0.368627 0.141176 0.541176 0.368627 
0.141176 0.541176 0.368627 0.141176 0.541176 0.368627 
0.141176 0.541176 0.368627 0.141176 0.541176 0.368627 
0.141176 0.541176 0.368627 0.141176 0.541176 0.368627 
0.141176 0.541176 0.368627 0.141176 0.541176 0.368627 
0.141176 0.541176 0.368627 0.141176 0.541176 0.368627 
0.141176 0.541176 0.368627 0.141176 0.541176 0.368627 
0.141176 0.541176 0.368627 0.141176 0.541176 0.368627 
0.141176 0.541176 0.368627 0.141176 0.541176 0.368627 
0.141176 0.541176 0.368627 0.141176 0.541176 0.368627 
0.141176 0.541176 0.368627 0.141176 0.541176 0.368627 
0.141176 0.541176 0.368627 0.141176 0.541176 0.368627 
0.141176 0.541176 0.368627 0.141176 0.541176 0.368627 
0.141176 0.541176 0.368627 0.141176 0.541176 0.368627 
0.141176 0.541176 0.368627 0.141176 0.541176 0.368627 
0.141176 0.541176 0.368627 0.141176 0.541176 0.368627 
0.141176 0.541176 0.368627 0.141176 0.541176 0.368627 
0.141176 0.541176 0.368627 0.141176 0.541176 0.368627 
0.141176 0.541176 0.368627 0.141176 0.541176 0.368627 
0.141176 0.541176 0.368627 0.141176 0.541176 0.368627 
0.141176 0.541176 0.368627 0.141176 0.541176 0.368627 
0.141176 0.541176 0.368627 0.141176 0.541176 0.368627 
0.141176 0.541176 0.368627 0.141176 0.541176 0.368627 
0.141176 0.541176 0.368627 0.141176 0.541176 0.368627 
0.141176 0.541176 0.368627 0.141176 0.541176 0.368627 
0.141176 0.541176 0.368627 0.141176 0.541176 0.368627 
0.141176 0.541176 0.368627 0.141176 0.541176 0.368627 
0.141176 0.541176 0.368627 0.141176 0.541176 0.368627 
0.141176 0.541176 0.368627 0.141176 0.541176 0.368627 
0.141176 0.541176 0.368627 0.141176 0.541176 0.368627 
0.141176 0.541176 0.368627 0.141176 0.541176 0.368627 
0.141176 0.541176 0.368627 0.141176 0.541176 0.368627 
0.141176 0.541176 0.368627 0.141176 0.541176 0.368627 
0.141176 0.541176 0.368627 0.141176 0.541176 0.368627 
0.141176 0.541176 0.368627 0.141176 0.541176 0.368627 
0.141176 0.541176 0.368627 0.141176 0.541176 0.368627 
0.141176 0.541176 0.368627 0.141176 0.541176 0.368627 
0.141176 0.541176 0.368627 0.141176 0.541176 0.368627 
0.141176 0.541176 0.368627 0.141176 0.541176 0.368627 
0.141176 0.541176 0.368627 0.141176 0.541176 0.368627 
0.141176 0.541176 0.368627 0.141176 0.541176 0.368627 
0.141176 0.541176 0.368627 0.141176 0.541176 0.368627 
0.141176 0.541176 0.368627 0.141176 0.541176 0.368627 
0.141176 0.541176 0.368627 0.141176 0.541176 0.368627 
0.141176 0.541176 0.368627 0.141176 0.541176 0.368627 
0.141176 0.541176 0.368627 0.141176 0.541176 0.368627 
0.141176 0.541176 0.368627 0.141176 0.541176 0.368627 
0.141176 0.541176 0.368627 0.141176 0.541176 0.368627 
0.141176 0.541176 0.368627 0.141176 0.541176 0.368627 
0.141176 0.541176 0.368627 0.141176 0.541176 0.368627 
0.141176 0.541176 0.368627 0.141176 0.541176 0.368627 
0.141176 0.541176 0.368627 0.141176 0.541176 0.368627 
0.141176 0.541176 0.368627 0.141176 0.541176 0.368627 
0.141176 0.541176 0.368627 0.141176 0.541176 0.368627 
0.141176 0.541176 0.368627 0.141176 0.541176 0.368627 
0.141176 0.541176 0.368627 0.141176 0.541176 0.368627 
0.141176 0.541176 0.368627 0.141176 0.541176 0.368627 
0.141176 0.541176 0.368627 0.141176 0.541176 0.368627 
0.141176 0.541176 0.368627 0.141176 0.541176 0.368627 
0.141176 0.541176 0.368627 0.141176 0.541176 0.368627 
0.141176 0.541176 0.368627 0.141176 0.541176 0.368627 
0.141176 0.541176 0.368627 0.141176 0.541176 0.368627 
0.141176 0.541176 0.368627 0.141176 0.541176 0.368627 
0.141176 0.541176 0.368627 0.141176 0.541176 0.368627 
0.141176 0.541176 0.368627 0.141176 0.541176 0.368627 
0.141176 0.541176 0.368627 0.141176 0.541176 0.368627 
0.141176 0.541176 0.368627 0.141176 0.541176 0.368627 
0.141176 0.541176 0.368627 0.141176 0.541176 0.368627 
0.141176 0.541176 0.368627 0.141176 0.541176 0.368627 
0.141176 0.541176 0.368627 0.141176 0.541176 0.368627 
0.141176 0.541176 0.368627 0.141176 0.541176 0.368627 
0.141176 0.541176 0.368627 0.141176 0.541176 0.368627 
0.141176 0.541176 0.368627 0.141176 0.541176 0.368627 
0.141176 0.541176 0.368627 0.141176 0.541176 0.368627 
0.141176 0.541176 0.368627 0.141176 0.541176 0.368627 
0.141176 0.541176 0.368627 0.141176 0.541176 0.368627 
0.141176 0.541176 0.368627 0.141176 0.541176 0.368627 
0.141176 0.541176 0.368627 0.141176 0.541176 0.368627 
0.141176 0.541176 0.368627 0.141176 0.541176 0.368627 
0.141176 0.541176 0.368627 0.141176 0.541176 0.368627 
0.141176 0.541176 0.368627 0.141176 0.541176 0.368627 
0.141176 0.541176 0.368627 0.141176 0.541176 0.368627 
0.141176 0.541176 0.368627 0.141176 0.541176 0.368627 
0.141176 0.541176 0.368627 0.141176 0.541176 0.368627 
0.141176 0.541176 0.368627 0.141176 0.541176 0.368627 
0.141176 0.541176 0.368627 0.141176 0.541176 0.368627 
0.141176 0.541176 0.368627 0.141176 0.541176 0.368627 
0.141176 0.541176 0.368627 0.141176 0.541176 0.368627 
0.141176 0.541176 0.368627 0.141176 0.541176 0.368627 
0.141176 0.541176 0.368627 0.141176 0.541176 0.368627 
0.141176 0.541176 0.368627 0.141176 0.541176 0.368627 
0.141176 0.541176 0.368627 0.141176 0.541176 0.368627 
0.141176 0.541176 0.368627 0.141176 0.541176 0.368627 
0.141176 0.541176 0.368627 0.141176 0.541176 0.368627 
0.141176 0.541176 0.368627 0.141176 0.541176 0.368627 
0.141176 0.541176 0.368627 0.141176 0.541176 0.368627 
0.141176 0.541176 0.368627 0.141176 0.541176 0.368627 
0.141176 0.541176 0.368627 0.141176 0.541176 0.368627 
0.141176 0.541176 0.368627 0.141176 0.541176 0.368627 
0.141176 0.541176 0.368627 0.141176 0.541176 0.368627 
0.141176 0.541176 0.368627 0.141176 0.541176 0.368627 
0.141176 0.541176 0.368627 0.141176 0.541176 0.368627 
0.141176 0.541176 0.368627 0.141176 0.541176 0.368627 
0.141176 0.541176 0.368627 0.141176 0.541176 0.368627 
0.141176 0.541176 0.368627 0.141176 0.541176 0.368627 
0.141176 0.541176 0.368627 0.141176 0.541176 0.368627 
0.141176 0.541176 0.368627 0.141176 0.541176 0.368627 
0.141176 0.541176 0.368627 0.141176 0.541176 0.368627 
0.141176 0.541176 0.368627 0.141176 0.541176 0.368627 
0.141176 0.541176 0.368627 0.141176 0.541176 0.368627 
0.141176 0.541176 0.368627 0.141176 0.541176 0.368627 
0.141176 0.541176 0.368627 0.141176 0.541176 0.368627 
0.141176 0.541176 0.368627 0.141176 0.541176 0.368627 
0.141176 0.541176 0.368627 0.141176 0.541176 0.368627 
0.141176 0.541176 0.368627 0.141176 0.541176 0.368627 
0.141176 0.541176 0.368627 0.141176 0.541176 0.368627 
0.141176 0.541176 0.368627 0.141176 0.541176 0.368627 
0.141176 0.541176 0.368627 0.141176 0.541176 0.368627 
0.141176 0.541176 0.368627 0.141176 0.541176 0.368627 
0.141176 0.541176 0.368627 0.141176 0.541176 0.368627 
0.141176 0.541176 0.368627 0.141176 0.541176 0.368627 
0.141176 0.541176 0.368627 0.141176 0.541176 0.368627 
0.141176 0.541176 0.368627 0.141176 0.541176 0.368627 
0.141176 0.541176 0.368627 0.141176 0.541176 0.368627 
0.141176 0.541176 0.368627 0.141176 0.541176 0.368627 
0.141176 0.541176 0.368627 0.141176 0.541176 0.368627 
0.141176 0.541176 0.368627 0.141176 0.541176 0.368627 
0.141176 0.541176 0.368627 0.141176 0.541176 0.368627 
0.141176 0.541176 0.368627 0.141176 0.541176 0.368627 
0.141176 0.541176 0.368627 0.141176 0.541176 0.368627 
0.141176 0.541176 0.368627 0.141176 0.541176 0.368627 
0.141176 0.541176 0.368627 0.141176 0.541176 0.368627 
0.141176 0.541176 0.368627 0.141176 0.541176 0.368627 
0.141176 0.541176 0.368627 0.141176 0.541176 0.368627 
0.141176 0.541176 0.368627 0.141176 0.541176 0.368627 
0.141176 0.541176 0.368627 0.141176 0.541176 0.368627 
0.141176 0.541176 0.368627 0.141176 0.541176 0.368627 
0.141176 0.541176 0.368627 0.141176 0.541176 0.368627 
0.141176 0.541176 0.368627 0.141176 0.541176 0.368627 
0.141176 0.541176 0.368627 0.141176 0.541176 0.368627 
0.141176 0.541176 0.368627 0.141176 0.541176 0.368627 
0.141176 0.541176 0.368627 0.141176 0.541176 0.368627 
0.141176 0.541176 0.368627 0.141176 0.541176 0.368627 
0.141176 0.541176 0.368627 0.141176 0.541176 0.368627 
0.141176 0.541176 0.368627 0.141176 0.541176 0.368627 
0.141176 0.541176 0.368627 0.141176 0.541176 0.368627 
0.141176 0.541176 0.368627 0.141176 0.541176 0.368627 
0.141176 0.541176 0.368627 0.141176 0.541176 0.368627 
0.141176 0.541176 0.368627 0.141176 0.541176 0.368627 
0.141176 0.541176 0.368627 0.141176 0.541176 0.368627 
0.141176 0.541176 0.368627 0.141176 0.541176 0.368627 
0.141176 0.541176 0.368627 0.141176 0.541176 0.368627 
0.141176 0.541176 0.368627 0.141176 0.541176 0.368627 
0.141176 0.541176 0.368627 0.141176 0.541176 0.368627 
0.141176 0.541176 0.368627 0.141176 0.541176 0.368627 
0.141176 0.541176 0.368627 0.141176 0.541176 0.368627 
0.141176 0.541176 0.368627 0.141176 0.541176 0.368627 
0.141176 0.541176 0.368627 0.141176 0.541176 0.368627 
0.141176 0.541176 0.368627 0.141176 0.541176 0.368627 
0.141176 0.541176 0.368627 0.141176 0.541176 0.368627 
0.141176 0.541176 0.368627 0.141176 0.541176 0.368627 
0.141176 0.541176 0.368627 0.141176 0.541176 0.368627 
0.141176 0.541176 0.368627 0.141176 0.541176 0.368627 
0.141176 0.541176 0.368627 0.141176 0.541176 0.368627 
0.141176 0.541176 0.368627 0.141176 0.541176 0.368627 
0.141176 0.541176 0.368627 0.141176 0.541176 0.368627 
0.141176 0.541176 0.368627 0.141176 0.541176 0.368627 
0.141176 0.541176 0.368627 0.141176 0.541176 0.368627 
0.141176 0.541176 0.368627 0.141176 0.541176 0.368627 
0.141176 0.541176 0.368627 0.141176 0.541176 0.368627 
0.141176 0.541176 0.368627 0.141176 0.541176 0.368627 
0.141176 0.541176 0.368627 0.141176 0.541176 0.368627 
0.141176 0.541176 0.368627 0.141176 0.541176 0.368627 
0.141176 0.541176 0.368627 0.141176 0.541176 0.368627 
0.141176 0.541176 0.368627 0.141176 0.541176 0.368627 
0.141176 0.541176 0.368627 0.141176 0.541176 0.368627 
0.141176 0.541176 0.368627 0.141176 0.541176 0.368627 
0.141176 0.541176 0.368627 0.141176 0.541176 0.368627 
0.141176 0.541176 0.368627 0.141176 0.541176 0.368627 
0.141176 0.541176 0.368627 0.141176 0.541176 0.368627 
0.141176 0.541176 0.368627 0.141176 0.541176 0.368627 
0.141176 0.541176 0.368627 0.141176 0.541176 0.368627 
0.141176 0.541176 0.368627 0.141176 0.541176 0.368627 
0.141176 0.541176 0.368627 0.141176 0.541176 0.368627 
0.141176 0.541176 0.368627 0.141176 0.541176 0.368627 
0.141176 0.541176 0.368627 0.141176 0.541176 0.368627 
0.141176 0.541176 0.368627 0.141176 0.541176 0.368627 
0.141176 0.541176 0.368627 0.141176 0.541176 0.368627 
0.141176 0.541176 0.368627 0.141176 0.541176 0.368627 
0.141176 0.541176 0.368627 0.141176 0.541176 0.368627 
0.141176 0.541176 0.368627 0.141176 0.541176 0.368627 
0.141176 0.541176 0.368627 0.141176 0.541176 0.368627 
0.141176 0.541176 0.368627 0.141176 0.541176 0.368627 
0.141176 0.541176 0.368627 0.141176 0.541176 0.368627 
0.141176 0.541176 0.368627 0.141176 0.541176 0.368627 
0.141176 0.541176 0.368627 0.141176 0.541176 0.368627 
0.141176 0.541176 0.368627 0.141176 0.541176 0.368627 
0.141176 0.541176 0.368627 0.141176 0.541176 0.368627 
0.141176 0.541176 0.368627 0.141176 0.541176 0.368627 
0.141176 0.541176 0.368627 0.141176 0.541176 0.368627 
0.141176 0.541176 0.368627 0.141176 0.541176 0.368627 
0.141176 0.541176 0.368627 0.141176 0.541176 0.368627 
0.141176 0.541176 0.368627 0.141176 0.541176 0.368627 
0.141176 0.541176 0.368627 0.141176 0.541176 0.368627 
0.141176 0.541176 0.368627 0.141176 0.541176 0.368627 
0.141176 0.541176 0.368627 0.141176 0.541176 0.368627 
0.141176 0.541176 0.368627 0.141176 0.541176 0.368627 
0.141176 0.541176 0.368627 0.141176 0.541176 0.368627 
0.141176 0.541176 0.368627 0.141176 0.541176 0.368627 
0.141176 0.541176 0.368627 0.141176 0.541176 0.368627 
0.141176 0.541176 0.368627 0.141176 0.541176 0.368627 
0.141176 0.541176 0.368627 0.141176 0.541176 0.368627 
0.141176 0.541176 0.368627 0.141176 0.541176 0.368627 