# vtk DataFile Version 4.2
vtk output
ASCII
DATASET POLYDATA
POINTS 623 float
108.716 134.069 181.422 108.627 134.057 181.546 108.676 134.146 181.401 
108.802 134.099 181.527 108.758 134.145 181.391 109.24 134.703 181.322 
109.027 134.89 181.166 107.532 135.712 180.924 107.742 135.994 180.797 
107.991 137.05 180.777 108.582 136.98 180.839 107.741 138.725 181.333 
109.14 138.923 181.254 109.71 138.759 181.39 109.024 139.905 181.672 
107.185 134.158 182.503 108.445 134.242 181.482 108.381 134.034 181.902 
109.119 134.143 181.881 107.103 134.967 181.544 108.834 134.419 181.376 
109.832 134.777 181.751 105.368 135.772 182.385 107.1 135.48 181.259 
105.23 136.012 182.302 105.248 136.098 182.167 106.751 136.152 181.238 
110.793 135.878 182.129 110.025 139.739 181.845 109.022 140.462 182.201 
109.707 140.55 182.315 105.413 135.272 183.176 105.287 135.624 182.822 
110.532 135.114 182.2 105.218 136.183 182.306 105.183 136.071 182.73 
105.726 137.619 182.645 111.656 137.695 182.678 111.19 139.441 182.519 
110.911 139.952 182.508 109.05 140.949 182.959 109.401 141.166 183.213 
106.972 133.867 183.64 109.651 133.824 183.193 110.964 134.826 183.118 
105.288 135.302 183.713 110.751 140.458 182.742 108.947 141.1 183.442 
109.395 141.442 183.833 110.467 140.91 183.002 105.824 134.569 184.286 
107.628 133.548 185.278 109.97 133.505 184.801 110.683 133.638 184.935 
106.1 134.457 185.356 111.269 133.979 184.803 105.005 136.108 184.946 
114.656 139 184.787 113.669 141.631 184.839 109.24 133.292 186.169 
107.415 133.76 186.563 113.258 135.17 185.214 115.277 136.823 185.516 
105.329 137.862 186.119 120.307 137.997 186.69 122.246 138.808 187.254 
121.954 139.434 186.804 106.862 140.011 185.354 122.808 140.201 187.369 
116.741 140.99 185.624 120.408 140.486 186.264 121.034 140.328 186.398 
122.353 140.584 186.964 121.817 141.131 186.829 119.631 136.204 187.758 
119.383 136.144 187.697 105.014 136.247 185.836 105.087 136.847 187.249 
105.046 137.12 187.15 119.738 137.332 186.878 121.324 137.592 187.812 
105.086 137.284 186.877 122.615 138.9 187.815 122.829 139.275 187.711 
123.367 141.355 187.923 123.681 141.57 188.27 123.091 142.298 187.974 
123.353 142.155 188.086 122.302 143.025 188.055 115.249 145.196 187.344 
109.491 133.255 188.27 108.329 133.641 188.378 117.36 134.866 187.945 
120.181 136.359 188.523 105.074 137.135 187.465 123.766 141.784 188.404 
114.317 146.453 188.67 115.137 133.522 189.019 116.462 133.808 189.212 
107.413 134.26 189.001 105.741 136.012 188.831 105.429 138.01 188.972 
113.467 146.573 189.266 115.044 147.288 189.313 116.83 147.562 189.426 
121.299 137.059 189.953 123.018 139.116 190.146 123.707 143.756 190.142 
112.461 146.446 190.077 114.843 148.981 191.225 115.612 149.461 191.227 
110.778 133.272 190.535 113.847 133.145 190.662 108.806 134.097 191.181 
124.381 143.148 190.994 123.16 145.041 190.788 111.475 146.161 191.044 
123.306 139.773 191.966 124.511 143.086 191.552 115.912 150.565 192.329 
115.622 150.692 192.71 117.145 151.343 192.944 113.936 133.377 192.842 
107.354 135.69 193.479 105.934 139.973 192.876 124.41 142.198 193.323 
124.866 144.001 192.922 124.712 144.753 193.209 123.039 146.876 192.526 
116.278 151.472 193.444 117.747 151.358 193.001 105.723 139.022 193.96 
124.606 142.792 193.725 124.928 144.167 193.949 124.99 145.054 193.998 
123.821 146.402 192.941 117.447 134.259 194.091 118.648 134.926 194.273 
105.795 138.526 195.281 124.866 146.479 194.47 122.859 148.265 193.508 
113.372 150.049 195.236 115.921 134.069 195.351 117.991 134.819 195.479 
112.917 134.254 196.007 106.1 137.798 195.961 105.767 139.601 195.896 
106.121 140.985 196.226 107.286 142.713 195.46 125.032 144.268 196.15 
124.805 149.46 195.728 125.856 149.064 196.463 126.027 148.848 196.624 
125.729 149.486 196.491 110.144 134.924 196.985 108.668 144.304 197.253 
125.21 144.85 196.85 125.687 146.178 196.948 126.512 148.945 197.42 
126.766 149.277 197.814 126.337 150.174 197.276 126.689 149.986 197.585 
127.08 150.467 198.13 126.506 151.092 197.827 126.874 150.911 198.079 
119.859 153.16 196.139 117.547 153.838 197.357 123.054 141.604 197.697 
124.544 143.714 197.241 125.979 146.96 197.305 111.241 147.431 198.014 
126.63 148.783 197.925 127.13 150.145 198.486 127.282 150.485 198.333 
127.301 150.561 198.276 127.342 150.588 198.346 127.142 150.989 198.528 
127.282 150.655 198.341 116.066 153.421 198.236 125.077 152.667 198.462 
119.016 154.166 197.734 117.713 135.994 198.174 126.343 148.044 198.498 
127.283 150.602 198.48 127.202 150.675 198.895 127.218 151.121 198.977 
127.156 151.41 199.243 125.638 152.42 198.497 127.024 151.697 199.138 
116.688 153.852 199.311 119.704 154.299 198.386 119.679 154.426 198.936 
112.695 135.178 199.636 108.655 136.161 200.286 105.624 139.997 200.213 
105.913 140.81 199.765 109.565 144.542 199.475 110.937 146.363 199.36 
126.224 148.07 198.922 126.912 150.124 199.5 127.066 151.366 199.572 
126.608 152.213 199.253 126.81 152.008 199.407 115.561 152.931 200.606 
125.51 152.962 199.724 126.691 151.99 199.856 123.636 153.623 199.922 
110.351 135.38 200.195 110.025 135.559 200.534 111.112 135.362 200.758 
113.635 135.47 199.998 114.653 135.763 199.975 105.949 139.208 200.761 
105.727 139.65 200.602 105.553 139.938 200.566 105.581 139.943 200.708 
105.52 140.011 200.655 105.556 140.071 200.567 105.737 140.305 200.607 
106.378 141.133 200.756 114.226 151.223 201.242 126.564 151.59 200.387 
126.564 151.889 200.237 125.597 152.934 200.089 125.79 152.738 200.312 
126.199 152.311 200.296 118.404 154.398 200.602 120.702 154.427 200.387 
123.244 153.746 200.594 111.864 135.484 201.336 112.479 135.706 201.306 
107.719 137.385 201.854 106.851 138.322 201.747 105.92 139.436 200.977 
105.585 140.075 200.708 105.763 140.021 200.915 105.986 139.689 201.185 
105.933 140.332 201.066 112.663 146.915 202.055 112.976 148.111 201.855 
124.171 148.596 201.736 125.116 150.299 201.659 125.596 151.235 201.413 
125.42 152.23 201.392 116.583 153.363 201.719 125.565 152.416 201.159 
125.611 152.613 200.826 121.5 154.067 201.634 106.772 138.655 201.979 
106.589 139.07 201.9 113.821 138.642 203.171 106.457 139.698 201.813 
110.464 143.273 202.29 113.476 146.967 203.021 114.617 150.662 202.662 
123.203 150.854 203.163 123.768 151.497 202.823 124.786 152.089 201.9 
116.947 153.098 202.818 122.608 153.683 201.878 108.928 137.483 203.366 
111.573 137.291 203.271 110.363 142.07 203.3 114.587 148.619 203.712 
114.312 149.493 203.089 122.205 151.388 203.822 116.763 152.158 203.926 
122.47 151.877 203.584 123.666 152.489 202.657 118.402 153.164 203.846 
123.118 153.076 202.564 120.849 153.755 202.752 109.963 137.371 203.499 
108.78 137.734 203.506 109.929 138.082 204.027 110.319 138.262 204.108 
110.924 138.39 204.01 107.708 139.077 203.196 111.648 139.264 204.064 
109.558 140.431 204.143 111.565 141.961 203.72 113.341 142.654 203.867 
114.245 146.428 203.791 116.883 146.711 204.645 118.457 148.232 204.913 
120.291 150.786 204.77 116.702 151.25 204.694 117.825 152.704 204.297 
122.241 152.553 203.473 109.344 139.101 204.381 110.121 139.572 204.538 
109.184 139.634 204.268 109.5 139.57 204.467 110.018 139.801 204.509 
115.431 146.918 204.391 115.648 147.742 204.548 116.271 147.783 204.852 
116.669 150.456 205.069 116.992 150.904 205.125 118.499 152.52 204.604 
120.345 153.057 203.862 109.572 139.322 204.514 109.857 139.329 204.553 
116.486 149.268 205.15 116.594 149.72 205.27 117.228 150.396 205.342 
117.441 150.862 205.383 117.275 150.853 205.341 117.858 151.066 205.257 
117.509 151.008 205.363 117.385 151.113 205.255 116.784 149.829 205.387 
117.392 150.965 205.379 116.782 149.257 249.681 116.71 149.554 249.712 
117.402 150.848 249.619 117.563 150.904 249.697 109.674 139.207 250.467 
109.363 139.172 250.567 109.52 139.667 250.538 109.785 139.545 250.45 
116.418 147.121 250.189 118.216 149.428 249.701 117.407 150.335 249.668 
117.091 150.672 249.803 117.289 151.134 249.919 118.572 151.945 250.171 
119.956 151.98 250.38 118.982 152.342 250.429 109.693 137.704 251.155 
109.403 137.77 251.206 108.715 138.355 251.255 109.908 138.374 250.738 
111.428 139.774 250.674 110.311 140.712 250.774 112.6 141.774 250.889 
113.937 143.202 250.953 113.739 143.694 251.003 114.843 146.677 250.797 
117.12 147.123 250.16 117.895 147.757 250.045 117.239 151.604 250.257 
117.03 151.768 250.565 120.459 151.191 250.308 118.071 152.423 250.588 
120.555 152.534 250.834 119 152.835 250.896 121.361 152.887 251.263 
109.862 137.328 251.563 109.298 137.18 251.86 109.157 137.532 251.555 
111.844 137.156 251.823 107.814 138.758 251.821 108.137 139.445 251.454 
108.582 140.384 251.377 112.567 141.342 250.917 111.914 141.838 251.021 
111.387 142.033 251.195 113.505 142.5 251.023 111.712 142.642 251.418 
112.739 143.068 251.246 115.574 143.124 251.157 112.677 144.644 251.805 
114.097 145.156 251.121 118.263 145.624 251.044 122.721 152.512 251.518 
122.469 151.935 251.261 123.141 152.885 251.909 123.671 152.767 252.096 
122.819 153.257 252.178 110.681 136.042 252.848 109.078 137.037 252.213 
107.189 138.953 252.53 114.036 139.595 251.525 106.874 141.142 253.422 
110.178 142.343 251.895 113.521 147.31 251.956 114.074 147.829 251.494 
114.449 150.033 252.007 123.389 151.161 251.804 116.05 152.326 252.413 
124.432 152.301 252.518 124.04 152.868 252.433 117.689 153.531 252.73 
124.236 153.078 252.882 112.142 135.516 253.44 107.101 137.872 253.658 
113.593 137.54 252.293 105.993 139.686 253.941 105.865 139.99 254.158 
108.332 142.235 253.164 110.119 143.437 252.947 119.672 142.769 253.128 
113.639 149.699 253.1 125.238 151.586 253.156 125.651 151.998 253.519 
116.625 153.395 253.606 124.807 152.808 253.108 125.571 152.402 253.571 
125.729 152.605 253.929 118.873 154.15 253.463 125.4 152.896 253.853 
114.14 136.146 253.706 105.894 139.489 254.3 105.571 139.929 254.581 
105.646 140.018 254.496 107.527 142.279 254.22 111.386 145.334 253.463 
126.343 151.421 254.19 126.421 151.738 254.284 126.286 152.031 254.241 
[...]
POINT_DATA 623
COLOR_SCALARS scalars 3
0.141176 0.541176 0.368627 0.141176 0.541176 0.368627 0.141176 0.541176 0.368627 
0.141176 0.541176 0.368627 0.141176 0.541176 0.368627 
0.141176 0.541176 0.368627 0.141176 0.541176 0.368627 
0.141176 0.541176 0.368627 0.141176 0.541176 0.368627 
0.141176 0.541176 0.368627 0.141176 0.541176 0.368627 
0.141176 0.541176 0.368627 0.141176 0.541176 0.368627 
0.141176 0.541176 0.368627 0.141176 0.541176 0.368627 
0.141176 0.541176 0.368627 0.141176 0.541176 0.368627 
0.141176 0.541176 0.368627 0.141176 0.541176 0.368627 
0.141176 0.541176 0.368627 0.141176 0.541176 0.368627 
0.141176 0.541176 0.368627 0.141176 0.541176 0.368627 
0.141176 0.541176 0.368627 0.141176 0.541176 0.368627 
0.141176 0.541176 0.368627 0.141176 0.541176 0.368627 
0.141176 0.541176 0.368627 0.141176 0.541176 0.368627 
0.141176 0.541176 0.368627 0.141176 0.541176 0.368627 
0.141176 0.541176 0.368627 0.141176 0.541176 0.368627 
0.141176 0.541176 0.368627 0.141176 0.541176 0.368627 
0.141176 0.541176 0.368627 0.141176 0.541176 0.368627 
0.141176 0.541176 0.368627 0.141176 0.541176 0.368627 
0.141176 0.541176 0.368627 0.141176 0.541176 0.368627 
0.141176 0.541176 0.368627 0.141176 0.541176 0.368627 
0.141176 0.541176 0.368627 0.141176 0.541176 0.368627 
0.141176 0.541176 0.368627 0.141176 0.541176 0.368627 
0.141176 0.541176 0.368627 0.141176 0.541176 0.368627 
0.141176 0.541176 0.368627 0.141176 0.541176 0.368627 
0.141176 0.541176 0.368627 0.141176 0.541176 0.368627 
0.141176 0.541176 0.368627 0.141176 0.541176 0.368627 
0.141176 0.541176 0.368627 0.141176 0.541176 0.368627 
0.141176 0.541176 0.368627 0.141176 0.541176 0.368627 
0.141176 0.541176 0.368627 0.141176 0.541176 0.368627 
0.141176 0.541176 0.368627 0.141176 0.541176 0.368627 
0.141176 0.541176 0.368627 0.141176 0.541176 0.368627 
0.141176 0.541176 0.368627 0.141176 0.541176 0.368627 
0.141176 0.541176 0.368627 0.141176 0.541176 0.368627 
0.141176 0.541176 0.368627 0.141176 0.541176 0.368627 
0.141176 0.541176 0.368627 0.141176 0.541176 0.368627 
0.141176 0.541176 0.368627 0.141176 0.541176 0.368627 
0.141176 0.541176 0.368627 0.141176 0.541176 0.368627 
0.141176 0.541176 0.368627 0.141176 0.541176 0.368627 
0.141176 0.541176 0.368627 0.141176 0.541176 0.368627 
0.141176 0.541176 0.368627 0.141176 0.541176 0.368627 
0.141176 0.541176 0.368627 0.141176 0.541176 0.368627 
0.141176 0.541176 0.368627 0.141176 0.541176 0.368627 
0.141176 0.541176 0.368627 0.141176 0.541176 0.368627 
0.141176 0.541176 0.368627 0.141176 0.541176 0.368627 
0.141176 0.541176 0.368627 0.141176 0.541176 0.368627 
0.141176 0.541176 0.368627 0.141176 0.541176 0.368627 
0.141176 0.541176 0.368627 0.141176 0.541176 0.368627 
0.141176 0.541176 0.368627 0.141176 0.541176 0.368627 
0.141176 0.541176 0.368627 0.141176 0.541176 0.368627 
0.141176 0.541176 0.368627 0.141176 0.541176 0.368627 
0.141176 0.541176 0.368627 0.141176 0.541176 0.368627 
0.141176 0.541176 0.368627 0.141176 0.541176 0.368627 
0.141176 0.541176 0.368627 0.141176 0.541176 0.368627 
0.141176 0.541176 0.368627 0.141176 0.541176 0.368627 
0.141176 0.541176 0.368627 0.141176 0.541176 0.368627 
0.141176 0.541176 0.368627 0.141176 0.541176 0.368627 
0.141176 0.541176 0.368627 0.141176 0.541176 0.368627 
0.141176 0.541176 0.368627 0.141176 0.541176 0.368627 
0.141176 0.541176 0.368627 0.141176 0.541176 0.368627 
0.141176 0.541176 0.368627 0.141176 0.541176 0.368627 
0.141176 0.541176 0.368627 0.141176 0.541176 0.368627 
0.141176 0.541176 0.368627 0.141176 0.541176 0.368627 
0.141176 0.541176 0.368627 0.141176 0.541176 0.368627 
0.141176 0.541176 0.368627 0.141176 0.541176 0.368627 
0.141176 0.541176 0.368627 0.141176 0.541176 0.368627 
0.141176 0.541176 0.368627 0.141176 0.541176 0.368627 
0.141176 0.541176 0.368627 0.141176 0.541176 0.368627 
0.141176 0.541176 0.368627 0.141176 0.541176 0.368627 
0.141176 0.541176 0.368627 0.141176 0.541176 0.368627 
0.141176 0.541176 0.368627 0.141176 0.541176 0.368627 
0.141176 0.541176 0.368627 0.141176 0.541176 0.368627 
0.141176 0.541176 0.368627 0.141176 0.541176 0.368627 
0.141176 0.541176 0.368627 0.141176 0.541176 0.368627 
0.141176 0.541176 0.368627 0.141176 0.541176 0.368627 
0.141176 0.541176 0.368627 0.141176 0.541176 0.368627 
0.141176 0.541176 0.368627 0.141176 0.541176 0.368627 
0.141176 0.541176 0.368627 0.141176 0.541176 0.368627 
0.141176 0.541176 0.368627 0.141176 0.541176 0.368627 
0.141176 0.541176 0.368627 0.141176 0.541176 0.368627 
0.141176 0.541176 0.368627 0.141176 0.541176 0.368627 
0.141176 0.541176 0.368627 0.141176 0.541176 0.368627 
0.141176 0.541176 0.368627 0.141176 0.541176 0.368627 
0.141176 0.541176 0.368627 0.141176 0.541176 0.368627 
0.141176 0.541176 0.368627 0.141176 0.541176 0.368627 
0.141176 0.541176 0.368627 0.141176 0.541176 0.368627 
0.141176 0.541176 0.368627 0.141176 0.541176 0.368627 
0.141176 0.541176 0.368627 0.141176 0.541176 0.368627 
0.141176 0.541176 0.368627 0.141176 0.541176 0.368627 
0.141176 0.541176 0.368627 0.141176 0.541176 0.368627 
0.141176 0.541176 0.368627 0.141176 0.541176 0.368627 
0.141176 0.541176 0.368627 0.141176 0.541176 0.368627 
0.141176 0.541176 0.368627 0.141176 0.541176 0.368627 
0.141176 0.541176 0.368627 0.141176 0.541176 0.368627 
0.141176 0.541176 0.368627 0.141176 0.541176 0.368627 
0.141176 0.541176 0.368627 0.141176 0.541176 0.368627 
0.141176 0.541176 0.368627 0.141176 0.541176 0.368627 
0.141176 0.541176 0.368627 0.141176 0.541176 0.368627 
0.141176 0.541176 0.368627 0.141176 0.541176 0.368627 
0.141176 0.541176 0.368627 0.141176 0.541176 0.368627 
0.141176 0.541176 0.368627 0.141176 0.541176 0.368627 
0.141176 0.541176 0.368627 0.141176 0.541176 0.368627 
0.141176 0.541176 0.368627 0.141176 0.541176 0.368627 
0.141176 0.541176 0.368627 0.141176 0.541176 0.368627 
0.141176 0.541176 0.368627 0.141176 0.541176 0.368627 
0.141176 0.541176 0.368627 0.141176 0.541176 0.368627 
0.141176 0.541176 0.368627 0.141176 0.541176 0.368627 
0.141176 0.541176 0.368627 0.141176 0.541176 0.368627 
0.141176 0.541176 0.368627 0.141176 0.541176 0.368627 
0.141176 0.541176 0.368627 0.141176 0.541176 0.368627 
0.141176 0.541176 0.368627 0.141176 0.541176 0.368627 
0.141176 0.541176 0.368627 0.141176 0.541176 0.368627 
0.141176 0.541176 0.368627 0.141176 0.541176 0.368627 
0.141176 0.541176 0.368627 0.141176 0.541176 0.368627 
0.141176 0.541176 0.368627 0.141176 0.541176 0.368627 
0.141176 0.541176 0.368627 0.141176 0.541176 0.368627 
0.141176 0.541176 0.368627 0.141176 0.541176 0.368627 
0.141176 0.541176 0.368627 0.141176 0.541176 0.368627 
0.141176 0.541176 0.368627 0.141176 0.541176 0.368627 
0.141176 0.541176 0.368627 0.141176 0.541176 0.368627 
0.141176 0.541176 0.368627 0.141176 0.541176 0.368627 
0.141176 0.541176 0.368627 0.141176 0.541176 0.368627 
0.141176 0.541176 0.368627 0.141176 0.541176 0.368627 
0.141176 0.541176 0.368627 0.141176 0.541176 0.368627 
0.141176 0.541176 0.368627 0.141176 0.541176 0.368627 
0.141176 0.541176 0.368627 0.141176 0.541176 0.368627 
0.141176 0.541176 0.368627 0.141176 0.541176 0.368627 
0.141176 0.541176 0.368627 0.141176 0.541176 0.368627 
0.141176 0.541176 0.368627 0.141176 0.541176 0.368627 
0.141176 0.541176 0.368627 0.141176 0.541176 0.368627 
0.141176 0.541176 0.368627 0.141176 0.541176 0.368627 
0.141176 0.541176 0.368627 0.141176 0.541176 0.368627 
0.141176 0.541176 0.368627 0.141176 0.541176 0.368627 
0.141176 0.541176 0.368627 0.141176 0.541176 0.368627 
0.141176 0.541176 0.368627 0.141176 0.541176 0.368627 
0.141176 0.541176 0.368627 0.141176 0.541176 0.368627 
0.141176 0.541176 0.368627 0.141176 0.541176 0.368627 
0.141176 0.541176 0.368627 0.141176 0.541176 0.368627 
0.141176 0.541176 0.368627 0.141176 0.541176 0.368627 
0.141176 0.541176 0.368627 0.141176 0.541176 0.368627 
0.141176 0.541176 0.368627 0.141176 0.541176 0.368627 
0.141176 0.541176 0.368627 0.141176 0.541176 0.368627 
0.141176 0.541176 0.368627 0.141176 0.541176 0.368627 
0.141176 0.541176 0.368627 0.141176 0.541176 0.368627 
0.141176 0.541176 0.368627 0.141176 0.541176 0.368627 
0.141176 0.541176 0.368627 0.141176 0.541176 0.368627 
0.141176 0.541176 0.368627 0.141176 0.541176 0.368627 
0.141176 0.541176 0.368627 0.141176 0.541176 0.368627 
0.141176 0.541176 0.368627 0.141176 0.541176 0.368627 
0.141176 0.541176 0.368627 0.141176 0.541176 0.368627 
0.141176 0.541176 0.368627 0.141176 0.541176 0.368627 
0.141176 0.541176 0.368627 0.141176 0.541176 0.368627 
0.141176 0.541176 0.368627 0.141176 0.541176 0.368627 
0.141176 0.541176 0.368627 0.141176 0.541176 0.368627 
0.141176 0.541176 0.368627 0.141176 0.541176 0.368627 
0.141176 0.541176 0.368627 0.141176 0.541176 0.368627 
0.141176 0.541176 0.368627 0.141176 0.541176 0.368627 
0.141176 0.541176 0.368627 0.141176 0.541176 0.368627 
0.141176 0.541176 0.368627 0.141176 0.541176 0.368627 
0.141176 0.541176 0.368627 0.141176 0.541176 0.368627 
0.141176 0.541176 0.368627 0.141176 0.541176 0.368627 
0.141176 0.541176 0.368627 0.141176 0.541176 0.368627 
0.141176 0.541176 0.368627 0.141176 0.541176 0.368627 
0.141176 0.541176 0.368627 0.141176 0.541176 0.368627 
0.141176 0.541176 0.368627 0.141176 0.541176 0.368627 
0.141176 0.541176 0.368627 0.141176 0.541176 0.368627 
0.141176 0.541176 0.368627 0.141176 0.541176 0.368627 
0.141176 0.541176 0.368627 0.141176 0.541176 0.368627 
0.141176 0.541176 0.368627 0.141176 0.541176 0.368627 
0.141176 0.541176 0.368627 0.141176 0.541176 0.368627 
0.141176 0.541176 0.368627 0.141176 0.541176 0.368627 
0.141176 0.541176 0.368627 0.141176 0.541176 0.368627 
0.141176 0.541176 0.368627 0.141176 0.541176 0.368627 
0.141176 0.541176 0.368627 0.141176 0.541176 0.368627 
0.141176 0.541176 0.368627 0.141176 0.541176 0.368627 
0.141176 0.541176 0.368627 0.141176 0.541176 0.368627 
0.141176 0.541176 0.368627 0.141176 0.541176 0.368627 
0.141176 0.541176 0.368627 0.141176 0.541176 0.368627 
0.141176 0.541176 0.368627 0.141176 0.541176 0.368627 
0.141176 0.541176 0.368627 0.141176 0.541176 0.368627 
0.141176 0.541176 0.368627 0.141176 0.541176 0.368627 
0.141176 0.541176 0.368627 0.141176 0.541176 0.368627 
0.141176 0.541176 0.368627 0.141176 0.541176 0.368627 
0.141176 0.541176 0.368627 0.141176 0.541176 0.368627 
0.141176 0.541176 0.368627 0.141176 0.541176 0.368627 
0.141176 0.541176 0.368627 0.141176 0.541176 0.368627 
0.141176 0.541176 0.368627 0.141176 0.541176 0.368627 
0.141176 0.541176 0.368627 0.141176 0.541176 0.368627 
0.141176 0.541176 0.368627 0.141176 0.541176 0.368627 
0.141176 0.541176 0.368627 0.141176 0.541176 0.368627 
0.141176 0.541176 0.368627 0.141176 0.541176 0.368627 
0.141176 0.541176 0.368627 0.141176 0.541176 0.368627 
0.141176 0.541176 0.368627 0.141176 0.541176 0.368627 
0.141176 0.541176 0.368627 0.141176 0.541176 0.368627 
0.141176 0.541176 0.368627 0.141176 0.541176 0.368627 
0.141176 0.541176 0.368627 0.141176 0.541176 0.368627 
0.141176 0.541176 0.368627 0.141176 0.541176 0.368627 
0.141176 0.541176 0.368627 0.141176 0.541176 0.368627 
0.141176 0.541176 0.368627 0.141176 0.541176 0.368627 
0.141176 0.541176 0.368627 0.141176 0.541176 0.368627 
0.141176 0.541176 0.368627 0.141176 0.541176 0.368627 
0.141176 0.541176 0.368627 0.141176 0.541176 0.368627 
0.141176 0.541176 0.368627 0.141176 0.541176 0.368627 
0.141176 0.541176 0.368627 0.141176 0.541176 0.368627 
0.141176 0.541176 0.368627 0.141176 0.541176 0.368627 
0.141176 0.541176 0.368627 0.141176 0.541176 0.368627 
0.141176 0.541176 0.368627 0.141176 0.541176 0.368627 
0.141176 0.541176 0.368627 0.141176 0.541176 0.368627 
0.141176 0.541176 0.368627 0.141176 0.541176 0.368627 
0.141176 0.541176 0.368627 0.141176 0.541176 0.368627 
0.141176 0.541176 0.368627 0.141176 0.541176 0.368627 
0.141176 0.541176 0.368627 0.141176 0.541176 0.368627 
0.141176 0.541176 0.368627 0.141176 0.541176 0.368627 
0.141176 0.541176 0.368627 0.141176 0.541176 0.368627 
0.141176 0.541176 0.368627 0.141176 0.541176 0.368627 
0.141176 0.541176 0.368627 0.141176 0.541176 0.368627 
0.141176 0.541176 0.368627 0.141176 0.541176 0.368627 
0.141176 0.541176 0.368627 0.141176 0.541176 0.368627 
0.141176 0.541176 0.368627 0.141176 0.541176 0.368627 
0.141176 0.541176 0.368627 0.141176 0.541176 0.368627 
0.141176 0.541176 0.368627 0.141176 0.541176 0.368627 
0.141176 0.541176 0.368627 0.141176 0.541176 0.368627 
0.141176 0.541176 0.368627 0.141176 0.541176 0.368627 
0.141176 0.541176 0.368627 0.141176 0.541176 0.368627 
0.141176 0.541176 0.368627 0.141176 0.541176 0.368627 
0.141176 0.541176 0.368627 0.141176 0.541176 0.368627 
0.141176 0.541176 0.368627 0.141176 0.541176 0.368627 
0.141176 0.541176 0.368627 0.141176 0.541176 0.368627 
0.141176 0.541176 0.368627 0.141176 0.541176 0.368627 
0.141176 0.541176 0.368627 0.141176 0.541176 0.368627 
0.141176 0.541176 0.368627 0.141176 0.541176 0.368627 
0.141176 0.541176 0.368627 0.141176 0.541176 0.368627 
0.141176 0.541176 0.368627 0.141176 0.541176 0.368627 
0.141176 0.541176 0.368627 0.141176 0.541176 0.368627 
0.141176 0.541176 0.368627 0.141176 0.541176 0.368627 
0.141176 0.541176 0.368627 0.141176 0.541176 0.368627 
0.141176 0.541176 0.368627 0.141176 0.541176 0.368627 
0.141176 0.541176 0.368627 0.141176 0.541176 0.368627 
0.141176 0.541176 0.368627 0.141176 0.541176 0.368627 
0.141176 0.541176 0.368627 0.141176 0.541176 0.368627 
0.141176 0.541176 0.368627 0.141176 0.541176 0.368627 
0.141176 0.541176 0.368627 0.141176 0.541176 0.368627 
0.141176 0.541176 0.368627 0.141176 0.541176 0.368627 
0.141176 0.541176 0.368627 0.141176 0.541176 0.368627 
0.141176 0.541176 0.368627 0.141176 0.541176 0.368627 
0.141176 0.541176 0.368627 0.141176 0.541176 0.368627 
0.141176 0.541176 0.368627 0.141176 0.541176 0.368627 
0.141176 0.541176 0.368627 0.141176 0.541176 0.368627 
0.141176 0.541176 0.368627 0.141176 0.541176 0.368627 
0.141176 0.541176 0.368627 0.141176 0.541176 0.368627 
0.141176 0.541176 0.368627 0.141176 0.541176 0.368627 
0.141176 0.541176 0.368627 0.141176 0.541176 0.368627 
0.141176 0.541176 0.368627 0.141176 0.541176 0.368627 
0.141176 0.541176 0.368627 0.141176 0.541176 0.368627 
0.141176 0.541176 0.368627 0.141176 0.541176 0.368627 
0.141176 0.541176 0.368627 0.141176 0.541176 0.368627 
0.141176 0.541176 0.368627 0.141176 0.541176 0.368627 
0.141176 0.541176 0.368627 0.141176 0.541176 0.368627 
0.141176 0.541176 0.368627 0.141176 0.541176 0.368627 
0.141176 0.541176 0.368627 0.141176 0.541176 0.368627 
0.141176 0.541176 0.368627 0.141176 0.541176 0.368627 
0.141176 0.541176 0.368627 0.141176 0.541176 0.368627 
0.141176 0.541176 0.368627 0.141176 0.541176 0.368627 
0.141176 0.541176 0.368627 0.141176 0.541176 0.368627 
0.141176 0.541176 0.368627 0.141176 0.541176 0.368627 
0.141176 0.541176 0.368627 0.141176 0.541176 0.368627 
0.141176 0.541176 0.368627 0.141176 0.541176 0.368627 
0.141176 0.541176 0.368627 0.141176 0.541176 0.368627 
0.141176 0.541176 0.368627 0.141176 0.541176 0.368627 
0.141176 0.541176 0.368627 0.141176 0.541176 0.368627 
0.141176 0.541176 0.368627 0.141176 0.541176 0.368627 
0.141176 0.541176 0.368627 0.141176 0.541176 0.368627 
0.141176 0.541176 0.368627 0.141176 0.541176 0.368627 
0.141176 0.541176 0.368627 0.141176 0.541176 0.368627 
0.141176 0.541176 0.368627 0.141176 0.541176 0.368627 
0.141176 0.541176 0.368627 0.141176 0.541176 0.368627 
0.141176 0.541176 0.368627 0.141176 0.541176 0.368627 
0.141176 0.541176 0.368627 0.141176 0.541176 0.368627 
0.141176 0.541176 0.368627 0.141176 0.541176 0.368627 
0.141176 0.541176 0.368627 0.141176 0.541176 0.368627 
0.141176 0.541176 0.368627 0.141176 0.541176 0.368627 
0.141176 0.541176 0.368627 0.141176 0.541176 0.368627 
0.141176 0.541176 0.368627 0.141176 0.541176 0.368627 
0.141176 0.541176 0.368627 0.141176 0.541176 0.368627 
0.141176 0.541176 0.368627 0.141176 0.541176 0.368627 
0.141176 0.541176 0.368627 0.141176 0.541176 0.368627 
0.141176 0.541176 0.368627 0.141176 0.541176 0.368627 
0.141176 0.541176 0.368627 0.141176 0.541176 0.368627 
0.141176 0.541176 0.368627 0.141176 0.541176 0.368627 
0.141176 0.541176 0.368627 0.141176 0.541176 0.368627 
0.141176 0.541176 0.368627 0.141176 0.541176 0.368627 
0.141176 0.541176 0.368627 0.141176 0.541176 0.368627 
0.141176 0.541176 0.368627 0.141176 0.541176 0.368627 
0.141176 0.541176 0.368627 0.141176 0.541176 0.368627 
0.141176 0.541176 0.368627 0.141176 0.541176 0.368627 
0.141176 0.541176 0.368627 0.141176 0.541176 0.368627 
0.141176 0.541176 0.368627 0.141176 0.541176 0.368627 
0.141176 0.541176 0.368627 0.141176 0.541176 0.368627 
0.141176 0.541176 0.368627 0.141176 0.541176 0.368627 
0.141176 0.541176 0.368627 0.141176 0.541176 0.368627 
0.141176 0.541176 0.368627 0.141176 0.541176 0.368627 
0.141176 0.541176 0.368627 0.141176 0.541176 0.368627 
0.141176 0.541176 0.368627 0.141176 0.541176 0.368627 
0.141176 0.541176 0.368627 0.141176 0.541176 0.368627 
0.141176 0.541176 0.368627 0.141176 0.541176 0.368627 
0.141176 0.541176 0.368627 0.141176 0.541176 0.368627 
0.141176 0.541176 0.368627 0.141176 0.541176 0.368627 
0.141176 0.541176 0.368627 0.141176 0.541176 0.368627 
0.141176 0.541176 0.368627 0.141176 0.541176 0.368627 
0.141176 0.541176 0.368627 0.141176 0.541176 0.368627 
0.141176 0.541176 0.368627 0.141176 0.541176 0.368627 

NORMALS Normals float
0.0511213 -0.792325 -0.607953 -0.150998 -0.931252 -0.331617 -0.37276 -0.311771 -0.873984 
0.631482 -0.708406 -0.315264 0.415628 -0.359524 -0.835461 0.451191 -0.438391 -0.777328 
0.296883 -0.208288 -0.931921 -0.310255 -0.331686 -0.890913 -0.294701 -0.0476691 -0.9544 
-0.15742 0.158117 -0.974791 0.185119 0.0857987 -0.978964 -0.429525 0.424133 -0.797257 
0.100671 0.293172 -0.950745 0.414884 0.166316 -0.894545 0.0548059 0.513781 -0.856169 
-0.436318 -0.799002 -0.41379 -0.34033 -0.552642 -0.760764 -0.277703 -0.921221 -0.272458 
0.519839 -0.73722 -0.431593 -0.481343 -0.518189 -0.706958 0.327764 -0.408796 -0.851738 
0.574416 -0.460607 -0.676673 -0.750473 -0.554256 -0.359986 -0.554039 -0.238045 -0.797731 
-0.928312 -0.315198 -0.197197 -0.74905 -0.173496 -0.639392 -0.517077 -0.11633 -0.847997 
0.661977 -0.201577 -0.721909 0.371427 0.430115 -0.822826 -0.224929 0.758428 -0.611714 
0.188909 0.680859 -0.707633 -0.775538 -0.595872 -0.208511 -0.832583 -0.495702 -0.247153 
0.727559 -0.476117 -0.493934 -0.972421 0.152366 -0.176583 -0.988819 -0.12872 -0.0752856 
-0.852914 0.451933 -0.261332 0.594664 -0.117611 -0.795325 0.50555 0.156853 -0.84842 
0.464058 0.262191 -0.846112 -0.336294 0.803508 -0.491203 -0.115028 0.875719 -0.468919 
-0.353579 -0.920956 -0.163776 0.198801 -0.941772 -0.271188 0.631244 -0.584383 -0.509929 
-0.890224 -0.450541 -0.067193 0.460274 0.530699 -0.711692 -0.467122 0.830041 -0.30468 
-0.259992 0.843736 -0.469588 0.128321 0.803952 -0.580685 -0.732346 -0.680857 -0.0101786 
-0.278106 -0.960147 -0.0278428 0.108863 -0.959444 -0.260029 0.328103 -0.898865 -0.290499 
-0.708197 -0.693089 0.134478 0.446345 -0.813611 -0.372575 -0.99794 -0.0578335 -0.0277673 
0.470347 0.0168361 -0.882321 0.316352 0.475371 -0.820941 -0.0534876 -0.998155 -0.0287346 
-0.47643 -0.868074 0.139503 0.517624 -0.649944 -0.556451 0.425397 -0.296481 -0.855065 
-0.918395 0.383408 -0.0977138 0.300722 -0.416124 -0.858142 0.691405 -0.641808 -0.331726 
0.42604 -0.164925 -0.889545 -0.718085 0.645499 -0.260164 0.689749 -0.148938 -0.708565 
0.284284 0.284031 -0.915701 0.171506 -0.0469715 -0.984063 0.287335 -0.0011425 -0.957829 
0.552413 -0.0134869 -0.833462 0.349992 0.273124 -0.896052 0.445755 -0.775793 -0.446596 
0.351264 -0.775856 -0.524081 -0.988811 -0.139971 0.0515875 -0.951089 -0.275192 0.140354 
-0.999119 -0.00640492 -0.0414694 0.307739 -0.483753 -0.819316 0.660721 -0.65774 -0.361699 
-0.983222 0.177096 -0.0437244 0.641827 -0.750028 -0.159739 0.859112 -0.314754 -0.403556 
0.597401 0.114952 -0.793661 0.858372 -0.102261 -0.502732 0.362208 0.332311 -0.870847 
0.671994 0.428426 -0.604049 0.409343 0.532144 -0.741121 0.0341564 0.586059 -0.809548 
-0.246334 -0.953059 0.176059 -0.31969 -0.928097 0.190875 0.392189 -0.749632 -0.533142 