# vtk DataFile Version 4.2
vtk output
ASCII
DATASET POLYDATA
POINTS 508 float
104.136 115.132 186.428 103.89 115.394 186.196 104.663 115.362 186.383 
104.512 115.213 186.418 104.733 115.225 186.544 103.486 115.497 186.124 
103.211 115.761 186.04 104.381 115.801 186.2 104.684 115.624 186.357 
104.873 115.434 186.567 102.736 115.884 186.024 101.646 116.755 186.032 
102.91 116.851 186.054 104.41 116.99 186.463 96.304 119.496 186.41 
93.5396 121.184 186.302 93.9817 121.094 186.243 94.6067 121.727 186.275 
93.0985 122.171 186.561 93.9461 122.073 186.244 93.4251 122.693 186.518 
94.4053 122.884 186.51 93.3612 123.13 186.7 93.6985 123.159 186.604 
94.1199 123.284 186.668 93.5425 123.5 186.827 102.242 114.736 187.031 
103.153 115.042 186.499 103.73 114.904 186.709 105.066 115.53 186.868 
98.2837 116.095 186.782 105.226 115.897 187.071 97.7363 117.404 186.563 
95.3255 118.065 186.768 103.597 117.637 186.483 105.3 117.053 187.278 
92.8329 119.815 187.081 92.6052 120.257 187.025 95.173 120.492 186.388 
96.0233 120.338 186.508 92.1882 121.008 187.245 92.3217 122.403 187.406 
94.7505 123.012 186.662 94.9376 123.312 186.933 93.4291 123.738 187.091 
93.1696 123.78 187.465 93.7485 123.86 187.071 94.2841 123.926 187.16 
93.5373 124.018 187.346 96.7637 115.302 188.003 104.708 114.984 186.999 
97.7117 115.428 187.391 104.924 115.087 187.188 105.487 115.998 187.656 
93.9673 117.687 188.054 94.734 118.107 187.032 105.765 117.273 187.891 
92.257 119.651 187.808 91.8964 119.942 188.12 92.8543 119.293 187.494 
99.8977 119.061 187.034 102.409 118.827 187.1 104.893 118.746 187.806 
105.657 118.326 188.077 91.953 120.207 187.672 91.764 120.308 187.743 
91.7833 120.412 187.715 91.8647 120.76 187.747 93.8067 124.766 188.338 
94.2391 124.488 187.718 94.195 124.835 188.22 96.3846 114.986 189.225 
97.835 114.474 188.921 102.006 114.227 188.243 104.015 114.62 187.671 
105.732 116.089 188.367 94.164 116.928 189.173 106.062 116.66 188.722 
106.056 117.205 188.407 106.243 117.765 188.752 91.9236 119.728 188.431 
105.882 118.949 188.716 97.1138 121.947 187.682 92.3374 123.165 188.228 
92.9461 124.286 188.911 94.5362 124.761 188.113 95.0284 124.76 188.337 
96.9248 114.629 189.82 98.4666 114.192 189.504 102.656 114.198 188.738 
95.1113 115.877 189.498 105.954 116.131 189.168 106.319 116.689 189.49 
93.1819 118.029 189.801 106.386 120.147 189.936 106.854 120.084 190.353 
91.9392 122.886 189.385 95.0706 125.756 189.908 105.288 115.251 189.451 
107.388 119.412 190.994 91.5248 121.389 190.297 106.962 120.835 190.892 
92.5237 124.041 190.122 97.2178 124.126 189.471 95.7604 125.37 189.574 
94.6154 125.934 190.703 95.4668 125.688 189.892 94.9702 125.967 190.441 
96.0046 115.157 191.393 96.6693 114.809 191.568 103.822 114.487 190.745 
105.878 115.788 190.572 106.707 116.835 190.728 106.922 117.247 190.971 
92.3173 119.437 190.643 107.409 118.52 191.225 107.367 118.867 190.949 
107.707 119.637 191.7 91.4553 121.388 190.709 91.5647 121.26 190.933 
91.4507 121.418 190.843 106.33 121.66 191.048 107.715 121.565 191.946 
94.6499 126.066 191.463 95.8788 126.083 190.957 95.8117 126.287 191.449 
95.6169 115.687 192.161 94.0537 117.692 192.207 107.976 122.224 192.61 
108.424 122.323 193.07 108.638 122.193 193.269 108.26 122.675 193.259 
95.5368 126.414 192.26 98.1829 114.416 192.8 99.8346 114.085 192.341 
106.248 116.197 192.712 108.549 120.501 193.29 91.9962 121.842 192.257 
91.8873 122.406 191.855 108.736 121.878 193.381 92.4011 123.627 192.021 
100.612 123.874 192.274 106.603 123.438 193.176 108.333 122.966 193.695 
107.737 123.411 193.898 95.6144 126.427 192.841 96.2847 126.277 192.254 
95.9179 126.416 192.546 97.6211 114.896 193.762 107.538 117.966 193.463 
93.122 119.806 192.86 92.0004 122.204 192.256 108.955 121.546 194.03 
108.857 122.304 194.377 108.683 122.8 194.341 93.3294 124.34 193.457 
99.4437 124.587 193.436 100.203 124.368 194.277 94.0829 125.266 193.589 
97.5302 125.58 192.94 94.436 125.721 193.308 95.4248 126.276 193.372 
95.725 126.4 193.161 95.9012 126.412 192.979 102.706 115.006 194.687 
104.534 115.392 194.092 96.0782 116.979 194.561 107.511 118.123 194.373 
95.0135 118.056 194.004 95.2847 118.443 194.503 93.4333 120.553 193.675 
108.896 121.21 194.837 108.969 121.789 194.309 98.6537 124.732 194.387 
99.3285 124.378 194.925 95.3103 126.181 193.814 95.4868 126.217 193.834 
95.7679 126.151 193.801 95.972 126.278 193.36 95.4068 126.168 193.968 
102.269 115.482 195.917 104.145 115.655 195.144 107.203 117.888 194.816 
108.238 119.724 195.404 94.817 122.666 195.261 108.877 122.443 195.991 
97.8932 124.002 195.625 97.1665 123.965 195.634 98.868 123.999 195.632 
99.4642 123.618 196.19 108.656 122.842 195.675 108.808 122.6 196.014 
102.14 124.147 195.821 106.954 124.253 195.502 94.086 124.6 194.381 
96.9203 125.206 194.486 106.806 124.309 195.904 105.093 117.139 196.557 
106.653 118.266 196.157 107.43 119.904 196.911 96.633 122.817 195.973 
98.2815 122.561 196.587 108.564 122.107 196.51 108.577 122.679 196.368 
94.7305 123.801 195.103 95.8659 123.814 195.5 99.6891 123.125 196.748 
108.375 123.085 196.177 94.8602 124.745 194.867 104.918 124.474 196.591 
106.062 124.461 196.34 98.7586 116.32 196.595 99.1995 116.211 196.763 
99.6261 116.006 196.686 100.731 116.038 196.903 99.1047 117.588 197.466 
104.139 117.75 197.78 107.374 120.971 197.488 100.676 121.509 198.249 
108.234 121.734 196.93 108.437 122.46 196.775 108.208 122.513 197.05 
108.216 123.009 196.659 105.2 124.232 197.294 106.877 124.051 196.737 
106.016 124.321 196.831 100.309 116.965 197.657 99.4646 117.358 197.58 
101.617 117.514 198.216 102.172 118.165 198.554 104.829 120.421 198.825 
105.63 121.278 198.697 103.33 123.341 198.204 107.022 123.101 197.78 
107.998 122.794 197.102 105.917 123.68 197.762 106.64 123.378 197.771 
103.877 120.466 199.06 101.72 121.857 198.61 105.731 121.838 198.722 
105.333 121.996 198.831 104.202 123.422 198.228 103.966 121.106 199.03 
105.195 122.404 198.743 102.129 118.48 256.205 101.942 119.528 256.027 
102.909 119.076 256.007 101.87 120.018 255.979 103.69 119.808 255.937 
102.025 120.811 255.984 103.151 120.846 255.926 104.487 120.62 255.972 
105.237 121.462 256.115 105.824 122.359 256.422 103.983 123.204 256.775 
105.721 122.77 256.567 104.749 123.345 256.879 100.679 117.575 256.902 
101.468 117.266 256.921 102.365 118.417 256.212 100.71 118.877 256.505 
103.158 119.068 256.032 103.465 119.045 256.147 103.966 119.831 255.98 
104.782 120.665 256.033 105.118 120.672 256.195 102.057 121.718 256.261 
105.544 121.53 256.201 106.692 122.319 256.792 106.196 123.081 256.867 
106.877 122.678 256.943 106.738 123.041 257.054 107.183 122.868 257.206 
106.433 123.539 257.352 100.483 116.217 257.908 99.3179 117.342 257.609 
103.846 117.329 257.373 103.377 118.419 256.482 105.045 119.959 256.444 
100.205 120.999 256.997 106.648 121.685 256.83 108.38 122.576 258.002 
108.512 122.766 258.238 105.356 124.276 258.013 106.68 123.936 257.827 
108.323 123.027 258.247 106.541 124.183 258.12 99.2866 116.081 258.553 
101.282 115.613 258.661 105.764 117.744 258.228 98.3544 118.629 257.949 
107.601 120.679 257.697 108.193 121.525 257.924 99.4758 122.669 258.177 
108.583 122.479 258.247 108.623 122.053 258.465 108.738 122.592 258.607 
101.982 123.582 258.07 104.31 124.306 258.383 107.265 123.97 258.403 
104.761 124.44 258.693 106.024 124.451 258.608 106.924 124.192 258.498 
103.946 115.789 259.174 108.827 121.765 259.294 94.7453 122.962 259.734 
108.908 122.583 258.935 108.98 122.469 259.032 97.42 123.663 259.282 
100.021 123.703 259.072 108.695 122.854 259.049 108.935 122.556 259.149 
94.2919 124.082 260.208 93.924 124.216 260.586 102.642 124.161 259.387 
95.0773 125.016 260.317 105.863 124.494 259.011 94.6661 124.992 260.452 
104.666 115.611 260.122 106.491 116.875 260.112 93.4772 121.593 260.816 
94.4692 121.452 260.008 108.88 121.893 260.167 93.0354 122.548 261.279 
108.952 122.328 259.185 108.852 122.431 259.596 93.1828 123.555 261.236 
97.7737 124.769 260.296 100.456 124.281 260.405 104.112 124.385 259.975 
106.932 124.254 259.554 96.0968 125.341 260.43 105.023 124.485 259.642 
94.6957 125.318 260.794 94.9849 125.805 261.141 95.5956 126.097 261.113 
95.8443 126.177 261.439 95.4234 126.144 261.152 100.35 114.41 261.256 
105.613 115.904 260.652 108.224 119.256 260.31 93.3581 120.323 261.414 
108.759 120.963 261.166 108.841 121.894 260.805 108.485 123.064 260.383 
108.256 123.306 260.586 100.154 124.406 261.052 105.852 124.157 260.707 
95.4017 126.235 261.668 95.4952 126.203 261.307 95.9739 126.312 261.793 
95.7274 126.335 262.042 96.0762 126.322 262.047 97.2652 114.971 262.126 
106.211 116.098 261.899 95.1831 116.992 261.814 93.3166 119.192 262.311 
92.0544 120.995 263.105 108.528 122.538 261.372 108.223 122.897 261.549 
106.296 123.848 261.292 93.4582 124.835 262.261 97.8452 114.386 263.667 
95.8513 115.451 263.466 95.4679 115.905 263.128 92.8112 118.833 263.705 
91.8191 120.44 263.965 92.1735 122.869 263.334 108.376 122.556 261.811 
92.5922 123.797 262.835 99.9599 124.05 263.087 101.191 124.016 262.17 
106.325 123.165 262.467 107.382 123.337 261.694 107.778 122.89 262.033 
92.8811 124.445 263.635 99.2603 124.586 262.555 93.724 125.353 263.487 
95.5015 126.276 263.342 96.8925 125.846 263.123 101.974 113.985 263.928 
103.502 114.256 263.841 91.5968 120.807 264.262 91.6308 120.987 264.156 
98.1179 124.829 263.73 94.5929 125.857 264.231 95.7714 126.231 263.564 
95.7154 115.367 264.629 105.998 115.866 265.104 92.9718 118.205 265.42 
91.7756 119.942 265.54 106.863 121.081 264.259 107.804 121.602 263.086 
92.2118 123.399 264.622 92.8677 124.358 265.337 97.5883 124.511 264.806 
96.1438 125.773 264.248 94.9583 125.876 264.548 95.8126 126.073 263.953 
97.508 114.491 265.996 104.621 114.617 264.984 94.5353 116.46 265.821 
106.63 117.149 265.357 101.033 121.198 266.14 91.9805 122.74 265.911 
93.7199 124.944 266.017 95.0164 125.658 265.145 97.3559 114.697 266.599 
98.9625 114.353 266.641 99.8796 114.238 266.62 105.093 114.956 265.697 
[...]
POINT_DATA 508
COLOR_SCALARS scalars 3
0.141176 0.541176 0.368627 0.141176 0.541176 0.368627 0.141176 0.541176 0.368627 
0.141176 0.541176 0.368627 0.141176 0.541176 0.368627 
0.141176 0.541176 0.368627 0.141176 0.541176 0.368627 
0.141176 0.541176 0.368627 0.141176 0.541176 0.368627 
0.141176 0.541176 0.368627 0.141176 0.541176 0.368627 
0.141176 0.541176 0.368627 0.141176 0.541176 0.368627 
0.141176 0.541176 0.368627 0.141176 0.541176 0.368627 
0.141176 0.541176 0.368627 0.141176 0.541176 0.368627 
0.141176 0.541176 0.368627 0.141176 0.541176 0.368627 
0.141176 0.541176 0.368627 0.141176 0.541176 0.368627 
0.141176 0.541176 0.368627 0.141176 0.541176 0.368627 
0.141176 0.541176 0.368627 0.141176 0.541176 0.368627 
0.141176 0.541176 0.368627 0.141176 0.541176 0.368627 
0.141176 0.541176 0.368627 0.141176 0.541176 0.368627 
0.141176 0.541176 0.368627 0.141176 0.541176 0.368627 
0.141176 0.541176 0.368627 0.141176 0.541176 0.368627 
0.141176 0.541176 0.368627 0.141176 0.541176 0.368627 
0.141176 0.541176 0.368627 0.141176 0.541176 0.368627 
0.141176 0.541176 0.368627 0.141176 0.541176 0.368627 
0.141176 0.541176 0.368627 0.141176 0.541176 0.368627 
0.141176 0.541176 0.368627 0.141176 0.541176 0.368627 
0.141176 0.541176 0.368627 0.141176 0.541176 0.368627 
0.141176 0.541176 0.368627 0.141176 0.541176 0.368627 
0.141176 0.541176 0.368627 0.141176 0.541176 0.368627 
0.141176 0.541176 0.368627 0.141176 0.541176 0.368627 
0.141176 0.541176 0.368627 0.141176 0.541176 0.368627 
0.141176 0.541176 0.368627 0.141176 0.541176 0.368627 
0.141176 0.541176 0.368627 0.141176 0.541176 0.368627 
0.141176 0.541176 0.368627 0.141176 0.541176 0.368627 
0.141176 0.541176 0.368627 0.141176 0.541176 0.368627 
0.141176 0.541176 0.368627 0.141176 0.541176 0.368627 
0.141176 0.541176 0.368627 0.141176 0.541176 0.368627 
0.141176 0.541176 0.368627 0.141176 0.541176 0.368627 
0.141176 0.541176 0.368627 0.141176 0.541176 0.368627 
0.141176 0.541176 0.368627 0.141176 0.541176 0.368627 
0.141176 0.541176 0.368627 0.141176 0.541176 0.368627 
0.141176 0.541176 0.368627 0.141176 0.541176 0.368627 
0.141176 0.541176 0.368627 0.141176 0.541176 0.368627 
0.141176 0.541176 0.368627 0.141176 0.541176 0.368627 
0.141176 0.541176 0.368627 0.141176 0.541176 0.368627 
0.141176 0.541176 0.368627 0.141176 0.541176 0.368627 
0.141176 0.541176 0.368627 0.141176 0.541176 0.368627 
0.141176 0.541176 0.368627 0.141176 0.541176 0.368627 
0.141176 0.541176 0.368627 0.141176 0.541176 0.368627 
0.141176 0.541176 0.368627 0.141176 0.541176 0.368627 
0.141176 0.541176 0.368627 0.141176 0.541176 0.368627 
0.141176 0.541176 0.368627 0.141176 0.541176 0.368627 
0.141176 0.541176 0.368627 0.141176 0.541176 0.368627 
0.141176 0.541176 0.368627 0.141176 0.541176 0.368627 
0.141176 0.541176 0.368627 0.141176 0.541176 0.368627 
0.141176 0.541176 0.368627 0.141176 0.541176 0.368627 
0.141176 0.541176 0.368627 0.141176 0.541176 0.368627 
0.141176 0.541176 0.368627 0.141176 0.541176 0.368627 
0.141176 0.541176 0.368627 0.141176 0.541176 0.368627 
0.141176 0.541176 0.368627 0.141176 0.541176 0.368627 
0.141176 0.541176 0.368627 0.141176 0.541176 0.368627 
0.141176 0.541176 0.368627 0.141176 0.541176 0.368627 
0.141176 0.541176 0.368627 0.141176 0.541176 0.368627 
0.141176 0.541176 0.368627 0.141176 0.541176 0.368627 
0.141176 0.541176 0.368627 0.141176 0.541176 0.368627 
0.141176 0.541176 0.368627 0.141176 0.541176 0.368627 
0.141176 0.541176 0.368627 0.141176 0.541176 0.368627 
0.141176 0.541176 0.368627 0.141176 0.541176 0.368627 
0.141176 0.541176 0.368627 0.141176 0.541176 0.368627 
0.141176 0.541176 0.368627 0.141176 0.541176 0.368627 
0.141176 0.541176 0.368627 0.141176 0.541176 0.368627 
0.141176 0.541176 0.368627 0.141176 0.541176 0.368627 
0.141176 0.541176 0.368627 0.141176 0.541176 0.368627 
0.141176 0.541176 0.368627 0.141176 0.541176 0.368627 
0.141176 0.541176 0.368627 0.141176 0.541176 0.368627 
0.141176 0.541176 0.368627 0.141176 0.541176 0.368627 
0.141176 0.541176 0.368627 0.141176 0.541176 0.368627 
0.141176 0.541176 0.368627 0.141176 0.541176 0.368627 
0.141176 0.541176 0.368627 0.141176 0.541176 0.368627 
0.141176 0.541176 0.368627 0.141176 0.541176 0.368627 
0.141176 0.541176 0.368627 0.141176 0.541176 0.368627 
0.141176 0.541176 0.368627 0.141176 0.541176 0.368627 
0.141176 0.541176 0.368627 0.141176 0.541176 0.368627 
0.141176 0.541176 0.368627 0.141176 0.541176 0.368627 
0.141176 0.541176 0.368627 0.141176 0.541176 0.368627 
0.141176 0.541176 0.368627 0.141176 0.541176 0.368627 
0.141176 0.541176 0.368627 0.141176 0.541176 0.368627 
0.141176 0.541176 0.368627 0.141176 0.541176 0.368627 
0.141176 0.541176 0.368627 0.141176 0.541176 0.368627 
0.141176 0.541176 0.368627 0.141176 0.541176 0.368627 
0.141176 0.541176 0.368627 0.141176 0.541176 0.368627 
0.141176 0.541176 0.368627 0.141176 0.541176 0.368627 
0.141176 0.541176 0.368627 0.141176 0.541176 0.368627 
0.141176 0.541176 0.368627 0.141176 0.541176 0.368627 
0.141176 0.541176 0.368627 0.141176 0.541176 0.368627 
0.141176 0.541176 0.368627 0.141176 0.541176 0.368627 
0.141176 0.541176 0.368627 0.141176 0.541176 0.368627 
0.141176 0.541176 0.368627 0.141176 0.541176 0.368627 
0.141176 0.541176 0.368627 0.141176 0.541176 0.368627 
0.141176 0.541176 0.368627 0.141176 0.541176 0.368627 
0.141176 0.541176 0.368627 0.141176 0.541176 0.368627 
0.141176 0.541176 0.368627 0.141176 0.541176 0.368627 
0.141176 0.541176 0.368627 0.141176 0.541176 0.368627 
0.141176 0.541176 0.368627 0.141176 0.541176 0.368627 
0.141176 0.541176 0.368627 0.141176 0.541176 0.368627 
0.141176 0.541176 0.368627 0.141176 0.541176 0.368627 
0.141176 0.541176 0.368627 0.141176 0.541176 0.368627 
0.141176 0.541176 0.368627 0.141176 0.541176 0.368627 
0.141176 0.541176 0.368627 0.141176 0.541176 0.368627 
0.141176 0.541176 0.368627 0.141176 0.541176 0.368627 
0.141176 0.541176 0.368627 0.141176 0.541176 0.368627 
0.141176 0.541176 0.368627 0.141176 0.541176 0.368627 
0.141176 0.541176 0.368627 0.141176 0.541176 0.368627 
0.141176 0.541176 0.368627 0.141176 0.541176 0.368627 
0.141176 0.541176 0.368627 0.141176 0.541176 0.368627 
0.141176 0.541176 0.368627 0.141176 0.541176 0.368627 
0.141176 0.541176 0.368627 0.141176 0.541176 0.368627 
0.141176 0.541176 0.368627 0.141176 0.541176 0.368627 
0.141176 0.541176 0.368627 0.141176 0.541176 0.368627 
0.141176 0.541176 0.368627 0.141176 0.541176 0.368627 
0.141176 0.541176 0.368627 0.141176 0.541176 0.368627 
0.141176 0.541176 0.368627 0.141176 0.541176 0.368627 
0.141176 0.541176 0.368627 0.141176 0.541176 0.368627 
0.141176 0.541176 0.368627 0.141176 0.541176 0.368627 
0.141176 0.541176 0.368627 0.141176 0.541176 0.368627 
0.141176 0.541176 0.368627 0.141176 0.541176 0.368627 
0.141176 0.541176 0.368627 0.141176 0.541176 0.368627 
0.141176 0.541176 0.368627 0.141176 0.541176 0.368627 
0.141176 0.541176 0.368627 0.141176 0.541176 0.368627 
0.141176 0.541176 0.368627 0.141176 0.541176 0.368627 
0.141176 0.541176 0.368627 0.141176 0.541176 0.368627 
0.141176 0.541176 0.368627 0.141176 0.541176 0.368627 
0.141176 0.541176 0.368627 0.141176 0.541176 0.368627 
0.141176 0.541176 0.368627 0.141176 0.541176 0.368627 
0.141176 0.541176 0.368627 0.141176 0.541176 0.368627 
0.141176 0.541176 0.368627 0.141176 0.541176 0.368627 
0.141176 0.541176 0.368627 0.141176 0.541176 0.368627 
0.141176 0.541176 0.368627 0.141176 0.541176 0.368627 
0.141176 0.541176 0.368627 0.141176 0.541176 0.368627 
0.141176 0.541176 0.368627 0.141176 0.541176 0.368627 
0.141176 0.541176 0.368627 0.141176 0.541176 0.368627 
0.141176 0.541176 0.368627 0.141176 0.541176 0.368627 
0.141176 0.541176 0.368627 0.141176 0.541176 0.368627 
0.141176 0.541176 0.368627 0.141176 0.541176 0.368627 
0.141176 0.541176 0.368627 0.141176 0.541176 0.368627 
0.141176 0.541176 0.368627 0.141176 0.541176 0.368627 
0.141176 0.541176 0.368627 0.141176 0.541176 0.368627 
0.141176 0.541176 0.368627 0.141176 0.541176 0.368627 
0.141176 0.541176 0.368627 0.141176 0.541176 0.368627 
0.141176 0.541176 0.368627 0.141176 0.541176 0.368627 
0.141176 0.541176 0.368627 0.141176 0.541176 0.368627 
0.141176 0.541176 0.368627 0.141176 0.541176 0.368627 
0.141176 0.541176 0.368627 0.141176 0.541176 0.368627 
0.141176 0.541176 0.368627 0.141176 0.541176 0.368627 
0.141176 0.541176 0.368627 0.141176 0.541176 0.368627 
0.141176 0.541176 0.368627 0.141176 0.541176 0.368627 
0.141176 0.541176 0.368627 0.141176 0.541176 0.368627 
0.141176 0.541176 0.368627 0.141176 0.541176 0.368627 
0.141176 0.541176 0.368627 0.141176 0.541176 0.368627 
0.141176 0.541176 0.368627 0.141176 0.541176 0.368627 
0.141176 0.541176 0.368627 0.141176 0.541176 0.368627 
0.141176 0.541176 0.368627 0.141176 0.541176 0.368627 
0.141176 0.541176 0.368627 0.141176 0.541176 0.368627 
0.141176 0.541176 0.368627 0.141176 0.541176 0.368627 
0.141176 0.541176 0.368627 0.141176 0.541176 0.368627 
0.141176 0.541176 0.368627 0.141176 0.541176 0.368627 
0.141176 0.541176 0.368627 0.141176 0.541176 0.368627 
0.141176 0.541176 0.368627 0.141176 0.541176 0.368627 
0.141176 0.541176 0.368627 0.141176 0.541176 0.368627 
0.141176 0.541176 0.368627 0.141176 0.541176 0.368627 
0.141176 0.541176 0.368627 0.141176 0.541176 0.368627 
0.141176 0.541176 0.368627 0.141176 0.541176 0.368627 
0.141176 0.541176 0.368627 0.141176 0.541176 0.368627 
0.141176 0.541176 0.368627 0.141176 0.541176 0.368627 
0.141176 0.541176 0.368627 0.141176 0.541176 0.368627 
0.141176 0.541176 0.368627 0.141176 0.541176 0.368627 
0.141176 0.541176 0.368627 0.141176 0.541176 0.368627 
0.141176 0.541176 0.368627 0.141176 0.541176 0.368627 
0.141176 0.541176 0.368627 0.141176 0.541176 0.368627 
0.141176 0.541176 0.368627 0.141176 0.541176 0.368627 
0.141176 0.541176 0.368627 0.141176 0.541176 0.368627 
0.141176 0.541176 0.368627 0.141176 0.541176 0.368627 
0.141176 0.541176 0.368627 0.141176 0.541176 0.368627 
0.141176 0.541176 0.368627 0.141176 0.541176 0.368627 
0.141176 0.541176 0.368627 0.141176 0.541176 0.368627 
0.141176 0.541176 0.368627 0.141176 0.541176 0.368627 
0.141176 0.541176 0.368627 0.141176 0.541176 0.368627 
0.141176 0.541176 0.368627 0.141176 0.541176 0.368627 
0.141176 0.541176 0.368627 0.141176 0.541176 0.368627 
0.141176 0.541176 0.368627 0.141176 0.541176 0.368627 
0.141176 0.541176 0.368627 0.141176 0.541176 0.368627 
0.141176 0.541176 0.368627 0.141176 0.541176 0.368627 
0.141176 0.541176 0.368627 0.141176 0.541176 0.368627 
0.141176 0.541176 0.368627 0.141176 0.541176 0.368627 
0.141176 0.541176 0.368627 0.141176 0.541176 0.368627 
0.141176 0.541176 0.368627 0.141176 0.541176 0.368627 
0.141176 0.541176 0.368627 0.141176 0.541176 0.368627 
0.141176 0.541176 0.368627 0.141176 0.541176 0.368627 
0.141176 0.541176 0.368627 0.141176 0.541176 0.368627 
0.141176 0.541176 0.368627 0.141176 0.541176 0.368627 
0.141176 0.541176 0.368627 0.141176 0.541176 0.368627 
0.141176 0.541176 0.368627 0.141176 0.541176 0.368627 
0.141176 0.541176 0.368627 0.141176 0.541176 0.368627 
0.141176 0.541176 0.368627 0.141176 0.541176 0.368627 
0.141176 0.541176 0.368627 0.141176 0.541176 0.368627 
0.141176 0.541176 0.368627 0.141176 0.541176 0.368627 
0.141176 0.541176 0.368627 0.141176 0.541176 0.368627 
0.141176 0.541176 0.368627 0.141176 0.541176 0.368627 
0.141176 0.541176 0.368627 0.141176 0.541176 0.368627 
0.141176 0.541176 0.368627 0.141176 0.541176 0.368627 
0.141176 0.541176 0.368627 0.141176 0.541176 0.368627 
0.141176 0.541176 0.368627 0.141176 0.541176 0.368627 
0.141176 0.541176 0.368627 0.141176 0.541176 0.368627 
0.141176 0.541176 0.368627 0.141176 0.541176 0.368627 
0.141176 0.541176 0.368627 0.141176 0.541176 0.368627 
0.141176 0.541176 0.368627 0.141176 0.541176 0.368627 
0.141176 0.541176 0.368627 0.141176 0.541176 0.368627 
0.141176 0.541176 0.368627 0.141176 0.541176 0.368627 
0.141176 0.541176 0.368627 0.141176 0.541176 0.368627 
0.141176 0.541176 0.368627 0.141176 0.541176 0.368627 
0.141176 0.541176 0.368627 0.141176 0.541176 0.368627 
0.141176 0.541176 0.368627 0.141176 0.541176 0.368627 
0.141176 0.541176 0.368627 0.141176 0.541176 0.368627 
0.141176 0.541176 0.368627 0.141176 0.541176 0.368627 
0.141176 0.541176 0.368627 0.141176 0.541176 0.368627 
0.141176 0.541176 0.368627 0.141176 0.541176 0.368627 
0.141176 0.541176 0.368627 0.141176 0.541176 0.368627 
0.141176 0.541176 0.368627 0.141176 0.541176 0.368627 
0.141176 0.541176 0.368627 0.141176 0.541176 0.368627 
0.141176 0.541176 0.368627 0.141176 0.541176 0.368627 
0.141176 0.541176 0.368627 0.141176 0.541176 0.368627 
0.141176 0.541176 0.368627 0.141176 0.541176 0.368627 
0.141176 0.541176 0.368627 0.141176 0.541176 0.368627 
0.141176 0.541176 0.368627 0.141176 0.541176 0.368627 
0.141176 0.541176 0.368627 0.141176 0.541176 0.368627 
0.141176 0.541176 0.368627 0.141176 0.541176 0.368627 
0.141176 0.541176 0.368627 0.141176 0.541176 0.368627 
0.141176 0.541176 0.368627 0.141176 0.541176 0.368627 
0.141176 0.541176 0.368627 0.141176 0.541176 0.368627 
0.141176 0.541176 0.368627 0.141176 0.541176 0.368627 
0.141176 0.541176 0.368627 0.141176 0.541176 0.368627 
0.141176 0.541176 0.368627 0.141176 0.541176 0.368627 
0.141176 0.541176 0.368627 0.141176 0.541176 0.368627 
0.141176 0.541176 0.368627 0.141176 0.541176 0.368627 
0.141176 0.541176 0.368627 0.141176 0.541176 0.368627 
0.141176 0.541176 0.368627 0.141176 0.541176 0.368627 
0.141176 0.541176 0.368627 0.141176 0.541176 0.368627 
0.141176 0.541176 0.368627 0.141176 0.541176 0.368627 
0.141176 0.541176 0.368627 0.141176 0.541176 0.368627 
0.141176 0.541176 0.368627 0.141176 0.541176 0.368627 
0.141176 0.541176 0.368627 0.141176 0.541176 0.368627 
0.141176 0.541176 0.368627 0.141176 0.541176 0.368627 
0.141176 0.541176 0.368627 0.141176 0.541176 0.368627 
0.141176 0.541176 0.368627 0.141176 0.541176 0.368627 
0.141176 0.541176 0.368627 0.141176 0.541176 0.368627 
0.141176 0.541176 0.368627 0.141176 0.541176 0.368627 
0.141176 0.541176 0.368627 0.141176 0.541176 0.368627 
0.141176 0.541176 0.368627 0.141176 0.541176 0.368627 
0.141176 0.541176 0.368627 
NORMALS Normals float
0.0877364 -0.720791 -0.687578 0.123633 -0.427085 -0.89572 0.391438 -0.345269 -0.852975 
0.240729 -0.663285 -0.708592 0.475172 -0.752656 -0.455764 0.00224773 -0.491742 -0.870738 
0.0680147 -0.0697445 -0.995244 0.237168 0.0331336 -0.970903 0.662831 0.0548613 -0.746756 
0.773572 -0.218991 -0.594667 -0.0971491 -0.291105 -0.951746 -0.035737 0.226374 -0.973385 
0.0807877 0.254008 -0.963822 0.505279 0.427682 -0.749521 0.139595 0.0978456 -0.985363 
-0.298657 -0.166421 -0.939738 -0.0832373 -0.189338 -0.978377 0.189551 0.111942 -0.975469 
-0.531825 0.139611 -0.835267 -0.118695 0.150041 -0.981529 -0.29042 0.270935 -0.917742 
0.182675 0.340482 -0.922335 -0.496713 0.387554 -0.776581 -0.123807 0.365262 -0.922635 
0.0877716 0.451179 -0.888107 -0.359219 0.532797 -0.766217 -0.0416842 -0.849901 -0.525291 
-0.0833479 -0.776097 -0.625081 0.0696369 -0.862888 -0.500574 0.861093 -0.190064 -0.471587 
-0.26785 -0.38878 -0.881536 0.90086 -0.166959 -0.400719 -0.0857011 -0.0696694 -0.993882 
-0.254978 -0.383622 -0.887592 0.279452 0.46148 -0.841987 0.762322 0.149048 -0.629802 
-0.51669 -0.429843 -0.74045 -0.591856 -0.300269 -0.748028 0.0908737 -0.0317744 -0.995355 
0.298395 0.311302 -0.902248 -0.710134 -0.0139015 -0.703929 -0.813603 0.304464 -0.49533 
0.461583 0.359064 -0.81118 0.359273 0.530369 -0.767875 -0.510959 0.591041 -0.624172 
-0.670424 0.631971 -0.388772 -0.140115 0.704686 -0.695547 0.185049 0.662589 -0.725764 
-0.329545 0.799489 -0.502213 -0.46604 -0.712232 -0.524911 0.402141 -0.889886 -0.215374 
-0.182391 -0.74507 -0.641564 0.788187 -0.57888 -0.208948 0.896264 -0.293573 -0.332453 
-0.603216 -0.659249 -0.44891 -0.398333 -0.490948 -0.774791 0.791704 0.0829385 -0.605249 
-0.677226 -0.578113 -0.455137 -0.840841 -0.477635 -0.254661 -0.620698 -0.585014 -0.522009 
0.166199 0.500263 -0.849773 0.197258 0.660887 -0.724098 0.421573 0.541421 -0.72742 
0.712159 0.254108 -0.654415 -0.576081 -0.320196 -0.752067 -0.927127 -0.174875 -0.331442 
-0.650311 0.0729148 -0.756161 -0.864125 0.106622 -0.491854 -0.433635 0.832977 -0.343672 
-0.107549 0.803296 -0.585788 -0.0619066 0.880752 -0.469514 -0.505953 -0.845161 -0.172378 
-0.205442 -0.940983 -0.268968 -0.0691142 -0.981091 -0.180783 0.155125 -0.956017 -0.248933 
0.867791 -0.41159 -0.278446 -0.715477 -0.681588 -0.153394 0.900379 -0.264778 -0.345267 
0.880513 -0.0383984 -0.472464 0.906294 -0.0429988 -0.420456 -0.816244 -0.558883 -0.146274 
0.60887 0.498044 -0.617439 0.439075 0.365077 -0.820934 -0.799281 0.548847 -0.244779 
-0.70996 0.672329 -0.209595 0.151175 0.837173 -0.52563 0.306179 0.750791 -0.585293 
-0.340591 -0.931239 -0.129586 -0.1144 -0.983441 -0.140557 0.160398 -0.983624 -0.0821915 
-0.661477 -0.745071 -0.0855453 0.848099 -0.508451 -0.149017 0.888152 -0.418903 -0.188961 
-0.784413 -0.616466 0.0683071 0.578762 0.363153 -0.730174 0.675498 0.259261 -0.69028 
-0.90072 0.414989 -0.128401 -0.0455839 0.882644 -0.467826 0.640577 -0.766586 -0.0448065 
0.865014 0.0790699 -0.495478 -0.992407 -0.077059 -0.0958667 0.708194 0.335807 -0.621044 
-0.755793 0.654345 -0.0246753 0.568016 0.657371 -0.495199 0.374195 0.773162 -0.512054 
-0.397035 0.88961 -0.225735 0.313196 0.850906 -0.421742 -0.0487768 0.940605 -0.335981 
-0.573249 -0.814558 0.0887691 -0.421032 -0.90375 0.0772458 0.261563 -0.959851 0.101341 
0.718727 -0.694004 0.0422977 0.896496 -0.430943 -0.102878 0.892395 -0.430499 -0.135285 
-0.860065 -0.47584 0.184023 0.950041 -0.180995 -0.254289 0.924643 -0.131163 -0.357535 
0.918254 -0.0772997 -0.388374 -0.944746 -0.321301 -0.0649674 -0.901874 -0.347995 0.255974 
-0.993363 0.0595029 0.0984364 0.434639 0.58597 -0.683906 0.577719 0.425754 -0.696401 
-0.453106 0.889118 -0.0645309 0.388255 0.846408 -0.364487 0.226218 0.941171 -0.251041 
-0.644977 -0.701866 0.302304 -0.784168 -0.503217 0.363116 0.509626 0.52491 -0.681726 
0.69318 0.28914 -0.660227 0.851497 0.340824 -0.398487 0.526529 0.645708 -0.553018 
-0.235645 0.97111 -0.0376501 -0.305296 -0.929796 0.205606 -0.0141098 -0.978818 0.204246 
0.675936 -0.722559 0.14498 0.939999 -0.303489 -0.155874 -0.844305 -0.151954 0.513866 
-0.943253 0.223183 0.245894 0.837914 0.0478616 -0.5437 -0.852474 0.471137 0.226535 
0.301295 0.868757 -0.393042 0.262762 0.758354 -0.596536 0.711358 0.597499 -0.370087 
0.418333 0.811823 -0.407359 -0.149771 0.986947 0.0591917 0.365228 0.923349 -0.118472 
0.152662 0.98656 -0.0582554 -0.288607 -0.855708 0.4295 0.884889 -0.465178 -0.0241121 
-0.783229 -0.436914 0.442333 -0.844873 0.105437 0.524474 0.982627 0.0280145 -0.183467 
0.959689 0.253053 -0.122318 0.766048 0.634137 -0.105075 -0.813631 0.466486 0.346979 
0.380089 0.918455 -0.109415 0.244979 0.969322 0.019983 -0.67088 0.64195 0.371241 
0.494058 0.869312 -0.0142515 -0.641751 0.738822 0.205665 -0.18991 0.961684 0.197732 
-0.00519657 0.962625 0.270789 0.327819 0.933716 0.143906 0.142009 -0.916195 0.374727 
0.457635 -0.84176 0.286373 -0.634174 -0.441169 0.634975 0.851004 -0.479563 0.214038 
-0.774899 -0.360645 0.519103 -0.688679 -0.243127 0.683089 -0.703191 -0.239479 0.669456 
0.958568 -0.210331 0.192115 0.993941 0.105625 0.030408 0.211493 0.906738 0.364825 
0.16834 0.899525 0.403134 -0.460619 0.853877 0.24233 0.0144252 0.970663 0.240013 
0.246843 0.894271 0.373294 0.276889 0.897837 0.342376 -0.0861972 0.77511 0.625919 
0.179066 -0.812224 0.555182 0.331265 -0.803843 0.494064 0.717942 -0.62279 0.310952 
0.860481 -0.407634 0.305627 -0.49737 -0.00557134 0.867521 0.959341 0.210805 0.187688 
0.0596658 0.797884 0.599851 -0.153436 0.696962 0.700501 -0.0360537 0.771913 0.634706 
0.0253872 0.773525 0.633257 0.797025 0.599748 0.071087 0.832589 0.510107 0.215841 
-0.0460374 0.988505 0.144005 0.337133 0.93702 -0.0913 -0.661793 0.418419 0.622057 
0.382515 0.81528 0.434742 0.412155 0.903723 0.115815 0.535587 -0.697787 0.475647 
0.670574 -0.534724 0.514199 0.660223 -0.440339 0.608447 -0.262088 0.407401 0.874834 
-0.197317 0.584186 0.787269 0.870991 -0.266705 0.412605 0.82573 0.399533 0.398175 