# vtk DataFile Version 4.2
vtk output
ASCII
DATASET POLYDATA
POINTS 1154 float
347.905 251.024 113.315 347.878 250.918 113.332 347.795 250.991 113.358 
348.073 251.016 113.319 347.898 251.161 113.431 348.581 251.745 113.502 
348.908 251.805 113.412 349.141 251.919 113.442 349.106 251.651 113.368 
350.282 249.381 113.586 347.255 249.774 113.644 348.125 250.699 113.365 
350.722 249.735 113.514 351.95 249.975 113.683 346.268 250.304 114.021 
346.125 250.05 114.075 347.528 250.85 113.524 349.606 251.302 113.374 
352.31 250.352 113.687 353.251 250.629 114.039 350.376 251.891 113.549 
352.932 251.631 113.927 353.482 250.976 114.142 349.26 252.384 113.799 
350.995 252.596 113.859 353.402 252.159 114.278 352.565 253.194 114.282 
353.077 254.037 114.775 353.377 254.193 115.077 347.545 248.017 114.306 
349.253 248.117 114.203 351.61 248.068 114.885 352.671 248.928 114.695 
353.518 249.274 115.15 353.744 249.568 115.201 346.006 249.638 114.223 
353.081 250.076 114.172 353.568 250.049 114.599 353.851 249.984 115.044 
345.135 249.687 114.768 347.152 251.745 114.161 351.104 253.689 114.51 
350.88 253.913 114.789 352.668 254.526 115.085 354.207 253.647 115.554 
353.953 254.293 115.593 353.782 254.903 115.903 349.033 246.348 115.803 
346.789 246.778 115.428 346.503 247.013 115.292 351.656 247.784 115.31 
352.109 247.937 115.528 344.977 249.243 115.009 354.076 250.343 115.36 
346.135 251.771 114.835 354.376 251.709 115.589 354.466 253.278 115.932 
353.017 255.086 115.832 354.31 254.88 116.266 356.009 257.004 115.013 
356.009 257.004 115.013 356.009 257.004 115.013 356.009 257.004 115.013 
356.009 257.004 115.013 308.697 241.531 117.723 308.674 241.307 117.744 
308.569 241.765 117.685 306.985 243.098 117.503 307.016 242.765 117.463 
307.319 243.143 117.58 308.454 242.105 117.769 306.492 242.983 117.552 
306.776 243.427 117.638 307.459 243.42 117.796 307.173 243.723 117.886 
346.103 246.186 116.734 347.582 246.425 115.643 347.548 246.212 116.081 
348.641 246.108 116.379 345.465 246.852 116.058 351.846 247.579 116.181 
344.619 247.827 115.898 352.712 248.311 116.566 343.346 250.752 116.511 
354.541 251.977 116.263 343.882 251.847 116.628 354.616 253.607 116.615 
354.583 254.541 116.752 354.566 254.987 116.493 354.547 255.114 116.428 
354.608 255.128 116.493 353.76 255.468 116.915 354.447 255.206 116.522 
354.583 255.171 116.499 356.009 257.004 115.013 354.325 255.333 116.623 
308.386 239.822 118.405 308.618 240.89 117.911 309.524 240.207 118.644 
309.237 240.899 118.275 309.142 241.438 118.135 306.181 242.358 117.743 
305.678 242.768 117.985 306.664 244.123 118.248 345.477 246.371 116.767 
306.826 244.383 118.609 307.296 244.183 118.497 342.08 249.604 117.667 
354.591 252.169 117.018 344.988 252.767 116.681 348.432 254.372 116.751 
354.655 254.59 117.547 354.559 255.084 116.653 354.512 255.005 117.139 
353.274 255.811 117.806 354.194 255.333 117.402 353.582 255.72 117.832 
309.337 239.269 118.934 309.641 239.217 119.2 307.105 240.698 118.115 
309.492 241.834 118.709 304.974 242.511 118.517 305.13 243.424 118.738 
305.781 244.447 119.081 307.862 244.004 118.754 342.155 248.984 117.85 
354.153 250.633 117.691 340.723 250.981 118.953 341.738 252.067 118.494 
346.147 253.828 117.394 354.608 254.137 118.185 354.687 254.791 117.794 
354.698 254.776 117.916 354.509 254.986 117.748 354.66 254.848 117.884 
352.283 255.869 118.56 352.959 255.86 118.064 309.516 238.707 119.686 
310.092 238.672 120.052 310.312 238.484 120.467 310.277 239.635 119.648 
304.94 240.025 119.634 310.18 240.209 119.435 304.214 241.356 119.404 
303.748 242.431 119.797 309.811 242.328 119.655 344.448 246.086 118.878 
343.965 246.287 118.646 307.092 245.05 119.966 343.612 246.452 118.778 
341.981 248.278 118.654 352.76 249.114 119.48 339.768 251.037 120.025 
339.697 251.617 120.168 354.428 253.966 118.966 354.577 254.741 118.1 
354.177 254.912 118.835 352.726 255.709 119.247 309.821 237.805 121.233 
310.228 238.154 120.926 310.777 238.994 120.675 310.904 239.338 120.75 
310.558 240.906 120.262 303.326 241.451 120.311 308.552 244.259 120.006 
305.637 245.123 120.48 306.165 245.271 120.513 342.272 247.408 119.368 
339.301 250.514 120.739 354.299 252.874 119.399 340.663 253.049 120.135 
343.171 253.856 119.365 346.109 255.086 119.573 354.072 254.757 119.296 
353.843 254.759 119.795 348.413 255.847 119.754 353.371 255.182 119.837 
309.841 237.515 121.896 311.044 238.528 121.545 310.769 238.187 121.555 
302.534 240.623 121.633 302.247 242.768 121.805 302.428 243.315 121.901 
344.23 246.063 120.234 345.083 246.089 120.881 306.969 245.527 121.63 
337.755 252.158 122.076 347.878 256.086 121.079 351.717 255.545 121.133 
349.106 256.103 121.511 307.512 237.296 122.112 310.497 237.553 122.516 
311.593 238.719 122.69 301.863 241.513 122.153 343.383 246.368 120.489 
351.307 249.105 121.819 352.657 250.754 121.73 337.371 251.296 122.569 
353.336 253.8 121.323 337.99 253.239 122.313 338.879 253.944 122.245 
352.846 254.285 121.586 352.679 254.741 121.331 346.944 256.157 121.932 
311.223 237.771 123.27 303.042 244.717 122.812 303.474 245.177 123.182 
306.321 246.219 123.998 306.956 246.021 123.498 337.551 249.864 123.638 
337.214 250.412 123.395 337.092 251.04 123.023 336.427 251.224 123.533 
335.593 252.455 123.762 336.824 253.933 123.55 339.306 254.613 122.736 
348.799 255.924 122.933 310.636 236.962 124.317 311.876 237.93 124.27 
312.454 238.627 124.768 300.757 242.29 123.788 300.86 242.82 123.908 
301.894 244.395 124.085 304.206 245.957 124.506 305.68 246.217 124.183 
307.159 246.075 124.075 336.105 250.908 124.043 352.059 252.025 123.031 
334.008 253.162 124.797 333.466 253.466 125.155 342.415 255.99 123.649 
349.904 255.131 123.424 344.14 256.168 123.626 348.514 255.646 123.682 
309.734 236.377 125.166 312.179 237.643 125.328 312.269 240.378 124.922 
299.777 241.489 125.145 300.942 243.727 124.633 309.146 244.944 124.501 
308.215 245.69 124.782 342.092 246.964 123.447 340.33 247.674 124.177 
342.92 247.077 124.717 346.665 248.136 125.014 349.233 249.456 124.425 
337.11 249.068 125.409 335.549 250.763 124.64 350.392 251.822 124.483 
333.64 251.739 125.235 348.959 254.229 124.781 347.062 255.392 124.91 
347.896 254.95 124.876 342.928 256.203 124.614 344.342 256.128 124.642 
313.527 238.016 127.177 313.32 238.718 126.523 313.627 238.435 127.073 
299.968 239.821 125.887 299.373 242.133 126.042 307.326 246.253 125.717 
342.989 247.484 125.997 349.473 250.658 124.94 348.834 252.509 125.618 
329.349 253.502 127.12 345.043 255.764 125.442 314.042 239.117 127.739 
298.804 241.192 127.232 312.286 241.812 126.817 299.213 242.317 126.598 
338.84 247.888 126.529 336.781 248.704 126.523 347.24 249.754 126.206 
347.503 251.75 126.582 347.009 252.488 126.768 327.866 252.899 127.716 
327.234 252.721 127.995 328.723 252.647 127.363 326.738 252.988 128.22 
326.616 253.381 128.35 345.431 254.015 126.993 329.653 254.277 127.302 
344.065 254.966 127.02 300.825 237.738 128.648 298.8 241.36 127.345 
299.583 243.633 127.369 300.492 244.956 128.215 304.773 246.697 127.898 
331.295 250.286 127.633 346.632 250.439 126.966 325.849 252.339 128.728 
334.285 256.481 127.883 337.429 256.51 128.077 339.04 256.254 128.111 
312.655 236.323 128.756 300.168 238.403 129.104 299.2 239.865 129.393 
298.737 241.424 128.594 311.744 243.863 129.41 303.444 246.564 128.961 
339.896 247.866 127.853 340.098 248.147 128.514 336.043 248.346 128.544 
325.687 251.906 128.981 343.227 252.412 128.893 327.153 255.35 129.321 
338.824 255.786 129.082 333.994 256.929 129.076 315.499 238.156 130.151 
315.537 238.164 130.248 315.602 238.691 130.445 315.532 238.262 130.234 
299.127 240.368 130.414 299.012 243.466 130.106 299.712 244.559 129.543 
305.948 246.86 129.933 307.402 246.545 129.576 331.785 248.745 129.659 
341.71 249.31 129.226 342.586 250.189 129.252 342.496 250.695 129.453 
322.029 252.64 130.973 323.576 254.264 130.506 339.581 254.202 130.122 
303.26 235.357 131.054 303.138 235.405 131.731 313.91 236.781 130.559 
315.507 238.206 130.439 315.542 238.275 131.155 315.968 239.001 131.493 
315.631 240.14 130.493 315.802 240.88 130.994 315.887 241.421 131.352 
299.043 243.766 131.172 299.494 244.56 130.965 335.883 248.406 130.433 
336.916 248.744 130.862 322.656 254.211 131.148 305.434 233.353 132.987 
303.106 235.468 132.587 314.561 237.168 131.79 316.72 240.196 132.43 
316.541 241.085 131.997 298.873 243.051 132.454 330.05 248.007 131.679 
328.677 248.063 131.665 332.232 248.216 131.93 334.55 248.518 131.464 
337.288 249.479 131.522 339.567 250.461 130.948 320.785 250.95 132.424 
320.337 251.534 132.916 322.008 254.708 132.188 333.723 256.345 131.741 
332.831 256.811 131.526 331.232 257.2 131.923 304.847 233.741 133.183 
316.345 239.207 133.241 317.041 240.715 133.343 316.592 241.786 132.322 
299.282 244.178 132.955 310.877 245.432 132.463 306.515 246.604 132.231 
327.222 247.937 132.287 328.915 247.881 132.12 329.813 247.826 132.681 
330.097 247.871 132.952 304.113 246.658 132.357 322.274 248.413 132.945 
334.641 249.255 132.634 335.773 250.11 132.633 320.027 250.713 133.553 
321.238 254.065 132.544 334.273 255.481 132.272 306.336 233.278 133.91 
304.519 234.24 134.011 302.902 236.008 133.775 301.962 237.078 133.509 
312.851 236.255 133.404 316.847 240.156 133.95 317.26 242.355 133.369 
316.648 242.993 133.012 318.375 242.987 134.659 315.321 243.788 132.822 
316.917 243.801 133.559 318.094 243.875 134.117 299.557 244.436 133.497 
300.503 245.264 133.645 312.707 245.004 133.671 325.486 247.276 133.775 
311.236 245.385 133.564 323.164 246.885 134.297 327.694 247.645 133.4 
320.261 247.921 133.964 329.888 248.079 133.809 332.017 248.884 133.733 
333.34 249.68 133.733 319.588 248.809 134.466 321.479 255.413 134.231 
324.167 257.147 134.057 326.584 257.592 134.277 327.418 257.614 134.03 
306.275 233.298 134.286 305.981 233.336 134.377 306.334 233.425 134.656 
303.849 235.278 134.56 300.527 239.875 134.705 316.487 239.807 134.785 
299.324 243.906 134.14 315.993 245.022 134.451 317.328 245.037 134.351 
[...]
POINT_DATA 1154
COLOR_SCALARS scalars 3
0.592157 0.92549 0.576471 0.592157 0.92549 0.576471 0.592157 0.92549 0.576471 
0.592157 0.92549 0.576471 0.592157 0.92549 0.576471 
0.592157 0.92549 0.576471 0.592157 0.92549 0.576471 
0.592157 0.92549 0.576471 0.592157 0.92549 0.576471 
0.592157 0.92549 0.576471 0.592157 0.92549 0.576471 
0.592157 0.92549 0.576471 0.592157 0.92549 0.576471 
0.592157 0.92549 0.576471 0.592157 0.92549 0.576471 
0.592157 0.92549 0.576471 0.592157 0.92549 0.576471 
0.592157 0.92549 0.576471 0.592157 0.92549 0.576471 
0.592157 0.92549 0.576471 0.592157 0.92549 0.576471 
0.592157 0.92549 0.576471 0.592157 0.92549 0.576471 
0.592157 0.92549 0.576471 0.592157 0.92549 0.576471 
0.592157 0.92549 0.576471 0.592157 0.92549 0.576471 
0.592157 0.92549 0.576471 0.592157 0.92549 0.576471 
0.592157 0.92549 0.576471 0.592157 0.92549 0.576471 
0.592157 0.92549 0.576471 0.592157 0.92549 0.576471 
0.592157 0.92549 0.576471 0.592157 0.92549 0.576471 
0.592157 0.92549 0.576471 0.592157 0.92549 0.576471 
0.592157 0.92549 0.576471 0.592157 0.92549 0.576471 
0.592157 0.92549 0.576471 0.592157 0.92549 0.576471 
0.592157 0.92549 0.576471 0.592157 0.92549 0.576471 
0.592157 0.92549 0.576471 0.592157 0.92549 0.576471 
0.592157 0.92549 0.576471 0.592157 0.92549 0.576471 
0.592157 0.92549 0.576471 0.592157 0.92549 0.576471 
0.592157 0.92549 0.576471 0.592157 0.92549 0.576471 
0.592157 0.92549 0.576471 0.592157 0.92549 0.576471 
0.592157 0.92549 0.576471 0.592157 0.92549 0.576471 
0.592157 0.92549 0.576471 0.592157 0.92549 0.576471 
0.592157 0.92549 0.576471 0.592157 0.92549 0.576471 
0.592157 0.92549 0.576471 0.592157 0.92549 0.576471 
0.592157 0.92549 0.576471 0.592157 0.92549 0.576471 
0.592157 0.92549 0.576471 0.592157 0.92549 0.576471 
0.592157 0.92549 0.576471 0.592157 0.92549 0.576471 
0.592157 0.92549 0.576471 0.592157 0.92549 0.576471 
0.592157 0.92549 0.576471 0.592157 0.92549 0.576471 
0.592157 0.92549 0.576471 0.592157 0.92549 0.576471 
0.592157 0.92549 0.576471 0.592157 0.92549 0.576471 
0.592157 0.92549 0.576471 0.592157 0.92549 0.576471 
0.592157 0.92549 0.576471 0.592157 0.92549 0.576471 
0.592157 0.92549 0.576471 0.592157 0.92549 0.576471 
0.592157 0.92549 0.576471 0.592157 0.92549 0.576471 
0.592157 0.92549 0.576471 0.592157 0.92549 0.576471 
0.592157 0.92549 0.576471 0.592157 0.92549 0.576471 
0.592157 0.92549 0.576471 0.592157 0.92549 0.576471 
0.592157 0.92549 0.576471 0.592157 0.92549 0.576471 
0.592157 0.92549 0.576471 0.592157 0.92549 0.576471 
0.592157 0.92549 0.576471 0.592157 0.92549 0.576471 
0.592157 0.92549 0.576471 0.592157 0.92549 0.576471 
0.592157 0.92549 0.576471 0.592157 0.92549 0.576471 
0.592157 0.92549 0.576471 0.592157 0.92549 0.576471 
0.592157 0.92549 0.576471 0.592157 0.92549 0.576471 
0.592157 0.92549 0.576471 0.592157 0.92549 0.576471 
0.592157 0.92549 0.576471 0.592157 0.92549 0.576471 
0.592157 0.92549 0.576471 0.592157 0.92549 0.576471 
0.592157 0.92549 0.576471 0.592157 0.92549 0.576471 
0.592157 0.92549 0.576471 0.592157 0.92549 0.576471 
0.592157 0.92549 0.576471 0.592157 0.92549 0.576471 
0.592157 0.92549 0.576471 0.592157 0.92549 0.576471 
0.592157 0.92549 0.576471 0.592157 0.92549 0.576471 
0.592157 0.92549 0.576471 0.592157 0.92549 0.576471 
0.592157 0.92549 0.576471 0.592157 0.92549 0.576471 
0.592157 0.92549 0.576471 0.592157 0.92549 0.576471 
0.592157 0.92549 0.576471 0.592157 0.92549 0.576471 
0.592157 0.92549 0.576471 0.592157 0.92549 0.576471 
0.592157 0.92549 0.576471 0.592157 0.92549 0.576471 
0.592157 0.92549 0.576471 0.592157 0.92549 0.576471 
0.592157 0.92549 0.576471 0.592157 0.92549 0.576471 
0.592157 0.92549 0.576471 0.592157 0.92549 0.576471 
0.592157 0.92549 0.576471 0.592157 0.92549 0.576471 
0.592157 0.92549 0.576471 0.592157 0.92549 0.576471 
0.592157 0.92549 0.576471 0.592157 0.92549 0.576471 
0.592157 0.92549 0.576471 0.592157 0.92549 0.576471 
0.592157 0.92549 0.576471 0.592157 0.92549 0.576471 
0.592157 0.92549 0.576471 0.592157 0.92549 0.576471 
0.592157 0.92549 0.576471 0.592157 0.92549 0.576471 
0.592157 0.92549 0.576471 0.592157 0.92549 0.576471 
0.592157 0.92549 0.576471 0.592157 0.92549 0.576471 
0.592157 0.92549 0.576471 0.592157 0.92549 0.576471 
0.592157 0.92549 0.576471 0.592157 0.92549 0.576471 
0.592157 0.92549 0.576471 0.592157 0.92549 0.576471 
0.592157 0.92549 0.576471 0.592157 0.92549 0.576471 
0.592157 0.92549 0.576471 0.592157 0.92549 0.576471 
0.592157 0.92549 0.576471 0.592157 0.92549 0.576471 
0.592157 0.92549 0.576471 0.592157 0.92549 0.576471 
0.592157 0.92549 0.576471 0.592157 0.92549 0.576471 
0.592157 0.92549 0.576471 0.592157 0.92549 0.576471 
0.592157 0.92549 0.576471 0.592157 0.92549 0.576471 
0.592157 0.92549 0.576471 0.592157 0.92549 0.576471 
0.592157 0.92549 0.576471 0.592157 0.92549 0.576471 
0.592157 0.92549 0.576471 0.592157 0.92549 0.576471 
0.592157 0.92549 0.576471 0.592157 0.92549 0.576471 
0.592157 0.92549 0.576471 0.592157 0.92549 0.576471 
0.592157 0.92549 0.576471 0.592157 0.92549 0.576471 
0.592157 0.92549 0.576471 0.592157 0.92549 0.576471 
0.592157 0.92549 0.576471 0.592157 0.92549 0.576471 
0.592157 0.92549 0.576471 0.592157 0.92549 0.576471 
0.592157 0.92549 0.576471 0.592157 0.92549 0.576471 
0.592157 0.92549 0.576471 0.592157 0.92549 0.576471 
0.592157 0.92549 0.576471 0.592157 0.92549 0.576471 
0.592157 0.92549 0.576471 0.592157 0.92549 0.576471 
0.592157 0.92549 0.576471 0.592157 0.92549 0.576471 
0.592157 0.92549 0.576471 0.592157 0.92549 0.576471 
0.592157 0.92549 0.576471 0.592157 0.92549 0.576471 
0.592157 0.92549 0.576471 0.592157 0.92549 0.576471 
0.592157 0.92549 0.576471 0.592157 0.92549 0.576471 
0.592157 0.92549 0.576471 0.592157 0.92549 0.576471 
0.592157 0.92549 0.576471 0.592157 0.92549 0.576471 
0.592157 0.92549 0.576471 0.592157 0.92549 0.576471 
0.592157 0.92549 0.576471 0.592157 0.92549 0.576471 
0.592157 0.92549 0.576471 0.592157 0.92549 0.576471 
0.592157 0.92549 0.576471 0.592157 0.92549 0.576471 
0.592157 0.92549 0.576471 0.592157 0.92549 0.576471 
0.592157 0.92549 0.576471 0.592157 0.92549 0.576471 
0.592157 0.92549 0.576471 0.592157 0.92549 0.576471 
0.592157 0.92549 0.576471 0.592157 0.92549 0.576471 
0.592157 0.92549 0.576471 0.592157 0.92549 0.576471 
0.592157 0.92549 0.576471 0.592157 0.92549 0.576471 
0.592157 0.92549 0.576471 0.592157 0.92549 0.576471 
0.592157 0.92549 0.576471 0.592157 0.92549 0.576471 
0.592157 0.92549 0.576471 0.592157 0.92549 0.576471 
0.592157 0.92549 0.576471 0.592157 0.92549 0.576471 
0.592157 0.92549 0.576471 0.592157 0.92549 0.576471 
0.592157 0.92549 0.576471 0.592157 0.92549 0.576471 
0.592157 0.92549 0.576471 0.592157 0.92549 0.576471 
0.592157 0.92549 0.576471 0.592157 0.92549 0.576471 
0.592157 0.92549 0.576471 0.592157 0.92549 0.576471 
0.592157 0.92549 0.576471 0.592157 0.92549 0.576471 
0.592157 0.92549 0.576471 0.592157 0.92549 0.576471 
0.592157 0.92549 0.576471 0.592157 0.92549 0.576471 
0.592157 0.92549 0.576471 0.592157 0.92549 0.576471 
0.592157 0.92549 0.576471 0.592157 0.92549 0.576471 
0.592157 0.92549 0.576471 0.592157 0.92549 0.576471 
0.592157 0.92549 0.576471 0.592157 0.92549 0.576471 
0.592157 0.92549 0.576471 0.592157 0.92549 0.576471 
0.592157 0.92549 0.576471 0.592157 0.92549 0.576471 
0.592157 0.92549 0.576471 0.592157 0.92549 0.576471 
0.592157 0.92549 0.576471 0.592157 0.92549 0.576471 
0.592157 0.92549 0.576471 0.592157 0.92549 0.576471 
0.592157 0.92549 0.576471 0.592157 0.92549 0.576471 
0.592157 0.92549 0.576471 0.592157 0.92549 0.576471 
0.592157 0.92549 0.576471 0.592157 0.92549 0.576471 
0.592157 0.92549 0.576471 0.592157 0.92549 0.576471 
0.592157 0.92549 0.576471 0.592157 0.92549 0.576471 
0.592157 0.92549 0.576471 0.592157 0.92549 0.576471 
0.592157 0.92549 0.576471 0.592157 0.92549 0.576471 
0.592157 0.92549 0.576471 0.592157 0.92549 0.576471 
0.592157 0.92549 0.576471 0.592157 0.92549 0.576471 
0.592157 0.92549 0.576471 0.592157 0.92549 0.576471 
0.592157 0.92549 0.576471 0.592157 0.92549 0.576471 
0.592157 0.92549 0.576471 0.592157 0.92549 0.576471 
0.592157 0.92549 0.576471 0.592157 0.92549 0.576471 
0.592157 0.92549 0.576471 0.592157 0.92549 0.576471 
0.592157 0.92549 0.576471 0.592157 0.92549 0.576471 
0.592157 0.92549 0.576471 0.592157 0.92549 0.576471 
0.592157 0.92549 0.576471 0.592157 0.92549 0.576471 
0.592157 0.92549 0.576471 0.592157 0.92549 0.576471 
0.592157 0.92549 0.576471 0.592157 0.92549 0.576471 
0.592157 0.92549 0.576471 0.592157 0.92549 0.576471 
0.592157 0.92549 0.576471 0.592157 0.92549 0.576471 
0.592157 0.92549 0.576471 0.592157 0.92549 0.576471 
0.592157 0.92549 0.576471 0.592157 0.92549 0.576471 
0.592157 0.92549 0.576471 0.592157 0.92549 0.576471 
0.592157 0.92549 0.576471 0.592157 0.92549 0.576471 
0.592157 0.92549 0.576471 0.592157 0.92549 0.576471 
0.592157 0.92549 0.576471 0.592157 0.92549 0.576471 
0.592157 0.92549 0.576471 0.592157 0.92549 0.576471 
0.592157 0.92549 0.576471 0.592157 0.92549 0.576471 
0.592157 0.92549 0.576471 0.592157 0.92549 0.576471 
0.592157 0.92549 0.576471 0.592157 0.92549 0.576471 
0.592157 0.92549 0.576471 0.592157 0.92549 0.576471 
0.592157 0.92549 0.576471 0.592157 0.92549 0.576471 
0.592157 0.92549 0.576471 0.592157 0.92549 0.576471 
0.592157 0.92549 0.576471 0.592157 0.92549 0.576471 
0.592157 0.92549 0.576471 0.592157 0.92549 0.576471 
0.592157 0.92549 0.576471 0.592157 0.92549 0.576471 
0.592157 0.92549 0.576471 0.592157 0.92549 0.576471 
0.592157 0.92549 0.576471 0.592157 0.92549 0.576471 
0.592157 0.92549 0.576471 0.592157 0.92549 0.576471 
0.592157 0.92549 0.576471 0.592157 0.92549 0.576471 
0.592157 0.92549 0.576471 0.592157 0.92549 0.576471 
0.592157 0.92549 0.576471 0.592157 0.92549 0.576471 
0.592157 0.92549 0.576471 0.592157 0.92549 0.576471 
0.592157 0.92549 0.576471 0.592157 0.92549 0.576471 
0.592157 0.92549 0.576471 0.592157 0.92549 0.576471 
0.592157 0.92549 0.576471 0.592157 0.92549 0.576471 
0.592157 0.92549 0.576471 0.592157 0.92549 0.576471 
0.592157 0.92549 0.576471 0.592157 0.92549 0.576471 
0.592157 0.92549 0.576471 0.592157 0.92549 0.576471 
0.592157 0.92549 0.576471 0.592157 0.92549 0.576471 
0.592157 0.92549 0.576471 0.592157 0.92549 0.576471 
0.592157 0.92549 0.576471 0.592157 0.92549 0.576471 
0.592157 0.92549 0.576471 0.592157 0.92549 0.576471 
0.592157 0.92549 0.576471 0.592157 0.92549 0.576471 
0.592157 0.92549 0.576471 0.592157 0.92549 0.576471 
0.592157 0.92549 0.576471 0.592157 0.92549 0.576471 
0.592157 0.92549 0.576471 0.592157 0.92549 0.576471 
0.592157 0.92549 0.576471 0.592157 0.92549 0.576471 
0.592157 0.92549 0.576471 0.592157 0.92549 0.576471 
0.592157 0.92549 0.576471 0.592157 0.92549 0.576471 
0.592157 0.92549 0.576471 0.592157 0.92549 0.576471 
0.592157 0.92549 0.576471 0.592157 0.92549 0.576471 
0.592157 0.92549 0.576471 0.592157 0.92549 0.576471 
0.592157 0.92549 0.576471 0.592157 0.92549 0.576471 
0.592157 0.92549 0.576471 0.592157 0.92549 0.576471 
0.592157 0.92549 0.576471 0.592157 0.92549 0.576471 
0.592157 0.92549 0.576471 0.592157 0.92549 0.576471 
0.592157 0.92549 0.576471 0.592157 0.92549 0.576471 
0.592157 0.92549 0.576471 0.592157 0.92549 0.576471 
0.592157 0.92549 0.576471 0.592157 0.92549 0.576471 
0.592157 0.92549 0.576471 0.592157 0.92549 0.576471 
0.592157 0.92549 0.576471 0.592157 0.92549 0.576471 
0.592157 0.92549 0.576471 0.592157 0.92549 0.576471 
0.592157 0.92549 0.576471 0.592157 0.92549 0.576471 
0.592157 0.92549 0.576471 0.592157 0.92549 0.576471 
0.592157 0.92549 0.576471 0.592157 0.92549 0.576471 
0.592157 0.92549 0.576471 0.592157 0.92549 0.576471 
0.592157 0.92549 0.576471 0.592157 0.92549 0.576471 
0.592157 0.92549 0.576471 0.592157 0.92549 0.576471 
0.592157 0.92549 0.576471 0.592157 0.92549 0.576471 
0.592157 0.92549 0.576471 0.592157 0.92549 0.576471 
0.592157 0.92549 0.576471 0.592157 0.92549 0.576471 
0.592157 0.92549 0.576471 0.592157 0.92549 0.576471 
0.592157 0.92549 0.576471 0.592157 0.92549 0.576471 
0.592157 0.92549 0.576471 0.592157 0.92549 0.576471 
0.592157 0.92549 0.576471 0.592157 0.92549 0.576471 
0.592157 0.92549 0.576471 0.592157 0.92549 0.576471 
0.592157 0.92549 0.576471 0.592157 0.92549 0.576471 
0.592157 0.92549 0.576471 0.592157 0.92549 0.576471 
0.592157 0.92549 0.576471 0.592157 0.92549 0.576471 
0.592157 0.92549 0.576471 0.592157 0.92549 0.576471 
0.592157 0.92549 0.576471 0.592157 0.92549 0.576471 
0.592157 0.92549 0.576471 0.592157 0.92549 0.576471 
0.592157 0.92549 0.576471 0.592157 0.92549 0.576471 
0.592157 0.92549 0.576471 0.592157 0.92549 0.576471 
0.592157 0.92549 0.576471 0.592157 0.92549 0.576471 
0.592157 0.92549 0.576471 0.592157 0.92549 0.576471 
0.592157 0.92549 0.576471 0.592157 0.92549 0.576471 
0.592157 0.92549 0.576471 0.592157 0.92549 0.576471 
0.592157 0.92549 0.576471 0.592157 0.92549 0.576471 
0.592157 0.92549 0.576471 0.592157 0.92549 0.576471 
0.592157 0.92549 0.576471 0.592157 0.92549 0.576471 
0.592157 0.92549 0.576471 0.592157 0.92549 0.576471 
0.592157 0.92549 0.576471 0.592157 0.92549 0.576471 
0.592157 0.92549 0.576471 0.592157 0.92549 0.576471 
0.592157 0.92549 0.576471 0.592157 0.92549 0.576471 
0.592157 0.92549 0.576471 0.592157 0.92549 0.576471 
0.592157 0.92549 0.576471 0.592157 0.92549 0.576471 
0.592157 0.92549 0.576471 0.592157 0.92549 0.576471 
0.592157 0.92549 0.576471 0.592157 0.92549 0.576471 
0.592157 0.92549 0.576471 0.592157 0.92549 0.576471 
0.592157 0.92549 0.576471 0.592157 0.92549 0.576471 
0.592157 0.92549 0.576471 0.592157 0.92549 0.576471 
0.592157 0.92549 0.576471 0.592157 0.92549 0.576471 
0.592157 0.92549 0.576471 0.592157 0.92549 0.576471 
0.592157 0.92549 0.576471 0.592157 0.92549 0.576471 
0.592157 0.92549 0.576471 0.592157 0.92549 0.576471 
0.592157 0.92549 0.576471 0.592157 0.92549 0.576471 
0.592157 0.92549 0.576471 0.592157 0.92549 0.576471 
0.592157 0.92549 0.576471 0.592157 0.92549 0.576471 
0.592157 0.92549 0.576471 0.592157 0.92549 0.576471 
0.592157 0.92549 0.576471 0.592157 0.92549 0.576471 
0.592157 0.92549 0.576471 0.592157 0.92549 0.576471 
0.592157 0.92549 0.576471 0.592157 0.92549 0.576471 
0.592157 0.92549 0.576471 0.592157 0.92549 0.576471 
0.592157 0.92549 0.576471 0.592157 0.92549 0.576471 
0.592157 0.92549 0.576471 0.592157 0.92549 0.576471 
0.592157 0.92549 0.576471 0.592157 0.92549 0.576471 
0.592157 0.92549 0.576471 0.592157 0.92549 0.576471 
0.592157 0.92549 0.576471 0.592157 0.92549 0.576471 
0.592157 0.92549 0.576471 0.592157 0.92549 0.576471 
0.592157 0.92549 0.576471 0.592157 0.92549 0.576471 
0.592157 0.92549 0.576471 0.592157 0.92549 0.576471 
0.592157 0.92549 0.576471 0.592157 0.92549 0.576471 
0.592157 0.92549 0.576471 0.592157 0.92549 0.576471 
0.592157 0.92549 0.576471 0.592157 0.92549 0.576471 
0.592157 0.92549 0.576471 0.592157 0.92549 0.576471 
0.592157 0.92549 0.576471 0.592157 0.92549 0.576471 
0.592157 0.92549 0.576471 0.592157 0.92549 0.576471 
0.592157 0.92549 0.576471 0.592157 0.92549 0.576471 
0.592157 0.92549 0.576471 0.592157 0.92549 0.576471 
0.592157 0.92549 0.576471 0.592157 0.92549 0.576471 
0.592157 0.92549 0.576471 0.592157 0.92549 0.576471 
0.592157 0.92549 0.576471 0.592157 0.92549 0.576471 
0.592157 0.92549 0.576471 0.592157 0.92549 0.576471 
0.592157 0.92549 0.576471 0.592157 0.92549 0.576471 
0.592157 0.92549 0.576471 0.592157 0.92549 0.576471 
0.592157 0.92549 0.576471 0.592157 0.92549 0.576471 
0.592157 0.92549 0.576471 0.592157 0.92549 0.576471 
0.592157 0.92549 0.576471 0.592157 0.92549 0.576471 
0.592157 0.92549 0.576471 0.592157 0.92549 0.576471 
0.592157 0.92549 0.576471 0.592157 0.92549 0.576471 
0.592157 0.92549 0.576471 0.592157 0.92549 0.576471 
0.592157 0.92549 0.576471 0.592157 0.92549 0.576471 
0.592157 0.92549 0.576471 0.592157 0.92549 0.576471 
0.592157 0.92549 0.576471 0.592157 0.92549 0.576471 
0.592157 0.92549 0.576471 0.592157 0.92549 0.576471 
0.592157 0.92549 0.576471 0.592157 0.92549 0.576471 
0.592157 0.92549 0.576471 0.592157 0.92549 0.576471 
0.592157 0.92549 0.576471 0.592157 0.92549 0.576471 
0.592157 0.92549 0.576471 0.592157 0.92549 0.576471 
0.592157 0.92549 0.576471 0.592157 0.92549 0.576471 
0.592157 0.92549 0.576471 0.592157 0.92549 0.576471 
0.592157 0.92549 0.576471 0.592157 0.92549 0.576471 
0.592157 0.92549 0.576471 0.592157 0.92549 0.576471 
0.592157 0.92549 0.576471 0.592157 0.92549 0.576471 
0.592157 0.92549 0.576471 0.592157 0.92549 0.576471 
0.592157 0.92549 0.576471 0.592157 0.92549 0.576471 
0.592157 0.92549 0.576471 0.592157 0.92549 0.576471 
0.592157 0.92549 0.576471 0.592157 0.92549 0.576471 
0.592157 0.92549 0.576471 0.592157 0.92549 0.576471 
0.592157 0.92549 0.576471 0.592157 0.92549 0.576471 
0.592157 0.92549 0.576471 0.592157 0.92549 0.576471 
0.592157 0.92549 0.576471 0.592157 0.92549 0.576471 
0.592157 0.92549 0.576471 0.592157 0.92549 0.576471 
0.592157 0.92549 0.576471 0.592157 0.92549 0.576471 
0.592157 0.92549 0.576471 0.592157 0.92549 0.576471 
0.592157 0.92549 0.576471 0.592157 0.92549 0.576471 
0.592157 0.92549 0.576471 0.592157 0.92549 0.576471 
0.592157 0.92549 0.576471 0.592157 0.92549 0.576471 
0.592157 0.92549 0.576471 0.592157 0.92549 0.576471 
0.592157 0.92549 0.576471 0.592157 0.92549 0.576471 
0.592157 0.92549 0.576471 0.592157 0.92549 0.576471 
0.592157 0.92549 0.576471 0.592157 0.92549 0.576471 
0.592157 0.92549 0.576471 0.592157 0.92549 0.576471 
0.592157 0.92549 0.576471 0.592157 0.92549 0.576471 
0.592157 0.92549 0.576471 0.592157 0.92549 0.576471 
0.592157 0.92549 0.576471 0.592157 0.92549 0.576471 
0.592157 0.92549 0.576471 0.592157 0.92549 0.576471 
0.592157 0.92549 0.576471 0.592157 0.92549 0.576471 
0.592157 0.92549 0.576471 0.592157 0.92549 0.576471 
0.592157 0.92549 0.576471 0.592157 0.92549 0.576471 
0.592157 0.92549 0.576471 0.592157 0.92549 0.576471 
0.592157 0.92549 0.576471 0.592157 0.92549 0.576471 
0.592157 0.92549 0.576471 0.592157 0.92549 0.576471 
0.592157 0.92549 0.576471 0.592157 0.92549 0.576471 
0.592157 0.92549 0.576471 0.592157 0.92549 0.576471 
0.592157 0.92549 0.576471 0.592157 0.92549 0.576471 
0.592157 0.92549 0.576471 0.592157 0.92549 0.576471 
0.592157 0.92549 0.576471 0.592157 0.92549 0.576471 
0.592157 0.92549 0.576471 0.592157 0.92549 0.576471 
0.592157 0.92549 0.576471 0.592157 0.92549 0.576471 
0.592157 0.92549 0.576471 0.592157 0.92549 0.576471 
0.592157 0.92549 0.576471 0.592157 0.92549 0.576471 
0.592157 0.92549 0.576471 0.592157 0.92549 0.576471 
0.592157 0.92549 0.576471 0.592157 0.92549 0.576471 
0.592157 0.92549 0.576471 0.592157 0.92549 0.576471 
0.592157 0.92549 0.576471 0.592157 0.92549 0.576471 
0.592157 0.92549 0.576471 0.592157 0.92549 0.576471 
0.592157 0.92549 0.576471 0.592157 0.92549 0.576471 
0.592157 0.92549 0.576471 0.592157 0.92549 0.576471 
0.592157 0.92549 0.576471 0.592157 0.92549 0.576471 
0.592157 0.92549 0.576471 0.592157 0.92549 0.576471 
0.592157 0.92549 0.576471 0.592157 0.92549 0.576471 
0.592157 0.92549 0.576471 0.592157 0.92549 0.576471 
0.592157 0.92549 0.576471 0.592157 0.92549 0.576471 
0.592157 0.92549 0.576471 0.592157 0.92549 0.576471 
0.592157 0.92549 0.576471 0.592157 0.92549 0.576471 
0.592157 0.92549 0.576471 0.592157 0.92549 0.576471 
0.592157 0.92549 0.576471 0.592157 0.92549 0.576471 
0.592157 0.92549 0.576471 0.592157 0.92549 0.576471 
0.592157 0.92549 0.576471 0.592157 0.92549 0.576471 
0.592157 0.92549 0.576471 0.592157 0.92549 0.576471 
0.592157 0.92549 0.576471 0.592157 0.92549 0.576471 
0.592157 0.92549 0.576471 0.592157 0.92549 0.576471 
0.592157 0.92549 0.576471 0.592157 0.92549 0.576471 
0.592157 0.92549 0.576471 0.592157 0.92549 0.576471 
0.592157 0.92549 0.576471 0.592157 0.92549 0.576471 
0.592157 0.92549 0.576471 0.592157 0.92549 0.576471 
0.592157 0.92549 0.576471 0.592157 0.92549 0.576471 
0.592157 0.92549 0.576471 0.592157 0.92549 0.576471 
0.592157 0.92549 0.576471 0.592157 0.92549 0.576471 
0.592157 0.92549 0.576471 0.592157 0.92549 0.576471 
0.592157 0.92549 0.576471 0.592157 0.92549 0.576471 
0.592157 0.92549 0.576471 0.592157 0.92549 0.576471 
0.592157 0.92549 0.576471 0.592157 0.92549 0.576471 
0.592157 0.92549 0.576471 0.592157 0.92549 0.576471 