# vtk DataFile Version 4.2
vtk output
ASCII
DATASET POLYDATA
POINTS 524 float
481.625 269.601 149.261 483.03 269.433 149.125 485.797 269.459 149.022 
487.764 269.456 149.012 488.284 268.949 149.2 490.202 268.944 149.251 
491.404 269.361 149.14 491.911 269.033 149.341 493.442 269.242 149.467 
494.404 269.599 149.574 494.307 269.445 149.571 482.204 270.184 149.159 
491.218 269.855 149.034 493.315 269.98 149.271 494.536 269.664 149.745 
486.763 270.488 148.993 488.766 270.454 148.999 490.723 270.366 149.041 
475.799 269.636 150.505 475.563 269.793 150.641 476.975 269.46 150.152 
477.414 268.892 150.242 478.829 269.41 149.794 481.368 268.522 149.705 
493.879 268.988 149.779 494.297 269.22 149.764 494.546 269.217 150.032 
475.686 269.898 150.477 480.333 270.11 149.503 492.956 270.415 149.297 
475.768 270.116 150.451 476.125 270.307 150.348 477.284 270.521 150.035 
477.56 270.825 150.078 479.725 270.681 149.687 482.126 270.741 149.347 
484.265 270.958 149.226 487.296 270.985 149.163 491.351 270.792 149.219 
493.36 270.738 149.568 493.97 270.561 149.758 480.109 271.281 149.846 
489.891 271.368 149.479 491.891 271.232 149.554 494.281 270.755 150.184 
494.656 270.487 150.456 483.236 271.934 149.967 486.389 271.909 149.867 
476.363 268.627 150.855 476.229 268.315 151.229 475.456 270.324 151.016 
475.983 270.637 150.547 475.809 270.699 150.705 495.112 269.799 151.138 
478.601 271.854 150.543 492.919 271.488 150.038 481.034 272.265 150.497 
489.069 272.187 150.365 477.505 267.451 151.264 475.662 268.612 151.819 
480.766 267.202 150.756 494.269 267.868 151.138 475.316 269.659 151.45 
475.828 271.371 151.558 493.158 272.111 151.228 494.251 271.62 151.433 
481.984 272.974 151.393 487.213 272.758 151.601 478.953 266.533 151.931 
495.37 268.453 152.367 495.556 269.942 152.616 475.457 271.085 152.045 
493.516 272.131 151.647 495.112 271.086 152.571 482.695 273.263 152.141 
484.166 273.168 152.111 485.639 273.035 152.465 492.808 272.424 152.345 
494.353 271.877 152.579 483.722 273.275 152.515 476.979 266.596 153.546 
476.466 267.265 153.268 477.625 266.526 152.92 493.968 266.46 152.198 
494.44 266.055 152.841 495.736 268.436 153.304 475.205 270.64 152.649 
475.356 271.011 152.557 495.507 270.649 153.426 490.7 272.693 153.022 
494.135 272.042 153.175 479.494 273.454 153.702 482.137 264.212 154.27 
482.13 263.983 155.012 484.038 263.812 154.059 478.173 265.899 155.008 
475.347 270.454 153.87 476.255 272.168 153.431 488.758 272.558 154.292 
494.579 271.795 153.944 479.518 273.513 154.327 480.842 273.474 153.96 
482.937 273.279 153.803 494.488 259.691 155.859 494.421 259.419 156.109 
494.795 259.614 155.942 494.915 259.514 156.093 492.249 260.04 156.183 
493.698 259.694 156.08 494.471 260.092 155.64 494.777 259.899 155.797 
492.176 260.995 155.127 487.634 262.039 155.503 495.104 260.426 155.83 
485.362 262.905 155.186 491.393 262.068 154.376 494.992 262.645 155.061 
480.023 264.911 155.863 475.488 269.469 154.344 495.831 270.159 155.156 
475.774 271.413 154.475 494.382 271.737 155.472 494.927 271.495 154.625 
477.707 273.134 154.455 494.137 259.435 156.179 494.338 259.306 156.329 
495.073 259.59 156.236 494.902 259.405 156.307 492.089 259.902 156.565 
494.038 259.365 156.523 490.413 260.719 156.349 495.225 260.225 156.048 
495.367 260.231 156.424 487.691 261.865 155.952 484.728 262.987 155.837 
481.635 264.153 155.797 495.932 263.606 156.236 478.464 266.09 156.3 
476.327 268.553 155.703 487.524 271.57 157.043 475.941 271.104 155.747 
476.171 271.859 155.458 494.922 271.278 156.305 477.996 273.175 155.315 
479.121 273.362 155.393 494.409 259.251 156.546 494.616 259.249 156.686 
494.886 259.35 156.662 495.141 259.575 156.811 492.192 259.779 156.928 
492.546 259.637 157.229 493.879 259.369 157.113 486.646 262.266 157.28 
496.366 264.826 157.057 477.295 267.578 156.456 476.319 270.6 156.551 
495.827 270.124 157.129 476.049 271.414 155.879 493.384 271.726 157.377 
476.199 271.545 156.096 476.162 271.689 155.827 494.248 271.539 157.259 
484.851 263.347 157.948 496.143 269.384 158.075 476.776 270.881 157.207 
494.825 271.085 158.273 478.825 272.603 157.026 480.369 272.563 157.269 
493.269 259.518 158.703 495.993 261.519 158.623 496.541 264.084 158.89 
478.082 269.362 158.221 477.804 270.093 158.105 476.816 271.12 157.167 
495.389 270.514 159.185 478.146 271.733 157.754 482.14 266.537 159.711 
496.517 267.756 159.974 485.262 269.903 160.431 491.497 270.815 159.965 
477.819 271.293 157.846 478.509 270.725 158.525 494.446 259.792 159.937 
491.166 260.857 161.176 486.591 263.715 160.503 480.441 268.867 159.841 
480.11 269.477 159.657 480.48 269.156 159.88 483.496 269.833 160.243 
479.543 270.685 159.044 480.408 269.912 159.676 480.226 270.469 159.36 
495.854 261.287 161.069 496.321 262.62 161.462 483.515 267.594 160.945 
496.134 268.533 161.805 481.315 269.183 160.187 490.504 269.765 161.982 
491.143 261.692 163.415 486.097 268.143 162.216 481.159 269.436 160.126 
494.456 270.383 162.213 494.852 270.406 162.206 495.007 270.442 162.041 
495.049 260.502 161.798 486.161 266.476 162.54 485.854 267.057 162.366 
488.99 268.783 162.914 493.274 269.787 162.929 494.284 270.204 162.55 
495.035 270.286 162.311 494.241 260.811 164.476 493.321 261.073 164.896 
490.197 263.039 164.302 496.226 263.588 164.342 496.206 265.187 164.499 
487.389 266.403 163.391 495.518 267.734 164.204 493.923 260.909 164.853 
494.288 260.957 165.043 495.13 261.21 164.317 490.772 263.606 165.53 
489.476 264.847 164.705 489.346 266.043 164.656 490.183 266.904 164.813 
493.319 267.241 165.628 494.511 267.931 164.889 494.855 268.305 164.442 
494.492 261.109 165.372 494.791 261.24 165.411 493.64 261.577 166.309 
490.79 264.027 165.761 490.454 265.78 165.383 491.252 265.92 165.78 
494.091 265.672 166.856 494.4 265.91 166.643 494.41 266.556 166.07 
494.77 267.163 165.399 494.996 261.502 165.641 493.881 261.714 166.639 
494.211 261.743 166.756 494.59 261.745 166.588 492.726 262.549 166.775 
493.517 262.41 167.161 491.814 263.18 166.415 491.123 264.078 166.098 
491.49 264.292 166.372 494.38 265.532 166.954 494.49 265.234 167.107 
494.431 261.925 167.002 494.71 262.03 167.015 493.786 262.763 167.563 
495.4 263.187 166.98 493.081 264.076 167.26 494.726 263.785 167.779 
494.858 264.041 167.609 494.893 262.293 167.152 494.176 262.912 167.833 
494.431 262.753 167.845 494.611 262.611 167.689 494.467 262.959 167.952 
494.372 263.156 167.945 494.612 263.181 167.938 495.057 263.505 167.602 
494.853 262.832 167.71 494.871 263.138 167.794 494.729 262.441 287.098 
494.57 262.627 287.056 494.907 262.32 287.238 494.69 262.128 287.306 
494.967 262.074 287.476 494.749 262.659 287.031 494.828 262.755 287.076 
494.904 262.576 287.14 494.959 262.872 287.284 494.797 261.877 287.52 
494.662 261.668 287.763 494.588 261.867 287.504 495.183 262.019 287.842 
494.22 263.085 287.157 493.97 263.364 287.28 494.604 262.926 287.104 
494.757 263.288 287.3 495.039 263.215 287.485 494.911 263.54 287.533 
495.291 262.904 287.831 494.319 261.512 288.096 495.147 261.588 288.337 
493.72 261.984 287.891 492.586 263.13 287.879 493.496 263.429 287.464 
495.52 262.453 288.358 492.036 263.501 288.161 494.084 264.731 287.855 
494.94 263.957 287.903 494.667 265.174 288.422 494.97 261.261 288.607 
494.892 261.051 289.015 494.751 261.147 288.697 493.592 261.68 288.306 
495.389 261.583 288.887 495.594 262.022 288.917 491.398 263.318 288.835 
494.628 260.997 289.044 493.362 261.58 288.666 492.469 261.982 289.044 
495.763 262.065 289.625 489.795 265.181 289.931 489.5 265.74 290.157 
490.581 265.656 289.451 493.789 260.833 290.081 496.054 262.789 290.491 
490.211 266.765 290.082 492.222 267.937 290.236 495.006 267.879 291.012 
495.453 260.944 291.256 496.198 262.888 291.349 489.02 264.388 291.01 
487.844 267.506 291.575 490 267.872 290.896 492.396 268.97 291.313 
493.878 269.509 291.934 494.605 269.775 292.532 486.154 266.775 292.498 
486.319 267.211 292.428 487.087 268.275 292.534 487.747 268.371 292.292 
490.908 268.966 291.733 494.268 270.333 293.341 495.723 269.107 293.386 
495.071 270.313 293.858 495.455 269.659 293.46 495.363 270.069 293.832 
484.961 267.69 293.381 483.691 268.2 294.017 484.912 268.426 293.653 
481.963 269.441 294.737 481.958 269.27 294.682 481.764 269.417 294.812 
486.116 268.966 293.619 482.08 269.703 294.924 495.424 260.434 293.888 
492.752 260.242 293.408 490.962 261.161 293.389 496.098 261.574 293.989 
489.241 262.093 294.023 485.452 265.141 294.049 482.053 268.852 294.645 
480.771 269.495 295.203 483.2 269.721 294.852 481.321 269.896 295.19 
495.925 269.498 294.792 494.47 259.711 295.042 495.073 260.026 294.674 
479.993 268.937 295.539 479.077 269.767 296.017 481.038 270.714 295.73 
483.559 270.427 295.591 479.739 271.249 296.298 495.643 270.176 295.763 
493.851 259.602 295.279 495.489 260.24 295.87 480.693 266.588 296.164 
477.774 269.659 297.026 493.37 271.218 296.098 477.502 270.663 297.394 
479.205 271.146 296.478 480.773 271.489 296.311 495.145 270.789 296.849 
495.158 259.757 296.352 495.032 259.586 296.824 494.89 259.552 296.506 
493.278 259.506 296.297 493.964 259.362 296.885 485.013 263.422 296.72 
494.506 271.341 297.777 477.405 272.084 298.432 479.149 272.111 297.426 
481.088 272.045 297.026 494.722 259.432 297.037 493.736 259.357 297.429 
495.614 260.513 297.306 490.865 260.265 297.515 488.946 261.185 297.482 
486.715 262.236 297.608 481.585 264.515 298.13 496.216 264.42 297.569 
478.808 266.258 298.031 476.457 270.307 298.638 493.965 271.69 298.519 
476.257 271.403 299.345 476.395 271.809 299.633 477.04 272.017 298.746 
494.604 259.385 297.538 495.324 260.122 297.866 492.299 259.782 298.283 
493.358 259.532 298.26 490.421 260.567 298.284 483.412 263.503 298.996 
484.225 263.312 297.993 479.91 264.98 299.179 479.071 265.501 298.84 
477.71 266.548 299.063 476.076 271.02 299.425 475.869 270.72 299.79 
478.966 273.346 299.831 494.274 259.419 298.172 494.054 259.538 298.44 
494.796 259.687 298.318 495.073 259.901 298.227 492.233 259.928 298.633 
[...]
POINT_DATA 524
COLOR_SCALARS scalars 3
1 0.701961 0.85098 1 0.701961 0.85098 1 0.701961 0.85098 
1 0.701961 0.85098 1 0.701961 0.85098 
1 0.701961 0.85098 1 0.701961 0.85098 
1 0.701961 0.85098 1 0.701961 0.85098 
1 0.701961 0.85098 1 0.701961 0.85098 
1 0.701961 0.85098 1 0.701961 0.85098 
1 0.701961 0.85098 1 0.701961 0.85098 
1 0.701961 0.85098 1 0.701961 0.85098 
1 0.701961 0.85098 1 0.701961 0.85098 
1 0.701961 0.85098 1 0.701961 0.85098 
1 0.701961 0.85098 1 0.701961 0.85098 
1 0.701961 0.85098 1 0.701961 0.85098 
1 0.701961 0.85098 1 0.701961 0.85098 
1 0.701961 0.85098 1 0.701961 0.85098 
1 0.701961 0.85098 1 0.701961 0.85098 
1 0.701961 0.85098 1 0.701961 0.85098 
1 0.701961 0.85098 1 0.701961 0.85098 
1 0.701961 0.85098 1 0.701961 0.85098 
1 0.701961 0.85098 1 0.701961 0.85098 
1 0.701961 0.85098 1 0.701961 0.85098 
1 0.701961 0.85098 1 0.701961 0.85098 
1 0.701961 0.85098 1 0.701961 0.85098 
1 0.701961 0.85098 1 0.701961 0.85098 
1 0.701961 0.85098 1 0.701961 0.85098 
1 0.701961 0.85098 1 0.701961 0.85098 
1 0.701961 0.85098 1 0.701961 0.85098 
1 0.701961 0.85098 1 0.701961 0.85098 
1 0.701961 0.85098 1 0.701961 0.85098 
1 0.701961 0.85098 1 0.701961 0.85098 
1 0.701961 0.85098 1 0.701961 0.85098 
1 0.701961 0.85098 1 0.701961 0.85098 
1 0.701961 0.85098 1 0.701961 0.85098 
1 0.701961 0.85098 1 0.701961 0.85098 
1 0.701961 0.85098 1 0.701961 0.85098 
1 0.701961 0.85098 1 0.701961 0.85098 
1 0.701961 0.85098 1 0.701961 0.85098 
1 0.701961 0.85098 1 0.701961 0.85098 
1 0.701961 0.85098 1 0.701961 0.85098 
1 0.701961 0.85098 1 0.701961 0.85098 
1 0.701961 0.85098 1 0.701961 0.85098 
1 0.701961 0.85098 1 0.701961 0.85098 
1 0.701961 0.85098 1 0.701961 0.85098 
1 0.701961 0.85098 1 0.701961 0.85098 
1 0.701961 0.85098 1 0.701961 0.85098 
1 0.701961 0.85098 1 0.701961 0.85098 
1 0.701961 0.85098 1 0.701961 0.85098 
1 0.701961 0.85098 1 0.701961 0.85098 
1 0.701961 0.85098 1 0.701961 0.85098 
1 0.701961 0.85098 1 0.701961 0.85098 
1 0.701961 0.85098 1 0.701961 0.85098 
1 0.701961 0.85098 1 0.701961 0.85098 
1 0.701961 0.85098 1 0.701961 0.85098 
1 0.701961 0.85098 1 0.701961 0.85098 
1 0.701961 0.85098 1 0.701961 0.85098 
1 0.701961 0.85098 1 0.701961 0.85098 
1 0.701961 0.85098 1 0.701961 0.85098 
1 0.701961 0.85098 1 0.701961 0.85098 
1 0.701961 0.85098 1 0.701961 0.85098 
1 0.701961 0.85098 1 0.701961 0.85098 
1 0.701961 0.85098 1 0.701961 0.85098 
1 0.701961 0.85098 1 0.701961 0.85098 
1 0.701961 0.85098 1 0.701961 0.85098 
1 0.701961 0.85098 1 0.701961 0.85098 
1 0.701961 0.85098 1 0.701961 0.85098 
1 0.701961 0.85098 1 0.701961 0.85098 
1 0.701961 0.85098 1 0.701961 0.85098 
1 0.701961 0.85098 1 0.701961 0.85098 
1 0.701961 0.85098 1 0.701961 0.85098 
1 0.701961 0.85098 1 0.701961 0.85098 
1 0.701961 0.85098 1 0.701961 0.85098 
1 0.701961 0.85098 1 0.701961 0.85098 
1 0.701961 0.85098 1 0.701961 0.85098 
1 0.701961 0.85098 1 0.701961 0.85098 
1 0.701961 0.85098 1 0.701961 0.85098 
1 0.701961 0.85098 1 0.701961 0.85098 
1 0.701961 0.85098 1 0.701961 0.85098 
1 0.701961 0.85098 1 0.701961 0.85098 
1 0.701961 0.85098 1 0.701961 0.85098 
1 0.701961 0.85098 1 0.701961 0.85098 
1 0.701961 0.85098 1 0.701961 0.85098 
1 0.701961 0.85098 1 0.701961 0.85098 
1 0.701961 0.85098 1 0.701961 0.85098 
1 0.701961 0.85098 1 0.701961 0.85098 
1 0.701961 0.85098 1 0.701961 0.85098 
1 0.701961 0.85098 1 0.701961 0.85098 
1 0.701961 0.85098 1 0.701961 0.85098 
1 0.701961 0.85098 1 0.701961 0.85098 
1 0.701961 0.85098 1 0.701961 0.85098 
1 0.701961 0.85098 1 0.701961 0.85098 
1 0.701961 0.85098 1 0.701961 0.85098 
1 0.701961 0.85098 1 0.701961 0.85098 
1 0.701961 0.85098 1 0.701961 0.85098 
1 0.701961 0.85098 1 0.701961 0.85098 
1 0.701961 0.85098 1 0.701961 0.85098 
1 0.701961 0.85098 1 0.701961 0.85098 
1 0.701961 0.85098 1 0.701961 0.85098 
1 0.701961 0.85098 1 0.701961 0.85098 
1 0.701961 0.85098 1 0.701961 0.85098 
1 0.701961 0.85098 1 0.701961 0.85098 
1 0.701961 0.85098 1 0.701961 0.85098 
1 0.701961 0.85098 1 0.701961 0.85098 
1 0.701961 0.85098 1 0.701961 0.85098 
1 0.701961 0.85098 1 0.701961 0.85098 
1 0.701961 0.85098 1 0.701961 0.85098 
1 0.701961 0.85098 1 0.701961 0.85098 
1 0.701961 0.85098 1 0.701961 0.85098 
1 0.701961 0.85098 1 0.701961 0.85098 
1 0.701961 0.85098 1 0.701961 0.85098 
1 0.701961 0.85098 1 0.701961 0.85098 
1 0.701961 0.85098 1 0.701961 0.85098 
1 0.701961 0.85098 1 0.701961 0.85098 
1 0.701961 0.85098 1 0.701961 0.85098 
1 0.701961 0.85098 1 0.701961 0.85098 
1 0.701961 0.85098 1 0.701961 0.85098 
1 0.701961 0.85098 1 0.701961 0.85098 
1 0.701961 0.85098 1 0.701961 0.85098 
1 0.701961 0.85098 1 0.701961 0.85098 
1 0.701961 0.85098 1 0.701961 0.85098 
1 0.701961 0.85098 1 0.701961 0.85098 
1 0.701961 0.85098 1 0.701961 0.85098 
1 0.701961 0.85098 1 0.701961 0.85098 
1 0.701961 0.85098 1 0.701961 0.85098 
1 0.701961 0.85098 1 0.701961 0.85098 
1 0.701961 0.85098 1 0.701961 0.85098 
1 0.701961 0.85098 1 0.701961 0.85098 
1 0.701961 0.85098 1 0.701961 0.85098 
1 0.701961 0.85098 1 0.701961 0.85098 
1 0.701961 0.85098 1 0.701961 0.85098 
1 0.701961 0.85098 1 0.701961 0.85098 
1 0.701961 0.85098 1 0.701961 0.85098 
1 0.701961 0.85098 1 0.701961 0.85098 
1 0.701961 0.85098 1 0.701961 0.85098 
1 0.701961 0.85098 1 0.701961 0.85098 
1 0.701961 0.85098 1 0.701961 0.85098 
1 0.701961 0.85098 1 0.701961 0.85098 
1 0.701961 0.85098 1 0.701961 0.85098 
1 0.701961 0.85098 1 0.701961 0.85098 
1 0.701961 0.85098 1 0.701961 0.85098 
1 0.701961 0.85098 1 0.701961 0.85098 
1 0.701961 0.85098 1 0.701961 0.85098 
1 0.701961 0.85098 1 0.701961 0.85098 
1 0.701961 0.85098 1 0.701961 0.85098 
1 0.701961 0.85098 1 0.701961 0.85098 
1 0.701961 0.85098 1 0.701961 0.85098 
1 0.701961 0.85098 1 0.701961 0.85098 
1 0.701961 0.85098 1 0.701961 0.85098 
1 0.701961 0.85098 1 0.701961 0.85098 
1 0.701961 0.85098 1 0.701961 0.85098 
1 0.701961 0.85098 1 0.701961 0.85098 
1 0.701961 0.85098 1 0.701961 0.85098 
1 0.701961 0.85098 1 0.701961 0.85098 
1 0.701961 0.85098 1 0.701961 0.85098 
1 0.701961 0.85098 1 0.701961 0.85098 
1 0.701961 0.85098 1 0.701961 0.85098 
1 0.701961 0.85098 1 0.701961 0.85098 
1 0.701961 0.85098 1 0.701961 0.85098 
1 0.701961 0.85098 1 0.701961 0.85098 
1 0.701961 0.85098 1 0.701961 0.85098 
1 0.701961 0.85098 1 0.701961 0.85098 
1 0.701961 0.85098 1 0.701961 0.85098 
1 0.701961 0.85098 1 0.701961 0.85098 
1 0.701961 0.85098 1 0.701961 0.85098 
1 0.701961 0.85098 1 0.701961 0.85098 
1 0.701961 0.85098 1 0.701961 0.85098 
1 0.701961 0.85098 1 0.701961 0.85098 
1 0.701961 0.85098 1 0.701961 0.85098 
1 0.701961 0.85098 1 0.701961 0.85098 
1 0.701961 0.85098 1 0.701961 0.85098 
1 0.701961 0.85098 1 0.701961 0.85098 
1 0.701961 0.85098 1 0.701961 0.85098 
1 0.701961 0.85098 1 0.701961 0.85098 
1 0.701961 0.85098 1 0.701961 0.85098 
1 0.701961 0.85098 1 0.701961 0.85098 
1 0.701961 0.85098 1 0.701961 0.85098 
1 0.701961 0.85098 1 0.701961 0.85098 
1 0.701961 0.85098 1 0.701961 0.85098 
1 0.701961 0.85098 1 0.701961 0.85098 
1 0.701961 0.85098 1 0.701961 0.85098 
1 0.701961 0.85098 1 0.701961 0.85098 
1 0.701961 0.85098 1 0.701961 0.85098 
1 0.701961 0.85098 1 0.701961 0.85098 
1 0.701961 0.85098 1 0.701961 0.85098 
1 0.701961 0.85098 1 0.701961 0.85098 
1 0.701961 0.85098 1 0.701961 0.85098 
1 0.701961 0.85098 1 0.701961 0.85098 
1 0.701961 0.85098 1 0.701961 0.85098 
1 0.701961 0.85098 1 0.701961 0.85098 
1 0.701961 0.85098 1 0.701961 0.85098 
1 0.701961 0.85098 1 0.701961 0.85098 
1 0.701961 0.85098 1 0.701961 0.85098 
1 0.701961 0.85098 1 0.701961 0.85098 
1 0.701961 0.85098 1 0.701961 0.85098 
1 0.701961 0.85098 1 0.701961 0.85098 
1 0.701961 0.85098 1 0.701961 0.85098 
1 0.701961 0.85098 1 0.701961 0.85098 
1 0.701961 0.85098 1 0.701961 0.85098 
1 0.701961 0.85098 1 0.701961 0.85098 
1 0.701961 0.85098 1 0.701961 0.85098 
1 0.701961 0.85098 1 0.701961 0.85098 
1 0.701961 0.85098 1 0.701961 0.85098 
1 0.701961 0.85098 1 0.701961 0.85098 
1 0.701961 0.85098 1 0.701961 0.85098 
1 0.701961 0.85098 1 0.701961 0.85098 
1 0.701961 0.85098 1 0.701961 0.85098 
1 0.701961 0.85098 1 0.701961 0.85098 
1 0.701961 0.85098 1 0.701961 0.85098 
1 0.701961 0.85098 1 0.701961 0.85098 
1 0.701961 0.85098 1 0.701961 0.85098 
1 0.701961 0.85098 1 0.701961 0.85098 
1 0.701961 0.85098 1 0.701961 0.85098 
1 0.701961 0.85098 1 0.701961 0.85098 
1 0.701961 0.85098 1 0.701961 0.85098 
1 0.701961 0.85098 1 0.701961 0.85098 
1 0.701961 0.85098 1 0.701961 0.85098 
1 0.701961 0.85098 1 0.701961 0.85098 
1 0.701961 0.85098 1 0.701961 0.85098 
1 0.701961 0.85098 1 0.701961 0.85098 
1 0.701961 0.85098 1 0.701961 0.85098 
1 0.701961 0.85098 1 0.701961 0.85098 
1 0.701961 0.85098 1 0.701961 0.85098 
1 0.701961 0.85098 1 0.701961 0.85098 
1 0.701961 0.85098 1 0.701961 0.85098 
1 0.701961 0.85098 1 0.701961 0.85098 
1 0.701961 0.85098 1 0.701961 0.85098 
1 0.701961 0.85098 1 0.701961 0.85098 
1 0.701961 0.85098 1 0.701961 0.85098 
1 0.701961 0.85098 1 0.701961 0.85098 
1 0.701961 0.85098 1 0.701961 0.85098 
1 0.701961 0.85098 1 0.701961 0.85098 
1 0.701961 0.85098 1 0.701961 0.85098 
1 0.701961 0.85098 1 0.701961 0.85098 
1 0.701961 0.85098 1 0.701961 0.85098 
1 0.701961 0.85098 1 0.701961 0.85098 
1 0.701961 0.85098 1 0.701961 0.85098 
1 0.701961 0.85098 1 0.701961 0.85098 
1 0.701961 0.85098 1 0.701961 0.85098 
1 0.701961 0.85098 1 0.701961 0.85098 
1 0.701961 0.85098 1 0.701961 0.85098 
1 0.701961 0.85098 1 0.701961 0.85098 
1 0.701961 0.85098 1 0.701961 0.85098 
1 0.701961 0.85098 1 0.701961 0.85098 
1 0.701961 0.85098 1 0.701961 0.85098 
1 0.701961 0.85098 1 0.701961 0.85098 
1 0.701961 0.85098 1 0.701961 0.85098 
1 0.701961 0.85098 1 0.701961 0.85098 
1 0.701961 0.85098 1 0.701961 0.85098 
1 0.701961 0.85098 1 0.701961 0.85098 
1 0.701961 0.85098 1 0.701961 0.85098 
1 0.701961 0.85098 1 0.701961 0.85098 
1 0.701961 0.85098 1 0.701961 0.85098 
1 0.701961 0.85098 1 0.701961 0.85098 
1 0.701961 0.85098 1 0.701961 0.85098 
1 0.701961 0.85098 1 0.701961 0.85098 
1 0.701961 0.85098 1 0.701961 0.85098 
1 0.701961 0.85098 1 0.701961 0.85098 
1 0.701961 0.85098 1 0.701961 0.85098 
1 0.701961 0.85098 1 0.701961 0.85098 
1 0.701961 0.85098 1 0.701961 0.85098 
1 0.701961 0.85098 1 0.701961 0.85098 
1 0.701961 0.85098 1 0.701961 0.85098 
1 0.701961 0.85098 1 0.701961 0.85098 
1 0.701961 0.85098 
NORMALS Normals float
-0.218954 -0.0724265 -0.973043 -0.0404761 -0.218084 -0.97509 -0.0269057 -0.373687 -0.927164 
0.0506323 -0.0690927 -0.996325 0.0472717 -0.428399 -0.902352 0.0140553 -0.429283 -0.903061 
-0.0453291 -0.58673 -0.808513 0.0288061 -0.532621 -0.845863 0.145214 -0.455044 -0.878549 
0.56364 -0.12748 -0.816124 0.381588 -0.461652 -0.800792 -0.101807 0.219434 -0.970301 
0.0970043 -0.0234018 -0.995009 0.236212 0.0607582 -0.9698 0.814887 0.162451 -0.55639 
0.00393995 0.223551 -0.974684 0.0522194 0.243625 -0.968463 -0.044469 0.234794 -0.971027 
-0.400964 -0.290899 -0.868681 -0.843467 -0.14296 -0.517809 -0.243266 -0.266464 -0.932641 
-0.190417 -0.476063 -0.858548 -0.163953 -0.158038 -0.973726 -0.134097 -0.417442 -0.898755 
0.296396 -0.695795 -0.654232 0.548547 -0.609857 -0.571988 0.723854 -0.491702 -0.484009 
-0.517642 -0.0725428 -0.852517 -0.109143 0.117242 -0.987088 0.162456 0.365077 -0.916693 
-0.644573 0.239532 -0.726051 -0.351031 0.118169 -0.928877 -0.204414 0.0836368 -0.975305 
-0.230101 0.497998 -0.836093 -0.16497 0.26457 -0.950152 -0.150333 0.354984 -0.922706 
-0.0432845 0.33854 -0.939956 0.0325373 0.401132 -0.915442 0.0725988 0.441628 -0.894256 
0.302816 0.474705 -0.826413 0.461523 0.535255 -0.70746 -0.222246 0.564279 -0.795107 
-0.0188346 0.695712 -0.718074 0.00913914 0.722984 -0.690804 0.596567 0.571093 -0.563881 
0.812906 0.450214 -0.369448 -0.0272378 0.589028 -0.807654 0.0478313 0.752829 -0.656476 
-0.518908 -0.526188 -0.673691 -0.533434 -0.71053 -0.458907 -0.896871 0.276883 -0.344904 
-0.390448 0.45307 -0.801422 -0.614881 0.469834 -0.633386 0.933043 -0.0220597 -0.359089 
-0.219277 0.676136 -0.70339 0.318888 0.669036 -0.671343 -0.227654 0.666829 -0.709586 
-0.0144569 0.862239 -0.506295 -0.345866 -0.747314 -0.567361 -0.835643 -0.469257 -0.285479 
-0.0601264 -0.642953 -0.763542 0.346478 -0.721591 -0.599383 -0.992954 -0.0845954 -0.0829812 
-0.507692 0.78348 -0.358342 0.151696 0.902767 -0.402493 0.562481 0.764954 -0.313784 
-0.12383 0.920625 -0.370291 -0.100534 0.909413 -0.403561 -0.228264 -0.894425 -0.384576 
0.839299 -0.297554 -0.455015 0.958914 0.134126 -0.249988 -0.895893 0.412839 -0.164133 
0.461874 0.85715 -0.227961 0.807201 0.564343 -0.173041 0.0305719 0.979886 -0.197203 
0.149773 0.968584 -0.198526 0.0718086 0.997168 -0.0223595 0.274399 0.961538 -0.0122694 
0.622582 0.764165 -0.16865 0.163311 0.978205 -0.128239 -0.496244 -0.866642 0.0517082 
-0.818893 -0.57195 -0.0478252 -0.354509 -0.894869 -0.271169 0.573652 -0.522766 -0.630587 
0.60076 -0.449091 -0.661365 0.950065 -0.10209 -0.294878 -0.984655 0.172652 -0.0254093 
-0.869889 0.491576 -0.0405689 0.928695 0.357588 -0.098262 0.094097 0.995175 0.0278003 
0.485488 0.874173 0.0111151 -0.203584 0.960517 -0.189631 -0.349038 -0.8726 -0.341676 
-0.402511 -0.912011 -0.0788739 -0.111213 -0.823805 -0.555857 -0.587693 -0.807315 0.0534804 
-0.967402 0.199072 0.156538 -0.739478 0.67284 -0.0214296 0.0799968 0.975845 0.203291 
0.48248 0.874918 0.0416262 -0.145566 0.989342 0.00352885 0.0502787 0.998368 0.0270835 
0.172198 0.972806 0.154907 -0.0527682 -0.615762 -0.786163 0.0443182 -0.831831 -0.553256 
0.245465 -0.592554 -0.76722 0.392571 -0.695958 -0.601274 -0.286106 -0.833875 -0.472012 
-0.278939 -0.844586 -0.457021 0.0603521 -0.430065 -0.900778 0.437861 -0.359051 -0.824233 
-0.188971 -0.626688 -0.75601 -0.31959 -0.884306 -0.340389 0.69649 -0.157883 -0.699981 
-0.184718 -0.91578 -0.356687 0.0358557 -0.683742 -0.728842 0.609844 -0.241621 -0.754791 
-0.446944 -0.876432 0.179185 -0.958165 -0.160806 0.236771 0.927447 0.373934 -0.00406105 
-0.926188 0.338079 0.166968 0.449018 0.887936 0.099762 0.735168 0.675519 0.0565844 
-0.378533 0.923533 -0.0616424 -0.3037 -0.741811 -0.597899 -0.127406 -0.935213 -0.33037 
0.791552 -0.54872 -0.268981 0.435144 -0.861654 -0.261154 -0.350182 -0.837688 -0.419109 
-0.369606 -0.92506 -0.0874975 -0.412665 -0.89316 -0.178811 0.792934 -0.242535 -0.558957 
0.940581 -0.194201 -0.278556 -0.338837 -0.884604 -0.320416 -0.257066 -0.959799 -0.112705 
-0.451661 -0.855745 0.252394 0.899433 -0.0797884 -0.429713 -0.525424 -0.651665 0.547049 
-0.837078 -0.388646 0.385038 0.039574 0.948661 0.313808 -0.946747 0.141234 0.28935 
-0.644349 0.728464 0.232712 0.572516 0.819737 0.0160005 -0.450986 0.812021 0.370449 
-0.118624 0.976389 0.180535 0.07628 -0.97256 -0.219791 0.0147988 -0.99825 0.0572554 
0.501959 -0.862201 -0.0681657 0.814198 -0.579996 0.0261967 -0.273972 -0.944058 -0.183561 
-0.331802 -0.943149 -0.0194466 -0.267507 -0.96012 -0.0813047 -0.449394 -0.868102 0.21082 
0.962709 0.00091337 -0.270539 -0.722302 -0.509267 0.467897 -0.849163 -0.0223376 0.527659 
0.790603 0.611836 0.0245663 -0.915913 0.292709 0.274637 0.168375 0.953023 0.251786 
-0.663617 0.516188 0.541445 -0.745264 0.620463 0.244146 0.460427 0.882172 0.0988859 
-0.288877 -0.896364 0.336277 0.943225 0.332145 -0.00237711 -0.738147 0.0134541 0.674505 
0.55345 0.813163 0.180164 -0.198378 0.834423 0.514184 0.0565626 0.867366 0.494446 
-0.20293 -0.95979 0.193964 0.911838 -0.410546 0.00170979 0.991809 -0.115386 -0.0547712 
-0.616287 -0.156089 0.771898 -0.594873 0.0753078 0.800284 -0.648904 0.394428 0.650654 
0.666892 0.728406 0.157101 -0.322758 0.657347 0.680972 -0.43354 -0.535949 0.724432 
0.993719 0.0995331 0.0511518 -0.0985109 0.783114 0.614026 -0.0369604 0.902236 0.429656 
-0.576077 0.447931 0.683734 -0.480841 0.207489 0.851904 0.474129 -0.86139 0.182234 
-0.464859 -0.854974 0.230056 -0.557066 -0.600185 0.573982 -0.449899 -0.154439 0.879625 
-0.519081 0.115525 0.846882 -0.410295 0.0720832 0.9091 -0.140111 0.578643 0.803456 
-0.289679 0.438499 0.850767 -0.370178 0.348147 0.861256 -0.31076 0.411299 0.85689 
0.872496 -0.481524 0.082977 0.953231 -0.272659 0.130415 -0.523133 -0.341624 0.780785 
0.950156 0.251653 0.184049 -0.346099 -0.0473433 0.937003 -0.097883 0.886171 0.452901 
-0.492312 -0.793164 0.358496 -0.364762 0.389309 0.845806 -0.269032 0.177926 0.946554 
-0.0880807 0.906459 0.413006 0.0750924 0.868796 0.489443 0.444602 0.863164 0.239328 
0.524651 -0.809521 0.263473 -0.511836 -0.174331 0.841209 -0.412249 0.104357 0.905075 
-0.240314 0.701479 0.670952 -0.0646704 0.749437 0.658909 0.038889 0.735738 0.676149 
0.419608 0.660027 0.623133 0.0305879 -0.984527 0.172541 -0.273919 -0.923266 0.269346 
-0.668484 -0.564988 0.48365 0.975973 -0.164471 0.142922 0.934161 0.160667 0.318637 
-0.599895 -0.114103 0.791901 0.730886 0.392445 0.558385 -0.150769 -0.931515 0.330981 
0.220716 -0.939675 0.261334 0.721324 -0.665217 0.192815 -0.673574 -0.45092 0.585636 
-0.572091 -0.108427 0.812992 -0.418187 0.104152 0.90237 -0.387161 0.354515 0.851132 
-0.0366056 0.662448 0.748213 0.308849 0.614906 0.725605 0.254207 0.672633 0.694941 
0.0927311 -0.887829 0.450733 0.434752 -0.846508 0.307271 -0.225476 -0.873998 0.430451 
-0.726 -0.056995 0.685329 -0.535691 0.0975587 0.838759 -0.374932 0.362359 0.853301 
-0.142568 0.534074 0.83333 0.114238 0.618664 0.777306 0.504348 0.527022 0.684018 
0.436384 0.540761 0.719129 0.643459 -0.668178 0.373496 -0.251396 -0.728508 0.637241 
0.0156799 -0.88694 0.461618 0.347287 -0.85169 0.392448 -0.514254 -0.485135 0.707239 
-0.35139 -0.674814 0.648961 -0.601533 -0.342502 0.7217 -0.671028 -0.101284 0.734481 
-0.588915 0.112908 0.800269 0.517522 0.571046 0.637242 -0.133872 0.391 0.910603 
0.0249022 -0.741972 0.669969 0.431042 -0.720893 0.542693 -0.419496 -0.451942 0.787255 
0.920693 -0.160264 0.355865 -0.39348 0.149614 0.907077 0.130009 0.320812 0.938178 
0.772862 0.307243 0.555236 0.614507 -0.604661 0.506721 -0.414418 -0.242677 0.877135 
-0.145829 -0.593415 0.791576 0.167926 -0.669523 0.72356 0.146285 -0.29643 0.943785 
-0.344962 0.0984883 0.933435 0.37411 0.0588118 0.925517 0.815653 0.0416826 0.577038 
0.63251 -0.421231 0.649997 0.577837 -0.0657515 0.813499 0.145235 -0.41211 -0.899485 
-0.367324 -0.261971 -0.892437 0.519969 -0.437873 -0.733416 0.0598257 -0.572592 -0.817654 
0.651504 -0.455314 -0.60682 0.188064 -0.0297981 -0.981705 0.515796 0.285944 -0.807583 
0.748533 -0.123104 -0.65157 0.689388 0.271952 -0.671406 0.382137 -0.684738 -0.620568 
-0.061533 -0.828009 -0.557328 -0.190149 -0.656747 -0.729745 0.812814 -0.361722 -0.456607 
-0.158347 0.21465 -0.963769 -0.408707 0.0818454 -0.908989 0.15034 0.357838 -0.921602 
0.344323 0.433103 -0.832985 0.743804 0.29504 -0.599756 0.645108 0.466113 -0.605454 
0.914069 0.247267 -0.32146 -0.0612021 -0.862018 -0.50317 0.604583 -0.662375 -0.442423 
-0.495762 -0.556455 -0.666767 -0.500091 -0.327545 -0.801638 -0.401947 0.0387127 -0.914844 
0.981422 -0.0211862 -0.190686 -0.535357 -0.0701681 -0.841706 0.0240705 0.478382 -0.877822 
0.595269 0.485424 -0.640327 0.449609 0.57746 -0.681463 0.422051 -0.769807 -0.478821 
0.537026 -0.833762 -0.128234 -0.0485159 -0.862109 -0.504395 -0.369551 -0.777186 -0.509328 
0.830966 -0.554189 0.0486875 0.981835 -0.182933 0.0503575 -0.676278 -0.391613 -0.623929 
-0.0372128 -0.954022 -0.297416 -0.521304 -0.681622 -0.513452 -0.558195 -0.684568 -0.468813 
0.931165 -0.307752 -0.195499 -0.4624 -0.181576 -0.86788 -0.5604 0.125374 -0.818677 
-0.373224 -0.0614077 -0.925707 -0.263384 -0.917534 -0.297925 0.984107 -0.0387108 -0.173308 
-0.318802 0.435795 -0.841694 -0.10287 0.611689 -0.784381 0.778387 0.404546 -0.48006 
0.799783 -0.584813 -0.135429 0.98651 -0.00853983 -0.163476 -0.604657 -0.253397 -0.755103 
-0.41839 0.424792 -0.802808 -0.327592 0.544312 -0.772275 0.00585489 0.750031 -0.661376 
-0.0455339 0.843494 -0.535205 0.459156 0.671971 -0.58106 -0.513542 -0.021097 -0.857805 
-0.47672 0.329168 -0.815099 -0.364035 0.651706 -0.6654 -0.352904 0.648301 -0.674659 
-0.196784 0.7764 -0.59873 0.0983682 0.920232 -0.37881 0.852456 0.370565 -0.368783 
0.457683 0.801388 -0.385103 0.672134 0.550683 -0.494959 0.742646 0.61433 -0.266602 