# vtk DataFile Version 4.2
vtk output
ASCII
DATASET POLYDATA
POINTS 550 float
366.744 271.482 184.158 367.39 271.611 184.02 367.722 271.719 184.027 
368.022 271.685 184.15 366.723 271.677 184.08 366.856 271.854 184.008 
367.07 271.762 183.981 367.452 271.871 183.989 367.532 272.122 184.088 
368.289 271.479 184.462 368.662 271.719 184.533 366.329 271.969 184.367 
368.326 271.993 184.239 366.95 272.361 184.318 366.725 272.546 184.628 
367.345 272.362 184.259 367.583 272.661 184.602 369.031 271.902 184.797 
369.407 271.752 185.169 366.103 271.847 184.557 366.262 272.449 184.871 
369.376 272.633 185.214 369.279 272.942 185.307 365.375 271.044 185.691 
365.453 270.769 185.87 365.104 270.902 186.111 365.776 270.578 185.873 
369.961 272.185 185.641 366.225 272.754 185.308 365.776 272.859 185.832 
369.83 272.524 185.585 369.294 273.159 185.556 368.852 273.7 186.219 
364.682 270.47 187.112 367.86 269.914 186.465 369.266 270.487 186.226 
364.133 271.072 187.112 364.197 271.49 186.895 370.689 271.91 186.708 
370.292 273.001 186.571 365.016 269.823 187.859 370.294 270.423 187.325 
370.976 271.031 187.465 370.805 270.713 187.533 371.12 270.819 187.871 
363.464 271.241 187.928 364.332 272.817 187.329 370.997 272.593 187.42 
370.216 273.849 187.702 363.316 270.669 188.865 362.802 271.623 189.136 
362.833 271.988 188.978 363.071 272.182 188.569 363.78 272.776 188.012 
364.2 273.083 187.825 365.329 269.022 189.559 363.618 269.877 189.624 
362.857 271.117 189.429 372.099 270.806 189.972 371.878 272.491 189.303 
365.033 274.088 188.849 370.83 274.105 189.061 368.81 275.225 189.476 
369.811 274.877 189.198 369.619 275.142 189.703 363.322 270.065 189.912 
362.625 272.418 189.925 362.931 272.724 189.518 365.074 274.487 190.136 
370.643 274.769 190.325 370.837 268.714 190.688 362.088 271.502 191.499 
363.536 273.719 190.716 361.973 271.716 191.943 362 272.183 192.359 
361.975 270.88 192.714 361.747 271.715 193.095 362.67 273.42 192.749 
372.401 273.405 192.958 367.268 275.711 192.989 367.259 266.583 193.693 
371.663 267.88 193.5 372.695 269.253 193.959 373.087 270.733 194.366 
371.603 274.788 194.015 367.824 275.931 194.538 369.639 266.084 194.354 
369.19 265.613 194.813 370.585 265.85 195.201 371.25 266.203 195.488 
361.678 270.559 194.402 361.081 272.347 196.103 362.325 273.807 195.674 
372.593 273.616 194.831 372.167 274.253 194.685 368.946 264.599 195.855 
370.379 264.886 196.216 370.56 264.561 196.841 366.947 264.802 195.774 
370.168 265.27 195.608 361.111 270.889 195.833 360.76 271.287 196.635 
361.272 272.865 196.483 371.158 275.314 195.291 368.41 276.054 196.284 
369.931 275.868 195.888 367.716 260.399 198.405 367.537 260.174 198.498 
367.256 260.392 198.313 367.729 260.151 198.628 368.417 261.018 198.373 
369.071 261.806 198.204 369.117 262.31 197.845 369.419 262.147 198.253 
368.509 263.262 196.874 370.044 263.795 197.292 370.804 264.336 197.591 
372.964 268.458 196.665 363.048 267.682 196.115 360.482 271.619 197.554 
366.143 260.182 198.38 367.835 259.98 198.993 365.377 261.525 197.998 
363.144 274.586 197.981 371.379 275.363 196.954 370.594 275.763 197.715 
365.844 259.497 198.97 366.527 259.093 199.465 364.982 259.361 199.304 
364.253 259.959 199.213 371.872 265.317 198.791 373.478 272.826 199.113 
365.903 258.239 200.555 362.516 259.337 200.603 368.025 259.594 200.252 
361.707 260.099 200.531 361.091 261.534 200.274 369.694 261.576 199.88 
373.238 268.419 199.602 359.102 270.486 200.193 359.087 270.995 200.389 
362.447 274.212 200.211 365.041 257.703 201.409 365.289 257.743 201.201 
363.783 258.141 201.345 365.963 257.994 201.14 361.204 259.21 201.709 
362.446 258.654 201.811 367.017 258.662 201.078 360.384 259.741 201.791 
359.213 262.724 201.483 372.683 266.9 200.96 358.968 267.083 200.971 
373.738 271.704 201.232 359.122 271.567 201.096 368.845 275.842 200.792 
365.187 257.663 201.683 365.398 257.685 201.481 365.712 257.78 201.479 
364.255 257.874 201.88 366.033 257.944 201.656 366.941 258.579 201.838 
359.568 259.999 202.799 359.349 260.33 202.666 359.424 260.571 202.275 
358.464 268.565 201.619 358.426 270.74 201.883 358.59 271.021 201.763 
362.837 274.175 201.462 366.605 275.338 201.84 371.804 275.201 200.969 
369.533 275.639 201.51 364.507 257.894 202.206 360.26 259.377 202.85 
367.003 258.755 202.448 359.276 260.346 203.104 358.661 261.195 203.226 
368.627 260.161 202.474 358.531 261.58 202.98 358.215 262.074 203.405 
358.126 262.857 202.912 372.441 267.014 202.644 358.219 268.14 202.749 
358.372 269.505 202.662 373.42 269.288 202.19 373.582 269.671 201.897 
358.304 270.055 202.392 358.437 270.64 202.47 358.452 270.918 202.048 
358.489 270.919 202.289 358.622 271.161 202.064 358.859 271.376 202.164 
359.307 271.724 202.14 359.843 272.052 202.403 373.161 273.48 202.799 
361.428 273.197 202.424 372.177 274.868 202.177 365.359 258.067 202.629 
365.923 258.158 202.558 362.799 258.709 203.424 366.266 258.462 202.821 
366.704 258.7 202.796 360.864 259.423 203.895 358.537 261.445 203.976 
358.862 261.22 204.366 368.975 260.815 203.144 358.065 262.576 203.27 
357.995 262.664 203.752 369.927 262.335 203.252 357.802 263.438 203.968 
357.643 264.342 204.144 371.79 265.578 202.87 358.429 268.721 203.397 
358.566 270.31 202.794 359.06 269.874 203.665 358.677 271.146 202.327 
360.008 271.515 203.269 360.659 271.307 203.864 373.119 272.943 203.425 
361.329 272.761 203.064 361.431 273.01 202.829 362.467 273.488 202.747 
372.81 274.182 202.837 365.146 274.356 202.845 367.667 274.762 203.131 
371.816 275.009 202.329 369.922 274.907 203.024 364.135 258.803 203.736 
366.402 258.891 203.258 359.279 261.256 204.965 369.447 261.969 203.734 
357.72 263.816 204.542 357.545 264.23 204.522 357.582 264.217 204.685 
357.508 264.341 204.626 357.541 264.485 204.533 357.69 265.084 204.597 
357.76 265.813 204.764 357.746 266.191 204.651 371.649 266.595 203.809 
357.797 266.511 204.357 357.808 266.462 204.662 357.866 266.678 204.585 
358.094 267.066 204.51 358.991 268.371 204.53 370.787 270.081 205.063 
361.106 271.009 204.193 363.737 270.255 205.109 372.997 271.577 203.722 
366.968 272.718 204.418 370.489 272.263 204.744 372.968 272.726 203.863 
372.781 272.799 204.041 372.796 272.46 204.062 361.666 272.962 203.065 
362.123 273.065 203.145 370.336 273.01 204.511 372.851 273.469 203.593 
366.391 274.069 203.475 372.65 273.931 203.451 372.341 274.156 203.483 
360.28 260.57 205.042 364.716 260.493 205.205 368.959 261.5 203.92 
358.182 262.905 204.995 358.967 262.121 205.4 358.268 263.217 205.273 
357.578 264.473 204.696 357.824 264.279 204.951 366.995 264.725 205.907 
359.849 266.87 205.792 368.637 268.332 205.461 372.005 268.221 204.022 
370.296 268.994 205.131 371.738 272.689 204.468 372.616 273.149 203.992 
371.296 274.3 203.73 361.103 261.003 205.591 365.753 261.775 205.726 
361.655 262.021 206.22 366.312 262.328 205.758 359.034 262.901 205.756 
358.238 264.51 205.453 360.73 265.418 206.4 362.35 265.19 206.573 
362.207 262.561 206.448 363.54 262.529 206.429 359.86 263.702 206.277 
361.224 263.324 206.509 359.044 264.946 206.023 359.551 262.699 248.927 
360.092 263.55 248.558 361.388 263.336 248.381 359.103 264.53 248.939 
361.705 264.58 248.341 362.49 264.492 248.313 363.105 265.062 248.393 
360.691 260.918 249.573 362.798 260.347 249.677 358.845 262.145 249.516 
364.867 262.59 248.784 358.329 262.584 249.924 357.932 264.169 250.091 
364.701 264.228 248.53 359.679 266.626 249.249 362.743 266.565 248.714 
365.771 259.391 250.867 367.425 259.766 251.26 359.901 260.697 250.045 
364.376 260.523 249.636 368.358 260.621 251.145 359.008 261.316 250.032 
368.603 261.651 250.635 369.051 261.241 251.218 357.835 263.478 250.594 
369.537 263.308 250.619 357.671 264.029 250.405 357.627 264.028 250.582 
357.585 264.174 250.466 357.653 264.333 250.385 357.736 264.986 250.493 
370.907 264.7 251.175 357.686 265.789 250.606 357.705 266.114 250.5 
368.027 266.807 249.363 370.407 266.222 250.293 357.815 266.27 250.374 
357.767 266.398 250.534 372.435 268.031 251.376 359.811 268.467 250.048 
372.462 269.056 250.984 361.779 270.018 250.107 370.384 269.927 249.862 
371.889 270.118 250.424 372.279 271.751 250.566 371.763 272.585 250.531 
372.818 272.155 250.931 372.992 271.896 251.129 372.827 272.512 251.001 
373.016 272.693 251.317 372.01 273.587 250.93 371.55 274.184 251.195 
371.217 274.386 251.388 372.459 274.021 251.446 372.765 273.793 251.578 
372.242 274.296 251.588 366.399 258.868 251.625 360.93 259.476 250.999 
362.233 259.319 250.768 367.811 259.828 251.511 367.953 259.685 251.989 
358.689 260.942 250.915 368.782 260.5 251.912 358.471 261.177 251.021 
369.198 261.186 251.493 357.609 264.331 250.562 357.705 264.164 250.965 
372.154 266.555 252.046 358.801 268.103 250.544 358.336 268.115 251.258 
359.184 270.192 251.496 373.188 269.94 251.706 361.167 272.008 251.486 
368.941 271.716 250.118 367.886 272.625 250.485 361.75 273.059 252.19 
363.904 273.395 251.586 366.297 274.478 251.985 367.732 274.786 252.077 
368.406 275.056 252.366 372.888 273.905 251.871 372.188 274.551 252.019 
365.15 257.867 252.56 366.288 258.357 252.315 360.659 259.283 251.776 
358.255 261.7 251.519 357.989 262.921 251.702 358.436 269.417 252.41 
373.077 268.741 252.151 358.475 270.913 252.714 358.526 271.123 252.902 
358.77 271.368 252.868 359.18 271.649 252.778 362.683 273.89 252.862 
372.648 274.388 252.365 372.662 274.51 252.912 370.184 275.26 252.865 
371.775 274.838 252.468 365.021 257.625 253.356 365.639 257.808 253.086 
364.491 257.834 252.904 363.999 257.97 253.022 366.354 258.134 252.994 
360.239 259.452 252.84 359.441 260.159 252.669 358.516 261.21 251.841 
358.927 260.756 252.297 368.606 260.05 252.775 358.648 264.941 253.272 
358.375 270.454 252.903 358.415 270.595 253.208 358.509 271.105 253.152 
372.67 274.532 253.569 365.139 257.609 253.6 365.379 257.652 253.642 
365.233 257.676 253.801 364.319 257.858 253.667 365.488 257.81 253.883 
360.129 259.573 253.02 360.783 259.309 253.313 362.932 258.464 253.427 
[...]
POINT_DATA 550
COLOR_SCALARS scalars 3
1 0.729412 0.52549 1 0.729412 0.52549 1 0.729412 0.52549 
1 0.729412 0.52549 1 0.729412 0.52549 
1 0.729412 0.52549 1 0.729412 0.52549 
1 0.729412 0.52549 1 0.729412 0.52549 
1 0.729412 0.52549 1 0.729412 0.52549 
1 0.729412 0.52549 1 0.729412 0.52549 
1 0.729412 0.52549 1 0.729412 0.52549 
1 0.729412 0.52549 1 0.729412 0.52549 
1 0.729412 0.52549 1 0.729412 0.52549 
1 0.729412 0.52549 1 0.729412 0.52549 
1 0.729412 0.52549 1 0.729412 0.52549 
1 0.729412 0.52549 1 0.729412 0.52549 
1 0.729412 0.52549 1 0.729412 0.52549 
1 0.729412 0.52549 1 0.729412 0.52549 
1 0.729412 0.52549 1 0.729412 0.52549 
1 0.729412 0.52549 1 0.729412 0.52549 
1 0.729412 0.52549 1 0.729412 0.52549 
1 0.729412 0.52549 1 0.729412 0.52549 
1 0.729412 0.52549 1 0.729412 0.52549 
1 0.729412 0.52549 1 0.729412 0.52549 
1 0.729412 0.52549 1 0.729412 0.52549 
1 0.729412 0.52549 1 0.729412 0.52549 
1 0.729412 0.52549 1 0.729412 0.52549 
1 0.729412 0.52549 1 0.729412 0.52549 
1 0.729412 0.52549 1 0.729412 0.52549 
1 0.729412 0.52549 1 0.729412 0.52549 
1 0.729412 0.52549 1 0.729412 0.52549 
1 0.729412 0.52549 1 0.729412 0.52549 
1 0.729412 0.52549 1 0.729412 0.52549 
1 0.729412 0.52549 1 0.729412 0.52549 
1 0.729412 0.52549 1 0.729412 0.52549 
1 0.729412 0.52549 1 0.729412 0.52549 
1 0.729412 0.52549 1 0.729412 0.52549 
1 0.729412 0.52549 1 0.729412 0.52549 
1 0.729412 0.52549 1 0.729412 0.52549 
1 0.729412 0.52549 1 0.729412 0.52549 
1 0.729412 0.52549 1 0.729412 0.52549 
1 0.729412 0.52549 1 0.729412 0.52549 
1 0.729412 0.52549 1 0.729412 0.52549 
1 0.729412 0.52549 1 0.729412 0.52549 
1 0.729412 0.52549 1 0.729412 0.52549 
1 0.729412 0.52549 1 0.729412 0.52549 
1 0.729412 0.52549 1 0.729412 0.52549 
1 0.729412 0.52549 1 0.729412 0.52549 
1 0.729412 0.52549 1 0.729412 0.52549 
1 0.729412 0.52549 1 0.729412 0.52549 
1 0.729412 0.52549 1 0.729412 0.52549 
1 0.729412 0.52549 1 0.729412 0.52549 
1 0.729412 0.52549 1 0.729412 0.52549 
1 0.729412 0.52549 1 0.729412 0.52549 
1 0.729412 0.52549 1 0.729412 0.52549 
1 0.729412 0.52549 1 0.729412 0.52549 
1 0.729412 0.52549 1 0.729412 0.52549 
1 0.729412 0.52549 1 0.729412 0.52549 
1 0.729412 0.52549 1 0.729412 0.52549 
1 0.729412 0.52549 1 0.729412 0.52549 
1 0.729412 0.52549 1 0.729412 0.52549 
1 0.729412 0.52549 1 0.729412 0.52549 
1 0.729412 0.52549 1 0.729412 0.52549 
1 0.729412 0.52549 1 0.729412 0.52549 
1 0.729412 0.52549 1 0.729412 0.52549 
1 0.729412 0.52549 1 0.729412 0.52549 
1 0.729412 0.52549 1 0.729412 0.52549 
1 0.729412 0.52549 1 0.729412 0.52549 
1 0.729412 0.52549 1 0.729412 0.52549 
1 0.729412 0.52549 1 0.729412 0.52549 
1 0.729412 0.52549 1 0.729412 0.52549 
1 0.729412 0.52549 1 0.729412 0.52549 
1 0.729412 0.52549 1 0.729412 0.52549 
1 0.729412 0.52549 1 0.729412 0.52549 
1 0.729412 0.52549 1 0.729412 0.52549 
1 0.729412 0.52549 1 0.729412 0.52549 
1 0.729412 0.52549 1 0.729412 0.52549 
1 0.729412 0.52549 1 0.729412 0.52549 
1 0.729412 0.52549 1 0.729412 0.52549 
1 0.729412 0.52549 1 0.729412 0.52549 
1 0.729412 0.52549 1 0.729412 0.52549 
1 0.729412 0.52549 1 0.729412 0.52549 
1 0.729412 0.52549 1 0.729412 0.52549 
1 0.729412 0.52549 1 0.729412 0.52549 
1 0.729412 0.52549 1 0.729412 0.52549 
1 0.729412 0.52549 1 0.729412 0.52549 
1 0.729412 0.52549 1 0.729412 0.52549 
1 0.729412 0.52549 1 0.729412 0.52549 
1 0.729412 0.52549 1 0.729412 0.52549 
1 0.729412 0.52549 1 0.729412 0.52549 
1 0.729412 0.52549 1 0.729412 0.52549 
1 0.729412 0.52549 1 0.729412 0.52549 
1 0.729412 0.52549 1 0.729412 0.52549 
1 0.729412 0.52549 1 0.729412 0.52549 
1 0.729412 0.52549 1 0.729412 0.52549 
1 0.729412 0.52549 1 0.729412 0.52549 
1 0.729412 0.52549 1 0.729412 0.52549 
1 0.729412 0.52549 1 0.729412 0.52549 
1 0.729412 0.52549 1 0.729412 0.52549 
1 0.729412 0.52549 1 0.729412 0.52549 
1 0.729412 0.52549 1 0.729412 0.52549 
1 0.729412 0.52549 1 0.729412 0.52549 
1 0.729412 0.52549 1 0.729412 0.52549 
1 0.729412 0.52549 1 0.729412 0.52549 
1 0.729412 0.52549 1 0.729412 0.52549 
1 0.729412 0.52549 1 0.729412 0.52549 
1 0.729412 0.52549 1 0.729412 0.52549 
1 0.729412 0.52549 1 0.729412 0.52549 
1 0.729412 0.52549 1 0.729412 0.52549 
1 0.729412 0.52549 1 0.729412 0.52549 
1 0.729412 0.52549 1 0.729412 0.52549 
1 0.729412 0.52549 1 0.729412 0.52549 
1 0.729412 0.52549 1 0.729412 0.52549 
1 0.729412 0.52549 1 0.729412 0.52549 
1 0.729412 0.52549 1 0.729412 0.52549 
1 0.729412 0.52549 1 0.729412 0.52549 
1 0.729412 0.52549 1 0.729412 0.52549 
1 0.729412 0.52549 1 0.729412 0.52549 
1 0.729412 0.52549 1 0.729412 0.52549 
1 0.729412 0.52549 1 0.729412 0.52549 
1 0.729412 0.52549 1 0.729412 0.52549 
1 0.729412 0.52549 1 0.729412 0.52549 
1 0.729412 0.52549 1 0.729412 0.52549 
1 0.729412 0.52549 1 0.729412 0.52549 
1 0.729412 0.52549 1 0.729412 0.52549 
1 0.729412 0.52549 1 0.729412 0.52549 
1 0.729412 0.52549 1 0.729412 0.52549 
1 0.729412 0.52549 1 0.729412 0.52549 
1 0.729412 0.52549 1 0.729412 0.52549 
1 0.729412 0.52549 1 0.729412 0.52549 
1 0.729412 0.52549 1 0.729412 0.52549 
1 0.729412 0.52549 1 0.729412 0.52549 
1 0.729412 0.52549 1 0.729412 0.52549 
1 0.729412 0.52549 1 0.729412 0.52549 
1 0.729412 0.52549 1 0.729412 0.52549 
1 0.729412 0.52549 1 0.729412 0.52549 
1 0.729412 0.52549 1 0.729412 0.52549 
1 0.729412 0.52549 1 0.729412 0.52549 
1 0.729412 0.52549 1 0.729412 0.52549 
1 0.729412 0.52549 1 0.729412 0.52549 
1 0.729412 0.52549 1 0.729412 0.52549 
1 0.729412 0.52549 1 0.729412 0.52549 
1 0.729412 0.52549 1 0.729412 0.52549 
1 0.729412 0.52549 1 0.729412 0.52549 
1 0.729412 0.52549 1 0.729412 0.52549 
1 0.729412 0.52549 1 0.729412 0.52549 
1 0.729412 0.52549 1 0.729412 0.52549 
1 0.729412 0.52549 1 0.729412 0.52549 
1 0.729412 0.52549 1 0.729412 0.52549 
1 0.729412 0.52549 1 0.729412 0.52549 
1 0.729412 0.52549 1 0.729412 0.52549 
1 0.729412 0.52549 1 0.729412 0.52549 
1 0.729412 0.52549 1 0.729412 0.52549 
1 0.729412 0.52549 1 0.729412 0.52549 
1 0.729412 0.52549 1 0.729412 0.52549 
1 0.729412 0.52549 1 0.729412 0.52549 
1 0.729412 0.52549 1 0.729412 0.52549 
1 0.729412 0.52549 1 0.729412 0.52549 
1 0.729412 0.52549 1 0.729412 0.52549 
1 0.729412 0.52549 1 0.729412 0.52549 
1 0.729412 0.52549 1 0.729412 0.52549 
1 0.729412 0.52549 1 0.729412 0.52549 
1 0.729412 0.52549 1 0.729412 0.52549 
1 0.729412 0.52549 1 0.729412 0.52549 
1 0.729412 0.52549 1 0.729412 0.52549 
1 0.729412 0.52549 1 0.729412 0.52549 
1 0.729412 0.52549 1 0.729412 0.52549 
1 0.729412 0.52549 1 0.729412 0.52549 
1 0.729412 0.52549 1 0.729412 0.52549 
1 0.729412 0.52549 1 0.729412 0.52549 
1 0.729412 0.52549 1 0.729412 0.52549 
1 0.729412 0.52549 1 0.729412 0.52549 
1 0.729412 0.52549 1 0.729412 0.52549 
1 0.729412 0.52549 1 0.729412 0.52549 
1 0.729412 0.52549 1 0.729412 0.52549 
1 0.729412 0.52549 1 0.729412 0.52549 
1 0.729412 0.52549 1 0.729412 0.52549 
1 0.729412 0.52549 1 0.729412 0.52549 
1 0.729412 0.52549 1 0.729412 0.52549 
1 0.729412 0.52549 1 0.729412 0.52549 
1 0.729412 0.52549 1 0.729412 0.52549 
1 0.729412 0.52549 1 0.729412 0.52549 
1 0.729412 0.52549 1 0.729412 0.52549 
1 0.729412 0.52549 1 0.729412 0.52549 
1 0.729412 0.52549 1 0.729412 0.52549 
1 0.729412 0.52549 1 0.729412 0.52549 
1 0.729412 0.52549 1 0.729412 0.52549 
1 0.729412 0.52549 1 0.729412 0.52549 
1 0.729412 0.52549 1 0.729412 0.52549 
1 0.729412 0.52549 1 0.729412 0.52549 
1 0.729412 0.52549 1 0.729412 0.52549 
1 0.729412 0.52549 1 0.729412 0.52549 
1 0.729412 0.52549 1 0.729412 0.52549 
1 0.729412 0.52549 1 0.729412 0.52549 
1 0.729412 0.52549 1 0.729412 0.52549 
1 0.729412 0.52549 1 0.729412 0.52549 
1 0.729412 0.52549 1 0.729412 0.52549 
1 0.729412 0.52549 1 0.729412 0.52549 
1 0.729412 0.52549 1 0.729412 0.52549 
1 0.729412 0.52549 1 0.729412 0.52549 
1 0.729412 0.52549 1 0.729412 0.52549 
1 0.729412 0.52549 1 0.729412 0.52549 
1 0.729412 0.52549 1 0.729412 0.52549 
1 0.729412 0.52549 1 0.729412 0.52549 
1 0.729412 0.52549 1 0.729412 0.52549 
1 0.729412 0.52549 1 0.729412 0.52549 
1 0.729412 0.52549 1 0.729412 0.52549 
1 0.729412 0.52549 1 0.729412 0.52549 
1 0.729412 0.52549 1 0.729412 0.52549 
1 0.729412 0.52549 1 0.729412 0.52549 
1 0.729412 0.52549 1 0.729412 0.52549 
1 0.729412 0.52549 1 0.729412 0.52549 
1 0.729412 0.52549 1 0.729412 0.52549 
1 0.729412 0.52549 1 0.729412 0.52549 
1 0.729412 0.52549 1 0.729412 0.52549 
1 0.729412 0.52549 1 0.729412 0.52549 
1 0.729412 0.52549 1 0.729412 0.52549 
1 0.729412 0.52549 1 0.729412 0.52549 
1 0.729412 0.52549 1 0.729412 0.52549 
1 0.729412 0.52549 1 0.729412 0.52549 
1 0.729412 0.52549 1 0.729412 0.52549 
1 0.729412 0.52549 1 0.729412 0.52549 
1 0.729412 0.52549 1 0.729412 0.52549 
1 0.729412 0.52549 1 0.729412 0.52549 
1 0.729412 0.52549 1 0.729412 0.52549 
1 0.729412 0.52549 1 0.729412 0.52549 
1 0.729412 0.52549 1 0.729412 0.52549 
1 0.729412 0.52549 1 0.729412 0.52549 
1 0.729412 0.52549 1 0.729412 0.52549 
1 0.729412 0.52549 1 0.729412 0.52549 
1 0.729412 0.52549 1 0.729412 0.52549 
1 0.729412 0.52549 1 0.729412 0.52549 
1 0.729412 0.52549 1 0.729412 0.52549 
1 0.729412 0.52549 1 0.729412 0.52549 
1 0.729412 0.52549 1 0.729412 0.52549 
1 0.729412 0.52549 1 0.729412 0.52549 
1 0.729412 0.52549 1 0.729412 0.52549 
1 0.729412 0.52549 1 0.729412 0.52549 
1 0.729412 0.52549 1 0.729412 0.52549 
1 0.729412 0.52549 1 0.729412 0.52549 
1 0.729412 0.52549 1 0.729412 0.52549 
1 0.729412 0.52549 1 0.729412 0.52549 
1 0.729412 0.52549 1 0.729412 0.52549 
1 0.729412 0.52549 1 0.729412 0.52549 
1 0.729412 0.52549 1 0.729412 0.52549 
1 0.729412 0.52549 1 0.729412 0.52549 
1 0.729412 0.52549 1 0.729412 0.52549 
1 0.729412 0.52549 1 0.729412 0.52549 
1 0.729412 0.52549 1 0.729412 0.52549 
1 0.729412 0.52549 1 0.729412 0.52549 
1 0.729412 0.52549 1 0.729412 0.52549 
1 0.729412 0.52549 1 0.729412 0.52549 
1 0.729412 0.52549 1 0.729412 0.52549 
1 0.729412 0.52549 1 0.729412 0.52549 
1 0.729412 0.52549 1 0.729412 0.52549 
1 0.729412 0.52549 1 0.729412 0.52549 
1 0.729412 0.52549 1 0.729412 0.52549 
1 0.729412 0.52549 1 0.729412 0.52549 
1 0.729412 0.52549 1 0.729412 0.52549 
1 0.729412 0.52549 1 0.729412 0.52549 
1 0.729412 0.52549 1 0.729412 0.52549 
1 0.729412 0.52549 1 0.729412 0.52549 
1 0.729412 0.52549 1 0.729412 0.52549 
1 0.729412 0.52549 1 0.729412 0.52549 
1 0.729412 0.52549 1 0.729412 0.52549 
1 0.729412 0.52549 1 0.729412 0.52549 
1 0.729412 0.52549 1 0.729412 0.52549 
1 0.729412 0.52549 1 0.729412 0.52549 
1 0.729412 0.52549 1 0.729412 0.52549 
1 0.729412 0.52549 1 0.729412 0.52549 
1 0.729412 0.52549 1 0.729412 0.52549 
1 0.729412 0.52549 1 0.729412 0.52549 
1 0.729412 0.52549 1 0.729412 0.52549 
1 0.729412 0.52549 1 0.729412 0.52549 
1 0.729412 0.52549 1 0.729412 0.52549 
1 0.729412 0.52549 1 0.729412 0.52549 
1 0.729412 0.52549 1 0.729412 0.52549 
1 0.729412 0.52549 1 0.729412 0.52549 
1 0.729412 0.52549 
NORMALS Normals float
-0.318601 -0.588566 -0.743023 0.0838319 -0.535005 -0.84068 0.238039 -0.318982 -0.917381 
0.395897 -0.420502 -0.81636 -0.418762 -0.221244 -0.880732 -0.280137 0.253144 -0.925981 
-0.0946838 -0.203166 -0.974556 0.0883725 0.137586 -0.98654 0.0826518 0.481505 -0.872537 
0.391254 -0.695035 -0.603197 0.573477 -0.446082 -0.687121 -0.544815 0.432327 -0.71852 
0.397362 0.262083 -0.879441 -0.240106 0.666703 -0.70559 -0.315128 0.821688 -0.474893 
0.0299721 0.648496 -0.760628 0.0188814 0.822193 -0.568896 0.589309 -0.456759 -0.666398 
0.611121 -0.258055 -0.748291 -0.739486 0.103854 -0.665113 -0.530911 0.726526 -0.436227 
0.604534 0.326316 -0.726675 0.473321 0.537894 -0.697594 -0.604462 -0.450153 -0.657258 
-0.49663 -0.676928 -0.543256 -0.650711 -0.546959 -0.526698 -0.362911 -0.776787 -0.514682 
0.782872 0.00563334 -0.622157 -0.464317 0.743315 -0.481551 -0.448578 0.724948 -0.522712 
0.686549 0.291861 -0.665933 0.501796 0.663103 -0.555423 0.0906454 0.896113 -0.434471 
-0.589203 -0.593167 -0.548629 0.0666515 -0.891538 -0.448015 0.450403 -0.704337 -0.548677 
-0.667871 -0.514484 -0.537824 -0.736551 -0.182501 -0.651295 0.852661 0.0460059 -0.520434 
0.71611 0.490924 -0.496164 -0.4552 -0.795827 -0.399315 0.488712 -0.757087 -0.433567 
0.713238 -0.42205 -0.559612 0.621921 -0.590689 -0.514101 0.782955 -0.46492 -0.413316 
-0.838263 -0.235956 -0.491569 -0.613934 0.54466 -0.571341 0.892907 0.305038 -0.331163 
0.556851 0.723704 -0.407638 -0.722273 -0.557346 -0.409495 -0.88376 -0.178369 -0.432611 
-0.913853 0.145132 -0.379221 -0.823038 0.0915667 -0.560557 -0.678216 0.633538 -0.372361 
-0.549914 0.725495 -0.413824 -0.203433 -0.911932 -0.356362 -0.54764 -0.785915 -0.287103 
-0.829422 -0.395211 -0.394799 0.93391 -0.207612 -0.29105 0.91502 0.211914 -0.343264 
-0.372761 0.859642 -0.349379 0.653398 0.703095 -0.280587 -0.0141521 0.942674 -0.333414 
0.375774 0.848463 -0.372698 0.304239 0.932213 -0.196003 -0.696007 -0.676747 -0.239974 
-0.905468 0.352777 -0.235958 -0.74334 0.586132 -0.322327 -0.489928 0.853634 -0.17686 
0.794259 0.591614 -0.138366 0.379605 -0.793175 -0.476208 -0.957386 -0.0239902 -0.287813 
-0.638497 0.743451 -0.199006 -0.976212 0.0976579 -0.193578 -0.943955 0.262886 -0.199597 
-0.946421 -0.243636 -0.211964 -0.961984 0.16453 -0.217984 -0.752082 0.639753 -0.158398 
0.937952 0.250014 -0.240291 -0.221898 0.95581 -0.192844 -0.26138 -0.840566 -0.474478 
0.686227 -0.617131 -0.385022 0.907439 -0.307511 -0.286342 0.977253 3.66899e-05 -0.212075 
0.66384 0.71869 -0.206885 -0.230883 0.971671 -0.0504854 0.273584 -0.7642 -0.58408 
0.0106586 -0.891276 -0.453336 0.447046 -0.671149 -0.591363 0.69116 -0.580109 -0.431011 
-0.909836 -0.3065 -0.279744 -0.940664 0.247661 -0.231981 -0.603747 0.78015 -0.163877 
0.860184 0.501928 -0.0902821 0.795299 0.605636 -0.0265411 0.199866 -0.69268 -0.693 
0.734371 -0.464074 -0.495313 0.600872 -0.610967 -0.515434 -0.24521 -0.601811 -0.760063 
0.383177 -0.760542 -0.524168 -0.869052 -0.382096 -0.314248 -0.973774 -0.0467483 -0.222662 
-0.840924 0.505619 -0.192865 0.605795 0.793967 -0.0512705 0.0430329 0.999065 0.00427547 
0.249714 0.964724 -0.0833689 0.462871 -0.493493 -0.736353 0.229054 -0.700937 -0.675442 
0.125855 -0.48079 -0.867756 0.528521 -0.638491 -0.55946 0.557455 -0.571415 -0.60227 
0.505495 -0.574938 -0.643367 0.577213 -0.423644 -0.698106 0.675194 -0.492611 -0.549042 
0.333712 -0.525213 -0.782808 0.557149 -0.622426 -0.549701 0.780994 -0.493404 -0.382886 
0.927959 -0.329275 -0.17456 -0.631273 -0.526066 -0.569867 -0.936242 0.0565092 -0.346783 
-0.0825441 -0.542438 -0.836031 0.551675 -0.703958 -0.447323 -0.249249 -0.425353 -0.870029 
-0.450368 0.89235 -0.02968 0.487825 0.871722 -0.0461218 0.260708 0.965084 -0.0253706 
-0.129397 -0.645111 -0.753053 0.146128 -0.784838 -0.602226 -0.238188 -0.708289 -0.664525 
-0.377734 -0.523228 -0.763904 0.873394 -0.481853 -0.0707134 0.979461 0.18019 -0.09049 
0.48469 -0.779013 -0.397762 -0.381061 -0.577903 -0.721679 0.667002 -0.718389 -0.197551 
-0.429726 -0.46499 -0.774028 -0.521294 -0.303894 -0.797434 0.764455 -0.603691 -0.226199 
0.967173 -0.253082 -0.0229311 -0.936605 0.0327166 -0.348856 -0.959468 0.177438 -0.218945 
-0.476083 0.871544 0.117285 -0.162284 -0.96649 -0.1989 -0.0557928 -0.858644 -0.509527 
-0.337394 -0.879848 -0.334713 0.584283 -0.758629 -0.288262 -0.451664 -0.75674 -0.472593 
-0.3834 -0.906398 -0.177333 0.641846 -0.760847 -0.0956364 -0.617776 -0.545234 -0.566633 
-0.694212 -0.293393 -0.657259 0.906751 -0.413211 0.0840214 -0.835821 -0.137255 -0.531568 
0.988007 0.134261 0.0762686 -0.785187 0.603947 -0.136852 -0.0830736 0.983858 0.158498 
0.0135282 -0.990046 0.140093 0.135814 -0.984537 -0.11064 0.350714 -0.934235 -0.0648378 
-0.29496 -0.94554 0.137671 0.527948 -0.844334 0.0914941 0.631662 -0.765548 0.122225 
-0.70082 -0.70104 -0.131886 -0.783093 -0.551312 -0.287785 -0.736493 -0.439598 -0.514133 
-0.965236 -0.0455546 -0.257378 -0.925315 0.228309 -0.302766 -0.792726 0.55314 -0.256167 
-0.42249 0.872678 0.244817 -0.212678 0.915368 0.341862 0.538641 0.842314 0.0193252 
0.0740437 0.956055 0.283684 -0.175371 -0.910403 0.374714 -0.503657 -0.863806 0.0130383 
0.653714 -0.681446 0.329075 -0.759393 -0.646658 0.0718057 -0.817708 -0.532682 -0.218183 
0.678531 -0.70491 0.206634 -0.836358 -0.423324 -0.348285 -0.917347 -0.388065 -0.0887704 
-0.921987 -0.132787 -0.363741 0.901415 -0.362856 0.236193 -0.990298 0.106072 -0.0897669 
-0.970516 0.0954508 0.22133 0.893909 -0.16025 0.418626 0.971996 -0.14607 0.184087 
-0.997883 0.0624697 -0.0180991 -0.868887 0.274464 0.411952 -0.928509 0.370764 -0.0201376 
-0.766124 0.515089 0.384367 -0.753919 0.656935 0.00653812 -0.563583 0.775746 0.283889 
-0.590241 0.721301 0.362411 -0.529824 0.76942 0.356762 0.912255 0.356832 0.201149 
-0.507012 0.815201 0.279975 0.543544 0.812292 0.211523 0.12546 -0.888509 0.441375 
0.249378 -0.814833 0.523314 -0.230245 -0.919028 0.319959 0.429903 -0.817543 0.383154 
0.577627 -0.638961 0.508012 -0.254618 -0.779196 0.572733 -0.863914 -0.489412 0.11886 
-0.656771 -0.671512 0.343108 0.724996 -0.636615 0.262873 -0.948942 -0.220681 -0.225408 
-0.968713 -0.248178 -0.00189326 0.806666 -0.538975 0.242478 -0.962624 -0.166361 -0.213727 
-0.936966 -0.0191091 -0.348898 0.864711 -0.47034 0.176222 -0.920071 0.252645 0.2994 
-0.615375 0.442589 0.652249 -0.603486 0.435318 0.668059 -0.555205 0.631255 0.541538 
-0.593694 0.474854 0.649646 -0.487864 0.459461 0.742216 0.932889 0.206826 0.294857 
-0.454877 0.612234 0.646728 -0.49629 0.75283 0.43237 -0.239574 0.805894 0.541423 
0.791501 0.595131 0.139084 -0.235536 0.665679 0.708092 -0.12637 0.629492 0.766662 
0.266346 0.898902 0.3479 -0.0317262 0.830533 0.556065 -0.0243634 -0.782525 0.622143 
0.375743 -0.6304 0.679273 -0.611643 -0.571438 0.547131 0.662759 -0.363363 0.654765 
-0.913438 -0.331845 0.235605 -0.959202 -0.254121 -0.123912 -0.808319 -0.286495 0.514335 
-0.972534 -0.0371149 0.229785 -0.980279 0.172863 -0.0957724 -0.947925 0.148095 0.281969 
-0.893156 0.0756205 0.443343 -0.986284 0.0904725 0.13805 0.616599 -0.267792 0.740333 
-0.970718 0.175781 -0.163732 -0.733232 0.318469 0.600789 -0.843405 0.444765 0.301415 
-0.811451 0.435338 0.389907 -0.548553 0.438302 0.712026 0.371918 -0.0265502 0.927886 
-0.236382 0.405977 0.882783 0.00203802 0.271862 0.962334 0.841002 -0.0803674 0.53503 
-0.117129 0.436735 0.891932 0.035476 0.185118 0.982076 0.801171 0.18187 0.570129 
0.466386 0.204981 0.860504 0.437619 0.000449601 0.89916 -0.316701 0.740943 0.592202 
-0.00286773 0.497328 0.867558 -0.0516357 0.44962 0.891726 0.772989 0.395404 0.496128 
-0.200841 0.657284 0.726389 0.64895 0.512558 0.56227 0.413797 0.695556 0.587345 
-0.390228 -0.65502 0.647048 0.181048 -0.631925 0.753586 0.538859 -0.599738 0.591562 
-0.823928 -0.393619 0.407685 -0.414564 -0.420782 0.806895 -0.703776 -0.185963 0.68565 
-0.814478 0.152696 0.559741 -0.747968 -0.0772736 0.659221 0.253575 -0.0678434 0.964934 
-0.307924 0.367715 0.877478 0.145191 0.0477827 0.988249 0.70395 -0.143896 0.69552 
0.265074 -0.0979326 0.959242 0.253809 0.313241 0.915129 0.411167 0.363715 0.835855 
0.127656 0.665393 0.735497 -0.0976847 -0.541841 0.834785 0.280882 -0.373406 0.884123 
-0.0838458 -0.422232 0.902602 0.427241 -0.396275 0.812669 -0.508344 -0.284459 0.812816 
-0.688671 -0.0240995 0.724673 -0.119676 0.116339 0.985973 0.0380151 0.147931 0.988267 
0.031548 -0.238697 0.970582 0.131522 -0.202896 0.970327 -0.348791 -0.144543 0.925987 
-0.186653 -0.203808 0.961053 -0.47655 0.129396 0.869573 -0.370882 -0.332316 -0.867187 
-0.233158 -0.000189207 -0.972439 -0.119314 -0.143948 -0.982366 -0.526856 0.0521284 -0.848354 
-0.0815801 0.0260891 -0.996325 -0.0226094 0.0958789 -0.995136 0.0839786 0.0657855 -0.994294 
-0.159789 -0.535735 -0.829129 -0.0481372 -0.607694 -0.792711 -0.632821 -0.387111 -0.670584 
0.129856 -0.294142 -0.946899 -0.84596 -0.241367 -0.475493 -0.743791 -0.0826821 -0.663279 
0.167143 0.0405836 -0.985097 -0.288124 0.283921 -0.914534 -0.024682 0.269595 -0.962657 
0.18811 -0.652407 -0.734152 0.383431 -0.689575 -0.614384 -0.408359 -0.678813 -0.610291 
0.0833949 -0.645601 -0.759108 0.563238 -0.609078 -0.55838 -0.535753 -0.561303 -0.630799 
0.346433 -0.404783 -0.846247 0.630912 -0.455402 -0.628139 -0.920591 -0.338931 -0.194006 