# vtk DataFile Version 4.2
vtk output
ASCII
DATASET POLYDATA
POINTS 488 float
373.723 271.564 214.496 373.577 271.693 214.476 373.831 271.397 214.66 
373.005 272.392 214.609 372.967 272.283 214.577 372.842 272.409 214.669 
373.647 271.694 214.593 373.117 272.267 214.614 373.762 268.438 215.034 
372.876 269.246 214.585 373.879 269.039 215.025 374.106 268.431 215.396 
370.954 272.09 214.959 373.211 271.862 214.533 371.331 272.293 214.926 
370.956 272.359 215.15 372.545 272.239 214.658 373.538 271.862 214.75 
373.275 272.158 214.809 372.08 272.47 214.937 372.598 272.483 214.951 
373.013 272.376 214.962 372.744 261.072 216.031 372.417 260.607 216.282 
373.189 261.117 216.099 373.299 260.816 216.287 373.539 261.523 216.11 
373.888 261.572 216.317 374.083 261.828 216.433 373.164 263.969 215.535 
374.179 263.117 216.358 372.44 265.248 215.185 373.197 266.198 215.225 
373.009 266.861 215.032 372.422 268.662 214.662 374.349 268.56 215.88 
374.261 269.528 215.754 374.107 270.461 215.594 370.45 271.159 214.979 
369.473 271.522 215.514 373.732 271.661 215.43 369.598 272.151 215.729 
370.41 272.175 215.287 372.409 272.554 215.331 372.517 272.44 215.66 
370.699 272.495 215.57 371.339 272.617 215.496 373.508 260.811 216.426 
371.97 262.182 215.666 374.432 262.593 216.851 368.475 267.113 215.993 
368.735 271.054 215.982 373.766 271.475 215.807 373.649 271.474 216.217 
373.838 271.198 216.183 368.85 271.749 216.214 370.52 272.54 216.099 
371.247 272.542 216.16 370.014 272.428 216.02 368.279 260.745 217.015 
374.167 260.987 217.234 374.21 261.312 216.947 374.744 266.833 217.346 
367.456 267.613 216.647 374.613 267.886 217.29 367.038 269.035 217.234 
367.62 270.702 217.347 373.531 271.081 216.992 368.293 271.594 217.175 
369.967 272.294 216.861 371.646 271.896 217.221 368.558 271.81 216.973 
369.491 272.229 216.818 369.619 255.659 219.283 368.027 258.211 217.979 
366.357 261.932 217.589 374.936 263.93 218.176 366.259 267.616 217.658 
366.124 268.852 218.311 366.873 270.303 218.403 367.392 270.749 218.091 
368.295 271.547 217.524 372.653 258.296 218.7 373.778 259.506 218.946 
374.383 260.779 218.517 374.849 262.259 218.849 364.443 266.498 219.237 
365.451 268.588 219.226 366.209 269.616 219.192 366.623 270.061 218.781 
370.303 270.936 218.919 367.054 270.589 218.464 367.219 270.7 218.498 
367.591 270.821 218.529 368.108 271.233 218.026 367.054 270.601 218.612 
366.863 251.356 221.198 366.797 251.097 221.396 367.596 252.365 220.897 
367.155 253.428 220.29 368.391 252.946 220.884 366.034 254.299 220.003 
369.526 253.852 220.836 362.253 258.508 220.005 374.287 260.114 219.965 
361.286 260.953 220.28 374.736 261.505 219.55 364.486 267.536 220.211 
374.018 267.743 219.944 372.676 269.182 219.901 365.91 269.413 219.556 
366.089 269.562 219.584 366.45 269.724 219.598 367.105 269.953 219.666 
365.941 269.444 219.7 365.929 250.016 222.208 366.83 250.077 222.084 
367.025 250.619 221.767 365.35 251.486 221.483 366.607 252.055 220.937 
368.42 251.807 221.819 369.774 253.681 221.229 360.724 257.509 221.157 
359.929 259.942 221.327 374.841 263.43 220.609 361.574 263.694 220.951 
362.952 265.698 221.321 363.435 266.185 220.737 363.827 266.764 220.755 
373.91 267.527 220.458 373.677 267.518 220.755 365.874 269.06 220.167 
367.776 269.198 220.79 366.1 249.109 222.901 366.829 249.739 222.324 
366.762 249.487 222.595 367.037 249.818 222.391 364.588 250.582 222.427 
364.423 251.148 222.122 368.676 251.69 222.203 369.777 253.396 221.602 
371.317 255.191 221.793 360.031 256.26 222.318 372.515 256.907 222.094 
359.51 257.242 222.412 374.635 261.764 221.33 359.543 261.707 222.244 
360.04 262.28 221.901 359.852 262.305 222.261 360.162 262.695 222.117 
360.448 263.095 222.211 364.537 267.422 221.29 369.067 268.765 221.297 
366.147 248.931 223.113 366.021 248.84 223.334 366.642 248.899 223.318 
366.862 249.198 223.039 364.263 250.249 223.274 362.975 251.806 223.013 
361.691 253.318 222.925 360.595 254.685 223.031 372.907 257.675 222.76 
359.013 257.632 223.293 373.621 258.956 222.195 358.863 259.93 223.111 
374.247 260.384 221.886 358.942 260.385 222.663 374.439 261.957 222.07 
358.915 260.878 222.763 358.929 261.034 222.902 359.001 261.179 222.749 
360.068 262.644 222.442 373.86 264.832 222.409 362.445 265.112 222.239 
366.123 248.719 223.642 365.652 248.969 223.496 366.484 248.731 223.598 
367.044 249.085 223.546 364.598 249.837 223.542 367.589 249.809 223.509 
363.6 250.9 223.656 368.041 250.347 223.726 363.196 251.324 223.609 
362.045 252.719 223.282 362.272 252.384 223.639 370.144 253.257 223.812 
360.283 255.227 224.071 359.924 256.085 224.106 359.337 257.018 223.805 
373.145 258.591 223.389 358.993 260.544 223.329 359.082 261.312 222.889 
359.44 261.672 223 359.708 261.369 223.651 374.058 262.895 222.796 
360.631 262.711 223.349 373.525 263.528 223.292 361.158 262.945 223.6 
371.941 264.739 223.728 369.501 265.678 223.698 365.867 248.71 223.854 
365.924 248.678 224.018 365.795 248.73 224.023 365.658 248.898 224.103 
366.595 248.736 223.759 367.24 249.327 223.623 366.994 249.097 223.809 
367.647 249.964 223.982 363.261 251.355 223.967 363.184 251.669 224.375 
361.122 254.016 224.244 360.842 254.878 224.624 360.322 255.885 224.551 
359.233 258.146 223.909 360.448 257.092 224.9 372.377 257.39 223.849 
372.822 258.503 223.901 373.167 259.669 223.886 361.845 260.546 225.009 
372.942 260.682 224.234 363.05 262.02 224.895 371.424 262.459 224.835 
369.276 263.554 224.896 365.934 248.845 224.152 365.609 249.256 224.317 
365.243 249.964 224.607 367.238 249.938 224.424 366.501 250.707 225.198 
368.211 251.126 224.861 365.711 251.367 225.504 368.837 251.803 224.883 
360.826 255.439 224.813 363.147 255.306 225.814 370.591 254.754 224.748 
370.798 255.91 225.184 371.121 256.323 225.035 372.381 259.204 224.61 
364.056 260.153 225.742 371.663 260.866 225.039 367.06 261.328 225.836 
367.776 251.125 225.105 366.643 252.127 225.803 367.195 251.906 225.654 
368.467 252.328 225.386 367.093 255.171 226.307 365.373 256.419 226.298 
370.206 255.609 225.472 365.969 251.162 229.606 366.745 250.537 229.901 
367.458 250.4 230.193 368.04 250.733 230.184 364.86 251.759 229.653 
368.417 251.081 230.213 368.785 251.474 230.247 368.984 251.817 230.17 
369.288 252.98 229.874 364.784 254.678 228.957 368.048 254.163 228.998 
369.945 253.503 230.237 370.052 257.341 229.217 371.613 257.425 230.215 
364.713 260.831 229.296 366.269 248.651 230.809 366.216 248.504 230.881 
366.077 248.639 230.955 366.283 248.489 230.88 365.977 249 230.716 
366.347 248.984 230.633 366.407 248.556 230.951 366.609 248.653 230.971 
365.204 249.648 230.8 367.593 249.957 230.845 363.901 250.895 230.897 
368.228 250.755 230.291 362.64 252.442 230.932 361.743 253.51 230.971 
363.875 252.641 229.774 369.61 252.459 230.683 361.602 254.27 230.523 
363.629 253.443 229.58 360.532 255.098 231.011 371.056 255.369 230.39 
360.169 256.538 230.673 372.861 258.76 231.016 361.696 260.359 230.014 
372.883 260.801 230.698 373.221 260.525 230.995 372.454 262.069 230.618 
366.246 248.495 230.96 366.255 248.59 231.217 365.506 249.032 231.342 
366.996 248.924 231.288 366.951 248.878 231.47 367.491 249.705 231.498 
363.709 250.98 231.087 362.827 252.039 231.124 363.081 251.713 231.31 
361.923 253.109 231.165 369.372 251.921 231.274 361.053 254.169 231.19 
361.728 253.298 231.378 360.23 255.418 231.189 370.791 254.185 231.337 
360.11 255.494 231.43 371.44 255.42 231.405 359.449 256.852 231.436 
358.813 259.025 231.483 359.428 258.625 230.912 358.761 259.554 231.652 
359.855 259.191 230.669 358.927 259.92 231.428 359.047 260.329 231.409 
359.266 260.06 231.177 373.933 260.392 231.94 359.497 261.027 231.335 
371.519 263.768 230.74 363.456 264.493 231.405 365.478 264.357 230.739 
366.306 248.656 231.538 366.444 248.757 231.731 366.801 248.786 231.547 
365.276 249.385 231.684 366.953 249.043 231.721 364.436 250.2 231.82 
363.271 251.489 231.661 361.54 253.504 231.591 360.68 254.586 231.591 
361.4 253.755 231.795 371.114 254.709 231.912 359.842 255.989 231.747 
358.79 258.317 231.739 358.775 258.448 231.965 358.722 258.867 231.773 
358.698 259.387 231.97 359.15 260.819 231.57 359.649 261.533 231.57 
359.732 262.028 232.053 374.05 263.391 232.543 360.762 263.335 232.471 
362.762 265.057 232.501 366.226 248.782 231.733 366.322 248.911 231.906 
366.539 248.975 231.951 366.831 249.352 232.153 364.322 250.408 231.952 
367.232 250.129 232.626 367.667 250.843 232.849 364.268 250.703 232.168 
363.21 251.878 232.167 368.851 251.73 232.557 362.15 253.31 232.307 
359.729 256.258 231.98 360.005 255.959 232.122 359 259.013 232.544 
374.47 261.253 233.103 358.985 261.246 232.319 374.611 263.195 233.764 
361.16 263.735 233.021 363.074 265.656 233.18 363.673 266.239 233.18 
365.106 266.666 232.616 368.964 267.05 232.312 363.811 266.61 233.543 
372.931 267.067 233.696 366.271 267.958 233.401 364.615 252.138 233.408 
363.507 254.017 233.838 360.424 257.964 233.661 374.207 260.051 233.471 
360.737 262.319 233.976 362.466 264.882 233.85 374.229 266.209 234.514 
363.847 266.783 234.195 373.257 267.471 234.34 365.259 268.045 234.062 
367.014 251.754 233.867 365.825 252.325 234.017 366.847 252.866 234.462 
368.718 253.167 234.043 361.519 262.422 234.559 362.527 264.41 234.476 
365.545 268.787 235.193 371.424 269.856 235.317 366.597 269.798 235.51 
365.975 269.435 235.317 366.679 251.385 233.787 368.55 254.341 235.044 
372.864 258.23 235.562 374.201 260.441 235.807 374.928 263.921 235.937 
373.824 268.723 236.249 365.806 269.079 235.711 372.288 270.074 236.039 
373.589 269.185 236.381 366.575 269.93 236.143 367.73 270.866 236.568 
367.04 270.534 236.339 373.358 259.332 236.374 374.802 262.591 236.377 
374.892 264.109 236.661 365.624 266.579 236.899 366.084 268.497 236.742 
373.971 269.525 237.389 371.381 271.22 236.753 368.932 271.754 237.401 
372.952 259.703 237.538 374.765 263.479 237.177 366.408 268.06 237.309 
366.826 267.583 237.819 366.653 268.985 237.25 366.96 269.824 237.211 
374.26 269.551 238.421 371.7 271.81 237.562 368.214 271.442 237.959 
[...]
POINT_DATA 488
COLOR_SCALARS scalars 3
1 0.729412 0.52549 1 0.729412 0.52549 1 0.729412 0.52549 
1 0.729412 0.52549 1 0.729412 0.52549 
1 0.729412 0.52549 1 0.729412 0.52549 
1 0.729412 0.52549 1 0.729412 0.52549 
1 0.729412 0.52549 1 0.729412 0.52549 
1 0.729412 0.52549 1 0.729412 0.52549 
1 0.729412 0.52549 1 0.729412 0.52549 
1 0.729412 0.52549 1 0.729412 0.52549 
1 0.729412 0.52549 1 0.729412 0.52549 
1 0.729412 0.52549 1 0.729412 0.52549 
1 0.729412 0.52549 1 0.729412 0.52549 
1 0.729412 0.52549 1 0.729412 0.52549 
1 0.729412 0.52549 1 0.729412 0.52549 
1 0.729412 0.52549 1 0.729412 0.52549 
1 0.729412 0.52549 1 0.729412 0.52549 
1 0.729412 0.52549 1 0.729412 0.52549 
1 0.729412 0.52549 1 0.729412 0.52549 
1 0.729412 0.52549 1 0.729412 0.52549 
1 0.729412 0.52549 1 0.729412 0.52549 
1 0.729412 0.52549 1 0.729412 0.52549 
1 0.729412 0.52549 1 0.729412 0.52549 
1 0.729412 0.52549 1 0.729412 0.52549 
1 0.729412 0.52549 1 0.729412 0.52549 
1 0.729412 0.52549 1 0.729412 0.52549 
1 0.729412 0.52549 1 0.729412 0.52549 
1 0.729412 0.52549 1 0.729412 0.52549 
1 0.729412 0.52549 1 0.729412 0.52549 
1 0.729412 0.52549 1 0.729412 0.52549 
1 0.729412 0.52549 1 0.729412 0.52549 
1 0.729412 0.52549 1 0.729412 0.52549 
1 0.729412 0.52549 1 0.729412 0.52549 
1 0.729412 0.52549 1 0.729412 0.52549 
1 0.729412 0.52549 1 0.729412 0.52549 
1 0.729412 0.52549 1 0.729412 0.52549 
1 0.729412 0.52549 1 0.729412 0.52549 
1 0.729412 0.52549 1 0.729412 0.52549 
1 0.729412 0.52549 1 0.729412 0.52549 
1 0.729412 0.52549 1 0.729412 0.52549 
1 0.729412 0.52549 1 0.729412 0.52549 
1 0.729412 0.52549 1 0.729412 0.52549 
1 0.729412 0.52549 1 0.729412 0.52549 
1 0.729412 0.52549 1 0.729412 0.52549 
1 0.729412 0.52549 1 0.729412 0.52549 
1 0.729412 0.52549 1 0.729412 0.52549 
1 0.729412 0.52549 1 0.729412 0.52549 
1 0.729412 0.52549 1 0.729412 0.52549 
1 0.729412 0.52549 1 0.729412 0.52549 
1 0.729412 0.52549 1 0.729412 0.52549 
1 0.729412 0.52549 1 0.729412 0.52549 
1 0.729412 0.52549 1 0.729412 0.52549 
1 0.729412 0.52549 1 0.729412 0.52549 
1 0.729412 0.52549 1 0.729412 0.52549 
1 0.729412 0.52549 1 0.729412 0.52549 
1 0.729412 0.52549 1 0.729412 0.52549 
1 0.729412 0.52549 1 0.729412 0.52549 
1 0.729412 0.52549 1 0.729412 0.52549 
1 0.729412 0.52549 1 0.729412 0.52549 
1 0.729412 0.52549 1 0.729412 0.52549 
1 0.729412 0.52549 1 0.729412 0.52549 
1 0.729412 0.52549 1 0.729412 0.52549 
1 0.729412 0.52549 1 0.729412 0.52549 
1 0.729412 0.52549 1 0.729412 0.52549 
1 0.729412 0.52549 1 0.729412 0.52549 
1 0.729412 0.52549 1 0.729412 0.52549 
1 0.729412 0.52549 1 0.729412 0.52549 
1 0.729412 0.52549 1 0.729412 0.52549 
1 0.729412 0.52549 1 0.729412 0.52549 
1 0.729412 0.52549 1 0.729412 0.52549 
1 0.729412 0.52549 1 0.729412 0.52549 
1 0.729412 0.52549 1 0.729412 0.52549 
1 0.729412 0.52549 1 0.729412 0.52549 
1 0.729412 0.52549 1 0.729412 0.52549 
1 0.729412 0.52549 1 0.729412 0.52549 
1 0.729412 0.52549 1 0.729412 0.52549 
1 0.729412 0.52549 1 0.729412 0.52549 
1 0.729412 0.52549 1 0.729412 0.52549 
1 0.729412 0.52549 1 0.729412 0.52549 
1 0.729412 0.52549 1 0.729412 0.52549 
1 0.729412 0.52549 1 0.729412 0.52549 
1 0.729412 0.52549 1 0.729412 0.52549 
1 0.729412 0.52549 1 0.729412 0.52549 
1 0.729412 0.52549 1 0.729412 0.52549 
1 0.729412 0.52549 1 0.729412 0.52549 
1 0.729412 0.52549 1 0.729412 0.52549 
1 0.729412 0.52549 1 0.729412 0.52549 
1 0.729412 0.52549 1 0.729412 0.52549 
1 0.729412 0.52549 1 0.729412 0.52549 
1 0.729412 0.52549 1 0.729412 0.52549 
1 0.729412 0.52549 1 0.729412 0.52549 
1 0.729412 0.52549 1 0.729412 0.52549 
1 0.729412 0.52549 1 0.729412 0.52549 
1 0.729412 0.52549 1 0.729412 0.52549 
1 0.729412 0.52549 1 0.729412 0.52549 
1 0.729412 0.52549 1 0.729412 0.52549 
1 0.729412 0.52549 1 0.729412 0.52549 
1 0.729412 0.52549 1 0.729412 0.52549 
1 0.729412 0.52549 1 0.729412 0.52549 
1 0.729412 0.52549 1 0.729412 0.52549 
1 0.729412 0.52549 1 0.729412 0.52549 
1 0.729412 0.52549 1 0.729412 0.52549 
1 0.729412 0.52549 1 0.729412 0.52549 
1 0.729412 0.52549 1 0.729412 0.52549 
1 0.729412 0.52549 1 0.729412 0.52549 
1 0.729412 0.52549 1 0.729412 0.52549 
1 0.729412 0.52549 1 0.729412 0.52549 
1 0.729412 0.52549 1 0.729412 0.52549 
1 0.729412 0.52549 1 0.729412 0.52549 
1 0.729412 0.52549 1 0.729412 0.52549 
1 0.729412 0.52549 1 0.729412 0.52549 
1 0.729412 0.52549 1 0.729412 0.52549 
1 0.729412 0.52549 1 0.729412 0.52549 
1 0.729412 0.52549 1 0.729412 0.52549 
1 0.729412 0.52549 1 0.729412 0.52549 
1 0.729412 0.52549 1 0.729412 0.52549 
1 0.729412 0.52549 1 0.729412 0.52549 
1 0.729412 0.52549 1 0.729412 0.52549 
1 0.729412 0.52549 1 0.729412 0.52549 
1 0.729412 0.52549 1 0.729412 0.52549 
1 0.729412 0.52549 1 0.729412 0.52549 
1 0.729412 0.52549 1 0.729412 0.52549 
1 0.729412 0.52549 1 0.729412 0.52549 
1 0.729412 0.52549 1 0.729412 0.52549 
1 0.729412 0.52549 1 0.729412 0.52549 
1 0.729412 0.52549 1 0.729412 0.52549 
1 0.729412 0.52549 1 0.729412 0.52549 
1 0.729412 0.52549 1 0.729412 0.52549 
1 0.729412 0.52549 1 0.729412 0.52549 
1 0.729412 0.52549 1 0.729412 0.52549 
1 0.729412 0.52549 1 0.729412 0.52549 
1 0.729412 0.52549 1 0.729412 0.52549 
1 0.729412 0.52549 1 0.729412 0.52549 
1 0.729412 0.52549 1 0.729412 0.52549 
1 0.729412 0.52549 1 0.729412 0.52549 
1 0.729412 0.52549 1 0.729412 0.52549 
1 0.729412 0.52549 1 0.729412 0.52549 
1 0.729412 0.52549 1 0.729412 0.52549 
1 0.729412 0.52549 1 0.729412 0.52549 
1 0.729412 0.52549 1 0.729412 0.52549 
1 0.729412 0.52549 1 0.729412 0.52549 
1 0.729412 0.52549 1 0.729412 0.52549 
1 0.729412 0.52549 1 0.729412 0.52549 
1 0.729412 0.52549 1 0.729412 0.52549 
1 0.729412 0.52549 1 0.729412 0.52549 
1 0.729412 0.52549 1 0.729412 0.52549 
1 0.729412 0.52549 1 0.729412 0.52549 
1 0.729412 0.52549 1 0.729412 0.52549 
1 0.729412 0.52549 1 0.729412 0.52549 
1 0.729412 0.52549 1 0.729412 0.52549 
1 0.729412 0.52549 1 0.729412 0.52549 
1 0.729412 0.52549 1 0.729412 0.52549 
1 0.729412 0.52549 1 0.729412 0.52549 
1 0.729412 0.52549 1 0.729412 0.52549 
1 0.729412 0.52549 1 0.729412 0.52549 
1 0.729412 0.52549 1 0.729412 0.52549 
1 0.729412 0.52549 1 0.729412 0.52549 
1 0.729412 0.52549 1 0.729412 0.52549 
1 0.729412 0.52549 1 0.729412 0.52549 
1 0.729412 0.52549 1 0.729412 0.52549 
1 0.729412 0.52549 1 0.729412 0.52549 
1 0.729412 0.52549 1 0.729412 0.52549 
1 0.729412 0.52549 1 0.729412 0.52549 
1 0.729412 0.52549 1 0.729412 0.52549 
1 0.729412 0.52549 1 0.729412 0.52549 
1 0.729412 0.52549 1 0.729412 0.52549 
1 0.729412 0.52549 1 0.729412 0.52549 
1 0.729412 0.52549 1 0.729412 0.52549 
1 0.729412 0.52549 1 0.729412 0.52549 
1 0.729412 0.52549 1 0.729412 0.52549 
1 0.729412 0.52549 1 0.729412 0.52549 
1 0.729412 0.52549 1 0.729412 0.52549 
1 0.729412 0.52549 1 0.729412 0.52549 
1 0.729412 0.52549 1 0.729412 0.52549 
1 0.729412 0.52549 1 0.729412 0.52549 
1 0.729412 0.52549 1 0.729412 0.52549 
1 0.729412 0.52549 1 0.729412 0.52549 
1 0.729412 0.52549 1 0.729412 0.52549 
1 0.729412 0.52549 1 0.729412 0.52549 
1 0.729412 0.52549 1 0.729412 0.52549 
1 0.729412 0.52549 1 0.729412 0.52549 
1 0.729412 0.52549 1 0.729412 0.52549 
1 0.729412 0.52549 1 0.729412 0.52549 
1 0.729412 0.52549 1 0.729412 0.52549 
1 0.729412 0.52549 1 0.729412 0.52549 
1 0.729412 0.52549 1 0.729412 0.52549 
1 0.729412 0.52549 1 0.729412 0.52549 
1 0.729412 0.52549 1 0.729412 0.52549 
1 0.729412 0.52549 1 0.729412 0.52549 
1 0.729412 0.52549 1 0.729412 0.52549 
1 0.729412 0.52549 1 0.729412 0.52549 
1 0.729412 0.52549 1 0.729412 0.52549 
1 0.729412 0.52549 1 0.729412 0.52549 
1 0.729412 0.52549 1 0.729412 0.52549 
1 0.729412 0.52549 1 0.729412 0.52549 
1 0.729412 0.52549 1 0.729412 0.52549 
1 0.729412 0.52549 1 0.729412 0.52549 
1 0.729412 0.52549 1 0.729412 0.52549 
1 0.729412 0.52549 1 0.729412 0.52549 
1 0.729412 0.52549 1 0.729412 0.52549 
1 0.729412 0.52549 1 0.729412 0.52549 
1 0.729412 0.52549 1 0.729412 0.52549 
1 0.729412 0.52549 1 0.729412 0.52549 
1 0.729412 0.52549 1 0.729412 0.52549 
1 0.729412 0.52549 1 0.729412 0.52549 
1 0.729412 0.52549 1 0.729412 0.52549 
1 0.729412 0.52549 1 0.729412 0.52549 
1 0.729412 0.52549 1 0.729412 0.52549 
1 0.729412 0.52549 1 0.729412 0.52549 
1 0.729412 0.52549 1 0.729412 0.52549 
1 0.729412 0.52549 1 0.729412 0.52549 
1 0.729412 0.52549 1 0.729412 0.52549 
1 0.729412 0.52549 1 0.729412 0.52549 
1 0.729412 0.52549 1 0.729412 0.52549 
1 0.729412 0.52549 1 0.729412 0.52549 
1 0.729412 0.52549 1 0.729412 0.52549 
1 0.729412 0.52549 1 0.729412 0.52549 
1 0.729412 0.52549 1 0.729412 0.52549 
1 0.729412 0.52549 1 0.729412 0.52549 
1 0.729412 0.52549 1 0.729412 0.52549 
1 0.729412 0.52549 1 0.729412 0.52549 
1 0.729412 0.52549 1 0.729412 0.52549 
1 0.729412 0.52549 1 0.729412 0.52549 
1 0.729412 0.52549 1 0.729412 0.52549 
1 0.729412 0.52549 1 0.729412 0.52549 
1 0.729412 0.52549 1 0.729412 0.52549 
1 0.729412 0.52549 1 0.729412 0.52549 
1 0.729412 0.52549 1 0.729412 0.52549 
1 0.729412 0.52549 1 0.729412 0.52549 
1 0.729412 0.52549 1 0.729412 0.52549 
1 0.729412 0.52549 1 0.729412 0.52549 
1 0.729412 0.52549 1 0.729412 0.52549 
1 0.729412 0.52549 1 0.729412 0.52549 
1 0.729412 0.52549 1 0.729412 0.52549 
1 0.729412 0.52549 1 0.729412 0.52549 
1 0.729412 0.52549 1 0.729412 0.52549 
1 0.729412 0.52549 1 0.729412 0.52549 
1 0.729412 0.52549 1 0.729412 0.52549 
1 0.729412 0.52549 1 0.729412 0.52549 
1 0.729412 0.52549 1 0.729412 0.52549 
1 0.729412 0.52549 1 0.729412 0.52549 
1 0.729412 0.52549 1 0.729412 0.52549 
1 0.729412 0.52549 1 0.729412 0.52549 
1 0.729412 0.52549 1 0.729412 0.52549 
1 0.729412 0.52549 1 0.729412 0.52549 
1 0.729412 0.52549 
NORMALS Normals float
0.479995 -0.129234 -0.8677 0.51964 0.795175 -0.312524 0.93152 0.322585 -0.167956 
0.336951 0.815227 -0.47103 -0.0360543 0.255019 -0.966264 -0.240907 0.681083 -0.69144 
0.654219 0.713924 -0.249618 0.572549 0.379801 -0.726594 0.531811 -0.205672 -0.821509 
0.0489959 -0.0727779 -0.996144 0.726112 -0.0657759 -0.684423 0.855191 -0.178036 -0.486777 
-0.339912 0.352158 -0.872035 0.238707 0.261327 -0.935269 -0.193695 0.551476 -0.811392 
-0.298033 0.735963 -0.607894 -0.280323 0.269452 -0.921311 0.725281 0.670253 -0.157253 
0.752056 0.622643 -0.216167 -0.0693088 0.875613 -0.478015 0.0165987 0.957074 -0.289369 
0.522155 0.840535 0.144413 0.103493 -0.321493 -0.941239 0.121269 -0.617524 -0.777147 
0.231024 -0.391001 -0.890924 0.341401 -0.564695 -0.751375 0.408031 -0.167825 -0.89741 
0.653107 -0.35489 -0.668957 0.777441 -0.080293 -0.62381 0.494175 -0.0310673 -0.868807 
0.762005 -0.0444971 -0.646041 0.0482241 -0.129747 -0.990374 0.224789 -0.209846 -0.951543 
0.254162 -0.186944 -0.948922 -0.121036 -0.19832 -0.972635 0.92931 -0.0579221 -0.364731 
0.967126 0.0787957 -0.241784 0.96648 0.235748 0.101677 -0.344843 0.0665632 -0.936297 
-0.537939 0.166163 -0.826445 0.795797 0.594175 0.116889 -0.48675 0.653335 -0.579852 
-0.422731 0.538005 -0.72928 0.148782 0.985109 0.0861698 0.426731 0.839765 0.335701 
-0.242856 0.899087 -0.364231 -0.0918591 0.977016 -0.192356 0.560832 -0.627331 -0.540299 
-0.112432 -0.260263 -0.958969 0.853694 -0.0564201 -0.51771 -0.502407 -0.055762 -0.862831 
-0.74631 0.271056 -0.607907 0.806634 0.564254 0.17595 0.676253 0.664999 0.31695 
0.897423 0.356203 0.260293 -0.722042 0.448029 -0.527186 -0.0968058 0.983612 0.152108 
0.0784813 0.949441 0.303978 -0.304441 0.949775 -0.0724023 -0.192182 -0.297526 -0.935171 
0.790614 -0.503061 -0.349084 0.855535 -0.323785 -0.404009 0.984355 -0.0043845 -0.17614 
-0.633825 0.0731445 -0.77001 0.995662 0.0728504 -0.0578718 -0.681957 0.187687 -0.7069 
-0.749698 0.459436 -0.476312 0.678674 0.568995 0.464377 -0.750445 0.60998 -0.254476 
-0.105885 0.88494 0.453508 0.155629 0.811537 0.563194 -0.624332 0.766841 -0.148877 
-0.209386 0.874387 0.437727 0.137208 -0.525271 -0.8398 -0.225098 -0.329753 -0.916839 
-0.416682 -0.111897 -0.902139 0.982292 -0.0170822 -0.186578 -0.70557 0.0941176 -0.702362 
-0.749954 0.312219 -0.58317 -0.81501 0.496968 -0.297963 -0.622345 0.77451 -0.113226 
-0.506065 0.828835 0.2386 0.636716 -0.664011 -0.392022 0.829965 -0.525039 -0.188395 
0.857023 -0.479301 -0.18916 0.981926 -0.159336 -0.102147 -0.730335 0.288261 -0.619287 
-0.824875 0.461457 -0.326557 -0.668641 0.73893 -0.0830812 -0.759336 0.642006 -0.106007 
-0.00894859 0.780448 0.625156 -0.683172 0.710371 -0.169259 -0.437561 0.898725 0.0288695 
-0.303302 0.877295 0.371969 -0.40904 0.841544 0.352831 -0.543122 0.790284 0.283673 
0.0600911 -0.514704 -0.855259 0.0964595 -0.574729 -0.812639 0.238893 -0.500778 -0.831956 
0.0919233 -0.483045 -0.870757 0.449817 -0.518361 -0.727301 -0.27881 -0.402458 -0.871947 
0.467115 -0.605946 -0.64392 -0.444525 -0.189169 -0.875564 0.875825 -0.481642 -0.0308543 
-0.538498 0.0292084 -0.842121 0.964781 -0.262589 -0.0156678 -0.804591 0.590564 -0.0621919 
0.860847 0.399 0.315818 0.37 0.642242 0.671287 -0.749356 0.6565 -0.0864419 
-0.529056 0.846254 0.0628801 -0.392341 0.830209 0.396007 -0.247691 0.810059 0.531464 
-0.659997 0.718261 0.220237 -0.229024 -0.599053 -0.767257 -0.0181479 -0.581032 -0.813679 
0.149996 -0.549835 -0.821695 -0.265327 -0.488358 -0.831329 -0.144048 -0.414345 -0.898648 
0.545633 -0.579917 -0.604964 0.727 -0.547466 -0.41443 -0.550228 -0.313195 -0.774053 
-0.691918 0.00485168 -0.72196 0.986562 0.0721894 0.146573 -0.715949 0.31705 -0.62201 
-0.711503 0.702385 0.0204649 -0.770037 0.634374 -0.067914 -0.817605 0.570135 -0.0804212 
0.804907 0.416719 0.422456 0.533087 0.600502 0.596 -0.466808 0.729225 0.500321 
-0.213915 0.660053 0.720118 -0.181407 -0.737046 -0.651042 0.0543774 -0.66174 -0.747759 
0.046407 -0.714689 -0.697901 0.487857 -0.615807 -0.618691 -0.528552 -0.616849 -0.583207 
-0.529486 -0.446103 -0.721551 0.663501 -0.610961 -0.431848 0.675074 -0.585279 -0.449136 
0.754303 -0.541521 -0.371189 -0.726936 -0.428965 -0.53624 0.893793 -0.441384 -0.0794653 
-0.801412 -0.233116 -0.550814 0.995204 -0.0949026 -0.0237151 -0.780446 0.230301 -0.581262 
-0.679414 0.358816 -0.640037 -0.842263 0.495526 -0.212241 -0.741406 0.559027 -0.371222 
-0.725275 0.633695 -0.269085 -0.618251 0.679615 0.394827 0.0090128 0.66899 0.743217 
-0.0101184 -0.869682 -0.493509 -0.328622 -0.843834 -0.424207 0.354615 -0.819031 -0.451039 
0.583156 -0.650885 -0.486084 -0.664835 -0.741584 -0.0897024 -0.746004 -0.589236 -0.310289 
-0.765697 -0.549485 -0.334328 -0.70917 -0.510241 -0.48655 0.904309 -0.414269 0.102985 
-0.958307 -0.285473 0.0123626 0.918764 -0.386639 0.0798893 -0.994221 0.0117953 0.106706 
0.954672 -0.244893 0.1692 -0.854244 -0.0111119 -0.519754 0.924253 -0.0266239 0.380851 
-0.948509 0.111967 -0.2963 -0.921028 0.277017 0.273805 -0.835569 0.443783 -0.323852 
-0.758812 0.631415 0.159751 0.555984 0.483322 0.676226 -0.554567 0.711519 0.431504 
-0.10702 -0.965725 -0.23648 -0.512146 -0.783281 -0.352387 0.150599 -0.947768 -0.281167 
0.675823 -0.723693 -0.139756 -0.614464 -0.717407 -0.328269 0.81185 -0.580395 -0.0635654 
-0.690251 -0.721842 -0.0499819 0.773144 -0.634226 0.00209885 -0.835801 -0.548229 0.0296814 
-0.760604 -0.575383 -0.300693 -0.789192 -0.612472 0.0453202 0.876935 -0.480592 -0.00399539 
-0.830541 -0.449063 0.32946 -0.838546 -0.341323 0.424664 -0.843767 -0.277482 0.459413 
0.941367 -0.210212 0.263891 -0.756053 0.137329 0.639941 -0.788971 0.589139 0.174475 
-0.704994 0.613344 0.35608 -0.587644 0.453288 0.670228 0.837092 0.032003 0.546125 
-0.519628 0.554993 0.649592 0.699949 0.223206 0.678417 -0.441594 0.53911 0.717186 
0.370325 0.497099 0.784699 0.098512 0.594151 0.798298 -0.365787 -0.907363 -0.207104 
-0.069607 -0.957392 0.280277 -0.559064 -0.79124 0.247763 -0.460284 -0.596781 0.65726 
0.396379 -0.861164 0.318246 0.805911 -0.591589 -0.0230261 0.693304 -0.625154 0.358487 
0.741237 -0.561827 0.367312 -0.70204 -0.635103 0.322155 -0.605452 -0.545026 0.579979 
-0.749851 -0.552011 0.364703 -0.563546 -0.36935 0.738916 -0.634138 -0.201373 0.746537 
-0.800055 -0.0305368 0.599148 -0.510876 -0.00934186 0.859604 0.814095 -0.389022 0.431174 
0.771355 -0.39404 0.499745 0.792497 -0.126887 0.596529 -0.353515 0.243408 0.903205 
0.623088 0.0536587 0.780309 -0.283426 0.420643 0.861817 0.379257 0.243327 0.892724 
-0.098958 0.480521 0.871382 -0.0301446 -0.547117 0.836513 -0.362348 -0.504774 0.783522 
-0.330219 -0.521099 0.787027 0.513428 -0.559968 0.650252 0.16278 -0.540392 0.825517 
0.493852 -0.640762 0.587822 -0.148914 -0.385785 0.910491 0.611263 -0.476581 0.631845 
-0.577505 -0.22004 0.786174 -0.315102 -0.141388 0.938467 0.846499 -0.344544 0.405867 
0.818499 -0.305634 0.486463 0.607377 -0.178855 0.774018 0.698726 -0.139258 0.701704 
-0.0728699 0.166433 0.983357 0.430597 0.0250268 0.902197 -0.000666421 0.226572 0.973994 
0.287219 -0.483136 0.827094 0.0216662 -0.202551 0.979032 0.230272 -0.383316 0.894451 
0.338859 -0.262321 0.903528 0.156526 -0.0159611 0.987545 -0.130347 0.00865721 0.991431 
0.385334 -0.125718 0.914173 0.0148393 -0.229874 -0.973107 0.271688 -0.350681 -0.896219 
0.352368 -0.393562 -0.849085 0.209088 -0.246078 -0.946429 -0.423024 -0.30375 -0.85369 
0.597374 -0.469211 -0.650373 0.336975 -0.306695 -0.890161 0.688439 -0.480193 -0.543569 
0.507041 -0.310857 -0.803914 -0.283559 -0.0866896 -0.955028 0.276409 -0.171313 -0.945648 
0.747099 -0.337037 -0.572931 0.35373 0.0157283 -0.935215 0.635711 -0.232572 -0.736058 
-0.0675674 0.27512 -0.959033 -0.00972745 -0.471151 -0.881999 -0.48743 -0.723129 -0.489383 
-0.654538 -0.695705 -0.295929 0.205646 -0.853238 -0.479265 -0.376239 -0.439014 -0.815911 
-0.0862121 -0.410395 -0.907824 0.42175 -0.90561 -0.0446912 0.49655 -0.637582 -0.589005 
-0.544473 -0.515235 -0.661878 0.712456 -0.633188 -0.302455 -0.561734 -0.400139 -0.724116 
0.594221 -0.647693 -0.47686 -0.613974 -0.52881 -0.586 -0.711362 -0.557586 -0.427858 
-0.464303 -0.358964 -0.809671 0.849997 -0.430288 -0.303903 -0.519397 -0.359729 -0.775127 
-0.428768 -0.304239 -0.850645 -0.705805 -0.431582 -0.561762 0.818361 -0.38819 -0.423786 
-0.677681 -0.275786 -0.681683 0.748181 -0.246253 -0.616105 -0.314647 0.121953 -0.941342 
0.648325 0.086613 -0.756421 0.741749 0.0278713 -0.670098 0.557227 0.19956 -0.806023 
-0.178838 -0.958641 0.221412 -0.242024 -0.934509 0.260991 -0.609374 -0.772638 0.178025 
0.723278 -0.690437 0.0128228 0.740495 -0.647789 0.178989 0.786025 -0.575059 0.226873 
-0.745727 -0.605877 -0.277138 -0.833226 -0.522154 -0.181905 -0.821249 -0.536205 0.195024 
-0.672136 -0.605238 -0.42652 0.806369 -0.591379 -0.00626342 -0.74262 -0.587978 -0.32062 
-0.75694 -0.653483 0.00141303 -0.839712 -0.366194 -0.400982 0.786111 -0.615277 0.058851 
-0.848734 -0.523957 -0.0715512 0.867223 -0.441112 -0.230966 -0.820465 -0.343076 -0.457315 
-0.841162 -0.0290939 -0.54 -0.565596 -0.0775452 -0.821029 -0.846228 0.0914884 -0.524908 
-0.384176 0.168208 -0.907808 -0.742445 0.0480722 -0.66818 -0.846395 0.299082 -0.440641 
-0.4969 0.137754 -0.856805 0.86525 -0.0152395 -0.501109 -0.407385 0.368246 -0.835723 
0.301574 0.375255 -0.876491 -0.385927 0.611661 -0.690602 -0.0987575 0.526156 -0.844634 
-0.0763121 -0.945455 0.316687 0.100996 -0.82364 0.558047 0.443304 -0.829448 0.339848 
-0.502472 -0.672425 0.543476 0.738226 -0.538998 0.40559 -0.612906 -0.674994 0.410765 
-0.601003 -0.716894 0.353352 -0.492402 0.366359 -0.789507 -0.770288 -0.543806 0.333062 
-0.773256 -0.622919 0.118516 0.757323 -0.647519 0.0847398 -0.888139 -0.449975 -0.0934437 
-0.935038 -0.281118 -0.216049 -0.900498 -0.237443 0.364312 -0.998023 -0.0591534 -0.0212263 
-0.968233 0.210171 0.135476 -0.718636 0.444918 -0.534425 -0.52836 0.530442 -0.662923 
-0.775706 0.539301 -0.327771 0.772051 0.23783 -0.589384 -0.644906 0.674365 -0.359621 
-0.541641 0.734086 -0.409566 -0.308394 -0.768509 0.560614 -0.180834 -0.635234 0.750851 
0.212495 -0.665143 0.715843 0.41668 -0.59716 0.685403 -0.719347 -0.570807 0.395878 
0.491747 -0.589303 0.641021 0.603352 -0.600969 0.524216 -0.490384 -0.548002 0.677656 
-0.494871 -0.671989 0.550938 0.757174 -0.526966 0.385997 -0.671188 -0.588243 0.451084 
-0.831466 -0.421753 0.361647 -0.724537 -0.520287 0.452047 -0.834029 -0.0633934 0.548066 
0.974745 -0.09205 -0.203468 -0.88447 0.458065 0.0888212 0.986235 -0.024156 -0.163579 