# vtk DataFile Version 4.2
vtk output
ASCII
DATASET POLYDATA
POINTS 717 float
107.15 105.701 191.192 107.7 105.249 190.95 108.981 105.506 191.086 
108.841 105.262 191.005 108.323 105.91 191.269 106.294 104.968 191.197 
107.241 104.878 191.011 109.163 105.013 191.128 107.025 106.079 191.512 
108.83 106.173 191.635 101.897 103.412 192.488 102.529 103.639 192.242 
102.212 103.827 192.41 103.152 103.186 192.069 107.178 103.896 191.244 
110.428 103.516 191.896 107.091 107 192.187 109.549 106.229 192.016 
105.22 102.795 191.871 112.811 102.941 192.777 113.292 102.506 193.03 
114.392 103.001 193.349 114.135 102.592 193.292 113.559 103.672 193.099 
113.134 104.251 193.107 106.054 101.075 192.877 113.844 102.053 193.366 
115.207 101.74 194.035 116.178 102.326 194.229 116.658 102.305 194.486 
116.501 102.077 194.505 116.954 102.393 194.702 101.112 103.839 192.995 
115.902 103.195 194.145 102.478 105.136 192.982 105.955 107.289 192.79 
107.138 108.973 194.116 92.2399 98.5977 195.56 91.989 98.4823 195.687 
92.2218 98.8313 195.638 93.5371 99.4243 195.213 95.2204 99.8622 194.739 
94.7903 99.425 194.907 96.3399 99.6522 194.537 94.4317 100.407 195.072 
113.579 100.646 194.309 115.22 100.965 194.69 116.148 101.494 194.708 
116.412 101.375 195.025 117.344 102.304 195.188 116.948 102.904 194.705 
109.212 108.755 194.195 90.7403 98.1186 196.441 90.6309 97.9444 196.643 
91.6429 98.2152 195.914 90.7303 98.3832 196.424 91.1444 98.8838 196.229 
91.5236 98.618 195.942 92.7654 98.3041 195.587 114.085 100.339 194.89 
118.219 102.69 195.886 118.189 103.205 195.76 118.674 103.115 196.134 
116.785 104.051 195.039 115.868 104.795 194.936 90.9511 97.3647 197.033 
90.2257 98.2683 197.204 93.1687 97.2188 196.154 95.6451 97.2727 195.912 
90.471 98.5189 196.762 90.7686 98.7077 196.454 114.223 99.3137 196.855 
91.1454 99.3218 196.52 117.258 101.03 196.7 118.307 101.857 196.68 
119.461 103.475 196.732 118.109 104.498 196.139 118.613 104.02 196.242 
114.732 106.084 195.304 94.6321 96.2886 196.799 98.718 96.3235 196.873 
99.7527 96.4465 196.871 107.09 96.8879 197.412 112.316 98.1478 197.452 
90.2355 98.9741 197.375 120.065 103.671 197.462 120.256 104.206 197.921 
96.024 94.965 198.247 106.384 96.3367 198.486 90.1666 99.8337 198.191 
91.4199 100.878 197.659 91.7416 101.309 197.737 120.212 103.463 197.718 
120.335 103.4 198.102 120.463 103.738 198.392 120.43 104.22 198.382 
94.3195 94.319 199.678 95.1712 94.0814 199.744 97.0213 94.4461 199.232 
91.8961 95.6631 199.332 100.798 95.4495 199.132 102.327 95.8344 198.524 
101.879 95.6803 199.054 103.701 95.9207 199.054 105.005 96.0256 199.053 
107.754 96.3201 199.514 89.8369 97.8303 198.938 89.3894 99.1522 199.231 
114.153 98.6268 199.156 89.5914 99.4021 198.914 89.6468 99.9178 199.244 
120.126 102.706 198.499 120.476 104.615 198.949 120.553 104.284 199.337 
120.186 107.235 200.095 119.946 107.991 200.042 104.164 112.11 198.784 
112.816 113.576 198.877 94.2289 94.2162 200.142 98.3223 94.4488 199.95 
98.5476 94.5098 199.916 97.0131 94.2252 199.893 101.209 95.7064 200.072 
105.757 96.2708 199.911 89.2494 99.0367 199.808 89.2743 99.1379 199.556 
113.216 97.9776 199.808 90.9275 102.382 199.681 120.28 102.939 198.663 
120.307 103.057 199.052 120.531 103.929 199.409 120.401 103.686 199.679 
120.402 106.6 200.524 119.281 111.243 200.945 110.819 116.689 200.931 
96.0272 93.8715 200.988 95.7767 93.877 200.81 96.6104 93.9687 200.82 
96.3434 93.9055 200.992 96.6255 94.0386 201.028 94.551 94.0677 200.763 
96.8267 94.0695 200.501 93.6314 94.5561 201.133 97.6617 94.4363 200.448 
92.3863 95.2465 200.933 108.793 96.3212 200.83 103.162 96.7376 201.125 
113.871 98.4625 200.995 89.1965 99.3873 200.423 89.1869 100.298 200.689 
120.071 102.761 199.256 120.348 105.372 200.772 116.16 114.537 200.504 
117.395 113.894 200.911 118.761 113.551 201.916 119.233 113.092 202.154 
110.03 116.931 201.44 113.807 117.046 201.061 114.109 118.204 201.869 
96.4197 94.031 201.178 96.2557 94.1729 201.374 94.614 94.1621 201.138 
93.5795 94.747 201.545 97.2897 95.6053 201.858 109.662 96.4076 201.002 
92.055 95.7228 201.781 106.254 97.2159 201.897 88.6042 101.952 202.205 
118.64 102.659 201.607 119.813 104.45 201.521 120.548 107.935 202.205 
111.866 118.864 202.619 113.018 119.307 202.728 95.9676 94.0704 201.354 
95.2644 94.3015 201.589 94.7187 94.348 201.554 94.4012 94.6705 201.856 
112.798 98.2445 202.129 88.2323 101.493 203.534 115.595 101.506 203.2 
88.6341 103.019 202.844 89.0981 104.029 203.114 119.427 104.607 202.269 
120.84 110.555 203.814 120.525 112.157 203.896 115.413 119.288 203.229 
111.065 97.8476 202.688 88.1993 101.521 204.197 88.068 102.074 204.359 
98.4524 100.658 205.053 120.592 108.462 203.812 116.261 119.353 204.071 
114.474 120.926 204.777 115.018 121.24 205.48 90.2863 98.4275 204.366 
112.741 100.15 203.968 88.2651 101.551 205.024 88.6738 105.176 204.896 
121.107 109.978 205.518 121.196 110.451 205.518 121.137 111.124 205.327 
96.1363 112.045 205.582 119.918 114.049 204.646 107.564 118.233 205.448 
113.936 121.476 205.68 115.021 121.514 205.968 115.285 121.591 206.39 
92.0388 97.865 204.669 88.6691 101.202 205.88 88.2082 102.302 205.909 
88.0448 103.633 205.69 89.1216 106.347 205.335 89.7256 107.22 205.5 
121.089 109.77 206.576 121.271 110.186 206.832 121.318 111.159 206.162 
121.38 110.78 206.773 116.304 120.892 206.314 114.454 121.862 206.638 
89.4574 101.038 207.08 88.0362 103.683 206.374 98.2797 101.968 207.5 
107.286 102.043 207.142 88.2786 105.784 206.763 88.6209 106.655 206.627 
119.775 108.248 206.972 90.6651 109.694 207.297 95.2088 112.419 207.192 
111.422 121.235 206.965 112.61 121.712 206.958 91.1955 99.6554 206.716 
88.369 103.3 207.427 88.6511 107.062 207.39 89.5329 108.802 207.796 
121.532 110.943 208.227 121.524 110.784 208.506 121.518 111.066 208.658 
117.441 120.016 208.333 113.635 122.305 208.216 93.657 101.498 208.95 
88.5472 103.604 208.041 120.263 109.213 208.628 121.259 110.292 208.847 
90.096 109.779 208.617 91.3583 101.325 208.729 88.814 107.146 209.361 
88.8919 107.796 209.213 89.3633 109.035 209.508 90.1267 109.978 209.312 
91.0637 110.795 209.278 121.248 111.713 210.084 116.49 121.191 210.192 
114.527 122.338 209.979 93.286 102.219 210.319 90.1465 104.324 210.521 
89.7155 105.713 210.654 89.3839 106.797 210.506 89.1339 108.193 209.825 
89.3524 108.831 209.885 120.592 110.254 210.191 90.083 109.811 210.454 
91.5344 111.201 210.734 92.5162 102.636 210.845 92.2086 102.838 210.951 
91.5661 103.58 211.209 90.7444 105.476 211.58 90.3736 110.04 210.773 
95.1488 113.744 211.898 111.464 122.561 212.35 93.373 103.865 212.37 
92.7565 111.872 212.467 100.483 117.102 212.751 118.83 117.458 212.528 
111.311 106.233 213.726 92.7592 108.54 213.742 94.4704 112.887 213.515 
99.8126 116.838 213.782 118.284 117.889 214.225 106.067 120.503 213.612 
107.818 121.447 213.802 96.3548 104.281 213.494 95.6306 105.445 214.215 
103.129 105.017 214.48 95.7399 106.173 214.569 94.7346 110.494 214.87 
93.2309 111.684 213.398 94.3466 111.553 214.423 93.3814 112.143 213.146 
119.437 112.604 214.001 119.3 113.867 214.456 98.4276 115.897 213.709 
98.1496 115.684 214.211 99.2898 116.404 214.643 100.44 117.254 214.528 
110.86 122.513 215.1 118.508 111.68 214.808 95.1591 112.753 214.431 
96.5661 113.555 215.029 97.8029 115.371 214.428 98.2018 115.61 214.633 
99.9252 116.764 214.985 116.743 119.588 215.17 104.447 119.656 215.324 
109.553 122.228 215.821 103.806 106.074 215.623 101.994 107.533 216.409 
110.481 107.342 215.823 108.367 108.015 216.717 110.623 108.555 216.704 
103.714 109.142 217.055 115.802 109.585 215.086 97.5968 114.802 215.033 
117.779 114.562 216.358 118.54 114.896 215.622 99.7291 116.253 215.547 
117.759 117.132 215.992 103.366 118.904 215.846 116.211 119.045 216.443 
106.148 120.497 215.524 107.153 120.847 216.073 107.679 121.233 215.896 
110.447 122.512 216.697 110.667 122.495 216.746 102.569 115.356 217.291 
114.1 115.753 217.88 114.828 115.86 217.768 115.489 115.788 217.562 
115.67 116.492 217.578 115.917 116.909 217.481 104.447 118.553 216.699 
116.619 117.631 216.988 106.343 119.438 216.895 115.576 119.383 216.654 
115.769 118.84 216.907 108.784 119.955 217.507 114.637 120.242 216.555 
114.968 119.688 216.805 109.643 121.833 216.899 110.45 122.42 216.879 
110.675 122.351 216.923 115.175 117.646 217.611 111.219 119.911 217.784 
110.457 121.869 217.171 114.174 115.794 237.141 114.904 115.905 237.259 
115.746 116.521 237.472 115.999 116.931 237.596 113.58 118.722 237.243 
114.946 118.343 237.531 113.388 119.43 237.429 116.833 118.16 238.525 
114.838 119.793 238.18 111.382 120.945 237.533 110.536 122.34 238.259 
110.762 122.319 238.13 111.024 122.279 238.104 106.944 108.158 238.151 
110.51 108.265 238.386 111.375 109.451 238.022 111.793 108.878 238.413 
113.242 110.476 238.017 101.205 110.939 237.975 100.62 113.401 238.01 
116.516 112.32 238.357 117.163 113.656 238.334 101.662 116.029 238.211 
102.481 116.036 237.922 115.567 115.823 237.467 100.995 116.743 238.953 
100.474 116.792 239.487 103.325 116.844 237.925 118.018 115.666 238.875 
100.97 117.334 239.618 102.594 118.459 239.472 102.697 118.224 239.084 
117.209 117.928 238.81 103.509 118.791 239.125 116.702 119.021 239.132 
105.707 120.027 239.184 115.758 119.886 239.007 107.491 121.138 239.282 
113.36 121.3 238.618 110.756 122.445 238.35 110.95 122.488 238.573 
111.304 122.305 238.293 111 122.427 238.307 104.221 106.078 239.527 
107.681 105.841 239.854 109.127 106.11 239.736 110.072 106.111 240.151 
101.072 106.111 239.637 106.657 106.765 238.919 111.264 106.557 240.433 
108.225 107.438 238.538 111.111 108.199 238.622 113.318 108.623 239.31 
97.9958 108.871 239.003 116.588 109.582 240.386 117.146 110.585 239.788 
98.5271 111.157 238.58 118.391 111.527 240.009 96.3887 112.518 239.636 
118.786 112.699 239.86 97.3073 114.526 240.079 97.0494 114.614 240.495 
97.9019 115.337 240.393 98.3332 115.548 240.235 99.5323 116.073 239.666 
102.754 118.651 239.687 106.119 120.464 239.624 114.302 121.436 239.731 
[...]
POINT_DATA 717
COLOR_SCALARS scalars 3
0.184314 0.658824 0.313725 0.184314 0.658824 0.313725 0.184314 0.658824 0.313725 
0.184314 0.658824 0.313725 0.184314 0.658824 0.313725 
0.184314 0.658824 0.313725 0.184314 0.658824 0.313725 
0.184314 0.658824 0.313725 0.184314 0.658824 0.313725 
0.184314 0.658824 0.313725 0.184314 0.658824 0.313725 
0.184314 0.658824 0.313725 0.184314 0.658824 0.313725 
0.184314 0.658824 0.313725 0.184314 0.658824 0.313725 
0.184314 0.658824 0.313725 0.184314 0.658824 0.313725 
0.184314 0.658824 0.313725 0.184314 0.658824 0.313725 
0.184314 0.658824 0.313725 0.184314 0.658824 0.313725 
0.184314 0.658824 0.313725 0.184314 0.658824 0.313725 
0.184314 0.658824 0.313725 0.184314 0.658824 0.313725 
0.184314 0.658824 0.313725 0.184314 0.658824 0.313725 
0.184314 0.658824 0.313725 0.184314 0.658824 0.313725 
0.184314 0.658824 0.313725 0.184314 0.658824 0.313725 
0.184314 0.658824 0.313725 0.184314 0.658824 0.313725 
0.184314 0.658824 0.313725 0.184314 0.658824 0.313725 
0.184314 0.658824 0.313725 0.184314 0.658824 0.313725 
0.184314 0.658824 0.313725 0.184314 0.658824 0.313725 
0.184314 0.658824 0.313725 0.184314 0.658824 0.313725 
0.184314 0.658824 0.313725 0.184314 0.658824 0.313725 
0.184314 0.658824 0.313725 0.184314 0.658824 0.313725 
0.184314 0.658824 0.313725 0.184314 0.658824 0.313725 
0.184314 0.658824 0.313725 0.184314 0.658824 0.313725 
0.184314 0.658824 0.313725 0.184314 0.658824 0.313725 
0.184314 0.658824 0.313725 0.184314 0.658824 0.313725 
0.184314 0.658824 0.313725 0.184314 0.658824 0.313725 
0.184314 0.658824 0.313725 0.184314 0.658824 0.313725 
0.184314 0.658824 0.313725 0.184314 0.658824 0.313725 
0.184314 0.658824 0.313725 0.184314 0.658824 0.313725 
0.184314 0.658824 0.313725 0.184314 0.658824 0.313725 
0.184314 0.658824 0.313725 0.184314 0.658824 0.313725 
0.184314 0.658824 0.313725 0.184314 0.658824 0.313725 
0.184314 0.658824 0.313725 0.184314 0.658824 0.313725 
0.184314 0.658824 0.313725 0.184314 0.658824 0.313725 
0.184314 0.658824 0.313725 0.184314 0.658824 0.313725 
0.184314 0.658824 0.313725 0.184314 0.658824 0.313725 
0.184314 0.658824 0.313725 0.184314 0.658824 0.313725 
0.184314 0.658824 0.313725 0.184314 0.658824 0.313725 
0.184314 0.658824 0.313725 0.184314 0.658824 0.313725 
0.184314 0.658824 0.313725 0.184314 0.658824 0.313725 
0.184314 0.658824 0.313725 0.184314 0.658824 0.313725 
0.184314 0.658824 0.313725 0.184314 0.658824 0.313725 
0.184314 0.658824 0.313725 0.184314 0.658824 0.313725 
0.184314 0.658824 0.313725 0.184314 0.658824 0.313725 
0.184314 0.658824 0.313725 0.184314 0.658824 0.313725 
0.184314 0.658824 0.313725 0.184314 0.658824 0.313725 
0.184314 0.658824 0.313725 0.184314 0.658824 0.313725 
0.184314 0.658824 0.313725 0.184314 0.658824 0.313725 
0.184314 0.658824 0.313725 0.184314 0.658824 0.313725 
0.184314 0.658824 0.313725 0.184314 0.658824 0.313725 
0.184314 0.658824 0.313725 0.184314 0.658824 0.313725 
0.184314 0.658824 0.313725 0.184314 0.658824 0.313725 
0.184314 0.658824 0.313725 0.184314 0.658824 0.313725 
0.184314 0.658824 0.313725 0.184314 0.658824 0.313725 
0.184314 0.658824 0.313725 0.184314 0.658824 0.313725 
0.184314 0.658824 0.313725 0.184314 0.658824 0.313725 
0.184314 0.658824 0.313725 0.184314 0.658824 0.313725 
0.184314 0.658824 0.313725 0.184314 0.658824 0.313725 
0.184314 0.658824 0.313725 0.184314 0.658824 0.313725 
0.184314 0.658824 0.313725 0.184314 0.658824 0.313725 
0.184314 0.658824 0.313725 0.184314 0.658824 0.313725 
0.184314 0.658824 0.313725 0.184314 0.658824 0.313725 
0.184314 0.658824 0.313725 0.184314 0.658824 0.313725 
0.184314 0.658824 0.313725 0.184314 0.658824 0.313725 
0.184314 0.658824 0.313725 0.184314 0.658824 0.313725 
0.184314 0.658824 0.313725 0.184314 0.658824 0.313725 
0.184314 0.658824 0.313725 0.184314 0.658824 0.313725 
0.184314 0.658824 0.313725 0.184314 0.658824 0.313725 
0.184314 0.658824 0.313725 0.184314 0.658824 0.313725 
0.184314 0.658824 0.313725 0.184314 0.658824 0.313725 
0.184314 0.658824 0.313725 0.184314 0.658824 0.313725 
0.184314 0.658824 0.313725 0.184314 0.658824 0.313725 
0.184314 0.658824 0.313725 0.184314 0.658824 0.313725 
0.184314 0.658824 0.313725 0.184314 0.658824 0.313725 
0.184314 0.658824 0.313725 0.184314 0.658824 0.313725 
0.184314 0.658824 0.313725 0.184314 0.658824 0.313725 
0.184314 0.658824 0.313725 0.184314 0.658824 0.313725 
0.184314 0.658824 0.313725 0.184314 0.658824 0.313725 
0.184314 0.658824 0.313725 0.184314 0.658824 0.313725 
0.184314 0.658824 0.313725 0.184314 0.658824 0.313725 
0.184314 0.658824 0.313725 0.184314 0.658824 0.313725 
0.184314 0.658824 0.313725 0.184314 0.658824 0.313725 
0.184314 0.658824 0.313725 0.184314 0.658824 0.313725 
0.184314 0.658824 0.313725 0.184314 0.658824 0.313725 
0.184314 0.658824 0.313725 0.184314 0.658824 0.313725 
0.184314 0.658824 0.313725 0.184314 0.658824 0.313725 
0.184314 0.658824 0.313725 0.184314 0.658824 0.313725 
0.184314 0.658824 0.313725 0.184314 0.658824 0.313725 
0.184314 0.658824 0.313725 0.184314 0.658824 0.313725 
0.184314 0.658824 0.313725 0.184314 0.658824 0.313725 
0.184314 0.658824 0.313725 0.184314 0.658824 0.313725 
0.184314 0.658824 0.313725 0.184314 0.658824 0.313725 
0.184314 0.658824 0.313725 0.184314 0.658824 0.313725 
0.184314 0.658824 0.313725 0.184314 0.658824 0.313725 
0.184314 0.658824 0.313725 0.184314 0.658824 0.313725 
0.184314 0.658824 0.313725 0.184314 0.658824 0.313725 
0.184314 0.658824 0.313725 0.184314 0.658824 0.313725 
0.184314 0.658824 0.313725 0.184314 0.658824 0.313725 
0.184314 0.658824 0.313725 0.184314 0.658824 0.313725 
0.184314 0.658824 0.313725 0.184314 0.658824 0.313725 
0.184314 0.658824 0.313725 0.184314 0.658824 0.313725 
0.184314 0.658824 0.313725 0.184314 0.658824 0.313725 
0.184314 0.658824 0.313725 0.184314 0.658824 0.313725 
0.184314 0.658824 0.313725 0.184314 0.658824 0.313725 
0.184314 0.658824 0.313725 0.184314 0.658824 0.313725 
0.184314 0.658824 0.313725 0.184314 0.658824 0.313725 
0.184314 0.658824 0.313725 0.184314 0.658824 0.313725 
0.184314 0.658824 0.313725 0.184314 0.658824 0.313725 
0.184314 0.658824 0.313725 0.184314 0.658824 0.313725 
0.184314 0.658824 0.313725 0.184314 0.658824 0.313725 
0.184314 0.658824 0.313725 0.184314 0.658824 0.313725 
0.184314 0.658824 0.313725 0.184314 0.658824 0.313725 
0.184314 0.658824 0.313725 0.184314 0.658824 0.313725 
0.184314 0.658824 0.313725 0.184314 0.658824 0.313725 
0.184314 0.658824 0.313725 0.184314 0.658824 0.313725 
0.184314 0.658824 0.313725 0.184314 0.658824 0.313725 
0.184314 0.658824 0.313725 0.184314 0.658824 0.313725 
0.184314 0.658824 0.313725 0.184314 0.658824 0.313725 
0.184314 0.658824 0.313725 0.184314 0.658824 0.313725 
0.184314 0.658824 0.313725 0.184314 0.658824 0.313725 
0.184314 0.658824 0.313725 0.184314 0.658824 0.313725 
0.184314 0.658824 0.313725 0.184314 0.658824 0.313725 
0.184314 0.658824 0.313725 0.184314 0.658824 0.313725 
0.184314 0.658824 0.313725 0.184314 0.658824 0.313725 
0.184314 0.658824 0.313725 0.184314 0.658824 0.313725 
0.184314 0.658824 0.313725 0.184314 0.658824 0.313725 
0.184314 0.658824 0.313725 0.184314 0.658824 0.313725 
0.184314 0.658824 0.313725 0.184314 0.658824 0.313725 
0.184314 0.658824 0.313725 0.184314 0.658824 0.313725 
0.184314 0.658824 0.313725 0.184314 0.658824 0.313725 
0.184314 0.658824 0.313725 0.184314 0.658824 0.313725 
0.184314 0.658824 0.313725 0.184314 0.658824 0.313725 
0.184314 0.658824 0.313725 0.184314 0.658824 0.313725 
0.184314 0.658824 0.313725 0.184314 0.658824 0.313725 
0.184314 0.658824 0.313725 0.184314 0.658824 0.313725 
0.184314 0.658824 0.313725 0.184314 0.658824 0.313725 
0.184314 0.658824 0.313725 0.184314 0.658824 0.313725 
0.184314 0.658824 0.313725 0.184314 0.658824 0.313725 
0.184314 0.658824 0.313725 0.184314 0.658824 0.313725 
0.184314 0.658824 0.313725 0.184314 0.658824 0.313725 
0.184314 0.658824 0.313725 0.184314 0.658824 0.313725 
0.184314 0.658824 0.313725 0.184314 0.658824 0.313725 
0.184314 0.658824 0.313725 0.184314 0.658824 0.313725 
0.184314 0.658824 0.313725 0.184314 0.658824 0.313725 
0.184314 0.658824 0.313725 0.184314 0.658824 0.313725 
0.184314 0.658824 0.313725 0.184314 0.658824 0.313725 
0.184314 0.658824 0.313725 0.184314 0.658824 0.313725 
0.184314 0.658824 0.313725 0.184314 0.658824 0.313725 
0.184314 0.658824 0.313725 0.184314 0.658824 0.313725 
0.184314 0.658824 0.313725 0.184314 0.658824 0.313725 
0.184314 0.658824 0.313725 0.184314 0.658824 0.313725 
0.184314 0.658824 0.313725 0.184314 0.658824 0.313725 
0.184314 0.658824 0.313725 0.184314 0.658824 0.313725 
0.184314 0.658824 0.313725 0.184314 0.658824 0.313725 
0.184314 0.658824 0.313725 0.184314 0.658824 0.313725 
0.184314 0.658824 0.313725 0.184314 0.658824 0.313725 
0.184314 0.658824 0.313725 0.184314 0.658824 0.313725 
0.184314 0.658824 0.313725 0.184314 0.658824 0.313725 
0.184314 0.658824 0.313725 0.184314 0.658824 0.313725 
0.184314 0.658824 0.313725 0.184314 0.658824 0.313725 
0.184314 0.658824 0.313725 0.184314 0.658824 0.313725 
0.184314 0.658824 0.313725 0.184314 0.658824 0.313725 
0.184314 0.658824 0.313725 0.184314 0.658824 0.313725 
0.184314 0.658824 0.313725 0.184314 0.658824 0.313725 
0.184314 0.658824 0.313725 0.184314 0.658824 0.313725 
0.184314 0.658824 0.313725 0.184314 0.658824 0.313725 
0.184314 0.658824 0.313725 0.184314 0.658824 0.313725 
0.184314 0.658824 0.313725 0.184314 0.658824 0.313725 
0.184314 0.658824 0.313725 0.184314 0.658824 0.313725 
0.184314 0.658824 0.313725 0.184314 0.658824 0.313725 
0.184314 0.658824 0.313725 0.184314 0.658824 0.313725 
0.184314 0.658824 0.313725 0.184314 0.658824 0.313725 
0.184314 0.658824 0.313725 0.184314 0.658824 0.313725 
0.184314 0.658824 0.313725 0.184314 0.658824 0.313725 
0.184314 0.658824 0.313725 0.184314 0.658824 0.313725 
0.184314 0.658824 0.313725 0.184314 0.658824 0.313725 
0.184314 0.658824 0.313725 0.184314 0.658824 0.313725 
0.184314 0.658824 0.313725 0.184314 0.658824 0.313725 
0.184314 0.658824 0.313725 0.184314 0.658824 0.313725 
0.184314 0.658824 0.313725 0.184314 0.658824 0.313725 
0.184314 0.658824 0.313725 0.184314 0.658824 0.313725 
0.184314 0.658824 0.313725 0.184314 0.658824 0.313725 
0.184314 0.658824 0.313725 0.184314 0.658824 0.313725 
0.184314 0.658824 0.313725 0.184314 0.658824 0.313725 
0.184314 0.658824 0.313725 0.184314 0.658824 0.313725 
0.184314 0.658824 0.313725 0.184314 0.658824 0.313725 
0.184314 0.658824 0.313725 0.184314 0.658824 0.313725 
0.184314 0.658824 0.313725 0.184314 0.658824 0.313725 
0.184314 0.658824 0.313725 0.184314 0.658824 0.313725 
0.184314 0.658824 0.313725 0.184314 0.658824 0.313725 
0.184314 0.658824 0.313725 0.184314 0.658824 0.313725 
0.184314 0.658824 0.313725 0.184314 0.658824 0.313725 
0.184314 0.658824 0.313725 0.184314 0.658824 0.313725 
0.184314 0.658824 0.313725 0.184314 0.658824 0.313725 
0.184314 0.658824 0.313725 0.184314 0.658824 0.313725 
0.184314 0.658824 0.313725 0.184314 0.658824 0.313725 
0.184314 0.658824 0.313725 0.184314 0.658824 0.313725 
0.184314 0.658824 0.313725 0.184314 0.658824 0.313725 
0.184314 0.658824 0.313725 0.184314 0.658824 0.313725 
0.184314 0.658824 0.313725 0.184314 0.658824 0.313725 
0.184314 0.658824 0.313725 0.184314 0.658824 0.313725 
0.184314 0.658824 0.313725 0.184314 0.658824 0.313725 
0.184314 0.658824 0.313725 0.184314 0.658824 0.313725 
0.184314 0.658824 0.313725 0.184314 0.658824 0.313725 
0.184314 0.658824 0.313725 0.184314 0.658824 0.313725 
0.184314 0.658824 0.313725 0.184314 0.658824 0.313725 
0.184314 0.658824 0.313725 0.184314 0.658824 0.313725 
0.184314 0.658824 0.313725 0.184314 0.658824 0.313725 
0.184314 0.658824 0.313725 0.184314 0.658824 0.313725 
0.184314 0.658824 0.313725 0.184314 0.658824 0.313725 
0.184314 0.658824 0.313725 0.184314 0.658824 0.313725 
0.184314 0.658824 0.313725 0.184314 0.658824 0.313725 
0.184314 0.658824 0.313725 0.184314 0.658824 0.313725 
0.184314 0.658824 0.313725 0.184314 0.658824 0.313725 
0.184314 0.658824 0.313725 0.184314 0.658824 0.313725 
0.184314 0.658824 0.313725 0.184314 0.658824 0.313725 
0.184314 0.658824 0.313725 0.184314 0.658824 0.313725 
0.184314 0.658824 0.313725 0.184314 0.658824 0.313725 
0.184314 0.658824 0.313725 0.184314 0.658824 0.313725 
0.184314 0.658824 0.313725 0.184314 0.658824 0.313725 
0.184314 0.658824 0.313725 0.184314 0.658824 0.313725 
0.184314 0.658824 0.313725 0.184314 0.658824 0.313725 
0.184314 0.658824 0.313725 0.184314 0.658824 0.313725 
0.184314 0.658824 0.313725 0.184314 0.658824 0.313725 
0.184314 0.658824 0.313725 0.184314 0.658824 0.313725 
0.184314 0.658824 0.313725 0.184314 0.658824 0.313725 
0.184314 0.658824 0.313725 0.184314 0.658824 0.313725 
0.184314 0.658824 0.313725 0.184314 0.658824 0.313725 
0.184314 0.658824 0.313725 0.184314 0.658824 0.313725 
0.184314 0.658824 0.313725 0.184314 0.658824 0.313725 
0.184314 0.658824 0.313725 0.184314 0.658824 0.313725 
0.184314 0.658824 0.313725 0.184314 0.658824 0.313725 
0.184314 0.658824 0.313725 0.184314 0.658824 0.313725 
0.184314 0.658824 0.313725 0.184314 0.658824 0.313725 
0.184314 0.658824 0.313725 0.184314 0.658824 0.313725 
0.184314 0.658824 0.313725 0.184314 0.658824 0.313725 
0.184314 0.658824 0.313725 0.184314 0.658824 0.313725 
0.184314 0.658824 0.313725 0.184314 0.658824 0.313725 
0.184314 0.658824 0.313725 0.184314 0.658824 0.313725 
0.184314 0.658824 0.313725 0.184314 0.658824 0.313725 
0.184314 0.658824 0.313725 0.184314 0.658824 0.313725 
0.184314 0.658824 0.313725 0.184314 0.658824 0.313725 
0.184314 0.658824 0.313725 0.184314 0.658824 0.313725 
0.184314 0.658824 0.313725 0.184314 0.658824 0.313725 
0.184314 0.658824 0.313725 0.184314 0.658824 0.313725 
0.184314 0.658824 0.313725 0.184314 0.658824 0.313725 
0.184314 0.658824 0.313725 0.184314 0.658824 0.313725 
0.184314 0.658824 0.313725 0.184314 0.658824 0.313725 
0.184314 0.658824 0.313725 0.184314 0.658824 0.313725 
0.184314 0.658824 0.313725 0.184314 0.658824 0.313725 
0.184314 0.658824 0.313725 0.184314 0.658824 0.313725 
0.184314 0.658824 0.313725 0.184314 0.658824 0.313725 
0.184314 0.658824 0.313725 0.184314 0.658824 0.313725 
0.184314 0.658824 0.313725 0.184314 0.658824 0.313725 
0.184314 0.658824 0.313725 0.184314 0.658824 0.313725 
0.184314 0.658824 0.313725 0.184314 0.658824 0.313725 
0.184314 0.658824 0.313725 0.184314 0.658824 0.313725 
0.184314 0.658824 0.313725 0.184314 0.658824 0.313725 
0.184314 0.658824 0.313725 0.184314 0.658824 0.313725 
0.184314 0.658824 0.313725 0.184314 0.658824 0.313725 
0.184314 0.658824 0.313725 0.184314 0.658824 0.313725 
0.184314 0.658824 0.313725 0.184314 0.658824 0.313725 
0.184314 0.658824 0.313725 0.184314 0.658824 0.313725 
0.184314 0.658824 0.313725 0.184314 0.658824 0.313725 
0.184314 0.658824 0.313725 0.184314 0.658824 0.313725 
0.184314 0.658824 0.313725 0.184314 0.658824 0.313725 
0.184314 0.658824 0.313725 0.184314 0.658824 0.313725 
0.184314 0.658824 0.313725 0.184314 0.658824 0.313725 
0.184314 0.658824 0.313725 0.184314 0.658824 0.313725 
0.184314 0.658824 0.313725 0.184314 0.658824 0.313725 
0.184314 0.658824 0.313725 0.184314 0.658824 0.313725 
0.184314 0.658824 0.313725 0.184314 0.658824 0.313725 
0.184314 0.658824 0.313725 0.184314 0.658824 0.313725 
0.184314 0.658824 0.313725 0.184314 0.658824 0.313725 
0.184314 0.658824 0.313725 0.184314 0.658824 0.313725 
0.184314 0.658824 0.313725 0.184314 0.658824 0.313725 
0.184314 0.658824 0.313725 0.184314 0.658824 0.313725 
0.184314 0.658824 0.313725 0.184314 0.658824 0.313725 
0.184314 0.658824 0.313725 0.184314 0.658824 0.313725 
0.184314 0.658824 0.313725 0.184314 0.658824 0.313725 
0.184314 0.658824 0.313725 0.184314 0.658824 0.313725 
0.184314 0.658824 0.313725 0.184314 0.658824 0.313725 
0.184314 0.658824 0.313725 0.184314 0.658824 0.313725 
0.184314 0.658824 0.313725 0.184314 0.658824 0.313725 
0.184314 0.658824 0.313725 0.184314 0.658824 0.313725 
0.184314 0.658824 0.313725 0.184314 0.658824 0.313725 
0.184314 0.658824 0.313725 0.184314 0.658824 0.313725 
0.184314 0.658824 0.313725 0.184314 0.658824 0.313725 
0.184314 0.658824 0.313725 0.184314 0.658824 0.313725 
0.184314 0.658824 0.313725 0.184314 0.658824 0.313725 
0.184314 0.658824 0.313725 0.184314 0.658824 0.313725 
0.184314 0.658824 0.313725 0.184314 0.658824 0.313725 
0.184314 0.658824 0.313725 0.184314 0.658824 0.313725 
0.184314 0.658824 0.313725 0.184314 0.658824 0.313725 
0.184314 0.658824 0.313725 0.184314 0.658824 0.313725 
0.184314 0.658824 0.313725 0.184314 0.658824 0.313725 
0.184314 0.658824 0.313725 0.184314 0.658824 0.313725 
0.184314 0.658824 0.313725 0.184314 0.658824 0.313725 
0.184314 0.658824 0.313725 0.184314 0.658824 0.313725 
0.184314 0.658824 0.313725 0.184314 0.658824 0.313725 
0.184314 0.658824 0.313725 0.184314 0.658824 0.313725 
0.184314 0.658824 0.313725 0.184314 0.658824 0.313725 
0.184314 0.658824 0.313725 0.184314 0.658824 0.313725 
0.184314 0.658824 0.313725 0.184314 0.658824 0.313725 
0.184314 0.658824 0.313725 0.184314 0.658824 0.313725 
0.184314 0.658824 0.313725 0.184314 0.658824 0.313725 
0.184314 0.658824 0.313725 0.184314 0.658824 0.313725 
0.184314 0.658824 0.313725 0.184314 0.658824 0.313725 
0.184314 0.658824 0.313725 0.184314 0.658824 0.313725 
0.184314 0.658824 0.313725 0.184314 0.658824 0.313725 
0.184314 0.658824 0.313725 0.184314 0.658824 0.313725 
0.184314 0.658824 0.313725 0.184314 0.658824 0.313725 
0.184314 0.658824 0.313725 0.184314 0.658824 0.313725 
0.184314 0.658824 0.313725 0.184314 0.658824 0.313725 
0.184314 0.658824 0.313725 0.184314 0.658824 0.313725 
0.184314 0.658824 0.313725 0.184314 0.658824 0.313725 
0.184314 0.658824 0.313725 0.184314 0.658824 0.313725 
0.184314 0.658824 0.313725 0.184314 0.658824 0.313725 
0.184314 0.658824 0.313725 0.184314 0.658824 0.313725 
0.184314 0.658824 0.313725 0.184314 0.658824 0.313725 
0.184314 0.658824 0.313725 0.184314 0.658824 0.313725 
0.184314 0.658824 0.313725 0.184314 0.658824 0.313725 
0.184314 0.658824 0.313725 0.184314 0.658824 0.313725 
0.184314 0.658824 0.313725 0.184314 0.658824 0.313725 
0.184314 0.658824 0.313725 0.184314 0.658824 0.313725 
0.184314 0.658824 0.313725 0.184314 0.658824 0.313725 
0.184314 0.658824 0.313725 0.184314 0.658824 0.313725 
0.184314 0.658824 0.313725 0.184314 0.658824 0.313725 
0.184314 0.658824 0.313725 0.184314 0.658824 0.313725 
0.184314 0.658824 0.313725 0.184314 0.658824 0.313725 
0.184314 0.658824 0.313725 0.184314 0.658824 0.313725 
0.184314 0.658824 0.313725 0.184314 0.658824 0.313725 
0.184314 0.658824 0.313725 0.184314 0.658824 0.313725 
0.184314 0.658824 0.313725 0.184314 0.658824 0.313725 
0.184314 0.658824 0.313725 0.184314 0.658824 0.313725 
0.184314 0.658824 0.313725 0.184314 0.658824 0.313725 
0.184314 0.658824 0.313725 0.184314 0.658824 0.313725 
0.184314 0.658824 0.313725 0.184314 0.658824 0.313725 
0.184314 0.658824 0.313725 0.184314 0.658824 0.313725 
0.184314 0.658824 0.313725 0.184314 0.658824 0.313725 
0.184314 0.658824 0.313725 0.184314 0.658824 0.313725 
0.184314 0.658824 0.313725 0.184314 0.658824 0.313725 
0.184314 0.658824 0.313725 0.184314 0.658824 0.313725 
0.184314 0.658824 0.313725 0.184314 0.658824 0.313725 
0.184314 0.658824 0.313725 0.184314 0.658824 0.313725 
0.184314 0.658824 0.313725 0.184314 0.658824 0.313725 
0.184314 0.658824 0.313725 0.184314 0.658824 0.313725 
0.184314 0.658824 0.313725 0.184314 0.658824 0.313725 
0.184314 0.658824 0.313725 0.184314 0.658824 0.313725 
0.184314 0.658824 0.313725 0.184314 0.658824 0.313725 
0.184314 0.658824 0.313725 0.184314 0.658824 0.313725 
0.184314 0.658824 0.313725 0.184314 0.658824 0.313725 
0.184314 0.658824 0.313725 0.184314 0.658824 0.313725 
0.184314 0.658824 0.313725 0.184314 0.658824 0.313725 
0.184314 0.658824 0.313725 0.184314 0.658824 0.313725 
0.184314 0.658824 0.313725 0.184314 0.658824 0.313725 
0.184314 0.658824 0.313725 0.184314 0.658824 0.313725 

NORMALS Normals float
-0.16713 0.410328 -0.896493 0.0296604 0.0925734 -0.995264 0.353435 0.376299 -0.856436 
0.17409 -0.00931341 -0.984686 0.0272315 0.613798 -0.788993 -0.296404 0.160331 -0.941509 