# vtk DataFile Version 4.2
vtk output
ASCII
DATASET POLYDATA
POINTS 815 float
295.958 152.057 160.306 295.86 151.948 160.371 295.866 152.146 160.342 
296.043 151.981 160.368 296.049 152.179 160.338 296.728 152.706 160.473 
296.912 152.781 160.573 293.201 150.887 161.41 294.808 151.412 160.735 
294.372 150.853 161.017 295.969 151.618 160.581 295.687 150.94 160.892 
293.491 152.352 160.995 295.454 151.971 160.497 296.356 152.137 160.475 
294.984 153.181 160.603 296 152.599 160.43 297.35 153.759 160.979 
297.021 154.593 161.026 294.998 149.852 161.566 295.979 150.48 161.214 
294.614 155.34 161.201 295.051 148.912 162.463 291.771 154.301 162.02 
298.561 154.188 162.288 291.875 156.111 162.339 298.708 155.229 162.795 
297.62 156.887 162.513 297.096 158.345 162.985 293.005 148.28 163.649 
293.965 148.482 163.026 294.343 148.063 163.546 298.153 149.847 163.082 
291.508 150.086 163.033 290.218 153.352 163.068 299.528 153.448 163.999 
296.514 160.255 163.99 293.988 147.717 164.154 294.427 147.397 164.745 
296.21 147.763 164.599 297.787 148.959 164.107 299.492 151.434 164.5 
299.238 156.26 164.418 292.09 147.807 164.875 292.667 147.084 165.665 
296.592 147.795 165.435 290.015 150.139 164.614 289.304 151.311 164.716 
281.274 157.14 166.221 285.028 157.924 165.255 297.635 160.87 165.714 
296.202 162.363 165.699 296.265 162.75 166.12 293.569 146.581 166.614 
295.405 147.202 165.895 290.422 148.362 165.734 298.414 149.446 166.165 
286.883 154.12 165.348 299.885 154.305 166.199 283.522 155.97 165.916 
280.489 156.956 166.756 280.409 157.783 166.692 298.125 160.366 166.04 
294.953 163.589 166.352 296.501 147.671 166.911 299.343 150.812 166.142 
299.861 152.631 166.3 280.224 156.498 167.236 279.626 156.375 167.904 
299.513 156.587 166.615 279.101 159.216 167.89 280.633 160.395 167.354 
293.749 163.225 166.035 297.062 163.111 167.557 295.345 164.31 167.244 
290.775 146.855 167.549 299.522 151.468 166.838 278.918 156.667 168.669 
278.052 159.452 169.121 279.279 161.17 168.385 297.49 163.107 168.555 
293.804 165.509 168.077 279.797 154.914 169.21 278.95 156.26 169.01 
277.724 158.833 169.982 297.68 162.87 168.943 293.77 166.731 169.43 
282.364 152.085 170.112 298.775 159.426 169.33 277.344 161.996 170.624 
277.91 162.712 170.291 297.66 162.942 170.343 295.076 166.879 170.904 
290.083 144.963 171.509 294.075 146.369 170.555 281.498 152.039 171.263 
277.149 162.17 171.346 277.166 164.136 171.853 284.306 167.968 170.868 
289.977 169.027 171.136 292.236 145.141 172.245 295.109 147.139 171.354 
295.466 147.587 172.026 282.765 149.99 172.175 281.265 151.968 171.784 
297.705 162.484 171.277 284.712 169.357 171.773 293.097 169.054 172.904 
292.952 145.438 172.652 280.399 152.644 173.086 278.691 155.587 173.019 
278.498 168.859 173.285 294.447 167.946 172.929 290.824 170.207 173.029 
291.708 169.923 173.28 267.384 171.893 174.761 267.443 171.886 174.815 
286.876 171.024 173.167 290.506 170.567 173.524 291.863 169.989 173.86 
267.401 171.894 174.782 288.143 143.437 174.344 294.623 146.755 174.202 
295.369 147.891 174.357 277.078 159.902 173.446 276.411 166.016 174.311 
268.254 171.506 175.433 268.283 171.445 175.527 268.158 171.546 175.382 
267.753 171.83 175.084 290.457 170.71 173.933 291.181 170.389 174.552 
267.516 171.874 174.914 267.524 171.916 174.897 281.082 151.011 175.416 
280.697 151.979 175.21 277.875 157.843 174.502 275.724 167.882 175.412 
274.804 168.684 176.074 274.935 169.661 175.712 270.13 170.602 176.348 
293.201 168.846 174.954 267.95 171.658 175.282 268.71 171.573 175.652 
268.776 171.247 175.855 269.284 171.328 175.927 292.066 169.822 174.752 
267.803 171.738 175.289 268.218 171.788 175.409 267.839 171.887 175.239 
268.266 171.992 175.844 268.409 172.039 175.686 269.335 172.079 175.989 
284.618 172.514 174.792 287.179 172.037 175.466 268.433 172.164 175.869 
268.512 172.247 175.954 288.52 141.977 176.643 286.003 143.278 175.827 
289.978 142.456 176.115 295.478 148.66 176.232 278.898 156.357 175.812 
275.9 165.378 176.286 269.609 170.881 176.237 269.62 170.485 176.786 
270.741 170.251 176.715 271.955 170.782 176.363 273.242 170.372 176.262 
272.394 169.874 176.729 268.287 171.338 176.011 271.956 171.518 176.25 
274.727 171.225 175.824 288.865 171.331 176.06 275.389 172.002 175.866 
268.902 172.389 176.345 269.285 172.742 177.044 269.437 172.757 176.65 
270.376 173.537 177.225 284.699 173.875 176.975 285.414 173.346 176.787 
269.767 173.247 177.119 287.975 141.889 177.05 288.033 141.697 177.655 
288.716 141.604 177.625 284.577 143.622 176.84 282.021 147.624 177.591 
281.323 150.354 176.905 295.787 152.85 177.382 274.7 167.445 177.057 
274.341 167.646 177.394 293.417 167.395 176.913 272.942 169.25 176.977 
268.793 170.783 176.933 268.874 170.695 177.205 268.715 170.781 177.01 
268.949 170.812 176.655 269.224 170.509 177.191 268.656 170.874 176.906 
268.578 171.147 176.691 268.776 172.086 177.04 271.356 173.169 176.689 
275.165 173.8 176.806 270.043 173.493 177.806 284.669 174.229 177.638 
270.998 174.384 177.878 271.237 174.698 178.161 271.387 174.61 177.818 
271.943 174.766 177.826 271.455 174.888 178.051 271.56 175.009 178.111 
287.44 141.776 178.234 283.604 144.241 177.593 292.421 143.795 177.351 
282.805 145.268 178.098 295.269 149.089 177.961 281.553 150.885 178.448 
275.542 165.583 177.729 274.164 167.47 178.034 268.693 170.854 177.027 
269.594 170.227 177.706 270.921 169.618 177.756 269.731 173.039 178.534 
270.533 173.953 178.545 270.87 174.343 178.182 285.451 173.693 178.427 
272.003 175.163 178.48 271.67 175.062 178.198 272.458 175.481 178.657 
272.511 175.505 178.582 289.192 141.399 178.556 289.337 141.398 178.452 
289.495 141.467 178.402 286.779 142.036 178.814 288.213 141.626 178.733 
289.775 141.702 178.208 292.354 143.691 178.034 283.085 144.546 178.93 
282.775 145.26 178.752 282.229 147.056 178.963 294.636 147.542 178.595 
282.026 151.529 179.81 281.048 155.391 179.557 274.213 167.048 179.286 
270.296 169.777 178.698 271.431 169.201 178.348 269.065 170.823 177.979 
269.767 170.133 178.3 289.315 169.864 179.065 269.033 171.105 178.168 
285.814 173.222 179.248 274.266 175.901 178.673 272.856 175.631 179.13 
273.522 176.107 179.596 273.727 176.104 179.242 274.812 176.421 179.278 
280.272 176.851 179.111 281.288 176.521 178.794 282.434 176.51 179.363 
283.574 175.873 179.309 274.269 176.519 179.483 288.497 141.658 179.128 
288.397 141.723 179.308 288.638 141.788 179.324 289.405 141.523 178.599 
289.04 141.704 178.985 284.88 143.095 179.904 291.209 142.97 178.968 
283.917 143.489 179.56 291.748 143.336 178.796 283.38 144.149 179.728 
292.826 144.641 179.113 294.151 146.856 179.143 281.393 155.348 180.123 
276.139 164.194 179.49 275.865 164.728 179.973 275.501 165.351 180.469 
274.223 166.965 179.98 270.985 169.379 180.475 269.658 170.647 179.321 
269.729 171.778 179.988 269.795 172.276 179.868 284.148 175.297 179.958 
283.893 175.516 180.342 275.16 176.871 180.753 276.197 177.12 180.186 
280.978 177.105 179.757 281.148 177.212 180.172 282.07 176.833 179.839 
282.755 176.587 180.329 285.825 142.718 179.923 283.975 143.746 180.311 
285.016 143.321 180.497 283.733 144.064 180.397 282.52 147.141 180.308 
293.216 146.593 180.554 294.648 149.533 180.856 282.671 152.261 181.144 
282.7 154.551 181.949 282.436 155.087 181.801 270.572 170.068 181.208 
269.929 171.122 180.533 277.96 177.468 180.23 277.196 177.584 180.95 
285.502 143.459 180.848 283.711 144.445 180.677 284.615 144.177 181.155 
283.308 145.126 180.572 287.987 144.329 181.587 282.949 146.53 180.828 
294.523 149.552 181.101 283.409 152.866 182.41 281.283 157.349 181.964 
270.38 170.486 181.304 270.303 171.455 181.397 270.296 171.913 181.185 
272.672 174.813 181.943 282.115 176.482 181.627 275.756 177.072 181.866 
281.405 177.005 181.419 282.575 176.552 180.983 278.489 177.889 181.958 
278.984 177.985 181.611 279.299 177.93 181.68 278.791 177.974 181.839 
279.073 177.954 181.839 284.147 147.355 182.152 292.862 155.003 182.961 
271.11 170.295 182.489 281.95 175.093 182.937 276.091 176.894 182.805 
278.897 177.573 182.439 293.777 151.126 182.261 293.299 153.042 182.789 
284.321 154.678 184.216 273.906 167.895 183.098 271.327 170.523 182.975 
271.621 170.218 183.107 275.178 176.041 183.326 277.944 176.619 183.463 
291.542 151.029 183.841 292.423 151.191 183.392 289.252 151.646 184.77 
290.094 151.705 184.643 291.993 152.733 184.031 285.304 154.681 185.044 
291.423 155.997 184.484 289.899 162.123 185.306 271.726 171.489 183.578 
287.366 152.613 185.081 290.294 152.998 184.986 286.982 154.008 185.497 
286.275 154.073 185.299 290.974 155.688 184.89 283.035 158.234 185.366 
281.561 159.73 185.457 275.989 166.771 185.342 272.949 170.136 184.256 
274.945 173.083 185.01 275.684 175.531 184.015 287.978 155.267 185.945 
286.267 156.261 186.077 286.911 156.117 186.146 288.496 155.975 186.038 
290.304 155.697 185.302 288.174 156.689 186.256 289.742 157.71 185.711 
282.866 159.358 186.131 278.941 162.911 186.303 287.279 166.316 187.029 
276.262 167.678 186.026 284.631 169.146 186.13 276.126 169.179 186.033 
273.097 172.298 184.523 286.293 157.652 186.512 289.162 157.35 186.043 
287.728 158.191 186.604 279.539 163.264 187.102 280.88 163.047 187.67 
288.29 163.443 186.976 277.864 164.742 186.664 287.716 165.298 187.307 
287.571 165.007 187.541 285.983 166.821 187.64 279.03 168.3 187.598 
284.045 163.028 188.255 286.543 163.06 187.974 287.867 162.83 187.301 
281.011 164.979 188.486 280.678 165.372 188.472 277.839 166.768 187.442 
286.344 166.372 187.765 279.113 167.778 187.891 279.437 167.492 188.066 
284.722 167.716 187.61 286.775 164.759 188.106 278.996 166.383 188.031 
281.552 166.615 188.597 282.282 166.492 188.768 281.039 167.352 188.293 
283.609 166.864 188.595 282.282 166.479 266.253 284.406 166.514 266.467 
281.863 164.745 266.381 283.559 164.47 266.342 278.426 165.52 267.4 
279.498 165.456 266.854 286.733 165.228 267.025 278.31 166.421 267.345 
278.793 166.553 267.091 280.501 166.645 266.635 287.144 165.347 267.351 
[...]
POINT_DATA 815
COLOR_SCALARS scalars 3
1 0.564706 0.623529 1 0.564706 0.623529 1 0.564706 0.623529 
1 0.564706 0.623529 1 0.564706 0.623529 
1 0.564706 0.623529 1 0.564706 0.623529 
1 0.564706 0.623529 1 0.564706 0.623529 
1 0.564706 0.623529 1 0.564706 0.623529 
1 0.564706 0.623529 1 0.564706 0.623529 
1 0.564706 0.623529 1 0.564706 0.623529 
1 0.564706 0.623529 1 0.564706 0.623529 
1 0.564706 0.623529 1 0.564706 0.623529 
1 0.564706 0.623529 1 0.564706 0.623529 
1 0.564706 0.623529 1 0.564706 0.623529 
1 0.564706 0.623529 1 0.564706 0.623529 
1 0.564706 0.623529 1 0.564706 0.623529 
1 0.564706 0.623529 1 0.564706 0.623529 
1 0.564706 0.623529 1 0.564706 0.623529 
1 0.564706 0.623529 1 0.564706 0.623529 
1 0.564706 0.623529 1 0.564706 0.623529 
1 0.564706 0.623529 1 0.564706 0.623529 
1 0.564706 0.623529 1 0.564706 0.623529 
1 0.564706 0.623529 1 0.564706 0.623529 
1 0.564706 0.623529 1 0.564706 0.623529 
1 0.564706 0.623529 1 0.564706 0.623529 
1 0.564706 0.623529 1 0.564706 0.623529 
1 0.564706 0.623529 1 0.564706 0.623529 
1 0.564706 0.623529 1 0.564706 0.623529 
1 0.564706 0.623529 1 0.564706 0.623529 
1 0.564706 0.623529 1 0.564706 0.623529 
1 0.564706 0.623529 1 0.564706 0.623529 
1 0.564706 0.623529 1 0.564706 0.623529 
1 0.564706 0.623529 1 0.564706 0.623529 
1 0.564706 0.623529 1 0.564706 0.623529 
1 0.564706 0.623529 1 0.564706 0.623529 
1 0.564706 0.623529 1 0.564706 0.623529 
1 0.564706 0.623529 1 0.564706 0.623529 
1 0.564706 0.623529 1 0.564706 0.623529 
1 0.564706 0.623529 1 0.564706 0.623529 
1 0.564706 0.623529 1 0.564706 0.623529 
1 0.564706 0.623529 1 0.564706 0.623529 
1 0.564706 0.623529 1 0.564706 0.623529 
1 0.564706 0.623529 1 0.564706 0.623529 
1 0.564706 0.623529 1 0.564706 0.623529 
1 0.564706 0.623529 1 0.564706 0.623529 
1 0.564706 0.623529 1 0.564706 0.623529 
1 0.564706 0.623529 1 0.564706 0.623529 
1 0.564706 0.623529 1 0.564706 0.623529 
1 0.564706 0.623529 1 0.564706 0.623529 
1 0.564706 0.623529 1 0.564706 0.623529 
1 0.564706 0.623529 1 0.564706 0.623529 
1 0.564706 0.623529 1 0.564706 0.623529 
1 0.564706 0.623529 1 0.564706 0.623529 
1 0.564706 0.623529 1 0.564706 0.623529 
1 0.564706 0.623529 1 0.564706 0.623529 
1 0.564706 0.623529 1 0.564706 0.623529 
1 0.564706 0.623529 1 0.564706 0.623529 
1 0.564706 0.623529 1 0.564706 0.623529 
1 0.564706 0.623529 1 0.564706 0.623529 
1 0.564706 0.623529 1 0.564706 0.623529 
1 0.564706 0.623529 1 0.564706 0.623529 
1 0.564706 0.623529 1 0.564706 0.623529 
1 0.564706 0.623529 1 0.564706 0.623529 
1 0.564706 0.623529 1 0.564706 0.623529 
1 0.564706 0.623529 1 0.564706 0.623529 
1 0.564706 0.623529 1 0.564706 0.623529 
1 0.564706 0.623529 1 0.564706 0.623529 
1 0.564706 0.623529 1 0.564706 0.623529 
1 0.564706 0.623529 1 0.564706 0.623529 
1 0.564706 0.623529 1 0.564706 0.623529 
1 0.564706 0.623529 1 0.564706 0.623529 
1 0.564706 0.623529 1 0.564706 0.623529 
1 0.564706 0.623529 1 0.564706 0.623529 
1 0.564706 0.623529 1 0.564706 0.623529 
1 0.564706 0.623529 1 0.564706 0.623529 
1 0.564706 0.623529 1 0.564706 0.623529 
1 0.564706 0.623529 1 0.564706 0.623529 
1 0.564706 0.623529 1 0.564706 0.623529 
1 0.564706 0.623529 1 0.564706 0.623529 
1 0.564706 0.623529 1 0.564706 0.623529 
1 0.564706 0.623529 1 0.564706 0.623529 
1 0.564706 0.623529 1 0.564706 0.623529 
1 0.564706 0.623529 1 0.564706 0.623529 
1 0.564706 0.623529 1 0.564706 0.623529 
1 0.564706 0.623529 1 0.564706 0.623529 
1 0.564706 0.623529 1 0.564706 0.623529 
1 0.564706 0.623529 1 0.564706 0.623529 
1 0.564706 0.623529 1 0.564706 0.623529 
1 0.564706 0.623529 1 0.564706 0.623529 
1 0.564706 0.623529 1 0.564706 0.623529 
1 0.564706 0.623529 1 0.564706 0.623529 
1 0.564706 0.623529 1 0.564706 0.623529 
1 0.564706 0.623529 1 0.564706 0.623529 
1 0.564706 0.623529 1 0.564706 0.623529 
1 0.564706 0.623529 1 0.564706 0.623529 
1 0.564706 0.623529 1 0.564706 0.623529 
1 0.564706 0.623529 1 0.564706 0.623529 
1 0.564706 0.623529 1 0.564706 0.623529 
1 0.564706 0.623529 1 0.564706 0.623529 
1 0.564706 0.623529 1 0.564706 0.623529 
1 0.564706 0.623529 1 0.564706 0.623529 
1 0.564706 0.623529 1 0.564706 0.623529 
1 0.564706 0.623529 1 0.564706 0.623529 
1 0.564706 0.623529 1 0.564706 0.623529 
1 0.564706 0.623529 1 0.564706 0.623529 
1 0.564706 0.623529 1 0.564706 0.623529 
1 0.564706 0.623529 1 0.564706 0.623529 
1 0.564706 0.623529 1 0.564706 0.623529 
1 0.564706 0.623529 1 0.564706 0.623529 
1 0.564706 0.623529 1 0.564706 0.623529 
1 0.564706 0.623529 1 0.564706 0.623529 
1 0.564706 0.623529 1 0.564706 0.623529 
1 0.564706 0.623529 1 0.564706 0.623529 
1 0.564706 0.623529 1 0.564706 0.623529 
1 0.564706 0.623529 1 0.564706 0.623529 
1 0.564706 0.623529 1 0.564706 0.623529 
1 0.564706 0.623529 1 0.564706 0.623529 
1 0.564706 0.623529 1 0.564706 0.623529 
1 0.564706 0.623529 1 0.564706 0.623529 
1 0.564706 0.623529 1 0.564706 0.623529 
1 0.564706 0.623529 1 0.564706 0.623529 
1 0.564706 0.623529 1 0.564706 0.623529 
1 0.564706 0.623529 1 0.564706 0.623529 
1 0.564706 0.623529 1 0.564706 0.623529 
1 0.564706 0.623529 1 0.564706 0.623529 
1 0.564706 0.623529 1 0.564706 0.623529 
1 0.564706 0.623529 1 0.564706 0.623529 
1 0.564706 0.623529 1 0.564706 0.623529 
1 0.564706 0.623529 1 0.564706 0.623529 
1 0.564706 0.623529 1 0.564706 0.623529 
1 0.564706 0.623529 1 0.564706 0.623529 
1 0.564706 0.623529 1 0.564706 0.623529 
1 0.564706 0.623529 1 0.564706 0.623529 
1 0.564706 0.623529 1 0.564706 0.623529 
1 0.564706 0.623529 1 0.564706 0.623529 
1 0.564706 0.623529 1 0.564706 0.623529 
1 0.564706 0.623529 1 0.564706 0.623529 
1 0.564706 0.623529 1 0.564706 0.623529 
1 0.564706 0.623529 1 0.564706 0.623529 
1 0.564706 0.623529 1 0.564706 0.623529 
1 0.564706 0.623529 1 0.564706 0.623529 
1 0.564706 0.623529 1 0.564706 0.623529 
1 0.564706 0.623529 1 0.564706 0.623529 
1 0.564706 0.623529 1 0.564706 0.623529 
1 0.564706 0.623529 1 0.564706 0.623529 
1 0.564706 0.623529 1 0.564706 0.623529 
1 0.564706 0.623529 1 0.564706 0.623529 
1 0.564706 0.623529 1 0.564706 0.623529 
1 0.564706 0.623529 1 0.564706 0.623529 
1 0.564706 0.623529 1 0.564706 0.623529 
1 0.564706 0.623529 1 0.564706 0.623529 
1 0.564706 0.623529 1 0.564706 0.623529 
1 0.564706 0.623529 1 0.564706 0.623529 
1 0.564706 0.623529 1 0.564706 0.623529 
1 0.564706 0.623529 1 0.564706 0.623529 
1 0.564706 0.623529 1 0.564706 0.623529 
1 0.564706 0.623529 1 0.564706 0.623529 
1 0.564706 0.623529 1 0.564706 0.623529 
1 0.564706 0.623529 1 0.564706 0.623529 
1 0.564706 0.623529 1 0.564706 0.623529 
1 0.564706 0.623529 1 0.564706 0.623529 
1 0.564706 0.623529 1 0.564706 0.623529 
1 0.564706 0.623529 1 0.564706 0.623529 
1 0.564706 0.623529 1 0.564706 0.623529 
1 0.564706 0.623529 1 0.564706 0.623529 
1 0.564706 0.623529 1 0.564706 0.623529 
1 0.564706 0.623529 1 0.564706 0.623529 
1 0.564706 0.623529 1 0.564706 0.623529 
1 0.564706 0.623529 1 0.564706 0.623529 
1 0.564706 0.623529 1 0.564706 0.623529 
1 0.564706 0.623529 1 0.564706 0.623529 
1 0.564706 0.623529 1 0.564706 0.623529 
1 0.564706 0.623529 1 0.564706 0.623529 
1 0.564706 0.623529 1 0.564706 0.623529 
1 0.564706 0.623529 1 0.564706 0.623529 
1 0.564706 0.623529 1 0.564706 0.623529 
1 0.564706 0.623529 1 0.564706 0.623529 
1 0.564706 0.623529 1 0.564706 0.623529 
1 0.564706 0.623529 1 0.564706 0.623529 
1 0.564706 0.623529 1 0.564706 0.623529 
1 0.564706 0.623529 1 0.564706 0.623529 
1 0.564706 0.623529 1 0.564706 0.623529 
1 0.564706 0.623529 1 0.564706 0.623529 
1 0.564706 0.623529 1 0.564706 0.623529 
1 0.564706 0.623529 1 0.564706 0.623529 
1 0.564706 0.623529 1 0.564706 0.623529 
1 0.564706 0.623529 1 0.564706 0.623529 
1 0.564706 0.623529 1 0.564706 0.623529 
1 0.564706 0.623529 1 0.564706 0.623529 
1 0.564706 0.623529 1 0.564706 0.623529 
1 0.564706 0.623529 1 0.564706 0.623529 
1 0.564706 0.623529 1 0.564706 0.623529 
1 0.564706 0.623529 1 0.564706 0.623529 
1 0.564706 0.623529 1 0.564706 0.623529 
1 0.564706 0.623529 1 0.564706 0.623529 
1 0.564706 0.623529 1 0.564706 0.623529 
1 0.564706 0.623529 1 0.564706 0.623529 
1 0.564706 0.623529 1 0.564706 0.623529 
1 0.564706 0.623529 1 0.564706 0.623529 
1 0.564706 0.623529 1 0.564706 0.623529 
1 0.564706 0.623529 1 0.564706 0.623529 
1 0.564706 0.623529 1 0.564706 0.623529 
1 0.564706 0.623529 1 0.564706 0.623529 
1 0.564706 0.623529 1 0.564706 0.623529 
1 0.564706 0.623529 1 0.564706 0.623529 
1 0.564706 0.623529 1 0.564706 0.623529 
1 0.564706 0.623529 1 0.564706 0.623529 
1 0.564706 0.623529 1 0.564706 0.623529 
1 0.564706 0.623529 1 0.564706 0.623529 
1 0.564706 0.623529 1 0.564706 0.623529 
1 0.564706 0.623529 1 0.564706 0.623529 
1 0.564706 0.623529 1 0.564706 0.623529 
1 0.564706 0.623529 1 0.564706 0.623529 
1 0.564706 0.623529 1 0.564706 0.623529 
1 0.564706 0.623529 1 0.564706 0.623529 
1 0.564706 0.623529 1 0.564706 0.623529 
1 0.564706 0.623529 1 0.564706 0.623529 
1 0.564706 0.623529 1 0.564706 0.623529 
1 0.564706 0.623529 1 0.564706 0.623529 
1 0.564706 0.623529 1 0.564706 0.623529 
1 0.564706 0.623529 1 0.564706 0.623529 
1 0.564706 0.623529 1 0.564706 0.623529 
1 0.564706 0.623529 1 0.564706 0.623529 
1 0.564706 0.623529 1 0.564706 0.623529 
1 0.564706 0.623529 1 0.564706 0.623529 
1 0.564706 0.623529 1 0.564706 0.623529 
1 0.564706 0.623529 1 0.564706 0.623529 
1 0.564706 0.623529 1 0.564706 0.623529 
1 0.564706 0.623529 1 0.564706 0.623529 
1 0.564706 0.623529 1 0.564706 0.623529 
1 0.564706 0.623529 1 0.564706 0.623529 
1 0.564706 0.623529 1 0.564706 0.623529 
1 0.564706 0.623529 1 0.564706 0.623529 
1 0.564706 0.623529 1 0.564706 0.623529 
1 0.564706 0.623529 1 0.564706 0.623529 
1 0.564706 0.623529 1 0.564706 0.623529 
1 0.564706 0.623529 1 0.564706 0.623529 
1 0.564706 0.623529 1 0.564706 0.623529 
1 0.564706 0.623529 1 0.564706 0.623529 
1 0.564706 0.623529 1 0.564706 0.623529 
1 0.564706 0.623529 1 0.564706 0.623529 
1 0.564706 0.623529 1 0.564706 0.623529 
1 0.564706 0.623529 1 0.564706 0.623529 
1 0.564706 0.623529 1 0.564706 0.623529 
1 0.564706 0.623529 1 0.564706 0.623529 
1 0.564706 0.623529 1 0.564706 0.623529 
1 0.564706 0.623529 1 0.564706 0.623529 
1 0.564706 0.623529 1 0.564706 0.623529 
1 0.564706 0.623529 1 0.564706 0.623529 
1 0.564706 0.623529 1 0.564706 0.623529 
1 0.564706 0.623529 1 0.564706 0.623529 
1 0.564706 0.623529 1 0.564706 0.623529 
1 0.564706 0.623529 1 0.564706 0.623529 
1 0.564706 0.623529 1 0.564706 0.623529 
1 0.564706 0.623529 1 0.564706 0.623529 
1 0.564706 0.623529 1 0.564706 0.623529 
1 0.564706 0.623529 1 0.564706 0.623529 
1 0.564706 0.623529 1 0.564706 0.623529 
1 0.564706 0.623529 1 0.564706 0.623529 
1 0.564706 0.623529 1 0.564706 0.623529 
1 0.564706 0.623529 1 0.564706 0.623529 
1 0.564706 0.623529 1 0.564706 0.623529 
1 0.564706 0.623529 1 0.564706 0.623529 
1 0.564706 0.623529 1 0.564706 0.623529 
1 0.564706 0.623529 1 0.564706 0.623529 
1 0.564706 0.623529 1 0.564706 0.623529 
1 0.564706 0.623529 1 0.564706 0.623529 
1 0.564706 0.623529 1 0.564706 0.623529 
1 0.564706 0.623529 1 0.564706 0.623529 
1 0.564706 0.623529 1 0.564706 0.623529 
1 0.564706 0.623529 1 0.564706 0.623529 
1 0.564706 0.623529 1 0.564706 0.623529 
1 0.564706 0.623529 1 0.564706 0.623529 
1 0.564706 0.623529 1 0.564706 0.623529 
1 0.564706 0.623529 1 0.564706 0.623529 
1 0.564706 0.623529 1 0.564706 0.623529 
1 0.564706 0.623529 1 0.564706 0.623529 
1 0.564706 0.623529 1 0.564706 0.623529 
1 0.564706 0.623529 1 0.564706 0.623529 
1 0.564706 0.623529 1 0.564706 0.623529 
1 0.564706 0.623529 1 0.564706 0.623529 
1 0.564706 0.623529 1 0.564706 0.623529 
1 0.564706 0.623529 1 0.564706 0.623529 
1 0.564706 0.623529 1 0.564706 0.623529 
1 0.564706 0.623529 1 0.564706 0.623529 
1 0.564706 0.623529 1 0.564706 0.623529 
1 0.564706 0.623529 1 0.564706 0.623529 
1 0.564706 0.623529 1 0.564706 0.623529 
1 0.564706 0.623529 1 0.564706 0.623529 
1 0.564706 0.623529 1 0.564706 0.623529 
1 0.564706 0.623529 1 0.564706 0.623529 
1 0.564706 0.623529 1 0.564706 0.623529 
1 0.564706 0.623529 1 0.564706 0.623529 
1 0.564706 0.623529 1 0.564706 0.623529 
1 0.564706 0.623529 1 0.564706 0.623529 
1 0.564706 0.623529 1 0.564706 0.623529 
1 0.564706 0.623529 1 0.564706 0.623529 
1 0.564706 0.623529 1 0.564706 0.623529 
1 0.564706 0.623529 1 0.564706 0.623529 
1 0.564706 0.623529 1 0.564706 0.623529 
1 0.564706 0.623529 1 0.564706 0.623529 
1 0.564706 0.623529 1 0.564706 0.623529 
1 0.564706 0.623529 1 0.564706 0.623529 
1 0.564706 0.623529 1 0.564706 0.623529 
1 0.564706 0.623529 1 0.564706 0.623529 
1 0.564706 0.623529 1 0.564706 0.623529 
1 0.564706 0.623529 1 0.564706 0.623529 
1 0.564706 0.623529 1 0.564706 0.623529 
1 0.564706 0.623529 1 0.564706 0.623529 
1 0.564706 0.623529 1 0.564706 0.623529 
1 0.564706 0.623529 1 0.564706 0.623529 
1 0.564706 0.623529 1 0.564706 0.623529 
1 0.564706 0.623529 1 0.564706 0.623529 
1 0.564706 0.623529 1 0.564706 0.623529 
1 0.564706 0.623529 1 0.564706 0.623529 
1 0.564706 0.623529 1 0.564706 0.623529 
1 0.564706 0.623529 1 0.564706 0.623529 
1 0.564706 0.623529 1 0.564706 0.623529 
1 0.564706 0.623529 1 0.564706 0.623529 
1 0.564706 0.623529 1 0.564706 0.623529 
1 0.564706 0.623529 1 0.564706 0.623529 
1 0.564706 0.623529 1 0.564706 0.623529 
1 0.564706 0.623529 1 0.564706 0.623529 
1 0.564706 0.623529 1 0.564706 0.623529 
1 0.564706 0.623529 1 0.564706 0.623529 
1 0.564706 0.623529 1 0.564706 0.623529 
1 0.564706 0.623529 1 0.564706 0.623529 
1 0.564706 0.623529 1 0.564706 0.623529 
1 0.564706 0.623529 1 0.564706 0.623529 
1 0.564706 0.623529 1 0.564706 0.623529 
1 0.564706 0.623529 1 0.564706 0.623529 
1 0.564706 0.623529 1 0.564706 0.623529 
1 0.564706 0.623529 1 0.564706 0.623529 
1 0.564706 0.623529 1 0.564706 0.623529 
1 0.564706 0.623529 1 0.564706 0.623529 
1 0.564706 0.623529 1 0.564706 0.623529 
1 0.564706 0.623529 1 0.564706 0.623529 
1 0.564706 0.623529 1 0.564706 0.623529 
1 0.564706 0.623529 1 0.564706 0.623529 
1 0.564706 0.623529 1 0.564706 0.623529 
1 0.564706 0.623529 1 0.564706 0.623529 
1 0.564706 0.623529 1 0.564706 0.623529 
1 0.564706 0.623529 1 0.564706 0.623529 
1 0.564706 0.623529 1 0.564706 0.623529 
1 0.564706 0.623529 1 0.564706 0.623529 
1 0.564706 0.623529 1 0.564706 0.623529 
1 0.564706 0.623529 1 0.564706 0.623529 
1 0.564706 0.623529 1 0.564706 0.623529 
1 0.564706 0.623529 1 0.564706 0.623529 
1 0.564706 0.623529 1 0.564706 0.623529 
1 0.564706 0.623529 1 0.564706 0.623529 
1 0.564706 0.623529 1 0.564706 0.623529 
1 0.564706 0.623529 1 0.564706 0.623529 
1 0.564706 0.623529 1 0.564706 0.623529 
1 0.564706 0.623529 1 0.564706 0.623529 
1 0.564706 0.623529 1 0.564706 0.623529 
1 0.564706 0.623529 1 0.564706 0.623529 
1 0.564706 0.623529 1 0.564706 0.623529 
1 0.564706 0.623529 1 0.564706 0.623529 
1 0.564706 0.623529 1 0.564706 0.623529 
1 0.564706 0.623529 1 0.564706 0.623529 
1 0.564706 0.623529 1 0.564706 0.623529 
1 0.564706 0.623529 1 0.564706 0.623529 
1 0.564706 0.623529 1 0.564706 0.623529 
1 0.564706 0.623529 1 0.564706 0.623529 
1 0.564706 0.623529 1 0.564706 0.623529 
1 0.564706 0.623529 1 0.564706 0.623529 
1 0.564706 0.623529 1 0.564706 0.623529 
1 0.564706 0.623529 1 0.564706 0.623529 
1 0.564706 0.623529 1 0.564706 0.623529 
1 0.564706 0.623529 1 0.564706 0.623529 
1 0.564706 0.623529 1 0.564706 0.623529 
1 0.564706 0.623529 1 0.564706 0.623529 
1 0.564706 0.623529 1 0.564706 0.623529 
1 0.564706 0.623529 1 0.564706 0.623529 
1 0.564706 0.623529 1 0.564706 0.623529 
1 0.564706 0.623529 1 0.564706 0.623529 
1 0.564706 0.623529 1 0.564706 0.623529 
1 0.564706 0.623529 1 0.564706 0.623529 
1 0.564706 0.623529 1 0.564706 0.623529 
1 0.564706 0.623529 1 0.564706 0.623529 
1 0.564706 0.623529 1 0.564706 0.623529 
1 0.564706 0.623529 1 0.564706 0.623529 
1 0.564706 0.623529 1 0.564706 0.623529 
1 0.564706 0.623529 1 0.564706 0.623529 
1 0.564706 0.623529 1 0.564706 0.623529 
1 0.564706 0.623529 1 0.564706 0.623529 
1 0.564706 0.623529 1 0.564706 0.623529 
1 0.564706 0.623529 1 0.564706 0.623529 
1 0.564706 0.623529 1 0.564706 0.623529 
1 0.564706 0.623529 1 0.564706 0.623529 
1 0.564706 0.623529 1 0.564706 0.623529 
1 0.564706 0.623529 1 0.564706 0.623529 
1 0.564706 0.623529 1 0.564706 0.623529 
1 0.564706 0.623529 1 0.564706 0.623529 
1 0.564706 0.623529 1 0.564706 0.623529 
1 0.564706 0.623529 1 0.564706 0.623529 
1 0.564706 0.623529 1 0.564706 0.623529 
1 0.564706 0.623529 1 0.564706 0.623529 
1 0.564706 0.623529 1 0.564706 0.623529 
1 0.564706 0.623529 1 0.564706 0.623529 
1 0.564706 0.623529 1 0.564706 0.623529 
1 0.564706 0.623529 1 0.564706 0.623529 
1 0.564706 0.623529 1 0.564706 0.623529 
1 0.564706 0.623529 1 0.564706 0.623529 
1 0.564706 0.623529 1 0.564706 0.623529 
1 0.564706 0.623529 1 0.564706 0.623529 
1 0.564706 0.623529 1 0.564706 0.623529 
1 0.564706 0.623529 1 0.564706 0.623529 
1 0.564706 0.623529 1 0.564706 0.623529 

NORMALS Normals float
0.013822 -0.145474 -0.989266 -0.182291 -0.402074 -0.897277 -0.277829 0.117946 -0.953362 
0.321345 -0.392882 -0.861615 0.247277 0.0990496 -0.963869 0.309294 0.0246334 -0.950647 
0.62669 -0.118504 -0.770205 -0.401965 -0.428146 -0.809392 -0.190674 -0.351527 -0.916555 
-0.268631 -0.290514 -0.918389 0.189023 -0.525566 -0.829488 0.14964 -0.443578 -0.883655 
-0.427314 -0.0280027 -0.903669 -0.243625 -0.175215 -0.953911 0.423174 -0.235562 -0.874891 
-0.194409 0.116064 -0.97403 -0.0270153 0.179294 -0.983425 0.631026 0.0773613 -0.771895 
0.24029 0.373376 -0.896019 -0.0783386 -0.592586 -0.801688 0.192732 -0.567769 -0.800308 
-0.190647 0.318507 -0.928551 0.169588 -0.747295 -0.642487 -0.489398 0.044886 -0.870905 
0.752672 0.101834 -0.650473 -0.32142 0.329345 -0.887818 0.808626 0.239329 -0.537444 
0.650391 0.369777 -0.663519 0.516915 0.477521 -0.710474 -0.312645 -0.786897 -0.532021 
-0.136932 -0.704879 -0.695985 0.0169075 -0.811042 -0.584743 0.652278 -0.486178 -0.581518 
-0.57128 -0.388403 -0.723036 -0.568195 -0.155634 -0.808043 0.930809 0.026715 -0.364528 
0.426029 0.519524 -0.740672 -0.094987 -0.889586 -0.446782 -0.0724709 -0.915165 -0.396511 
0.282268 -0.86848 -0.407514 0.579999 -0.753287 -0.310096 0.9493 -0.223572 -0.221007 
0.850537 0.340674 -0.400659 -0.415285 -0.717858 -0.558765 -0.194175 -0.875709 -0.442075 
0.475644 -0.851501 -0.220703 -0.762064 -0.461216 -0.454464 -0.604846 -0.363831 -0.70837 
-0.376588 -0.153925 -0.913503 -0.356165 -0.0323979 -0.933861 0.683538 0.523471 -0.508678 
0.345126 0.608194 -0.714834 0.549406 0.638132 -0.539389 0.0878972 -0.956657 -0.277634 
0.230619 -0.947309 -0.222306 -0.654011 -0.623706 -0.42809 0.775814 -0.627726 0.0638247 
-0.392587 -0.166025 -0.904606 0.999221 0.0383684 0.00928073 -0.354514 -0.448213 -0.820625 
-0.602945 -0.279367 -0.747269 -0.628139 -0.00923906 -0.778047 0.838724 0.434493 -0.328265 
0.155308 0.680069 -0.716509 0.575239 -0.809122 0.120089 0.872456 -0.472535 0.124619 
0.971543 -0.111813 0.20881 -0.555902 -0.483755 -0.675984 -0.646959 -0.435837 -0.625692 
0.980095 0.157992 0.12022 -0.708769 -0.0055996 -0.705419 -0.334696 0.38376 -0.860643 
-0.133678 0.597468 -0.790672 0.759059 0.547105 -0.352852 0.364132 0.749898 -0.552324 
-0.579502 -0.692984 -0.428894 0.897486 -0.317262 0.306371 -0.793271 -0.324767 -0.515022 
-0.805006 0.00596783 -0.593237 -0.566052 0.354557 -0.744227 0.809033 0.535831 -0.24156 
0.0143276 0.746303 -0.665452 -0.657648 -0.598434 -0.457577 -0.885356 -0.417688 -0.20416 
-0.91016 -0.233029 -0.3425 0.91063 0.398949 -0.107667 0.0979142 0.78754 -0.608435 
-0.527622 -0.660044 -0.534749 0.974336 0.224557 0.0156266 -0.89477 0.110788 -0.432565 
-0.629662 0.429046 -0.647646 0.867084 0.497268 0.0298247 0.641929 0.703046 -0.30603 
-0.207112 -0.835864 -0.508367 0.542304 -0.833927 0.102328 -0.708122 -0.619104 -0.339519 
-0.94914 0.123395 -0.289667 -0.891591 0.178071 -0.416361 -0.179716 0.573701 -0.799105 
0.098703 0.726611 -0.679922 0.403593 -0.89562 -0.187021 0.617037 -0.765941 0.180554 
0.710186 -0.689209 0.14362 -0.744178 -0.561171 -0.362333 -0.681769 -0.639398 -0.355473 
0.913937 0.174741 0.366312 -0.168814 0.619341 -0.766759 0.559526 0.792932 -0.241225 