# vtk DataFile Version 4.2
vtk output
ASCII
DATASET POLYDATA
POINTS 543 float
411.744 203.309 131.026 411.555 202.877 130.991 409.896 203.994 130.526 
410.902 204.536 130.558 411.014 205.532 130.636 410.352 206.587 130.531 
408.163 207.63 130.305 410.67 207.108 130.801 410.854 207.56 131.112 
412.188 200.684 131.566 411.933 200.781 131.64 412.258 200.778 131.532 
412.272 200.676 131.523 412.307 200.673 131.539 411.759 201.134 131.474 
411.396 200.858 131.74 412.109 201.066 131.51 412.215 200.957 131.617 
412.256 200.759 131.619 410.123 201.432 131.477 410.997 201.971 131.126 
412.137 201.369 131.639 412.068 202.123 131.557 412.163 204.474 131.698 
411.775 206.036 131.421 411.948 205.594 131.516 411.604 206.603 131.626 
411.893 206.008 131.72 409.579 208.855 130.811 410.161 208.589 131.027 
411.187 207.594 131.603 404.062 210.514 131.284 409.363 209.561 131.018 
410.414 209.074 131.545 407.679 210.457 130.924 410.79 209.027 132.026 
404.991 212.138 131.27 407.092 212.179 131.39 409.071 211.657 132.082 
411.303 200.61 132.133 412.128 200.729 131.691 411.445 200.56 132.559 
412.27 200.661 131.568 411.773 200.735 131.983 412.111 201.014 131.89 
412.297 204.036 132.397 402.601 210.089 131.813 410.669 209.773 132.738 
408.064 212.485 131.87 409.454 211.925 132.823 407.307 213.513 132.108 
408.527 213.176 132.618 406.267 214.213 132.204 409.555 199.712 133.287 
411.856 200.875 132.35 412.047 201.306 132.394 412.028 201.564 132.827 
412.2 202.967 132.978 403.273 204.438 132.967 398.935 211.417 133.522 
410.317 210.688 133.069 399.585 214.591 133.767 407.187 215.186 133.312 
408.81 213.969 133.774 401.271 216.142 133.773 400.349 206.52 133.864 
399.905 207.129 133.907 410.707 209.585 134.459 410.667 209.94 133.761 
409.582 212.668 134.681 406.259 216.528 133.839 407.618 215.93 134.66 
403.67 217.334 134.022 406.215 217.561 134.86 409.429 198.602 135.761 
410.047 199.093 135.467 411.165 200.594 135.092 411.933 203.525 134.193 
399.094 215.685 135.281 404.804 218.268 134.898 404.575 218.936 135.663 
405.497 218.574 135.886 404.453 219.008 135.724 406.796 198.106 136.05 
410.4 199.446 136.094 403.111 200.971 135.468 395.454 210.509 135.996 
394.563 211.706 136.838 394.578 212.177 137.036 396.543 213.867 136.256 
397.754 215.009 136.456 400.043 216.652 136.044 403.673 218.796 136.201 
406.374 218.024 136.169 408.616 197.508 137.341 407.109 197.535 137.015 
393.992 210.066 137.309 393.85 210.479 137.378 393.932 210.993 137.322 
402.173 218.08 137.003 406.516 217.802 137.529 404.093 218.807 137.213 
405.861 218.396 137.355 405.047 218.8 136.846 406.877 196.778 138.583 
406.337 196.868 138.404 407.851 196.983 138.617 406.103 197.235 137.836 
397.16 204.086 137.796 393.932 208.916 137.735 392.988 211.52 138.366 
392.613 211.745 138.817 392.628 212.167 139.063 394.06 213.208 138.524 
395.269 213.96 138.108 396.061 214.48 138.255 400.539 217.062 137.635 
404.426 218.792 137.477 404.611 218.664 137.883 403.39 197.3 139.677 
391.875 210.363 139.408 408.252 214.112 139.028 407.757 215.213 139.081 
399.335 216.186 139.398 401.356 217.329 138.929 405.494 217.913 139.1 
403.388 218.251 138.86 406.932 196.153 140.669 404.902 196.207 140.32 
408.567 197.256 139.456 396.895 201.965 140.148 391.422 209.2 140.297 
391.167 211.936 140.597 390.945 212.024 141.005 392.586 213.263 140.418 
406.161 217.082 139.683 403.655 218.019 139.692 404.68 196.007 141.345 
407.505 196.368 140.889 401.023 198.106 141.325 396.55 201.767 141.127 
393.417 205.296 140.99 392.699 206.03 141.223 391.744 207.551 141.101 
391.573 207.287 141.664 390.032 210.814 141.931 392.245 213.568 141.598 
400.198 216.278 140.815 404.725 217.525 140.342 404.067 217.975 139.77 
405.968 195.437 142.379 406.406 195.696 142.02 407.91 196.585 141.882 
397.928 200.361 141.807 410.239 205.781 142.454 391.493 206.807 142.702 
390.416 208.723 142.311 389.927 210.51 142.115 407.845 212.143 142.112 
390.152 211.989 142.823 390.739 212.616 142.569 391.201 213.161 142.753 
393.456 214.195 141.979 401.828 216.544 141.417 406.013 195.436 142.576 
406.147 195.481 142.664 406.405 195.665 142.786 403.46 196.457 142.567 
407.553 196.397 143.024 397.124 200.964 142.43 395.235 202.744 142.553 
395.377 202.548 143.513 393.427 204.389 143.542 389.419 210.495 143.912 
389.55 211.324 144.023 389.78 211.733 143.857 391.462 213.395 143.048 
406.26 215.059 141.921 395.787 214.86 143.001 402.472 216.532 141.648 
403.679 216.018 142.33 404.668 216.385 141.763 405.009 215.873 142.12 
405.981 195.531 142.849 406.555 195.839 143.409 403.727 196.49 144.056 
406.847 196.053 143.717 407.348 196.413 143.776 391.256 206.946 143.716 
389.365 210.406 144.351 389.396 210.845 144.319 406.365 213.951 142.66 
405.073 214.869 142.939 394.76 214.586 143.756 402.837 214.938 143.583 
404.741 215.407 142.645 404.942 196.136 144.393 405.94 195.912 144.2 
395.421 202.664 144.313 410.578 203.477 144.939 392.858 205.483 144.903 
392.253 205.997 144.651 390.833 207.593 144.437 409.496 207.251 144.478 
390.211 208.503 144.496 389.429 210.136 144.577 389.443 210.924 144.853 
389.55 211.247 144.956 390.797 212.736 144.626 405.295 196.084 144.688 
405.51 196.109 144.828 407.17 196.989 145.358 403.255 197.468 145.342 
408.236 197.77 145.359 401.284 198.289 144.866 398.285 200.503 144.833 
391.974 206.566 145.093 391.675 207.076 145.289 390.855 208.025 145.217 
407.701 209.151 145.53 389.618 210.425 145.348 389.489 210.642 145.145 
389.899 211.328 145.527 390.126 211.663 145.488 390.585 212.146 145.447 
394.816 214.022 145.47 405.355 196.578 145.37 404.231 198.12 146.363 
396.274 203.389 145.833 410.432 203.181 146.839 396.608 204.17 146.496 
398.128 204.264 147.137 391.527 207.717 145.691 391.299 209.085 146.41 
389.611 210.662 145.38 390.161 211.401 145.78 390.371 211.224 146.028 
391.444 212.562 145.933 397.204 213.794 146.125 407.267 198.215 146.767 
408.848 199.082 146.501 409.443 200.055 146.677 409.868 201.216 147.143 
410.209 201.979 147.231 400.731 203.87 147.738 410.191 203.939 147.354 
409.715 205.489 147.173 398.84 206.852 147.96 409.095 206.709 146.867 
392.476 209.043 146.985 406.814 207.794 147.541 407.3 207.879 147.285 
391.64 210.828 146.897 391.39 211.227 146.711 392.295 212.277 146.703 
398.148 212.522 147.132 394.768 213.002 146.834 408.37 198.995 146.831 
408.475 199.703 147.25 407.761 200.54 147.892 410.097 201.643 147.607 
410.007 201.522 147.547 406.993 201.356 148.236 409.159 201.218 147.713 
409.773 201.569 147.667 408.87 202.661 148.285 409.266 202.45 148.131 
410.032 203.539 147.694 409.803 204.618 147.708 402.489 206.406 148.247 
407.766 204.79 148.479 399.511 208.369 148.108 404.6 207.152 148.126 
406.52 206.579 148.193 408.371 207.031 147.398 407.988 207.051 147.629 
401.534 209.204 147.911 399.497 210.306 147.861 410.015 201.686 147.673 
409.802 203.184 147.924 408.745 203.855 148.363 409.293 203.926 148.188 
407.821 206.137 148.185 408.88 205.753 147.906 410.053 201.414 307.126 
410.039 201.309 307.13 409.541 201.585 307.027 409.307 202.196 306.853 
409.339 202.96 306.852 409.856 202.838 307.131 410.115 202.451 307.369 
409.747 203.447 307.131 407.792 204.739 306.592 409.095 204.284 306.883 
409.608 204.821 307.398 409.941 204.419 307.638 407.847 206.128 306.952 
409.236 205.838 307.581 407.716 198.104 308.353 408.397 198.516 308.331 
407.106 199.862 307.23 408.559 199.661 307.584 409.732 201.006 307.394 
407.6 201.799 306.632 410.331 202.654 307.788 405.61 205.236 306.588 
397.539 209.448 307 391.423 211.008 308.22 399.437 210.48 307.242 
391.288 211.397 308.42 394.027 211.729 307.632 394.633 213.035 308.243 
406.646 197.111 309.065 405.639 197.338 308.748 408.962 198.586 308.986 
405.031 199.26 307.65 410.293 201.534 308.161 396.898 204.754 308.057 
396.259 207.001 307.458 393.064 207.704 308.253 394.286 208.145 307.629 
391.171 209.337 308.59 392.638 208.864 307.992 390.77 209.586 308.797 
390.387 210.104 308.946 390.236 210.315 309.099 402.73 210.613 307.878 
390.244 210.851 309.141 392.079 212.531 308.677 396.654 213.857 308.896 
405.236 196.612 309.644 407.18 196.833 309.869 403.136 197.385 309.761 
408.208 197.521 309.764 409.381 199.047 309.159 397.144 202.105 309.565 
395.663 203.194 309.844 395.361 203.696 309.63 393.077 205.528 310.109 
410.439 204.24 308.942 392.497 206.301 309.669 393.33 206.344 308.941 
391.594 208.288 308.896 390.285 209.766 309.263 407.628 209.087 309.708 
389.568 210.787 310.026 389.839 211.03 309.657 398.211 213.766 308.747 
404.884 196.449 310.04 403.704 196.752 310.295 407.757 197.017 310.189 
400.789 198.491 310.719 399.287 199.451 311.107 398.742 199.991 310.755 
409.745 199.324 310.06 410.365 201.109 309.306 391.88 206.564 310.288 
389.516 210.158 310.276 389.4 210.551 310.446 389.612 211.229 310.107 
389.716 211.572 310.252 390.883 212.744 310.266 403.314 212.678 309.413 
392.698 213.798 310.635 398.938 214.52 309.868 405.845 195.767 311.555 
402.954 196.794 311.35 396.475 201.733 311.141 390.777 207.684 311.266 
409.962 205.969 311.366 389.339 210.45 310.88 407.642 209.967 310.778 
389.537 211.402 310.498 390.569 212.602 310.567 404.494 213.852 310.983 
405.02 213.607 311.112 394.556 214.527 311.146 403.095 214.859 311.272 
405.897 195.551 312.043 405.886 195.499 312.281 405.737 195.565 312.104 
406.113 195.583 312.252 396.508 201.549 312.697 392.656 205.575 312.476 
390.512 208.23 312.153 389.636 211.703 311.279 390.437 212.625 311.568 
406.379 213.364 312.068 404.745 215.971 312.938 405.956 195.507 312.526 
403.469 196.439 312.942 401.44 197.75 313.038 410.484 201.923 312.885 
390.74 208.222 312.742 389.637 210.184 312.359 389.5 211.268 311.831 
389.738 211.51 312.265 390.165 212.082 312.461 407.172 213.186 312.945 
392.717 213.998 313.009 406.619 215.347 313.941 404.162 196.278 313.773 
390.489 209.625 313.633 389.818 210.918 312.873 407.907 212.344 313.573 
390.297 211.904 313.238 392.129 213.636 313.622 407.293 196.189 314.568 
390.876 211.997 314.335 393.654 214.161 314.401 395.553 214.811 314.926 
[...]
POINT_DATA 543
COLOR_SCALARS scalars 3
1 0.682353 0.435294 1 0.682353 0.435294 1 0.682353 0.435294 
1 0.682353 0.435294 1 0.682353 0.435294 
1 0.682353 0.435294 1 0.682353 0.435294 
1 0.682353 0.435294 1 0.682353 0.435294 
1 0.682353 0.435294 1 0.682353 0.435294 
1 0.682353 0.435294 1 0.682353 0.435294 
1 0.682353 0.435294 1 0.682353 0.435294 
1 0.682353 0.435294 1 0.682353 0.435294 
1 0.682353 0.435294 1 0.682353 0.435294 
1 0.682353 0.435294 1 0.682353 0.435294 
1 0.682353 0.435294 1 0.682353 0.435294 
1 0.682353 0.435294 1 0.682353 0.435294 
1 0.682353 0.435294 1 0.682353 0.435294 
1 0.682353 0.435294 1 0.682353 0.435294 
1 0.682353 0.435294 1 0.682353 0.435294 
1 0.682353 0.435294 1 0.682353 0.435294 
1 0.682353 0.435294 1 0.682353 0.435294 
1 0.682353 0.435294 1 0.682353 0.435294 
1 0.682353 0.435294 1 0.682353 0.435294 
1 0.682353 0.435294 1 0.682353 0.435294 
1 0.682353 0.435294 1 0.682353 0.435294 
1 0.682353 0.435294 1 0.682353 0.435294 
1 0.682353 0.435294 1 0.682353 0.435294 
1 0.682353 0.435294 1 0.682353 0.435294 
1 0.682353 0.435294 1 0.682353 0.435294 
1 0.682353 0.435294 1 0.682353 0.435294 
1 0.682353 0.435294 1 0.682353 0.435294 
1 0.682353 0.435294 1 0.682353 0.435294 
1 0.682353 0.435294 1 0.682353 0.435294 
1 0.682353 0.435294 1 0.682353 0.435294 
1 0.682353 0.435294 1 0.682353 0.435294 
1 0.682353 0.435294 1 0.682353 0.435294 
1 0.682353 0.435294 1 0.682353 0.435294 
1 0.682353 0.435294 1 0.682353 0.435294 
1 0.682353 0.435294 1 0.682353 0.435294 
1 0.682353 0.435294 1 0.682353 0.435294 
1 0.682353 0.435294 1 0.682353 0.435294 
1 0.682353 0.435294 1 0.682353 0.435294 
1 0.682353 0.435294 1 0.682353 0.435294 
1 0.682353 0.435294 1 0.682353 0.435294 
1 0.682353 0.435294 1 0.682353 0.435294 
1 0.682353 0.435294 1 0.682353 0.435294 
1 0.682353 0.435294 1 0.682353 0.435294 
1 0.682353 0.435294 1 0.682353 0.435294 
1 0.682353 0.435294 1 0.682353 0.435294 
1 0.682353 0.435294 1 0.682353 0.435294 
1 0.682353 0.435294 1 0.682353 0.435294 
1 0.682353 0.435294 1 0.682353 0.435294 
1 0.682353 0.435294 1 0.682353 0.435294 
1 0.682353 0.435294 1 0.682353 0.435294 
1 0.682353 0.435294 1 0.682353 0.435294 
1 0.682353 0.435294 1 0.682353 0.435294 
1 0.682353 0.435294 1 0.682353 0.435294 
1 0.682353 0.435294 1 0.682353 0.435294 
1 0.682353 0.435294 1 0.682353 0.435294 
1 0.682353 0.435294 1 0.682353 0.435294 
1 0.682353 0.435294 1 0.682353 0.435294 
1 0.682353 0.435294 1 0.682353 0.435294 
1 0.682353 0.435294 1 0.682353 0.435294 
1 0.682353 0.435294 1 0.682353 0.435294 
1 0.682353 0.435294 1 0.682353 0.435294 
1 0.682353 0.435294 1 0.682353 0.435294 
1 0.682353 0.435294 1 0.682353 0.435294 
1 0.682353 0.435294 1 0.682353 0.435294 
1 0.682353 0.435294 1 0.682353 0.435294 
1 0.682353 0.435294 1 0.682353 0.435294 
1 0.682353 0.435294 1 0.682353 0.435294 
1 0.682353 0.435294 1 0.682353 0.435294 
1 0.682353 0.435294 1 0.682353 0.435294 
1 0.682353 0.435294 1 0.682353 0.435294 
1 0.682353 0.435294 1 0.682353 0.435294 
1 0.682353 0.435294 1 0.682353 0.435294 
1 0.682353 0.435294 1 0.682353 0.435294 
1 0.682353 0.435294 1 0.682353 0.435294 
1 0.682353 0.435294 1 0.682353 0.435294 
1 0.682353 0.435294 1 0.682353 0.435294 
1 0.682353 0.435294 1 0.682353 0.435294 
1 0.682353 0.435294 1 0.682353 0.435294 
1 0.682353 0.435294 1 0.682353 0.435294 
1 0.682353 0.435294 1 0.682353 0.435294 
1 0.682353 0.435294 1 0.682353 0.435294 
1 0.682353 0.435294 1 0.682353 0.435294 
1 0.682353 0.435294 1 0.682353 0.435294 
1 0.682353 0.435294 1 0.682353 0.435294 
1 0.682353 0.435294 1 0.682353 0.435294 
1 0.682353 0.435294 1 0.682353 0.435294 
1 0.682353 0.435294 1 0.682353 0.435294 
1 0.682353 0.435294 1 0.682353 0.435294 
1 0.682353 0.435294 1 0.682353 0.435294 
1 0.682353 0.435294 1 0.682353 0.435294 
1 0.682353 0.435294 1 0.682353 0.435294 
1 0.682353 0.435294 1 0.682353 0.435294 
1 0.682353 0.435294 1 0.682353 0.435294 
1 0.682353 0.435294 1 0.682353 0.435294 
1 0.682353 0.435294 1 0.682353 0.435294 
1 0.682353 0.435294 1 0.682353 0.435294 
1 0.682353 0.435294 1 0.682353 0.435294 
1 0.682353 0.435294 1 0.682353 0.435294 
1 0.682353 0.435294 1 0.682353 0.435294 
1 0.682353 0.435294 1 0.682353 0.435294 
1 0.682353 0.435294 1 0.682353 0.435294 
1 0.682353 0.435294 1 0.682353 0.435294 
1 0.682353 0.435294 1 0.682353 0.435294 
1 0.682353 0.435294 1 0.682353 0.435294 
1 0.682353 0.435294 1 0.682353 0.435294 
1 0.682353 0.435294 1 0.682353 0.435294 
1 0.682353 0.435294 1 0.682353 0.435294 
1 0.682353 0.435294 1 0.682353 0.435294 
1 0.682353 0.435294 1 0.682353 0.435294 
1 0.682353 0.435294 1 0.682353 0.435294 
1 0.682353 0.435294 1 0.682353 0.435294 
1 0.682353 0.435294 1 0.682353 0.435294 
1 0.682353 0.435294 1 0.682353 0.435294 
1 0.682353 0.435294 1 0.682353 0.435294 
1 0.682353 0.435294 1 0.682353 0.435294 
1 0.682353 0.435294 1 0.682353 0.435294 
1 0.682353 0.435294 1 0.682353 0.435294 
1 0.682353 0.435294 1 0.682353 0.435294 
1 0.682353 0.435294 1 0.682353 0.435294 
1 0.682353 0.435294 1 0.682353 0.435294 
1 0.682353 0.435294 1 0.682353 0.435294 
1 0.682353 0.435294 1 0.682353 0.435294 
1 0.682353 0.435294 1 0.682353 0.435294 
1 0.682353 0.435294 1 0.682353 0.435294 
1 0.682353 0.435294 1 0.682353 0.435294 
1 0.682353 0.435294 1 0.682353 0.435294 
1 0.682353 0.435294 1 0.682353 0.435294 
1 0.682353 0.435294 1 0.682353 0.435294 
1 0.682353 0.435294 1 0.682353 0.435294 
1 0.682353 0.435294 1 0.682353 0.435294 
1 0.682353 0.435294 1 0.682353 0.435294 
1 0.682353 0.435294 1 0.682353 0.435294 
1 0.682353 0.435294 1 0.682353 0.435294 
1 0.682353 0.435294 1 0.682353 0.435294 
1 0.682353 0.435294 1 0.682353 0.435294 
1 0.682353 0.435294 1 0.682353 0.435294 
1 0.682353 0.435294 1 0.682353 0.435294 
1 0.682353 0.435294 1 0.682353 0.435294 
1 0.682353 0.435294 1 0.682353 0.435294 
1 0.682353 0.435294 1 0.682353 0.435294 
1 0.682353 0.435294 1 0.682353 0.435294 
1 0.682353 0.435294 1 0.682353 0.435294 
1 0.682353 0.435294 1 0.682353 0.435294 
1 0.682353 0.435294 1 0.682353 0.435294 
1 0.682353 0.435294 1 0.682353 0.435294 
1 0.682353 0.435294 1 0.682353 0.435294 
1 0.682353 0.435294 1 0.682353 0.435294 
1 0.682353 0.435294 1 0.682353 0.435294 
1 0.682353 0.435294 1 0.682353 0.435294 
1 0.682353 0.435294 1 0.682353 0.435294 
1 0.682353 0.435294 1 0.682353 0.435294 
1 0.682353 0.435294 1 0.682353 0.435294 
1 0.682353 0.435294 1 0.682353 0.435294 
1 0.682353 0.435294 1 0.682353 0.435294 
1 0.682353 0.435294 1 0.682353 0.435294 
1 0.682353 0.435294 1 0.682353 0.435294 
1 0.682353 0.435294 1 0.682353 0.435294 
1 0.682353 0.435294 1 0.682353 0.435294 
1 0.682353 0.435294 1 0.682353 0.435294 
1 0.682353 0.435294 1 0.682353 0.435294 
1 0.682353 0.435294 1 0.682353 0.435294 
1 0.682353 0.435294 1 0.682353 0.435294 
1 0.682353 0.435294 1 0.682353 0.435294 
1 0.682353 0.435294 1 0.682353 0.435294 
1 0.682353 0.435294 1 0.682353 0.435294 
1 0.682353 0.435294 1 0.682353 0.435294 
1 0.682353 0.435294 1 0.682353 0.435294 
1 0.682353 0.435294 1 0.682353 0.435294 
1 0.682353 0.435294 1 0.682353 0.435294 
1 0.682353 0.435294 1 0.682353 0.435294 
1 0.682353 0.435294 1 0.682353 0.435294 
1 0.682353 0.435294 1 0.682353 0.435294 
1 0.682353 0.435294 1 0.682353 0.435294 
1 0.682353 0.435294 1 0.682353 0.435294 
1 0.682353 0.435294 1 0.682353 0.435294 
1 0.682353 0.435294 1 0.682353 0.435294 
1 0.682353 0.435294 1 0.682353 0.435294 
1 0.682353 0.435294 1 0.682353 0.435294 
1 0.682353 0.435294 1 0.682353 0.435294 
1 0.682353 0.435294 1 0.682353 0.435294 
1 0.682353 0.435294 1 0.682353 0.435294 
1 0.682353 0.435294 1 0.682353 0.435294 
1 0.682353 0.435294 1 0.682353 0.435294 
1 0.682353 0.435294 1 0.682353 0.435294 
1 0.682353 0.435294 1 0.682353 0.435294 
1 0.682353 0.435294 1 0.682353 0.435294 
1 0.682353 0.435294 1 0.682353 0.435294 
1 0.682353 0.435294 1 0.682353 0.435294 
1 0.682353 0.435294 1 0.682353 0.435294 
1 0.682353 0.435294 1 0.682353 0.435294 
1 0.682353 0.435294 1 0.682353 0.435294 
1 0.682353 0.435294 1 0.682353 0.435294 
1 0.682353 0.435294 1 0.682353 0.435294 
1 0.682353 0.435294 1 0.682353 0.435294 
1 0.682353 0.435294 1 0.682353 0.435294 
1 0.682353 0.435294 1 0.682353 0.435294 
1 0.682353 0.435294 1 0.682353 0.435294 
1 0.682353 0.435294 1 0.682353 0.435294 
1 0.682353 0.435294 1 0.682353 0.435294 
1 0.682353 0.435294 1 0.682353 0.435294 
1 0.682353 0.435294 1 0.682353 0.435294 
1 0.682353 0.435294 1 0.682353 0.435294 
1 0.682353 0.435294 1 0.682353 0.435294 
1 0.682353 0.435294 1 0.682353 0.435294 
1 0.682353 0.435294 1 0.682353 0.435294 
1 0.682353 0.435294 1 0.682353 0.435294 
1 0.682353 0.435294 1 0.682353 0.435294 
1 0.682353 0.435294 1 0.682353 0.435294 
1 0.682353 0.435294 1 0.682353 0.435294 
1 0.682353 0.435294 1 0.682353 0.435294 
1 0.682353 0.435294 1 0.682353 0.435294 
1 0.682353 0.435294 1 0.682353 0.435294 
1 0.682353 0.435294 1 0.682353 0.435294 
1 0.682353 0.435294 1 0.682353 0.435294 
1 0.682353 0.435294 1 0.682353 0.435294 
1 0.682353 0.435294 1 0.682353 0.435294 
1 0.682353 0.435294 1 0.682353 0.435294 
1 0.682353 0.435294 1 0.682353 0.435294 
1 0.682353 0.435294 1 0.682353 0.435294 
1 0.682353 0.435294 1 0.682353 0.435294 
1 0.682353 0.435294 1 0.682353 0.435294 
1 0.682353 0.435294 1 0.682353 0.435294 
1 0.682353 0.435294 1 0.682353 0.435294 
1 0.682353 0.435294 1 0.682353 0.435294 
1 0.682353 0.435294 1 0.682353 0.435294 
1 0.682353 0.435294 1 0.682353 0.435294 
1 0.682353 0.435294 1 0.682353 0.435294 
1 0.682353 0.435294 1 0.682353 0.435294 
1 0.682353 0.435294 1 0.682353 0.435294 
1 0.682353 0.435294 1 0.682353 0.435294 
1 0.682353 0.435294 1 0.682353 0.435294 
1 0.682353 0.435294 1 0.682353 0.435294 
1 0.682353 0.435294 1 0.682353 0.435294 
1 0.682353 0.435294 1 0.682353 0.435294 
1 0.682353 0.435294 1 0.682353 0.435294 
1 0.682353 0.435294 1 0.682353 0.435294 
1 0.682353 0.435294 1 0.682353 0.435294 
1 0.682353 0.435294 1 0.682353 0.435294 
1 0.682353 0.435294 1 0.682353 0.435294 
1 0.682353 0.435294 1 0.682353 0.435294 
1 0.682353 0.435294 1 0.682353 0.435294 
1 0.682353 0.435294 1 0.682353 0.435294 
1 0.682353 0.435294 1 0.682353 0.435294 
1 0.682353 0.435294 1 0.682353 0.435294 
1 0.682353 0.435294 1 0.682353 0.435294 
1 0.682353 0.435294 1 0.682353 0.435294 
1 0.682353 0.435294 1 0.682353 0.435294 
1 0.682353 0.435294 1 0.682353 0.435294 
1 0.682353 0.435294 1 0.682353 0.435294 
1 0.682353 0.435294 1 0.682353 0.435294 
1 0.682353 0.435294 1 0.682353 0.435294 
1 0.682353 0.435294 1 0.682353 0.435294 
1 0.682353 0.435294 1 0.682353 0.435294 
1 0.682353 0.435294 1 0.682353 0.435294 
1 0.682353 0.435294 1 0.682353 0.435294 
1 0.682353 0.435294 1 0.682353 0.435294 
1 0.682353 0.435294 1 0.682353 0.435294 
1 0.682353 0.435294 1 0.682353 0.435294 
1 0.682353 0.435294 1 0.682353 0.435294 
1 0.682353 0.435294 1 0.682353 0.435294 
1 0.682353 0.435294 1 0.682353 0.435294 
1 0.682353 0.435294 1 0.682353 0.435294 
1 0.682353 0.435294 1 0.682353 0.435294 
1 0.682353 0.435294 1 0.682353 0.435294 
1 0.682353 0.435294 1 0.682353 0.435294 
1 0.682353 0.435294 1 0.682353 0.435294 
1 0.682353 0.435294 1 0.682353 0.435294 
1 0.682353 0.435294 1 0.682353 0.435294 
1 0.682353 0.435294 1 0.682353 0.435294 
1 0.682353 0.435294 1 0.682353 0.435294 
1 0.682353 0.435294 1 0.682353 0.435294 

NORMALS Normals float
0.394593 -0.0213667 -0.918607 0.253167 6.51951e-05 -0.967422 -0.025781 -0.16065 -0.986675 
0.225813 -0.0547036 -0.972633 0.495883 0.0915053 -0.863555 0.334284 0.139442 -0.9321 
-0.0969793 0.0199474 -0.995086 0.568703 0.24577 -0.784968 0.660785 0.282259 -0.695481 
-0.343077 -0.923889 -0.169491 -0.321908 -0.826737 -0.461391 0.822195 0.302938 -0.481895 
-0.0192841 -0.486978 -0.873201 0.935011 -0.30681 -0.177827 -0.15049 -0.404722 -0.901972 
-0.146609 -0.726742 -0.671083 0.568503 0.0333178 -0.822006 0.966702 0.246371 -0.0691925 
0.856052 -0.0511782 0.514349 -0.276192 -0.461108 -0.843266 -0.120808 -0.281066 -0.952054 
0.997568 0.0350796 -0.0602304 0.900803 -0.00832238 -0.434147 0.945084 0.124565 -0.30216 
0.746421 0.271771 -0.60745 0.928002 0.155991 -0.338347 0.896014 0.385935 -0.219576 
0.946745 0.32031 -0.0327866 0.391544 0.321268 -0.862253 0.609319 0.344848 -0.71401 
0.846043 0.28333 -0.451592 -0.225773 0.0870846 -0.97028 0.460068 0.458609 -0.760273 
0.612676 0.491451 -0.618954 0.123997 0.272354 -0.954174 0.756812 0.446325 -0.477524 
-0.158838 0.349029 -0.923553 0.24661 0.408659 -0.878739 0.502961 0.420132 -0.755327 
0.0511957 -0.887683 -0.457601 0.171625 -0.851994 0.494622 0.594114 -0.798307 0.0986696 
0.191932 -0.935853 0.295534 0.29381 -0.955465 -0.0276042 0.864331 -0.272263 0.422853 
0.979845 0.184723 0.0760388 -0.41739 0.0982205 -0.903404 0.935107 0.320713 -0.150725 
0.455194 0.485209 -0.746573 0.75216 0.460739 -0.471142 0.273394 0.489617 -0.827968 
0.493111 0.542794 -0.679865 0.00219062 0.510616 -0.859806 0.138938 -0.867611 -0.477439 
0.727089 -0.592368 0.347046 0.891258 -0.295724 0.343812 0.925273 -0.32418 0.196917 
0.996529 -0.0829014 0.00762369 -0.3654 -0.353225 -0.861229 -0.466941 -0.0436645 -0.88321 
0.874455 0.474416 -0.101278 -0.514818 0.367282 -0.77464 0.389092 0.570982 -0.722902 
0.807532 0.536764 -0.244491 -0.38549 0.701036 -0.599955 -0.435342 -0.240267 -0.867611 
-0.554813 -0.339172 -0.759701 0.939735 0.314645 0.133777 0.927894 0.367177 0.0647549 
0.928405 0.368231 0.0496907 0.422548 0.606517 -0.673491 0.747079 0.594515 -0.297365 
0.0349757 0.612368 -0.789799 0.459745 0.686153 -0.563763 0.376467 -0.864514 -0.332998 
0.671971 -0.735533 -0.0862915 0.92503 -0.357534 0.128408 0.96251 0.155515 0.22224 
-0.615302 0.722278 -0.315782 0.105138 0.76361 -0.637061 0.36654 0.867566 -0.336122 
0.469309 0.847712 -0.247251 -0.0374976 0.931949 -0.360646 -0.226602 -0.754432 -0.616023 
0.758375 -0.651811 -0.00332507 -0.536929 -0.586091 -0.606799 -0.577409 0.00379117 -0.816446 
-0.654524 0.221085 -0.722993 -0.603773 0.496306 -0.62381 -0.6422 0.636728 -0.426798 
-0.606987 0.731125 -0.311484 -0.432407 0.87635 -0.212215 -0.314728 0.946207 -0.0750923 
0.68499 0.716963 -0.129432 0.425265 -0.868785 -0.253696 -0.0920659 -0.846365 -0.524585 
-0.637619 -0.0908639 -0.764975 -0.722647 -0.0813599 -0.686413 -0.624474 0.135675 -0.769172 
-0.444788 0.895047 0.0324787 0.763829 0.625717 0.158254 -0.203181 0.95627 0.210392 
0.455112 0.875221 0.163894 0.218585 0.973908 0.0610298 0.20442 -0.925326 -0.319351 
-0.0811193 -0.829682 -0.55231 0.181364 -0.917808 -0.35318 -0.187322 -0.797438 -0.573588 
-0.620825 -0.546527 -0.562036 -0.687845 -0.273097 -0.672523 -0.698649 0.143981 -0.700827 
-0.782944 0.245548 -0.57158 -0.70726 0.40213 -0.581442 -0.624912 0.610433 -0.486679 
-0.482166 0.707541 -0.516626 -0.422127 0.832859 -0.357989 -0.299687 0.951107 0.0747149 
0.0764891 0.969845 0.231411 -0.0871624 0.954718 0.284457 -0.442123 -0.751769 -0.489255 
-0.721806 -0.120782 -0.681475 0.840201 0.399088 0.367139 0.832408 0.436494 0.341422 
-0.211597 0.943886 0.253586 -0.359699 0.927491 0.10187 0.364827 0.859797 0.357282 
-0.319426 0.921577 0.220598 0.2699 -0.945121 -0.184119 -0.127756 -0.926528 -0.353871 
0.615734 -0.78793 -0.00611682 -0.565466 -0.699787 -0.436517 -0.745681 -0.307568 -0.591069 
-0.680341 0.557336 -0.475933 -0.72528 0.55112 -0.412597 -0.644167 0.658676 -0.388837 
0.612135 0.596254 0.519395 -0.0428839 0.927489 0.371383 -0.411814 -0.900809 -0.137665 
0.439105 -0.888572 -0.132763 -0.564219 -0.793741 -0.227225 -0.722398 -0.63426 -0.27542 
-0.669713 -0.652991 -0.353678 -0.676529 -0.478603 -0.559685 -0.601421 -0.614171 -0.510966 
-0.752399 -0.499394 -0.429536 -0.847098 0.175721 -0.501544 -0.521698 0.830684 -0.194411 
-0.220057 0.916615 0.333753 0.175488 0.815855 0.550985 0.0683865 0.884722 0.461076 
-0.0253589 -0.991479 -0.127773 0.460674 -0.878633 -0.12563 0.762738 -0.645507 0.0393907 
-0.549425 -0.796737 -0.251677 0.952945 0.282814 0.109141 -0.704138 -0.682634 -0.195452 
-0.872296 -0.443511 -0.20591 -0.916236 -0.0361025 -0.399009 0.72313 0.356753 0.591448 
-0.826244 0.533298 -0.181425 -0.719514 0.654441 -0.232391 -0.678263 0.712205 -0.180897 
-0.409151 0.896239 -0.171323 -0.235208 0.824526 0.514621 -0.00972657 -0.984169 0.176966 
0.379614 -0.916559 0.125746 0.536277 -0.827316 0.167196 -0.452283 -0.891218 0.0342094 
0.644468 -0.749185 0.152916 -0.613334 -0.785045 -0.0867563 -0.798364 -0.576788 -0.173007 
-0.732305 -0.679686 0.0419096 -0.71126 -0.696983 -0.091239 -0.959654 0.0128299 -0.280891 
-0.873933 0.486033 -0.00359783 -0.880187 0.435322 -0.189117 -0.568418 0.819562 0.072242 
0.591958 0.564781 0.574986 -0.241185 0.963618 0.115199 -0.101914 0.757363 0.644992 
0.0397195 0.663312 0.747288 0.295255 0.733297 0.612454 0.34747 0.651317 0.674575 
0.0340285 -0.909383 0.414565 0.431991 -0.873094 0.226032 -0.37524 -0.83641 0.399516 
0.220266 -0.836943 0.501008 0.592159 -0.752955 0.287067 -0.820977 -0.5709 -0.00835034 
-0.974914 -0.214419 -0.0597245 -0.990366 0.133307 0.037487 0.607593 0.316768 0.728346 
0.323042 0.502572 0.801914 -0.264248 0.948763 0.173267 0.0078828 0.82425 0.566171 
0.286546 0.598139 0.748412 -0.322556 -0.918332 0.229399 0.146956 -0.907921 0.392536 
-0.741577 -0.570208 0.35345 0.997164 0.042446 0.0621511 -0.657973 -0.627543 0.416248 
-0.651206 -0.685832 0.324908 -0.817441 -0.524623 0.237826 0.777771 0.613958 0.13464 
-0.827067 -0.561924 -0.0141885 -0.950115 -0.218289 0.222782 -0.96563 0.182956 0.184624 
-0.855544 0.436478 0.278445 -0.62427 0.755485 0.19882 -0.283995 -0.881348 0.377586 
0.0446969 -0.847861 0.528331 0.5089 -0.736002 0.446455 -0.353962 -0.652415 0.670124 
0.66038 -0.67285 0.333424 -0.534408 -0.756282 0.377419 -0.520092 -0.70854 0.476944 
-0.432605 -0.621021 0.653595 -0.648991 -0.592409 0.47735 -0.770304 -0.518326 0.371442 
0.707338 0.608712 0.359362 -0.807114 -0.267165 0.526488 -0.938867 -0.0172605 0.343847 
-0.756982 0.377312 0.533493 -0.606498 0.668326 0.430698 -0.65338 0.634289 0.413246 
-0.19466 0.866781 0.459127 -0.271301 -0.72537 0.63264 -0.216444 -0.55551 0.802845 
-0.537503 -0.451004 0.712521 0.977091 0.0509897 0.206623 -0.478561 -0.377466 0.79278 
-0.273509 -0.350644 0.895679 -0.554609 -0.542632 0.63084 -0.58677 -0.239612 0.77349 
-0.787013 0.0915616 0.610105 -0.59946 0.406966 0.689222 -0.554641 0.331057 0.763397 
-0.450132 0.681485 0.577026 -0.00574852 0.745169 0.666851 0.242656 -0.676255 0.695555 
0.664303 -0.592396 0.455817 0.727878 -0.464842 0.504098 0.66118 -0.631613 0.404853 
0.951263 -0.304568 0.0483374 -0.238505 -0.335799 0.911238 0.85897 0.2008 0.471009 
0.875078 0.392455 0.283229 -0.177709 -0.0397623 0.98328 0.819433 0.481414 0.31108 
-0.347227 -0.41201 0.842426 0.295841 0.529975 0.794735 0.333247 0.599707 0.727529 
-0.299719 0.0519944 0.952609 -0.525316 0.205099 0.825819 -0.305954 0.4367 0.845982 
0.0608182 0.498538 0.864732 -0.126957 0.507802 0.852067 0.375404 -0.562826 0.736409 
0.468195 -0.421941 0.776376 0.203894 -0.411971 0.888092 0.828001 -0.248422 0.502693 
0.369616 -0.698545 0.612714 -0.0545032 -0.158899 0.985789 0.351783 -0.449347 0.82118 
0.262011 -0.586037 0.766754 0.240684 -0.101664 0.965264 0.453956 -0.247529 0.855952 
0.821386 -0.0303021 0.569567 0.621268 0.232714 0.748245 -0.0477604 -0.0796489 0.995678 
-0.0653662 0.127189 0.989722 -0.0830727 0.0244681 0.996243 0.0534643 0.101871 0.99336 
0.138601 0.312617 0.939713 0.55179 0.586162 0.593247 0.320562 0.507522 0.799788 
0.0987239 0.19048 0.976714 -0.144033 0.195527 0.970064 0.389003 -0.357386 0.849089 
0.570558 -0.147635 0.807879 0.208574 -0.0216275 0.977767 0.473633 0.147425 0.868296 
0.16892 0.285241 0.943453 0.547172 0.402377 0.733959 0.707449 0.00240621 -0.70676 
0.560111 -0.488207 -0.669276 0.206699 -0.202286 -0.957265 0.285777 -0.113254 -0.95158 
0.40448 -0.00177318 -0.914545 0.751257 0.0987081 -0.652587 0.691806 -0.00878501 -0.72203 
0.512629 0.110975 -0.851409 0.19053 0.134898 -0.972368 0.469016 0.171282 -0.866422 
0.628342 0.355567 -0.691923 0.799293 0.228159 -0.555944 0.337186 0.362989 -0.868645 
0.617319 0.524819 -0.586073 0.209579 -0.639047 -0.740064 0.488011 -0.593649 -0.639865 
0.123297 -0.399953 -0.908204 0.273007 -0.469746 -0.839527 0.548966 -0.571305 -0.61012 