# vtk DataFile Version 4.2
vtk output
ASCII
DATASET POLYDATA
POINTS 574 float
403.41 223.458 137.405 403.211 223.627 137.366 403.828 223.865 137.206 
403.177 223.938 137.291 402.941 224.027 137.412 403.88 224.221 137.135 
403.858 223.068 137.727 405.801 223.36 138.022 403.515 223.222 137.591 
403.14 223.358 137.626 404.266 224.625 137.173 404.94 224.666 137.276 
407.009 224.235 138.398 403.039 225.23 137.352 401.33 225.915 138.42 
402.285 225.858 137.711 403.94 225.716 137.218 404.595 225.93 137.283 
406.081 225.766 137.614 406.896 225.271 138.06 401.564 226.336 138.221 
401.219 226.353 138.603 402.043 226.362 137.91 401.453 226.726 138.416 
403.833 227.175 137.62 404.333 227.071 137.558 401.602 227.106 138.508 
402.898 227.559 138.055 402.741 223.16 138.137 406.821 223.282 138.916 
402.131 223.661 138.346 401.264 224.7 138.796 407.598 225.348 138.703 
407.904 225.6 139.061 407.547 226.379 138.668 405.11 227.88 137.99 
406.38 227.458 138.153 404.261 228.411 138.295 407.697 227.336 139.146 
402.128 228.471 139.349 403.255 228.676 138.793 407.593 227.757 139.279 
403.721 229.14 139.161 404.395 229.195 139.085 404.35 221.642 139.174 
405.206 221.46 139.592 407.878 224.861 139.299 407.848 225.174 139.056 
408.014 227.076 139.616 405.561 229.616 139.894 405.985 229.514 139.965 
404.129 220.502 140.308 403.374 220.849 140.018 408.123 227.198 140.092 
407.111 229.006 140.863 403.387 229.626 140.484 404.652 229.983 140.982 
406.224 229.703 140.935 402.392 220.344 140.912 407.49 222.78 141.305 
408.297 225.38 140.625 402.515 229.428 141.155 407.513 228.536 141.596 
405.839 229.907 141.487 402.828 218.084 142.466 404.594 219.256 141.631 
401.503 220.02 141.898 400.989 221.081 141.907 408.245 224.809 141.169 
408.357 225.38 141.807 400.4 226.423 141.783 408.342 226.315 141.351 
401.235 228.275 142.543 403.675 230.015 142.049 404.906 230.166 142.581 
402.361 217.531 142.987 403.717 216.707 143.206 404.875 217.525 142.928 
405.38 217.38 143.213 406.44 219.677 142.845 402.865 229.856 143.067 
404.035 230.264 143.512 405.381 230.096 143.351 407.685 212.373 145.375 
407.173 212.125 145.346 408.102 212.073 145.664 406.388 212.94 144.869 
407.746 212.908 145.263 405.891 213.186 144.731 408.1 214.075 145.466 
400.597 215.885 144.822 406.427 217.552 143.943 405.821 218.449 142.935 
406.865 229.008 144.28 405.821 229.896 144.102 404.703 230.317 144.318 
407.817 211.248 146.087 405.436 211.742 145.607 405.191 212.331 145.239 
401.367 214.422 145.344 408.51 214.321 145.882 399.835 216.124 145.401 
407.574 216.04 145.287 406.794 217.434 144.373 407.021 219.074 144.245 
399.999 220.584 144.39 399.811 221.637 145.364 407.023 228.68 144.772 
402.364 229.712 144.896 405.3 230.165 145.086 408.53 211.117 146.54 
404.851 211.393 146.284 409.072 211.968 146.538 409.162 211.521 146.903 
403.969 212.178 145.903 409.277 213.1 146.688 399.397 215.057 146.639 
400.026 215.235 145.816 407.918 216.172 145.789 408.542 215.052 146.265 
399.266 216.257 146.3 408.007 216.476 146.13 407.196 218.445 144.816 
407.538 227.232 145.886 401.527 228.908 146.461 402.982 230.286 146.593 
407.274 210.34 147.119 407.225 210.182 147.592 408.118 210.389 147.105 
408.097 210.248 147.37 408.438 210.437 147.322 405.248 210.921 147.224 
404.652 211.173 147.027 409.11 211.079 147.231 403.234 212.036 147.258 
401.421 213.092 146.974 400.477 213.829 147.041 409.356 213.77 147.067 
399.006 215.12 147.409 398.92 215.293 147.296 409.383 213.979 147.361 
399.244 217.074 146.413 408.154 216.503 146.66 399.383 218.288 146.658 
407.896 224.188 146.722 406.644 228.482 147.315 405.094 230.217 146.661 
403.459 230.529 147.148 403.87 230.646 147.253 403.996 230.674 147.55 
407.413 210.135 147.981 408.276 210.167 147.886 408.725 210.397 147.743 
405.815 210.664 147.727 403.966 211.636 148 409.699 211.539 148.01 
409.866 211.965 148.103 400.337 213.878 147.862 400.081 214.06 147.735 
409.86 212.847 148.172 399.275 214.93 147.632 409.825 213.05 148.401 
399.032 215.22 147.609 398.918 215.303 147.46 409.242 214.365 147.521 
398.934 215.524 147.353 407.753 218.234 147.075 399.763 220.361 147.516 
401.461 228.974 148.085 404.279 230.568 147.711 408.372 210.073 148.197 
408.362 210.076 148.304 408.243 210.069 148.213 408.513 210.221 148.323 
406.325 210.521 148.089 407.874 210.139 148.191 409.03 210.586 147.882 
404.878 211.165 148.116 409.793 211.468 148.386 409.873 211.735 148.315 
409.84 211.716 148.613 401.884 212.997 148.014 403.773 212.076 148.388 
400.155 214.117 147.98 409.801 212.596 148.825 399.515 214.925 147.986 
400.26 214.392 148.285 409.688 213.387 148.481 399.261 215.394 147.898 
409.51 213.535 148.767 399.326 215.975 148.027 408.141 216.407 148.122 
407.345 220.007 148.117 407.499 224.286 148.445 407.18 225.706 148.875 
406.163 228.407 149.043 402.283 229.979 149.145 403.674 230.548 148.991 
408.229 210.184 148.409 406.386 210.792 148.555 407.12 210.574 148.627 
408.806 210.649 148.786 406.308 211.186 148.909 409.576 211.167 148.664 
409.733 211.358 148.582 409.653 211.45 148.811 406.664 211.411 149.151 
407.424 212.013 149.496 407.906 211.788 149.435 409.669 212.336 149.017 
402.592 213.546 148.906 409.594 212.82 149.035 400.155 214.935 148.529 
404.895 213.915 149.719 409.509 213.233 148.991 400.535 215.262 148.859 
408.05 215.614 148.937 407.043 218.939 148.742 400.576 221.77 149.243 
400.584 224.253 149.455 406.588 227.113 149.353 401.047 228.127 149.615 
405.703 228.898 149.372 402.716 230.315 149.626 403.024 230.525 149.653 
403.15 230.634 149.466 409.421 211.574 149.055 409.043 212.208 149.368 
409.427 212.036 149.175 407.377 215.044 149.589 406.35 217.118 149.64 
406.325 219.346 149.44 402.186 221.256 150.386 404.379 221.61 150.625 
405.699 222.384 150.347 406.325 222.504 149.966 406.744 225.02 149.804 
406.263 227.206 149.92 400.931 227.339 150.182 405.986 227.699 150.12 
401.337 228.521 150.339 405.479 228.688 150.048 401.599 229.163 149.996 
404.997 228.994 150.323 403.062 230.314 150.066 403.476 230.173 150.225 
401.427 224.194 150.545 402.618 223.613 150.975 404.815 223.177 150.835 
401.911 224.69 150.971 403.195 224.23 151.186 403.923 224.082 151.148 
401.455 225.812 150.962 402.41 225.206 151.268 404.49 224.76 151.162 
401.527 226.342 151.134 401.783 226.605 151.306 403.59 225.624 151.432 
405.012 225.457 151.068 401.277 227.003 150.918 402.77 226.463 151.517 
404.747 226.169 151.246 405.833 226.361 150.601 401.079 227.534 150.514 
405.679 227.657 150.529 401.257 227.884 150.677 405.354 227.941 150.698 
401.772 228.915 150.811 401.933 229.336 150.666 402.296 229.647 150.893 
403.969 229.42 150.731 402.803 230.09 150.546 401.557 227.394 151.12 
405.536 226.758 150.835 401.536 227.951 150.979 403.697 227.573 151.476 
401.912 228.567 151.083 402.329 228.975 151.214 403.339 228.782 151.268 
402.509 229.486 151.149 402.458 229.728 151.074 402.869 229.519 151.155 
403.359 229.416 151 402.967 229.748 151.01 402.503 229.841 150.977 
402.74 229.911 150.911 402.577 229.778 151.09 402.725 229.727 151.108 
402.578 229.563 304.051 402.481 229.652 304.283 402.781 229.564 303.981 
402.599 229.285 303.921 402.92 229.352 303.902 402.77 229.749 304.208 
401.431 226.797 304.024 401.746 226.105 303.8 403.923 226.808 303.546 
403.457 226.16 303.517 404.561 226.736 303.693 401.039 227.258 304.45 
401.85 227.475 303.856 402.439 227.514 303.634 403.711 227.466 303.567 
404.878 227.245 303.894 402.912 228.165 303.643 405.444 227.941 304.527 
401.796 229.139 304.682 403.36 229.214 303.982 404.366 229.244 304.521 
403.095 229.919 304.529 403.5 229.692 304.384 401.446 223.336 304.519 
400.948 223.318 304.967 402.094 222.453 304.354 406.571 222.887 304.983 
406.785 222.442 305.307 401.927 224.072 304.117 403.995 223.889 303.847 
405.996 223.67 304.493 401.318 225.082 304.272 400.851 225.261 304.745 
403.115 224.728 303.707 405.243 224.503 304.049 406.365 224.43 304.763 
402.321 225.523 303.705 404.353 225.374 303.695 400.802 226.783 304.739 
401.056 227.592 304.604 402.478 229.944 305.072 403.015 230.223 305.196 
409.291 210.864 306.074 408.853 210.711 306.01 409.531 210.943 306.184 
409.519 211.173 306.028 409.69 211.175 306.223 409.692 211.426 306.094 
408.702 212.445 305.516 409.485 212.009 305.845 409.689 212.269 306.053 
408.345 213.624 305.476 409.216 213.251 305.895 409.615 212.805 306.117 
406.255 214.99 305.092 408.116 214.226 305.501 402.263 215.69 305.322 
409.026 214.349 306.335 407.93 215.869 305.97 406.359 217.155 305.277 
400.269 218.577 305.805 402.46 218.998 304.734 404.895 218.745 304.801 
407.094 217.942 305.957 403.122 219.821 304.537 405.562 219.57 304.969 
402.231 220.736 304.579 404.6 220.602 304.507 400.997 221.866 305.105 
402.887 221.542 304.311 407.151 222.705 305.794 400.447 224.326 305.56 
400.481 225.807 305.334 400.591 226.382 305.198 400.401 225.912 305.749 
407.234 225.11 306.066 401.438 229.018 305.815 401.649 229.28 305.481 
405.178 229.413 305.547 403.095 230.616 305.866 408.623 210.337 306.165 
408.595 210.189 306.249 408.441 210.229 306.254 408.684 210.223 306.277 
406.861 210.417 306.884 408.527 210.546 306.013 408.877 210.387 306.389 
409.601 210.958 306.356 409.711 211.165 306.44 409.824 212.022 306.269 
403.868 213.34 305.714 400.131 214.4 307.036 400.818 214.049 306.8 
409.763 212.938 306.441 399.225 215.626 307.047 400.305 215.295 306.3 
409.426 213.83 306.612 409.677 213.317 306.6 399.569 216.227 306.571 
399.224 216.177 306.943 408.128 216.192 306.422 399.589 217.911 306.642 
407.737 217.508 306.685 407.323 219.332 306.739 400.151 221.226 306.366 
403.729 230.657 306.55 403.124 230.665 306.111 408.55 210.195 306.38 
404.721 211.467 306.931 404.242 211.515 307.518 408.943 210.474 307.062 
403.244 212.1 307.324 409.784 211.632 306.741 400.328 213.875 307.539 
400.107 214.125 307.4 409.849 212.632 306.676 399.271 215.08 307.341 
409.791 213.037 306.728 398.993 215.371 307.355 398.962 215.237 307.57 
398.86 215.422 307.494 398.936 215.589 307.357 399.024 216.002 307.346 
409.212 214.521 307.303 399.219 216.596 307.05 399.31 217.263 307.12 
[...]
POINT_DATA 574
COLOR_SCALARS scalars 3
1 0.682353 0.435294 1 0.682353 0.435294 1 0.682353 0.435294 
1 0.682353 0.435294 1 0.682353 0.435294 
1 0.682353 0.435294 1 0.682353 0.435294 
1 0.682353 0.435294 1 0.682353 0.435294 
1 0.682353 0.435294 1 0.682353 0.435294 
1 0.682353 0.435294 1 0.682353 0.435294 
1 0.682353 0.435294 1 0.682353 0.435294 
1 0.682353 0.435294 1 0.682353 0.435294 
1 0.682353 0.435294 1 0.682353 0.435294 
1 0.682353 0.435294 1 0.682353 0.435294 
1 0.682353 0.435294 1 0.682353 0.435294 
1 0.682353 0.435294 1 0.682353 0.435294 
1 0.682353 0.435294 1 0.682353 0.435294 
1 0.682353 0.435294 1 0.682353 0.435294 
1 0.682353 0.435294 1 0.682353 0.435294 
1 0.682353 0.435294 1 0.682353 0.435294 
1 0.682353 0.435294 1 0.682353 0.435294 
1 0.682353 0.435294 1 0.682353 0.435294 
1 0.682353 0.435294 1 0.682353 0.435294 
1 0.682353 0.435294 1 0.682353 0.435294 
1 0.682353 0.435294 1 0.682353 0.435294 
1 0.682353 0.435294 1 0.682353 0.435294 
1 0.682353 0.435294 1 0.682353 0.435294 
1 0.682353 0.435294 1 0.682353 0.435294 
1 0.682353 0.435294 1 0.682353 0.435294 
1 0.682353 0.435294 1 0.682353 0.435294 
1 0.682353 0.435294 1 0.682353 0.435294 
1 0.682353 0.435294 1 0.682353 0.435294 
1 0.682353 0.435294 1 0.682353 0.435294 
1 0.682353 0.435294 1 0.682353 0.435294 
1 0.682353 0.435294 1 0.682353 0.435294 
1 0.682353 0.435294 1 0.682353 0.435294 
1 0.682353 0.435294 1 0.682353 0.435294 
1 0.682353 0.435294 1 0.682353 0.435294 
1 0.682353 0.435294 1 0.682353 0.435294 
1 0.682353 0.435294 1 0.682353 0.435294 
1 0.682353 0.435294 1 0.682353 0.435294 
1 0.682353 0.435294 1 0.682353 0.435294 
1 0.682353 0.435294 1 0.682353 0.435294 
1 0.682353 0.435294 1 0.682353 0.435294 
1 0.682353 0.435294 1 0.682353 0.435294 
1 0.682353 0.435294 1 0.682353 0.435294 
1 0.682353 0.435294 1 0.682353 0.435294 
1 0.682353 0.435294 1 0.682353 0.435294 
1 0.682353 0.435294 1 0.682353 0.435294 
1 0.682353 0.435294 1 0.682353 0.435294 
1 0.682353 0.435294 1 0.682353 0.435294 
1 0.682353 0.435294 1 0.682353 0.435294 
1 0.682353 0.435294 1 0.682353 0.435294 
1 0.682353 0.435294 1 0.682353 0.435294 
1 0.682353 0.435294 1 0.682353 0.435294 
1 0.682353 0.435294 1 0.682353 0.435294 
1 0.682353 0.435294 1 0.682353 0.435294 
1 0.682353 0.435294 1 0.682353 0.435294 
1 0.682353 0.435294 1 0.682353 0.435294 
1 0.682353 0.435294 1 0.682353 0.435294 
1 0.682353 0.435294 1 0.682353 0.435294 
1 0.682353 0.435294 1 0.682353 0.435294 
1 0.682353 0.435294 1 0.682353 0.435294 
1 0.682353 0.435294 1 0.682353 0.435294 
1 0.682353 0.435294 1 0.682353 0.435294 
1 0.682353 0.435294 1 0.682353 0.435294 
1 0.682353 0.435294 1 0.682353 0.435294 
1 0.682353 0.435294 1 0.682353 0.435294 
1 0.682353 0.435294 1 0.682353 0.435294 
1 0.682353 0.435294 1 0.682353 0.435294 
1 0.682353 0.435294 1 0.682353 0.435294 
1 0.682353 0.435294 1 0.682353 0.435294 
1 0.682353 0.435294 1 0.682353 0.435294 
1 0.682353 0.435294 1 0.682353 0.435294 
1 0.682353 0.435294 1 0.682353 0.435294 
1 0.682353 0.435294 1 0.682353 0.435294 
1 0.682353 0.435294 1 0.682353 0.435294 
1 0.682353 0.435294 1 0.682353 0.435294 
1 0.682353 0.435294 1 0.682353 0.435294 
1 0.682353 0.435294 1 0.682353 0.435294 
1 0.682353 0.435294 1 0.682353 0.435294 
1 0.682353 0.435294 1 0.682353 0.435294 
1 0.682353 0.435294 1 0.682353 0.435294 
1 0.682353 0.435294 1 0.682353 0.435294 
1 0.682353 0.435294 1 0.682353 0.435294 
1 0.682353 0.435294 1 0.682353 0.435294 
1 0.682353 0.435294 1 0.682353 0.435294 
1 0.682353 0.435294 1 0.682353 0.435294 
1 0.682353 0.435294 1 0.682353 0.435294 
1 0.682353 0.435294 1 0.682353 0.435294 
1 0.682353 0.435294 1 0.682353 0.435294 
1 0.682353 0.435294 1 0.682353 0.435294 
1 0.682353 0.435294 1 0.682353 0.435294 
1 0.682353 0.435294 1 0.682353 0.435294 
1 0.682353 0.435294 1 0.682353 0.435294 
1 0.682353 0.435294 1 0.682353 0.435294 
1 0.682353 0.435294 1 0.682353 0.435294 
1 0.682353 0.435294 1 0.682353 0.435294 
1 0.682353 0.435294 1 0.682353 0.435294 
1 0.682353 0.435294 1 0.682353 0.435294 
1 0.682353 0.435294 1 0.682353 0.435294 
1 0.682353 0.435294 1 0.682353 0.435294 
1 0.682353 0.435294 1 0.682353 0.435294 
1 0.682353 0.435294 1 0.682353 0.435294 
1 0.682353 0.435294 1 0.682353 0.435294 
1 0.682353 0.435294 1 0.682353 0.435294 
1 0.682353 0.435294 1 0.682353 0.435294 
1 0.682353 0.435294 1 0.682353 0.435294 
1 0.682353 0.435294 1 0.682353 0.435294 
1 0.682353 0.435294 1 0.682353 0.435294 
1 0.682353 0.435294 1 0.682353 0.435294 
1 0.682353 0.435294 1 0.682353 0.435294 
1 0.682353 0.435294 1 0.682353 0.435294 
1 0.682353 0.435294 1 0.682353 0.435294 
1 0.682353 0.435294 1 0.682353 0.435294 
1 0.682353 0.435294 1 0.682353 0.435294 
1 0.682353 0.435294 1 0.682353 0.435294 
1 0.682353 0.435294 1 0.682353 0.435294 
1 0.682353 0.435294 1 0.682353 0.435294 
1 0.682353 0.435294 1 0.682353 0.435294 
1 0.682353 0.435294 1 0.682353 0.435294 
1 0.682353 0.435294 1 0.682353 0.435294 
1 0.682353 0.435294 1 0.682353 0.435294 
1 0.682353 0.435294 1 0.682353 0.435294 
1 0.682353 0.435294 1 0.682353 0.435294 
1 0.682353 0.435294 1 0.682353 0.435294 
1 0.682353 0.435294 1 0.682353 0.435294 
1 0.682353 0.435294 1 0.682353 0.435294 
1 0.682353 0.435294 1 0.682353 0.435294 
1 0.682353 0.435294 1 0.682353 0.435294 
1 0.682353 0.435294 1 0.682353 0.435294 
1 0.682353 0.435294 1 0.682353 0.435294 
1 0.682353 0.435294 1 0.682353 0.435294 
1 0.682353 0.435294 1 0.682353 0.435294 
1 0.682353 0.435294 1 0.682353 0.435294 
1 0.682353 0.435294 1 0.682353 0.435294 
1 0.682353 0.435294 1 0.682353 0.435294 
1 0.682353 0.435294 1 0.682353 0.435294 
1 0.682353 0.435294 1 0.682353 0.435294 
1 0.682353 0.435294 1 0.682353 0.435294 
1 0.682353 0.435294 1 0.682353 0.435294 
1 0.682353 0.435294 1 0.682353 0.435294 
1 0.682353 0.435294 1 0.682353 0.435294 
1 0.682353 0.435294 1 0.682353 0.435294 
1 0.682353 0.435294 1 0.682353 0.435294 
1 0.682353 0.435294 1 0.682353 0.435294 
1 0.682353 0.435294 1 0.682353 0.435294 
1 0.682353 0.435294 1 0.682353 0.435294 
1 0.682353 0.435294 1 0.682353 0.435294 
1 0.682353 0.435294 1 0.682353 0.435294 
1 0.682353 0.435294 1 0.682353 0.435294 
1 0.682353 0.435294 1 0.682353 0.435294 
1 0.682353 0.435294 1 0.682353 0.435294 
1 0.682353 0.435294 1 0.682353 0.435294 
1 0.682353 0.435294 1 0.682353 0.435294 
1 0.682353 0.435294 1 0.682353 0.435294 
1 0.682353 0.435294 1 0.682353 0.435294 
1 0.682353 0.435294 1 0.682353 0.435294 
1 0.682353 0.435294 1 0.682353 0.435294 
1 0.682353 0.435294 1 0.682353 0.435294 
1 0.682353 0.435294 1 0.682353 0.435294 
1 0.682353 0.435294 1 0.682353 0.435294 
1 0.682353 0.435294 1 0.682353 0.435294 
1 0.682353 0.435294 1 0.682353 0.435294 
1 0.682353 0.435294 1 0.682353 0.435294 
1 0.682353 0.435294 1 0.682353 0.435294 
1 0.682353 0.435294 1 0.682353 0.435294 
1 0.682353 0.435294 1 0.682353 0.435294 
1 0.682353 0.435294 1 0.682353 0.435294 
1 0.682353 0.435294 1 0.682353 0.435294 
1 0.682353 0.435294 1 0.682353 0.435294 
1 0.682353 0.435294 1 0.682353 0.435294 
1 0.682353 0.435294 1 0.682353 0.435294 
1 0.682353 0.435294 1 0.682353 0.435294 
1 0.682353 0.435294 1 0.682353 0.435294 
1 0.682353 0.435294 1 0.682353 0.435294 
1 0.682353 0.435294 1 0.682353 0.435294 
1 0.682353 0.435294 1 0.682353 0.435294 
1 0.682353 0.435294 1 0.682353 0.435294 
1 0.682353 0.435294 1 0.682353 0.435294 
1 0.682353 0.435294 1 0.682353 0.435294 
1 0.682353 0.435294 1 0.682353 0.435294 
1 0.682353 0.435294 1 0.682353 0.435294 
1 0.682353 0.435294 1 0.682353 0.435294 
1 0.682353 0.435294 1 0.682353 0.435294 
1 0.682353 0.435294 1 0.682353 0.435294 
1 0.682353 0.435294 1 0.682353 0.435294 
1 0.682353 0.435294 1 0.682353 0.435294 
1 0.682353 0.435294 1 0.682353 0.435294 
1 0.682353 0.435294 1 0.682353 0.435294 
1 0.682353 0.435294 1 0.682353 0.435294 
1 0.682353 0.435294 1 0.682353 0.435294 
1 0.682353 0.435294 1 0.682353 0.435294 
1 0.682353 0.435294 1 0.682353 0.435294 
1 0.682353 0.435294 1 0.682353 0.435294 
1 0.682353 0.435294 1 0.682353 0.435294 
1 0.682353 0.435294 1 0.682353 0.435294 
1 0.682353 0.435294 1 0.682353 0.435294 
1 0.682353 0.435294 1 0.682353 0.435294 
1 0.682353 0.435294 1 0.682353 0.435294 
1 0.682353 0.435294 1 0.682353 0.435294 
1 0.682353 0.435294 1 0.682353 0.435294 
1 0.682353 0.435294 1 0.682353 0.435294 
1 0.682353 0.435294 1 0.682353 0.435294 
1 0.682353 0.435294 1 0.682353 0.435294 
1 0.682353 0.435294 1 0.682353 0.435294 
1 0.682353 0.435294 1 0.682353 0.435294 
1 0.682353 0.435294 1 0.682353 0.435294 
1 0.682353 0.435294 1 0.682353 0.435294 
1 0.682353 0.435294 1 0.682353 0.435294 
1 0.682353 0.435294 1 0.682353 0.435294 
1 0.682353 0.435294 1 0.682353 0.435294 
1 0.682353 0.435294 1 0.682353 0.435294 
1 0.682353 0.435294 1 0.682353 0.435294 
1 0.682353 0.435294 1 0.682353 0.435294 
1 0.682353 0.435294 1 0.682353 0.435294 
1 0.682353 0.435294 1 0.682353 0.435294 
1 0.682353 0.435294 1 0.682353 0.435294 
1 0.682353 0.435294 1 0.682353 0.435294 
1 0.682353 0.435294 1 0.682353 0.435294 
1 0.682353 0.435294 1 0.682353 0.435294 
1 0.682353 0.435294 1 0.682353 0.435294 
1 0.682353 0.435294 1 0.682353 0.435294 
1 0.682353 0.435294 1 0.682353 0.435294 
1 0.682353 0.435294 1 0.682353 0.435294 
1 0.682353 0.435294 1 0.682353 0.435294 
1 0.682353 0.435294 1 0.682353 0.435294 
1 0.682353 0.435294 1 0.682353 0.435294 
1 0.682353 0.435294 1 0.682353 0.435294 
1 0.682353 0.435294 1 0.682353 0.435294 
1 0.682353 0.435294 1 0.682353 0.435294 
1 0.682353 0.435294 1 0.682353 0.435294 
1 0.682353 0.435294 1 0.682353 0.435294 
1 0.682353 0.435294 1 0.682353 0.435294 
1 0.682353 0.435294 1 0.682353 0.435294 
1 0.682353 0.435294 1 0.682353 0.435294 
1 0.682353 0.435294 1 0.682353 0.435294 
1 0.682353 0.435294 1 0.682353 0.435294 
1 0.682353 0.435294 1 0.682353 0.435294 
1 0.682353 0.435294 1 0.682353 0.435294 
1 0.682353 0.435294 1 0.682353 0.435294 
1 0.682353 0.435294 1 0.682353 0.435294 
1 0.682353 0.435294 1 0.682353 0.435294 
1 0.682353 0.435294 1 0.682353 0.435294 
1 0.682353 0.435294 1 0.682353 0.435294 
1 0.682353 0.435294 1 0.682353 0.435294 
1 0.682353 0.435294 1 0.682353 0.435294 
1 0.682353 0.435294 1 0.682353 0.435294 
1 0.682353 0.435294 1 0.682353 0.435294 
1 0.682353 0.435294 1 0.682353 0.435294 
1 0.682353 0.435294 1 0.682353 0.435294 
1 0.682353 0.435294 1 0.682353 0.435294 
1 0.682353 0.435294 1 0.682353 0.435294 
1 0.682353 0.435294 1 0.682353 0.435294 
1 0.682353 0.435294 1 0.682353 0.435294 
1 0.682353 0.435294 1 0.682353 0.435294 
1 0.682353 0.435294 1 0.682353 0.435294 
1 0.682353 0.435294 1 0.682353 0.435294 
1 0.682353 0.435294 1 0.682353 0.435294 
1 0.682353 0.435294 1 0.682353 0.435294 
1 0.682353 0.435294 1 0.682353 0.435294 
1 0.682353 0.435294 1 0.682353 0.435294 
1 0.682353 0.435294 1 0.682353 0.435294 
1 0.682353 0.435294 1 0.682353 0.435294 
1 0.682353 0.435294 1 0.682353 0.435294 
1 0.682353 0.435294 1 0.682353 0.435294 
1 0.682353 0.435294 1 0.682353 0.435294 
1 0.682353 0.435294 1 0.682353 0.435294 
1 0.682353 0.435294 1 0.682353 0.435294 
1 0.682353 0.435294 1 0.682353 0.435294 
1 0.682353 0.435294 1 0.682353 0.435294 
1 0.682353 0.435294 1 0.682353 0.435294 
1 0.682353 0.435294 1 0.682353 0.435294 
1 0.682353 0.435294 1 0.682353 0.435294 
1 0.682353 0.435294 1 0.682353 0.435294 
1 0.682353 0.435294 1 0.682353 0.435294 
1 0.682353 0.435294 1 0.682353 0.435294 
1 0.682353 0.435294 1 0.682353 0.435294 
1 0.682353 0.435294 1 0.682353 0.435294 
1 0.682353 0.435294 1 0.682353 0.435294 
1 0.682353 0.435294 1 0.682353 0.435294 
1 0.682353 0.435294 1 0.682353 0.435294 
1 0.682353 0.435294 1 0.682353 0.435294 
1 0.682353 0.435294 1 0.682353 0.435294 
1 0.682353 0.435294 1 0.682353 0.435294 
1 0.682353 0.435294 1 0.682353 0.435294 
1 0.682353 0.435294 1 0.682353 0.435294 
1 0.682353 0.435294 1 0.682353 0.435294 
1 0.682353 0.435294 1 0.682353 0.435294 
1 0.682353 0.435294 1 0.682353 0.435294 
1 0.682353 0.435294 
NORMALS Normals float
-0.0610951 -0.564109 -0.823437 -0.418393 -0.397138 -0.816841 0.0195543 -0.324687 -0.945619 
-0.299713 -0.089535 -0.949819 -0.557294 -0.129228 -0.820197 -0.0311336 -0.0286145 -0.999106 
-0.0788362 -0.751149 -0.655409 0.316795 -0.471393 -0.823061 -0.217863 -0.783137 -0.582436 
-0.390831 -0.724279 -0.568041 0.0871653 -0.0815815 -0.992848 0.25523 -0.107354 -0.960902 
0.597716 -0.299989 -0.743467 -0.401295 -0.00901305 -0.915905 -0.731772 -0.102683 -0.67377 
-0.317694 0.196467 -0.927616 -0.0683407 0.215218 -0.974172 0.0976068 0.266066 -0.959001 
0.394848 0.0330229 -0.918153 0.619016 -0.0761966 -0.781673 -0.646292 0.0941134 -0.757264 
-0.868229 0.133043 -0.477993 -0.477301 0.176964 -0.860737 -0.687702 0.351533 -0.635208 
-0.168005 0.398652 -0.901583 -0.0176838 0.305565 -0.952007 -0.696143 0.488011 -0.526527 
-0.348857 0.449852 -0.822151 -0.473399 -0.592667 -0.651643 0.72452 -0.525918 -0.445513 
-0.670902 -0.318623 -0.669604 -0.883716 -0.180268 -0.431914 0.718601 -0.0840037 -0.690331 
0.889063 0.0443899 -0.455628 0.655341 0.1409 -0.742076 0.200194 0.486529 -0.850419 
0.423044 0.44645 -0.78849 0.0753582 0.667846 -0.740475 0.787747 0.291399 -0.542717 
-0.569653 0.69452 -0.439474 -0.28154 0.647937 -0.707752 0.580844 0.590334 -0.56047 
-0.222202 0.829487 -0.512424 -0.020693 0.83455 -0.550544 -0.116776 -0.636945 -0.762014 
0.293432 -0.69016 -0.661496 0.869145 -0.361874 -0.337096 0.831785 -0.208824 -0.514321 
0.911508 0.205296 -0.35638 0.216675 0.788092 -0.576163 0.39574 0.835662 -0.380866 
-0.0109396 -0.686601 -0.726952 -0.198341 -0.600676 -0.774499 0.927197 0.322902 -0.189843 
0.711657 0.687561 -0.144235 -0.30995 0.903601 -0.295697 -0.0217364 0.973803 -0.22635 
0.413094 0.898469 -0.148683 -0.492769 -0.507058 -0.707157 0.886397 -0.385735 -0.255945 
0.956378 -0.21057 -0.202488 -0.547704 0.814352 -0.19197 0.83246 0.55198 0.0482562 
0.195261 0.976463 -0.0916173 -0.29746 -0.53328 -0.791915 0.320034 -0.598451 -0.734462 
-0.680293 -0.382574 -0.625171 -0.82492 -0.281623 -0.490098 0.976424 -0.205893 -0.064836 
0.994269 -0.104192 0.0239583 -0.943528 0.303278 -0.13333 0.988931 0.148108 -0.00896263 
-0.804219 0.591032 -0.062556 -0.146923 0.981874 -0.119737 0.178026 0.962219 -0.206011 
-0.228163 -0.474217 -0.850329 -0.0756738 -0.481378 -0.87324 0.184141 -0.52172 -0.833007 
0.445026 -0.358024 -0.820835 0.664621 -0.513157 -0.543092 -0.413436 0.90523 -0.0981257 
-0.142318 0.988995 -0.0404248 0.449597 0.870818 -0.198846 0.44606 -0.175399 -0.877648 
0.0952539 -0.481689 -0.87115 0.464022 -0.335455 -0.81985 0.0127438 -0.459593 -0.888038 
0.426506 -0.131566 -0.894865 0.0260395 -0.343086 -0.938943 0.684407 0.0711461 -0.725621 
-0.502869 -0.460121 -0.731718 0.711071 -0.295231 -0.638135 0.596773 -0.375979 -0.708873 
0.697717 0.701059 0.147337 0.593732 0.804658 0.00276413 0.0119928 0.989667 0.142882 
0.0912298 -0.685977 -0.721882 -0.151429 -0.685021 -0.712612 -0.173268 -0.552239 -0.815481 
-0.411729 -0.556631 -0.721555 0.793668 0.209156 -0.571266 -0.754424 -0.238097 -0.611681 
0.713416 0.127197 -0.6891 0.74492 -0.141555 -0.651963 0.903715 -0.229664 -0.361323 
-0.956151 -0.0233504 -0.291942 -0.990126 0.0254881 -0.137841 0.805467 0.563517 0.183498 
-0.672063 0.739969 -0.0278723 0.0637849 0.979907 0.18898 0.522329 -0.535605 -0.663551 
-0.318828 -0.797812 -0.511707 0.676683 -0.188611 -0.711707 0.762258 -0.382553 -0.522126 
-0.422489 -0.722559 -0.547185 0.876358 0.0127171 -0.481492 -0.725738 -0.497583 -0.475094 
-0.629846 -0.494228 -0.599194 0.860799 0.274751 -0.428412 0.797843 0.257614 -0.545053 
-0.93755 -0.176236 -0.299901 0.888819 0.186355 -0.418656 0.891898 0.000581015 -0.452236 
0.922617 0.346456 0.16955 -0.789208 0.614105 0.00500676 -0.546777 0.83727 0.00367439 
-0.0868101 -0.914811 -0.394443 -0.173934 -0.976446 -0.127672 0.13101 -0.8129 -0.567477 
0.0610037 -0.921594 -0.383331 0.483343 -0.723705 -0.492576 -0.381906 -0.921174 -0.0747478 
-0.442969 -0.885664 -0.139207 0.731063 -0.488487 -0.476368 -0.539156 -0.842089 -0.0140196 
-0.536241 -0.832938 -0.1366 -0.597996 -0.716572 -0.359062 0.8911 0.22758 -0.392616 
-0.785369 -0.617157 0.0481016 -0.958443 -0.174166 -0.225951 0.918837 0.327371 -0.220378 
-0.997551 -0.00479824 -0.0697826 0.955391 0.258154 -0.143474 -0.977341 0.109967 0.180865 
0.982275 0.103769 0.1561 0.833469 0.526194 0.168669 0.61494 0.777819 0.129794 
-0.42875 0.902507 -0.0406795 -0.0110021 0.995835 -0.0905102 0.168724 0.984895 -0.0389247 
-0.119711 -0.979226 0.163662 0.291174 -0.931503 -0.217989 0.503271 -0.830777 -0.237756 
-0.391291 -0.916682 0.0811486 -0.508781 -0.740871 0.438466 0.833085 -0.450973 -0.320302 
0.967662 -0.103506 -0.230035 -0.552033 -0.773796 0.310643 -0.748636 -0.604385 0.272512 
0.975278 0.163449 -0.14872 -0.706102 -0.51293 0.488183 0.925307 0.27541 0.260684 
-0.75407 -0.381593 0.53457 -0.936887 -0.113076 0.330842 0.89249 0.388703 -0.22885 
-0.954706 0.150852 0.256475 0.985324 0.133471 -0.106408 -0.984284 0.045492 0.170633 
-0.778498 0.625534 -0.0514615 0.426069 0.904649 0.00871602 0.430648 -0.889012 -0.155563 
0.213827 -0.88139 0.421223 -0.135273 -0.987032 0.0864263 0.602437 -0.765562 0.225798 
-0.368789 -0.884409 0.286033 -0.155525 -0.968663 0.193657 0.658569 -0.727487 -0.192481 
-0.434126 -0.843189 0.317124 0.870323 -0.480509 -0.107934 0.974884 -0.195358 -0.106941 
0.959714 -0.137064 0.245281 -0.423474 -0.667834 0.612102 -0.456792 -0.682734 0.570276 
-0.738639 -0.460544 0.492252 0.933315 0.0445942 0.356278 -0.658482 -0.37154 0.654492 
-0.571832 -0.468562 0.673393 0.917035 0.391104 0.0780018 -0.751388 -0.0971322 0.652672 
0.765015 0.390169 0.512368 -0.742122 -0.0103636 0.670184 0.889618 0.354398 0.288065 
0.91423 0.0737173 0.398434 0.917638 0.0849326 0.388236 0.901149 0.170514 0.398567 
0.788758 0.514293 0.336695 -0.707014 0.70697 -0.0180063 0.263973 0.94595 0.188407 
-0.0645774 -0.740876 0.66853 -0.303413 -0.759773 0.575052 -0.150988 -0.666279 0.730256 
0.291856 -0.635997 0.714372 -0.309598 -0.585094 0.749543 0.698472 -0.674675 0.238645 
0.868396 -0.445269 0.218231 0.755282 -0.271178 0.596667 -0.159151 -0.519161 0.839728 
-0.0190017 -0.295502 0.955153 0.0336658 -0.40808 0.912325 0.728178 -0.0407082 0.684178 
-0.327804 -0.409296 0.851482 0.667714 0.166636 0.725528 -0.484693 -0.327343 0.811122 
-0.113375 -0.221595 0.968526 0.661927 0.281349 0.694762 -0.44372 -0.282883 0.850347 
0.736035 0.375663 0.563142 0.706366 0.194856 0.680498 -0.777249 -0.0556584 0.626727 
-0.920538 0.0265985 0.389747 0.90003 0.261394 0.34874 -0.911332 0.409715 0.0401016 
0.668826 0.655473 0.350753 -0.583176 0.793035 0.176072 -0.411476 0.845443 0.34046 
-0.072702 0.97154 0.225442 0.395128 -0.373951 0.839067 0.255324 -0.0421676 0.965936 
0.54312 -0.104432 0.833136 0.402306 0.201467 0.893063 0.340815 0.0169126 0.939978 
0.662656 0.0155321 0.748763 -0.293436 -0.140715 0.945566 0.254081 -0.230228 0.939382 
0.465097 -0.276292 0.841039 0.641687 -0.153767 0.751394 0.813139 0.0787038 0.576725 
0.807363 0.144573 0.572069 -0.952624 0.163043 0.256757 0.779966 0.328054 0.532948 
-0.812932 0.443603 0.377304 0.763626 0.428187 0.483251 -0.838325 0.524318 0.149341 
0.530231 0.49876 0.685634 -0.166751 0.89448 0.41485 0.367357 0.767207 0.525777 
-0.641411 -0.107028 0.759695 -0.226807 -0.236499 0.944789 0.262288 -0.152454 0.952871 
-0.48083 -0.158178 0.862428 -0.0809892 -0.170575 0.982011 0.246375 -0.364195 0.898143 
-0.553804 -0.193764 0.809788 -0.195762 -0.18528 0.962989 0.0768487 -0.119935 0.989803 
-0.668968 -0.0969861 0.736936 -0.369046 -0.0925675 0.92479 0.0407024 -0.152664 0.98744 
0.506109 -0.173039 0.844933 -0.777795 0.0223801 0.62812 -0.100628 0.0456731 0.993875 
0.324539 -0.0317526 0.945339 0.708041 0.0381861 0.705139 -0.838232 0.155739 0.522602 
0.700927 0.24387 0.670246 -0.871346 0.288655 0.39678 0.654433 0.364369 0.662535 
-0.760409 0.478389 0.439229 -0.725794 0.592992 0.348689 -0.7288 0.401756 0.554476 
0.467496 0.621684 0.628456 -0.0315661 0.916609 0.398537 -0.51197 0.16165 0.843656 
0.576685 0.131409 0.806329 -0.57318 0.196043 0.795633 0.209044 0.122408 0.970215 
-0.63598 0.237975 0.734097 -0.311673 0.214651 0.925627 0.217184 0.271741 0.937544 
-0.30401 0.202073 0.930991 -0.562436 0.42953 0.70652 0.180075 0.201437 0.962806 