# vtk DataFile Version 4.2
vtk output
ASCII
DATASET POLYDATA
POINTS 810 float
256.452 214.106 213.479 256.463 213.989 213.532 256.314 214.148 213.574 
256.491 214.251 213.505 256.545 213.67 213.764 257.234 213.715 213.717 
258.339 213.373 213.962 256.879 214.266 213.582 256.272 214.694 213.618 
257.439 214.752 213.635 253.357 215.555 214.448 253.004 215.538 214.648 
253.086 215.805 214.608 254.605 216.079 214.131 257.584 215.765 213.809 
258.099 211.09 214.951 258.21 210.408 215.349 257.305 211.87 214.639 
258.711 211.308 214.856 252.786 215.335 214.854 253.071 216.216 214.763 
254.396 216.592 214.374 259.622 216.457 214.473 258.883 217.172 214.58 
259.783 208.753 216.159 257.319 210.278 215.807 259.391 211.743 214.823 
253.219 213.746 215.583 250.158 216.383 216.415 250.702 216.837 216.236 
251.148 216.519 215.91 252.213 216.624 215.419 255.732 217.658 214.844 
258.827 217.872 215 259.458 207.847 216.749 258.499 208.374 216.782 
260.379 210.004 215.707 261.104 210.9 215.67 255.525 211.259 216.402 
250.546 217.281 216.633 262.73 217.728 215.81 263.973 217.284 216.139 
255.144 218.493 215.845 263.24 218.074 216.112 263.871 217.935 216.294 
259.874 219.442 216.503 260.087 206.068 218.018 260.881 205.898 217.941 
259.529 206.432 218.017 259.258 207.186 217.451 261.211 206.904 217.358 
258.048 207.91 217.734 265.646 214.35 216.787 264.07 216.123 216.047 
247.753 216.503 218.044 266.433 216.133 216.928 266.843 216.582 217.089 
253.86 218.892 216.864 266.79 217.899 217.345 256.932 219.659 217.177 
263.792 218.976 216.922 266.076 218.696 217.467 259.251 206.048 218.694 
257.969 207.606 218.327 247.042 216.286 218.665 247.122 216.546 218.622 
246.843 216.42 218.826 246.708 216.599 219.062 248.864 218.145 218.847 
267.342 218.418 217.763 270.67 217.927 218.536 266.826 218.991 217.964 
256.587 220.302 218.777 262.157 203.08 219.663 261.207 203.592 219.704 
260.555 204.19 219.61 263.385 203.775 219.227 257.806 207.561 218.884 
255.075 210.616 219.202 278.457 211.73 219.314 280.09 212.265 219.783 
279.176 213.585 219.563 279.778 213.671 219.877 276.623 214.586 219.089 
278.308 214.464 219.485 246.628 216.238 219.086 246.145 216.177 219.558 
245.86 216.329 219.858 276.148 215.907 219.283 279.2 215.306 220.189 
276.975 216.613 219.795 277.425 216.496 219.9 274.256 217.862 219.715 
276.76 217.001 220.009 253.831 219.993 219.559 269.06 219.097 218.812 
271.561 218.883 219.508 256.316 220.435 219.383 267.09 219.958 219.224 
263.153 201.127 220.6 262.305 201.526 220.676 263.56 201.64 220.259 
265.077 202.866 219.813 258.566 206.259 219.966 255.867 209.786 219.636 
253.785 211.558 219.655 280.992 212.652 220.447 281.33 212.847 220.867 
280.143 214.505 220.442 281.027 213.551 220.91 245.361 215.953 220.443 
245.179 215.761 220.704 245.454 216.332 220.393 278.763 216.139 220.462 
246.364 217.379 220.347 246.904 217.724 220.202 247.939 218.387 220.475 
271.918 219.06 219.866 255.335 220.453 220.214 257.599 220.658 219.751 
259.177 220.854 220.575 271.927 219.271 220.37 284.727 199.625 222.106 
282.629 200.581 221.36 284.141 200.81 221.537 284.963 199.878 222.121 
285.269 200.001 222.37 261.658 200.997 221.751 280.486 203.482 220.649 
285.404 202.29 222.339 281.953 204.114 220.773 283.52 203.779 221.251 
284.904 203.45 222.013 276.369 205.09 220.304 258.225 206.765 220.972 
257.071 208.522 221.082 283.263 209.088 221.843 254.669 211.005 221.054 
282.165 211.467 221.297 282.306 211.739 221.639 244.915 215.461 221.2 
243.923 215.717 222.011 278.916 216.339 220.948 278.365 216.751 220.875 
275.803 218.08 220.851 277.347 217.291 220.936 273.347 219.031 220.647 
265.654 220.682 220.199 273.191 219.109 221.001 265.775 220.724 220.817 
264.765 198.009 222.42 282.866 198.453 222.558 285.01 199.207 222.602 
284.785 198.915 222.698 279.98 198.92 222.206 285.389 199.514 222.835 
261.435 200.657 222.609 270.825 200.193 221.63 285.746 200.944 222.718 
272.24 201.731 221.152 285.736 202.382 222.749 285.238 204.396 222.606 
258.369 206.746 221.538 284.454 206.921 222.569 257.269 208.503 221.651 
283.298 209.625 222.07 255.437 210.792 221.958 283.412 209.82 222.435 
252.915 212.152 221.51 250.548 213.013 221.126 282.191 212.154 221.846 
282.2 212.272 222.343 243.022 215.377 222.915 244.329 214.598 222.638 
242.664 215.5 223.204 280.268 215.207 221.439 243.048 216.038 223.154 
279.294 216.181 221.264 278.03 217.006 221.044 275.945 218.071 221.195 
276.31 217.861 221.481 274.231 218.67 221.663 257.021 220.729 222.011 
264.498 220.758 221.548 266.302 220.622 221.472 268.67 220.084 221.693 
282.992 197.748 223.592 284.625 198.312 223.338 277.511 198.212 222.818 
285.898 199.714 223.519 261.567 199.862 223.21 261.175 201.237 223.052 
286.164 200.734 223.572 260.412 203.565 222.625 286.208 201.979 223.728 
285.892 203.273 223.409 259.698 205.431 222.586 259.122 205.949 222.072 
258.916 206.556 222.313 258.456 206.989 221.988 257.837 208.344 222.349 
283.937 208.879 223.082 283.289 210.288 222.643 283.6 209.653 222.999 
252.857 212.372 222.083 244.567 214.13 223.674 281.718 212.917 222.496 
242.499 214.774 223.836 242.202 215.485 223.699 280.688 214.302 222.609 
243.436 216.627 223.894 248.879 219.022 222.35 273.669 218.837 221.747 
273.939 218.593 222.04 256.839 220.601 222.753 261.187 220.521 222.454 
265.068 220.569 222.064 266.667 220.446 221.938 263.369 197.011 224.03 
263.008 197.46 223.709 271.767 197.189 223.63 283.545 197.701 223.992 
285.032 198.475 223.932 261.605 199.169 223.998 261.424 199.824 223.804 
261.355 200.329 224.156 261.349 201.613 224.138 286.128 202.685 223.883 
260.882 204.982 223.668 259.52 207.116 223.185 284.554 207.746 224.049 
252.497 212.977 222.889 253.9 212.721 223.146 255.214 212.592 223.457 
282.861 211.113 223.216 242.627 214.21 224.868 243.735 214.29 223.732 
245.639 214.085 224.005 282.025 212.112 223.428 240.535 215.232 225.187 
241.227 215.123 224.582 275.859 215.012 224.084 260.754 216.941 224.28 
276.241 216.182 223.517 272.207 217.988 222.996 273.887 217.665 222.959 
275.917 217.301 222.673 277.671 216.642 222.691 270.861 218.717 222.641 
252.312 219.884 223.593 262.909 219.35 223.536 266.369 219.572 223.075 
256.599 220.402 223.389 257.748 220.273 223.367 258.697 220.191 223.247 
264.675 220.306 222.583 266.479 220.221 222.43 263.228 196.22 225.799 
262.518 197.128 225.011 269.593 196.031 225.482 279.075 196.41 225.84 
284.008 197.771 224.318 261.498 198.763 225.216 261.446 199.451 225.118 
262.069 203.428 224.625 286.298 202.032 224.781 263.322 205.661 224.798 
266.115 207.23 225.151 281.778 207.472 225.968 262.201 209.666 224.427 
275.74 209.303 225.327 283.704 209.239 224.21 283.277 209.92 224.159 
281.167 210.963 224.564 282.887 210.469 224.116 244.593 214.119 225.141 
244.491 214.117 225.353 246.725 214.155 224.136 249.557 214.235 223.958 
251.739 213.949 223.692 257.669 213.376 224.189 281.776 211.259 224.251 
282.259 211.678 223.675 240.899 214.575 225.538 241.955 214.37 224.891 
243.409 214.071 225.194 255.35 214.284 224.175 240.247 215.027 225.668 
240.143 215.146 225.777 251.103 215.297 224.71 256.212 215.038 224.38 
278.837 214.788 223.6 278.917 215.483 223.122 252.661 217.924 225.639 
253.548 218.196 225.336 253.89 218.532 225.232 260.728 218.444 224.031 
255.811 219.449 224.458 257.951 219.763 223.795 257.369 219.999 223.809 
264.242 219.922 223.036 266.593 219.915 222.796 256.135 220.183 223.805 
261.769 197.871 225.547 261.573 198.335 225.507 261.894 200.857 225.973 
262.414 201.478 226.219 263.737 202.248 226.72 281.092 203.599 227.167 
281.365 203.755 227.164 265.407 203.338 226.523 280.938 204.339 226.819 
281.363 204.242 226.942 268.734 204.653 226.574 269.186 204.987 226.44 
281.734 204.739 226.989 267.103 205.919 225.619 281.875 205.928 226.703 
282.421 206.333 226.976 282.969 207.104 226.642 284.685 207.358 224.964 
283.105 207.942 225.871 283.797 208.657 224.816 282.335 210.07 224.734 
283.089 209.259 224.946 244.531 214.182 225.55 282.206 211.366 223.979 
241.652 214.006 226.264 243.816 214.141 226.559 245.954 214.601 225.344 
240.224 214.931 225.96 240.124 215.062 225.925 240.132 215.178 226.021 
240.312 215.373 226.344 240.653 215.693 226.409 245.74 215.464 226.589 
243.634 216.759 225.763 245.314 217.069 226.049 246.11 217.417 226.061 
248.88 217.341 226.384 249.923 217.519 226.154 250.558 217.93 226.21 
251.617 217.553 225.861 248.635 218.374 225.708 251.318 218.102 226.384 
252.048 218.188 226.195 252.616 218.452 225.892 253.347 218.607 225.45 
249.026 218.708 225.072 252.731 218.904 225.769 253.629 219.161 225.175 
254.388 219.583 224.631 253.698 219.458 224.915 252.427 219.48 224.875 
264.225 195.639 227.734 262.06 197.057 227.279 261.821 197.435 226.893 
269.199 195.698 227.086 261.636 198.025 226.788 284.224 197.833 225.573 
262.354 201.093 226.859 263.946 202.274 226.938 280.637 203.349 227.275 
280.43 203.323 227.351 280.663 203.247 227.413 280.848 203.275 227.357 
281.073 203.389 227.377 266.956 203.542 227.227 267.542 203.722 227.434 
279.818 203.632 227.296 280.136 203.431 227.39 280.665 203.634 227.098 
281.336 203.605 227.322 281.545 203.857 227.265 281.51 203.753 227.429 
278.806 204.28 227.088 278.713 204.119 227.387 279.621 203.93 227.104 
270.483 204.987 226.724 272.452 204.924 227.415 274.574 205.08 227.345 
276.62 204.843 227.298 281.881 204.587 227.38 277.565 205.192 226.681 
282.41 205.923 227.464 282.958 206.65 227.619 284.558 206.591 227.152 
283.775 206.912 227.411 283.899 207.326 226.239 283.42 208.866 225.042 
240.168 215.054 226.298 244.384 214.507 227.133 245.192 215.302 227.031 
245.584 216.054 226.946 245.198 215.77 227.267 243.27 216.586 226.871 
244.257 216.576 227.008 244.643 216.696 226.503 244.985 216.295 227.093 
245.257 216.574 226.74 245.812 216.71 227.116 246.339 216.377 227.045 
247.071 216.647 226.94 247.726 217.178 226.83 247.115 216.944 227.17 
246.242 217.206 226.885 247.004 217.249 227.015 247.448 217.594 226.661 
247.921 217.654 227.303 248.336 217.615 226.978 248.949 218.047 226.318 
[...]
POINT_DATA 810
COLOR_SCALARS scalars 3
1 0.564706 0.623529 1 0.564706 0.623529 1 0.564706 0.623529 
1 0.564706 0.623529 1 0.564706 0.623529 
1 0.564706 0.623529 1 0.564706 0.623529 
1 0.564706 0.623529 1 0.564706 0.623529 
1 0.564706 0.623529 1 0.564706 0.623529 
1 0.564706 0.623529 1 0.564706 0.623529 
1 0.564706 0.623529 1 0.564706 0.623529 
1 0.564706 0.623529 1 0.564706 0.623529 
1 0.564706 0.623529 1 0.564706 0.623529 
1 0.564706 0.623529 1 0.564706 0.623529 
1 0.564706 0.623529 1 0.564706 0.623529 
1 0.564706 0.623529 1 0.564706 0.623529 
1 0.564706 0.623529 1 0.564706 0.623529 
1 0.564706 0.623529 1 0.564706 0.623529 
1 0.564706 0.623529 1 0.564706 0.623529 
1 0.564706 0.623529 1 0.564706 0.623529 
1 0.564706 0.623529 1 0.564706 0.623529 
1 0.564706 0.623529 1 0.564706 0.623529 
1 0.564706 0.623529 1 0.564706 0.623529 
1 0.564706 0.623529 1 0.564706 0.623529 
1 0.564706 0.623529 1 0.564706 0.623529 
1 0.564706 0.623529 1 0.564706 0.623529 
1 0.564706 0.623529 1 0.564706 0.623529 
1 0.564706 0.623529 1 0.564706 0.623529 
1 0.564706 0.623529 1 0.564706 0.623529 
1 0.564706 0.623529 1 0.564706 0.623529 
1 0.564706 0.623529 1 0.564706 0.623529 
1 0.564706 0.623529 1 0.564706 0.623529 
1 0.564706 0.623529 1 0.564706 0.623529 
1 0.564706 0.623529 1 0.564706 0.623529 
1 0.564706 0.623529 1 0.564706 0.623529 
1 0.564706 0.623529 1 0.564706 0.623529 
1 0.564706 0.623529 1 0.564706 0.623529 
1 0.564706 0.623529 1 0.564706 0.623529 
1 0.564706 0.623529 1 0.564706 0.623529 
1 0.564706 0.623529 1 0.564706 0.623529 
1 0.564706 0.623529 1 0.564706 0.623529 
1 0.564706 0.623529 1 0.564706 0.623529 
1 0.564706 0.623529 1 0.564706 0.623529 
1 0.564706 0.623529 1 0.564706 0.623529 
1 0.564706 0.623529 1 0.564706 0.623529 
1 0.564706 0.623529 1 0.564706 0.623529 
1 0.564706 0.623529 1 0.564706 0.623529 
1 0.564706 0.623529 1 0.564706 0.623529 
1 0.564706 0.623529 1 0.564706 0.623529 
1 0.564706 0.623529 1 0.564706 0.623529 
1 0.564706 0.623529 1 0.564706 0.623529 
1 0.564706 0.623529 1 0.564706 0.623529 
1 0.564706 0.623529 1 0.564706 0.623529 
1 0.564706 0.623529 1 0.564706 0.623529 
1 0.564706 0.623529 1 0.564706 0.623529 
1 0.564706 0.623529 1 0.564706 0.623529 
1 0.564706 0.623529 1 0.564706 0.623529 
1 0.564706 0.623529 1 0.564706 0.623529 
1 0.564706 0.623529 1 0.564706 0.623529 
1 0.564706 0.623529 1 0.564706 0.623529 
1 0.564706 0.623529 1 0.564706 0.623529 
1 0.564706 0.623529 1 0.564706 0.623529 
1 0.564706 0.623529 1 0.564706 0.623529 
1 0.564706 0.623529 1 0.564706 0.623529 
1 0.564706 0.623529 1 0.564706 0.623529 
1 0.564706 0.623529 1 0.564706 0.623529 
1 0.564706 0.623529 1 0.564706 0.623529 
1 0.564706 0.623529 1 0.564706 0.623529 
1 0.564706 0.623529 1 0.564706 0.623529 
1 0.564706 0.623529 1 0.564706 0.623529 
1 0.564706 0.623529 1 0.564706 0.623529 
1 0.564706 0.623529 1 0.564706 0.623529 
1 0.564706 0.623529 1 0.564706 0.623529 
1 0.564706 0.623529 1 0.564706 0.623529 
1 0.564706 0.623529 1 0.564706 0.623529 
1 0.564706 0.623529 1 0.564706 0.623529 
1 0.564706 0.623529 1 0.564706 0.623529 
1 0.564706 0.623529 1 0.564706 0.623529 
1 0.564706 0.623529 1 0.564706 0.623529 
1 0.564706 0.623529 1 0.564706 0.623529 
1 0.564706 0.623529 1 0.564706 0.623529 
1 0.564706 0.623529 1 0.564706 0.623529 
1 0.564706 0.623529 1 0.564706 0.623529 
1 0.564706 0.623529 1 0.564706 0.623529 
1 0.564706 0.623529 1 0.564706 0.623529 
1 0.564706 0.623529 1 0.564706 0.623529 
1 0.564706 0.623529 1 0.564706 0.623529 
1 0.564706 0.623529 1 0.564706 0.623529 
1 0.564706 0.623529 1 0.564706 0.623529 
1 0.564706 0.623529 1 0.564706 0.623529 
1 0.564706 0.623529 1 0.564706 0.623529 
1 0.564706 0.623529 1 0.564706 0.623529 
1 0.564706 0.623529 1 0.564706 0.623529 
1 0.564706 0.623529 1 0.564706 0.623529 
1 0.564706 0.623529 1 0.564706 0.623529 
1 0.564706 0.623529 1 0.564706 0.623529 
1 0.564706 0.623529 1 0.564706 0.623529 
1 0.564706 0.623529 1 0.564706 0.623529 
1 0.564706 0.623529 1 0.564706 0.623529 
1 0.564706 0.623529 1 0.564706 0.623529 
1 0.564706 0.623529 1 0.564706 0.623529 
1 0.564706 0.623529 1 0.564706 0.623529 
1 0.564706 0.623529 1 0.564706 0.623529 
1 0.564706 0.623529 1 0.564706 0.623529 
1 0.564706 0.623529 1 0.564706 0.623529 
1 0.564706 0.623529 1 0.564706 0.623529 
1 0.564706 0.623529 1 0.564706 0.623529 
1 0.564706 0.623529 1 0.564706 0.623529 
1 0.564706 0.623529 1 0.564706 0.623529 
1 0.564706 0.623529 1 0.564706 0.623529 
1 0.564706 0.623529 1 0.564706 0.623529 
1 0.564706 0.623529 1 0.564706 0.623529 
1 0.564706 0.623529 1 0.564706 0.623529 
1 0.564706 0.623529 1 0.564706 0.623529 
1 0.564706 0.623529 1 0.564706 0.623529 
1 0.564706 0.623529 1 0.564706 0.623529 
1 0.564706 0.623529 1 0.564706 0.623529 
1 0.564706 0.623529 1 0.564706 0.623529 
1 0.564706 0.623529 1 0.564706 0.623529 
1 0.564706 0.623529 1 0.564706 0.623529 
1 0.564706 0.623529 1 0.564706 0.623529 
1 0.564706 0.623529 1 0.564706 0.623529 
1 0.564706 0.623529 1 0.564706 0.623529 
1 0.564706 0.623529 1 0.564706 0.623529 
1 0.564706 0.623529 1 0.564706 0.623529 
1 0.564706 0.623529 1 0.564706 0.623529 
1 0.564706 0.623529 1 0.564706 0.623529 
1 0.564706 0.623529 1 0.564706 0.623529 
1 0.564706 0.623529 1 0.564706 0.623529 
1 0.564706 0.623529 1 0.564706 0.623529 
1 0.564706 0.623529 1 0.564706 0.623529 
1 0.564706 0.623529 1 0.564706 0.623529 
1 0.564706 0.623529 1 0.564706 0.623529 
1 0.564706 0.623529 1 0.564706 0.623529 
1 0.564706 0.623529 1 0.564706 0.623529 
1 0.564706 0.623529 1 0.564706 0.623529 
1 0.564706 0.623529 1 0.564706 0.623529 
1 0.564706 0.623529 1 0.564706 0.623529 
1 0.564706 0.623529 1 0.564706 0.623529 
1 0.564706 0.623529 1 0.564706 0.623529 
1 0.564706 0.623529 1 0.564706 0.623529 
1 0.564706 0.623529 1 0.564706 0.623529 
1 0.564706 0.623529 1 0.564706 0.623529 
1 0.564706 0.623529 1 0.564706 0.623529 
1 0.564706 0.623529 1 0.564706 0.623529 
1 0.564706 0.623529 1 0.564706 0.623529 
1 0.564706 0.623529 1 0.564706 0.623529 
1 0.564706 0.623529 1 0.564706 0.623529 
1 0.564706 0.623529 1 0.564706 0.623529 
1 0.564706 0.623529 1 0.564706 0.623529 
1 0.564706 0.623529 1 0.564706 0.623529 
1 0.564706 0.623529 1 0.564706 0.623529 
1 0.564706 0.623529 1 0.564706 0.623529 
1 0.564706 0.623529 1 0.564706 0.623529 
1 0.564706 0.623529 1 0.564706 0.623529 
1 0.564706 0.623529 1 0.564706 0.623529 
1 0.564706 0.623529 1 0.564706 0.623529 
1 0.564706 0.623529 1 0.564706 0.623529 
1 0.564706 0.623529 1 0.564706 0.623529 
1 0.564706 0.623529 1 0.564706 0.623529 
1 0.564706 0.623529 1 0.564706 0.623529 
1 0.564706 0.623529 1 0.564706 0.623529 
1 0.564706 0.623529 1 0.564706 0.623529 
1 0.564706 0.623529 1 0.564706 0.623529 
1 0.564706 0.623529 1 0.564706 0.623529 
1 0.564706 0.623529 1 0.564706 0.623529 
1 0.564706 0.623529 1 0.564706 0.623529 
1 0.564706 0.623529 1 0.564706 0.623529 
1 0.564706 0.623529 1 0.564706 0.623529 
1 0.564706 0.623529 1 0.564706 0.623529 
1 0.564706 0.623529 1 0.564706 0.623529 
1 0.564706 0.623529 1 0.564706 0.623529 
1 0.564706 0.623529 1 0.564706 0.623529 
1 0.564706 0.623529 1 0.564706 0.623529 
1 0.564706 0.623529 1 0.564706 0.623529 
1 0.564706 0.623529 1 0.564706 0.623529 
1 0.564706 0.623529 1 0.564706 0.623529 
1 0.564706 0.623529 1 0.564706 0.623529 
1 0.564706 0.623529 1 0.564706 0.623529 
1 0.564706 0.623529 1 0.564706 0.623529 
1 0.564706 0.623529 1 0.564706 0.623529 
1 0.564706 0.623529 1 0.564706 0.623529 
1 0.564706 0.623529 1 0.564706 0.623529 
1 0.564706 0.623529 1 0.564706 0.623529 
1 0.564706 0.623529 1 0.564706 0.623529 
1 0.564706 0.623529 1 0.564706 0.623529 
1 0.564706 0.623529 1 0.564706 0.623529 
1 0.564706 0.623529 1 0.564706 0.623529 
1 0.564706 0.623529 1 0.564706 0.623529 
1 0.564706 0.623529 1 0.564706 0.623529 
1 0.564706 0.623529 1 0.564706 0.623529 
1 0.564706 0.623529 1 0.564706 0.623529 
1 0.564706 0.623529 1 0.564706 0.623529 
1 0.564706 0.623529 1 0.564706 0.623529 
1 0.564706 0.623529 1 0.564706 0.623529 
1 0.564706 0.623529 1 0.564706 0.623529 
1 0.564706 0.623529 1 0.564706 0.623529 
1 0.564706 0.623529 1 0.564706 0.623529 
1 0.564706 0.623529 1 0.564706 0.623529 
1 0.564706 0.623529 1 0.564706 0.623529 
1 0.564706 0.623529 1 0.564706 0.623529 
1 0.564706 0.623529 1 0.564706 0.623529 
1 0.564706 0.623529 1 0.564706 0.623529 
1 0.564706 0.623529 1 0.564706 0.623529 
1 0.564706 0.623529 1 0.564706 0.623529 
1 0.564706 0.623529 1 0.564706 0.623529 
1 0.564706 0.623529 1 0.564706 0.623529 
1 0.564706 0.623529 1 0.564706 0.623529 
1 0.564706 0.623529 1 0.564706 0.623529 
1 0.564706 0.623529 1 0.564706 0.623529 
1 0.564706 0.623529 1 0.564706 0.623529 
1 0.564706 0.623529 1 0.564706 0.623529 
1 0.564706 0.623529 1 0.564706 0.623529 
1 0.564706 0.623529 1 0.564706 0.623529 
1 0.564706 0.623529 1 0.564706 0.623529 
1 0.564706 0.623529 1 0.564706 0.623529 
1 0.564706 0.623529 1 0.564706 0.623529 
1 0.564706 0.623529 1 0.564706 0.623529 
1 0.564706 0.623529 1 0.564706 0.623529 
1 0.564706 0.623529 1 0.564706 0.623529 
1 0.564706 0.623529 1 0.564706 0.623529 
1 0.564706 0.623529 1 0.564706 0.623529 
1 0.564706 0.623529 1 0.564706 0.623529 
1 0.564706 0.623529 1 0.564706 0.623529 
1 0.564706 0.623529 1 0.564706 0.623529 
1 0.564706 0.623529 1 0.564706 0.623529 
1 0.564706 0.623529 1 0.564706 0.623529 
1 0.564706 0.623529 1 0.564706 0.623529 
1 0.564706 0.623529 1 0.564706 0.623529 
1 0.564706 0.623529 1 0.564706 0.623529 
1 0.564706 0.623529 1 0.564706 0.623529 
1 0.564706 0.623529 1 0.564706 0.623529 
1 0.564706 0.623529 1 0.564706 0.623529 
1 0.564706 0.623529 1 0.564706 0.623529 
1 0.564706 0.623529 1 0.564706 0.623529 
1 0.564706 0.623529 1 0.564706 0.623529 
1 0.564706 0.623529 1 0.564706 0.623529 
1 0.564706 0.623529 1 0.564706 0.623529 
1 0.564706 0.623529 1 0.564706 0.623529 
1 0.564706 0.623529 1 0.564706 0.623529 
1 0.564706 0.623529 1 0.564706 0.623529 
1 0.564706 0.623529 1 0.564706 0.623529 
1 0.564706 0.623529 1 0.564706 0.623529 
1 0.564706 0.623529 1 0.564706 0.623529 
1 0.564706 0.623529 1 0.564706 0.623529 
1 0.564706 0.623529 1 0.564706 0.623529 
1 0.564706 0.623529 1 0.564706 0.623529 
1 0.564706 0.623529 1 0.564706 0.623529 
1 0.564706 0.623529 1 0.564706 0.623529 
1 0.564706 0.623529 1 0.564706 0.623529 
1 0.564706 0.623529 1 0.564706 0.623529 
1 0.564706 0.623529 1 0.564706 0.623529 
1 0.564706 0.623529 1 0.564706 0.623529 
1 0.564706 0.623529 1 0.564706 0.623529 
1 0.564706 0.623529 1 0.564706 0.623529 
1 0.564706 0.623529 1 0.564706 0.623529 
1 0.564706 0.623529 1 0.564706 0.623529 
1 0.564706 0.623529 1 0.564706 0.623529 
1 0.564706 0.623529 1 0.564706 0.623529 
1 0.564706 0.623529 1 0.564706 0.623529 
1 0.564706 0.623529 1 0.564706 0.623529 
1 0.564706 0.623529 1 0.564706 0.623529 
1 0.564706 0.623529 1 0.564706 0.623529 
1 0.564706 0.623529 1 0.564706 0.623529 
1 0.564706 0.623529 1 0.564706 0.623529 
1 0.564706 0.623529 1 0.564706 0.623529 
1 0.564706 0.623529 1 0.564706 0.623529 
1 0.564706 0.623529 1 0.564706 0.623529 
1 0.564706 0.623529 1 0.564706 0.623529 
1 0.564706 0.623529 1 0.564706 0.623529 
1 0.564706 0.623529 1 0.564706 0.623529 
1 0.564706 0.623529 1 0.564706 0.623529 
1 0.564706 0.623529 1 0.564706 0.623529 
1 0.564706 0.623529 1 0.564706 0.623529 
1 0.564706 0.623529 1 0.564706 0.623529 
1 0.564706 0.623529 1 0.564706 0.623529 
1 0.564706 0.623529 1 0.564706 0.623529 
1 0.564706 0.623529 1 0.564706 0.623529 
1 0.564706 0.623529 1 0.564706 0.623529 
1 0.564706 0.623529 1 0.564706 0.623529 
1 0.564706 0.623529 1 0.564706 0.623529 
1 0.564706 0.623529 1 0.564706 0.623529 
1 0.564706 0.623529 1 0.564706 0.623529 
1 0.564706 0.623529 1 0.564706 0.623529 
1 0.564706 0.623529 1 0.564706 0.623529 
1 0.564706 0.623529 1 0.564706 0.623529 
1 0.564706 0.623529 1 0.564706 0.623529 
1 0.564706 0.623529 1 0.564706 0.623529 
1 0.564706 0.623529 1 0.564706 0.623529 
1 0.564706 0.623529 1 0.564706 0.623529 
1 0.564706 0.623529 1 0.564706 0.623529 
1 0.564706 0.623529 1 0.564706 0.623529 
1 0.564706 0.623529 1 0.564706 0.623529 
1 0.564706 0.623529 1 0.564706 0.623529 
1 0.564706 0.623529 1 0.564706 0.623529 
1 0.564706 0.623529 1 0.564706 0.623529 
1 0.564706 0.623529 1 0.564706 0.623529 
1 0.564706 0.623529 1 0.564706 0.623529 
1 0.564706 0.623529 1 0.564706 0.623529 
1 0.564706 0.623529 1 0.564706 0.623529 
1 0.564706 0.623529 1 0.564706 0.623529 
1 0.564706 0.623529 1 0.564706 0.623529 
1 0.564706 0.623529 1 0.564706 0.623529 
1 0.564706 0.623529 1 0.564706 0.623529 
1 0.564706 0.623529 1 0.564706 0.623529 
1 0.564706 0.623529 1 0.564706 0.623529 
1 0.564706 0.623529 1 0.564706 0.623529 
1 0.564706 0.623529 1 0.564706 0.623529 
1 0.564706 0.623529 1 0.564706 0.623529 
1 0.564706 0.623529 1 0.564706 0.623529 
1 0.564706 0.623529 1 0.564706 0.623529 
1 0.564706 0.623529 1 0.564706 0.623529 
1 0.564706 0.623529 1 0.564706 0.623529 
1 0.564706 0.623529 1 0.564706 0.623529 
1 0.564706 0.623529 1 0.564706 0.623529 
1 0.564706 0.623529 1 0.564706 0.623529 
1 0.564706 0.623529 1 0.564706 0.623529 
1 0.564706 0.623529 1 0.564706 0.623529 
1 0.564706 0.623529 1 0.564706 0.623529 
1 0.564706 0.623529 1 0.564706 0.623529 
1 0.564706 0.623529 1 0.564706 0.623529 
1 0.564706 0.623529 1 0.564706 0.623529 
1 0.564706 0.623529 1 0.564706 0.623529 
1 0.564706 0.623529 1 0.564706 0.623529 
1 0.564706 0.623529 1 0.564706 0.623529 
1 0.564706 0.623529 1 0.564706 0.623529 
1 0.564706 0.623529 1 0.564706 0.623529 
1 0.564706 0.623529 1 0.564706 0.623529 
1 0.564706 0.623529 1 0.564706 0.623529 
1 0.564706 0.623529 1 0.564706 0.623529 
1 0.564706 0.623529 1 0.564706 0.623529 
1 0.564706 0.623529 1 0.564706 0.623529 
1 0.564706 0.623529 1 0.564706 0.623529 
1 0.564706 0.623529 1 0.564706 0.623529 
1 0.564706 0.623529 1 0.564706 0.623529 
1 0.564706 0.623529 1 0.564706 0.623529 
1 0.564706 0.623529 1 0.564706 0.623529 
1 0.564706 0.623529 1 0.564706 0.623529 
1 0.564706 0.623529 1 0.564706 0.623529 
1 0.564706 0.623529 1 0.564706 0.623529 
1 0.564706 0.623529 1 0.564706 0.623529 
1 0.564706 0.623529 1 0.564706 0.623529 
1 0.564706 0.623529 1 0.564706 0.623529 
1 0.564706 0.623529 1 0.564706 0.623529 
1 0.564706 0.623529 1 0.564706 0.623529 
1 0.564706 0.623529 1 0.564706 0.623529 
1 0.564706 0.623529 1 0.564706 0.623529 
1 0.564706 0.623529 1 0.564706 0.623529 
1 0.564706 0.623529 1 0.564706 0.623529 
1 0.564706 0.623529 1 0.564706 0.623529 
1 0.564706 0.623529 1 0.564706 0.623529 
1 0.564706 0.623529 1 0.564706 0.623529 
1 0.564706 0.623529 1 0.564706 0.623529 
1 0.564706 0.623529 1 0.564706 0.623529 
1 0.564706 0.623529 1 0.564706 0.623529 
1 0.564706 0.623529 1 0.564706 0.623529 
1 0.564706 0.623529 1 0.564706 0.623529 
1 0.564706 0.623529 1 0.564706 0.623529 
1 0.564706 0.623529 1 0.564706 0.623529 
1 0.564706 0.623529 1 0.564706 0.623529 
1 0.564706 0.623529 1 0.564706 0.623529 
1 0.564706 0.623529 1 0.564706 0.623529 
1 0.564706 0.623529 1 0.564706 0.623529 
1 0.564706 0.623529 1 0.564706 0.623529 
1 0.564706 0.623529 1 0.564706 0.623529 
1 0.564706 0.623529 1 0.564706 0.623529 
1 0.564706 0.623529 1 0.564706 0.623529 
1 0.564706 0.623529 1 0.564706 0.623529 
1 0.564706 0.623529 1 0.564706 0.623529 
1 0.564706 0.623529 1 0.564706 0.623529 
1 0.564706 0.623529 1 0.564706 0.623529 
1 0.564706 0.623529 1 0.564706 0.623529 
1 0.564706 0.623529 1 0.564706 0.623529 
1 0.564706 0.623529 1 0.564706 0.623529 
1 0.564706 0.623529 1 0.564706 0.623529 
1 0.564706 0.623529 1 0.564706 0.623529 
1 0.564706 0.623529 1 0.564706 0.623529 
1 0.564706 0.623529 1 0.564706 0.623529 
1 0.564706 0.623529 1 0.564706 0.623529 
1 0.564706 0.623529 1 0.564706 0.623529 
1 0.564706 0.623529 1 0.564706 0.623529 
1 0.564706 0.623529 1 0.564706 0.623529 
1 0.564706 0.623529 1 0.564706 0.623529 
1 0.564706 0.623529 1 0.564706 0.623529 
1 0.564706 0.623529 1 0.564706 0.623529 
1 0.564706 0.623529 1 0.564706 0.623529 
1 0.564706 0.623529 1 0.564706 0.623529 
1 0.564706 0.623529 1 0.564706 0.623529 
1 0.564706 0.623529 1 0.564706 0.623529 
1 0.564706 0.623529 1 0.564706 0.623529 
1 0.564706 0.623529 1 0.564706 0.623529 
1 0.564706 0.623529 1 0.564706 0.623529 
1 0.564706 0.623529 1 0.564706 0.623529 
1 0.564706 0.623529 1 0.564706 0.623529 
1 0.564706 0.623529 1 0.564706 0.623529 
1 0.564706 0.623529 1 0.564706 0.623529 
1 0.564706 0.623529 1 0.564706 0.623529 
1 0.564706 0.623529 1 0.564706 0.623529 
1 0.564706 0.623529 1 0.564706 0.623529 
1 0.564706 0.623529 1 0.564706 0.623529 
1 0.564706 0.623529 1 0.564706 0.623529 
1 0.564706 0.623529 1 0.564706 0.623529 
1 0.564706 0.623529 1 0.564706 0.623529 
1 0.564706 0.623529 1 0.564706 0.623529 
1 0.564706 0.623529 1 0.564706 0.623529 
1 0.564706 0.623529 1 0.564706 0.623529 
1 0.564706 0.623529 1 0.564706 0.623529 
1 0.564706 0.623529 1 0.564706 0.623529 
1 0.564706 0.623529 
NORMALS Normals float
0.0805484 -0.149019 -0.985548 -0.222346 -0.51598 -0.827241 -0.483272 -0.151794 -0.862211 
-0.134394 0.204793 -0.969535 -0.14904 -0.519367 -0.841454 0.0804328 -0.284292 -0.955358 
0.236184 -0.236684 -0.942443 0.153706 -0.0506074 -0.98682 -0.0935377 0.178598 -0.979466 
0.128467 0.0824925 -0.988277 -0.4037 -0.0980937 -0.909617 -0.582081 -0.0696651 -0.810141 
-0.587328 0.178089 -0.789513 -0.126153 0.286731 -0.949669 0.133918 0.28742 -0.948396 
-0.161101 -0.337169 -0.927558 -0.0451289 -0.525009 -0.849899 -0.19329 -0.487559 -0.851425 
0.0469711 -0.286045 -0.957064 -0.603386 -0.150629 -0.783094 -0.448251 0.383416 -0.807505 
-0.284166 0.472107 -0.834485 0.343981 0.159437 -0.925342 0.174527 0.457218 -0.872062 
0.168178 -0.494607 -0.85269 -0.458094 -0.621032 -0.635979 0.135051 -0.302534 -0.943522 
-0.469358 -0.624721 -0.624041 -0.556964 -0.00384063 -0.830528 -0.396486 0.446726 -0.802019 
-0.327758 0.324973 -0.887112 -0.439011 0.197494 -0.876508 -0.144019 0.585933 -0.797459 
0.0977427 0.55417 -0.826645 -0.271733 -0.613752 -0.741262 -0.468988 -0.577496 -0.668243 
0.274261 -0.411377 -0.869224 0.440087 -0.298326 -0.846951 -0.549461 -0.705277 -0.447971 
-0.385524 0.586025 -0.712704 0.20245 0.384097 -0.900824 0.48468 0.236046 -0.842239 
-0.139047 0.802952 -0.579598 0.243457 0.361013 -0.900221 0.60177 0.361429 -0.712209 
0.0559532 0.84105 -0.538056 -0.29252 -0.646648 -0.70447 -0.197003 -0.66852 -0.717127 
-0.402984 -0.598711 -0.692206 -0.382381 -0.663249 -0.643339 0.0251687 -0.508037 -0.860967 
-0.67014 -0.560402 -0.486684 0.312819 -0.190161 -0.930582 0.30355 0.105011 -0.947011 
-0.57755 -0.0555807 -0.814461 0.314559 0.136033 -0.93944 0.326563 0.17633 -0.928582 
-0.334323 0.737618 -0.586642 0.260832 0.311684 -0.913685 -0.173492 0.870009 -0.461503 
0.327428 0.569467 -0.753988 0.216902 0.500818 -0.837935 -0.557027 -0.704393 -0.439946 
-0.674031 -0.598391 -0.43314 -0.592761 -0.325775 -0.736549 -0.594013 0.461429 -0.658962 
-0.707698 0.100564 -0.699321 -0.684491 0.385346 -0.618854 -0.393815 0.788961 -0.471647 
0.368042 0.457923 -0.809229 0.352504 0.383308 -0.853707 0.294658 0.603595 -0.740844 
-0.126016 0.913462 -0.386919 -0.142794 -0.45909 -0.876839 -0.342786 -0.62528 -0.701086 
-0.606907 -0.6954 -0.384815 0.0491888 -0.396605 -0.916671 -0.780171 -0.56321 -0.272265 
-0.655783 -0.751718 -0.0697752 0.147352 -0.0354798 -0.988447 0.399462 0.0692204 -0.914133 
0.351598 0.111744 -0.929458 0.477886 0.198576 -0.855683 0.213206 0.203341 -0.955613 
0.321775 0.26404 -0.909255 -0.685307 -0.239052 -0.687901 -0.721863 -0.180824 -0.667994 
-0.738986 0.213957 -0.638844 0.144057 0.337126 -0.930373 0.509752 0.449153 -0.733768 
0.272222 0.364447 -0.890547 0.406463 0.627559 -0.664047 0.244126 0.467125 -0.849821 
0.347855 0.690968 -0.633687 -0.294 0.904692 -0.308377 0.278069 0.700301 -0.657462 
0.30187 0.683306 -0.664807 -0.239189 0.954224 -0.17957 0.260107 0.823481 -0.504206 
-0.0371918 -0.575198 -0.817169 -0.367999 -0.618051 -0.694687 -0.0162986 -0.528144 -0.848998 
0.123107 -0.464708 -0.876864 -0.758923 -0.650946 0.0174643 -0.740148 -0.634338 -0.22315 
-0.388754 -0.910784 -0.139078 0.623165 0.165377 -0.764406 0.758881 0.254733 -0.599343 
0.66401 0.489054 -0.565612 0.70202 0.416453 -0.577698 -0.419584 -0.599279 -0.681773 
-0.576905 -0.410178 -0.706353 -0.769578 0.106215 -0.629658 0.541044 0.619598 -0.568656 