# vtk DataFile Version 4.2
vtk output
ASCII
DATASET POLYDATA
POINTS 372 float
243.236 194.22 208.007 241.65 195.649 207.537 242.852 195.231 207.757 
243.495 194.467 207.995 243.509 194.992 207.988 243.915 194.47 208.184 
244.425 195.011 208.549 244.452 195.47 208.715 238.689 196.935 207.848 
241.062 196.969 207.485 242.341 196.542 207.742 243.081 196.497 208.105 
238.878 198.291 207.622 238.388 200.338 207.835 238.447 201.276 208.094 
240.536 200.923 208.502 239.142 201.673 208.314 239.387 202.134 208.638 
241.315 193.543 208.586 243.544 193.169 208.763 244.692 194.084 208.77 
245.14 193.906 209.291 238.658 194.918 208.63 245.137 195.159 209.547 
237.102 199.267 208.496 238.596 202.865 208.98 240.962 192.455 210.034 
244.63 192.146 209.976 245.119 192.362 209.882 245.198 193.11 209.532 
245.574 192.993 209.9 237.985 194.616 209.433 245.653 193.401 210.058 
245.404 195.243 210.234 236.576 196.781 209.522 236.084 201.788 209.652 
240.634 201.876 209.244 237.99 204.157 209.918 244.988 191.811 210.516 
245.69 192.48 210.235 245.77 194.042 210.394 235.662 196.893 210.908 
242.739 199.926 210.203 236.291 203.323 210.106 239.652 203.621 210.089 
238.147 204.82 210.65 237.873 204.957 210.805 238.694 204.695 210.743 
245.456 191.88 210.714 245.186 191.545 211.162 245.779 192.031 210.852 
246.018 192.048 211.307 234.473 201.213 211.386 235.633 204.515 211.433 
239.99 204.298 211.465 237.843 205.714 211.882 238.237 205.64 211.679 
238.38 205.561 211.589 246.153 191.895 211.742 246.139 191.757 211.874 
246.191 191.851 212.001 246.35 192.839 212.145 246.206 193.992 211.996 
235.555 196.195 212.138 235.559 205.443 212.353 238.423 205.63 211.819 
237.749 206.457 212.984 246.138 191.795 212.502 246.478 193.283 213.052 
236.571 206.383 212.98 237.121 207.185 214.063 245.124 190.597 214.059 
243.546 189.778 215.73 246.207 194.809 214.654 233.052 205.704 214.867 
240.193 205.913 215.088 239.09 206.746 214.801 244.723 189.76 216.294 
241.683 189.951 216.433 241.117 190.257 216.016 246.086 190.893 216.03 
237.452 193 215.659 233.225 207.502 216.009 234.86 208.645 216.266 
237.014 208.765 216.508 245.337 189.868 216.872 245.518 189.852 217.481 
245.753 190.237 216.892 230.735 204.074 217.323 237.99 208.842 217.332 
243.66 189.163 218.77 240.959 205.901 217.318 239.104 208.207 217.648 
231.884 208.716 218.278 232.584 209.618 218.613 231.177 199.778 219.12 
229.747 202.313 219.565 230.436 206.722 218.851 234.25 211.52 220.267 
244.745 189.181 219.955 244.041 199.519 220.128 231.09 208.676 219.471 
239.137 209.29 219.594 232.708 210.777 220.349 241.267 189.59 220.872 
246.023 189.576 221.319 246.993 193.707 220.389 245.35 197.117 220.359 
229.347 206.176 221.764 243.048 188.869 222.683 243.945 188.879 222.29 
246.644 189.875 222.058 247.504 190.732 222.512 241.475 205.178 221.286 
229.563 207.123 222.548 236.381 212.339 221.724 237.584 211.933 221.919 
235.175 212.658 222.669 243.092 188.702 223.882 245.446 189.129 222.633 
246.156 189.336 223.322 248.486 191.588 224.218 229.28 202.932 222.348 
240.728 202.968 223.651 229.148 204.34 222.73 240.66 204.544 223.169 
240.248 208.39 222.416 230.59 209.148 222.942 239.426 210.166 222.395 
233.031 211.641 223.482 234.322 212.412 222.991 236.404 213.026 223.612 
243.64 188.636 224.834 247.436 190.105 223.848 241.645 200.938 223.987 
240.166 207.946 223.368 239.307 210.728 224.06 235.963 213.1 224.357 
236.873 213.016 224.023 242.162 188.968 225.244 244.881 188.78 225.004 
246.276 189.186 225.268 249.189 191.83 225.905 239.055 203.109 225.676 
238.9 204.839 225.408 238.74 205.902 225.944 239.498 208.512 225.51 
238.386 212.141 224.223 236.244 213.143 224.725 237.331 212.871 224.03 
242.77 188.757 225.544 243.468 188.654 226.161 249.309 191.469 226.479 
249.357 191.858 226.483 229.769 202.385 225.502 239.057 202.71 226.311 
238.662 203.882 225.948 234.619 212.634 226.083 248.141 190.119 227.107 
248.987 190.917 226.775 249.278 191.28 226.797 249.478 191.759 226.874 
249.481 191.671 227.12 249.445 191.935 227.076 238.443 204.361 226.68 
239.301 210.983 226.96 238.656 212.051 226.593 237.561 212.852 225.869 
249.449 191.786 227.39 249.413 191.955 227.437 248.767 193.199 227.585 
238.587 203.558 227.82 230.101 206.461 227.778 249.284 191.83 227.849 
238.666 203.682 228.779 238.827 203.382 229.059 238.557 204.886 228.705 
239.511 210.314 228.724 233.099 211.684 229.803 239.021 211.676 229.11 
248.337 190.403 228.841 248.622 190.865 228.997 248.965 191.866 229.162 
248.8 192.11 229.593 248.833 191.666 229.505 241.507 200.26 229.826 
239.348 202.806 229.621 229.456 204.282 230.132 239.329 207.914 229.112 
239.588 208.957 229.2 239.679 209.535 229.733 232.387 211.093 230.41 
234.574 212.582 230.338 236.318 213.03 230.36 248.709 191.306 229.531 
240.599 201.603 230.366 229.306 203.124 231.33 230.206 208.355 231.184 
239.435 210.754 230.636 238.88 211.751 230.894 236.052 212.979 230.68 
237.63 212.69 230.897 237.153 212.831 230.906 243.324 188.667 231.592 
241.628 189.242 231.366 240.524 189.931 232.045 229.667 201.64 231.474 
230.49 208.964 232.091 232.501 211.129 232.057 239.206 211.15 231.568 
238.332 212.108 231.572 236.451 212.819 231.492 247.75 191.4 232.173 
244.895 197.335 232.533 243.821 198.93 232.945 241.452 201.89 231.732 
241.141 205.241 232.807 229.584 207.093 233.7 239.002 210.959 232.668 
234.291 212.107 232.711 243.292 188.986 233.869 246.408 189.787 233.05 
247.255 191.388 233.703 247.202 190.939 233.486 241.237 205.879 233.809 
231.031 209.384 233.986 232.203 210.497 234.177 235.014 212.002 233.603 
241.711 189.468 235.177 244.632 189.12 234.314 245.303 189.298 233.965 
246.987 190.551 233.459 230.253 200.621 234.462 229.799 207.133 234.96 
240.09 208.447 234.335 239.156 209.454 234.987 237.479 210.745 235.034 
233.414 211.044 234.783 233.96 211.259 234.865 243.139 189.183 235.867 
243.816 189.139 235.538 245.669 189.793 235.394 246.769 191.493 235.639 
246.828 192.096 236.024 246.553 194.057 236.115 229.671 202.524 235.259 
229.845 206.342 235.791 238.35 209.405 236.288 233.092 210.425 235.684 
236.251 210.812 235.775 244.371 189.289 236.126 245.025 189.483 235.822 
246.073 190.298 235.886 242.988 202.331 236.973 229.699 205.369 235.901 
240.612 206.62 237.068 235.152 211.034 235.662 243.744 189.324 237.184 
245.309 189.891 237.16 241.704 189.933 238.438 246.544 191.556 237.525 
234.12 196.57 237.819 230.896 205.788 237.715 231.154 206.716 237.642 
231.302 207.591 237.27 232.792 208.794 237.552 233.32 209.739 236.877 
236.305 209.542 237.726 242.927 189.479 238.037 243.32 189.47 238.141 
244.358 189.515 237.552 245.32 190.117 237.96 245.933 190.678 237.99 
246.307 191.161 238.035 246.376 191.718 238.881 232.771 207.5 238.773 
234.998 208.593 239.103 242.315 190.055 239.885 246.328 191.834 240.455 
246.465 192.284 240.594 233.531 207.776 239.149 234.673 207.712 240.025 
245.559 190.915 240.545 246.508 193.009 241.319 233.861 197.826 240.512 
241.773 203.493 240.683 235.619 207.67 240.536 237.97 207.464 240.433 
237.036 207.704 240.538 244.487 190.392 240.679 240.646 191.2 242.013 
246.044 191.558 241.656 246.321 192.026 241.957 246.429 192.402 241.994 
237.769 193.215 241.891 236.245 194.917 242.211 233.276 199.882 241.443 
241.166 203.991 241.709 236.347 207.288 241.245 238.117 206.743 241.673 
244.012 190.774 242.315 245.416 191.236 242.347 246.222 191.851 242.603 
246.312 192.354 242.564 246.22 191.997 242.739 234.599 204.499 242.788 
239.69 205.14 242.911 236.832 206.319 242.511 237.426 206.349 242.552 
238.423 205.833 243.103 237.702 206.616 242.108 241.565 191.453 243.673 
245.738 191.601 242.784 246.095 191.83 242.759 245.968 192.113 243.198 
238.732 205.472 243.595 238.544 205.575 243.636 242.427 191.55 244.234 
244.722 191.642 243.961 245.59 192.182 243.876 245.942 193.282 244.062 
235.202 197.726 244.041 236.234 204.013 244.465 239.762 203.98 244.599 
237.912 205.041 244.241 238.755 205.041 244.107 245.083 192.39 244.717 
244.873 192.636 245.091 245.438 192.454 244.404 239.685 193.485 245.741 
245.568 192.831 244.58 238.044 194.689 245.52 245.406 193.612 245.026 
244.236 197.255 245.183 235.739 198.752 245.242 235.402 201.442 244.888 
236.203 203.115 245.089 236.838 203.221 245.478 237.594 204.185 245.086 
242.701 192.622 245.726 243.977 193.392 246.245 245.396 193.115 244.938 
237.659 195.821 246.07 244.112 196.335 246.133 242.776 198.946 245.831 
241.13 201.231 245.901 237.423 201.466 246.507 240.802 201.839 245.783 
238.068 202.496 246.281 238.905 203.434 245.602 241.482 193.535 246.478 
243.225 194.286 246.936 244.157 194.352 246.567 244.532 194.44 246.287 
244.334 195.216 246.413 238.32 197.327 246.987 243.563 196.712 246.423 
238.284 201.3 246.818 239.969 201.873 246.319 238.887 202.233 246.46 
239.581 202.42 246.188 238.416 203.257 245.845 239.136 202.643 246.171 
241.202 194.828 247.07 243.851 194.728 246.773 240.27 196.431 247.326 
243.041 195.434 247.037 239.387 198.313 247.401 240.054 198.071 247.43 
238.483 200.118 247.153 240.287 199.343 247.208 239.605 201.142 246.783 

POLYGONS 740 2960
3 2 0 1 
3 3 0 4 
3 4 0 2 
3 3 4 5 
3 9 1 8 
3 2 1 10 
3 5 4 7 
3 7 4 2 
3 7 20 6 
3 7 6 5 
3 10 1 9 
3 2 10 11 
3 11 7 2 
3 12 9 8 
3 9 11 10 
3 9 12 16 
3 11 9 16 
3 13 14 16 
3 13 16 12 
3 11 16 15 
3 14 25 16 
3 16 25 17 
3 0 19 18 
3 1 18 22 
3 1 0 18 
3 20 0 5 
3 0 20 21 
3 0 3 5 
3 6 20 5 
3 21 20 23 
3 22 8 1 
3 20 7 23 
3 24 8 22 
3 15 7 11 
3 12 8 24 
3 43 12 24 
3 12 43 13 
3 43 14 13 
3 16 36 15 
3 14 43 25 
3 36 16 17 
3 25 36 17 
3 19 0 27 
3 26 19 27 
3 0 28 27 
3 19 26 18 
3 39 28 29 
3 29 28 0 
3 29 30 39 
3 31 22 18 
3 26 31 18 
3 32 30 29 
3 32 29 21 
3 0 21 29 
3 39 30 32 
3 33 21 23 
3 24 22 34 
3 24 34 35 
3 35 43 24 
3 15 36 42 
3 44 36 25 
3 25 43 37 
3 25 37 44 
3 26 27 49 
3 49 27 38 
3 27 28 39 
3 27 39 38 
3 32 40 39 
3 21 40 32 
3 34 22 31 
3 40 21 33 
3 33 23 7 
3 33 7 15 
3 34 52 35 
3 43 35 52 
3 44 42 36 
3 37 43 46 
3 37 46 45 
3 37 45 47 
3 37 47 44 
3 47 45 46 
3 38 48 49 
3 48 50 51 
3 49 48 51 
3 38 39 48 
3 50 48 39 
3 51 50 39 
3 63 41 34 
3 34 41 52 
3 33 15 42 
3 88 43 52 
3 53 43 88 
3 43 53 46 
3 44 47 54 
3 53 64 46 
3 55 46 64 
3 57 55 56 
3 46 55 57 
3 46 57 47 
3 49 72 26 
3 49 71 72 
3 51 58 59 
3 51 59 49 
3 51 39 58 
3 59 58 60 
3 58 39 61 
3 39 62 61 
3 40 62 39 
3 34 31 63 
3 62 40 33 
3 42 44 54 
3 55 64 66 
3 66 65 55 
3 56 55 65 
3 57 65 47 
3 56 65 57 
3 49 59 71 
3 26 79 31 
3 60 67 59 
3 60 58 67 
3 58 61 67 
3 67 61 68 
3 61 73 68 
3 62 73 61 
3 73 62 33 
3 41 63 52 
3 42 54 33 
3 74 53 88 
3 53 74 64 
3 47 65 54 
3 64 69 66 
3 66 54 65 
3 64 70 69 
3 66 69 70 
3 79 26 72 
3 71 67 80 
3 71 59 67 
3 79 81 31 
3 31 81 63 
3 54 91 33 
3 91 54 75 
3 64 83 70 
3 66 70 76 
3 71 77 72 
3 67 68 80 
3 74 83 64 
3 54 66 75 
3 66 76 75 
3 84 70 83 
3 72 77 85 
3 79 72 78 
3 71 80 77 
3 68 73 106 
3 73 33 107 
3 52 95 88 
3 74 88 82 
3 74 82 83 
3 85 87 86 
3 85 77 87 
3 77 80 87 
3 86 87 80 
3 79 78 81 
3 80 68 112 
3 80 112 86 
3 68 106 112 
3 73 107 106 
3 100 33 91 
3 91 75 76 
3 92 91 76 
3 88 93 82 
3 70 92 76 
3 93 83 82 
3 92 70 84 
3 89 92 84 
3 93 94 83 
3 90 72 85 
3 90 78 72 
3 63 81 95 
3 63 95 52 
3 33 100 107 
3 96 88 95 
3 88 97 93 
3 117 84 83 
3 90 99 104 
3 78 90 104 
3 86 105 85 
3 105 86 112 
3 104 81 78 
3 97 88 96 
3 108 97 96 
3 91 92 126 
3 93 97 101 
3 89 102 92 
3 102 126 92 
3 93 101 94 
3 102 89 84 
3 94 101 103 
3 103 83 94 
3 115 84 117 
3 115 102 84 
3 98 83 103 
3 83 98 117 
3 85 99 90 
3 99 85 105 
3 113 91 126 
3 108 101 97 
3 98 103 117 
3 100 91 113 
3 127 101 108 
3 102 115 116 
3 99 110 104 
3 104 110 109 
3 99 105 110 
3 112 111 105 
3 95 154 96 
3 185 107 100 
3 96 122 108 
3 108 114 127 
3 102 116 128 
3 103 101 129 
3 104 139 81 
3 104 109 139 
3 118 109 119 
3 109 110 119 
3 105 119 110 
3 119 105 111 
3 120 119 111 
3 111 112 120 
3 106 107 170 
3 96 154 122 
3 125 123 134 
3 100 125 134 
3 100 113 125 
3 122 124 108 
3 124 114 108 
3 113 135 125 
3 135 113 126 
3 102 128 126 
3 103 129 130 
3 117 103 130 
3 117 130 131 
3 115 117 131 
3 115 131 149 
3 116 115 149 
3 139 109 118 
3 119 132 118 
3 119 140 132 
3 119 120 140 
3 112 133 120 
3 133 112 121 
3 121 112 106 
3 107 185 170 
3 134 185 100 
3 134 143 185 
3 143 134 123 
3 144 143 123 
3 123 125 144 
3 127 129 101 
3 126 128 135 
3 135 128 136 
3 116 136 128 
3 130 129 137 
3 149 147 116 
3 147 136 116 
3 131 130 137 
3 131 137 138 
3 118 132 139 
3 132 140 150 
3 140 120 133 
3 141 140 133 
3 121 106 142 
3 155 185 143 
3 144 156 143 
3 154 124 122 
3 164 156 144 
3 154 114 124 
3 145 164 144 
3 125 145 144 
3 145 125 146 
3 135 165 146 
3 135 146 125 
3 135 136 165 
3 157 129 127 
3 129 157 137 
3 137 148 138 
3 149 131 138 
3 149 138 148 
3 139 132 150 
3 151 139 150 
3 140 151 150 
3 140 141 151 
3 133 159 141 
3 133 121 159 
3 142 153 121 
3 121 153 152 
3 142 106 163 
3 153 142 163 
3 95 81 232 
3 146 176 145 
3 136 167 166 
3 147 167 136 
3 166 165 136 
3 148 137 157 
3 149 167 147 
3 148 167 149 
3 159 158 141 
3 152 162 160 
3 152 160 121 
3 121 160 159 
3 162 153 161 
3 152 153 162 
3 153 163 161 
3 162 161 163 
3 232 154 95 
3 155 143 156 
3 171 155 156 
3 164 171 156 
3 172 154 187 
3 145 176 164 
3 154 172 114 
3 172 127 114 
3 127 178 157 
3 127 172 178 
3 148 193 167 
3 157 193 148 
3 159 160 158 
3 168 162 163 
3 169 168 163 
3 163 170 169 
3 106 170 163 
3 232 81 139 
3 155 175 185 
3 155 171 175 
3 177 176 146 
3 177 146 165 
3 177 165 166 
3 157 178 192 
3 157 192 193 
3 160 181 158 
3 160 162 181 
3 182 181 173 
3 162 168 173 
3 181 162 173 
3 173 183 182 
3 168 169 173 
3 173 170 183 
3 173 169 170 
3 232 206 154 
3 187 154 206 
3 171 164 174 
3 171 174 175 
3 174 164 176 
3 197 172 187 
3 176 177 188 
3 172 197 178 
3 177 166 179 
3 201 167 193 
3 179 166 167 
3 201 179 167 
3 141 230 151 
3 151 230 203 
3 139 151 204 
3 141 158 230 
3 180 158 181 
3 182 183 184 
3 185 213 170 
3 195 175 186 
3 175 174 186 
3 188 177 189 
3 189 177 190 
3 191 178 197 
3 190 177 179 
3 221 158 180 
3 181 194 221 
3 181 221 180 
3 181 182 194 
3 205 139 204 
3 184 183 194 
3 182 184 194 
3 232 139 261 
3 195 185 175 
3 187 206 196 
3 174 176 186 
3 187 217 197 
3 189 190 188 
3 208 191 197 
3 190 179 198 
3 199 209 198 
3 199 198 179 
3 191 208 192 
3 178 191 192 
3 199 179 210 
3 193 192 200 
3 179 201 210 
3 193 200 202 
3 202 201 193 
3 203 204 151 
3 230 158 221 
3 212 221 194 
3 183 212 194 
3 261 139 205 
3 185 195 215 
3 195 186 216 
3 186 176 216 
3 196 217 187 
3 176 188 216 
3 225 197 217 
3 197 225 207 
3 198 218 190 
3 207 208 197 
3 218 198 209 
3 199 210 209 
3 192 208 219 
3 200 192 227 
3 192 219 227 
3 227 211 200 
3 202 200 211 
3 211 201 202 
3 204 203 205 
3 214 213 185 
3 195 216 215 
3 196 206 217 
3 207 225 226 
3 226 208 207 
3 208 226 237 
3 209 210 218 
3 208 237 219 
3 227 210 211 
3 210 201 211 
3 203 220 205 
3 230 220 203 
3 212 222 223 
3 212 183 222 
3 183 244 222 
3 183 170 244 
3 170 213 244 
3 185 253 214 
3 185 215 253 
3 253 215 224 
3 216 224 215 
3 216 188 224 
3 188 190 224 
3 224 190 234 
3 218 234 190 
3 219 237 227 
3 228 205 220 
3 220 240 228 
3 220 229 240 
3 220 230 229 
3 221 231 230 
3 212 231 221 
3 223 222 231 
3 212 223 231 
3 206 245 217 
3 234 255 224 
3 233 225 217 
3 233 264 225 
3 266 225 264 
3 234 218 235 
3 226 225 266 
3 218 236 235 
3 226 248 237 
3 236 218 256 
3 237 238 227 
3 227 256 210 
3 218 210 256 
3 240 239 228 
3 230 241 229 
3 229 241 240 
3 230 252 241 
3 231 252 230 
3 242 252 231 
3 231 222 242 
3 222 244 242 
3 242 244 243 
3 261 245 232 
3 213 214 244 
3 232 245 206 
3 245 254 217 
3 254 246 217 
3 246 233 217 
3 234 247 255 
3 234 235 247 
3 266 248 226 
3 235 236 249 
3 238 237 256 
3 237 248 256 
3 236 256 249 
3 238 256 227 
3 228 239 268 
3 240 250 239 
3 239 250 268 
3 241 251 240 
3 240 251 250 
3 241 252 251 
3 242 243 252 
3 243 244 283 
3 333 244 214 
3 246 264 233 
3 246 254 264 
3 235 267 247 
3 266 256 248 
3 256 267 249 
3 267 235 249 
3 250 257 268 
3 251 258 250 
3 250 258 257 
3 228 268 259 
3 251 272 258 
3 252 272 251 
3 260 272 252 
3 259 205 228 
3 259 261 205 
3 243 260 252 
3 261 259 295 
3 283 244 333 
3 245 262 254 
3 262 245 335 
3 224 306 253 
3 262 264 254 
3 255 306 224 
3 262 263 264 
3 255 247 306 
3 266 264 265 
3 269 268 257 
3 257 270 269 
3 258 270 257 
3 269 259 268 
3 258 271 270 
3 258 272 271 
3 273 272 260 
3 260 243 274 
3 243 279 274 
3 243 283 279 
3 333 214 253 
3 262 275 263 
3 247 287 306 
3 264 263 265 
3 265 263 275 
3 275 276 265 
3 288 247 267 
3 266 265 276 
3 288 266 276 
3 288 256 266 
3 267 256 288 
3 269 277 259 
3 270 277 269 
3 272 273 271 
3 278 282 274 
3 260 274 273 
3 273 274 282 
3 274 279 278 
3 261 295 284 
3 296 261 284 
3 296 245 261 
3 262 281 280 
3 262 280 275 
3 276 275 280 
3 281 276 280 
3 276 281 288 
3 287 247 288 
3 270 289 277 
3 271 289 270 
3 273 282 271 
3 271 282 289 
3 259 277 290 
3 278 279 283 
3 253 306 285 
3 335 305 262 
3 262 305 281 
3 281 305 286 
3 299 306 287 
3 281 286 288 
3 282 300 289 
3 277 289 290 
3 282 301 300 
3 282 278 301 
3 278 291 301 
3 292 291 278 
3 278 283 292 
3 292 283 293 
3 290 294 259 
3 311 294 290 
3 294 295 259 
3 295 321 284 
3 284 334 296 
3 334 284 321 
3 333 253 285 
3 245 296 335 
3 306 297 285 
3 286 305 298 
3 287 298 299 
3 286 298 288 
3 298 287 288 
3 289 311 290 
3 300 311 289 
3 292 302 291 
3 291 302 301 
3 302 303 304 
3 302 292 303 
3 292 293 303 
3 331 295 294 
3 303 293 283 
3 320 303 283 
3 283 333 320 
3 285 323 333 
3 297 323 285 
3 297 306 323 
3 298 307 310 
3 305 307 298 
3 307 308 310 
3 315 306 299 
3 309 315 299 
3 298 310 299 
3 300 317 311 
3 301 312 300 
3 313 314 312 
3 313 312 302 
3 302 312 301 
3 304 314 313 
3 304 303 314 
3 302 304 313 
3 311 331 294 
3 331 342 295 
3 295 342 321 
3 296 334 335 
3 333 323 345 
3 322 305 335 
3 306 325 323 
3 305 322 307 
3 306 315 325 
3 308 307 309 
3 308 309 299 
3 309 316 315 
3 299 310 308 
3 300 318 317 
3 300 312 319 
3 318 300 319 
3 312 314 319 
3 319 314 320 
3 320 314 303 
3 344 333 345 
3 323 347 345 
3 336 322 335 
3 338 322 336 
3 338 324 322 
3 324 307 322 
3 324 309 307 
3 309 324 316 
3 316 324 325 
3 316 325 315 
3 339 329 311 
3 317 339 311 
3 318 326 317 
3 318 319 328 
3 326 318 328 
3 319 320 328 
3 326 341 327 
3 328 341 326 
3 330 341 328 
3 330 328 320 
3 329 331 311 
3 332 330 320 
3 320 333 353 
3 353 332 320 
3 338 336 337 
3 338 325 324 
3 317 326 340 
3 339 317 340 
3 340 326 327 
3 339 350 329 
3 327 353 340 
3 332 353 327 
3 332 327 341 
3 330 332 341 
3 353 343 354 
3 333 343 353 
3 342 334 321 
3 333 356 343 
3 356 333 344 
3 335 334 346 
3 346 337 335 
3 335 337 336 
3 348 337 346 
3 337 348 361 
3 347 349 362 
3 323 349 347 
3 362 360 347 
3 338 337 361 
3 338 361 349 
3 338 349 325 
3 325 349 323 
3 339 340 351 
3 350 339 351 
3 340 364 351 
3 352 364 340 
3 353 352 340 
3 355 342 331 
3 342 355 334 
3 355 369 334 
3 344 345 370 
3 369 346 334 
3 357 346 369 
3 347 358 371 
3 371 345 347 
3 346 359 348 
3 346 357 359 
3 347 360 358 
3 349 348 362 
3 349 361 348 
3 359 362 348 
3 350 363 329 
3 350 351 363 
3 329 355 331 
3 355 329 363 
3 351 366 363 
3 352 353 354 
3 364 352 354 
3 363 365 355 
3 364 366 351 
3 365 368 355 
3 363 370 365 
3 370 368 365 
3 343 356 366 
3 343 366 364 
3 354 343 364 
3 368 367 355 
3 344 370 366 
3 366 370 363 
3 356 344 366 
3 355 367 369 
3 368 370 367 
3 370 369 367 
3 369 359 357 
3 370 371 369 
3 371 359 369 
3 345 371 370 
3 358 360 359 
3 371 358 359 
3 360 362 359 

POINT_DATA 372
COLOR_SCALARS scalars 3
1 0.564706 0.623529 1 0.564706 0.623529 1 0.564706 0.623529 
1 0.564706 0.623529 1 0.564706 0.623529 
1 0.564706 0.623529 1 0.564706 0.623529 
1 0.564706 0.623529 1 0.564706 0.623529 
1 0.564706 0.623529 1 0.564706 0.623529 
1 0.564706 0.623529 1 0.564706 0.623529 
1 0.564706 0.623529 1 0.564706 0.623529 
1 0.564706 0.623529 1 0.564706 0.623529 
1 0.564706 0.623529 1 0.564706 0.623529 
1 0.564706 0.623529 1 0.564706 0.623529 
1 0.564706 0.623529 1 0.564706 0.623529 
1 0.564706 0.623529 1 0.564706 0.623529 
1 0.564706 0.623529 1 0.564706 0.623529 
1 0.564706 0.623529 1 0.564706 0.623529 
1 0.564706 0.623529 1 0.564706 0.623529 
1 0.564706 0.623529 1 0.564706 0.623529 
1 0.564706 0.623529 1 0.564706 0.623529 
1 0.564706 0.623529 1 0.564706 0.623529 
1 0.564706 0.623529 1 0.564706 0.623529 
1 0.564706 0.623529 1 0.564706 0.623529 
1 0.564706 0.623529 1 0.564706 0.623529 
1 0.564706 0.623529 1 0.564706 0.623529 
1 0.564706 0.623529 1 0.564706 0.623529 
1 0.564706 0.623529 1 0.564706 0.623529 
1 0.564706 0.623529 1 0.564706 0.623529 
1 0.564706 0.623529 1 0.564706 0.623529 
1 0.564706 0.623529 1 0.564706 0.623529 
1 0.564706 0.623529 1 0.564706 0.623529 
1 0.564706 0.623529 1 0.564706 0.623529 
1 0.564706 0.623529 1 0.564706 0.623529 
1 0.564706 0.623529 1 0.564706 0.623529 
1 0.564706 0.623529 1 0.564706 0.623529 
1 0.564706 0.623529 1 0.564706 0.623529 
1 0.564706 0.623529 1 0.564706 0.623529 
1 0.564706 0.623529 1 0.564706 0.623529 
1 0.564706 0.623529 1 0.564706 0.623529 
1 0.564706 0.623529 1 0.564706 0.623529 
1 0.564706 0.623529 1 0.564706 0.623529 
1 0.564706 0.623529 1 0.564706 0.623529 
1 0.564706 0.623529 1 0.564706 0.623529 
1 0.564706 0.623529 1 0.564706 0.623529 
1 0.564706 0.623529 1 0.564706 0.623529 
1 0.564706 0.623529 1 0.564706 0.623529 
1 0.564706 0.623529 1 0.564706 0.623529 
1 0.564706 0.623529 1 0.564706 0.623529 
1 0.564706 0.623529 1 0.564706 0.623529 
1 0.564706 0.623529 1 0.564706 0.623529 
1 0.564706 0.623529 1 0.564706 0.623529 
1 0.564706 0.623529 1 0.564706 0.623529 
1 0.564706 0.623529 1 0.564706 0.623529 
1 0.564706 0.623529 1 0.564706 0.623529 
1 0.564706 0.623529 1 0.564706 0.623529 
1 0.564706 0.623529 1 0.564706 0.623529 
1 0.564706 0.623529 1 0.564706 0.623529 
1 0.564706 0.623529 1 0.564706 0.623529 
1 0.564706 0.623529 1 0.564706 0.623529 
1 0.564706 0.623529 1 0.564706 0.623529 
1 0.564706 0.623529 1 0.564706 0.623529 
1 0.564706 0.623529 1 0.564706 0.623529 
1 0.564706 0.623529 1 0.564706 0.623529 
1 0.564706 0.623529 1 0.564706 0.623529 
1 0.564706 0.623529 1 0.564706 0.623529 
1 0.564706 0.623529 1 0.564706 0.623529 
1 0.564706 0.623529 1 0.564706 0.623529 
1 0.564706 0.623529 1 0.564706 0.623529 
1 0.564706 0.623529 1 0.564706 0.623529 
1 0.564706 0.623529 1 0.564706 0.623529 
1 0.564706 0.623529 1 0.564706 0.623529 
1 0.564706 0.623529 1 0.564706 0.623529 
1 0.564706 0.623529 1 0.564706 0.623529 
1 0.564706 0.623529 1 0.564706 0.623529 
1 0.564706 0.623529 1 0.564706 0.623529 
1 0.564706 0.623529 1 0.564706 0.623529 
1 0.564706 0.623529 1 0.564706 0.623529 
1 0.564706 0.623529 1 0.564706 0.623529 
1 0.564706 0.623529 1 0.564706 0.623529 
1 0.564706 0.623529 1 0.564706 0.623529 
1 0.564706 0.623529 1 0.564706 0.623529 
1 0.564706 0.623529 1 0.564706 0.623529 
1 0.564706 0.623529 1 0.564706 0.623529 
1 0.564706 0.623529 1 0.564706 0.623529 
1 0.564706 0.623529 1 0.564706 0.623529 
1 0.564706 0.623529 1 0.564706 0.623529 
1 0.564706 0.623529 1 0.564706 0.623529 
1 0.564706 0.623529 1 0.564706 0.623529 
1 0.564706 0.623529 1 0.564706 0.623529 
1 0.564706 0.623529 1 0.564706 0.623529 
1 0.564706 0.623529 1 0.564706 0.623529 
1 0.564706 0.623529 1 0.564706 0.623529 
1 0.564706 0.623529 1 0.564706 0.623529 
1 0.564706 0.623529 1 0.564706 0.623529 
1 0.564706 0.623529 1 0.564706 0.623529 
1 0.564706 0.623529 1 0.564706 0.623529 
1 0.564706 0.623529 1 0.564706 0.623529 
1 0.564706 0.623529 1 0.564706 0.623529 
1 0.564706 0.623529 1 0.564706 0.623529 
1 0.564706 0.623529 1 0.564706 0.623529 
1 0.564706 0.623529 1 0.564706 0.623529 
1 0.564706 0.623529 1 0.564706 0.623529 
1 0.564706 0.623529 1 0.564706 0.623529 
1 0.564706 0.623529 1 0.564706 0.623529 
1 0.564706 0.623529 1 0.564706 0.623529 
1 0.564706 0.623529 1 0.564706 0.623529 
1 0.564706 0.623529 1 0.564706 0.623529 
1 0.564706 0.623529 1 0.564706 0.623529 
1 0.564706 0.623529 1 0.564706 0.623529 
1 0.564706 0.623529 1 0.564706 0.623529 
1 0.564706 0.623529 1 0.564706 0.623529 
1 0.564706 0.623529 1 0.564706 0.623529 
1 0.564706 0.623529 1 0.564706 0.623529 
1 0.564706 0.623529 1 0.564706 0.623529 
1 0.564706 0.623529 1 0.564706 0.623529 
1 0.564706 0.623529 1 0.564706 0.623529 
1 0.564706 0.623529 1 0.564706 0.623529 
1 0.564706 0.623529 1 0.564706 0.623529 
1 0.564706 0.623529 1 0.564706 0.623529 
1 0.564706 0.623529 1 0.564706 0.623529 
1 0.564706 0.623529 1 0.564706 0.623529 
1 0.564706 0.623529 1 0.564706 0.623529 
1 0.564706 0.623529 1 0.564706 0.623529 
1 0.564706 0.623529 1 0.564706 0.623529 
1 0.564706 0.623529 1 0.564706 0.623529 
1 0.564706 0.623529 1 0.564706 0.623529 
1 0.564706 0.623529 1 0.564706 0.623529 
1 0.564706 0.623529 1 0.564706 0.623529 
1 0.564706 0.623529 1 0.564706 0.623529 
1 0.564706 0.623529 1 0.564706 0.623529 
1 0.564706 0.623529 1 0.564706 0.623529 
1 0.564706 0.623529 1 0.564706 0.623529 
1 0.564706 0.623529 1 0.564706 0.623529 
1 0.564706 0.623529 1 0.564706 0.623529 
1 0.564706 0.623529 1 0.564706 0.623529 
1 0.564706 0.623529 1 0.564706 0.623529 
1 0.564706 0.623529 1 0.564706 0.623529 
1 0.564706 0.623529 1 0.564706 0.623529 
1 0.564706 0.623529 1 0.564706 0.623529 
1 0.564706 0.623529 1 0.564706 0.623529 
1 0.564706 0.623529 1 0.564706 0.623529 
1 0.564706 0.623529 1 0.564706 0.623529 
1 0.564706 0.623529 1 0.564706 0.623529 
1 0.564706 0.623529 1 0.564706 0.623529 
1 0.564706 0.623529 1 0.564706 0.623529 
1 0.564706 0.623529 1 0.564706 0.623529 
1 0.564706 0.623529 1 0.564706 0.623529 
1 0.564706 0.623529 1 0.564706 0.623529 
1 0.564706 0.623529 1 0.564706 0.623529 
1 0.564706 0.623529 1 0.564706 0.623529 
1 0.564706 0.623529 1 0.564706 0.623529 
1 0.564706 0.623529 1 0.564706 0.623529 
1 0.564706 0.623529 1 0.564706 0.623529 
1 0.564706 0.623529 1 0.564706 0.623529 
1 0.564706 0.623529 1 0.564706 0.623529 
1 0.564706 0.623529 1 0.564706 0.623529 
1 0.564706 0.623529 1 0.564706 0.623529 
1 0.564706 0.623529 1 0.564706 0.623529 
1 0.564706 0.623529 1 0.564706 0.623529 
1 0.564706 0.623529 1 0.564706 0.623529 
1 0.564706 0.623529 1 0.564706 0.623529 
1 0.564706 0.623529 1 0.564706 0.623529 
1 0.564706 0.623529 1 0.564706 0.623529 
1 0.564706 0.623529 1 0.564706 0.623529 
1 0.564706 0.623529 1 0.564706 0.623529 
1 0.564706 0.623529 1 0.564706 0.623529 
1 0.564706 0.623529 1 0.564706 0.623529 
1 0.564706 0.623529 1 0.564706 0.623529 
1 0.564706 0.623529 1 0.564706 0.623529 
1 0.564706 0.623529 1 0.564706 0.623529 
1 0.564706 0.623529 1 0.564706 0.623529 
1 0.564706 0.623529 1 0.564706 0.623529 
1 0.564706 0.623529 1 0.564706 0.623529 
1 0.564706 0.623529 1 0.564706 0.623529 
1 0.564706 0.623529 1 0.564706 0.623529 
1 0.564706 0.623529 1 0.564706 0.623529 
1 0.564706 0.623529 1 0.564706 0.623529 
1 0.564706 0.623529 1 0.564706 0.623529 
1 0.564706 0.623529 1 0.564706 0.623529 
1 0.564706 0.623529 1 0.564706 0.623529 
1 0.564706 0.623529 1 0.564706 0.623529 
1 0.564706 0.623529 1 0.564706 0.623529 
1 0.564706 0.623529 1 0.564706 0.623529 
1 0.564706 0.623529 1 0.564706 0.623529 
1 0.564706 0.623529 1 0.564706 0.623529 
1 0.564706 0.623529 1 0.564706 0.623529 
1 0.564706 0.623529 1 0.564706 0.623529 
1 0.564706 0.623529 1 0.564706 0.623529 
1 0.564706 0.623529 
NORMALS Normals float
0.232237 -0.427839 -0.87351 -0.0313102 -0.201637 -0.97896 0.337572 0.0765086 -0.938185 
0.260689 -0.162678 -0.951618 0.344886 0.0752142 -0.935626 0.460788 -0.0867864 -0.883257 
0.621101 0.145219 -0.770159 0.645353 0.324413 -0.691575 -0.347988 -0.193017 -0.917414 
0.120949 0.176437 -0.976853 0.319583 0.254235 -0.912815 0.428376 0.330964 -0.840808 
-0.249845 0.0576138 -0.96657 -0.253566 0.159005 -0.95416 -0.173825 0.387858 -0.90518 
0.576274 0.43087 -0.694449 0.236794 0.344103 -0.908582 0.347633 0.540987 -0.765822 
-0.209511 -0.621082 -0.755223 0.0720911 -0.678235 -0.731301 0.672313 -0.191084 -0.71518 
0.777014 -0.116935 -0.618527 -0.465417 -0.402796 -0.788126 0.828448 0.242932 -0.504637 
-0.538669 -0.00227089 -0.842515 0.0858924 0.583573 -0.807505 -0.214301 -0.85289 -0.476081 
0.104714 -0.810324 -0.57655 0.375523 -0.625551 -0.683863 0.610967 -0.23588 -0.755698 
0.779831 -0.0848943 -0.620207 -0.585575 -0.672729 -0.452258 0.864098 0.0110945 -0.503201 
0.868491 0.423749 -0.257218 -0.739672 -0.293098 -0.605788 -0.672694 0.122659 -0.729683 
0.519519 0.540199 -0.662031 0.0216627 0.674785 -0.737696 0.153884 -0.830657 -0.535097 
0.78917 -0.353875 -0.501979 0.924171 0.103182 -0.367779 -0.848718 -0.348611 -0.397678 
0.758173 0.511916 -0.403876 -0.524397 0.361637 -0.770861 0.486405 0.645432 -0.588921 
0.180513 0.796861 -0.576565 -0.116092 0.766723 -0.631394 0.404341 0.738291 -0.539847 
0.45742 -0.774355 -0.437197 0.167467 -0.913144 -0.371648 0.635562 -0.654356 -0.40973 
0.721469 -0.582515 -0.374378 -0.853014 -0.0622182 -0.518166 -0.567447 0.467721 -0.677673 
0.684227 0.660958 -0.308169 -0.12895 0.804156 -0.580263 0.00521586 0.853691 -0.520754 
0.168794 0.75366 -0.635221 0.974869 -0.0211737 -0.221772 0.759057 -0.610782 -0.225338 
0.996073 0.088004 -0.00971414 0.980658 0.0411881 -0.191345 0.964004 0.168582 -0.205613 
-0.811167 -0.492694 -0.315057 -0.327752 0.715455 -0.617011 0.411183 0.84158 -0.350245 
0.241677 0.809322 -0.535341 0.961446 -0.274757 -0.0114187 0.989813 0.012383 -0.141835 
-0.219159 0.769206 -0.600244 0.0651243 0.857885 -0.509697 0.473876 -0.853926 -0.215065 
-0.0531054 -0.972782 -0.225555 0.912926 0.38804 -0.126454 -0.600673 0.465324 -0.650127 
0.644386 0.676765 -0.356027 0.535422 0.751682 -0.385093 0.38098 -0.897375 -0.222648 
-0.376476 -0.919909 -0.109695 -0.44431 -0.872193 -0.204617 0.832459 -0.542431 -0.113051 
-0.674749 -0.735829 -0.0571775 -0.566138 0.502863 -0.653159 -0.203018 0.751692 -0.627489 
0.207041 0.826423 -0.523602 0.325674 -0.93412 -0.146138 0.738383 -0.672688 -0.0477618 
0.78802 -0.585781 -0.189432 -0.811033 0.136805 -0.56878 0.414079 0.783063 -0.464059 
-0.0267229 -0.992778 -0.116949 0.820943 0.540952 -0.182821 0.623016 0.670071 -0.403554 
-0.627869 0.507592 -0.590026 -0.494694 0.699384 -0.515887 -0.85871 -0.453277 -0.239075 