# vtk DataFile Version 4.2
vtk output
ASCII
DATASET POLYDATA
POINTS 999 float
305.879 25.8555 173.772 308.516 25.549 174.195 307.829 27.8714 173.436 
309.193 29.217 173.69 310.758 29.1265 174.524 307.984 24.7342 174.548 
303.766 25.755 174.014 305.858 24.7497 174.437 294.707 26.5941 174.783 
296.589 26.4968 174.548 298.488 26.6126 174.243 309.427 25.5507 174.714 
296.955 27.2587 174.233 309.641 26.5584 174.416 297.925 27.8854 174.036 
308.625 29.0608 173.528 308.206 32.6426 173.985 309.138 33.3068 174.272 
311.035 32.1533 174.677 309.423 33.7546 174.489 310.35 33.2739 174.486 
311.563 32.6864 175.068 310.959 33.786 174.746 311.494 33.6424 175.167 
310.575 34.2416 174.8 310.52 34.3545 174.999 310.85 34.1617 174.76 
311.285 34.1643 174.831 310.796 34.3172 174.881 311.24 34.2128 174.867 
302.869 24.3653 175.16 305.479 24.2519 174.916 307.115 24.3944 174.754 
297.406 25.1621 175.348 288.584 26.8765 175.749 290.21 26.33 175.864 
294.214 26.5279 174.986 298.119 26.3376 174.372 283.979 27.973 175.89 
285.225 27.261 176.034 295.979 27.407 174.414 283.37 28.6977 175.738 
285.41 28.4863 175.45 289.055 28.5465 175.073 284.384 29.1576 175.42 
285.322 30.6001 175.216 303.925 31.4545 173.757 311.728 30.0416 175.218 
297.88 31.7559 174.343 312.189 31.3976 175.605 291.699 33.15 175.021 
308.446 33.16 174.173 296.536 33.5219 174.927 306.71 33.3636 174.316 
306.373 33.9543 174.726 309.411 34.1239 174.818 311.96 33.395 175.526 
311.861 33.5951 175.536 296.241 34.9483 175.689 297.043 35.1369 175.911 
302.151 34.411 175.304 306.998 34.4158 175.131 310.082 34.4402 175.475 
311.167 34.113 175.527 311.755 33.7473 175.724 297.81 35.1699 176.064 
307.556 34.727 175.555 309.02 34.7048 175.559 308.122 23.5675 176.003 
303.779 23.3589 176.236 288.828 25.571 176.739 283.815 26.9658 176.578 
285.714 26.6845 176.348 311.119 26.3003 176.136 312.199 33.1186 175.772 
290.037 35.32 175.969 296.566 35.1757 175.923 305.481 35.0354 176.238 
307.692 34.9785 176.416 288.744 35.9229 176.418 294.152 35.5762 176.37 
295.377 35.6992 176.737 296.827 35.4497 176.43 301.545 35.164 176.381 
294.203 35.9287 176.828 296.522 24.0559 176.768 298.88 23.5957 176.905 
284.525 26.2091 177.103 277.159 28.2353 177.803 276.892 29.6164 177.174 
275.452 31.294 177.074 313.109 31.7775 177.067 312.884 32.5038 177.003 
310.064 34.5414 176.915 300.437 35.4462 177.157 291.528 36.0977 176.671 
293.468 36.2406 177.452 294.638 35.955 176.994 288.016 36.7739 177.317 
279.795 38.0346 178.042 301.191 22.5515 178.251 288.309 24.9571 177.623 
279.89 26.5617 178.403 313.042 28.963 177.557 313.524 30.5159 177.83 
313 32.669 177.654 311.922 33.665 178.052 279.071 37.2398 177.439 
289.483 36.8028 178.059 276.879 38.4339 178.443 277.589 38.7872 178.744 
277.945 38.4699 178.431 280.053 38.5439 178.786 278.858 38.8742 178.957 
309.97 22.775 178.69 312.751 33.1011 178.496 301.623 35.1993 179.056 
279.407 38.9804 179.596 270.987 39.8645 179.44 271.655 39.6623 179.34 
275.256 39.6154 179.923 277.496 39.0734 179.197 271.034 40.3297 179.735 
270.692 40.5328 179.947 309.698 21.9633 179.829 306.67 21.4554 180.09 
284.234 24.8187 179.49 314.175 30.9308 179.511 314.169 31.4149 180.422 
313.81 31.979 180.131 313.823 31.8721 180.76 312.175 33.0193 180.039 
288.57 37.0565 180.012 291.54 36.4218 180.229 281.924 38.4672 179.554 
278.714 39.1687 179.69 270.06 40.0921 179.649 271.931 40.7838 180.408 
270.562 40.8008 180.371 312.177 24.096 180.914 263.464 30.7749 181.194 
260.272 32.3169 181.632 260.874 32.754 181.273 314.234 31.4628 180.974 
314.383 31.2318 181.334 261.381 35.936 180.865 266.419 38.6122 179.92 
279.601 38.9735 181.144 263.419 39.8883 181.063 276.312 39.7498 181.109 
264.603 41.0836 181.414 271.329 41.0473 180.966 264.799 41.5727 181.772 
265.847 41.7386 181.909 266.464 41.6213 181.627 305.429 21.1672 181.42 
300.757 21.5027 181.969 311.543 22.5809 181.929 291.264 22.5764 182.339 
273.036 26.3252 182.424 259.949 31.0583 182.508 314.487 30.6733 181.527 
257.504 32.5237 182.539 314.273 31.2154 181.678 307.554 33.1662 181.778 
311.281 32.3501 181.914 259.983 38.8633 181.601 275.962 39.8283 181.634 
271.372 41.106 181.742 269.519 41.3656 181.935 261.358 42.4324 182.59 
261.607 42.6689 182.814 310.921 21.7131 182.305 310.828 21.5776 182.673 
301.431 21.5265 183.289 300.843 21.4702 182.71 306.11 21.0969 182.79 
296.218 21.9106 182.121 262.088 30.2174 182.284 314.231 29.9528 182.446 
314.396 30.5244 181.95 311.876 31.6449 182.53 314.091 31.1536 181.984 
253.885 34.7712 183.129 256.53 34.0569 182.398 257.622 41.5569 182.684 
257.534 42.3176 182.93 256.882 43.7758 183.83 257.951 43.3594 183.432 
261.549 42.9709 183.279 258.885 43.6537 183.809 310.625 21.5445 183.076 
311 21.6779 182.933 311.249 21.9335 182.949 299.65 21.5954 183.325 
305.246 21.3066 183.389 308.665 21.4144 183.267 293.37 22.1803 183.215 
311.716 22.9001 182.98 291.944 22.4137 183.333 313.608 28.2052 182.862 
314.06 29.3468 182.679 314.153 29.6699 182.777 314.189 29.8056 182.763 
314.121 29.7111 182.867 256.812 30.7457 184.297 314.203 30.5017 182.311 
313.926 30.2508 182.675 314.032 29.8428 182.831 249.861 34.2533 184.793 
249.798 34.615 184.693 249.934 35.4265 184.499 249.089 35.5817 185.183 
250.115 36.1773 184.417 249.314 36.6351 185.091 253.867 36.9193 182.949 
282.655 37.2274 183.886 249.521 38.0237 185.305 250.053 38.7795 184.963 
254.647 38.7841 182.824 275.772 39.2602 184.058 251.284 42.5577 185.636 
252.25 42.4663 184.553 264.494 42.7122 183.879 251.787 43.0587 185.286 
252.102 43.6285 185.412 263.088 42.9897 183.538 252.645 44.0249 185.041 
253.025 43.9187 184.663 258.968 43.851 184.202 259.552 43.783 184.522 
252.838 44.4228 185.194 253.164 44.7377 185.194 254.079 44.4657 184.518 
256.765 44.4246 184.695 253.423 44.8514 184.941 253.521 44.9953 185.138 
253.663 44.7732 184.74 254.028 44.8838 184.724 253.65 44.9988 184.902 
253.845 45.0121 184.822 307.482 21.386 183.936 310.811 21.7052 183.398 
311.254 22.0547 183.278 296.648 21.9253 184.193 297.324 22.1469 184.725 
298.598 22.0386 184.572 300.199 21.9231 184.357 309.912 22.0947 183.905 
310.797 21.9085 183.605 291.702 22.8069 184.763 292.553 22.3677 183.848 
293.717 22.3957 184.508 294.231 22.2131 184.296 308.9 22.2825 184.213 
310.39 22.4638 183.982 284.878 23.3735 184.625 286.575 23.3016 184.78 
310.475 23.1636 184.131 311.73 23.5758 183.479 281.155 23.8617 185.204 
311.43 24.0768 183.848 312.434 26.0973 183.401 310.078 27.0823 184.562 
312.387 27.7782 183.75 311.536 28.5978 184.039 312.913 29.2203 183.47 
313.432 29.1738 183.238 313.896 29.4811 182.963 248.543 33.8613 186.064 
295.613 33.0244 184.578 249.304 38.7109 186.092 250.536 41.2109 185.664 
262.539 43.1403 185.061 251.357 43.0159 186.116 261.395 43.4341 184.848 
257.012 44.6076 185.563 253.322 44.8748 185.596 255.907 44.8463 185.272 
254.076 45.0405 184.874 311.029 21.8767 183.445 295.698 22.1133 184.629 
296.609 22.3748 185.07 298.855 22.3775 185.073 300.312 22.2696 184.837 
301.31 22.591 184.994 306.978 22.0254 184.393 290.198 23.3647 185.379 
290.797 22.8749 184.711 292.659 22.9469 185.115 298.083 22.8993 185.469 
302.204 23.0362 185.169 284.518 23.4241 185.104 287.199 23.4668 185.309 
288.386 23.4928 185.325 298.134 23.5022 185.732 301.325 26.2688 185.817 
248.503 33.2636 186.72 248.295 35.9417 186.724 284.69 35.2281 185.809 
249.474 39.3575 186.285 250.298 41.1487 186.115 250.249 41.286 186.578 
254.676 45.1332 185.703 253.732 45.0515 185.722 299.38 22.6145 185.272 
289.684 23.7837 185.737 293.479 23.2489 185.475 296.03 22.9436 185.5 
281.427 23.9794 186.631 293.325 23.858 185.852 295.158 23.5902 185.763 
277.678 24.3301 186.576 289.533 24.9442 186.477 294.102 24.4081 186.065 
274.481 24.8568 186.853 293.011 26.1206 186.496 263.035 27.4066 186.749 
249.754 32.0881 186.885 292.579 31.2504 186.16 248.289 33.1295 187.354 
285.281 34.6255 186.166 276.174 38.0652 186.257 249.041 38.8735 187.244 
251.315 43.144 187.191 255.632 44.7787 186.952 281.952 24.3014 187.283 
284.078 23.9924 186.852 285.879 24.4425 186.863 280.079 24.5558 187.52 
272.579 25.2668 188.037 271.905 25.302 187.559 274.174 24.9407 187.556 
282.704 29.3986 188.397 248.877 32.225 187.659 283.215 33.491 187.436 
280.905 35.5604 186.959 275.52 37.5217 187.341 250.899 42.5393 188.608 
251.78 43.5562 188.194 278.803 24.6328 188.089 281.464 24.7238 187.657 
276.514 24.6267 187.645 279.47 25.0487 188.189 280.664 25.2833 188.106 
272.665 25.4905 188.76 278.807 26.8746 189.014 280.542 26.5423 188.612 
279.55 27.4964 188.967 249.634 30.9053 189.529 281.637 31.3723 188.429 
278.02 35.2822 188.194 276.477 35.7824 188.437 277.346 35.6634 188.195 
252.483 43.8756 189.018 275.054 25.1473 188.513 273.364 25.6601 189.064 
275.907 26.0443 189.327 267.087 25.9139 189.804 266.188 26.1134 190.606 
273.022 26.7996 190.043 274.639 27.2035 189.917 247.492 33.6388 191.058 
272.757 34.3084 190.39 267.694 26.1054 190.766 268.744 26.5752 191.311 
266.152 26.3008 191.145 258.343 42.208 191.348 267.694 26.5753 191.503 
265.937 26.7876 192.022 267.958 26.8424 191.688 267.27 27.7499 192.355 
267.893 28.9755 192.485 267.908 30.7101 192.64 264.446 38.5807 192.16 
251.479 42.1682 192.947 262.676 26.7677 192.677 264.892 27.4419 193.129 
264.642 28.2049 193.685 264.741 28.6976 193.83 249.778 29.9912 193.28 
247.915 31.7857 193.478 252.157 42.1912 193.898 253.458 42.591 193.431 
263.098 27.1838 193.435 263.632 27.3799 193.507 260.75 27.5191 194.125 
256.834 27.8257 194.517 262.166 32.3573 195.162 247.424 33.6428 194.564 
250.064 40.3217 194.654 256.668 40.9839 194.642 259.056 28.0658 195.277 
256.316 28.2037 195.575 260.436 28.8622 195.513 260.856 29.1677 195.479 
254.985 41.0938 195.648 253.196 41.5455 195.676 259.031 29.0302 196.109 
252.261 29.0853 196.812 259.571 29.3555 196.051 248.536 30.7837 196.854 
247.573 32.3565 196.872 247.444 33.5606 196.55 255.997 39.6578 196.349 
250.27 39.9836 196.51 255.359 40.3977 196.181 251.196 40.6088 196.99 
251.611 40.9709 196.61 256.169 28.7892 196.6 256.446 29.1532 196.958 
[...]
POINT_DATA 999
COLOR_SCALARS scalars 3
0.101961 0.65098 0.596078 0.101961 0.65098 0.596078 0.101961 0.65098 0.596078 
0.101961 0.65098 0.596078 0.101961 0.65098 0.596078 
0.101961 0.65098 0.596078 0.101961 0.65098 0.596078 
0.101961 0.65098 0.596078 0.101961 0.65098 0.596078 
0.101961 0.65098 0.596078 0.101961 0.65098 0.596078 
0.101961 0.65098 0.596078 0.101961 0.65098 0.596078 
0.101961 0.65098 0.596078 0.101961 0.65098 0.596078 
0.101961 0.65098 0.596078 0.101961 0.65098 0.596078 
0.101961 0.65098 0.596078 0.101961 0.65098 0.596078 
0.101961 0.65098 0.596078 0.101961 0.65098 0.596078 
0.101961 0.65098 0.596078 0.101961 0.65098 0.596078 
0.101961 0.65098 0.596078 0.101961 0.65098 0.596078 
0.101961 0.65098 0.596078 0.101961 0.65098 0.596078 
0.101961 0.65098 0.596078 0.101961 0.65098 0.596078 
0.101961 0.65098 0.596078 0.101961 0.65098 0.596078 
0.101961 0.65098 0.596078 0.101961 0.65098 0.596078 
0.101961 0.65098 0.596078 0.101961 0.65098 0.596078 
0.101961 0.65098 0.596078 0.101961 0.65098 0.596078 
0.101961 0.65098 0.596078 0.101961 0.65098 0.596078 
0.101961 0.65098 0.596078 0.101961 0.65098 0.596078 
0.101961 0.65098 0.596078 0.101961 0.65098 0.596078 
0.101961 0.65098 0.596078 0.101961 0.65098 0.596078 
0.101961 0.65098 0.596078 0.101961 0.65098 0.596078 
0.101961 0.65098 0.596078 0.101961 0.65098 0.596078 
0.101961 0.65098 0.596078 0.101961 0.65098 0.596078 
0.101961 0.65098 0.596078 0.101961 0.65098 0.596078 
0.101961 0.65098 0.596078 0.101961 0.65098 0.596078 
0.101961 0.65098 0.596078 0.101961 0.65098 0.596078 
0.101961 0.65098 0.596078 0.101961 0.65098 0.596078 
0.101961 0.65098 0.596078 0.101961 0.65098 0.596078 
0.101961 0.65098 0.596078 0.101961 0.65098 0.596078 
0.101961 0.65098 0.596078 0.101961 0.65098 0.596078 
0.101961 0.65098 0.596078 0.101961 0.65098 0.596078 
0.101961 0.65098 0.596078 0.101961 0.65098 0.596078 
0.101961 0.65098 0.596078 0.101961 0.65098 0.596078 
0.101961 0.65098 0.596078 0.101961 0.65098 0.596078 
0.101961 0.65098 0.596078 0.101961 0.65098 0.596078 
0.101961 0.65098 0.596078 0.101961 0.65098 0.596078 
0.101961 0.65098 0.596078 0.101961 0.65098 0.596078 
0.101961 0.65098 0.596078 0.101961 0.65098 0.596078 
0.101961 0.65098 0.596078 0.101961 0.65098 0.596078 
0.101961 0.65098 0.596078 0.101961 0.65098 0.596078 
0.101961 0.65098 0.596078 0.101961 0.65098 0.596078 
0.101961 0.65098 0.596078 0.101961 0.65098 0.596078 
0.101961 0.65098 0.596078 0.101961 0.65098 0.596078 
0.101961 0.65098 0.596078 0.101961 0.65098 0.596078 
0.101961 0.65098 0.596078 0.101961 0.65098 0.596078 
0.101961 0.65098 0.596078 0.101961 0.65098 0.596078 
0.101961 0.65098 0.596078 0.101961 0.65098 0.596078 
0.101961 0.65098 0.596078 0.101961 0.65098 0.596078 
0.101961 0.65098 0.596078 0.101961 0.65098 0.596078 
0.101961 0.65098 0.596078 0.101961 0.65098 0.596078 
0.101961 0.65098 0.596078 0.101961 0.65098 0.596078 
0.101961 0.65098 0.596078 0.101961 0.65098 0.596078 
0.101961 0.65098 0.596078 0.101961 0.65098 0.596078 
0.101961 0.65098 0.596078 0.101961 0.65098 0.596078 
0.101961 0.65098 0.596078 0.101961 0.65098 0.596078 
0.101961 0.65098 0.596078 0.101961 0.65098 0.596078 
0.101961 0.65098 0.596078 0.101961 0.65098 0.596078 
0.101961 0.65098 0.596078 0.101961 0.65098 0.596078 
0.101961 0.65098 0.596078 0.101961 0.65098 0.596078 
0.101961 0.65098 0.596078 0.101961 0.65098 0.596078 
0.101961 0.65098 0.596078 0.101961 0.65098 0.596078 
0.101961 0.65098 0.596078 0.101961 0.65098 0.596078 
0.101961 0.65098 0.596078 0.101961 0.65098 0.596078 
0.101961 0.65098 0.596078 0.101961 0.65098 0.596078 
0.101961 0.65098 0.596078 0.101961 0.65098 0.596078 
0.101961 0.65098 0.596078 0.101961 0.65098 0.596078 
0.101961 0.65098 0.596078 0.101961 0.65098 0.596078 
0.101961 0.65098 0.596078 0.101961 0.65098 0.596078 
0.101961 0.65098 0.596078 0.101961 0.65098 0.596078 
0.101961 0.65098 0.596078 0.101961 0.65098 0.596078 
0.101961 0.65098 0.596078 0.101961 0.65098 0.596078 
0.101961 0.65098 0.596078 0.101961 0.65098 0.596078 
0.101961 0.65098 0.596078 0.101961 0.65098 0.596078 
0.101961 0.65098 0.596078 0.101961 0.65098 0.596078 
0.101961 0.65098 0.596078 0.101961 0.65098 0.596078 
0.101961 0.65098 0.596078 0.101961 0.65098 0.596078 
0.101961 0.65098 0.596078 0.101961 0.65098 0.596078 
0.101961 0.65098 0.596078 0.101961 0.65098 0.596078 
0.101961 0.65098 0.596078 0.101961 0.65098 0.596078 
0.101961 0.65098 0.596078 0.101961 0.65098 0.596078 
0.101961 0.65098 0.596078 0.101961 0.65098 0.596078 
0.101961 0.65098 0.596078 0.101961 0.65098 0.596078 
0.101961 0.65098 0.596078 0.101961 0.65098 0.596078 
0.101961 0.65098 0.596078 0.101961 0.65098 0.596078 
0.101961 0.65098 0.596078 0.101961 0.65098 0.596078 
0.101961 0.65098 0.596078 0.101961 0.65098 0.596078 
0.101961 0.65098 0.596078 0.101961 0.65098 0.596078 
0.101961 0.65098 0.596078 0.101961 0.65098 0.596078 
0.101961 0.65098 0.596078 0.101961 0.65098 0.596078 
0.101961 0.65098 0.596078 0.101961 0.65098 0.596078 
0.101961 0.65098 0.596078 0.101961 0.65098 0.596078 
0.101961 0.65098 0.596078 0.101961 0.65098 0.596078 
0.101961 0.65098 0.596078 0.101961 0.65098 0.596078 
0.101961 0.65098 0.596078 0.101961 0.65098 0.596078 
0.101961 0.65098 0.596078 0.101961 0.65098 0.596078 
0.101961 0.65098 0.596078 0.101961 0.65098 0.596078 
0.101961 0.65098 0.596078 0.101961 0.65098 0.596078 
0.101961 0.65098 0.596078 0.101961 0.65098 0.596078 
0.101961 0.65098 0.596078 0.101961 0.65098 0.596078 
0.101961 0.65098 0.596078 0.101961 0.65098 0.596078 
0.101961 0.65098 0.596078 0.101961 0.65098 0.596078 
0.101961 0.65098 0.596078 0.101961 0.65098 0.596078 
0.101961 0.65098 0.596078 0.101961 0.65098 0.596078 
0.101961 0.65098 0.596078 0.101961 0.65098 0.596078 
0.101961 0.65098 0.596078 0.101961 0.65098 0.596078 
0.101961 0.65098 0.596078 0.101961 0.65098 0.596078 
0.101961 0.65098 0.596078 0.101961 0.65098 0.596078 
0.101961 0.65098 0.596078 0.101961 0.65098 0.596078 
0.101961 0.65098 0.596078 0.101961 0.65098 0.596078 
0.101961 0.65098 0.596078 0.101961 0.65098 0.596078 
0.101961 0.65098 0.596078 0.101961 0.65098 0.596078 
0.101961 0.65098 0.596078 0.101961 0.65098 0.596078 
0.101961 0.65098 0.596078 0.101961 0.65098 0.596078 
0.101961 0.65098 0.596078 0.101961 0.65098 0.596078 
0.101961 0.65098 0.596078 0.101961 0.65098 0.596078 
0.101961 0.65098 0.596078 0.101961 0.65098 0.596078 
0.101961 0.65098 0.596078 0.101961 0.65098 0.596078 
0.101961 0.65098 0.596078 0.101961 0.65098 0.596078 
0.101961 0.65098 0.596078 0.101961 0.65098 0.596078 
0.101961 0.65098 0.596078 0.101961 0.65098 0.596078 
0.101961 0.65098 0.596078 0.101961 0.65098 0.596078 
0.101961 0.65098 0.596078 0.101961 0.65098 0.596078 
0.101961 0.65098 0.596078 0.101961 0.65098 0.596078 
0.101961 0.65098 0.596078 0.101961 0.65098 0.596078 
0.101961 0.65098 0.596078 0.101961 0.65098 0.596078 
0.101961 0.65098 0.596078 0.101961 0.65098 0.596078 
0.101961 0.65098 0.596078 0.101961 0.65098 0.596078 
0.101961 0.65098 0.596078 0.101961 0.65098 0.596078 
0.101961 0.65098 0.596078 0.101961 0.65098 0.596078 
0.101961 0.65098 0.596078 0.101961 0.65098 0.596078 
0.101961 0.65098 0.596078 0.101961 0.65098 0.596078 
0.101961 0.65098 0.596078 0.101961 0.65098 0.596078 
0.101961 0.65098 0.596078 0.101961 0.65098 0.596078 
0.101961 0.65098 0.596078 0.101961 0.65098 0.596078 
0.101961 0.65098 0.596078 0.101961 0.65098 0.596078 
0.101961 0.65098 0.596078 0.101961 0.65098 0.596078 
0.101961 0.65098 0.596078 0.101961 0.65098 0.596078 
0.101961 0.65098 0.596078 0.101961 0.65098 0.596078 
0.101961 0.65098 0.596078 0.101961 0.65098 0.596078 
0.101961 0.65098 0.596078 0.101961 0.65098 0.596078 
0.101961 0.65098 0.596078 0.101961 0.65098 0.596078 
0.101961 0.65098 0.596078 0.101961 0.65098 0.596078 
0.101961 0.65098 0.596078 0.101961 0.65098 0.596078 
0.101961 0.65098 0.596078 0.101961 0.65098 0.596078 
0.101961 0.65098 0.596078 0.101961 0.65098 0.596078 
0.101961 0.65098 0.596078 0.101961 0.65098 0.596078 
0.101961 0.65098 0.596078 0.101961 0.65098 0.596078 
0.101961 0.65098 0.596078 0.101961 0.65098 0.596078 
0.101961 0.65098 0.596078 0.101961 0.65098 0.596078 
0.101961 0.65098 0.596078 0.101961 0.65098 0.596078 
0.101961 0.65098 0.596078 0.101961 0.65098 0.596078 
0.101961 0.65098 0.596078 0.101961 0.65098 0.596078 
0.101961 0.65098 0.596078 0.101961 0.65098 0.596078 
0.101961 0.65098 0.596078 0.101961 0.65098 0.596078 
0.101961 0.65098 0.596078 0.101961 0.65098 0.596078 
0.101961 0.65098 0.596078 0.101961 0.65098 0.596078 
0.101961 0.65098 0.596078 0.101961 0.65098 0.596078 
0.101961 0.65098 0.596078 0.101961 0.65098 0.596078 
0.101961 0.65098 0.596078 0.101961 0.65098 0.596078 
0.101961 0.65098 0.596078 0.101961 0.65098 0.596078 
0.101961 0.65098 0.596078 0.101961 0.65098 0.596078 
0.101961 0.65098 0.596078 0.101961 0.65098 0.596078 
0.101961 0.65098 0.596078 0.101961 0.65098 0.596078 
0.101961 0.65098 0.596078 0.101961 0.65098 0.596078 
0.101961 0.65098 0.596078 0.101961 0.65098 0.596078 
0.101961 0.65098 0.596078 0.101961 0.65098 0.596078 
0.101961 0.65098 0.596078 0.101961 0.65098 0.596078 
0.101961 0.65098 0.596078 0.101961 0.65098 0.596078 
0.101961 0.65098 0.596078 0.101961 0.65098 0.596078 
0.101961 0.65098 0.596078 0.101961 0.65098 0.596078 
0.101961 0.65098 0.596078 0.101961 0.65098 0.596078 
0.101961 0.65098 0.596078 0.101961 0.65098 0.596078 
0.101961 0.65098 0.596078 0.101961 0.65098 0.596078 
0.101961 0.65098 0.596078 0.101961 0.65098 0.596078 
0.101961 0.65098 0.596078 0.101961 0.65098 0.596078 
0.101961 0.65098 0.596078 0.101961 0.65098 0.596078 
0.101961 0.65098 0.596078 0.101961 0.65098 0.596078 
0.101961 0.65098 0.596078 0.101961 0.65098 0.596078 
0.101961 0.65098 0.596078 0.101961 0.65098 0.596078 
0.101961 0.65098 0.596078 0.101961 0.65098 0.596078 
0.101961 0.65098 0.596078 0.101961 0.65098 0.596078 
0.101961 0.65098 0.596078 0.101961 0.65098 0.596078 
0.101961 0.65098 0.596078 0.101961 0.65098 0.596078 
0.101961 0.65098 0.596078 0.101961 0.65098 0.596078 
0.101961 0.65098 0.596078 0.101961 0.65098 0.596078 
0.101961 0.65098 0.596078 0.101961 0.65098 0.596078 
0.101961 0.65098 0.596078 0.101961 0.65098 0.596078 
0.101961 0.65098 0.596078 0.101961 0.65098 0.596078 
0.101961 0.65098 0.596078 0.101961 0.65098 0.596078 
0.101961 0.65098 0.596078 0.101961 0.65098 0.596078 
0.101961 0.65098 0.596078 0.101961 0.65098 0.596078 
0.101961 0.65098 0.596078 0.101961 0.65098 0.596078 
0.101961 0.65098 0.596078 0.101961 0.65098 0.596078 
0.101961 0.65098 0.596078 0.101961 0.65098 0.596078 
0.101961 0.65098 0.596078 0.101961 0.65098 0.596078 
0.101961 0.65098 0.596078 0.101961 0.65098 0.596078 
0.101961 0.65098 0.596078 0.101961 0.65098 0.596078 
0.101961 0.65098 0.596078 0.101961 0.65098 0.596078 
0.101961 0.65098 0.596078 0.101961 0.65098 0.596078 
0.101961 0.65098 0.596078 0.101961 0.65098 0.596078 
0.101961 0.65098 0.596078 0.101961 0.65098 0.596078 
0.101961 0.65098 0.596078 0.101961 0.65098 0.596078 
0.101961 0.65098 0.596078 0.101961 0.65098 0.596078 
0.101961 0.65098 0.596078 0.101961 0.65098 0.596078 
0.101961 0.65098 0.596078 0.101961 0.65098 0.596078 
0.101961 0.65098 0.596078 0.101961 0.65098 0.596078 
0.101961 0.65098 0.596078 0.101961 0.65098 0.596078 
0.101961 0.65098 0.596078 0.101961 0.65098 0.596078 
0.101961 0.65098 0.596078 0.101961 0.65098 0.596078 
0.101961 0.65098 0.596078 0.101961 0.65098 0.596078 
0.101961 0.65098 0.596078 0.101961 0.65098 0.596078 
0.101961 0.65098 0.596078 0.101961 0.65098 0.596078 
0.101961 0.65098 0.596078 0.101961 0.65098 0.596078 
0.101961 0.65098 0.596078 0.101961 0.65098 0.596078 
0.101961 0.65098 0.596078 0.101961 0.65098 0.596078 
0.101961 0.65098 0.596078 0.101961 0.65098 0.596078 
0.101961 0.65098 0.596078 0.101961 0.65098 0.596078 
0.101961 0.65098 0.596078 0.101961 0.65098 0.596078 
0.101961 0.65098 0.596078 0.101961 0.65098 0.596078 
0.101961 0.65098 0.596078 0.101961 0.65098 0.596078 
0.101961 0.65098 0.596078 0.101961 0.65098 0.596078 
0.101961 0.65098 0.596078 0.101961 0.65098 0.596078 
0.101961 0.65098 0.596078 0.101961 0.65098 0.596078 
0.101961 0.65098 0.596078 0.101961 0.65098 0.596078 
0.101961 0.65098 0.596078 0.101961 0.65098 0.596078 
0.101961 0.65098 0.596078 0.101961 0.65098 0.596078 
0.101961 0.65098 0.596078 0.101961 0.65098 0.596078 
0.101961 0.65098 0.596078 0.101961 0.65098 0.596078 
0.101961 0.65098 0.596078 0.101961 0.65098 0.596078 
0.101961 0.65098 0.596078 0.101961 0.65098 0.596078 
0.101961 0.65098 0.596078 0.101961 0.65098 0.596078 
0.101961 0.65098 0.596078 0.101961 0.65098 0.596078 
0.101961 0.65098 0.596078 0.101961 0.65098 0.596078 
0.101961 0.65098 0.596078 0.101961 0.65098 0.596078 
0.101961 0.65098 0.596078 0.101961 0.65098 0.596078 
0.101961 0.65098 0.596078 0.101961 0.65098 0.596078 
0.101961 0.65098 0.596078 0.101961 0.65098 0.596078 
0.101961 0.65098 0.596078 0.101961 0.65098 0.596078 
0.101961 0.65098 0.596078 0.101961 0.65098 0.596078 
0.101961 0.65098 0.596078 0.101961 0.65098 0.596078 
0.101961 0.65098 0.596078 0.101961 0.65098 0.596078 
0.101961 0.65098 0.596078 0.101961 0.65098 0.596078 
0.101961 0.65098 0.596078 0.101961 0.65098 0.596078 
0.101961 0.65098 0.596078 0.101961 0.65098 0.596078 
0.101961 0.65098 0.596078 0.101961 0.65098 0.596078 
0.101961 0.65098 0.596078 0.101961 0.65098 0.596078 
0.101961 0.65098 0.596078 0.101961 0.65098 0.596078 
0.101961 0.65098 0.596078 0.101961 0.65098 0.596078 
0.101961 0.65098 0.596078 0.101961 0.65098 0.596078 
0.101961 0.65098 0.596078 0.101961 0.65098 0.596078 
0.101961 0.65098 0.596078 0.101961 0.65098 0.596078 
0.101961 0.65098 0.596078 0.101961 0.65098 0.596078 
0.101961 0.65098 0.596078 0.101961 0.65098 0.596078 
0.101961 0.65098 0.596078 0.101961 0.65098 0.596078 
0.101961 0.65098 0.596078 0.101961 0.65098 0.596078 
0.101961 0.65098 0.596078 0.101961 0.65098 0.596078 
0.101961 0.65098 0.596078 0.101961 0.65098 0.596078 
0.101961 0.65098 0.596078 0.101961 0.65098 0.596078 
0.101961 0.65098 0.596078 0.101961 0.65098 0.596078 
0.101961 0.65098 0.596078 0.101961 0.65098 0.596078 
0.101961 0.65098 0.596078 0.101961 0.65098 0.596078 
0.101961 0.65098 0.596078 0.101961 0.65098 0.596078 
0.101961 0.65098 0.596078 0.101961 0.65098 0.596078 
0.101961 0.65098 0.596078 0.101961 0.65098 0.596078 
0.101961 0.65098 0.596078 0.101961 0.65098 0.596078 
0.101961 0.65098 0.596078 0.101961 0.65098 0.596078 
0.101961 0.65098 0.596078 0.101961 0.65098 0.596078 
0.101961 0.65098 0.596078 0.101961 0.65098 0.596078 
0.101961 0.65098 0.596078 0.101961 0.65098 0.596078 
0.101961 0.65098 0.596078 0.101961 0.65098 0.596078 
0.101961 0.65098 0.596078 0.101961 0.65098 0.596078 
0.101961 0.65098 0.596078 0.101961 0.65098 0.596078 
0.101961 0.65098 0.596078 0.101961 0.65098 0.596078 
0.101961 0.65098 0.596078 0.101961 0.65098 0.596078 
0.101961 0.65098 0.596078 0.101961 0.65098 0.596078 
0.101961 0.65098 0.596078 0.101961 0.65098 0.596078 
0.101961 0.65098 0.596078 0.101961 0.65098 0.596078 
0.101961 0.65098 0.596078 0.101961 0.65098 0.596078 
0.101961 0.65098 0.596078 0.101961 0.65098 0.596078 
0.101961 0.65098 0.596078 0.101961 0.65098 0.596078 
0.101961 0.65098 0.596078 0.101961 0.65098 0.596078 
0.101961 0.65098 0.596078 0.101961 0.65098 0.596078 
0.101961 0.65098 0.596078 0.101961 0.65098 0.596078 
0.101961 0.65098 0.596078 0.101961 0.65098 0.596078 
0.101961 0.65098 0.596078 0.101961 0.65098 0.596078 
0.101961 0.65098 0.596078 0.101961 0.65098 0.596078 
0.101961 0.65098 0.596078 0.101961 0.65098 0.596078 
0.101961 0.65098 0.596078 0.101961 0.65098 0.596078 
0.101961 0.65098 0.596078 0.101961 0.65098 0.596078 
0.101961 0.65098 0.596078 0.101961 0.65098 0.596078 
0.101961 0.65098 0.596078 0.101961 0.65098 0.596078 
0.101961 0.65098 0.596078 0.101961 0.65098 0.596078 
0.101961 0.65098 0.596078 0.101961 0.65098 0.596078 
0.101961 0.65098 0.596078 0.101961 0.65098 0.596078 
0.101961 0.65098 0.596078 0.101961 0.65098 0.596078 
0.101961 0.65098 0.596078 0.101961 0.65098 0.596078 
0.101961 0.65098 0.596078 0.101961 0.65098 0.596078 
0.101961 0.65098 0.596078 0.101961 0.65098 0.596078 
0.101961 0.65098 0.596078 0.101961 0.65098 0.596078 
0.101961 0.65098 0.596078 0.101961 0.65098 0.596078 
0.101961 0.65098 0.596078 0.101961 0.65098 0.596078 
0.101961 0.65098 0.596078 0.101961 0.65098 0.596078 
0.101961 0.65098 0.596078 0.101961 0.65098 0.596078 
0.101961 0.65098 0.596078 0.101961 0.65098 0.596078 
0.101961 0.65098 0.596078 0.101961 0.65098 0.596078 
0.101961 0.65098 0.596078 0.101961 0.65098 0.596078 
0.101961 0.65098 0.596078 0.101961 0.65098 0.596078 
0.101961 0.65098 0.596078 0.101961 0.65098 0.596078 
0.101961 0.65098 0.596078 0.101961 0.65098 0.596078 
0.101961 0.65098 0.596078 0.101961 0.65098 0.596078 
0.101961 0.65098 0.596078 0.101961 0.65098 0.596078 
0.101961 0.65098 0.596078 0.101961 0.65098 0.596078 
0.101961 0.65098 0.596078 0.101961 0.65098 0.596078 
0.101961 0.65098 0.596078 0.101961 0.65098 0.596078 
0.101961 0.65098 0.596078 0.101961 0.65098 0.596078 
0.101961 0.65098 0.596078 0.101961 0.65098 0.596078 
0.101961 0.65098 0.596078 0.101961 0.65098 0.596078 
0.101961 0.65098 0.596078 0.101961 0.65098 0.596078 
0.101961 0.65098 0.596078 0.101961 0.65098 0.596078 
0.101961 0.65098 0.596078 0.101961 0.65098 0.596078 
0.101961 0.65098 0.596078 0.101961 0.65098 0.596078 
0.101961 0.65098 0.596078 0.101961 0.65098 0.596078 
0.101961 0.65098 0.596078 0.101961 0.65098 0.596078 
0.101961 0.65098 0.596078 0.101961 0.65098 0.596078 
0.101961 0.65098 0.596078 0.101961 0.65098 0.596078 
0.101961 0.65098 0.596078 0.101961 0.65098 0.596078 
0.101961 0.65098 0.596078 0.101961 0.65098 0.596078 
0.101961 0.65098 0.596078 0.101961 0.65098 0.596078 
0.101961 0.65098 0.596078 0.101961 0.65098 0.596078 
0.101961 0.65098 0.596078 0.101961 0.65098 0.596078 
0.101961 0.65098 0.596078 0.101961 0.65098 0.596078 
0.101961 0.65098 0.596078 0.101961 0.65098 0.596078 
0.101961 0.65098 0.596078 0.101961 0.65098 0.596078 
0.101961 0.65098 0.596078 0.101961 0.65098 0.596078 
0.101961 0.65098 0.596078 0.101961 0.65098 0.596078 
0.101961 0.65098 0.596078 0.101961 0.65098 0.596078 
0.101961 0.65098 0.596078 0.101961 0.65098 0.596078 
0.101961 0.65098 0.596078 0.101961 0.65098 0.596078 
0.101961 0.65098 0.596078 0.101961 0.65098 0.596078 
0.101961 0.65098 0.596078 0.101961 0.65098 0.596078 
0.101961 0.65098 0.596078 0.101961 0.65098 0.596078 
0.101961 0.65098 0.596078 0.101961 0.65098 0.596078 
0.101961 0.65098 0.596078 0.101961 0.65098 0.596078 
0.101961 0.65098 0.596078 0.101961 0.65098 0.596078 
0.101961 0.65098 0.596078 0.101961 0.65098 0.596078 
0.101961 0.65098 0.596078 0.101961 0.65098 0.596078 
0.101961 0.65098 0.596078 0.101961 0.65098 0.596078 
0.101961 0.65098 0.596078 0.101961 0.65098 0.596078 
0.101961 0.65098 0.596078 0.101961 0.65098 0.596078 
0.101961 0.65098 0.596078 0.101961 0.65098 0.596078 
0.101961 0.65098 0.596078 0.101961 0.65098 0.596078 
0.101961 0.65098 0.596078 0.101961 0.65098 0.596078 
0.101961 0.65098 0.596078 0.101961 0.65098 0.596078 
0.101961 0.65098 0.596078 0.101961 0.65098 0.596078 
0.101961 0.65098 0.596078 0.101961 0.65098 0.596078 
0.101961 0.65098 0.596078 0.101961 0.65098 0.596078 
0.101961 0.65098 0.596078 0.101961 0.65098 0.596078 
0.101961 0.65098 0.596078 0.101961 0.65098 0.596078 
0.101961 0.65098 0.596078 0.101961 0.65098 0.596078 
0.101961 0.65098 0.596078 0.101961 0.65098 0.596078 
0.101961 0.65098 0.596078 0.101961 0.65098 0.596078 
0.101961 0.65098 0.596078 0.101961 0.65098 0.596078 
0.101961 0.65098 0.596078 0.101961 0.65098 0.596078 
0.101961 0.65098 0.596078 0.101961 0.65098 0.596078 
0.101961 0.65098 0.596078 0.101961 0.65098 0.596078 
0.101961 0.65098 0.596078 0.101961 0.65098 0.596078 
0.101961 0.65098 0.596078 0.101961 0.65098 0.596078 
0.101961 0.65098 0.596078 0.101961 0.65098 0.596078 
0.101961 0.65098 0.596078 0.101961 0.65098 0.596078 
0.101961 0.65098 0.596078 0.101961 0.65098 0.596078 
0.101961 0.65098 0.596078 0.101961 0.65098 0.596078 
0.101961 0.65098 0.596078 0.101961 0.65098 0.596078 
0.101961 0.65098 0.596078 0.101961 0.65098 0.596078 
0.101961 0.65098 0.596078 0.101961 0.65098 0.596078 