# vtk DataFile Version 4.2
vtk output
ASCII
DATASET POLYDATA
POINTS 807 float
378.613 43.1709 162.261 378.551 43.1014 162.283 378.547 43.1669 162.301 
378.693 43.0903 162.331 378.673 43.2033 162.345 378.07 42.752 162.556 
377.741 42.4643 162.792 377.861 42.724 162.761 378.318 42.7757 162.447 
378.555 42.9247 162.376 378.527 42.5942 162.54 378.104 42.9166 162.615 
378.369 43.0151 162.415 378.874 43.1424 162.484 378.553 43.1971 162.458 
376.87 41.9717 163.224 376.775 41.9789 163.278 377.243 42.1128 163.085 
376.874 41.7699 163.338 377.979 41.688 163.036 379.971 42.3316 163.22 
377.507 42.5015 163.157 380.28 42.4433 163.432 378.674 43.2574 162.771 
378.857 43.3387 162.647 378.902 43.3516 162.751 379.008 43.2671 162.698 
378.936 43.3629 162.68 375.724 41.0258 164.126 375.629 41.0467 164.18 
375.75 40.8205 164.259 376.782 41.2734 163.6 380.553 41.4801 163.747 
380.287 40.8949 163.875 376.475 41.6486 163.812 380.572 42.4338 163.731 
379.073 43.2615 163.069 374.4 39.9204 165.338 375.7 40.2755 164.533 
380.492 39.8876 164.594 375.324 40.7756 164.815 382.378 40.9234 165.019 
381.012 42.4478 164.324 378.483 43.0189 164.003 372.134 38.9208 166.436 
372.042 38.9619 166.508 372.534 38.4838 166.361 377.329 39.0494 164.865 
381.498 39.2023 165.683 382.712 39.7817 165.913 383.026 39.8779 166.163 
373.858 39.4676 165.663 382.928 40.3726 165.664 383.333 40.2792 166.18 
374.126 40.063 165.726 383.21 40.6033 165.843 375.484 41.1523 165.489 
382.173 41.5297 164.893 380.851 42.8028 164.771 372.111 38.0959 166.682 
372.64 37.7842 166.558 371.779 38.4198 166.908 372.965 38.0948 166.309 
374.621 38.0544 165.951 383.613 40.3754 166.464 383.24 40.8592 165.844 
383.614 40.5485 166.409 383.39 40.9982 166.095 379.417 42.7572 165.519 
370.73 37.2387 167.66 372.846 36.7253 167.202 369.449 37.4487 168.329 
369.221 37.528 168.588 370.041 37.5265 168.02 371.319 38.6057 167.695 
383.825 40.4166 167.061 374.84 40.7958 166.764 383.682 40.9182 166.589 
384.087 41.0003 167.276 383.298 41.3185 166.227 383.638 41.4105 166.882 
384.084 41.3253 167.495 384.114 41.1194 167.344 381.284 42.4555 166.415 
383.337 41.7387 166.922 383.687 41.6339 167.424 382.875 41.9572 166.709 
376.815 35.9544 167.706 367.614 36.7895 169.279 367.718 36.898 169.208 
368.323 36.9691 168.91 367.8 36.6435 169.159 368.937 36.8396 168.516 
369.169 36.3362 168.491 372.878 39.7271 168.241 374.929 40.7387 167.743 
384.077 41.0934 167.847 384.217 41.3448 167.727 384.246 41.4004 167.674 
384.258 41.4132 167.742 383.194 41.7768 167.662 383.9 41.618 167.69 
383.733 41.6179 167.798 384.035 41.5214 167.703 384.206 41.4313 167.698 
383.946 41.5883 167.789 367.476 35.3068 169.39 368.568 35.1901 169.086 
378.974 35.5848 169.045 361 36.0087 169.017 361 36.0087 169.017 
361 36.0087 169.017 361 36.0087 169.017 364.247 35.2796 170.454 
366.549 35.7497 169.749 367.609 36.111 169.271 380.139 35.9567 169.616 
361 36.0088 169.017 366.498 36.2006 169.988 367.223 36.5869 169.707 
382.498 38.4014 168.718 373.026 39.7369 168.792 383.911 40.9762 168.227 
384.142 41.3866 167.83 383.918 41.2578 168.101 383.922 41.4917 167.92 
369.474 33.7144 169.668 361.298 34.3353 171.379 365.285 34.6008 170.028 
365.773 34.0804 170.019 361 36.0087 169.017 364.154 35.5553 170.819 
373.608 39.7682 169.679 383.085 39.602 169.403 383.222 40.1124 169.243 
382.348 41.4407 168.941 358.129 32.476 171.761 357.723 32.7721 171.914 
375.885 33.1969 170.695 356.874 33.1126 172.302 359.726 33.7488 171.851 
357.084 33.4532 172.65 364.497 35.914 171.352 367.228 37.012 170.702 
382.471 39.2039 170.432 382.71 39.6033 170.086 381.139 40.5724 170.397 
382.654 40.7889 169.552 362.239 30.9587 171.41 367.237 30.8125 171.426 
368.545 30.3154 171.869 370.618 30.4493 172.125 351.914 32.013 172.876 
353.706 31.5159 172.578 357.043 31.5704 171.93 352.59 32.5098 172.79 
354.137 31.721 172.448 350.857 32.8665 173.262 356.014 33.3612 172.98 
380.824 36.2396 171.621 367.111 37.047 171.751 381.688 38.1808 171.588 
382.178 39.1625 170.865 361.437 26.4647 173.958 360.056 27.7706 173.142 
367.337 27.8854 173.677 368.379 27.9932 173.932 352.166 30.8236 173.611 
354.658 30.2748 172.955 349.429 31.8501 173.828 354.317 30.7675 172.74 
375.26 31.3476 173.221 348.34 32.1133 174.149 349.263 32.1952 173.567 
346.29 33.0244 173.602 346.106 33.0959 173.574 346.86 32.8393 173.683 
346.755 32.8472 173.808 348.804 32.5013 173.536 349.836 32.3769 173.348 
377.486 32.8901 172.871 345.968 33.1344 173.511 345.97 33.1456 173.523 
345.893 33.165 173.489 346.38 33.033 173.557 346.869 32.9411 173.592 
348.26 32.7773 173.582 349.171 32.7298 173.501 345.934 33.1552 173.488 
347.053 32.9962 173.632 347.776 32.9425 173.681 349.578 32.9407 173.67 
351.439 33.1578 173.722 357.353 33.9114 173.729 381.456 38.7065 171.883 
381.9 39.3637 171.053 381.416 39.2062 171.596 359.173 25.909 175.119 
360.475 25.8794 174.712 362.95 26.3852 174.141 353.419 29.7823 174.188 
351.917 30.3695 174.754 351.401 30.7169 174.392 350.765 30.959 174.673 
375.884 31.4059 174.168 347.869 32.3836 174.503 347.279 32.6447 174.103 
346.258 33.091 173.624 346.873 32.8599 173.949 346.676 33.0599 173.677 
350.551 33.1222 174.481 351.872 33.2559 174.089 353.803 33.4177 174.107 
367.2 36.7792 173.81 380.581 36.5 173.318 367.633 36.9995 173.463 
371.023 37.5223 174.241 363.526 25.499 175.39 351.798 30.3791 175.15 
349.878 31.3277 175.268 347.598 32.6894 174.366 348.171 32.3772 174.867 
348.467 32.0989 174.993 376.707 31.8213 175.062 348.203 32.8178 174.5 
349.051 32.8841 174.719 352.042 33.1772 175.073 379.762 35.4595 174.532 
379.909 36.1387 174.652 366.09 36.2518 174.734 380.328 36.5674 173.963 
360.71 24.213 177.246 355.347 28.1653 175.98 371.213 28.103 175.746 
352.034 30.4309 176.035 348.774 32.0524 175.397 348.486 32.2035 175.188 
348.541 32.3316 175.214 348.901 32.4376 175.328 350.783 32.9138 175.352 
352.31 32.8049 176.119 354.267 33.057 176.486 378.078 33.2849 176.023 
355.907 33.5055 176.103 365.099 35.8572 175.527 380.073 36.7368 174.399 
379.636 36.6008 175.027 373.664 29.3751 176.319 350.631 31.2746 176.166 
348.685 32.1803 175.395 348.911 32.1015 175.563 349.201 31.9602 175.687 
350.132 32.3603 175.924 350.973 32.4229 176.164 355.944 33.1684 177.208 
379.24 35.9872 175.788 376.566 36.8032 176.77 377.68 36.8765 176.58 
378.913 37.2607 175.346 359.95 23.6273 178.723 357.408 25.4315 178.263 
356.846 25.9933 178.595 374.922 30.2488 178.002 352.919 30.7261 177.376 
349.176 32.1072 175.708 354.843 32.5322 177.792 378.632 34.7436 176.797 
378.767 36.1718 176.368 377.967 36.7398 176.63 378.087 36.3984 176.863 
378.664 36.6184 176.228 378.311 36.7219 176.432 361.623 23.3338 179.545 
354.924 29.3339 178.846 351.983 31.6944 177.015 353.516 31.405 177.969 
377.537 33.6517 178.16 377.839 34.4829 177.858 377.949 35.7073 177.407 
356.429 26.4011 180.047 373.622 29.4423 179.895 375.643 31.7673 179.551 
354.207 31.5595 178.377 355.683 31.8505 179.271 376.97 33.3708 178.818 
361.163 33.8278 179.388 359.904 22.5513 181.661 355.162 30.3282 179.635 
375.122 31.6497 180.362 376.344 34.5465 178.979 376.884 34.3407 178.745 
358.226 22.8422 182.094 361.906 22.8601 181.861 373.228 29.6997 181.678 
356.353 29.874 181.648 374.018 31.2136 181.537 357.646 31.4686 181.582 
375.078 32.0793 180.654 375.107 32.4499 180.659 372.786 33.4577 181.454 
358.343 22.2583 183.439 358.185 22.2515 183.834 358.035 22.5267 183.262 
358.474 22.1009 183.825 356.684 27.4651 183.099 372.287 29.1775 182.89 
356.709 29.097 182.701 356.482 29.4209 182.15 373.155 30.3924 182.556 
373.34 30.9226 182.393 357.144 30.4594 182.262 358.776 31.4371 182.542 
374.293 32.7406 181.227 374.028 33.2002 181.125 358.126 22.2609 184.397 
358.748 22.0078 184.091 371.134 28.1142 183.479 372.635 30.0677 183.198 
357.422 29.8779 183.229 368.948 32.1425 183.799 358.493 22.0467 184.902 
357.523 23.1183 184.493 359.373 21.9316 185.07 357.204 26.0633 184.7 
368.741 26.3524 184.499 371.345 28.8623 184.18 358.098 29.5193 184.195 
358.876 29.8446 184.446 371.809 29.8234 184.063 372.415 31.0386 183.411 
371.99 30.9999 183.798 371.596 31.1478 183.974 358.2 22.3724 185.725 
359.003 21.9342 185.846 361.134 22.3989 185.943 357.404 24.5385 185.344 
369.607 27.4937 185.36 370.844 28.8767 184.933 369.778 30.8971 184.912 
370.594 30.1744 185.029 358.298 22.4915 186.304 359.27 21.9683 186.177 
361.75 22.7598 186.453 366.406 25.0435 185.96 361.631 27.6359 187.016 
369.436 27.6681 185.81 369.98 28.5598 185.651 368.541 29.7529 186.079 
369.882 29.9496 185.522 358.119 22.9118 186.353 359.274 22.2758 187.027 
359.803 22.3494 186.998 358.023 24.0478 186.511 363.742 23.737 186.955 
359.665 25.397 187.449 358.81 26.096 186.777 366.546 25.7247 186.927 
367.785 26.6583 186.749 368.439 27.3524 186.63 369.201 27.8035 186.191 
368.797 27.749 186.495 366.143 28.1957 187.193 366.98 28.1939 187.129 
369.184 28.113 186.289 369.441 28.6434 186.085 368.713 28.87 186.423 
358.826 22.6348 187.067 358.892 22.3409 187.109 359.152 22.3517 187.214 
359.062 22.4287 187.231 359.521 22.7404 187.344 359.937 22.706 187.517 
361.066 23.3652 187.606 362.292 23.6486 187.607 363.363 23.9608 187.524 
358.4 24.6873 186.938 361.401 24.2342 187.81 362.086 24.1217 187.892 
362.344 23.9455 187.822 364.86 24.6222 187.4 362.869 24.7852 187.99 
363.314 25.403 187.966 364.103 25.0272 187.91 365.478 25.2963 187.473 
361.364 25.8965 187.713 364.553 25.3571 187.866 365.096 25.4133 187.7 
366.063 26.006 187.452 367.31 26.6564 187.105 364.75 26.8197 187.684 
366.624 26.3652 187.457 367.394 27.7195 187.125 368.167 27.6539 186.84 
359.004 22.2971 187.193 360.164 22.7422 187.559 360.357 22.7144 187.484 
363.759 24.4936 187.767 366.735 26.3131 187.426 359.29 22.1768 267.693 
359.179 22.1781 267.801 359.318 22.2605 267.681 360.586 22.6663 267.471 
360.814 22.7304 267.466 360.708 22.6068 267.584 360.734 22.8842 267.405 
362.285 24.0672 267.149 362.973 24.7684 267.018 364.21 25.0974 267.053 
365.143 24.8959 267.518 365.127 25.4889 267.24 365.466 25.4465 267.377 
366.942 26.3893 267.617 367.119 26.4316 267.723 367.028 26.5589 267.652 
[...]
POINT_DATA 807
COLOR_SCALARS scalars 3
0.101961 0.65098 0.596078 0.101961 0.65098 0.596078 0.101961 0.65098 0.596078 
0.101961 0.65098 0.596078 0.101961 0.65098 0.596078 
0.101961 0.65098 0.596078 0.101961 0.65098 0.596078 
0.101961 0.65098 0.596078 0.101961 0.65098 0.596078 
0.101961 0.65098 0.596078 0.101961 0.65098 0.596078 
0.101961 0.65098 0.596078 0.101961 0.65098 0.596078 
0.101961 0.65098 0.596078 0.101961 0.65098 0.596078 
0.101961 0.65098 0.596078 0.101961 0.65098 0.596078 
0.101961 0.65098 0.596078 0.101961 0.65098 0.596078 
0.101961 0.65098 0.596078 0.101961 0.65098 0.596078 
0.101961 0.65098 0.596078 0.101961 0.65098 0.596078 
0.101961 0.65098 0.596078 0.101961 0.65098 0.596078 
0.101961 0.65098 0.596078 0.101961 0.65098 0.596078 
0.101961 0.65098 0.596078 0.101961 0.65098 0.596078 
0.101961 0.65098 0.596078 0.101961 0.65098 0.596078 
0.101961 0.65098 0.596078 0.101961 0.65098 0.596078 
0.101961 0.65098 0.596078 0.101961 0.65098 0.596078 
0.101961 0.65098 0.596078 0.101961 0.65098 0.596078 
0.101961 0.65098 0.596078 0.101961 0.65098 0.596078 
0.101961 0.65098 0.596078 0.101961 0.65098 0.596078 
0.101961 0.65098 0.596078 0.101961 0.65098 0.596078 
0.101961 0.65098 0.596078 0.101961 0.65098 0.596078 
0.101961 0.65098 0.596078 0.101961 0.65098 0.596078 
0.101961 0.65098 0.596078 0.101961 0.65098 0.596078 
0.101961 0.65098 0.596078 0.101961 0.65098 0.596078 
0.101961 0.65098 0.596078 0.101961 0.65098 0.596078 
0.101961 0.65098 0.596078 0.101961 0.65098 0.596078 
0.101961 0.65098 0.596078 0.101961 0.65098 0.596078 
0.101961 0.65098 0.596078 0.101961 0.65098 0.596078 
0.101961 0.65098 0.596078 0.101961 0.65098 0.596078 
0.101961 0.65098 0.596078 0.101961 0.65098 0.596078 
0.101961 0.65098 0.596078 0.101961 0.65098 0.596078 
0.101961 0.65098 0.596078 0.101961 0.65098 0.596078 
0.101961 0.65098 0.596078 0.101961 0.65098 0.596078 
0.101961 0.65098 0.596078 0.101961 0.65098 0.596078 
0.101961 0.65098 0.596078 0.101961 0.65098 0.596078 
0.101961 0.65098 0.596078 0.101961 0.65098 0.596078 
0.101961 0.65098 0.596078 0.101961 0.65098 0.596078 
0.101961 0.65098 0.596078 0.101961 0.65098 0.596078 
0.101961 0.65098 0.596078 0.101961 0.65098 0.596078 
0.101961 0.65098 0.596078 0.101961 0.65098 0.596078 
0.101961 0.65098 0.596078 0.101961 0.65098 0.596078 
0.101961 0.65098 0.596078 0.101961 0.65098 0.596078 
0.101961 0.65098 0.596078 0.101961 0.65098 0.596078 
0.101961 0.65098 0.596078 0.101961 0.65098 0.596078 
0.101961 0.65098 0.596078 0.101961 0.65098 0.596078 
0.101961 0.65098 0.596078 0.101961 0.65098 0.596078 
0.101961 0.65098 0.596078 0.101961 0.65098 0.596078 
0.101961 0.65098 0.596078 0.101961 0.65098 0.596078 
0.101961 0.65098 0.596078 0.101961 0.65098 0.596078 
0.101961 0.65098 0.596078 0.101961 0.65098 0.596078 
0.101961 0.65098 0.596078 0.101961 0.65098 0.596078 
0.101961 0.65098 0.596078 0.101961 0.65098 0.596078 
0.101961 0.65098 0.596078 0.101961 0.65098 0.596078 
0.101961 0.65098 0.596078 0.101961 0.65098 0.596078 
0.101961 0.65098 0.596078 0.101961 0.65098 0.596078 
0.101961 0.65098 0.596078 0.101961 0.65098 0.596078 
0.101961 0.65098 0.596078 0.101961 0.65098 0.596078 
0.101961 0.65098 0.596078 0.101961 0.65098 0.596078 
0.101961 0.65098 0.596078 0.101961 0.65098 0.596078 
0.101961 0.65098 0.596078 0.101961 0.65098 0.596078 
0.101961 0.65098 0.596078 0.101961 0.65098 0.596078 
0.101961 0.65098 0.596078 0.101961 0.65098 0.596078 
0.101961 0.65098 0.596078 0.101961 0.65098 0.596078 
0.101961 0.65098 0.596078 0.101961 0.65098 0.596078 
0.101961 0.65098 0.596078 0.101961 0.65098 0.596078 
0.101961 0.65098 0.596078 0.101961 0.65098 0.596078 
0.101961 0.65098 0.596078 0.101961 0.65098 0.596078 
0.101961 0.65098 0.596078 0.101961 0.65098 0.596078 
0.101961 0.65098 0.596078 0.101961 0.65098 0.596078 
0.101961 0.65098 0.596078 0.101961 0.65098 0.596078 
0.101961 0.65098 0.596078 0.101961 0.65098 0.596078 
0.101961 0.65098 0.596078 0.101961 0.65098 0.596078 
0.101961 0.65098 0.596078 0.101961 0.65098 0.596078 
0.101961 0.65098 0.596078 0.101961 0.65098 0.596078 
0.101961 0.65098 0.596078 0.101961 0.65098 0.596078 
0.101961 0.65098 0.596078 0.101961 0.65098 0.596078 
0.101961 0.65098 0.596078 0.101961 0.65098 0.596078 
0.101961 0.65098 0.596078 0.101961 0.65098 0.596078 
0.101961 0.65098 0.596078 0.101961 0.65098 0.596078 
0.101961 0.65098 0.596078 0.101961 0.65098 0.596078 
0.101961 0.65098 0.596078 0.101961 0.65098 0.596078 
0.101961 0.65098 0.596078 0.101961 0.65098 0.596078 
0.101961 0.65098 0.596078 0.101961 0.65098 0.596078 
0.101961 0.65098 0.596078 0.101961 0.65098 0.596078 
0.101961 0.65098 0.596078 0.101961 0.65098 0.596078 
0.101961 0.65098 0.596078 0.101961 0.65098 0.596078 
0.101961 0.65098 0.596078 0.101961 0.65098 0.596078 
0.101961 0.65098 0.596078 0.101961 0.65098 0.596078 
0.101961 0.65098 0.596078 0.101961 0.65098 0.596078 
0.101961 0.65098 0.596078 0.101961 0.65098 0.596078 
0.101961 0.65098 0.596078 0.101961 0.65098 0.596078 
0.101961 0.65098 0.596078 0.101961 0.65098 0.596078 
0.101961 0.65098 0.596078 0.101961 0.65098 0.596078 
0.101961 0.65098 0.596078 0.101961 0.65098 0.596078 
0.101961 0.65098 0.596078 0.101961 0.65098 0.596078 
0.101961 0.65098 0.596078 0.101961 0.65098 0.596078 
0.101961 0.65098 0.596078 0.101961 0.65098 0.596078 
0.101961 0.65098 0.596078 0.101961 0.65098 0.596078 
0.101961 0.65098 0.596078 0.101961 0.65098 0.596078 
0.101961 0.65098 0.596078 0.101961 0.65098 0.596078 
0.101961 0.65098 0.596078 0.101961 0.65098 0.596078 
0.101961 0.65098 0.596078 0.101961 0.65098 0.596078 
0.101961 0.65098 0.596078 0.101961 0.65098 0.596078 
0.101961 0.65098 0.596078 0.101961 0.65098 0.596078 
0.101961 0.65098 0.596078 0.101961 0.65098 0.596078 
0.101961 0.65098 0.596078 0.101961 0.65098 0.596078 
0.101961 0.65098 0.596078 0.101961 0.65098 0.596078 
0.101961 0.65098 0.596078 0.101961 0.65098 0.596078 
0.101961 0.65098 0.596078 0.101961 0.65098 0.596078 
0.101961 0.65098 0.596078 0.101961 0.65098 0.596078 
0.101961 0.65098 0.596078 0.101961 0.65098 0.596078 
0.101961 0.65098 0.596078 0.101961 0.65098 0.596078 
0.101961 0.65098 0.596078 0.101961 0.65098 0.596078 
0.101961 0.65098 0.596078 0.101961 0.65098 0.596078 
0.101961 0.65098 0.596078 0.101961 0.65098 0.596078 
0.101961 0.65098 0.596078 0.101961 0.65098 0.596078 
0.101961 0.65098 0.596078 0.101961 0.65098 0.596078 
0.101961 0.65098 0.596078 0.101961 0.65098 0.596078 
0.101961 0.65098 0.596078 0.101961 0.65098 0.596078 
0.101961 0.65098 0.596078 0.101961 0.65098 0.596078 
0.101961 0.65098 0.596078 0.101961 0.65098 0.596078 
0.101961 0.65098 0.596078 0.101961 0.65098 0.596078 
0.101961 0.65098 0.596078 0.101961 0.65098 0.596078 
0.101961 0.65098 0.596078 0.101961 0.65098 0.596078 
0.101961 0.65098 0.596078 0.101961 0.65098 0.596078 
0.101961 0.65098 0.596078 0.101961 0.65098 0.596078 
0.101961 0.65098 0.596078 0.101961 0.65098 0.596078 
0.101961 0.65098 0.596078 0.101961 0.65098 0.596078 
0.101961 0.65098 0.596078 0.101961 0.65098 0.596078 
0.101961 0.65098 0.596078 0.101961 0.65098 0.596078 
0.101961 0.65098 0.596078 0.101961 0.65098 0.596078 
0.101961 0.65098 0.596078 0.101961 0.65098 0.596078 
0.101961 0.65098 0.596078 0.101961 0.65098 0.596078 
0.101961 0.65098 0.596078 0.101961 0.65098 0.596078 
0.101961 0.65098 0.596078 0.101961 0.65098 0.596078 
0.101961 0.65098 0.596078 0.101961 0.65098 0.596078 
0.101961 0.65098 0.596078 0.101961 0.65098 0.596078 
0.101961 0.65098 0.596078 0.101961 0.65098 0.596078 
0.101961 0.65098 0.596078 0.101961 0.65098 0.596078 
0.101961 0.65098 0.596078 0.101961 0.65098 0.596078 
0.101961 0.65098 0.596078 0.101961 0.65098 0.596078 
0.101961 0.65098 0.596078 0.101961 0.65098 0.596078 
0.101961 0.65098 0.596078 0.101961 0.65098 0.596078 
0.101961 0.65098 0.596078 0.101961 0.65098 0.596078 
0.101961 0.65098 0.596078 0.101961 0.65098 0.596078 
0.101961 0.65098 0.596078 0.101961 0.65098 0.596078 
0.101961 0.65098 0.596078 0.101961 0.65098 0.596078 
0.101961 0.65098 0.596078 0.101961 0.65098 0.596078 
0.101961 0.65098 0.596078 0.101961 0.65098 0.596078 
0.101961 0.65098 0.596078 0.101961 0.65098 0.596078 
0.101961 0.65098 0.596078 0.101961 0.65098 0.596078 
0.101961 0.65098 0.596078 0.101961 0.65098 0.596078 
0.101961 0.65098 0.596078 0.101961 0.65098 0.596078 
0.101961 0.65098 0.596078 0.101961 0.65098 0.596078 
0.101961 0.65098 0.596078 0.101961 0.65098 0.596078 
0.101961 0.65098 0.596078 0.101961 0.65098 0.596078 
0.101961 0.65098 0.596078 0.101961 0.65098 0.596078 
0.101961 0.65098 0.596078 0.101961 0.65098 0.596078 
0.101961 0.65098 0.596078 0.101961 0.65098 0.596078 
0.101961 0.65098 0.596078 0.101961 0.65098 0.596078 
0.101961 0.65098 0.596078 0.101961 0.65098 0.596078 
0.101961 0.65098 0.596078 0.101961 0.65098 0.596078 
0.101961 0.65098 0.596078 0.101961 0.65098 0.596078 
0.101961 0.65098 0.596078 0.101961 0.65098 0.596078 
0.101961 0.65098 0.596078 0.101961 0.65098 0.596078 
0.101961 0.65098 0.596078 0.101961 0.65098 0.596078 
0.101961 0.65098 0.596078 0.101961 0.65098 0.596078 
0.101961 0.65098 0.596078 0.101961 0.65098 0.596078 
0.101961 0.65098 0.596078 0.101961 0.65098 0.596078 
0.101961 0.65098 0.596078 0.101961 0.65098 0.596078 
0.101961 0.65098 0.596078 0.101961 0.65098 0.596078 
0.101961 0.65098 0.596078 0.101961 0.65098 0.596078 
0.101961 0.65098 0.596078 0.101961 0.65098 0.596078 
0.101961 0.65098 0.596078 0.101961 0.65098 0.596078 
0.101961 0.65098 0.596078 0.101961 0.65098 0.596078 
0.101961 0.65098 0.596078 0.101961 0.65098 0.596078 
0.101961 0.65098 0.596078 0.101961 0.65098 0.596078 
0.101961 0.65098 0.596078 0.101961 0.65098 0.596078 
0.101961 0.65098 0.596078 0.101961 0.65098 0.596078 
0.101961 0.65098 0.596078 0.101961 0.65098 0.596078 
0.101961 0.65098 0.596078 0.101961 0.65098 0.596078 
0.101961 0.65098 0.596078 0.101961 0.65098 0.596078 
0.101961 0.65098 0.596078 0.101961 0.65098 0.596078 
0.101961 0.65098 0.596078 0.101961 0.65098 0.596078 
0.101961 0.65098 0.596078 0.101961 0.65098 0.596078 
0.101961 0.65098 0.596078 0.101961 0.65098 0.596078 
0.101961 0.65098 0.596078 0.101961 0.65098 0.596078 
0.101961 0.65098 0.596078 0.101961 0.65098 0.596078 
0.101961 0.65098 0.596078 0.101961 0.65098 0.596078 
0.101961 0.65098 0.596078 0.101961 0.65098 0.596078 
0.101961 0.65098 0.596078 0.101961 0.65098 0.596078 
0.101961 0.65098 0.596078 0.101961 0.65098 0.596078 
0.101961 0.65098 0.596078 0.101961 0.65098 0.596078 
0.101961 0.65098 0.596078 0.101961 0.65098 0.596078 
0.101961 0.65098 0.596078 0.101961 0.65098 0.596078 
0.101961 0.65098 0.596078 0.101961 0.65098 0.596078 
0.101961 0.65098 0.596078 0.101961 0.65098 0.596078 
0.101961 0.65098 0.596078 0.101961 0.65098 0.596078 
0.101961 0.65098 0.596078 0.101961 0.65098 0.596078 
0.101961 0.65098 0.596078 0.101961 0.65098 0.596078 
0.101961 0.65098 0.596078 0.101961 0.65098 0.596078 
0.101961 0.65098 0.596078 0.101961 0.65098 0.596078 
0.101961 0.65098 0.596078 0.101961 0.65098 0.596078 
0.101961 0.65098 0.596078 0.101961 0.65098 0.596078 
0.101961 0.65098 0.596078 0.101961 0.65098 0.596078 
0.101961 0.65098 0.596078 0.101961 0.65098 0.596078 
0.101961 0.65098 0.596078 0.101961 0.65098 0.596078 
0.101961 0.65098 0.596078 0.101961 0.65098 0.596078 
0.101961 0.65098 0.596078 0.101961 0.65098 0.596078 
0.101961 0.65098 0.596078 0.101961 0.65098 0.596078 
0.101961 0.65098 0.596078 0.101961 0.65098 0.596078 
0.101961 0.65098 0.596078 0.101961 0.65098 0.596078 
0.101961 0.65098 0.596078 0.101961 0.65098 0.596078 
0.101961 0.65098 0.596078 0.101961 0.65098 0.596078 
0.101961 0.65098 0.596078 0.101961 0.65098 0.596078 
0.101961 0.65098 0.596078 0.101961 0.65098 0.596078 
0.101961 0.65098 0.596078 0.101961 0.65098 0.596078 
0.101961 0.65098 0.596078 0.101961 0.65098 0.596078 
0.101961 0.65098 0.596078 0.101961 0.65098 0.596078 
0.101961 0.65098 0.596078 0.101961 0.65098 0.596078 
0.101961 0.65098 0.596078 0.101961 0.65098 0.596078 
0.101961 0.65098 0.596078 0.101961 0.65098 0.596078 
0.101961 0.65098 0.596078 0.101961 0.65098 0.596078 
0.101961 0.65098 0.596078 0.101961 0.65098 0.596078 
0.101961 0.65098 0.596078 0.101961 0.65098 0.596078 
0.101961 0.65098 0.596078 0.101961 0.65098 0.596078 
0.101961 0.65098 0.596078 0.101961 0.65098 0.596078 
0.101961 0.65098 0.596078 0.101961 0.65098 0.596078 
0.101961 0.65098 0.596078 0.101961 0.65098 0.596078 
0.101961 0.65098 0.596078 0.101961 0.65098 0.596078 
0.101961 0.65098 0.596078 0.101961 0.65098 0.596078 
0.101961 0.65098 0.596078 0.101961 0.65098 0.596078 
0.101961 0.65098 0.596078 0.101961 0.65098 0.596078 
0.101961 0.65098 0.596078 0.101961 0.65098 0.596078 
0.101961 0.65098 0.596078 0.101961 0.65098 0.596078 
0.101961 0.65098 0.596078 0.101961 0.65098 0.596078 
0.101961 0.65098 0.596078 0.101961 0.65098 0.596078 
0.101961 0.65098 0.596078 0.101961 0.65098 0.596078 
0.101961 0.65098 0.596078 0.101961 0.65098 0.596078 
0.101961 0.65098 0.596078 0.101961 0.65098 0.596078 
0.101961 0.65098 0.596078 0.101961 0.65098 0.596078 
0.101961 0.65098 0.596078 0.101961 0.65098 0.596078 
0.101961 0.65098 0.596078 0.101961 0.65098 0.596078 
0.101961 0.65098 0.596078 0.101961 0.65098 0.596078 
0.101961 0.65098 0.596078 0.101961 0.65098 0.596078 
0.101961 0.65098 0.596078 0.101961 0.65098 0.596078 
0.101961 0.65098 0.596078 0.101961 0.65098 0.596078 
0.101961 0.65098 0.596078 0.101961 0.65098 0.596078 
0.101961 0.65098 0.596078 0.101961 0.65098 0.596078 
0.101961 0.65098 0.596078 0.101961 0.65098 0.596078 
0.101961 0.65098 0.596078 0.101961 0.65098 0.596078 
0.101961 0.65098 0.596078 0.101961 0.65098 0.596078 
0.101961 0.65098 0.596078 0.101961 0.65098 0.596078 
0.101961 0.65098 0.596078 0.101961 0.65098 0.596078 
0.101961 0.65098 0.596078 0.101961 0.65098 0.596078 
0.101961 0.65098 0.596078 0.101961 0.65098 0.596078 
0.101961 0.65098 0.596078 0.101961 0.65098 0.596078 
0.101961 0.65098 0.596078 0.101961 0.65098 0.596078 
0.101961 0.65098 0.596078 0.101961 0.65098 0.596078 
0.101961 0.65098 0.596078 0.101961 0.65098 0.596078 
0.101961 0.65098 0.596078 0.101961 0.65098 0.596078 
0.101961 0.65098 0.596078 0.101961 0.65098 0.596078 
0.101961 0.65098 0.596078 0.101961 0.65098 0.596078 
0.101961 0.65098 0.596078 0.101961 0.65098 0.596078 
0.101961 0.65098 0.596078 0.101961 0.65098 0.596078 
0.101961 0.65098 0.596078 0.101961 0.65098 0.596078 
0.101961 0.65098 0.596078 0.101961 0.65098 0.596078 
0.101961 0.65098 0.596078 0.101961 0.65098 0.596078 
0.101961 0.65098 0.596078 0.101961 0.65098 0.596078 
0.101961 0.65098 0.596078 0.101961 0.65098 0.596078 
0.101961 0.65098 0.596078 0.101961 0.65098 0.596078 
0.101961 0.65098 0.596078 0.101961 0.65098 0.596078 
0.101961 0.65098 0.596078 0.101961 0.65098 0.596078 
0.101961 0.65098 0.596078 0.101961 0.65098 0.596078 
0.101961 0.65098 0.596078 0.101961 0.65098 0.596078 
0.101961 0.65098 0.596078 0.101961 0.65098 0.596078 
0.101961 0.65098 0.596078 0.101961 0.65098 0.596078 
0.101961 0.65098 0.596078 0.101961 0.65098 0.596078 
0.101961 0.65098 0.596078 0.101961 0.65098 0.596078 
0.101961 0.65098 0.596078 0.101961 0.65098 0.596078 
0.101961 0.65098 0.596078 0.101961 0.65098 0.596078 
0.101961 0.65098 0.596078 0.101961 0.65098 0.596078 
0.101961 0.65098 0.596078 0.101961 0.65098 0.596078 
0.101961 0.65098 0.596078 0.101961 0.65098 0.596078 
0.101961 0.65098 0.596078 0.101961 0.65098 0.596078 
0.101961 0.65098 0.596078 0.101961 0.65098 0.596078 
0.101961 0.65098 0.596078 0.101961 0.65098 0.596078 
0.101961 0.65098 0.596078 0.101961 0.65098 0.596078 
0.101961 0.65098 0.596078 0.101961 0.65098 0.596078 
0.101961 0.65098 0.596078 0.101961 0.65098 0.596078 
0.101961 0.65098 0.596078 0.101961 0.65098 0.596078 
0.101961 0.65098 0.596078 0.101961 0.65098 0.596078 
0.101961 0.65098 0.596078 0.101961 0.65098 0.596078 
0.101961 0.65098 0.596078 0.101961 0.65098 0.596078 
0.101961 0.65098 0.596078 0.101961 0.65098 0.596078 
0.101961 0.65098 0.596078 0.101961 0.65098 0.596078 
0.101961 0.65098 0.596078 0.101961 0.65098 0.596078 
0.101961 0.65098 0.596078 0.101961 0.65098 0.596078 
0.101961 0.65098 0.596078 0.101961 0.65098 0.596078 
0.101961 0.65098 0.596078 0.101961 0.65098 0.596078 
0.101961 0.65098 0.596078 0.101961 0.65098 0.596078 
0.101961 0.65098 0.596078 0.101961 0.65098 0.596078 
0.101961 0.65098 0.596078 0.101961 0.65098 0.596078 
0.101961 0.65098 0.596078 0.101961 0.65098 0.596078 
0.101961 0.65098 0.596078 0.101961 0.65098 0.596078 
0.101961 0.65098 0.596078 0.101961 0.65098 0.596078 
0.101961 0.65098 0.596078 0.101961 0.65098 0.596078 
0.101961 0.65098 0.596078 0.101961 0.65098 0.596078 
0.101961 0.65098 0.596078 0.101961 0.65098 0.596078 
0.101961 0.65098 0.596078 0.101961 0.65098 0.596078 
0.101961 0.65098 0.596078 0.101961 0.65098 0.596078 
0.101961 0.65098 0.596078 0.101961 0.65098 0.596078 
0.101961 0.65098 0.596078 0.101961 0.65098 0.596078 
0.101961 0.65098 0.596078 0.101961 0.65098 0.596078 
0.101961 0.65098 0.596078 0.101961 0.65098 0.596078 
0.101961 0.65098 0.596078 0.101961 0.65098 0.596078 
0.101961 0.65098 0.596078 0.101961 0.65098 0.596078 
0.101961 0.65098 0.596078 0.101961 0.65098 0.596078 
0.101961 0.65098 0.596078 0.101961 0.65098 0.596078 
0.101961 0.65098 0.596078 0.101961 0.65098 0.596078 
0.101961 0.65098 0.596078 0.101961 0.65098 0.596078 
0.101961 0.65098 0.596078 0.101961 0.65098 0.596078 
0.101961 0.65098 0.596078 0.101961 0.65098 0.596078 
0.101961 0.65098 0.596078 0.101961 0.65098 0.596078 
0.101961 0.65098 0.596078 0.101961 0.65098 0.596078 
0.101961 0.65098 0.596078 0.101961 0.65098 0.596078 
0.101961 0.65098 0.596078 0.101961 0.65098 0.596078 
0.101961 0.65098 0.596078 0.101961 0.65098 0.596078 
0.101961 0.65098 0.596078 0.101961 0.65098 0.596078 
0.101961 0.65098 0.596078 0.101961 0.65098 0.596078 
0.101961 0.65098 0.596078 0.101961 0.65098 0.596078 
0.101961 0.65098 0.596078 0.101961 0.65098 0.596078 
0.101961 0.65098 0.596078 0.101961 0.65098 0.596078 
0.101961 0.65098 0.596078 0.101961 0.65098 0.596078 
0.101961 0.65098 0.596078 0.101961 0.65098 0.596078 
0.101961 0.65098 0.596078 0.101961 0.65098 0.596078 
0.101961 0.65098 0.596078 0.101961 0.65098 0.596078 
0.101961 0.65098 0.596078 0.101961 0.65098 0.596078 
0.101961 0.65098 0.596078 0.101961 0.65098 0.596078 
0.101961 0.65098 0.596078 0.101961 0.65098 0.596078 
0.101961 0.65098 0.596078 0.101961 0.65098 0.596078 
0.101961 0.65098 0.596078 0.101961 0.65098 0.596078 
0.101961 0.65098 0.596078 0.101961 0.65098 0.596078 
0.101961 0.65098 0.596078 0.101961 0.65098 0.596078 
0.101961 0.65098 0.596078 0.101961 0.65098 0.596078 
0.101961 0.65098 0.596078 0.101961 0.65098 0.596078 
0.101961 0.65098 0.596078 0.101961 0.65098 0.596078 
0.101961 0.65098 0.596078 0.101961 0.65098 0.596078 
0.101961 0.65098 0.596078 0.101961 0.65098 0.596078 
0.101961 0.65098 0.596078 0.101961 0.65098 0.596078 
0.101961 0.65098 0.596078 0.101961 0.65098 0.596078 
0.101961 0.65098 0.596078 0.101961 0.65098 0.596078 
0.101961 0.65098 0.596078 0.101961 0.65098 0.596078 
0.101961 0.65098 0.596078 0.101961 0.65098 0.596078 
0.101961 0.65098 0.596078 0.101961 0.65098 0.596078 
0.101961 0.65098 0.596078 0.101961 0.65098 0.596078 
0.101961 0.65098 0.596078 0.101961 0.65098 0.596078 
0.101961 0.65098 0.596078 0.101961 0.65098 0.596078 
0.101961 0.65098 0.596078 0.101961 0.65098 0.596078 
0.101961 0.65098 0.596078 0.101961 0.65098 0.596078 
0.101961 0.65098 0.596078 0.101961 0.65098 0.596078 
0.101961 0.65098 0.596078 0.101961 0.65098 0.596078 
0.101961 0.65098 0.596078 0.101961 0.65098 0.596078 
0.101961 0.65098 0.596078 0.101961 0.65098 0.596078 
0.101961 0.65098 0.596078 0.101961 0.65098 0.596078 
0.101961 0.65098 0.596078 0.101961 0.65098 0.596078 
0.101961 0.65098 0.596078 0.101961 0.65098 0.596078 
0.101961 0.65098 0.596078 0.101961 0.65098 0.596078 
0.101961 0.65098 0.596078 0.101961 0.65098 0.596078 
0.101961 0.65098 0.596078 0.101961 0.65098 0.596078 
0.101961 0.65098 0.596078 0.101961 0.65098 0.596078 
0.101961 0.65098 0.596078 0.101961 0.65098 0.596078 
0.101961 0.65098 0.596078 0.101961 0.65098 0.596078 
0.101961 0.65098 0.596078 0.101961 0.65098 0.596078 
0.101961 0.65098 0.596078 0.101961 0.65098 0.596078 