# vtk DataFile Version 4.2
vtk output
ASCII
DATASET POLYDATA
POINTS 2180 float
394.236 88.8062 120.186 394.218 88.7711 120.232 394.235 88.8085 120.182 
394.241 88.8018 120.199 394.24 88.7708 120.256 394.196 88.721 120.301 
394.164 88.6471 120.399 394.206 88.6934 120.359 394.229 88.7453 120.291 
393.841 87.9689 121.291 394.018 88.2785 120.896 393.745 87.8308 121.467 
393.844 87.9732 121.285 394.151 88.6157 120.442 394.023 88.3257 120.827 
394.136 88.5427 120.554 394.195 88.6724 120.387 393.521 86.8801 122.754 
393.626 87.2276 122.28 393.516 86.7881 122.86 393.503 86.8028 122.865 
393.622 87.2848 122.205 393.677 87.3412 122.128 393.898 87.9896 121.272 
393.269 85.977 123.983 393.426 86.4816 123.272 393.378 86.2617 123.551 
393.358 86.2439 123.65 393.479 86.6082 123.099 393.608 87.1405 122.397 
393.262 85.9397 124.082 393.167 85.6745 124.438 393.129 85.545 124.551 
393.214 85.7217 124.258 393.202 85.7136 124.418 393.262 85.8275 124.235 
393.373 86.2269 123.658 393.282 85.7714 124.252 392.613 84.5691 125.857 
392.778 84.7677 125.548 393.098 85.1908 124.859 393.062 84.7419 125.352 
393.141 85.5628 124.62 392.998 85.1874 125.093 393.173 85.1749 124.978 
393.133 85.4147 124.83 393.184 85.3719 124.837 392.478 83.0708 126.806 
392.713 84.064 126.023 392.945 83.8663 126.251 392.278 83.6804 126.882 
392.837 84.6516 125.89 393.087 85.0651 125.31 392.427 82.2766 127.442 
392.17 82.0497 127.634 392.613 82.3202 127.461 391.798 82.0008 127.813 
391.498 82.0263 128.18 392.779 84.2315 126.474 392.993 84.3383 126.148 
392.929 84.5036 126.078 393.035 84.7406 125.732 392.666 82.1141 127.902 
391.308 81.4526 128.663 392.786 82.6214 127.603 392.853 83.189 127.255 
391.695 82.6419 128.358 392.663 83.6617 127.171 392.863 84.111 126.553 
391.986 80.2513 129.486 391.97 79.8877 129.879 392.149 80.3492 129.604 
390.762 80.8448 129.931 392.403 81.2658 128.934 390.993 81.4528 129.325 
390.821 81.2477 129.653 390.852 81.3753 129.587 392.532 81.9607 128.647 
390.918 81.4755 129.595 391.516 82.3736 128.802 391.636 82.394 128.888 
392.567 82.5596 128.292 392.134 83.0528 128.099 391.753 79.4339 130.258 
390.448 79.7643 130.782 392.214 80.3572 130.05 390.253 80.0216 131.223 
392.306 81.2778 129.469 390.712 81.0013 130.308 390.942 81.4001 129.952 
391.755 82.3378 129.033 391.828 78.2906 131.525 392.143 79.9968 130.718 
392.009 80.0051 131.065 390.097 79.8468 131.79 391.088 81.2765 130.409 
392.177 82.1598 129.076 391.042 77.3693 132.263 391.385 77.4908 132.201 
392.016 78.7662 131.533 389.802 78.7542 132.629 389.788 79.3427 132.562 
389.856 79.4424 132.539 390.046 79.7178 132.278 390.268 80.0066 132.101 
391.005 80.9653 130.942 391.079 80.6725 131.336 391.619 76.4964 133.091 
391.613 76.37 133.168 391.628 76.3857 133.19 391.456 76.7585 132.91 
391.218 76.1589 133.458 391.632 76.7302 133.004 391.643 76.5033 133.151 
389.943 76.7065 133.329 389.739 77.0846 133.37 390.479 76.9487 132.809 
391.653 77.3616 132.714 391.616 76.6499 133.179 391.887 78.2239 132.076 
389.658 78.4059 133.246 391.607 79.1051 132.384 389.791 79.2507 132.738 
389.763 78.8344 133.115 391.453 79.6402 132.187 390.551 79.8823 132.41 
391.28 80.1909 131.782 389.931 75.0905 134.372 390.743 75.0618 134.332 
391.538 76.3127 133.253 391.105 75.3108 134.361 391.431 76.3845 133.722 
391.545 76.3772 133.32 389.331 77.342 134.365 390.182 79.2011 133.109 
390.543 79.4484 132.878 390.915 73.4576 135.626 391.06 73.6231 135.549 
389.078 73.851 135.403 390.831 74.3864 134.902 391.104 74.3376 135.283 
389.019 74.7215 135.07 388.815 75.6645 135.078 391.235 76.5995 134.64 
389.127 76.9569 134.851 390.668 77.5346 134.572 389.689 78.07 134.127 
390.417 78.781 133.54 390.743 72.2033 136.646 391.024 73.3496 136.057 
387.639 73.8243 136.554 388.335 75.1915 135.921 388.204 75.29 136.506 
389.225 76.7044 135.513 388.991 70.4525 137.151 390.111 70.7602 137.17 
390.257 70.203 137.618 386.523 70.9204 137.54 386.456 72.5755 137.518 
386.575 73.2609 137.693 386.643 73.7141 138.054 390.488 74.8392 137.115 
387.277 74.3613 137.779 390.114 75.4939 136.825 389.973 76.2513 136.085 
389.861 75.7999 136.687 386.862 68.9626 138.218 389.074 68.8561 138.183 
390.573 69.5353 138.495 384.965 70.1153 138.469 384.546 71.3829 139.12 
391.082 72.541 137.62 384.872 71.8755 139.094 390.862 73.6131 137.699 
386.791 73.9776 138.48 387.127 74.2542 138.47 388.063 74.8408 137.978 
389.338 75.1928 137.592 389.297 75.6763 136.959 385.394 68.2576 138.88 
389.385 68.4768 138.53 390.328 68.8377 138.764 382.726 68.8659 139.973 
384.347 68.9268 138.977 382.419 68.9525 140.325 383.776 69.518 139.214 
383.976 70.1589 139.188 390.944 71.2354 139.171 383.865 71.2386 140.012 
386.089 73.4086 139.167 386.134 73.4255 139.513 387.282 74.2812 138.646 
389.535 74.6631 138.152 388.052 74.5211 138.568 384.446 66.4076 140.066 
382.575 67.2691 140.322 382.049 67.1772 140.662 385.811 66.3734 139.873 
387.372 66.5066 139.787 388.966 66.6874 139.983 390.347 68.1136 139.523 
390.534 68.2391 139.777 390.87 69.3366 139.625 390.777 68.8946 139.999 
382.404 69.8229 140.94 390.637 71.8652 139.546 390.309 72.2635 139.72 
385.478 72.8834 139.757 385.619 72.9604 140.05 389.863 73.1717 139.478 
386.392 73.4866 139.769 386.384 73.2485 140.409 389.227 73.5949 139.686 
387.697 73.8277 139.745 388.642 73.9046 139.565 389.818 66.0651 141.513 
389.811 66.7458 140.653 381.063 67.0107 141.55 390.305 67.5559 140.723 
390.458 67.9115 140.167 384.352 71.8478 140.867 385.987 72.8649 140.955 
386.979 73.2281 140.791 386.594 63.7978 142.097 387.955 64.1698 142.086 
389.137 64.7266 142.552 379.009 64.7229 143.213 379.518 64.6409 142.872 
380.164 66.9499 142.639 389.083 71.8641 141.588 386.687 72.7112 141.772 
387.412 72.954 141.359 378.187 63.8568 143.98 377.966 64.1276 144.182 
380.445 63.9664 142.72 378.08 64.6535 144.16 389.775 66.5391 142.867 
379.836 67.1159 143.466 389.859 67.4726 142.777 389.729 69.2403 142.553 
387.828 72.5891 141.758 386.874 62.2196 144.084 378.024 63.5139 144.289 
377.422 63.5444 144.902 387.781 62.9912 143.755 377.476 63.9222 144.598 
378.097 65.09 144.414 378.768 66.1399 144.333 381.075 68.7926 143.687 
388.617 69.1349 144.099 382.344 69.7911 144.16 384.113 70.8921 143.645 
385.649 71.6273 143.128 387.227 72.4751 142.185 385.583 60.9941 145.195 
377.034 61.962 145.86 388.776 63.9496 144.071 377.038 63.4021 145.544 
377.194 64.0013 145.427 388.962 64.3967 144.183 377.815 65.1642 145.143 
378.534 66.1855 145.133 381.252 68.9163 144.324 387.321 70.009 144.711 
378.796 60.3054 145.987 376.181 62.2845 146.811 376.335 63.0252 146.769 
379.31 67.1138 145.81 386.362 69.8596 145.356 375.996 60.3763 147.391 
387.689 61.9702 146.165 387.901 63.4603 146.84 376.544 63.7616 146.77 
387.936 64.4335 146.769 377.525 65.3691 146.688 377.886 65.8015 146.969 
380.2 67.7119 146.71 386.356 67.9716 146.855 386.575 60.2125 147.465 
386.73 60.3668 147.802 387.073 61.0603 147.654 387.359 61.9255 147.565 
387.08 65.0372 147.782 386.642 66.4862 147.557 381.65 68.3054 147.141 
381.91 68.1171 147.575 384.463 68.3587 147.336 383.381 57.0696 149.227 
377.116 57.871 148.378 384.267 57.6621 149.03 385.288 58.5637 148.797 
386.407 59.9366 148.813 374.143 61.267 149.46 377.459 65.3544 149.038 
385.236 66.0096 148.92 380.665 67.4328 148.236 385.129 57.5072 150.385 
372.781 58.3138 150.242 372.991 60.9199 150.715 385.265 64.0886 150.166 
381.861 55.7745 150.183 371.926 59.5268 151.088 372.528 60.528 150.975 
377.722 65.3246 150.068 375.592 53.981 151.762 371.02 55.4765 152.318 
370.369 56.3363 152.493 370.49 57.7341 152.213 385.383 61.0328 151.653 
372.816 61.5083 151.78 373.097 61.9734 152.401 383.302 63.7415 151.983 
376.653 64.3631 151.22 379.84 52.7411 153.072 382.265 53.2991 153.239 
383.787 54.6604 152.831 369.58 54.6453 153.65 384.687 56.0912 152.057 
371.237 60.4865 153.102 384.544 60.8442 152.848 377.59 64.4745 151.901 
378.017 64.1455 152.676 379.767 64.1687 152.81 369.757 53.3581 154.146 
372.78 52.2067 153.851 383.859 54.2999 153.973 384.406 55.6673 153.666 
384.633 56.7198 153.642 369.394 56.3253 153.436 384.756 57.8512 153.493 
384.44 59.0619 153.797 367.561 52.5432 155.95 368.876 53.0163 154.86 
384.112 55.1268 154.433 367.698 55.96 155.524 367.789 56.3375 155.526 
384.011 56.4357 154.996 368.1 56.0173 154.866 368.322 57.6028 155.804 
382.273 60.8829 154.981 372.009 61.3589 154.608 372.478 61.5837 154.65 
378.635 62.4432 155.134 369.42 51.2469 155.61 381.684 51.6099 155.448 
367.359 53.7047 155.846 383.623 56.8205 155.598 368.142 57.4567 156.203 
368.465 57.8363 156.258 369.039 58.3172 156.598 380.267 61.4792 155.655 
379.263 62.2128 155.259 372.985 48.6901 157.186 371.237 49.884 156.201 
381.431 50.7745 157.451 382.514 52.0625 156.348 366.015 51.5988 157.537 
366.339 53.901 157.262 371.217 60.4708 155.818 376.558 60.7546 157.188 
365.542 49.8269 158.627 381.994 51.5158 157.45 382.347 52.2178 157.51 
365.916 52.0026 157.598 382.536 52.9981 157.576 365.834 52.9898 157.748 
365.751 53.1352 158.082 375.683 47.0497 159.319 378.492 48.0004 159.298 
379.496 48.7362 158.816 379.737 48.7811 159.175 364.144 48.8144 159.931 
364.048 49.2716 159.857 363.71 49.4561 160.133 363.765 49.9304 160.174 
363 53.0087 159.017 363 53.0087 159.017 363 53.0087 159.017 
363 53.0087 159.017 363 53.0088 159.017 378.514 47.7267 159.893 
378.746 47.7704 160.267 364.723 48.0049 160.02 379.672 48.6651 159.783 
380.143 49.1338 159.734 363.203 48.6345 160.688 362.928 49.1992 160.988 
364.753 51.7389 159.756 363 53.0087 159.017 380.961 53.6929 159.816 
380.534 54.5879 159.901 370.791 57.7605 159.621 376.629 57.7136 159.838 
377.526 46.7716 160.9 377.756 46.8051 161.258 379.177 48.164 160.395 
380.26 49.4839 160.087 362.559 49.2851 161.555 380.508 50.2002 160.303 
363.533 50.6772 161.247 381.097 52.3683 159.879 365.191 52.5591 161.267 
377.834 55.2894 161.197 375.999 45.5305 162.259 376.938 46.1868 161.86 
377.682 46.708 161.854 361.732 46.8422 162.618 378.818 47.8094 161.31 
361.444 47.7708 162.648 361.639 48.6716 162.775 362.708 50.0421 162.417 
[...]
POINT_DATA 2180
COLOR_SCALARS scalars 3
0.101961 0.65098 0.596078 0.101961 0.65098 0.596078 0.101961 0.65098 0.596078 
0.101961 0.65098 0.596078 0.101961 0.65098 0.596078 
0.101961 0.65098 0.596078 0.101961 0.65098 0.596078 
0.101961 0.65098 0.596078 0.101961 0.65098 0.596078 
0.101961 0.65098 0.596078 0.101961 0.65098 0.596078 
0.101961 0.65098 0.596078 0.101961 0.65098 0.596078 
0.101961 0.65098 0.596078 0.101961 0.65098 0.596078 
0.101961 0.65098 0.596078 0.101961 0.65098 0.596078 
0.101961 0.65098 0.596078 0.101961 0.65098 0.596078 
0.101961 0.65098 0.596078 0.101961 0.65098 0.596078 
0.101961 0.65098 0.596078 0.101961 0.65098 0.596078 
0.101961 0.65098 0.596078 0.101961 0.65098 0.596078 
0.101961 0.65098 0.596078 0.101961 0.65098 0.596078 
0.101961 0.65098 0.596078 0.101961 0.65098 0.596078 
0.101961 0.65098 0.596078 0.101961 0.65098 0.596078 
0.101961 0.65098 0.596078 0.101961 0.65098 0.596078 
0.101961 0.65098 0.596078 0.101961 0.65098 0.596078 
0.101961 0.65098 0.596078 0.101961 0.65098 0.596078 
0.101961 0.65098 0.596078 0.101961 0.65098 0.596078 
0.101961 0.65098 0.596078 0.101961 0.65098 0.596078 
0.101961 0.65098 0.596078 0.101961 0.65098 0.596078 
0.101961 0.65098 0.596078 0.101961 0.65098 0.596078 
0.101961 0.65098 0.596078 0.101961 0.65098 0.596078 
0.101961 0.65098 0.596078 0.101961 0.65098 0.596078 
0.101961 0.65098 0.596078 0.101961 0.65098 0.596078 
0.101961 0.65098 0.596078 0.101961 0.65098 0.596078 
0.101961 0.65098 0.596078 0.101961 0.65098 0.596078 
0.101961 0.65098 0.596078 0.101961 0.65098 0.596078 
0.101961 0.65098 0.596078 0.101961 0.65098 0.596078 
0.101961 0.65098 0.596078 0.101961 0.65098 0.596078 
0.101961 0.65098 0.596078 0.101961 0.65098 0.596078 
0.101961 0.65098 0.596078 0.101961 0.65098 0.596078 
0.101961 0.65098 0.596078 0.101961 0.65098 0.596078 
0.101961 0.65098 0.596078 0.101961 0.65098 0.596078 
0.101961 0.65098 0.596078 0.101961 0.65098 0.596078 
0.101961 0.65098 0.596078 0.101961 0.65098 0.596078 
0.101961 0.65098 0.596078 0.101961 0.65098 0.596078 
0.101961 0.65098 0.596078 0.101961 0.65098 0.596078 
0.101961 0.65098 0.596078 0.101961 0.65098 0.596078 
0.101961 0.65098 0.596078 0.101961 0.65098 0.596078 
0.101961 0.65098 0.596078 0.101961 0.65098 0.596078 
0.101961 0.65098 0.596078 0.101961 0.65098 0.596078 
0.101961 0.65098 0.596078 0.101961 0.65098 0.596078 
0.101961 0.65098 0.596078 0.101961 0.65098 0.596078 
0.101961 0.65098 0.596078 0.101961 0.65098 0.596078 
0.101961 0.65098 0.596078 0.101961 0.65098 0.596078 
0.101961 0.65098 0.596078 0.101961 0.65098 0.596078 
0.101961 0.65098 0.596078 0.101961 0.65098 0.596078 
0.101961 0.65098 0.596078 0.101961 0.65098 0.596078 
0.101961 0.65098 0.596078 0.101961 0.65098 0.596078 
0.101961 0.65098 0.596078 0.101961 0.65098 0.596078 
0.101961 0.65098 0.596078 0.101961 0.65098 0.596078 
0.101961 0.65098 0.596078 0.101961 0.65098 0.596078 
0.101961 0.65098 0.596078 0.101961 0.65098 0.596078 
0.101961 0.65098 0.596078 0.101961 0.65098 0.596078 
0.101961 0.65098 0.596078 0.101961 0.65098 0.596078 
0.101961 0.65098 0.596078 0.101961 0.65098 0.596078 
0.101961 0.65098 0.596078 0.101961 0.65098 0.596078 
0.101961 0.65098 0.596078 0.101961 0.65098 0.596078 
0.101961 0.65098 0.596078 0.101961 0.65098 0.596078 
0.101961 0.65098 0.596078 0.101961 0.65098 0.596078 
0.101961 0.65098 0.596078 0.101961 0.65098 0.596078 
0.101961 0.65098 0.596078 0.101961 0.65098 0.596078 
0.101961 0.65098 0.596078 0.101961 0.65098 0.596078 
0.101961 0.65098 0.596078 0.101961 0.65098 0.596078 
0.101961 0.65098 0.596078 0.101961 0.65098 0.596078 
0.101961 0.65098 0.596078 0.101961 0.65098 0.596078 
0.101961 0.65098 0.596078 0.101961 0.65098 0.596078 
0.101961 0.65098 0.596078 0.101961 0.65098 0.596078 
0.101961 0.65098 0.596078 0.101961 0.65098 0.596078 
0.101961 0.65098 0.596078 0.101961 0.65098 0.596078 
0.101961 0.65098 0.596078 0.101961 0.65098 0.596078 
0.101961 0.65098 0.596078 0.101961 0.65098 0.596078 
0.101961 0.65098 0.596078 0.101961 0.65098 0.596078 
0.101961 0.65098 0.596078 0.101961 0.65098 0.596078 
0.101961 0.65098 0.596078 0.101961 0.65098 0.596078 
0.101961 0.65098 0.596078 0.101961 0.65098 0.596078 
0.101961 0.65098 0.596078 0.101961 0.65098 0.596078 
0.101961 0.65098 0.596078 0.101961 0.65098 0.596078 
0.101961 0.65098 0.596078 0.101961 0.65098 0.596078 
0.101961 0.65098 0.596078 0.101961 0.65098 0.596078 
0.101961 0.65098 0.596078 0.101961 0.65098 0.596078 
0.101961 0.65098 0.596078 0.101961 0.65098 0.596078 
0.101961 0.65098 0.596078 0.101961 0.65098 0.596078 
0.101961 0.65098 0.596078 0.101961 0.65098 0.596078 
0.101961 0.65098 0.596078 0.101961 0.65098 0.596078 
0.101961 0.65098 0.596078 0.101961 0.65098 0.596078 
0.101961 0.65098 0.596078 0.101961 0.65098 0.596078 
0.101961 0.65098 0.596078 0.101961 0.65098 0.596078 
0.101961 0.65098 0.596078 0.101961 0.65098 0.596078 
0.101961 0.65098 0.596078 0.101961 0.65098 0.596078 
0.101961 0.65098 0.596078 0.101961 0.65098 0.596078 
0.101961 0.65098 0.596078 0.101961 0.65098 0.596078 
0.101961 0.65098 0.596078 0.101961 0.65098 0.596078 
0.101961 0.65098 0.596078 0.101961 0.65098 0.596078 
0.101961 0.65098 0.596078 0.101961 0.65098 0.596078 
0.101961 0.65098 0.596078 0.101961 0.65098 0.596078 
0.101961 0.65098 0.596078 0.101961 0.65098 0.596078 
0.101961 0.65098 0.596078 0.101961 0.65098 0.596078 
0.101961 0.65098 0.596078 0.101961 0.65098 0.596078 
0.101961 0.65098 0.596078 0.101961 0.65098 0.596078 
0.101961 0.65098 0.596078 0.101961 0.65098 0.596078 
0.101961 0.65098 0.596078 0.101961 0.65098 0.596078 
0.101961 0.65098 0.596078 0.101961 0.65098 0.596078 
0.101961 0.65098 0.596078 0.101961 0.65098 0.596078 
0.101961 0.65098 0.596078 0.101961 0.65098 0.596078 
0.101961 0.65098 0.596078 0.101961 0.65098 0.596078 
0.101961 0.65098 0.596078 0.101961 0.65098 0.596078 
0.101961 0.65098 0.596078 0.101961 0.65098 0.596078 
0.101961 0.65098 0.596078 0.101961 0.65098 0.596078 
0.101961 0.65098 0.596078 0.101961 0.65098 0.596078 
0.101961 0.65098 0.596078 0.101961 0.65098 0.596078 
0.101961 0.65098 0.596078 0.101961 0.65098 0.596078 
0.101961 0.65098 0.596078 0.101961 0.65098 0.596078 
0.101961 0.65098 0.596078 0.101961 0.65098 0.596078 
0.101961 0.65098 0.596078 0.101961 0.65098 0.596078 
0.101961 0.65098 0.596078 0.101961 0.65098 0.596078 
0.101961 0.65098 0.596078 0.101961 0.65098 0.596078 
0.101961 0.65098 0.596078 0.101961 0.65098 0.596078 
0.101961 0.65098 0.596078 0.101961 0.65098 0.596078 
0.101961 0.65098 0.596078 0.101961 0.65098 0.596078 
0.101961 0.65098 0.596078 0.101961 0.65098 0.596078 
0.101961 0.65098 0.596078 0.101961 0.65098 0.596078 
0.101961 0.65098 0.596078 0.101961 0.65098 0.596078 
0.101961 0.65098 0.596078 0.101961 0.65098 0.596078 
0.101961 0.65098 0.596078 0.101961 0.65098 0.596078 
0.101961 0.65098 0.596078 0.101961 0.65098 0.596078 
0.101961 0.65098 0.596078 0.101961 0.65098 0.596078 
0.101961 0.65098 0.596078 0.101961 0.65098 0.596078 
0.101961 0.65098 0.596078 0.101961 0.65098 0.596078 
0.101961 0.65098 0.596078 0.101961 0.65098 0.596078 
0.101961 0.65098 0.596078 0.101961 0.65098 0.596078 
0.101961 0.65098 0.596078 0.101961 0.65098 0.596078 
0.101961 0.65098 0.596078 0.101961 0.65098 0.596078 
0.101961 0.65098 0.596078 0.101961 0.65098 0.596078 
0.101961 0.65098 0.596078 0.101961 0.65098 0.596078 
0.101961 0.65098 0.596078 0.101961 0.65098 0.596078 
0.101961 0.65098 0.596078 0.101961 0.65098 0.596078 
0.101961 0.65098 0.596078 0.101961 0.65098 0.596078 
0.101961 0.65098 0.596078 0.101961 0.65098 0.596078 
0.101961 0.65098 0.596078 0.101961 0.65098 0.596078 
0.101961 0.65098 0.596078 0.101961 0.65098 0.596078 
0.101961 0.65098 0.596078 0.101961 0.65098 0.596078 
0.101961 0.65098 0.596078 0.101961 0.65098 0.596078 
0.101961 0.65098 0.596078 0.101961 0.65098 0.596078 
0.101961 0.65098 0.596078 0.101961 0.65098 0.596078 
0.101961 0.65098 0.596078 0.101961 0.65098 0.596078 
0.101961 0.65098 0.596078 0.101961 0.65098 0.596078 
0.101961 0.65098 0.596078 0.101961 0.65098 0.596078 
0.101961 0.65098 0.596078 0.101961 0.65098 0.596078 
0.101961 0.65098 0.596078 0.101961 0.65098 0.596078 
0.101961 0.65098 0.596078 0.101961 0.65098 0.596078 
0.101961 0.65098 0.596078 0.101961 0.65098 0.596078 
0.101961 0.65098 0.596078 0.101961 0.65098 0.596078 
0.101961 0.65098 0.596078 0.101961 0.65098 0.596078 
0.101961 0.65098 0.596078 0.101961 0.65098 0.596078 
0.101961 0.65098 0.596078 0.101961 0.65098 0.596078 
0.101961 0.65098 0.596078 0.101961 0.65098 0.596078 
0.101961 0.65098 0.596078 0.101961 0.65098 0.596078 
0.101961 0.65098 0.596078 0.101961 0.65098 0.596078 
0.101961 0.65098 0.596078 0.101961 0.65098 0.596078 
0.101961 0.65098 0.596078 0.101961 0.65098 0.596078 
0.101961 0.65098 0.596078 0.101961 0.65098 0.596078 
0.101961 0.65098 0.596078 0.101961 0.65098 0.596078 
0.101961 0.65098 0.596078 0.101961 0.65098 0.596078 
0.101961 0.65098 0.596078 0.101961 0.65098 0.596078 
0.101961 0.65098 0.596078 0.101961 0.65098 0.596078 
0.101961 0.65098 0.596078 0.101961 0.65098 0.596078 
0.101961 0.65098 0.596078 0.101961 0.65098 0.596078 
0.101961 0.65098 0.596078 0.101961 0.65098 0.596078 
0.101961 0.65098 0.596078 0.101961 0.65098 0.596078 
0.101961 0.65098 0.596078 0.101961 0.65098 0.596078 
0.101961 0.65098 0.596078 0.101961 0.65098 0.596078 
0.101961 0.65098 0.596078 0.101961 0.65098 0.596078 
0.101961 0.65098 0.596078 0.101961 0.65098 0.596078 
0.101961 0.65098 0.596078 0.101961 0.65098 0.596078 
0.101961 0.65098 0.596078 0.101961 0.65098 0.596078 
0.101961 0.65098 0.596078 0.101961 0.65098 0.596078 
0.101961 0.65098 0.596078 0.101961 0.65098 0.596078 
0.101961 0.65098 0.596078 0.101961 0.65098 0.596078 
0.101961 0.65098 0.596078 0.101961 0.65098 0.596078 
0.101961 0.65098 0.596078 0.101961 0.65098 0.596078 
0.101961 0.65098 0.596078 0.101961 0.65098 0.596078 
0.101961 0.65098 0.596078 0.101961 0.65098 0.596078 
0.101961 0.65098 0.596078 0.101961 0.65098 0.596078 
0.101961 0.65098 0.596078 0.101961 0.65098 0.596078 
0.101961 0.65098 0.596078 0.101961 0.65098 0.596078 
0.101961 0.65098 0.596078 0.101961 0.65098 0.596078 
0.101961 0.65098 0.596078 0.101961 0.65098 0.596078 
0.101961 0.65098 0.596078 0.101961 0.65098 0.596078 
0.101961 0.65098 0.596078 0.101961 0.65098 0.596078 
0.101961 0.65098 0.596078 0.101961 0.65098 0.596078 
0.101961 0.65098 0.596078 0.101961 0.65098 0.596078 
0.101961 0.65098 0.596078 0.101961 0.65098 0.596078 
0.101961 0.65098 0.596078 0.101961 0.65098 0.596078 
0.101961 0.65098 0.596078 0.101961 0.65098 0.596078 
0.101961 0.65098 0.596078 0.101961 0.65098 0.596078 
0.101961 0.65098 0.596078 0.101961 0.65098 0.596078 
0.101961 0.65098 0.596078 0.101961 0.65098 0.596078 
0.101961 0.65098 0.596078 0.101961 0.65098 0.596078 
0.101961 0.65098 0.596078 0.101961 0.65098 0.596078 
0.101961 0.65098 0.596078 0.101961 0.65098 0.596078 
0.101961 0.65098 0.596078 0.101961 0.65098 0.596078 
0.101961 0.65098 0.596078 0.101961 0.65098 0.596078 
0.101961 0.65098 0.596078 0.101961 0.65098 0.596078 
0.101961 0.65098 0.596078 0.101961 0.65098 0.596078 
0.101961 0.65098 0.596078 0.101961 0.65098 0.596078 
0.101961 0.65098 0.596078 0.101961 0.65098 0.596078 
0.101961 0.65098 0.596078 0.101961 0.65098 0.596078 
0.101961 0.65098 0.596078 0.101961 0.65098 0.596078 
0.101961 0.65098 0.596078 0.101961 0.65098 0.596078 
0.101961 0.65098 0.596078 0.101961 0.65098 0.596078 
0.101961 0.65098 0.596078 0.101961 0.65098 0.596078 
0.101961 0.65098 0.596078 0.101961 0.65098 0.596078 
0.101961 0.65098 0.596078 0.101961 0.65098 0.596078 
0.101961 0.65098 0.596078 0.101961 0.65098 0.596078 
0.101961 0.65098 0.596078 0.101961 0.65098 0.596078 
0.101961 0.65098 0.596078 0.101961 0.65098 0.596078 
0.101961 0.65098 0.596078 0.101961 0.65098 0.596078 
0.101961 0.65098 0.596078 0.101961 0.65098 0.596078 
0.101961 0.65098 0.596078 0.101961 0.65098 0.596078 
0.101961 0.65098 0.596078 0.101961 0.65098 0.596078 
0.101961 0.65098 0.596078 0.101961 0.65098 0.596078 
0.101961 0.65098 0.596078 0.101961 0.65098 0.596078 
0.101961 0.65098 0.596078 0.101961 0.65098 0.596078 
0.101961 0.65098 0.596078 0.101961 0.65098 0.596078 
0.101961 0.65098 0.596078 0.101961 0.65098 0.596078 
0.101961 0.65098 0.596078 0.101961 0.65098 0.596078 
0.101961 0.65098 0.596078 0.101961 0.65098 0.596078 
0.101961 0.65098 0.596078 0.101961 0.65098 0.596078 
0.101961 0.65098 0.596078 0.101961 0.65098 0.596078 
0.101961 0.65098 0.596078 0.101961 0.65098 0.596078 
0.101961 0.65098 0.596078 0.101961 0.65098 0.596078 
0.101961 0.65098 0.596078 0.101961 0.65098 0.596078 
0.101961 0.65098 0.596078 0.101961 0.65098 0.596078 
0.101961 0.65098 0.596078 0.101961 0.65098 0.596078 
0.101961 0.65098 0.596078 0.101961 0.65098 0.596078 
0.101961 0.65098 0.596078 0.101961 0.65098 0.596078 
0.101961 0.65098 0.596078 0.101961 0.65098 0.596078 
0.101961 0.65098 0.596078 0.101961 0.65098 0.596078 
0.101961 0.65098 0.596078 0.101961 0.65098 0.596078 
0.101961 0.65098 0.596078 0.101961 0.65098 0.596078 
0.101961 0.65098 0.596078 0.101961 0.65098 0.596078 
0.101961 0.65098 0.596078 0.101961 0.65098 0.596078 
0.101961 0.65098 0.596078 0.101961 0.65098 0.596078 
0.101961 0.65098 0.596078 0.101961 0.65098 0.596078 
0.101961 0.65098 0.596078 0.101961 0.65098 0.596078 
0.101961 0.65098 0.596078 0.101961 0.65098 0.596078 
0.101961 0.65098 0.596078 0.101961 0.65098 0.596078 
0.101961 0.65098 0.596078 0.101961 0.65098 0.596078 
0.101961 0.65098 0.596078 0.101961 0.65098 0.596078 
0.101961 0.65098 0.596078 0.101961 0.65098 0.596078 
0.101961 0.65098 0.596078 0.101961 0.65098 0.596078 
0.101961 0.65098 0.596078 0.101961 0.65098 0.596078 
0.101961 0.65098 0.596078 0.101961 0.65098 0.596078 
0.101961 0.65098 0.596078 0.101961 0.65098 0.596078 
0.101961 0.65098 0.596078 0.101961 0.65098 0.596078 
0.101961 0.65098 0.596078 0.101961 0.65098 0.596078 
0.101961 0.65098 0.596078 0.101961 0.65098 0.596078 
0.101961 0.65098 0.596078 0.101961 0.65098 0.596078 
0.101961 0.65098 0.596078 0.101961 0.65098 0.596078 
0.101961 0.65098 0.596078 0.101961 0.65098 0.596078 
0.101961 0.65098 0.596078 0.101961 0.65098 0.596078 
0.101961 0.65098 0.596078 0.101961 0.65098 0.596078 
0.101961 0.65098 0.596078 0.101961 0.65098 0.596078 
0.101961 0.65098 0.596078 0.101961 0.65098 0.596078 
0.101961 0.65098 0.596078 0.101961 0.65098 0.596078 
0.101961 0.65098 0.596078 0.101961 0.65098 0.596078 
0.101961 0.65098 0.596078 0.101961 0.65098 0.596078 
0.101961 0.65098 0.596078 0.101961 0.65098 0.596078 
0.101961 0.65098 0.596078 0.101961 0.65098 0.596078 
0.101961 0.65098 0.596078 0.101961 0.65098 0.596078 
0.101961 0.65098 0.596078 0.101961 0.65098 0.596078 
0.101961 0.65098 0.596078 0.101961 0.65098 0.596078 
0.101961 0.65098 0.596078 0.101961 0.65098 0.596078 
0.101961 0.65098 0.596078 0.101961 0.65098 0.596078 
0.101961 0.65098 0.596078 0.101961 0.65098 0.596078 
0.101961 0.65098 0.596078 0.101961 0.65098 0.596078 
0.101961 0.65098 0.596078 0.101961 0.65098 0.596078 
0.101961 0.65098 0.596078 0.101961 0.65098 0.596078 
0.101961 0.65098 0.596078 0.101961 0.65098 0.596078 
0.101961 0.65098 0.596078 0.101961 0.65098 0.596078 
0.101961 0.65098 0.596078 0.101961 0.65098 0.596078 
0.101961 0.65098 0.596078 0.101961 0.65098 0.596078 
0.101961 0.65098 0.596078 0.101961 0.65098 0.596078 
0.101961 0.65098 0.596078 0.101961 0.65098 0.596078 
0.101961 0.65098 0.596078 0.101961 0.65098 0.596078 
0.101961 0.65098 0.596078 0.101961 0.65098 0.596078 
0.101961 0.65098 0.596078 0.101961 0.65098 0.596078 
0.101961 0.65098 0.596078 0.101961 0.65098 0.596078 
0.101961 0.65098 0.596078 0.101961 0.65098 0.596078 
0.101961 0.65098 0.596078 0.101961 0.65098 0.596078 
0.101961 0.65098 0.596078 0.101961 0.65098 0.596078 
0.101961 0.65098 0.596078 0.101961 0.65098 0.596078 
0.101961 0.65098 0.596078 0.101961 0.65098 0.596078 
0.101961 0.65098 0.596078 0.101961 0.65098 0.596078 
0.101961 0.65098 0.596078 0.101961 0.65098 0.596078 
0.101961 0.65098 0.596078 0.101961 0.65098 0.596078 
0.101961 0.65098 0.596078 0.101961 0.65098 0.596078 
0.101961 0.65098 0.596078 0.101961 0.65098 0.596078 
0.101961 0.65098 0.596078 0.101961 0.65098 0.596078 
0.101961 0.65098 0.596078 0.101961 0.65098 0.596078 
0.101961 0.65098 0.596078 0.101961 0.65098 0.596078 
0.101961 0.65098 0.596078 0.101961 0.65098 0.596078 
0.101961 0.65098 0.596078 0.101961 0.65098 0.596078 
0.101961 0.65098 0.596078 0.101961 0.65098 0.596078 
0.101961 0.65098 0.596078 0.101961 0.65098 0.596078 
0.101961 0.65098 0.596078 0.101961 0.65098 0.596078 
0.101961 0.65098 0.596078 0.101961 0.65098 0.596078 
0.101961 0.65098 0.596078 0.101961 0.65098 0.596078 
0.101961 0.65098 0.596078 0.101961 0.65098 0.596078 
0.101961 0.65098 0.596078 0.101961 0.65098 0.596078 
0.101961 0.65098 0.596078 0.101961 0.65098 0.596078 
0.101961 0.65098 0.596078 0.101961 0.65098 0.596078 
0.101961 0.65098 0.596078 0.101961 0.65098 0.596078 
0.101961 0.65098 0.596078 0.101961 0.65098 0.596078 
0.101961 0.65098 0.596078 0.101961 0.65098 0.596078 
0.101961 0.65098 0.596078 0.101961 0.65098 0.596078 
0.101961 0.65098 0.596078 0.101961 0.65098 0.596078 
0.101961 0.65098 0.596078 0.101961 0.65098 0.596078 
0.101961 0.65098 0.596078 0.101961 0.65098 0.596078 
0.101961 0.65098 0.596078 0.101961 0.65098 0.596078 
0.101961 0.65098 0.596078 0.101961 0.65098 0.596078 
0.101961 0.65098 0.596078 0.101961 0.65098 0.596078 
0.101961 0.65098 0.596078 0.101961 0.65098 0.596078 
0.101961 0.65098 0.596078 0.101961 0.65098 0.596078 
0.101961 0.65098 0.596078 0.101961 0.65098 0.596078 
0.101961 0.65098 0.596078 0.101961 0.65098 0.596078 
0.101961 0.65098 0.596078 0.101961 0.65098 0.596078 
0.101961 0.65098 0.596078 0.101961 0.65098 0.596078 
0.101961 0.65098 0.596078 0.101961 0.65098 0.596078 
0.101961 0.65098 0.596078 0.101961 0.65098 0.596078 
0.101961 0.65098 0.596078 0.101961 0.65098 0.596078 
0.101961 0.65098 0.596078 0.101961 0.65098 0.596078 
0.101961 0.65098 0.596078 0.101961 0.65098 0.596078 
0.101961 0.65098 0.596078 0.101961 0.65098 0.596078 
0.101961 0.65098 0.596078 0.101961 0.65098 0.596078 
0.101961 0.65098 0.596078 0.101961 0.65098 0.596078 
0.101961 0.65098 0.596078 0.101961 0.65098 0.596078 
0.101961 0.65098 0.596078 0.101961 0.65098 0.596078 
0.101961 0.65098 0.596078 0.101961 0.65098 0.596078 
0.101961 0.65098 0.596078 0.101961 0.65098 0.596078 
0.101961 0.65098 0.596078 0.101961 0.65098 0.596078 
0.101961 0.65098 0.596078 0.101961 0.65098 0.596078 
0.101961 0.65098 0.596078 0.101961 0.65098 0.596078 
0.101961 0.65098 0.596078 0.101961 0.65098 0.596078 
0.101961 0.65098 0.596078 0.101961 0.65098 0.596078 
0.101961 0.65098 0.596078 0.101961 0.65098 0.596078 
0.101961 0.65098 0.596078 0.101961 0.65098 0.596078 
0.101961 0.65098 0.596078 0.101961 0.65098 0.596078 
0.101961 0.65098 0.596078 0.101961 0.65098 0.596078 
0.101961 0.65098 0.596078 0.101961 0.65098 0.596078 
0.101961 0.65098 0.596078 0.101961 0.65098 0.596078 
0.101961 0.65098 0.596078 0.101961 0.65098 0.596078 
0.101961 0.65098 0.596078 0.101961 0.65098 0.596078 
0.101961 0.65098 0.596078 0.101961 0.65098 0.596078 
0.101961 0.65098 0.596078 0.101961 0.65098 0.596078 
0.101961 0.65098 0.596078 0.101961 0.65098 0.596078 
0.101961 0.65098 0.596078 0.101961 0.65098 0.596078 
0.101961 0.65098 0.596078 0.101961 0.65098 0.596078 
0.101961 0.65098 0.596078 0.101961 0.65098 0.596078 
0.101961 0.65098 0.596078 0.101961 0.65098 0.596078 
0.101961 0.65098 0.596078 0.101961 0.65098 0.596078 
0.101961 0.65098 0.596078 0.101961 0.65098 0.596078 
0.101961 0.65098 0.596078 0.101961 0.65098 0.596078 
0.101961 0.65098 0.596078 0.101961 0.65098 0.596078 
0.101961 0.65098 0.596078 0.101961 0.65098 0.596078 
0.101961 0.65098 0.596078 0.101961 0.65098 0.596078 
0.101961 0.65098 0.596078 0.101961 0.65098 0.596078 
0.101961 0.65098 0.596078 0.101961 0.65098 0.596078 
0.101961 0.65098 0.596078 0.101961 0.65098 0.596078 
0.101961 0.65098 0.596078 0.101961 0.65098 0.596078 
0.101961 0.65098 0.596078 0.101961 0.65098 0.596078 
0.101961 0.65098 0.596078 0.101961 0.65098 0.596078 
0.101961 0.65098 0.596078 0.101961 0.65098 0.596078 
0.101961 0.65098 0.596078 0.101961 0.65098 0.596078 