# vtk DataFile Version 4.2
vtk output
ASCII
DATASET POLYDATA
POINTS 1919 float
372.654 66.8411 162.347 372.627 66.9819 162.332 372.48 66.9704 162.37 
372.784 67.0129 162.354 372.639 67.1206 162.408 373.294 67.6322 162.314 
373.372 67.6988 162.281 373.368 67.677 162.299 373.343 67.674 162.316 
371.879 66.1977 162.619 371.45 66.0875 162.719 372.58 66.3091 162.637 
372.867 66.6043 162.794 373.061 67.1476 162.592 372.729 67.2921 162.5 
372.643 67.2745 162.667 373.058 67.3834 162.396 373.263 67.5272 162.378 
373.33 67.6277 162.35 373.173 67.5482 162.409 373.267 67.5897 162.399 
368.401 64.8848 163.62 370.952 65.1368 163.171 366.919 65.2253 163.788 
370.951 65.7052 162.956 365.437 66.1184 164.012 369.508 66.646 163.708 
370.172 66.5531 163.275 372.723 67.1835 162.857 372.395 66.974 163.178 
372.595 66.9723 163.134 370.675 66.7358 163.235 373.086 67.4309 162.557 
373.203 67.4531 162.482 372.064 64.0698 164.103 372.322 63.9934 164.519 
370.982 64.1427 163.766 371.54 64.4361 163.61 372.284 64.6118 163.837 
363.612 64.8154 164.621 372.652 66.1376 163.564 372.65 66.554 163.378 
365.077 66.6936 164.529 364.623 66.7805 164.774 368.541 66.727 164.091 
369.121 66.7149 164.15 370.762 66.6245 163.986 366.145 66.8356 164.81 
370.779 62.5795 164.98 371.546 62.467 165.425 365.365 63.2894 164.996 
372.123 63.4572 164.907 372.33 63.9744 164.882 366.203 63.8768 164.456 
370.479 65.8426 165.214 359.321 66.059 166.121 371.656 66.2475 164.236 
360.263 66.5707 166.039 360.602 66.7738 166.164 367.599 66.7731 164.892 
363.53 66.8599 165.456 371.611 62.1509 165.869 371.871 62.4152 166.275 
368.981 65.4913 166.299 370.373 60.2413 167.287 371.116 60.4608 167.719 
371.52 62.7794 167.069 358.939 63.7619 167 370.728 63.8714 166.951 
356.205 65.2764 167.826 356.231 66.2073 167.895 360.04 67.0136 167.417 
369.553 59.7574 167.636 371.319 60.3593 168.543 371.478 61.1661 167.544 
355.052 65.3115 168.63 355.317 66.0798 168.452 355.331 66.513 168.62 
355.909 66.9833 168.833 360.015 66.9747 167.969 371.116 59.4449 169.507 
371.345 60.0621 169.02 371.407 60.2258 168.852 371.389 60.1844 168.988 
371.228 60.8236 168.719 371.365 60.3392 168.863 353.625 65.5863 169.494 
353.296 66.2819 169.672 352.996 66.1058 169.825 359.072 66.7309 169.425 
359.447 66.5259 169.606 360.473 66.5752 168.778 353.559 66.9818 169.812 
355.654 67.1797 169.502 356.464 67.17 169.506 370.607 57.5865 170.402 
371.233 60.1492 169.22 351.757 66.0811 170.671 351.736 67.0658 170.709 
354.232 67.5508 170.733 370.47 57.2063 170.765 370.322 56.6587 171.359 
370.168 56.8517 170.972 369.526 57.1687 170.448 370.925 58.183 171.194 
362.762 58.2422 170.809 370.79 58.9457 170.986 356.307 61.3324 170.815 
360.321 65.3568 170.748 350.616 66.0254 171.576 357.448 66.3858 171.421 
349.566 67.2693 172.133 349.411 67.7605 172.263 351.18 67.8553 171.394 
352.523 67.9565 171.144 353.548 67.8244 171.423 355.828 67.1927 170.829 
349.702 68.1495 172.27 352.527 68.1262 171.44 369.94 56.142 171.868 
370.752 56.6384 172.172 370.371 58.4098 172.187 349.539 66.1453 172.507 
349.028 68.0595 172.593 350.706 68.5553 172.32 349.558 68.8491 173.109 
368.74 55.4268 172.593 370.535 56.0387 172.523 370.86 56.4488 173.013 
370.804 57.1393 172.901 370.561 57.8031 172.614 347.925 68.1498 173.469 
346.876 68.5891 174.207 346.684 68.8645 174.459 348.419 68.6775 173.396 
351.321 68.7002 173.001 351.269 68.7001 173.34 348.832 68.9952 173.679 
369.85 54.1946 174.628 370.265 54.7137 174.216 370.896 56.1192 173.724 
370.945 56.4975 173.424 370.99 56.2982 173.663 370.574 56.8074 173.728 
369.539 58.0576 173.356 349.254 64.9951 173.642 347.652 66.8915 173.922 
346.419 68.1895 174.6 351.212 68.6049 173.822 346.182 68.8534 174.792 
350.35 68.9022 174.195 368.059 53.3898 175.198 368.92 53.2459 175.477 
369.656 53.6893 175.227 369.937 53.6928 175.675 370.486 54.9982 174.188 
370.736 56.2007 174.058 370.946 56.2394 173.789 345.413 68.1791 175.621 
345.018 69.2121 175.757 345.359 69.7077 175.717 346.004 69.817 175.596 
347.11 69.6728 175.653 348.247 69.3213 175.162 345.956 70.0695 176 
369.614 53.0482 176.126 370.156 54.0444 176.267 370.037 54.7708 176.221 
363.135 59.3269 175.766 346.491 65.8316 176.336 348.779 69.0784 175.829 
349.338 68.8362 175.851 342.63 70.667 177.31 343.746 70.7664 176.925 
344.265 70.7519 176.906 345.663 70.2977 176.551 343.132 71.3489 177.518 
367.394 52.2373 176.916 368.622 52.3764 176.666 366.66 52.3378 176.981 
370.096 53.7386 177.135 370.081 54.1495 176.824 370.133 53.9404 177.075 
342.485 71.7605 178.032 342.864 71.6786 177.758 342.782 71.7575 177.854 
343.054 71.6056 177.748 342.896 71.726 177.798 368.388 51.2042 178.596 
369.573 52.1508 177.666 369.415 51.8213 178.095 369.634 52.0804 178.109 
369.943 53.7884 177.482 369.798 53.4968 177.962 370.103 53.8685 177.207 
348.117 68.8272 177.742 341.538 70.0316 178.581 345.708 70.2975 177.671 
341.014 72.3875 178.731 341.669 72.1894 178.538 342.734 71.8252 178.587 
342.904 71.7101 177.953 339.715 72.6113 179.26 340.698 72.7795 179.05 
341.144 72.618 178.97 338.384 73.7317 180.199 339.5 73.5137 179.875 
368.582 50.445 179.925 368.926 50.6061 179.971 369.259 51.118 179.658 
369.477 51.6179 179.715 342.003 68.1781 179.866 337.815 73.1296 180.524 
337.529 73.1187 180.801 340.605 73.0981 179.902 337.037 74.233 180.99 
337.007 74.6812 181.097 336.697 74.6551 181.211 337.369 74.7096 181.028 
337.867 74.738 181.252 368.824 49.7544 181.543 369.125 50.2373 181.543 
368.802 51.6595 181.457 369.293 51.7654 180.503 337.746 71.974 181.526 
337.855 74.8441 181.63 334.889 75.6743 182.365 333.535 77.1595 183.173 
333.616 76.9597 183.133 336.039 75.837 182.361 333.487 77.2747 183.271 
369.26 50.8824 181.143 337.713 74.9425 182.466 333.622 76.2854 183.328 
334.243 76.7485 182.957 333.306 77.4219 183.496 333.015 77.4839 183.801 
333.569 77.3544 183.434 333.219 77.5911 183.85 367.392 48.0955 183.471 
369.077 49.2819 183.443 337.933 74.7125 182.986 332.771 77.0999 183.974 
332.355 77.6126 184.545 332.619 77.8766 184.579 368.238 47.8846 184.071 
368.423 47.7492 184.5 368.966 48.5808 184.46 369.157 49.071 183.988 
369.205 49.1684 183.999 369.034 49.5474 183.783 369.179 49.2644 183.958 
333.243 75.884 184.095 331.74 77.7713 185.314 331.858 78.4917 185.645 
332.551 78.2196 185.27 368.876 48.1728 185.431 369.085 49.1023 184.251 
332.927 75.3517 185.21 333.404 77.8028 185.819 331.605 78.4703 185.804 
331.203 78.5484 186.313 368.289 46.9029 185.962 368.251 46.5828 186.556 
368.489 46.8566 186.318 368.67 47.1474 186.292 368.438 48.5355 186.469 
333.354 77.7867 186.436 330.474 78.6914 187.261 330.74 79.0064 187.28 
368.713 47.6205 186.851 368.611 48.0402 186.777 332.002 78.7324 187.04 
330.282 79.4438 188.06 366.968 45.4926 188.005 368.562 46.1048 188.783 
329.859 78.3715 188.299 329.536 78.8176 188.727 329.741 79.5525 188.616 
329.457 79.5605 188.987 329.618 79.8623 189.258 368.686 45.8471 189.635 
368.61 46.7549 188.243 368.488 46.6751 188.809 368.542 46.1701 189.513 
333.502 77.1653 188.585 329.338 78.1735 189.532 328.932 79.368 189.685 
328.688 79.6273 190.102 328.59 80.0123 190.449 328.94 80.3526 190.483 
329.629 80.1275 190.079 368.664 45.1376 190.63 368.685 45.5709 189.948 
367.432 47.3523 189.819 328.46 79.2114 190.571 328.692 80.3122 190.632 
329.461 80.2931 190.872 365.671 43.8218 191.482 368.569 44.5571 191.487 
368.733 44.9547 191.037 368.771 45.0578 190.886 368.77 45.0354 191.005 
368.565 45.4264 190.826 368.73 45.1304 190.906 330.556 79.5315 190.737 
327.939 80.311 191.674 328.446 80.7058 192.01 368.152 43.9076 192.083 
368.518 44.1349 192.293 368.732 44.3328 191.968 368.824 44.3218 192.039 
368.781 44.2584 192.107 368.836 44.2868 192.1 368.659 45.0238 191.219 
368.531 44.8078 191.854 368.717 44.451 191.954 328.856 77.3161 192.066 
327.279 80.6755 193.177 367.22 42.6205 193.802 368.211 43.7206 192.891 
368.57 44.4085 192.311 368.746 44.2745 192.176 326.663 80.493 193.994 
326.932 80.6124 193.63 326.37 80.4683 194.617 326.554 81.0927 194.895 
366.727 41.7561 195.577 367.225 42.2117 194.886 367.615 42.4483 195.468 
367.829 42.9434 194.791 367.806 43.77 195.131 326.694 81.294 195.34 
366.284 41.5208 195.998 367.028 41.778 195.876 367.687 43.7174 195.724 
325.364 81.031 196.76 325.361 81.5848 197.191 327.131 81.3513 196.065 
325.963 81.5709 196.735 326.629 81.446 196.16 366.387 41.1132 196.917 
366.507 41.134 197.036 366.003 41.2585 196.59 364.474 41.4881 196.8 
367.629 42.3046 197.214 367.113 43.897 196.826 367.605 43.1005 196.931 
325.514 81.9759 197.889 324.286 82.5553 198.877 324.481 82.5726 198.809 
366.303 41.0348 197.157 366.425 40.9194 197.76 367.354 41.7279 198.023 
367.681 42.2435 197.551 367.564 42.6575 197.489 325.086 79.3804 198.721 
323.717 81.9267 199.218 326.872 81.5061 197.863 323.932 82.0955 198.929 
323.882 82.4118 199.161 324.307 82.7253 199.279 366.56 39.9163 199.863 
366.788 40.317 199.47 366.938 40.9397 198.6 364.853 44.5908 199.357 
352.031 54.1865 198.929 324.103 80.3907 199.681 323.625 81.3718 199.606 
323.429 81.8615 199.801 325.044 82.5588 199.283 323.755 82.6049 199.568 
324.267 82.889 199.838 365.841 39.7329 199.781 366.849 39.8788 200.366 
367.013 40.3452 199.934 367.135 40.7202 200.024 366.754 42.5383 200.013 
337.398 63.8739 200.266 322.81 82.334 200.846 322.727 82.649 201.189 
366.171 39.3169 200.829 366.87 39.6312 200.717 366.676 39.4952 200.889 
366.875 39.5734 200.847 366.985 39.8925 200.937 366.928 39.6876 200.774 
367.098 40.4006 200.671 323.036 81.354 201.122 322.373 82.1668 201.951 
322.165 82.4742 202.393 322.212 82.8448 202.369 322.476 82.9016 201.851 
322.75 82.9896 201.554 323.539 83.2812 201.684 364.441 38.6654 201.977 
366.727 39.4153 201.603 366.967 39.8697 201.516 366.977 40.2134 201.847 
366.74 41.2256 202.305 324.389 83.1501 201.786 324.827 83.0039 202.366 
366.839 40.2768 202.754 366.801 40.8067 202.626 365.16 42.5881 203.091 
321.769 82.8584 203.604 325.334 82.7203 202.917 322.139 83.6139 203.885 
364.763 37.6601 204.202 365.709 38.116 203.985 366.364 38.7393 203.38 
[...]
POINT_DATA 1919
COLOR_SCALARS scalars 3
0.101961 0.65098 0.596078 0.101961 0.65098 0.596078 0.101961 0.65098 0.596078 
0.101961 0.65098 0.596078 0.101961 0.65098 0.596078 
0.101961 0.65098 0.596078 0.101961 0.65098 0.596078 
0.101961 0.65098 0.596078 0.101961 0.65098 0.596078 
0.101961 0.65098 0.596078 0.101961 0.65098 0.596078 
0.101961 0.65098 0.596078 0.101961 0.65098 0.596078 
0.101961 0.65098 0.596078 0.101961 0.65098 0.596078 
0.101961 0.65098 0.596078 0.101961 0.65098 0.596078 
0.101961 0.65098 0.596078 0.101961 0.65098 0.596078 
0.101961 0.65098 0.596078 0.101961 0.65098 0.596078 
0.101961 0.65098 0.596078 0.101961 0.65098 0.596078 
0.101961 0.65098 0.596078 0.101961 0.65098 0.596078 
0.101961 0.65098 0.596078 0.101961 0.65098 0.596078 
0.101961 0.65098 0.596078 0.101961 0.65098 0.596078 
0.101961 0.65098 0.596078 0.101961 0.65098 0.596078 
0.101961 0.65098 0.596078 0.101961 0.65098 0.596078 
0.101961 0.65098 0.596078 0.101961 0.65098 0.596078 
0.101961 0.65098 0.596078 0.101961 0.65098 0.596078 
0.101961 0.65098 0.596078 0.101961 0.65098 0.596078 
0.101961 0.65098 0.596078 0.101961 0.65098 0.596078 
0.101961 0.65098 0.596078 0.101961 0.65098 0.596078 
0.101961 0.65098 0.596078 0.101961 0.65098 0.596078 
0.101961 0.65098 0.596078 0.101961 0.65098 0.596078 
0.101961 0.65098 0.596078 0.101961 0.65098 0.596078 
0.101961 0.65098 0.596078 0.101961 0.65098 0.596078 
0.101961 0.65098 0.596078 0.101961 0.65098 0.596078 
0.101961 0.65098 0.596078 0.101961 0.65098 0.596078 
0.101961 0.65098 0.596078 0.101961 0.65098 0.596078 
0.101961 0.65098 0.596078 0.101961 0.65098 0.596078 
0.101961 0.65098 0.596078 0.101961 0.65098 0.596078 
0.101961 0.65098 0.596078 0.101961 0.65098 0.596078 
0.101961 0.65098 0.596078 0.101961 0.65098 0.596078 
0.101961 0.65098 0.596078 0.101961 0.65098 0.596078 
0.101961 0.65098 0.596078 0.101961 0.65098 0.596078 
0.101961 0.65098 0.596078 0.101961 0.65098 0.596078 
0.101961 0.65098 0.596078 0.101961 0.65098 0.596078 
0.101961 0.65098 0.596078 0.101961 0.65098 0.596078 
0.101961 0.65098 0.596078 0.101961 0.65098 0.596078 
0.101961 0.65098 0.596078 0.101961 0.65098 0.596078 
0.101961 0.65098 0.596078 0.101961 0.65098 0.596078 
0.101961 0.65098 0.596078 0.101961 0.65098 0.596078 
0.101961 0.65098 0.596078 0.101961 0.65098 0.596078 
0.101961 0.65098 0.596078 0.101961 0.65098 0.596078 
0.101961 0.65098 0.596078 0.101961 0.65098 0.596078 
0.101961 0.65098 0.596078 0.101961 0.65098 0.596078 
0.101961 0.65098 0.596078 0.101961 0.65098 0.596078 
0.101961 0.65098 0.596078 0.101961 0.65098 0.596078 
0.101961 0.65098 0.596078 0.101961 0.65098 0.596078 
0.101961 0.65098 0.596078 0.101961 0.65098 0.596078 
0.101961 0.65098 0.596078 0.101961 0.65098 0.596078 
0.101961 0.65098 0.596078 0.101961 0.65098 0.596078 
0.101961 0.65098 0.596078 0.101961 0.65098 0.596078 
0.101961 0.65098 0.596078 0.101961 0.65098 0.596078 
0.101961 0.65098 0.596078 0.101961 0.65098 0.596078 
0.101961 0.65098 0.596078 0.101961 0.65098 0.596078 
0.101961 0.65098 0.596078 0.101961 0.65098 0.596078 
0.101961 0.65098 0.596078 0.101961 0.65098 0.596078 
0.101961 0.65098 0.596078 0.101961 0.65098 0.596078 
0.101961 0.65098 0.596078 0.101961 0.65098 0.596078 
0.101961 0.65098 0.596078 0.101961 0.65098 0.596078 
0.101961 0.65098 0.596078 0.101961 0.65098 0.596078 
0.101961 0.65098 0.596078 0.101961 0.65098 0.596078 
0.101961 0.65098 0.596078 0.101961 0.65098 0.596078 
0.101961 0.65098 0.596078 0.101961 0.65098 0.596078 
0.101961 0.65098 0.596078 0.101961 0.65098 0.596078 
0.101961 0.65098 0.596078 0.101961 0.65098 0.596078 
0.101961 0.65098 0.596078 0.101961 0.65098 0.596078 
0.101961 0.65098 0.596078 0.101961 0.65098 0.596078 
0.101961 0.65098 0.596078 0.101961 0.65098 0.596078 
0.101961 0.65098 0.596078 0.101961 0.65098 0.596078 
0.101961 0.65098 0.596078 0.101961 0.65098 0.596078 
0.101961 0.65098 0.596078 0.101961 0.65098 0.596078 
0.101961 0.65098 0.596078 0.101961 0.65098 0.596078 
0.101961 0.65098 0.596078 0.101961 0.65098 0.596078 
0.101961 0.65098 0.596078 0.101961 0.65098 0.596078 
0.101961 0.65098 0.596078 0.101961 0.65098 0.596078 
0.101961 0.65098 0.596078 0.101961 0.65098 0.596078 
0.101961 0.65098 0.596078 0.101961 0.65098 0.596078 
0.101961 0.65098 0.596078 0.101961 0.65098 0.596078 
0.101961 0.65098 0.596078 0.101961 0.65098 0.596078 
0.101961 0.65098 0.596078 0.101961 0.65098 0.596078 
0.101961 0.65098 0.596078 0.101961 0.65098 0.596078 
0.101961 0.65098 0.596078 0.101961 0.65098 0.596078 
0.101961 0.65098 0.596078 0.101961 0.65098 0.596078 
0.101961 0.65098 0.596078 0.101961 0.65098 0.596078 
0.101961 0.65098 0.596078 0.101961 0.65098 0.596078 
0.101961 0.65098 0.596078 0.101961 0.65098 0.596078 
0.101961 0.65098 0.596078 0.101961 0.65098 0.596078 
0.101961 0.65098 0.596078 0.101961 0.65098 0.596078 
0.101961 0.65098 0.596078 0.101961 0.65098 0.596078 
0.101961 0.65098 0.596078 0.101961 0.65098 0.596078 
0.101961 0.65098 0.596078 0.101961 0.65098 0.596078 
0.101961 0.65098 0.596078 0.101961 0.65098 0.596078 
0.101961 0.65098 0.596078 0.101961 0.65098 0.596078 
0.101961 0.65098 0.596078 0.101961 0.65098 0.596078 
0.101961 0.65098 0.596078 0.101961 0.65098 0.596078 
0.101961 0.65098 0.596078 0.101961 0.65098 0.596078 
0.101961 0.65098 0.596078 0.101961 0.65098 0.596078 
0.101961 0.65098 0.596078 0.101961 0.65098 0.596078 
0.101961 0.65098 0.596078 0.101961 0.65098 0.596078 
0.101961 0.65098 0.596078 0.101961 0.65098 0.596078 
0.101961 0.65098 0.596078 0.101961 0.65098 0.596078 
0.101961 0.65098 0.596078 0.101961 0.65098 0.596078 
0.101961 0.65098 0.596078 0.101961 0.65098 0.596078 
0.101961 0.65098 0.596078 0.101961 0.65098 0.596078 
0.101961 0.65098 0.596078 0.101961 0.65098 0.596078 
0.101961 0.65098 0.596078 0.101961 0.65098 0.596078 
0.101961 0.65098 0.596078 0.101961 0.65098 0.596078 
0.101961 0.65098 0.596078 0.101961 0.65098 0.596078 
0.101961 0.65098 0.596078 0.101961 0.65098 0.596078 
0.101961 0.65098 0.596078 0.101961 0.65098 0.596078 
0.101961 0.65098 0.596078 0.101961 0.65098 0.596078 
0.101961 0.65098 0.596078 0.101961 0.65098 0.596078 
0.101961 0.65098 0.596078 0.101961 0.65098 0.596078 
0.101961 0.65098 0.596078 0.101961 0.65098 0.596078 
0.101961 0.65098 0.596078 0.101961 0.65098 0.596078 
0.101961 0.65098 0.596078 0.101961 0.65098 0.596078 
0.101961 0.65098 0.596078 0.101961 0.65098 0.596078 
0.101961 0.65098 0.596078 0.101961 0.65098 0.596078 
0.101961 0.65098 0.596078 0.101961 0.65098 0.596078 
0.101961 0.65098 0.596078 0.101961 0.65098 0.596078 
0.101961 0.65098 0.596078 0.101961 0.65098 0.596078 
0.101961 0.65098 0.596078 0.101961 0.65098 0.596078 
0.101961 0.65098 0.596078 0.101961 0.65098 0.596078 
0.101961 0.65098 0.596078 0.101961 0.65098 0.596078 
0.101961 0.65098 0.596078 0.101961 0.65098 0.596078 
0.101961 0.65098 0.596078 0.101961 0.65098 0.596078 
0.101961 0.65098 0.596078 0.101961 0.65098 0.596078 
0.101961 0.65098 0.596078 0.101961 0.65098 0.596078 
0.101961 0.65098 0.596078 0.101961 0.65098 0.596078 
0.101961 0.65098 0.596078 0.101961 0.65098 0.596078 
0.101961 0.65098 0.596078 0.101961 0.65098 0.596078 
0.101961 0.65098 0.596078 0.101961 0.65098 0.596078 
0.101961 0.65098 0.596078 0.101961 0.65098 0.596078 
0.101961 0.65098 0.596078 0.101961 0.65098 0.596078 
0.101961 0.65098 0.596078 0.101961 0.65098 0.596078 
0.101961 0.65098 0.596078 0.101961 0.65098 0.596078 
0.101961 0.65098 0.596078 0.101961 0.65098 0.596078 
0.101961 0.65098 0.596078 0.101961 0.65098 0.596078 
0.101961 0.65098 0.596078 0.101961 0.65098 0.596078 
0.101961 0.65098 0.596078 0.101961 0.65098 0.596078 
0.101961 0.65098 0.596078 0.101961 0.65098 0.596078 
0.101961 0.65098 0.596078 0.101961 0.65098 0.596078 
0.101961 0.65098 0.596078 0.101961 0.65098 0.596078 
0.101961 0.65098 0.596078 0.101961 0.65098 0.596078 
0.101961 0.65098 0.596078 0.101961 0.65098 0.596078 
0.101961 0.65098 0.596078 0.101961 0.65098 0.596078 
0.101961 0.65098 0.596078 0.101961 0.65098 0.596078 
0.101961 0.65098 0.596078 0.101961 0.65098 0.596078 
0.101961 0.65098 0.596078 0.101961 0.65098 0.596078 
0.101961 0.65098 0.596078 0.101961 0.65098 0.596078 
0.101961 0.65098 0.596078 0.101961 0.65098 0.596078 
0.101961 0.65098 0.596078 0.101961 0.65098 0.596078 
0.101961 0.65098 0.596078 0.101961 0.65098 0.596078 
0.101961 0.65098 0.596078 0.101961 0.65098 0.596078 
0.101961 0.65098 0.596078 0.101961 0.65098 0.596078 
0.101961 0.65098 0.596078 0.101961 0.65098 0.596078 
0.101961 0.65098 0.596078 0.101961 0.65098 0.596078 
0.101961 0.65098 0.596078 0.101961 0.65098 0.596078 
0.101961 0.65098 0.596078 0.101961 0.65098 0.596078 
0.101961 0.65098 0.596078 0.101961 0.65098 0.596078 
0.101961 0.65098 0.596078 0.101961 0.65098 0.596078 
0.101961 0.65098 0.596078 0.101961 0.65098 0.596078 
0.101961 0.65098 0.596078 0.101961 0.65098 0.596078 
0.101961 0.65098 0.596078 0.101961 0.65098 0.596078 
0.101961 0.65098 0.596078 0.101961 0.65098 0.596078 
0.101961 0.65098 0.596078 0.101961 0.65098 0.596078 
0.101961 0.65098 0.596078 0.101961 0.65098 0.596078 
0.101961 0.65098 0.596078 0.101961 0.65098 0.596078 
0.101961 0.65098 0.596078 0.101961 0.65098 0.596078 
0.101961 0.65098 0.596078 0.101961 0.65098 0.596078 
0.101961 0.65098 0.596078 0.101961 0.65098 0.596078 
0.101961 0.65098 0.596078 0.101961 0.65098 0.596078 
0.101961 0.65098 0.596078 0.101961 0.65098 0.596078 
0.101961 0.65098 0.596078 0.101961 0.65098 0.596078 
0.101961 0.65098 0.596078 0.101961 0.65098 0.596078 
0.101961 0.65098 0.596078 0.101961 0.65098 0.596078 
0.101961 0.65098 0.596078 0.101961 0.65098 0.596078 
0.101961 0.65098 0.596078 0.101961 0.65098 0.596078 
0.101961 0.65098 0.596078 0.101961 0.65098 0.596078 
0.101961 0.65098 0.596078 0.101961 0.65098 0.596078 
0.101961 0.65098 0.596078 0.101961 0.65098 0.596078 
0.101961 0.65098 0.596078 0.101961 0.65098 0.596078 
0.101961 0.65098 0.596078 0.101961 0.65098 0.596078 
0.101961 0.65098 0.596078 0.101961 0.65098 0.596078 
0.101961 0.65098 0.596078 0.101961 0.65098 0.596078 
0.101961 0.65098 0.596078 0.101961 0.65098 0.596078 
0.101961 0.65098 0.596078 0.101961 0.65098 0.596078 
0.101961 0.65098 0.596078 0.101961 0.65098 0.596078 
0.101961 0.65098 0.596078 0.101961 0.65098 0.596078 
0.101961 0.65098 0.596078 0.101961 0.65098 0.596078 
0.101961 0.65098 0.596078 0.101961 0.65098 0.596078 
0.101961 0.65098 0.596078 0.101961 0.65098 0.596078 
0.101961 0.65098 0.596078 0.101961 0.65098 0.596078 
0.101961 0.65098 0.596078 0.101961 0.65098 0.596078 
0.101961 0.65098 0.596078 0.101961 0.65098 0.596078 
0.101961 0.65098 0.596078 0.101961 0.65098 0.596078 
0.101961 0.65098 0.596078 0.101961 0.65098 0.596078 
0.101961 0.65098 0.596078 0.101961 0.65098 0.596078 
0.101961 0.65098 0.596078 0.101961 0.65098 0.596078 
0.101961 0.65098 0.596078 0.101961 0.65098 0.596078 
0.101961 0.65098 0.596078 0.101961 0.65098 0.596078 
0.101961 0.65098 0.596078 0.101961 0.65098 0.596078 
0.101961 0.65098 0.596078 0.101961 0.65098 0.596078 
0.101961 0.65098 0.596078 0.101961 0.65098 0.596078 
0.101961 0.65098 0.596078 0.101961 0.65098 0.596078 
0.101961 0.65098 0.596078 0.101961 0.65098 0.596078 
0.101961 0.65098 0.596078 0.101961 0.65098 0.596078 
0.101961 0.65098 0.596078 0.101961 0.65098 0.596078 
0.101961 0.65098 0.596078 0.101961 0.65098 0.596078 
0.101961 0.65098 0.596078 0.101961 0.65098 0.596078 
0.101961 0.65098 0.596078 0.101961 0.65098 0.596078 
0.101961 0.65098 0.596078 0.101961 0.65098 0.596078 
0.101961 0.65098 0.596078 0.101961 0.65098 0.596078 
0.101961 0.65098 0.596078 0.101961 0.65098 0.596078 
0.101961 0.65098 0.596078 0.101961 0.65098 0.596078 
0.101961 0.65098 0.596078 0.101961 0.65098 0.596078 
0.101961 0.65098 0.596078 0.101961 0.65098 0.596078 
0.101961 0.65098 0.596078 0.101961 0.65098 0.596078 
0.101961 0.65098 0.596078 0.101961 0.65098 0.596078 
0.101961 0.65098 0.596078 0.101961 0.65098 0.596078 
0.101961 0.65098 0.596078 0.101961 0.65098 0.596078 
0.101961 0.65098 0.596078 0.101961 0.65098 0.596078 
0.101961 0.65098 0.596078 0.101961 0.65098 0.596078 
0.101961 0.65098 0.596078 0.101961 0.65098 0.596078 
0.101961 0.65098 0.596078 0.101961 0.65098 0.596078 
0.101961 0.65098 0.596078 0.101961 0.65098 0.596078 
0.101961 0.65098 0.596078 0.101961 0.65098 0.596078 
0.101961 0.65098 0.596078 0.101961 0.65098 0.596078 
0.101961 0.65098 0.596078 0.101961 0.65098 0.596078 
0.101961 0.65098 0.596078 0.101961 0.65098 0.596078 
0.101961 0.65098 0.596078 0.101961 0.65098 0.596078 
0.101961 0.65098 0.596078 0.101961 0.65098 0.596078 
0.101961 0.65098 0.596078 0.101961 0.65098 0.596078 
0.101961 0.65098 0.596078 0.101961 0.65098 0.596078 
0.101961 0.65098 0.596078 0.101961 0.65098 0.596078 
0.101961 0.65098 0.596078 0.101961 0.65098 0.596078 
0.101961 0.65098 0.596078 0.101961 0.65098 0.596078 
0.101961 0.65098 0.596078 0.101961 0.65098 0.596078 
0.101961 0.65098 0.596078 0.101961 0.65098 0.596078 
0.101961 0.65098 0.596078 0.101961 0.65098 0.596078 
0.101961 0.65098 0.596078 0.101961 0.65098 0.596078 
0.101961 0.65098 0.596078 0.101961 0.65098 0.596078 
0.101961 0.65098 0.596078 0.101961 0.65098 0.596078 
0.101961 0.65098 0.596078 0.101961 0.65098 0.596078 
0.101961 0.65098 0.596078 0.101961 0.65098 0.596078 
0.101961 0.65098 0.596078 0.101961 0.65098 0.596078 
0.101961 0.65098 0.596078 0.101961 0.65098 0.596078 
0.101961 0.65098 0.596078 0.101961 0.65098 0.596078 
0.101961 0.65098 0.596078 0.101961 0.65098 0.596078 
0.101961 0.65098 0.596078 0.101961 0.65098 0.596078 
0.101961 0.65098 0.596078 0.101961 0.65098 0.596078 
0.101961 0.65098 0.596078 0.101961 0.65098 0.596078 
0.101961 0.65098 0.596078 0.101961 0.65098 0.596078 
0.101961 0.65098 0.596078 0.101961 0.65098 0.596078 
0.101961 0.65098 0.596078 0.101961 0.65098 0.596078 
0.101961 0.65098 0.596078 0.101961 0.65098 0.596078 
0.101961 0.65098 0.596078 0.101961 0.65098 0.596078 
0.101961 0.65098 0.596078 0.101961 0.65098 0.596078 
0.101961 0.65098 0.596078 0.101961 0.65098 0.596078 
0.101961 0.65098 0.596078 0.101961 0.65098 0.596078 
0.101961 0.65098 0.596078 0.101961 0.65098 0.596078 
0.101961 0.65098 0.596078 0.101961 0.65098 0.596078 
0.101961 0.65098 0.596078 0.101961 0.65098 0.596078 
0.101961 0.65098 0.596078 0.101961 0.65098 0.596078 
0.101961 0.65098 0.596078 0.101961 0.65098 0.596078 
0.101961 0.65098 0.596078 0.101961 0.65098 0.596078 
0.101961 0.65098 0.596078 0.101961 0.65098 0.596078 
0.101961 0.65098 0.596078 0.101961 0.65098 0.596078 
0.101961 0.65098 0.596078 0.101961 0.65098 0.596078 
0.101961 0.65098 0.596078 0.101961 0.65098 0.596078 
0.101961 0.65098 0.596078 0.101961 0.65098 0.596078 
0.101961 0.65098 0.596078 0.101961 0.65098 0.596078 
0.101961 0.65098 0.596078 0.101961 0.65098 0.596078 
0.101961 0.65098 0.596078 0.101961 0.65098 0.596078 
0.101961 0.65098 0.596078 0.101961 0.65098 0.596078 
0.101961 0.65098 0.596078 0.101961 0.65098 0.596078 
0.101961 0.65098 0.596078 0.101961 0.65098 0.596078 
0.101961 0.65098 0.596078 0.101961 0.65098 0.596078 
0.101961 0.65098 0.596078 0.101961 0.65098 0.596078 
0.101961 0.65098 0.596078 0.101961 0.65098 0.596078 
0.101961 0.65098 0.596078 0.101961 0.65098 0.596078 
0.101961 0.65098 0.596078 0.101961 0.65098 0.596078 
0.101961 0.65098 0.596078 0.101961 0.65098 0.596078 
0.101961 0.65098 0.596078 0.101961 0.65098 0.596078 
0.101961 0.65098 0.596078 0.101961 0.65098 0.596078 
0.101961 0.65098 0.596078 0.101961 0.65098 0.596078 
0.101961 0.65098 0.596078 0.101961 0.65098 0.596078 
0.101961 0.65098 0.596078 0.101961 0.65098 0.596078 
0.101961 0.65098 0.596078 0.101961 0.65098 0.596078 
0.101961 0.65098 0.596078 0.101961 0.65098 0.596078 
0.101961 0.65098 0.596078 0.101961 0.65098 0.596078 
0.101961 0.65098 0.596078 0.101961 0.65098 0.596078 
0.101961 0.65098 0.596078 0.101961 0.65098 0.596078 
0.101961 0.65098 0.596078 0.101961 0.65098 0.596078 
0.101961 0.65098 0.596078 0.101961 0.65098 0.596078 
0.101961 0.65098 0.596078 0.101961 0.65098 0.596078 
0.101961 0.65098 0.596078 0.101961 0.65098 0.596078 
0.101961 0.65098 0.596078 0.101961 0.65098 0.596078 
0.101961 0.65098 0.596078 0.101961 0.65098 0.596078 
0.101961 0.65098 0.596078 0.101961 0.65098 0.596078 
0.101961 0.65098 0.596078 0.101961 0.65098 0.596078 
0.101961 0.65098 0.596078 0.101961 0.65098 0.596078 
0.101961 0.65098 0.596078 0.101961 0.65098 0.596078 
0.101961 0.65098 0.596078 0.101961 0.65098 0.596078 
0.101961 0.65098 0.596078 0.101961 0.65098 0.596078 
0.101961 0.65098 0.596078 0.101961 0.65098 0.596078 
0.101961 0.65098 0.596078 0.101961 0.65098 0.596078 
0.101961 0.65098 0.596078 0.101961 0.65098 0.596078 
0.101961 0.65098 0.596078 0.101961 0.65098 0.596078 
0.101961 0.65098 0.596078 0.101961 0.65098 0.596078 
0.101961 0.65098 0.596078 0.101961 0.65098 0.596078 
0.101961 0.65098 0.596078 0.101961 0.65098 0.596078 
0.101961 0.65098 0.596078 0.101961 0.65098 0.596078 
0.101961 0.65098 0.596078 0.101961 0.65098 0.596078 
0.101961 0.65098 0.596078 0.101961 0.65098 0.596078 
0.101961 0.65098 0.596078 0.101961 0.65098 0.596078 
0.101961 0.65098 0.596078 0.101961 0.65098 0.596078 
0.101961 0.65098 0.596078 0.101961 0.65098 0.596078 
0.101961 0.65098 0.596078 0.101961 0.65098 0.596078 
0.101961 0.65098 0.596078 0.101961 0.65098 0.596078 
0.101961 0.65098 0.596078 0.101961 0.65098 0.596078 
0.101961 0.65098 0.596078 0.101961 0.65098 0.596078 
0.101961 0.65098 0.596078 0.101961 0.65098 0.596078 
0.101961 0.65098 0.596078 0.101961 0.65098 0.596078 
0.101961 0.65098 0.596078 0.101961 0.65098 0.596078 
0.101961 0.65098 0.596078 0.101961 0.65098 0.596078 
0.101961 0.65098 0.596078 0.101961 0.65098 0.596078 
0.101961 0.65098 0.596078 0.101961 0.65098 0.596078 
0.101961 0.65098 0.596078 0.101961 0.65098 0.596078 
0.101961 0.65098 0.596078 0.101961 0.65098 0.596078 
0.101961 0.65098 0.596078 0.101961 0.65098 0.596078 
0.101961 0.65098 0.596078 0.101961 0.65098 0.596078 
0.101961 0.65098 0.596078 0.101961 0.65098 0.596078 
0.101961 0.65098 0.596078 0.101961 0.65098 0.596078 
0.101961 0.65098 0.596078 0.101961 0.65098 0.596078 
0.101961 0.65098 0.596078 0.101961 0.65098 0.596078 
0.101961 0.65098 0.596078 0.101961 0.65098 0.596078 
0.101961 0.65098 0.596078 0.101961 0.65098 0.596078 
0.101961 0.65098 0.596078 0.101961 0.65098 0.596078 
0.101961 0.65098 0.596078 0.101961 0.65098 0.596078 
0.101961 0.65098 0.596078 0.101961 0.65098 0.596078 
0.101961 0.65098 0.596078 0.101961 0.65098 0.596078 
0.101961 0.65098 0.596078 0.101961 0.65098 0.596078 
0.101961 0.65098 0.596078 0.101961 0.65098 0.596078 
0.101961 0.65098 0.596078 0.101961 0.65098 0.596078 
0.101961 0.65098 0.596078 0.101961 0.65098 0.596078 
0.101961 0.65098 0.596078 0.101961 0.65098 0.596078 
0.101961 0.65098 0.596078 0.101961 0.65098 0.596078 
0.101961 0.65098 0.596078 0.101961 0.65098 0.596078 
0.101961 0.65098 0.596078 0.101961 0.65098 0.596078 
0.101961 0.65098 0.596078 0.101961 0.65098 0.596078 
0.101961 0.65098 0.596078 0.101961 0.65098 0.596078 
0.101961 0.65098 0.596078 0.101961 0.65098 0.596078 
0.101961 0.65098 0.596078 0.101961 0.65098 0.596078 
0.101961 0.65098 0.596078 0.101961 0.65098 0.596078 
0.101961 0.65098 0.596078 0.101961 0.65098 0.596078 
0.101961 0.65098 0.596078 0.101961 0.65098 0.596078 
0.101961 0.65098 0.596078 0.101961 0.65098 0.596078 
0.101961 0.65098 0.596078 0.101961 0.65098 0.596078 
0.101961 0.65098 0.596078 0.101961 0.65098 0.596078 
0.101961 0.65098 0.596078 0.101961 0.65098 0.596078 
0.101961 0.65098 0.596078 0.101961 0.65098 0.596078 
0.101961 0.65098 0.596078 0.101961 0.65098 0.596078 
0.101961 0.65098 0.596078 0.101961 0.65098 0.596078 
0.101961 0.65098 0.596078 0.101961 0.65098 0.596078 
0.101961 0.65098 0.596078 0.101961 0.65098 0.596078 
0.101961 0.65098 0.596078 0.101961 0.65098 0.596078 
0.101961 0.65098 0.596078 0.101961 0.65098 0.596078 
0.101961 0.65098 0.596078 0.101961 0.65098 0.596078 
0.101961 0.65098 0.596078 0.101961 0.65098 0.596078 
0.101961 0.65098 0.596078 0.101961 0.65098 0.596078 
0.101961 0.65098 0.596078 0.101961 0.65098 0.596078 
0.101961 0.65098 0.596078 0.101961 0.65098 0.596078 
0.101961 0.65098 0.596078 0.101961 0.65098 0.596078 
0.101961 0.65098 0.596078 0.101961 0.65098 0.596078 