# vtk DataFile Version 4.2
vtk output
ASCII
DATASET POLYDATA
POINTS 1591 float
291.41 32.9845 207.18 291.238 32.7802 207.251 291.81 33.0356 207.126 
292.961 33.0237 207.179 292.616 32.5613 207.214 293.917 32.8895 207.513 
292.106 33.5215 207.152 292.265 31.4955 207.653 293.948 31.5866 208.057 
289.757 32.947 208.183 289.562 33.9716 208.46 291.414 34.5681 207.618 
294.293 34.2687 207.791 289.942 34.9288 208.392 291.08 35.2251 207.982 
291.462 36.2125 208.466 293.278 35.7433 208.064 294.03 35.5724 208.12 
294.683 35.3567 208.268 276.279 38.5142 208.343 276.18 39.4046 207.967 
277.688 40.3318 208.495 274.329 42.2504 207.019 267.646 43.7517 207.26 
275.553 44.709 207.102 265.19 47.0811 206.763 259.001 49.5906 206.821 
265.502 48.4525 206.718 253.803 52.5941 207.066 261.466 51.3343 206.661 
248.582 56.9412 207.382 247.449 57.9914 207.656 248.623 59.1084 207.046 
247.088 59.9477 207.547 249.723 59.6536 206.863 250.584 59.8219 206.836 
248.198 60.6353 207.113 247.128 63.7836 207.607 293.159 30.0776 208.823 
289.643 31.2892 208.681 295.245 35.2051 208.524 290.497 35.8923 208.653 
274.556 38.2791 208.312 277.678 39.8211 208.724 268.723 41.9139 207.816 
258.762 46.2929 208.023 281.935 46.3604 208.798 246.507 57.3074 208.498 
245.664 60.7941 208.399 245.87 64.7257 208.363 245.145 65.982 208.912 
245.698 66.7195 208.549 247.074 66.4663 207.972 250.672 66.5786 207.743 
304.961 26.2701 210.789 304.94 26.0912 210.897 304.825 26.3323 210.806 
305.072 26.2805 210.85 304.965 26.4232 210.803 290.357 29.8945 209.119 
288.866 30.5726 209.824 288.6 32.0234 209.77 295.739 34.5406 208.782 
289.753 35.735 209.159 287.701 48.2843 209.621 253.495 48.9739 208.673 
278.942 50.0933 208.242 286.852 49.8653 209.166 285.452 50.7006 209.028 
299.213 52.1297 210.168 299.435 52.134 210.237 299.607 52.0068 210.384 
299.644 52.2774 210.346 245.709 58.5162 208.895 244.694 64.1303 209.343 
244.84 71.8266 209.551 245.385 72.61 209.316 245.288 73.5203 209.445 
246.695 73.4471 209.072 244.041 74.7327 210.251 304.787 25.794 211.033 
304.48 26.1933 210.928 305.174 26.5405 210.954 304.02 26.6461 210.936 
304.374 26.647 210.854 304.743 26.7348 210.854 303.875 27.0796 210.963 
303.986 27.4087 210.987 288.512 30.063 210.506 288.772 29.3645 210.613 
288.142 32.6158 210.843 291.563 37.9389 210.417 294.657 37.4774 209.753 
296.078 37.236 210.203 278.003 38.596 210.157 295.846 50.4838 210.25 
299.556 51.6165 210.578 298.343 52.1008 210.138 300.474 51.7626 211.184 
300.212 53.3738 210.669 246.505 54.8938 209.669 301.655 54.5946 211.485 
243.853 66.9174 210.389 248.756 75.7087 209.69 247.722 76.5796 209.864 
244.613 77.367 210.412 244.031 77.9927 210.879 243.547 78.1561 211.354 
244.997 78.7595 210.874 246.444 78.5935 210.747 243.587 79.3387 211.591 
244.209 79.6782 211.485 243.802 79.6733 211.393 304.364 25.1621 211.509 
304.327 24.8027 211.846 304.766 25.0352 211.531 303.383 25.2374 211.899 
305.324 25.3649 211.481 305.905 25.8062 211.776 303.007 26.2051 211.562 
306.175 26.1218 212.135 303.148 26.8014 211.353 302.893 27.6054 211.451 
304.581 27.6797 211.056 288.559 28.9542 211.151 288.417 28.6525 211.61 
302.551 28.2974 211.657 305.046 28.357 211.468 305.379 28.1515 211.6 
288.071 30.4598 211.127 275.223 34.8338 211.57 293.908 38.7131 210.994 
296.934 49.708 211.12 298.727 50.4484 211.006 299.06 50.2768 211.288 
247.102 52.2581 211.177 300.985 52.0297 211.566 281.779 56.0888 210.253 
300.613 55.6535 211.186 300.367 56.566 211.317 299.949 57.8306 211.644 
301.406 58.3716 212.249 301.829 58.4252 212.494 261.706 67.8139 210.29 
251.119 76.5212 210.632 247.165 79.2543 211.429 248.799 79.0122 211.483 
243.55 79.587 211.974 244.809 79.7412 211.706 243.853 79.8027 211.769 
243.875 79.7327 211.473 244.283 79.8891 211.896 304.084 24.718 212.12 
304.786 24.5681 212.059 304.78 24.5286 212.295 305.733 24.8882 212.174 
305.499 24.7355 212.07 305.799 24.856 212.461 303.604 24.8977 212.158 
305.513 25.002 211.841 302.485 25.8413 212.15 302.208 26.0126 212.42 
302.803 25.2686 212.375 306.248 25.7065 212.521 292.474 27.0533 212.052 
289.734 27.272 211.899 302.149 26.9483 212.031 288.486 28.0283 212.273 
288.268 28.5722 212.129 288.869 27.9821 211.701 294.564 28.2396 212.303 
302.047 27.7961 211.954 288.018 29.2581 212.184 295.698 29.103 212.062 
302.456 29.1948 211.778 301.846 29.6322 211.971 305.192 29.7963 212.243 
287.883 30.5237 211.768 302.793 31.2444 212.136 273.242 34.3468 212.078 
298.178 34.5802 210.961 289.544 36.8263 210.911 293.639 39.1937 211.521 
282.779 42.7713 211.424 249.059 49.3058 211.995 291.857 57.1053 211.338 
292.537 57.7307 211.746 296.262 57.7652 211.648 298.963 58.8192 212.243 
302.894 58.4645 213.294 303.192 58.3718 213.619 243.662 60.1233 211.853 
302.369 59.1774 213.154 243.398 63.1016 211.783 243.266 63.2722 212.27 
243.164 65.7398 212.37 256.717 75.1235 212.15 253.883 77.1307 212.203 
243.442 79.4115 212.748 249.722 79.376 212.113 243.493 79.7211 212.256 
243.53 79.8172 212.237 244.334 79.9712 212.301 245.717 80.1093 212.902 
246.427 80.0458 212.677 249.597 79.7451 212.603 243.633 79.8202 212.091 
304.241 24.6184 212.738 305.331 24.6168 212.175 302.643 25.3264 212.661 
303.015 25.0607 212.561 303.373 24.8891 212.441 290.092 26.688 213.012 
289.803 26.8369 212.819 290.785 26.6194 212.666 291.821 26.5664 212.735 
292.061 26.5829 212.933 306.442 25.954 213.082 301.597 26.8065 212.879 
288.631 27.6127 212.892 293.34 27.332 212.622 294.799 28.1537 212.907 
287.837 29.9698 212.862 297.883 29.9683 212.401 299.882 30.1124 212.389 
298.915 31.2715 211.928 274.044 33.3474 213.192 304.47 31.7905 212.888 
302.703 32.4981 212.528 270.416 34.9477 213.047 301.521 33.4097 212.466 
270.529 35.4181 212.273 276.826 35.7818 212.519 288.384 35.6472 212.206 
301.939 35.1001 213.221 301.188 36.0543 213.216 289.244 39.3421 212.842 
280.927 40.0206 212.993 289.996 40.1236 212.818 291.537 40.4912 212.729 
293.389 40.7925 213.057 253.943 44.117 213.329 252.955 45.1275 212.877 
299.239 49.0952 212.878 301.099 50.8335 212.642 246.453 51.8069 212.704 
246.447 51.4134 213.323 302.83 55.0947 213.184 243.976 57.0192 212.779 
288.685 59.0907 212.575 243.482 60.3565 212.506 282.952 60.2603 212.589 
283.803 61.1001 213.451 302.208 60.0297 213.711 302.675 60.0121 213.947 
302.509 60.2471 214.013 243.319 61.3943 212.968 264.549 71.3243 213.547 
257.637 75.6455 213.197 251.159 79.3293 212.678 243.643 79.8033 212.341 
244.897 80.044 213.636 304.457 24.9359 213.568 305.773 25.043 213.218 
290.798 26.5922 213.375 291.774 26.6009 213.433 292.128 26.644 213.252 
306.494 26.0041 213.582 306.631 26.3204 213.878 288.842 27.4013 213.139 
288.858 27.5188 213.425 288.582 27.7646 213.187 289.055 27.2163 213.06 
291.109 26.7222 213.721 293.117 27.1192 213.412 293.442 27.2963 213.146 
294.273 27.8393 213.718 306.881 27.7847 213.717 306.913 27.4324 214.104 
299.858 28.3145 213.699 299.557 28.8789 213.194 298.926 28.9575 213.461 
287.895 30.1135 213.286 297.27 29.1907 213.18 298.026 29.3032 213.156 
306.71 29.9889 214.16 306.925 29.57 214.529 273.884 32.8582 214.042 
274.087 32.944 213.855 274.83 33.4652 213.781 306.165 31.6512 214.251 
271.631 33.9989 213.891 275.277 33.8309 213.614 305.45 32.786 214.294 
272.209 34.0378 213.021 270.015 34.9254 213.735 276.997 35.7564 213.62 
303.673 35.5154 214.984 266.959 36.5932 213.947 287.857 38.2851 213.679 
287.666 40.3708 213.532 299.053 39.2811 214.052 258.449 40.8903 213.906 
289.224 40.9816 213.162 291.98 41.0824 213.061 286.793 41.237 213.424 
290.911 41.8706 213.241 293.398 41.9945 213.859 292.425 42.3602 213.667 
253.571 44.2406 213.927 290.161 43.5972 213.023 251.6 45.927 213.955 
291.039 43.9085 213.232 249.573 47.8051 213.976 293.289 46.3153 213.071 
295.08 47.0908 213.368 298.02 48.2286 213.458 300.023 49.0815 213.679 
247.334 50.0681 213.942 246.689 50.879 213.986 302.033 51.5866 214.006 
245.781 52.2317 213.671 244.908 53.7696 213.783 302.922 54.4559 213.746 
244.011 56.4388 213.439 243.686 57.9934 213.386 243.763 57.5615 213.789 
303.524 57.8023 214.183 243.599 59.1278 213.821 243.503 60.1163 213.754 
303.883 59.2007 214.987 303.816 59.5063 214.961 303.954 59.4269 215.228 
301.937 60.7563 214.443 303.573 59.8204 214.871 284.406 61.5055 214.011 
302.536 60.9491 215.087 273.89 65.2426 213.49 243.12 66.2448 213.762 
265.414 70.8707 213.664 242.609 78.0112 214.311 254.917 78.2156 214.038 
247.901 80.356 213.869 248.742 80.339 213.767 306.165 25.95 214.24 
289.107 27.5699 213.758 290.308 27.103 213.991 306.007 26.0367 214.435 
292.831 27.4874 214.361 293.363 27.5351 214.146 300.22 27.9725 214.264 
306.927 27.7655 214.529 288.737 28.5506 214.121 294.716 28.1666 214.164 
288.255 29.4571 213.877 297.103 28.9292 214.415 298.518 28.8692 213.913 
298.231 28.871 214.472 306.927 28.9561 215.028 273.623 32.8799 214.121 
273.78 32.8719 214.275 273.518 32.9463 214.269 274.016 32.8684 214.238 
274.184 32.9295 214.074 274.468 33.15 214.125 273.226 33.1851 214.341 
288.222 32.6457 214.369 270.467 34.7318 214.792 271.322 34.1715 214.143 
272.739 33.6413 214.553 275.738 34.3221 214.161 306.147 32.1936 215.112 
305.007 33.9472 215.176 268.656 35.8562 215.072 267.959 36.0802 214.797 
287.85 35.705 214.769 267.466 36.2894 214.403 277.332 36.4178 214.487 
303.41 36.0612 215.305 287.362 36.9308 214.92 278.934 38.0979 214.561 
286.821 38.2711 214.782 259.239 40.5681 214.741 280.508 39.2441 214.199 
280.253 39.0587 214.609 287.079 38.9283 214.158 258.012 41.1841 214.714 
286.369 39.8231 214.123 285.622 39.7544 214.451 257.576 41.3906 214.296 
295.951 41.2209 214.572 299.147 39.683 214.857 255.602 42.5742 214.597 
296.398 41.3215 215.215 254.033 43.9521 214.811 291.769 43.1886 213.565 
293.411 43.0623 214.257 252.918 44.8689 214.648 292.229 44.4752 213.561 
249.211 48.2047 214.485 299.463 48.6184 213.89 300.015 48.7781 214.462 
247.972 49.5444 214.758 246.842 50.7929 214.438 247.137 50.7848 215.042 
246.265 51.6144 214.518 246.389 51.7382 214.994 302.345 51.7629 214.988 
245.639 52.8341 214.778 245.332 53.553 214.966 244.666 54.4254 214.436 
[...]
POINT_DATA 1591
COLOR_SCALARS scalars 3
0.101961 0.65098 0.596078 0.101961 0.65098 0.596078 0.101961 0.65098 0.596078 
0.101961 0.65098 0.596078 0.101961 0.65098 0.596078 
0.101961 0.65098 0.596078 0.101961 0.65098 0.596078 
0.101961 0.65098 0.596078 0.101961 0.65098 0.596078 
0.101961 0.65098 0.596078 0.101961 0.65098 0.596078 
0.101961 0.65098 0.596078 0.101961 0.65098 0.596078 
0.101961 0.65098 0.596078 0.101961 0.65098 0.596078 
0.101961 0.65098 0.596078 0.101961 0.65098 0.596078 
0.101961 0.65098 0.596078 0.101961 0.65098 0.596078 
0.101961 0.65098 0.596078 0.101961 0.65098 0.596078 
0.101961 0.65098 0.596078 0.101961 0.65098 0.596078 
0.101961 0.65098 0.596078 0.101961 0.65098 0.596078 
0.101961 0.65098 0.596078 0.101961 0.65098 0.596078 
0.101961 0.65098 0.596078 0.101961 0.65098 0.596078 
0.101961 0.65098 0.596078 0.101961 0.65098 0.596078 
0.101961 0.65098 0.596078 0.101961 0.65098 0.596078 
0.101961 0.65098 0.596078 0.101961 0.65098 0.596078 
0.101961 0.65098 0.596078 0.101961 0.65098 0.596078 
0.101961 0.65098 0.596078 0.101961 0.65098 0.596078 
0.101961 0.65098 0.596078 0.101961 0.65098 0.596078 
0.101961 0.65098 0.596078 0.101961 0.65098 0.596078 
0.101961 0.65098 0.596078 0.101961 0.65098 0.596078 
0.101961 0.65098 0.596078 0.101961 0.65098 0.596078 
0.101961 0.65098 0.596078 0.101961 0.65098 0.596078 
0.101961 0.65098 0.596078 0.101961 0.65098 0.596078 
0.101961 0.65098 0.596078 0.101961 0.65098 0.596078 
0.101961 0.65098 0.596078 0.101961 0.65098 0.596078 
0.101961 0.65098 0.596078 0.101961 0.65098 0.596078 
0.101961 0.65098 0.596078 0.101961 0.65098 0.596078 
0.101961 0.65098 0.596078 0.101961 0.65098 0.596078 
0.101961 0.65098 0.596078 0.101961 0.65098 0.596078 
0.101961 0.65098 0.596078 0.101961 0.65098 0.596078 
0.101961 0.65098 0.596078 0.101961 0.65098 0.596078 
0.101961 0.65098 0.596078 0.101961 0.65098 0.596078 
0.101961 0.65098 0.596078 0.101961 0.65098 0.596078 
0.101961 0.65098 0.596078 0.101961 0.65098 0.596078 
0.101961 0.65098 0.596078 0.101961 0.65098 0.596078 
0.101961 0.65098 0.596078 0.101961 0.65098 0.596078 
0.101961 0.65098 0.596078 0.101961 0.65098 0.596078 
0.101961 0.65098 0.596078 0.101961 0.65098 0.596078 
0.101961 0.65098 0.596078 0.101961 0.65098 0.596078 
0.101961 0.65098 0.596078 0.101961 0.65098 0.596078 
0.101961 0.65098 0.596078 0.101961 0.65098 0.596078 
0.101961 0.65098 0.596078 0.101961 0.65098 0.596078 
0.101961 0.65098 0.596078 0.101961 0.65098 0.596078 
0.101961 0.65098 0.596078 0.101961 0.65098 0.596078 
0.101961 0.65098 0.596078 0.101961 0.65098 0.596078 
0.101961 0.65098 0.596078 0.101961 0.65098 0.596078 
0.101961 0.65098 0.596078 0.101961 0.65098 0.596078 
0.101961 0.65098 0.596078 0.101961 0.65098 0.596078 
0.101961 0.65098 0.596078 0.101961 0.65098 0.596078 
0.101961 0.65098 0.596078 0.101961 0.65098 0.596078 
0.101961 0.65098 0.596078 0.101961 0.65098 0.596078 
0.101961 0.65098 0.596078 0.101961 0.65098 0.596078 
0.101961 0.65098 0.596078 0.101961 0.65098 0.596078 
0.101961 0.65098 0.596078 0.101961 0.65098 0.596078 
0.101961 0.65098 0.596078 0.101961 0.65098 0.596078 
0.101961 0.65098 0.596078 0.101961 0.65098 0.596078 
0.101961 0.65098 0.596078 0.101961 0.65098 0.596078 
0.101961 0.65098 0.596078 0.101961 0.65098 0.596078 
0.101961 0.65098 0.596078 0.101961 0.65098 0.596078 
0.101961 0.65098 0.596078 0.101961 0.65098 0.596078 
0.101961 0.65098 0.596078 0.101961 0.65098 0.596078 
0.101961 0.65098 0.596078 0.101961 0.65098 0.596078 
0.101961 0.65098 0.596078 0.101961 0.65098 0.596078 
0.101961 0.65098 0.596078 0.101961 0.65098 0.596078 
0.101961 0.65098 0.596078 0.101961 0.65098 0.596078 
0.101961 0.65098 0.596078 0.101961 0.65098 0.596078 
0.101961 0.65098 0.596078 0.101961 0.65098 0.596078 
0.101961 0.65098 0.596078 0.101961 0.65098 0.596078 
0.101961 0.65098 0.596078 0.101961 0.65098 0.596078 
0.101961 0.65098 0.596078 0.101961 0.65098 0.596078 
0.101961 0.65098 0.596078 0.101961 0.65098 0.596078 
0.101961 0.65098 0.596078 0.101961 0.65098 0.596078 
0.101961 0.65098 0.596078 0.101961 0.65098 0.596078 
0.101961 0.65098 0.596078 0.101961 0.65098 0.596078 
0.101961 0.65098 0.596078 0.101961 0.65098 0.596078 
0.101961 0.65098 0.596078 0.101961 0.65098 0.596078 
0.101961 0.65098 0.596078 0.101961 0.65098 0.596078 
0.101961 0.65098 0.596078 0.101961 0.65098 0.596078 
0.101961 0.65098 0.596078 0.101961 0.65098 0.596078 
0.101961 0.65098 0.596078 0.101961 0.65098 0.596078 
0.101961 0.65098 0.596078 0.101961 0.65098 0.596078 
0.101961 0.65098 0.596078 0.101961 0.65098 0.596078 
0.101961 0.65098 0.596078 0.101961 0.65098 0.596078 
0.101961 0.65098 0.596078 0.101961 0.65098 0.596078 
0.101961 0.65098 0.596078 0.101961 0.65098 0.596078 
0.101961 0.65098 0.596078 0.101961 0.65098 0.596078 
0.101961 0.65098 0.596078 0.101961 0.65098 0.596078 
0.101961 0.65098 0.596078 0.101961 0.65098 0.596078 
0.101961 0.65098 0.596078 0.101961 0.65098 0.596078 
0.101961 0.65098 0.596078 0.101961 0.65098 0.596078 
0.101961 0.65098 0.596078 0.101961 0.65098 0.596078 
0.101961 0.65098 0.596078 0.101961 0.65098 0.596078 
0.101961 0.65098 0.596078 0.101961 0.65098 0.596078 
0.101961 0.65098 0.596078 0.101961 0.65098 0.596078 
0.101961 0.65098 0.596078 0.101961 0.65098 0.596078 
0.101961 0.65098 0.596078 0.101961 0.65098 0.596078 
0.101961 0.65098 0.596078 0.101961 0.65098 0.596078 
0.101961 0.65098 0.596078 0.101961 0.65098 0.596078 
0.101961 0.65098 0.596078 0.101961 0.65098 0.596078 
0.101961 0.65098 0.596078 0.101961 0.65098 0.596078 
0.101961 0.65098 0.596078 0.101961 0.65098 0.596078 
0.101961 0.65098 0.596078 0.101961 0.65098 0.596078 
0.101961 0.65098 0.596078 0.101961 0.65098 0.596078 
0.101961 0.65098 0.596078 0.101961 0.65098 0.596078 
0.101961 0.65098 0.596078 0.101961 0.65098 0.596078 
0.101961 0.65098 0.596078 0.101961 0.65098 0.596078 
0.101961 0.65098 0.596078 0.101961 0.65098 0.596078 
0.101961 0.65098 0.596078 0.101961 0.65098 0.596078 
0.101961 0.65098 0.596078 0.101961 0.65098 0.596078 
0.101961 0.65098 0.596078 0.101961 0.65098 0.596078 
0.101961 0.65098 0.596078 0.101961 0.65098 0.596078 
0.101961 0.65098 0.596078 0.101961 0.65098 0.596078 
0.101961 0.65098 0.596078 0.101961 0.65098 0.596078 
0.101961 0.65098 0.596078 0.101961 0.65098 0.596078 
0.101961 0.65098 0.596078 0.101961 0.65098 0.596078 
0.101961 0.65098 0.596078 0.101961 0.65098 0.596078 
0.101961 0.65098 0.596078 0.101961 0.65098 0.596078 
0.101961 0.65098 0.596078 0.101961 0.65098 0.596078 
0.101961 0.65098 0.596078 0.101961 0.65098 0.596078 
0.101961 0.65098 0.596078 0.101961 0.65098 0.596078 
0.101961 0.65098 0.596078 0.101961 0.65098 0.596078 
0.101961 0.65098 0.596078 0.101961 0.65098 0.596078 
0.101961 0.65098 0.596078 0.101961 0.65098 0.596078 
0.101961 0.65098 0.596078 0.101961 0.65098 0.596078 
0.101961 0.65098 0.596078 0.101961 0.65098 0.596078 
0.101961 0.65098 0.596078 0.101961 0.65098 0.596078 
0.101961 0.65098 0.596078 0.101961 0.65098 0.596078 
0.101961 0.65098 0.596078 0.101961 0.65098 0.596078 
0.101961 0.65098 0.596078 0.101961 0.65098 0.596078 
0.101961 0.65098 0.596078 0.101961 0.65098 0.596078 
0.101961 0.65098 0.596078 0.101961 0.65098 0.596078 
0.101961 0.65098 0.596078 0.101961 0.65098 0.596078 
0.101961 0.65098 0.596078 0.101961 0.65098 0.596078 
0.101961 0.65098 0.596078 0.101961 0.65098 0.596078 
0.101961 0.65098 0.596078 0.101961 0.65098 0.596078 
0.101961 0.65098 0.596078 0.101961 0.65098 0.596078 
0.101961 0.65098 0.596078 0.101961 0.65098 0.596078 
0.101961 0.65098 0.596078 0.101961 0.65098 0.596078 
0.101961 0.65098 0.596078 0.101961 0.65098 0.596078 
0.101961 0.65098 0.596078 0.101961 0.65098 0.596078 
0.101961 0.65098 0.596078 0.101961 0.65098 0.596078 
0.101961 0.65098 0.596078 0.101961 0.65098 0.596078 
0.101961 0.65098 0.596078 0.101961 0.65098 0.596078 
0.101961 0.65098 0.596078 0.101961 0.65098 0.596078 
0.101961 0.65098 0.596078 0.101961 0.65098 0.596078 
0.101961 0.65098 0.596078 0.101961 0.65098 0.596078 
0.101961 0.65098 0.596078 0.101961 0.65098 0.596078 
0.101961 0.65098 0.596078 0.101961 0.65098 0.596078 
0.101961 0.65098 0.596078 0.101961 0.65098 0.596078 
0.101961 0.65098 0.596078 0.101961 0.65098 0.596078 
0.101961 0.65098 0.596078 0.101961 0.65098 0.596078 
0.101961 0.65098 0.596078 0.101961 0.65098 0.596078 
0.101961 0.65098 0.596078 0.101961 0.65098 0.596078 
0.101961 0.65098 0.596078 0.101961 0.65098 0.596078 
0.101961 0.65098 0.596078 0.101961 0.65098 0.596078 
0.101961 0.65098 0.596078 0.101961 0.65098 0.596078 
0.101961 0.65098 0.596078 0.101961 0.65098 0.596078 
0.101961 0.65098 0.596078 0.101961 0.65098 0.596078 
0.101961 0.65098 0.596078 0.101961 0.65098 0.596078 
0.101961 0.65098 0.596078 0.101961 0.65098 0.596078 
0.101961 0.65098 0.596078 0.101961 0.65098 0.596078 
0.101961 0.65098 0.596078 0.101961 0.65098 0.596078 
0.101961 0.65098 0.596078 0.101961 0.65098 0.596078 
0.101961 0.65098 0.596078 0.101961 0.65098 0.596078 
0.101961 0.65098 0.596078 0.101961 0.65098 0.596078 
0.101961 0.65098 0.596078 0.101961 0.65098 0.596078 
0.101961 0.65098 0.596078 0.101961 0.65098 0.596078 
0.101961 0.65098 0.596078 0.101961 0.65098 0.596078 
0.101961 0.65098 0.596078 0.101961 0.65098 0.596078 
0.101961 0.65098 0.596078 0.101961 0.65098 0.596078 
0.101961 0.65098 0.596078 0.101961 0.65098 0.596078 
0.101961 0.65098 0.596078 0.101961 0.65098 0.596078 
0.101961 0.65098 0.596078 0.101961 0.65098 0.596078 
0.101961 0.65098 0.596078 0.101961 0.65098 0.596078 
0.101961 0.65098 0.596078 0.101961 0.65098 0.596078 
0.101961 0.65098 0.596078 0.101961 0.65098 0.596078 
0.101961 0.65098 0.596078 0.101961 0.65098 0.596078 
0.101961 0.65098 0.596078 0.101961 0.65098 0.596078 
0.101961 0.65098 0.596078 0.101961 0.65098 0.596078 
0.101961 0.65098 0.596078 0.101961 0.65098 0.596078 
0.101961 0.65098 0.596078 0.101961 0.65098 0.596078 
0.101961 0.65098 0.596078 0.101961 0.65098 0.596078 
0.101961 0.65098 0.596078 0.101961 0.65098 0.596078 
0.101961 0.65098 0.596078 0.101961 0.65098 0.596078 
0.101961 0.65098 0.596078 0.101961 0.65098 0.596078 
0.101961 0.65098 0.596078 0.101961 0.65098 0.596078 
0.101961 0.65098 0.596078 0.101961 0.65098 0.596078 
0.101961 0.65098 0.596078 0.101961 0.65098 0.596078 
0.101961 0.65098 0.596078 0.101961 0.65098 0.596078 
0.101961 0.65098 0.596078 0.101961 0.65098 0.596078 
0.101961 0.65098 0.596078 0.101961 0.65098 0.596078 
0.101961 0.65098 0.596078 0.101961 0.65098 0.596078 
0.101961 0.65098 0.596078 0.101961 0.65098 0.596078 
0.101961 0.65098 0.596078 0.101961 0.65098 0.596078 
0.101961 0.65098 0.596078 0.101961 0.65098 0.596078 
0.101961 0.65098 0.596078 0.101961 0.65098 0.596078 
0.101961 0.65098 0.596078 0.101961 0.65098 0.596078 
0.101961 0.65098 0.596078 0.101961 0.65098 0.596078 
0.101961 0.65098 0.596078 0.101961 0.65098 0.596078 
0.101961 0.65098 0.596078 0.101961 0.65098 0.596078 
0.101961 0.65098 0.596078 0.101961 0.65098 0.596078 
0.101961 0.65098 0.596078 0.101961 0.65098 0.596078 
0.101961 0.65098 0.596078 0.101961 0.65098 0.596078 
0.101961 0.65098 0.596078 0.101961 0.65098 0.596078 
0.101961 0.65098 0.596078 0.101961 0.65098 0.596078 
0.101961 0.65098 0.596078 0.101961 0.65098 0.596078 
0.101961 0.65098 0.596078 0.101961 0.65098 0.596078 
0.101961 0.65098 0.596078 0.101961 0.65098 0.596078 
0.101961 0.65098 0.596078 0.101961 0.65098 0.596078 
0.101961 0.65098 0.596078 0.101961 0.65098 0.596078 
0.101961 0.65098 0.596078 0.101961 0.65098 0.596078 
0.101961 0.65098 0.596078 0.101961 0.65098 0.596078 
0.101961 0.65098 0.596078 0.101961 0.65098 0.596078 
0.101961 0.65098 0.596078 0.101961 0.65098 0.596078 
0.101961 0.65098 0.596078 0.101961 0.65098 0.596078 
0.101961 0.65098 0.596078 0.101961 0.65098 0.596078 
0.101961 0.65098 0.596078 0.101961 0.65098 0.596078 
0.101961 0.65098 0.596078 0.101961 0.65098 0.596078 
0.101961 0.65098 0.596078 0.101961 0.65098 0.596078 
0.101961 0.65098 0.596078 0.101961 0.65098 0.596078 
0.101961 0.65098 0.596078 0.101961 0.65098 0.596078 
0.101961 0.65098 0.596078 0.101961 0.65098 0.596078 
0.101961 0.65098 0.596078 0.101961 0.65098 0.596078 
0.101961 0.65098 0.596078 0.101961 0.65098 0.596078 
0.101961 0.65098 0.596078 0.101961 0.65098 0.596078 
0.101961 0.65098 0.596078 0.101961 0.65098 0.596078 
0.101961 0.65098 0.596078 0.101961 0.65098 0.596078 
0.101961 0.65098 0.596078 0.101961 0.65098 0.596078 
0.101961 0.65098 0.596078 0.101961 0.65098 0.596078 
0.101961 0.65098 0.596078 0.101961 0.65098 0.596078 
0.101961 0.65098 0.596078 0.101961 0.65098 0.596078 
0.101961 0.65098 0.596078 0.101961 0.65098 0.596078 
0.101961 0.65098 0.596078 0.101961 0.65098 0.596078 
0.101961 0.65098 0.596078 0.101961 0.65098 0.596078 
0.101961 0.65098 0.596078 0.101961 0.65098 0.596078 
0.101961 0.65098 0.596078 0.101961 0.65098 0.596078 
0.101961 0.65098 0.596078 0.101961 0.65098 0.596078 
0.101961 0.65098 0.596078 0.101961 0.65098 0.596078 
0.101961 0.65098 0.596078 0.101961 0.65098 0.596078 
0.101961 0.65098 0.596078 0.101961 0.65098 0.596078 
0.101961 0.65098 0.596078 0.101961 0.65098 0.596078 
0.101961 0.65098 0.596078 0.101961 0.65098 0.596078 
0.101961 0.65098 0.596078 0.101961 0.65098 0.596078 
0.101961 0.65098 0.596078 0.101961 0.65098 0.596078 
0.101961 0.65098 0.596078 0.101961 0.65098 0.596078 
0.101961 0.65098 0.596078 0.101961 0.65098 0.596078 
0.101961 0.65098 0.596078 0.101961 0.65098 0.596078 
0.101961 0.65098 0.596078 0.101961 0.65098 0.596078 
0.101961 0.65098 0.596078 0.101961 0.65098 0.596078 
0.101961 0.65098 0.596078 0.101961 0.65098 0.596078 
0.101961 0.65098 0.596078 0.101961 0.65098 0.596078 
0.101961 0.65098 0.596078 0.101961 0.65098 0.596078 
0.101961 0.65098 0.596078 0.101961 0.65098 0.596078 
0.101961 0.65098 0.596078 0.101961 0.65098 0.596078 
0.101961 0.65098 0.596078 0.101961 0.65098 0.596078 
0.101961 0.65098 0.596078 0.101961 0.65098 0.596078 
0.101961 0.65098 0.596078 0.101961 0.65098 0.596078 
0.101961 0.65098 0.596078 0.101961 0.65098 0.596078 
0.101961 0.65098 0.596078 0.101961 0.65098 0.596078 
0.101961 0.65098 0.596078 0.101961 0.65098 0.596078 
0.101961 0.65098 0.596078 0.101961 0.65098 0.596078 
0.101961 0.65098 0.596078 0.101961 0.65098 0.596078 
0.101961 0.65098 0.596078 0.101961 0.65098 0.596078 
0.101961 0.65098 0.596078 0.101961 0.65098 0.596078 
0.101961 0.65098 0.596078 0.101961 0.65098 0.596078 
0.101961 0.65098 0.596078 0.101961 0.65098 0.596078 
0.101961 0.65098 0.596078 0.101961 0.65098 0.596078 
0.101961 0.65098 0.596078 0.101961 0.65098 0.596078 
0.101961 0.65098 0.596078 0.101961 0.65098 0.596078 
0.101961 0.65098 0.596078 0.101961 0.65098 0.596078 
0.101961 0.65098 0.596078 0.101961 0.65098 0.596078 
0.101961 0.65098 0.596078 0.101961 0.65098 0.596078 
0.101961 0.65098 0.596078 0.101961 0.65098 0.596078 
0.101961 0.65098 0.596078 0.101961 0.65098 0.596078 
0.101961 0.65098 0.596078 0.101961 0.65098 0.596078 
0.101961 0.65098 0.596078 0.101961 0.65098 0.596078 
0.101961 0.65098 0.596078 0.101961 0.65098 0.596078 
0.101961 0.65098 0.596078 0.101961 0.65098 0.596078 
0.101961 0.65098 0.596078 0.101961 0.65098 0.596078 
0.101961 0.65098 0.596078 0.101961 0.65098 0.596078 
0.101961 0.65098 0.596078 0.101961 0.65098 0.596078 
0.101961 0.65098 0.596078 0.101961 0.65098 0.596078 
0.101961 0.65098 0.596078 0.101961 0.65098 0.596078 
0.101961 0.65098 0.596078 0.101961 0.65098 0.596078 
0.101961 0.65098 0.596078 0.101961 0.65098 0.596078 
0.101961 0.65098 0.596078 0.101961 0.65098 0.596078 
0.101961 0.65098 0.596078 0.101961 0.65098 0.596078 
0.101961 0.65098 0.596078 0.101961 0.65098 0.596078 
0.101961 0.65098 0.596078 0.101961 0.65098 0.596078 
0.101961 0.65098 0.596078 0.101961 0.65098 0.596078 
0.101961 0.65098 0.596078 0.101961 0.65098 0.596078 
0.101961 0.65098 0.596078 0.101961 0.65098 0.596078 
0.101961 0.65098 0.596078 0.101961 0.65098 0.596078 
0.101961 0.65098 0.596078 0.101961 0.65098 0.596078 
0.101961 0.65098 0.596078 0.101961 0.65098 0.596078 
0.101961 0.65098 0.596078 0.101961 0.65098 0.596078 
0.101961 0.65098 0.596078 0.101961 0.65098 0.596078 
0.101961 0.65098 0.596078 0.101961 0.65098 0.596078 
0.101961 0.65098 0.596078 0.101961 0.65098 0.596078 
0.101961 0.65098 0.596078 0.101961 0.65098 0.596078 
0.101961 0.65098 0.596078 0.101961 0.65098 0.596078 
0.101961 0.65098 0.596078 0.101961 0.65098 0.596078 
0.101961 0.65098 0.596078 0.101961 0.65098 0.596078 
0.101961 0.65098 0.596078 0.101961 0.65098 0.596078 
0.101961 0.65098 0.596078 0.101961 0.65098 0.596078 
0.101961 0.65098 0.596078 0.101961 0.65098 0.596078 
0.101961 0.65098 0.596078 0.101961 0.65098 0.596078 
0.101961 0.65098 0.596078 0.101961 0.65098 0.596078 
0.101961 0.65098 0.596078 0.101961 0.65098 0.596078 
0.101961 0.65098 0.596078 0.101961 0.65098 0.596078 
0.101961 0.65098 0.596078 0.101961 0.65098 0.596078 
0.101961 0.65098 0.596078 0.101961 0.65098 0.596078 
0.101961 0.65098 0.596078 0.101961 0.65098 0.596078 
0.101961 0.65098 0.596078 0.101961 0.65098 0.596078 
0.101961 0.65098 0.596078 0.101961 0.65098 0.596078 
0.101961 0.65098 0.596078 0.101961 0.65098 0.596078 
0.101961 0.65098 0.596078 0.101961 0.65098 0.596078 
0.101961 0.65098 0.596078 0.101961 0.65098 0.596078 
0.101961 0.65098 0.596078 0.101961 0.65098 0.596078 
0.101961 0.65098 0.596078 0.101961 0.65098 0.596078 
0.101961 0.65098 0.596078 0.101961 0.65098 0.596078 
0.101961 0.65098 0.596078 0.101961 0.65098 0.596078 
0.101961 0.65098 0.596078 0.101961 0.65098 0.596078 
0.101961 0.65098 0.596078 0.101961 0.65098 0.596078 
0.101961 0.65098 0.596078 0.101961 0.65098 0.596078 
0.101961 0.65098 0.596078 0.101961 0.65098 0.596078 
0.101961 0.65098 0.596078 0.101961 0.65098 0.596078 
0.101961 0.65098 0.596078 0.101961 0.65098 0.596078 
0.101961 0.65098 0.596078 0.101961 0.65098 0.596078 
0.101961 0.65098 0.596078 0.101961 0.65098 0.596078 
0.101961 0.65098 0.596078 0.101961 0.65098 0.596078 
0.101961 0.65098 0.596078 0.101961 0.65098 0.596078 
0.101961 0.65098 0.596078 0.101961 0.65098 0.596078 
0.101961 0.65098 0.596078 0.101961 0.65098 0.596078 
0.101961 0.65098 0.596078 0.101961 0.65098 0.596078 
0.101961 0.65098 0.596078 0.101961 0.65098 0.596078 
0.101961 0.65098 0.596078 0.101961 0.65098 0.596078 
0.101961 0.65098 0.596078 0.101961 0.65098 0.596078 
0.101961 0.65098 0.596078 0.101961 0.65098 0.596078 
0.101961 0.65098 0.596078 0.101961 0.65098 0.596078 
0.101961 0.65098 0.596078 0.101961 0.65098 0.596078 
0.101961 0.65098 0.596078 0.101961 0.65098 0.596078 
0.101961 0.65098 0.596078 0.101961 0.65098 0.596078 
0.101961 0.65098 0.596078 0.101961 0.65098 0.596078 
0.101961 0.65098 0.596078 0.101961 0.65098 0.596078 
0.101961 0.65098 0.596078 0.101961 0.65098 0.596078 
0.101961 0.65098 0.596078 0.101961 0.65098 0.596078 
0.101961 0.65098 0.596078 0.101961 0.65098 0.596078 
0.101961 0.65098 0.596078 0.101961 0.65098 0.596078 
0.101961 0.65098 0.596078 0.101961 0.65098 0.596078 
0.101961 0.65098 0.596078 0.101961 0.65098 0.596078 
0.101961 0.65098 0.596078 0.101961 0.65098 0.596078 
0.101961 0.65098 0.596078 0.101961 0.65098 0.596078 
0.101961 0.65098 0.596078 0.101961 0.65098 0.596078 
0.101961 0.65098 0.596078 0.101961 0.65098 0.596078 
0.101961 0.65098 0.596078 0.101961 0.65098 0.596078 
0.101961 0.65098 0.596078 0.101961 0.65098 0.596078 
0.101961 0.65098 0.596078 0.101961 0.65098 0.596078 
0.101961 0.65098 0.596078 0.101961 0.65098 0.596078 
0.101961 0.65098 0.596078 0.101961 0.65098 0.596078 
0.101961 0.65098 0.596078 0.101961 0.65098 0.596078 
0.101961 0.65098 0.596078 0.101961 0.65098 0.596078 
0.101961 0.65098 0.596078 0.101961 0.65098 0.596078 
0.101961 0.65098 0.596078 0.101961 0.65098 0.596078 
0.101961 0.65098 0.596078 0.101961 0.65098 0.596078 
0.101961 0.65098 0.596078 0.101961 0.65098 0.596078 
0.101961 0.65098 0.596078 0.101961 0.65098 0.596078 
0.101961 0.65098 0.596078 0.101961 0.65098 0.596078 
0.101961 0.65098 0.596078 0.101961 0.65098 0.596078 
0.101961 0.65098 0.596078 0.101961 0.65098 0.596078 
0.101961 0.65098 0.596078 0.101961 0.65098 0.596078 
0.101961 0.65098 0.596078 0.101961 0.65098 0.596078 
0.101961 0.65098 0.596078 0.101961 0.65098 0.596078 
0.101961 0.65098 0.596078 0.101961 0.65098 0.596078 