# vtk DataFile Version 4.2
vtk output
ASCII
DATASET POLYDATA
POINTS 594 float
287.813 35.0722 208.135 283.025 36.894 207.013 279.62 37.5114 207.959 
290.159 37.5354 207.652 280.35 38.4451 207.476 293.137 38.5061 208.253 
295.541 39.2338 208.101 279.064 38.7242 208.427 296.508 39.8988 208.032 
287.836 39.8974 206.596 296.989 40.0257 208.248 279.311 39.8473 208.355 
282.053 40.6872 207.098 291.706 40.8435 206.836 295.595 41.0262 207.341 
279.916 40.9066 208.212 293.534 41.7031 206.965 280.025 41.3356 208.397 
280.489 41.5238 208.121 281.185 42.0313 207.99 297.614 42.2322 207.901 
297.978 42.0824 208.126 286.196 32.768 209.029 286.112 33.5962 208.402 
286.95 33.3378 209.248 290.745 37.1901 208.553 296.378 39.3958 208.568 
278.783 39.2404 209.078 297.678 40.3977 208.728 297.981 40.856 208.637 
298.003 41.1684 208.438 279.611 41.0588 209.173 279.95 41.5729 209.095 
280.217 41.8612 209.421 292.164 43.2838 207.034 298.895 42.8739 208.743 
299.12 42.7004 209.053 281.544 43.0261 208.768 282.144 43.4187 208.536 
283.393 43.5777 207.938 287.973 43.9279 207.377 297.523 43.7849 207.855 
285.848 44.3781 207.894 289.808 44.7398 207.589 295.677 44.8 207.529 
299.37 43.953 209.087 283.648 44.733 209.15 284.11 44.5898 208.592 
288.618 45.2779 208.103 291.657 45.5438 207.782 285.618 45.1647 208.83 
288.437 45.7753 208.638 290.532 46.0909 208.337 298.684 45.8568 208.567 
300.077 46.3517 209.482 284.727 32.2081 209.127 284.282 32.2919 209.091 
286.713 32.6206 209.876 288.809 35.3274 209.642 278.232 36.1205 209.677 
291.942 37.7713 209.467 294.14 38.4985 209.226 295.28 38.8732 208.825 
295.744 39.0189 209.134 278.7 39.2804 209.489 298.578 41.2408 209.339 
279.618 41.0724 209.668 299.093 42.2671 209.282 282.402 44.048 209.558 
282.544 44.1128 209.868 284.005 44.9341 209.329 284.178 45.0166 209.617 
286.624 45.6296 209.34 289.389 46.4168 209.166 290.455 46.607 208.899 
295.215 47.0119 208.175 291.464 47.2633 209.329 299.721 46.9009 209.489 
292.603 47.9999 209.972 298.767 47.8492 209.146 294.497 48.6835 209.881 
299.006 48.3532 209.576 299.567 48.0482 210.051 296.973 49.2277 209.71 
297.267 48.9787 209.306 298.472 48.771 209.447 297.243 49.1923 209.552 
298.641 49.0202 209.725 284.104 31.4437 209.853 285.253 31.8485 209.558 
285.903 31.7069 210.148 277.928 35.7826 210.301 278.274 37.9593 210.349 
294.598 38.6385 209.438 278.447 38.6246 210.195 295.902 39.1426 209.758 
297.24 39.7025 209.746 279.76 40.8191 210.718 298.327 40.7429 209.659 
299.366 42.2736 209.862 285.158 45.303 209.852 287.994 46.1761 210.36 
299.992 47.6896 210.62 295.385 48.9591 210.501 298.474 49.2156 210.386 
298.955 49.0186 210.271 298.886 48.9857 209.939 299.351 48.7619 210.586 
284.537 30.0915 211.248 285.082 29.9088 211.795 283.742 30.1502 211.108 
285.262 30.7475 210.925 285.536 30.434 211.6 279.974 31.762 210.93 
277.551 33.1961 211.865 277.924 32.6769 211.683 287.394 32.9699 211.527 
278.239 37.9046 211.016 291.126 37.7414 210.783 294.75 39.045 210.824 
299.412 41.8954 210.75 282.702 43.7427 210.879 300.64 45.0073 211.295 
286.106 45.4406 210.604 300.563 46.5363 211.348 300.317 47.2411 211.274 
295.139 48.7986 210.946 298.634 49.1524 210.838 298.914 49.0022 211.118 
299.394 48.7653 210.962 282.499 29.5352 212.202 282.98 29.5518 211.926 
278.284 31.9241 212.023 277.596 32.4893 212.401 277.445 32.988 212.37 
287.38 33.0109 212.315 277.807 36.289 211.888 289.195 36.4703 211.635 
278.226 37.6429 211.678 291.097 38.9347 212.269 293.631 39.1786 211.665 
292.443 39.3913 212.274 295.156 39.7512 212.179 297.686 40.2915 211.688 
298.445 40.7143 210.928 282.022 42.0019 212.261 300.432 43.7068 211.536 
300.773 46.0301 212.253 299.891 47.9442 211.929 284.12 28.9098 212.799 
284.101 28.7691 213.197 284.619 28.9307 212.82 284.748 28.8407 213.052 
284.916 28.949 213.126 284.893 29.2294 212.602 281.313 30.1304 212.129 
286.064 30.4348 212.896 277.819 31.6621 213.346 277.658 31.9479 213.049 
278.245 31.3829 212.885 278.166 31.3382 213.267 286.337 30.9386 212.423 
287.464 33.8819 213.159 277.628 35.5176 212.461 278.414 37.3983 212.886 
289.341 39.1986 213.249 293.845 40.0988 212.862 290.736 40.1606 213.19 
292.42 40.4647 213.223 300.841 45.3666 213.05 300.917 45.8805 212.79 
300.868 46.1182 212.718 300.939 45.9939 212.878 300.595 46.5405 212.695 
300.858 46.0889 212.955 299.065 48.1896 212.737 299.307 48.2927 212.313 
284.079 28.7923 213.48 283.695 28.8466 213.354 284.714 28.8275 213.263 
282.711 29.1724 213.664 280.163 30.1483 214.015 280.527 29.9947 213.427 
279.835 30.3076 213.405 279.29 30.606 213.766 277.778 31.755 213.659 
277.591 32.048 213.376 277.362 33.0742 213.367 277.821 35.4673 213.569 
279.877 38.7304 213.778 288.489 40.165 213.742 287.649 40.373 213.965 
287.42 41.1067 213.881 293.808 41.3108 213.993 299.062 41.5315 213.202 
289.214 41.9181 213.657 292.346 42.2682 214.113 288.923 43.781 213.205 
290.935 44.0285 213.699 300.769 45.1339 214.084 300.906 45.8512 213.026 
300.727 45.8887 213.423 293.203 46.522 213.367 299.858 47.2891 213.364 
298.406 47.9857 213.412 284.336 28.9034 213.659 284.654 28.8948 213.499 
283.727 29.2204 214.119 284.234 29.1519 213.99 280.876 30.1495 214.466 
285.057 29.5874 213.97 278.584 31.1014 214.008 278.287 31.415 214.115 
286.523 31.9157 214.025 277.61 32.4747 213.913 286.757 33.4617 214.303 
278.391 35.9644 214.334 279.179 37.5246 214.249 286.938 37.6483 214.564 
280.461 38.7347 214.278 295.503 41.4841 214.598 291.671 43.2076 214.034 
292.488 42.9749 214.298 293.314 43.0101 214.65 294.261 42.8604 215.053 
300.639 44.4962 214.655 300.795 44.9377 214.576 300.771 45.1597 214.534 
300.803 45.0232 214.687 294.151 44.6576 215.033 293.694 45.1852 214.542 
300.518 45.5913 214.449 300.705 45.112 214.746 296.208 46.9405 214.609 
299.541 46.6527 214.752 282.172 30.1972 214.837 279.73 31.1164 214.839 
285.551 30.7931 214.658 283.433 31.0921 215.432 285.39 30.9325 214.847 
277.81 32.7335 214.245 278.7 32.7368 215.032 279.362 32.4426 215.308 
278.158 33.7781 214.713 278.214 34.3528 214.749 279.108 36.7827 214.685 
281.125 38.261 214.975 283.3 38.8691 215.191 295.97 42.6444 215.74 
297.404 42.0787 215.626 298.109 41.9304 215.378 300.246 43.18 214.63 
300.729 44.8902 214.788 300.45 44.8973 215.136 295.77 45.4033 215.713 
300.054 45.6087 215.28 297.365 46.5292 215.486 299.759 46.1887 215.133 
285.734 31.1581 214.707 285.799 32.9759 215.159 279.078 34.6934 215.339 
280.465 34.3468 215.947 282.022 34.136 216.234 283.6 33.9777 216.152 
284.979 33.7652 215.743 279.593 36.8684 214.984 284.339 37.5793 215.899 
297.473 42.5931 216.19 299.988 43.2484 215.574 296.405 43.053 216.161 
295.735 43.7958 216.041 298.29 46.0306 216.013 299.143 46.2938 215.533 
285.361 35.9684 215.835 283.628 37.381 216.083 297.386 42.8662 216.43 
297.686 42.937 216.508 299.163 42.7791 216.075 299.804 44.412 216.234 
296.181 44.541 216.265 296.954 45.4488 216.338 297.215 45.2768 216.511 
299.481 45.2512 216.301 298.614 43.197 216.585 299.107 43.1287 216.407 
298.151 43.8308 216.829 299.498 43.4913 216.37 297.364 44.3791 216.71 
298.541 44.1764 216.845 299.037 44.0667 216.733 298.405 44.6734 216.8 
299.4 44.4765 216.56 298.222 45.166 216.64 297.942 43.2484 238.272 
298.782 42.8892 238.476 299.75 43.1312 238.408 299.605 42.9816 238.461 
299.774 43.0094 238.595 297.694 43.4082 238.233 298.541 43.7102 238.068 
299.43 43.4843 238.2 299.719 43.7498 238.352 299.978 43.572 238.6 
297.087 44.4706 238.352 298.033 44.5089 238.209 297.316 45.2437 238.688 
298.763 45.3633 238.797 299.786 44.9022 238.899 285.252 35.553 239.204 
285.058 35.5933 239.128 285.23 35.8129 239.255 297.919 42.4059 239.057 
296.797 43.8388 238.459 300.236 44.2912 239.183 297.074 45.6799 239.099 
285.811 30.8844 240.189 285.765 30.6001 240.293 285.92 30.701 240.401 
281.387 31.4338 239.442 282.877 31.1298 239.473 285.503 31.2272 239.927 
285.918 31.2952 240.156 286.165 31.5715 240.391 278.577 33.6022 239.848 
281.541 33.3253 238.893 284.565 32.9382 239.208 285.806 32.6246 239.921 
286.223 32.2624 240.37 279.732 34.1743 239.278 285.675 33.6581 239.732 
278.305 34.6699 240.193 278.407 35.2381 240.302 286.235 34.1081 240.188 
284.546 35.5929 239.041 279.146 36.7801 240.344 279.557 36.9984 240.094 
279.998 36.9981 239.832 299.639 42.503 239.892 300.529 44.6613 239.901 
297.671 46.5415 239.768 280.925 30.2788 240.456 283.49 29.921 240.166 
278.643 31.1701 240.86 280.128 30.9398 240.106 279.774 30.7434 240.491 
286.055 30.7306 240.721 278.222 31.791 240.656 278.052 31.658 241.122 
277.89 32.0604 240.896 278.542 32.001 240.24 278.266 36.0601 241.028 
279.756 37.6362 240.376 286.487 37.1854 240.346 282.47 39.6036 240.434 
298.372 41.571 240.618 298.931 41.8347 240.488 295.495 42.7134 239.566 
299.883 42.5555 240.649 294.143 43.2532 240.071 294.726 43.6498 239.683 
300.678 44.2737 240.443 294.781 44.3837 239.654 294.128 44.6437 240.096 
300.781 44.6394 240.279 300.77 44.8139 240.284 300.851 44.7484 240.374 
300.625 45.1333 240.472 300.823 44.842 240.51 296.382 46.9273 240.514 
297.824 47.2699 240.656 284.231 28.7505 241.457 283.909 28.8549 241.289 
284.744 28.923 241.158 284.585 28.7706 241.376 284.841 28.8275 241.361 
284.991 28.9305 241.469 282.971 29.2492 241.082 282.411 29.3726 241.32 
284.194 29.1747 240.769 284.621 29.1587 240.858 279.938 30.41 240.967 
280.024 30.2504 241.382 279.735 30.3775 241.288 278.382 31.2894 241.099 
279.371 30.6259 241.33 278.322 31.3582 241.566 278.925 30.9615 241.751 
277.543 33.0665 241.113 286.82 32.7474 241.479 277.766 34.9277 241.163 
287.192 34.3908 241.648 278.486 36.6756 241.238 287.491 40.4573 241.113 
296.877 41.4111 240.468 300.552 43.6796 240.973 292.477 43.6719 240.767 
293.372 43.4754 240.416 300.833 44.6676 240.505 300.795 44.8067 241.011 
293.944 45.3601 240.479 300.683 45.6094 241.396 297.994 47.9223 241.64 
298.901 47.5146 241.352 299.402 47.3233 241.468 284.182 28.7606 241.746 
284.992 29.03 241.743 285.626 29.8608 242.067 277.731 31.9486 242 
277.581 32.2095 241.796 286.224 30.7724 241.828 277.437 32.6346 242.107 
[...]
POINT_DATA 594
COLOR_SCALARS scalars 3
0.101961 0.65098 0.596078 0.101961 0.65098 0.596078 0.101961 0.65098 0.596078 
0.101961 0.65098 0.596078 0.101961 0.65098 0.596078 
0.101961 0.65098 0.596078 0.101961 0.65098 0.596078 
0.101961 0.65098 0.596078 0.101961 0.65098 0.596078 
0.101961 0.65098 0.596078 0.101961 0.65098 0.596078 
0.101961 0.65098 0.596078 0.101961 0.65098 0.596078 
0.101961 0.65098 0.596078 0.101961 0.65098 0.596078 
0.101961 0.65098 0.596078 0.101961 0.65098 0.596078 
0.101961 0.65098 0.596078 0.101961 0.65098 0.596078 
0.101961 0.65098 0.596078 0.101961 0.65098 0.596078 
0.101961 0.65098 0.596078 0.101961 0.65098 0.596078 
0.101961 0.65098 0.596078 0.101961 0.65098 0.596078 
0.101961 0.65098 0.596078 0.101961 0.65098 0.596078 
0.101961 0.65098 0.596078 0.101961 0.65098 0.596078 
0.101961 0.65098 0.596078 0.101961 0.65098 0.596078 
0.101961 0.65098 0.596078 0.101961 0.65098 0.596078 
0.101961 0.65098 0.596078 0.101961 0.65098 0.596078 
0.101961 0.65098 0.596078 0.101961 0.65098 0.596078 
0.101961 0.65098 0.596078 0.101961 0.65098 0.596078 
0.101961 0.65098 0.596078 0.101961 0.65098 0.596078 
0.101961 0.65098 0.596078 0.101961 0.65098 0.596078 
0.101961 0.65098 0.596078 0.101961 0.65098 0.596078 
0.101961 0.65098 0.596078 0.101961 0.65098 0.596078 
0.101961 0.65098 0.596078 0.101961 0.65098 0.596078 
0.101961 0.65098 0.596078 0.101961 0.65098 0.596078 
0.101961 0.65098 0.596078 0.101961 0.65098 0.596078 
0.101961 0.65098 0.596078 0.101961 0.65098 0.596078 
0.101961 0.65098 0.596078 0.101961 0.65098 0.596078 
0.101961 0.65098 0.596078 0.101961 0.65098 0.596078 
0.101961 0.65098 0.596078 0.101961 0.65098 0.596078 
0.101961 0.65098 0.596078 0.101961 0.65098 0.596078 
0.101961 0.65098 0.596078 0.101961 0.65098 0.596078 
0.101961 0.65098 0.596078 0.101961 0.65098 0.596078 
0.101961 0.65098 0.596078 0.101961 0.65098 0.596078 
0.101961 0.65098 0.596078 0.101961 0.65098 0.596078 
0.101961 0.65098 0.596078 0.101961 0.65098 0.596078 
0.101961 0.65098 0.596078 0.101961 0.65098 0.596078 
0.101961 0.65098 0.596078 0.101961 0.65098 0.596078 
0.101961 0.65098 0.596078 0.101961 0.65098 0.596078 
0.101961 0.65098 0.596078 0.101961 0.65098 0.596078 
0.101961 0.65098 0.596078 0.101961 0.65098 0.596078 
0.101961 0.65098 0.596078 0.101961 0.65098 0.596078 
0.101961 0.65098 0.596078 0.101961 0.65098 0.596078 
0.101961 0.65098 0.596078 0.101961 0.65098 0.596078 
0.101961 0.65098 0.596078 0.101961 0.65098 0.596078 
0.101961 0.65098 0.596078 0.101961 0.65098 0.596078 
0.101961 0.65098 0.596078 0.101961 0.65098 0.596078 
0.101961 0.65098 0.596078 0.101961 0.65098 0.596078 
0.101961 0.65098 0.596078 0.101961 0.65098 0.596078 
0.101961 0.65098 0.596078 0.101961 0.65098 0.596078 
0.101961 0.65098 0.596078 0.101961 0.65098 0.596078 
0.101961 0.65098 0.596078 0.101961 0.65098 0.596078 
0.101961 0.65098 0.596078 0.101961 0.65098 0.596078 
0.101961 0.65098 0.596078 0.101961 0.65098 0.596078 
0.101961 0.65098 0.596078 0.101961 0.65098 0.596078 
0.101961 0.65098 0.596078 0.101961 0.65098 0.596078 
0.101961 0.65098 0.596078 0.101961 0.65098 0.596078 
0.101961 0.65098 0.596078 0.101961 0.65098 0.596078 
0.101961 0.65098 0.596078 0.101961 0.65098 0.596078 
0.101961 0.65098 0.596078 0.101961 0.65098 0.596078 
0.101961 0.65098 0.596078 0.101961 0.65098 0.596078 
0.101961 0.65098 0.596078 0.101961 0.65098 0.596078 
0.101961 0.65098 0.596078 0.101961 0.65098 0.596078 
0.101961 0.65098 0.596078 0.101961 0.65098 0.596078 
0.101961 0.65098 0.596078 0.101961 0.65098 0.596078 
0.101961 0.65098 0.596078 0.101961 0.65098 0.596078 
0.101961 0.65098 0.596078 0.101961 0.65098 0.596078 
0.101961 0.65098 0.596078 0.101961 0.65098 0.596078 
0.101961 0.65098 0.596078 0.101961 0.65098 0.596078 
0.101961 0.65098 0.596078 0.101961 0.65098 0.596078 
0.101961 0.65098 0.596078 0.101961 0.65098 0.596078 
0.101961 0.65098 0.596078 0.101961 0.65098 0.596078 
0.101961 0.65098 0.596078 0.101961 0.65098 0.596078 
0.101961 0.65098 0.596078 0.101961 0.65098 0.596078 
0.101961 0.65098 0.596078 0.101961 0.65098 0.596078 
0.101961 0.65098 0.596078 0.101961 0.65098 0.596078 
0.101961 0.65098 0.596078 0.101961 0.65098 0.596078 
0.101961 0.65098 0.596078 0.101961 0.65098 0.596078 
0.101961 0.65098 0.596078 0.101961 0.65098 0.596078 
0.101961 0.65098 0.596078 0.101961 0.65098 0.596078 
0.101961 0.65098 0.596078 0.101961 0.65098 0.596078 
0.101961 0.65098 0.596078 0.101961 0.65098 0.596078 
0.101961 0.65098 0.596078 0.101961 0.65098 0.596078 
0.101961 0.65098 0.596078 0.101961 0.65098 0.596078 
0.101961 0.65098 0.596078 0.101961 0.65098 0.596078 
0.101961 0.65098 0.596078 0.101961 0.65098 0.596078 
0.101961 0.65098 0.596078 0.101961 0.65098 0.596078 
0.101961 0.65098 0.596078 0.101961 0.65098 0.596078 
0.101961 0.65098 0.596078 0.101961 0.65098 0.596078 
0.101961 0.65098 0.596078 0.101961 0.65098 0.596078 
0.101961 0.65098 0.596078 0.101961 0.65098 0.596078 
0.101961 0.65098 0.596078 0.101961 0.65098 0.596078 
0.101961 0.65098 0.596078 0.101961 0.65098 0.596078 
0.101961 0.65098 0.596078 0.101961 0.65098 0.596078 
0.101961 0.65098 0.596078 0.101961 0.65098 0.596078 
0.101961 0.65098 0.596078 0.101961 0.65098 0.596078 
0.101961 0.65098 0.596078 0.101961 0.65098 0.596078 
0.101961 0.65098 0.596078 0.101961 0.65098 0.596078 
0.101961 0.65098 0.596078 0.101961 0.65098 0.596078 
0.101961 0.65098 0.596078 0.101961 0.65098 0.596078 
0.101961 0.65098 0.596078 0.101961 0.65098 0.596078 
0.101961 0.65098 0.596078 0.101961 0.65098 0.596078 
0.101961 0.65098 0.596078 0.101961 0.65098 0.596078 
0.101961 0.65098 0.596078 0.101961 0.65098 0.596078 
0.101961 0.65098 0.596078 0.101961 0.65098 0.596078 
0.101961 0.65098 0.596078 0.101961 0.65098 0.596078 
0.101961 0.65098 0.596078 0.101961 0.65098 0.596078 
0.101961 0.65098 0.596078 0.101961 0.65098 0.596078 
0.101961 0.65098 0.596078 0.101961 0.65098 0.596078 
0.101961 0.65098 0.596078 0.101961 0.65098 0.596078 
0.101961 0.65098 0.596078 0.101961 0.65098 0.596078 
0.101961 0.65098 0.596078 0.101961 0.65098 0.596078 
0.101961 0.65098 0.596078 0.101961 0.65098 0.596078 
0.101961 0.65098 0.596078 0.101961 0.65098 0.596078 
0.101961 0.65098 0.596078 0.101961 0.65098 0.596078 
0.101961 0.65098 0.596078 0.101961 0.65098 0.596078 
0.101961 0.65098 0.596078 0.101961 0.65098 0.596078 
0.101961 0.65098 0.596078 0.101961 0.65098 0.596078 
0.101961 0.65098 0.596078 0.101961 0.65098 0.596078 
0.101961 0.65098 0.596078 0.101961 0.65098 0.596078 
0.101961 0.65098 0.596078 0.101961 0.65098 0.596078 
0.101961 0.65098 0.596078 0.101961 0.65098 0.596078 
0.101961 0.65098 0.596078 0.101961 0.65098 0.596078 
0.101961 0.65098 0.596078 0.101961 0.65098 0.596078 
0.101961 0.65098 0.596078 0.101961 0.65098 0.596078 
0.101961 0.65098 0.596078 0.101961 0.65098 0.596078 
0.101961 0.65098 0.596078 0.101961 0.65098 0.596078 
0.101961 0.65098 0.596078 0.101961 0.65098 0.596078 
0.101961 0.65098 0.596078 0.101961 0.65098 0.596078 
0.101961 0.65098 0.596078 0.101961 0.65098 0.596078 
0.101961 0.65098 0.596078 0.101961 0.65098 0.596078 
0.101961 0.65098 0.596078 0.101961 0.65098 0.596078 
0.101961 0.65098 0.596078 0.101961 0.65098 0.596078 
0.101961 0.65098 0.596078 0.101961 0.65098 0.596078 
0.101961 0.65098 0.596078 0.101961 0.65098 0.596078 
0.101961 0.65098 0.596078 0.101961 0.65098 0.596078 
0.101961 0.65098 0.596078 0.101961 0.65098 0.596078 
0.101961 0.65098 0.596078 0.101961 0.65098 0.596078 
0.101961 0.65098 0.596078 0.101961 0.65098 0.596078 
0.101961 0.65098 0.596078 0.101961 0.65098 0.596078 
0.101961 0.65098 0.596078 0.101961 0.65098 0.596078 
0.101961 0.65098 0.596078 0.101961 0.65098 0.596078 
0.101961 0.65098 0.596078 0.101961 0.65098 0.596078 
0.101961 0.65098 0.596078 0.101961 0.65098 0.596078 
0.101961 0.65098 0.596078 0.101961 0.65098 0.596078 
0.101961 0.65098 0.596078 0.101961 0.65098 0.596078 
0.101961 0.65098 0.596078 0.101961 0.65098 0.596078 
0.101961 0.65098 0.596078 0.101961 0.65098 0.596078 
0.101961 0.65098 0.596078 0.101961 0.65098 0.596078 
0.101961 0.65098 0.596078 0.101961 0.65098 0.596078 
0.101961 0.65098 0.596078 0.101961 0.65098 0.596078 
0.101961 0.65098 0.596078 0.101961 0.65098 0.596078 
0.101961 0.65098 0.596078 0.101961 0.65098 0.596078 
0.101961 0.65098 0.596078 0.101961 0.65098 0.596078 
0.101961 0.65098 0.596078 0.101961 0.65098 0.596078 
0.101961 0.65098 0.596078 0.101961 0.65098 0.596078 
0.101961 0.65098 0.596078 0.101961 0.65098 0.596078 
0.101961 0.65098 0.596078 0.101961 0.65098 0.596078 
0.101961 0.65098 0.596078 0.101961 0.65098 0.596078 
0.101961 0.65098 0.596078 0.101961 0.65098 0.596078 
0.101961 0.65098 0.596078 0.101961 0.65098 0.596078 
0.101961 0.65098 0.596078 0.101961 0.65098 0.596078 
0.101961 0.65098 0.596078 0.101961 0.65098 0.596078 
0.101961 0.65098 0.596078 0.101961 0.65098 0.596078 
0.101961 0.65098 0.596078 0.101961 0.65098 0.596078 
0.101961 0.65098 0.596078 0.101961 0.65098 0.596078 
0.101961 0.65098 0.596078 0.101961 0.65098 0.596078 
0.101961 0.65098 0.596078 0.101961 0.65098 0.596078 
0.101961 0.65098 0.596078 0.101961 0.65098 0.596078 
0.101961 0.65098 0.596078 0.101961 0.65098 0.596078 
0.101961 0.65098 0.596078 0.101961 0.65098 0.596078 
0.101961 0.65098 0.596078 0.101961 0.65098 0.596078 
0.101961 0.65098 0.596078 0.101961 0.65098 0.596078 
0.101961 0.65098 0.596078 0.101961 0.65098 0.596078 
0.101961 0.65098 0.596078 0.101961 0.65098 0.596078 
0.101961 0.65098 0.596078 0.101961 0.65098 0.596078 
0.101961 0.65098 0.596078 0.101961 0.65098 0.596078 
0.101961 0.65098 0.596078 0.101961 0.65098 0.596078 
0.101961 0.65098 0.596078 0.101961 0.65098 0.596078 
0.101961 0.65098 0.596078 0.101961 0.65098 0.596078 
0.101961 0.65098 0.596078 0.101961 0.65098 0.596078 
0.101961 0.65098 0.596078 0.101961 0.65098 0.596078 
0.101961 0.65098 0.596078 0.101961 0.65098 0.596078 
0.101961 0.65098 0.596078 0.101961 0.65098 0.596078 
0.101961 0.65098 0.596078 0.101961 0.65098 0.596078 
0.101961 0.65098 0.596078 0.101961 0.65098 0.596078 
0.101961 0.65098 0.596078 0.101961 0.65098 0.596078 
0.101961 0.65098 0.596078 0.101961 0.65098 0.596078 
0.101961 0.65098 0.596078 0.101961 0.65098 0.596078 
0.101961 0.65098 0.596078 0.101961 0.65098 0.596078 
0.101961 0.65098 0.596078 0.101961 0.65098 0.596078 
0.101961 0.65098 0.596078 0.101961 0.65098 0.596078 
0.101961 0.65098 0.596078 0.101961 0.65098 0.596078 
0.101961 0.65098 0.596078 0.101961 0.65098 0.596078 
0.101961 0.65098 0.596078 0.101961 0.65098 0.596078 
0.101961 0.65098 0.596078 0.101961 0.65098 0.596078 
0.101961 0.65098 0.596078 0.101961 0.65098 0.596078 
0.101961 0.65098 0.596078 0.101961 0.65098 0.596078 
0.101961 0.65098 0.596078 0.101961 0.65098 0.596078 
0.101961 0.65098 0.596078 0.101961 0.65098 0.596078 
0.101961 0.65098 0.596078 0.101961 0.65098 0.596078 
0.101961 0.65098 0.596078 0.101961 0.65098 0.596078 
0.101961 0.65098 0.596078 0.101961 0.65098 0.596078 
0.101961 0.65098 0.596078 0.101961 0.65098 0.596078 
0.101961 0.65098 0.596078 0.101961 0.65098 0.596078 
0.101961 0.65098 0.596078 0.101961 0.65098 0.596078 
0.101961 0.65098 0.596078 0.101961 0.65098 0.596078 
0.101961 0.65098 0.596078 0.101961 0.65098 0.596078 
0.101961 0.65098 0.596078 0.101961 0.65098 0.596078 
0.101961 0.65098 0.596078 0.101961 0.65098 0.596078 
0.101961 0.65098 0.596078 0.101961 0.65098 0.596078 
0.101961 0.65098 0.596078 0.101961 0.65098 0.596078 
0.101961 0.65098 0.596078 0.101961 0.65098 0.596078 
0.101961 0.65098 0.596078 0.101961 0.65098 0.596078 
0.101961 0.65098 0.596078 0.101961 0.65098 0.596078 
0.101961 0.65098 0.596078 0.101961 0.65098 0.596078 
0.101961 0.65098 0.596078 0.101961 0.65098 0.596078 
0.101961 0.65098 0.596078 0.101961 0.65098 0.596078 
0.101961 0.65098 0.596078 0.101961 0.65098 0.596078 
0.101961 0.65098 0.596078 0.101961 0.65098 0.596078 
0.101961 0.65098 0.596078 0.101961 0.65098 0.596078 
0.101961 0.65098 0.596078 0.101961 0.65098 0.596078 
0.101961 0.65098 0.596078 0.101961 0.65098 0.596078 
0.101961 0.65098 0.596078 0.101961 0.65098 0.596078 
0.101961 0.65098 0.596078 0.101961 0.65098 0.596078 
0.101961 0.65098 0.596078 0.101961 0.65098 0.596078 
0.101961 0.65098 0.596078 0.101961 0.65098 0.596078 
0.101961 0.65098 0.596078 0.101961 0.65098 0.596078 
0.101961 0.65098 0.596078 0.101961 0.65098 0.596078 
0.101961 0.65098 0.596078 0.101961 0.65098 0.596078 
0.101961 0.65098 0.596078 0.101961 0.65098 0.596078 
0.101961 0.65098 0.596078 0.101961 0.65098 0.596078 
0.101961 0.65098 0.596078 0.101961 0.65098 0.596078 
0.101961 0.65098 0.596078 0.101961 0.65098 0.596078 
0.101961 0.65098 0.596078 0.101961 0.65098 0.596078 
0.101961 0.65098 0.596078 0.101961 0.65098 0.596078 
0.101961 0.65098 0.596078 0.101961 0.65098 0.596078 
0.101961 0.65098 0.596078 0.101961 0.65098 0.596078 
0.101961 0.65098 0.596078 0.101961 0.65098 0.596078 
0.101961 0.65098 0.596078 0.101961 0.65098 0.596078 
0.101961 0.65098 0.596078 0.101961 0.65098 0.596078 
0.101961 0.65098 0.596078 0.101961 0.65098 0.596078 
0.101961 0.65098 0.596078 0.101961 0.65098 0.596078 
0.101961 0.65098 0.596078 0.101961 0.65098 0.596078 
0.101961 0.65098 0.596078 0.101961 0.65098 0.596078 
0.101961 0.65098 0.596078 0.101961 0.65098 0.596078 
0.101961 0.65098 0.596078 0.101961 0.65098 0.596078 
0.101961 0.65098 0.596078 0.101961 0.65098 0.596078 
0.101961 0.65098 0.596078 0.101961 0.65098 0.596078 
0.101961 0.65098 0.596078 0.101961 0.65098 0.596078 
0.101961 0.65098 0.596078 0.101961 0.65098 0.596078 
0.101961 0.65098 0.596078 0.101961 0.65098 0.596078 
0.101961 0.65098 0.596078 0.101961 0.65098 0.596078 
0.101961 0.65098 0.596078 0.101961 0.65098 0.596078 
0.101961 0.65098 0.596078 0.101961 0.65098 0.596078 
0.101961 0.65098 0.596078 0.101961 0.65098 0.596078 
0.101961 0.65098 0.596078 0.101961 0.65098 0.596078 
0.101961 0.65098 0.596078 0.101961 0.65098 0.596078 
0.101961 0.65098 0.596078 0.101961 0.65098 0.596078 
0.101961 0.65098 0.596078 0.101961 0.65098 0.596078 
0.101961 0.65098 0.596078 0.101961 0.65098 0.596078 
0.101961 0.65098 0.596078 0.101961 0.65098 0.596078 
0.101961 0.65098 0.596078 0.101961 0.65098 0.596078 
0.101961 0.65098 0.596078 0.101961 0.65098 0.596078 
0.101961 0.65098 0.596078 0.101961 0.65098 0.596078 
0.101961 0.65098 0.596078 0.101961 0.65098 0.596078 
0.101961 0.65098 0.596078 0.101961 0.65098 0.596078 
0.101961 0.65098 0.596078 0.101961 0.65098 0.596078 
0.101961 0.65098 0.596078 0.101961 0.65098 0.596078 
0.101961 0.65098 0.596078 0.101961 0.65098 0.596078 
0.101961 0.65098 0.596078 0.101961 0.65098 0.596078 
0.101961 0.65098 0.596078 0.101961 0.65098 0.596078 
0.101961 0.65098 0.596078 0.101961 0.65098 0.596078 
0.101961 0.65098 0.596078 0.101961 0.65098 0.596078 
0.101961 0.65098 0.596078 0.101961 0.65098 0.596078 
0.101961 0.65098 0.596078 0.101961 0.65098 0.596078 
0.101961 0.65098 0.596078 0.101961 0.65098 0.596078 
0.101961 0.65098 0.596078 0.101961 0.65098 0.596078 
0.101961 0.65098 0.596078 0.101961 0.65098 0.596078 
0.101961 0.65098 0.596078 0.101961 0.65098 0.596078 
0.101961 0.65098 0.596078 0.101961 0.65098 0.596078 
0.101961 0.65098 0.596078 0.101961 0.65098 0.596078 
0.101961 0.65098 0.596078 0.101961 0.65098 0.596078 
0.101961 0.65098 0.596078 0.101961 0.65098 0.596078 
0.101961 0.65098 0.596078 0.101961 0.65098 0.596078 
0.101961 0.65098 0.596078 0.101961 0.65098 0.596078 
0.101961 0.65098 0.596078 0.101961 0.65098 0.596078 
0.101961 0.65098 0.596078 0.101961 0.65098 0.596078 
0.101961 0.65098 0.596078 0.101961 0.65098 0.596078 
0.101961 0.65098 0.596078 0.101961 0.65098 0.596078 
0.101961 0.65098 0.596078 0.101961 0.65098 0.596078 
0.101961 0.65098 0.596078 0.101961 0.65098 0.596078 
0.101961 0.65098 0.596078 0.101961 0.65098 0.596078 
0.101961 0.65098 0.596078 0.101961 0.65098 0.596078 
0.101961 0.65098 0.596078 0.101961 0.65098 0.596078 
0.101961 0.65098 0.596078 0.101961 0.65098 0.596078 
0.101961 0.65098 0.596078 
NORMALS Normals float
0.37249 -0.517505 -0.770351 -0.128345 -0.310119 -0.941994 -0.425359 -0.31678 -0.847774 
0.332302 -0.669562 -0.664275 -0.328276 -0.0010944 -0.944581 0.341437 -0.913622 -0.220716 
0.301193 -0.783555 -0.543438 -0.856239 0.0620613 -0.512838 0.407123 -0.472144 -0.781877 
-0.00578963 -0.0417751 -0.99911 0.581004 -0.620905 -0.526224 -0.636614 0.193139 -0.746606 
-0.289939 0.300257 -0.908725 0.100776 -0.157085 -0.98243 0.245583 -0.122005 -0.961667 
-0.6672 0.32249 -0.67145 0.075603 0.0657505 -0.994968 -0.703484 0.611455 -0.36226 
-0.465718 0.376292 -0.800944 -0.304288 0.544348 -0.781725 0.445952 -0.109879 -0.888287 
0.630726 -0.151498 -0.761074 0.463095 -0.631301 -0.622095 0.206264 -0.512902 -0.833299 
0.666891 -0.588975 -0.45647 0.525599 -0.823788 -0.212414 0.473231 -0.834471 -0.28233 
-0.924698 0.211922 -0.316264 0.658597 -0.661017 -0.359592 0.72331 -0.510256 -0.465253 
0.584158 -0.327277 -0.742731 -0.916301 0.364138 -0.166724 -0.619381 0.782638 0.0620124 
-0.713233 0.700203 0.0318565 0.0378969 0.205623 -0.977897 0.673554 -0.250306 -0.695465 
0.809736 -0.24869 -0.531489 -0.524821 0.659703 -0.537917 -0.517785 0.634316 -0.574057 
-0.304708 0.546924 -0.779761 -0.112903 0.331656 -0.93662 0.358674 0.096838 -0.928426 
-0.155037 0.660618 -0.734539 -0.14581 0.556817 -0.817738 0.13085 0.206041 -0.969755 
0.717214 -0.0777218 -0.692505 -0.464245 0.842805 -0.272318 -0.28042 0.767378 -0.576624 
-0.180573 0.629156 -0.756013 -0.0674743 0.510059 -0.857489 -0.199656 0.889873 -0.4102 
-0.180831 0.713892 -0.676504 -0.209737 0.648138 -0.732071 0.377646 0.187783 -0.906709 
0.833952 0.116449 -0.53941 0.0298071 -0.64919 -0.760042 -0.11295 -0.590344 -0.79921 
0.661835 -0.628615 -0.408433 0.763127 -0.645417 -0.0327721 0.638254 -0.763046 -0.101941 
0.409205 -0.904164 0.122632 0.232765 -0.972532 0.00124313 0.311393 -0.949598 -0.0360353 
0.386406 -0.918046 -0.0887757 -0.920333 0.389712 -0.0333389 0.803342 -0.4392 -0.402175 
-0.934261 0.338848 0.111075 0.758075 -0.438168 -0.483044 -0.705144 0.707001 0.0540405 
-0.577429 0.794856 0.186494 -0.31647 0.914506 -0.252043 -0.375295 0.922972 0.0853033 
-0.231836 0.916605 -0.325711 -0.285457 0.848083 -0.446397 -0.299764 0.757463 -0.579993 
0.0600563 0.420312 -0.90539 -0.278256 0.765891 -0.579641 0.652325 0.35415 -0.670112 
-0.383056 0.910725 -0.154425 0.454633 0.329245 -0.827591 -0.297492 0.913236 -0.278385 
0.700573 0.413578 -0.581507 0.751661 0.424518 -0.504767 -0.156426 0.946609 -0.28189 
-0.0279642 0.592912 -0.804782 0.388504 0.522149 -0.759227 0.0635573 0.86509 -0.497574 
0.339697 0.835872 -0.431189 0.03054 -0.725305 -0.68775 0.2121 -0.731799 -0.647676 
0.442717 -0.736252 -0.511796 -0.715302 -0.287563 -0.636907 -0.977894 0.143951 -0.151663 
0.321304 -0.935553 0.146642 -0.963975 0.247797 -0.0966923 0.363431 -0.916495 0.167198 
0.559822 -0.82525 -0.0745722 -0.810234 0.5223 0.265938 0.745825 -0.634023 -0.204352 
0.87007 -0.34619 -0.3509 -0.305084 0.949354 0.0751751 -0.329663 0.784997 0.524501 
0.83548 0.447006 -0.319623 -0.187679 0.973927 0.127445 0.0844289 0.993941 0.0703739 
0.627926 0.740709 -0.238869 0.660967 0.576176 -0.480774 0.67422 0.715508 -0.182963 
0.255372 -0.750827 -0.609133 0.358615 -0.798806 -0.483016 -0.0150221 -0.754758 -0.655832 
0.410576 -0.662975 -0.626012 0.621153 -0.636236 -0.457572 -0.37949 -0.637393 -0.67061 
-0.924908 -0.158589 -0.345536 -0.662569 -0.428151 -0.614565 0.889752 -0.449238 -0.0807941 
-0.957225 0.280742 0.0700286 0.53244 -0.774764 0.340953 0.174384 -0.948266 0.265296 
0.818242 -0.551024 -0.163868 -0.477693 0.657943 0.582168 0.955464 -0.0691916 -0.286883 
-0.27207 0.915933 0.295033 0.92117 0.21928 -0.321499 0.909826 0.38533 -0.154069 
-0.255147 0.915808 0.310154 0.0145661 0.968051 0.250329 0.393839 0.903979 0.166472 
0.719551 0.691446 0.0644095 -0.337671 -0.879553 -0.335209 -0.131294 -0.805032 -0.57852 
-0.49614 -0.576494 -0.64923 -0.890079 -0.380697 -0.250658 -0.954141 -0.183445 -0.236566 
0.933002 -0.333032 0.136374 -0.961048 0.275912 -0.0161106 0.746441 -0.443943 0.495722 
-0.914559 0.368193 0.167379 0.426867 -0.521716 0.738646 0.0676958 -0.882764 0.464915 
0.200187 -0.835144 0.512309 0.138023 -0.857766 0.495164 0.430441 -0.868592 0.245495 