# vtk DataFile Version 4.2
vtk output
ASCII
DATASET POLYDATA
POINTS 828 float
276.235 157.177 118.647 276.038 157.083 118.623 276.473 157.157 118.747 
275.201 158.074 118.613 275.164 158.22 118.703 290.598 160.312 118.699 
290.326 160.091 118.679 291.674 160.395 118.894 292.027 159.858 118.905 
292.075 160.763 119.169 292.54 160.545 119.247 273.461 157.524 118.853 
275.856 157.8 118.783 273.717 158.469 118.983 274.823 158.457 118.881 
290.647 158.444 118.78 291.59 158.981 118.761 273.585 158.938 119.221 
289.055 159.493 119.076 290.857 159.505 118.633 291.986 158.981 118.905 
274.356 159.243 119.457 289.58 160.421 119.127 292.789 160.281 119.325 
293.032 160.209 119.536 273.185 155.292 119.467 274.224 155.462 119.136 
279.703 155.034 120.162 290.002 155.683 119.706 290.603 155.514 119.82 
290.656 156.644 119.403 291.32 155.861 119.905 271.955 157.068 119.395 
276.681 157.853 119.272 292.822 157.736 119.925 293.151 158.367 120.123 
272.567 159.153 119.625 292.695 159.105 119.417 288.87 160.074 119.386 
293.229 159.959 119.824 272.789 160.155 120.418 273.364 160.077 120.274 
291.805 161.578 119.698 292.183 161.593 119.841 293.033 161.014 120.011 
293.312 160.615 120.078 291.938 161.862 120.12 277.883 152.751 120.189 
278.948 153.304 120.091 272.857 154.06 120.453 290.168 154.97 120.034 
290.196 153.972 120.496 290.804 153.841 120.78 271.364 155.078 120.559 
270.872 156.856 120.102 279.066 156.723 120.534 288.461 157.022 119.664 
292.568 156.819 120.206 270.197 158.651 120.497 271.308 158.353 119.801 
270.504 158.997 120.407 275.001 159.518 120.002 293.634 159.297 120.867 
270.735 160.149 121.072 274.488 160.13 120.691 293.568 160.418 120.579 
271.86 160.834 121.368 292.749 161.701 120.364 293.1 161.441 120.521 
280.391 151.416 120.789 271.289 153.555 122.249 272.977 152.724 121.606 
288.168 153.219 120.576 282.522 154.123 120.919 291.085 153.443 121.169 
292.265 155.257 121.07 269.087 156.405 122.218 269.745 157.657 120.862 
268.951 159.195 121.569 269.145 159.977 121.895 269.972 160.786 122.364 
289.893 162.552 121.324 291.255 162.744 121.347 285.598 147.009 122.008 
289.197 147.421 122.465 285.804 154.105 120.883 282.047 154.959 121.044 
286.013 155.53 120.935 292.7 155.083 122.15 286.003 156.453 121.026 
268.26 157.671 122.666 281.311 156.447 121.669 293.497 157.321 121.872 
268.198 158.5 122.45 293.892 158.804 122.264 286.15 159.736 121.712 
293.92 160.711 122.185 272.284 161.316 122.142 270.09 161.164 123.13 
271.571 161.483 122.886 287.197 162.268 122.479 291.907 162.9 121.798 
292.312 162.728 121.77 290.273 146.746 123.827 276.474 148.608 122.952 
291.099 150.092 122.723 268.65 156.673 122.935 282.131 156.043 121.615 
293.209 155.955 123.074 268.108 157.954 122.89 281.347 157.103 122.289 
283.014 156.952 122.266 283.633 157.147 122.248 268.04 158.064 123.314 
268.036 159.428 123.375 284.883 160.01 123.283 268.451 160.025 122.934 
268.583 160.34 123.394 268.791 160.64 124.044 274.005 161.296 123.188 
287.872 163.129 123.596 290.202 163.518 123.032 288.509 163.345 123.714 
282.687 143.747 123.888 271.263 152.61 124.346 292.552 153.821 124.205 
281.194 157.518 122.722 281.402 157.936 123.359 283.294 158.065 123.076 
267.956 159.097 123.655 279.149 158.686 123.408 268.185 159.926 123.938 
268.39 160.215 123.836 284.991 160.915 124.219 271.342 161.805 124.459 
293.688 162.12 123.724 290.521 163.604 123.297 292.515 163.236 123.495 
288.446 163.366 124.246 292.177 163.466 124.121 293.198 162.937 124.003 
290.274 145.396 125.271 275.42 146.347 125.083 272.675 149.701 125.415 
292.316 153.197 124.855 292.971 155.444 124.41 281.012 158.281 123.984 
282.537 158.504 124.127 283.694 159.27 124.192 293.644 159.16 124.566 
268.122 159.706 124.238 284.272 160.084 124.818 284.686 160.609 125.005 
293.913 160.688 124.016 284.877 160.916 124.666 270.37 161.679 125.353 
286.036 162.095 123.883 293.544 162.308 124.268 286.646 162.727 124.182 
286.437 162.664 124.45 293.351 162.737 124.216 288.879 163.386 124.584 
289.573 163.539 124.426 291.16 163.667 124.584 292.198 163.511 124.619 
285.22 140.462 126.171 286.311 140.331 126.658 274.324 146.05 126.156 
272.701 148.9 126.151 291.745 150.727 125.427 271.973 150.29 126.485 
292.367 154.296 125.441 292.968 156.362 125.063 282.335 158.678 125.25 
283.175 159.086 125.119 278.74 159.157 125.451 283.674 159.382 125.389 
293.314 159.988 125.216 268.595 160.132 126.065 269.206 160.835 126.571 
274.168 161.562 125.277 293.341 161.315 125.046 285.277 161.401 125.003 
286.153 162.448 124.54 286.027 162.276 124.816 293.366 162.274 124.745 
293.245 162.657 124.609 286.377 162.609 124.72 286.618 162.689 124.89 
288.484 163.092 125.041 290.284 163.334 125.234 292.33 163.411 124.854 
292.526 163.205 124.946 290.817 163.498 125.132 291.177 163.399 125.272 
292.159 163.27 125.127 281.272 139.126 127.257 281.897 138.969 127.327 
279.289 140.012 127.144 287.026 140.392 127.177 288.249 141.592 126.727 
289.179 142.762 126.444 273.707 145.575 127.154 290.957 147.541 126.79 
291.599 150.983 126.149 271.543 151.044 127.3 291.366 152.285 126.827 
291.935 154.086 126.128 291.954 156.242 126.341 280.616 158.442 126.102 
282.938 158.581 126.219 284.022 159.316 125.962 285.027 160.22 125.881 
292.377 159.581 126.046 268.696 160.086 126.567 268.827 160.411 126.443 
274.607 161.32 126.269 285.975 161.559 125.57 292.85 160.904 125.571 
271.511 162.015 126.85 287.248 162.151 125.675 291.418 161.974 125.965 
271.907 162.023 127.362 286.605 162.485 125.159 289.836 162.869 125.563 
290.616 162.721 125.739 291.973 162.467 125.636 291.238 163.092 125.501 
291.83 162.986 125.439 283.242 138.428 127.854 285.033 138.463 128.537 
286.395 139.735 127.714 286.977 140.152 127.765 287.599 140.612 128.129 
272.952 144.957 128.678 269.369 156.89 127.838 281.178 157.259 127.696 
278.956 158.122 127.594 268.638 159.28 126.823 269.604 160.762 127.89 
269.768 161.071 127.649 272.348 162.003 127.253 282.129 137.017 129.244 
282.465 136.756 129.675 281.674 137.341 128.832 284.016 137.616 129.079 
284.161 137.529 129.403 277.438 137.798 129.571 275.677 139.94 129.231 
289.194 142.868 128.52 289.701 144.502 128.753 290.453 150.015 128.141 
290.364 151.123 128.102 271.266 152.163 129.091 287.735 152.389 129.211 
269.49 157.632 128.542 275.914 159.458 128.259 275.297 160.222 127.87 
273.665 161.014 128.354 271.596 161.781 128.318 279.289 136.047 130.467 
280.462 135.802 130.735 281.642 136.183 130.375 283.048 136.651 130.249 
284.062 137.344 129.851 275.735 138.892 130.066 275.006 139.76 130.133 
287.596 140.566 129.39 288.466 141.857 129.408 273.542 142.157 129.835 
271.986 146.586 130.215 288.571 149.403 129.876 274.548 157.732 129.909 
273.611 158.889 129.817 274.262 159.557 129.218 269.767 159.924 128.913 
269.833 160.287 128.768 272.606 160.556 129.388 270.547 160.525 129.262 
273.488 160.731 128.815 271.033 161.235 129.009 272.095 161.42 128.845 
271.222 161.468 128.828 278.46 135.752 131.24 281.727 135.878 130.964 
281.985 135.828 131.328 283.393 136.754 130.51 275.991 137.345 131.646 
276.547 137.337 130.814 283.949 137.137 130.594 274.746 138.977 131.758 
285.895 138.961 130.715 286.415 139.791 131.087 288.597 148.634 130.054 
271.698 150.498 130.717 279.078 152.268 130.774 271.81 152.369 130.72 
273.541 156.045 130.654 272.813 156.106 130.702 270.855 156.266 130.085 
272.068 157.392 130.46 269.82 158.994 129.166 272.239 158.819 130.167 
271.691 158.978 130.169 271.113 160.315 129.684 271.57 160.908 129.373 
278.827 134.851 132.674 280.023 134.888 132.259 280.249 134.794 132.555 
284.511 137.686 131.736 272.956 141.725 132.233 287.49 141.702 131.139 
287.081 145.36 131.762 272.188 151.347 131.485 273.876 152.788 131.623 
272.443 153.301 131.213 272.862 153.683 131.26 272.25 154.471 130.885 
271.615 155.085 130.643 271.481 155.77 130.48 272.269 155.807 130.701 
270.748 157.997 130.164 279.522 134.442 133.46 280.568 134.869 132.733 
280.697 134.89 133.227 276.961 136.087 132.988 281.824 135.603 132.66 
283.282 136.59 131.992 285.374 139.42 132.619 286.647 142.229 132.211 
272.249 144.255 132.384 284.933 144.646 133.065 282.979 145.743 133.321 
272.072 149.692 132.18 271 152.009 133.017 271 152.009 133.017 
271 152.009 133.017 271 152.009 133.017 271 152.009 133.017 
272.976 152.476 131.645 270.613 157.853 130.125 278.642 134.753 133.968 
279.791 134.454 133.575 280.71 134.951 133.87 273.16 141.844 133.612 
272.157 146.89 133.562 272.097 147.688 133.403 272.279 147.334 133.913 
272.097 148.33 133.127 272.324 148.35 133.589 272.432 149.055 133.291 
272.633 149.329 133.177 271 152.009 133.017 279.21 134.646 134.338 
279.689 134.498 134.116 279.936 134.532 134.144 281.054 135.405 134.413 
277.026 136.515 134.556 284.646 141.273 133.844 272.412 145.806 134.281 
272.528 147.184 134.309 272.544 148.003 134.008 272.861 147.898 134.216 
279.993 134.923 134.697 280.801 135.735 135.249 282.501 137.315 134.878 
280.214 142.921 135.839 273.936 145.767 135.521 272.928 146.763 134.739 
274.596 142.368 136.325 279.589 141.133 136.953 274.278 143.025 136.371 
273.784 143.363 136.119 272.922 144.892 135.535 273.032 145.157 135.58 
273.136 145.529 135.449 279.999 136.866 136.492 280.046 138.003 137.032 
275.893 140.872 136.935 278.52 140.653 137.49 278.897 140.321 137.539 
275.274 141.976 136.797 274.346 143.261 136.541 274.097 143.403 136.438 
274.928 143.068 136.615 274.294 143.421 136.543 273.144 144.464 135.94 
273.262 144.223 136.14 273.946 143.867 136.324 273.145 144.795 135.832 
273.306 144.302 136.172 273.423 144.465 136.094 278.235 138.022 137.273 
277.731 138.696 137.399 279.077 139.127 137.599 277.223 139.678 137.457 
278.215 139.812 137.728 277.152 140.52 137.537 276.617 140.824 137.497 
277.436 139.953 137.637 277.748 139.958 137.702 275.847 141.63 137.217 
275.631 141.777 137.11 276.323 141.282 137.301 275.882 141.786 137.21 
274.201 143.399 136.542 273.347 144.188 136.231 278.596 138.057 137.364 
278.313 138.994 137.676 276.528 140.768 137.484 275.737 141.798 137.195 
[...]
POINT_DATA 828
COLOR_SCALARS scalars 3
1 0.564706 0.623529 1 0.564706 0.623529 1 0.564706 0.623529 
1 0.564706 0.623529 1 0.564706 0.623529 
1 0.564706 0.623529 1 0.564706 0.623529 
1 0.564706 0.623529 1 0.564706 0.623529 
1 0.564706 0.623529 1 0.564706 0.623529 
1 0.564706 0.623529 1 0.564706 0.623529 
1 0.564706 0.623529 1 0.564706 0.623529 
1 0.564706 0.623529 1 0.564706 0.623529 
1 0.564706 0.623529 1 0.564706 0.623529 
1 0.564706 0.623529 1 0.564706 0.623529 
1 0.564706 0.623529 1 0.564706 0.623529 
1 0.564706 0.623529 1 0.564706 0.623529 
1 0.564706 0.623529 1 0.564706 0.623529 
1 0.564706 0.623529 1 0.564706 0.623529 
1 0.564706 0.623529 1 0.564706 0.623529 
1 0.564706 0.623529 1 0.564706 0.623529 
1 0.564706 0.623529 1 0.564706 0.623529 
1 0.564706 0.623529 1 0.564706 0.623529 
1 0.564706 0.623529 1 0.564706 0.623529 
1 0.564706 0.623529 1 0.564706 0.623529 
1 0.564706 0.623529 1 0.564706 0.623529 
1 0.564706 0.623529 1 0.564706 0.623529 
1 0.564706 0.623529 1 0.564706 0.623529 
1 0.564706 0.623529 1 0.564706 0.623529 
1 0.564706 0.623529 1 0.564706 0.623529 
1 0.564706 0.623529 1 0.564706 0.623529 
1 0.564706 0.623529 1 0.564706 0.623529 
1 0.564706 0.623529 1 0.564706 0.623529 
1 0.564706 0.623529 1 0.564706 0.623529 
1 0.564706 0.623529 1 0.564706 0.623529 
1 0.564706 0.623529 1 0.564706 0.623529 
1 0.564706 0.623529 1 0.564706 0.623529 
1 0.564706 0.623529 1 0.564706 0.623529 
1 0.564706 0.623529 1 0.564706 0.623529 
1 0.564706 0.623529 1 0.564706 0.623529 
1 0.564706 0.623529 1 0.564706 0.623529 
1 0.564706 0.623529 1 0.564706 0.623529 
1 0.564706 0.623529 1 0.564706 0.623529 
1 0.564706 0.623529 1 0.564706 0.623529 
1 0.564706 0.623529 1 0.564706 0.623529 
1 0.564706 0.623529 1 0.564706 0.623529 
1 0.564706 0.623529 1 0.564706 0.623529 
1 0.564706 0.623529 1 0.564706 0.623529 
1 0.564706 0.623529 1 0.564706 0.623529 
1 0.564706 0.623529 1 0.564706 0.623529 
1 0.564706 0.623529 1 0.564706 0.623529 
1 0.564706 0.623529 1 0.564706 0.623529 
1 0.564706 0.623529 1 0.564706 0.623529 
1 0.564706 0.623529 1 0.564706 0.623529 
1 0.564706 0.623529 1 0.564706 0.623529 
1 0.564706 0.623529 1 0.564706 0.623529 
1 0.564706 0.623529 1 0.564706 0.623529 
1 0.564706 0.623529 1 0.564706 0.623529 
1 0.564706 0.623529 1 0.564706 0.623529 
1 0.564706 0.623529 1 0.564706 0.623529 
1 0.564706 0.623529 1 0.564706 0.623529 
1 0.564706 0.623529 1 0.564706 0.623529 
1 0.564706 0.623529 1 0.564706 0.623529 
1 0.564706 0.623529 1 0.564706 0.623529 
1 0.564706 0.623529 1 0.564706 0.623529 
1 0.564706 0.623529 1 0.564706 0.623529 
1 0.564706 0.623529 1 0.564706 0.623529 
1 0.564706 0.623529 1 0.564706 0.623529 
1 0.564706 0.623529 1 0.564706 0.623529 
1 0.564706 0.623529 1 0.564706 0.623529 
1 0.564706 0.623529 1 0.564706 0.623529 
1 0.564706 0.623529 1 0.564706 0.623529 
1 0.564706 0.623529 1 0.564706 0.623529 
1 0.564706 0.623529 1 0.564706 0.623529 
1 0.564706 0.623529 1 0.564706 0.623529 
1 0.564706 0.623529 1 0.564706 0.623529 
1 0.564706 0.623529 1 0.564706 0.623529 
1 0.564706 0.623529 1 0.564706 0.623529 
1 0.564706 0.623529 1 0.564706 0.623529 
1 0.564706 0.623529 1 0.564706 0.623529 
1 0.564706 0.623529 1 0.564706 0.623529 
1 0.564706 0.623529 1 0.564706 0.623529 
1 0.564706 0.623529 1 0.564706 0.623529 
1 0.564706 0.623529 1 0.564706 0.623529 
1 0.564706 0.623529 1 0.564706 0.623529 
1 0.564706 0.623529 1 0.564706 0.623529 
1 0.564706 0.623529 1 0.564706 0.623529 
1 0.564706 0.623529 1 0.564706 0.623529 
1 0.564706 0.623529 1 0.564706 0.623529 
1 0.564706 0.623529 1 0.564706 0.623529 
1 0.564706 0.623529 1 0.564706 0.623529 
1 0.564706 0.623529 1 0.564706 0.623529 
1 0.564706 0.623529 1 0.564706 0.623529 
1 0.564706 0.623529 1 0.564706 0.623529 
1 0.564706 0.623529 1 0.564706 0.623529 
1 0.564706 0.623529 1 0.564706 0.623529 
1 0.564706 0.623529 1 0.564706 0.623529 
1 0.564706 0.623529 1 0.564706 0.623529 
1 0.564706 0.623529 1 0.564706 0.623529 
1 0.564706 0.623529 1 0.564706 0.623529 
1 0.564706 0.623529 1 0.564706 0.623529 
1 0.564706 0.623529 1 0.564706 0.623529 
1 0.564706 0.623529 1 0.564706 0.623529 
1 0.564706 0.623529 1 0.564706 0.623529 
1 0.564706 0.623529 1 0.564706 0.623529 
1 0.564706 0.623529 1 0.564706 0.623529 
1 0.564706 0.623529 1 0.564706 0.623529 
1 0.564706 0.623529 1 0.564706 0.623529 
1 0.564706 0.623529 1 0.564706 0.623529 
1 0.564706 0.623529 1 0.564706 0.623529 
1 0.564706 0.623529 1 0.564706 0.623529 
1 0.564706 0.623529 1 0.564706 0.623529 
1 0.564706 0.623529 1 0.564706 0.623529 
1 0.564706 0.623529 1 0.564706 0.623529 
1 0.564706 0.623529 1 0.564706 0.623529 
1 0.564706 0.623529 1 0.564706 0.623529 
1 0.564706 0.623529 1 0.564706 0.623529 
1 0.564706 0.623529 1 0.564706 0.623529 
1 0.564706 0.623529 1 0.564706 0.623529 
1 0.564706 0.623529 1 0.564706 0.623529 
1 0.564706 0.623529 1 0.564706 0.623529 
1 0.564706 0.623529 1 0.564706 0.623529 
1 0.564706 0.623529 1 0.564706 0.623529 
1 0.564706 0.623529 1 0.564706 0.623529 
1 0.564706 0.623529 1 0.564706 0.623529 
1 0.564706 0.623529 1 0.564706 0.623529 
1 0.564706 0.623529 1 0.564706 0.623529 
1 0.564706 0.623529 1 0.564706 0.623529 
1 0.564706 0.623529 1 0.564706 0.623529 
1 0.564706 0.623529 1 0.564706 0.623529 
1 0.564706 0.623529 1 0.564706 0.623529 
1 0.564706 0.623529 1 0.564706 0.623529 
1 0.564706 0.623529 1 0.564706 0.623529 
1 0.564706 0.623529 1 0.564706 0.623529 
1 0.564706 0.623529 1 0.564706 0.623529 
1 0.564706 0.623529 1 0.564706 0.623529 
1 0.564706 0.623529 1 0.564706 0.623529 
1 0.564706 0.623529 1 0.564706 0.623529 
1 0.564706 0.623529 1 0.564706 0.623529 
1 0.564706 0.623529 1 0.564706 0.623529 
1 0.564706 0.623529 1 0.564706 0.623529 
1 0.564706 0.623529 1 0.564706 0.623529 
1 0.564706 0.623529 1 0.564706 0.623529 
1 0.564706 0.623529 1 0.564706 0.623529 
1 0.564706 0.623529 1 0.564706 0.623529 
1 0.564706 0.623529 1 0.564706 0.623529 
1 0.564706 0.623529 1 0.564706 0.623529 
1 0.564706 0.623529 1 0.564706 0.623529 
1 0.564706 0.623529 1 0.564706 0.623529 
1 0.564706 0.623529 1 0.564706 0.623529 
1 0.564706 0.623529 1 0.564706 0.623529 
1 0.564706 0.623529 1 0.564706 0.623529 
1 0.564706 0.623529 1 0.564706 0.623529 
1 0.564706 0.623529 1 0.564706 0.623529 
1 0.564706 0.623529 1 0.564706 0.623529 
1 0.564706 0.623529 1 0.564706 0.623529 
1 0.564706 0.623529 1 0.564706 0.623529 
1 0.564706 0.623529 1 0.564706 0.623529 
1 0.564706 0.623529 1 0.564706 0.623529 
1 0.564706 0.623529 1 0.564706 0.623529 
1 0.564706 0.623529 1 0.564706 0.623529 
1 0.564706 0.623529 1 0.564706 0.623529 
1 0.564706 0.623529 1 0.564706 0.623529 
1 0.564706 0.623529 1 0.564706 0.623529 
1 0.564706 0.623529 1 0.564706 0.623529 
1 0.564706 0.623529 1 0.564706 0.623529 
1 0.564706 0.623529 1 0.564706 0.623529 
1 0.564706 0.623529 1 0.564706 0.623529 
1 0.564706 0.623529 1 0.564706 0.623529 
1 0.564706 0.623529 1 0.564706 0.623529 
1 0.564706 0.623529 1 0.564706 0.623529 
1 0.564706 0.623529 1 0.564706 0.623529 
1 0.564706 0.623529 1 0.564706 0.623529 
1 0.564706 0.623529 1 0.564706 0.623529 
1 0.564706 0.623529 1 0.564706 0.623529 
1 0.564706 0.623529 1 0.564706 0.623529 
1 0.564706 0.623529 1 0.564706 0.623529 
1 0.564706 0.623529 1 0.564706 0.623529 
1 0.564706 0.623529 1 0.564706 0.623529 
1 0.564706 0.623529 1 0.564706 0.623529 
1 0.564706 0.623529 1 0.564706 0.623529 
1 0.564706 0.623529 1 0.564706 0.623529 
1 0.564706 0.623529 1 0.564706 0.623529 
1 0.564706 0.623529 1 0.564706 0.623529 
1 0.564706 0.623529 1 0.564706 0.623529 
1 0.564706 0.623529 1 0.564706 0.623529 
1 0.564706 0.623529 1 0.564706 0.623529 
1 0.564706 0.623529 1 0.564706 0.623529 
1 0.564706 0.623529 1 0.564706 0.623529 
1 0.564706 0.623529 1 0.564706 0.623529 
1 0.564706 0.623529 1 0.564706 0.623529 
1 0.564706 0.623529 1 0.564706 0.623529 
1 0.564706 0.623529 1 0.564706 0.623529 
1 0.564706 0.623529 1 0.564706 0.623529 
1 0.564706 0.623529 1 0.564706 0.623529 
1 0.564706 0.623529 1 0.564706 0.623529 
1 0.564706 0.623529 1 0.564706 0.623529 
1 0.564706 0.623529 1 0.564706 0.623529 
1 0.564706 0.623529 1 0.564706 0.623529 
1 0.564706 0.623529 1 0.564706 0.623529 
1 0.564706 0.623529 1 0.564706 0.623529 
1 0.564706 0.623529 1 0.564706 0.623529 
1 0.564706 0.623529 1 0.564706 0.623529 
1 0.564706 0.623529 1 0.564706 0.623529 
1 0.564706 0.623529 1 0.564706 0.623529 
1 0.564706 0.623529 1 0.564706 0.623529 
1 0.564706 0.623529 1 0.564706 0.623529 
1 0.564706 0.623529 1 0.564706 0.623529 
1 0.564706 0.623529 1 0.564706 0.623529 
1 0.564706 0.623529 1 0.564706 0.623529 
1 0.564706 0.623529 1 0.564706 0.623529 
1 0.564706 0.623529 1 0.564706 0.623529 
1 0.564706 0.623529 1 0.564706 0.623529 
1 0.564706 0.623529 1 0.564706 0.623529 
1 0.564706 0.623529 1 0.564706 0.623529 
1 0.564706 0.623529 1 0.564706 0.623529 
1 0.564706 0.623529 1 0.564706 0.623529 
1 0.564706 0.623529 1 0.564706 0.623529 
1 0.564706 0.623529 1 0.564706 0.623529 
1 0.564706 0.623529 1 0.564706 0.623529 
1 0.564706 0.623529 1 0.564706 0.623529 
1 0.564706 0.623529 1 0.564706 0.623529 
1 0.564706 0.623529 1 0.564706 0.623529 
1 0.564706 0.623529 1 0.564706 0.623529 
1 0.564706 0.623529 1 0.564706 0.623529 
1 0.564706 0.623529 1 0.564706 0.623529 
1 0.564706 0.623529 1 0.564706 0.623529 
1 0.564706 0.623529 1 0.564706 0.623529 
1 0.564706 0.623529 1 0.564706 0.623529 
1 0.564706 0.623529 1 0.564706 0.623529 
1 0.564706 0.623529 1 0.564706 0.623529 
1 0.564706 0.623529 1 0.564706 0.623529 
1 0.564706 0.623529 1 0.564706 0.623529 
1 0.564706 0.623529 1 0.564706 0.623529 
1 0.564706 0.623529 1 0.564706 0.623529 
1 0.564706 0.623529 1 0.564706 0.623529 
1 0.564706 0.623529 1 0.564706 0.623529 
1 0.564706 0.623529 1 0.564706 0.623529 
1 0.564706 0.623529 1 0.564706 0.623529 
1 0.564706 0.623529 1 0.564706 0.623529 
1 0.564706 0.623529 1 0.564706 0.623529 
1 0.564706 0.623529 1 0.564706 0.623529 
1 0.564706 0.623529 1 0.564706 0.623529 
1 0.564706 0.623529 1 0.564706 0.623529 
1 0.564706 0.623529 1 0.564706 0.623529 
1 0.564706 0.623529 1 0.564706 0.623529 
1 0.564706 0.623529 1 0.564706 0.623529 
1 0.564706 0.623529 1 0.564706 0.623529 
1 0.564706 0.623529 1 0.564706 0.623529 
1 0.564706 0.623529 1 0.564706 0.623529 
1 0.564706 0.623529 1 0.564706 0.623529 
1 0.564706 0.623529 1 0.564706 0.623529 
1 0.564706 0.623529 1 0.564706 0.623529 
1 0.564706 0.623529 1 0.564706 0.623529 
1 0.564706 0.623529 1 0.564706 0.623529 
1 0.564706 0.623529 1 0.564706 0.623529 
1 0.564706 0.623529 1 0.564706 0.623529 
1 0.564706 0.623529 1 0.564706 0.623529 
1 0.564706 0.623529 1 0.564706 0.623529 
1 0.564706 0.623529 1 0.564706 0.623529 
1 0.564706 0.623529 1 0.564706 0.623529 
1 0.564706 0.623529 1 0.564706 0.623529 
1 0.564706 0.623529 1 0.564706 0.623529 
1 0.564706 0.623529 1 0.564706 0.623529 
1 0.564706 0.623529 1 0.564706 0.623529 
1 0.564706 0.623529 1 0.564706 0.623529 
1 0.564706 0.623529 1 0.564706 0.623529 
1 0.564706 0.623529 1 0.564706 0.623529 
1 0.564706 0.623529 1 0.564706 0.623529 
1 0.564706 0.623529 1 0.564706 0.623529 
1 0.564706 0.623529 1 0.564706 0.623529 
1 0.564706 0.623529 1 0.564706 0.623529 
1 0.564706 0.623529 1 0.564706 0.623529 
1 0.564706 0.623529 1 0.564706 0.623529 
1 0.564706 0.623529 1 0.564706 0.623529 
1 0.564706 0.623529 1 0.564706 0.623529 
1 0.564706 0.623529 1 0.564706 0.623529 
1 0.564706 0.623529 1 0.564706 0.623529 
1 0.564706 0.623529 1 0.564706 0.623529 
1 0.564706 0.623529 1 0.564706 0.623529 
1 0.564706 0.623529 1 0.564706 0.623529 
1 0.564706 0.623529 1 0.564706 0.623529 
1 0.564706 0.623529 1 0.564706 0.623529 
1 0.564706 0.623529 1 0.564706 0.623529 
1 0.564706 0.623529 1 0.564706 0.623529 
1 0.564706 0.623529 1 0.564706 0.623529 
1 0.564706 0.623529 1 0.564706 0.623529 
1 0.564706 0.623529 1 0.564706 0.623529 
1 0.564706 0.623529 1 0.564706 0.623529 
1 0.564706 0.623529 1 0.564706 0.623529 
1 0.564706 0.623529 1 0.564706 0.623529 
1 0.564706 0.623529 1 0.564706 0.623529 
1 0.564706 0.623529 1 0.564706 0.623529 
1 0.564706 0.623529 1 0.564706 0.623529 
1 0.564706 0.623529 1 0.564706 0.623529 
1 0.564706 0.623529 1 0.564706 0.623529 
1 0.564706 0.623529 1 0.564706 0.623529 
1 0.564706 0.623529 1 0.564706 0.623529 
1 0.564706 0.623529 1 0.564706 0.623529 
1 0.564706 0.623529 1 0.564706 0.623529 
1 0.564706 0.623529 1 0.564706 0.623529 
1 0.564706 0.623529 1 0.564706 0.623529 
1 0.564706 0.623529 1 0.564706 0.623529 
1 0.564706 0.623529 1 0.564706 0.623529 
1 0.564706 0.623529 1 0.564706 0.623529 
1 0.564706 0.623529 1 0.564706 0.623529 
1 0.564706 0.623529 1 0.564706 0.623529 
1 0.564706 0.623529 1 0.564706 0.623529 
1 0.564706 0.623529 1 0.564706 0.623529 
1 0.564706 0.623529 1 0.564706 0.623529 
1 0.564706 0.623529 1 0.564706 0.623529 
1 0.564706 0.623529 1 0.564706 0.623529 
1 0.564706 0.623529 1 0.564706 0.623529 
1 0.564706 0.623529 1 0.564706 0.623529 
1 0.564706 0.623529 1 0.564706 0.623529 
1 0.564706 0.623529 1 0.564706 0.623529 
1 0.564706 0.623529 1 0.564706 0.623529 
1 0.564706 0.623529 1 0.564706 0.623529 
1 0.564706 0.623529 1 0.564706 0.623529 
1 0.564706 0.623529 1 0.564706 0.623529 
1 0.564706 0.623529 1 0.564706 0.623529 
1 0.564706 0.623529 1 0.564706 0.623529 
1 0.564706 0.623529 1 0.564706 0.623529 
1 0.564706 0.623529 1 0.564706 0.623529 
1 0.564706 0.623529 1 0.564706 0.623529 
1 0.564706 0.623529 1 0.564706 0.623529 
1 0.564706 0.623529 1 0.564706 0.623529 
1 0.564706 0.623529 1 0.564706 0.623529 
1 0.564706 0.623529 1 0.564706 0.623529 
1 0.564706 0.623529 1 0.564706 0.623529 
1 0.564706 0.623529 1 0.564706 0.623529 
1 0.564706 0.623529 1 0.564706 0.623529 
1 0.564706 0.623529 1 0.564706 0.623529 
1 0.564706 0.623529 1 0.564706 0.623529 
1 0.564706 0.623529 1 0.564706 0.623529 
1 0.564706 0.623529 1 0.564706 0.623529 
1 0.564706 0.623529 1 0.564706 0.623529 
1 0.564706 0.623529 1 0.564706 0.623529 
1 0.564706 0.623529 1 0.564706 0.623529 
1 0.564706 0.623529 1 0.564706 0.623529 
1 0.564706 0.623529 1 0.564706 0.623529 
1 0.564706 0.623529 1 0.564706 0.623529 
1 0.564706 0.623529 1 0.564706 0.623529 
1 0.564706 0.623529 1 0.564706 0.623529 
1 0.564706 0.623529 1 0.564706 0.623529 
1 0.564706 0.623529 1 0.564706 0.623529 
1 0.564706 0.623529 1 0.564706 0.623529 
1 0.564706 0.623529 1 0.564706 0.623529 
1 0.564706 0.623529 1 0.564706 0.623529 
1 0.564706 0.623529 1 0.564706 0.623529 
1 0.564706 0.623529 1 0.564706 0.623529 
1 0.564706 0.623529 1 0.564706 0.623529 
1 0.564706 0.623529 1 0.564706 0.623529 
1 0.564706 0.623529 1 0.564706 0.623529 
1 0.564706 0.623529 1 0.564706 0.623529 
1 0.564706 0.623529 1 0.564706 0.623529 
1 0.564706 0.623529 1 0.564706 0.623529 
1 0.564706 0.623529 1 0.564706 0.623529 
1 0.564706 0.623529 1 0.564706 0.623529 
1 0.564706 0.623529 1 0.564706 0.623529 
1 0.564706 0.623529 1 0.564706 0.623529 
1 0.564706 0.623529 1 0.564706 0.623529 
1 0.564706 0.623529 1 0.564706 0.623529 
1 0.564706 0.623529 1 0.564706 0.623529 
1 0.564706 0.623529 1 0.564706 0.623529 
1 0.564706 0.623529 1 0.564706 0.623529 
1 0.564706 0.623529 1 0.564706 0.623529 
1 0.564706 0.623529 1 0.564706 0.623529 
1 0.564706 0.623529 1 0.564706 0.623529 
1 0.564706 0.623529 1 0.564706 0.623529 
1 0.564706 0.623529 1 0.564706 0.623529 
1 0.564706 0.623529 1 0.564706 0.623529 
1 0.564706 0.623529 1 0.564706 0.623529 
1 0.564706 0.623529 1 0.564706 0.623529 
1 0.564706 0.623529 1 0.564706 0.623529 
1 0.564706 0.623529 1 0.564706 0.623529 
1 0.564706 0.623529 1 0.564706 0.623529 
1 0.564706 0.623529 1 0.564706 0.623529 
1 0.564706 0.623529 1 0.564706 0.623529 
1 0.564706 0.623529 1 0.564706 0.623529 
1 0.564706 0.623529 1 0.564706 0.623529 
1 0.564706 0.623529 1 0.564706 0.623529 
1 0.564706 0.623529 1 0.564706 0.623529 
1 0.564706 0.623529 1 0.564706 0.623529 
1 0.564706 0.623529 1 0.564706 0.623529 
1 0.564706 0.623529 1 0.564706 0.623529 
1 0.564706 0.623529 1 0.564706 0.623529 
1 0.564706 0.623529 1 0.564706 0.623529 
1 0.564706 0.623529 1 0.564706 0.623529 
1 0.564706 0.623529 1 0.564706 0.623529 
1 0.564706 0.623529 1 0.564706 0.623529 
1 0.564706 0.623529 1 0.564706 0.623529 
1 0.564706 0.623529 1 0.564706 0.623529 
1 0.564706 0.623529 1 0.564706 0.623529 
1 0.564706 0.623529 1 0.564706 0.623529 
1 0.564706 0.623529 1 0.564706 0.623529 
1 0.564706 0.623529 1 0.564706 0.623529 
1 0.564706 0.623529 1 0.564706 0.623529 
1 0.564706 0.623529 1 0.564706 0.623529 
1 0.564706 0.623529 1 0.564706 0.623529 
1 0.564706 0.623529 1 0.564706 0.623529 
1 0.564706 0.623529 1 0.564706 0.623529 
1 0.564706 0.623529 1 0.564706 0.623529 
1 0.564706 0.623529 1 0.564706 0.623529 
1 0.564706 0.623529 1 0.564706 0.623529 
1 0.564706 0.623529 1 0.564706 0.623529 
1 0.564706 0.623529 1 0.564706 0.623529 
1 0.564706 0.623529 1 0.564706 0.623529 
1 0.564706 0.623529 1 0.564706 0.623529 
1 0.564706 0.623529 1 0.564706 0.623529 
1 0.564706 0.623529 1 0.564706 0.623529 
1 0.564706 0.623529 1 0.564706 0.623529 
1 0.564706 0.623529 1 0.564706 0.623529 
1 0.564706 0.623529 1 0.564706 0.623529 
1 0.564706 0.623529 1 0.564706 0.623529 
1 0.564706 0.623529 1 0.564706 0.623529 
1 0.564706 0.623529 1 0.564706 0.623529 
1 0.564706 0.623529 1 0.564706 0.623529 
1 0.564706 0.623529 
NORMALS Normals float
0.311333 0.192347 -0.930631 0.137374 -0.123447 -0.982797 0.424338 0.0679342 -0.902952 
0.0697126 0.349772 -0.934237 0.315358 0.707651 -0.632282 -0.131809 0.592684 -0.794576 
-0.273696 0.150368 -0.949989 0.223836 0.201321 -0.953607 0.306553 0.0692226 -0.949333 
0.217869 0.35967 -0.907288 0.4562 0.407089 -0.791303 -0.233086 0.0700687 -0.969929 
0.370664 0.57512 -0.729278 -0.14742 0.367404 -0.918304 0.0750003 0.587308 -0.805881 
-0.0187533 -0.257053 -0.966215 0.255336 -0.234423 -0.938003 -0.127614 0.683537 -0.718673 
-0.438216 -0.0204077 -0.898638 0.108062 0.0441073 -0.993165 0.430402 -0.103413 -0.896694 
0.0766146 0.728749 -0.680482 -0.362351 0.5316 -0.765574 0.501505 -0.00117125 -0.865154 
0.756869 0.156973 -0.634436 -0.337999 -0.42378 -0.840338 -0.167932 -0.418161 -0.892715 
0.347051 0.233776 -0.908242 -0.0240043 -0.325148 -0.945358 0.269922 -0.457854 -0.847061 
0.101046 -0.302925 -0.947643 0.348039 -0.388749 -0.853079 -0.399615 -0.159287 -0.902738 
0.510954 0.590301 -0.624877 0.504956 -0.372759 -0.778505 0.84862 -0.253551 -0.46428 
-0.297578 0.425984 -0.854392 0.778384 -0.201234 -0.594662 -0.533505 0.351411 -0.76934 
0.80198 -0.250231 -0.542414 -0.173409 0.709551 -0.682983 0.018221 0.770298 -0.637424 
0.0942247 0.702799 -0.705121 0.413639 0.628049 -0.659134 0.689657 0.482512 -0.539959 
0.834219 0.315803 -0.452048 0.021499 0.842455 -0.538338 -0.000402409 -0.310785 -0.95048 
0.143694 -0.0469852 -0.988506 -0.361607 -0.564171 -0.742261 0.0538573 -0.480543 -0.875316 
0.239412 -0.366226 -0.8992 0.385026 -0.400494 -0.831481 -0.587439 -0.527966 -0.613325 
-0.550013 -0.111886 -0.827627 0.51491 0.572902 -0.637692 -0.345303 -0.166396 -0.923622 
0.652887 -0.378833 -0.655915 -0.585906 0.0436652 -0.809202 -0.442646 0.26807 -0.855689 
-0.443338 0.385824 -0.809068 0.287121 0.818793 -0.497132 0.931273 -0.0770939 -0.356072 
-0.316092 0.75845 -0.569946 0.211333 0.874195 -0.437174 0.929195 0.111303 -0.352433 
-0.128707 0.833458 -0.537384 0.433083 0.736393 -0.519774 0.738358 0.529899 -0.417175 
0.0273376 -0.263816 -0.964186 -0.612899 -0.630463 -0.47631 -0.556185 -0.586274 -0.589017 
-0.0637049 -0.188137 -0.980075 0.180979 0.1794 -0.966986 0.54296 -0.450963 -0.708397 
0.672523 -0.428945 -0.603091 -0.7632 -0.49078 -0.420311 -0.723893 -0.20625 -0.658361 
-0.673816 0.245809 -0.696814 -0.644873 0.530598 -0.550095 -0.403588 0.758045 -0.512333 
-0.154645 0.82537 -0.543 0.0645698 0.834893 -0.546611 0.0221968 -0.434978 -0.900168 
0.333062 -0.447774 -0.8298 -0.124672 0.0987367 -0.987273 0.3026 0.301314 -0.904236 
-0.338244 0.00720833 -0.941031 0.876833 -0.38444 -0.288737 -0.488745 0.181146 -0.853414 
-0.868947 -0.346627 -0.353244 0.131281 0.611031 -0.780645 0.947404 -0.299195 -0.113616 
-0.889337 0.0331181 -0.456051 0.982426 -0.166897 -0.0835763 -0.654923 0.244623 -0.715007 
0.954078 0.229378 -0.192667 -0.0195515 0.946698 -0.321529 -0.305457 0.903005 -0.302122 