# vtk DataFile Version 4.2
vtk output
ASCII
DATASET POLYDATA
POINTS 863 float
253.3 147.538 145.828 253.088 147.916 145.654 254.118 147.634 145.922 
251.926 149.038 145.511 253.025 148.986 145.385 254.127 148.683 145.632 
253.929 146.922 146.237 253.932 146.569 146.513 252.351 148.02 145.787 
255.398 148.585 146.346 255.532 149.086 146.334 253.706 149.664 145.519 
254.749 149.652 145.892 255.329 149.38 146.102 255.319 149.531 146.079 
249.024 151.385 146.111 255.052 149.829 146.156 255.262 149.621 146.091 
248.171 152.306 146.156 249.679 152.203 145.765 250.263 152.205 145.687 
250.826 151.89 145.655 248.522 152.949 145.878 249.018 153.041 145.826 
247.716 153.536 145.998 247.224 154.354 146.082 246.633 155.426 146.156 
255.166 147.185 146.719 255.752 148.296 146.911 255.729 148.928 146.462 
255.701 148.758 146.515 255.781 148.861 146.535 255.377 149.528 146.262 
255.745 148.975 146.596 247.883 151.99 146.5 251.105 152.375 145.814 
252.705 151.708 146.105 254.298 150.953 146.623 252.25 152.467 146.382 
246.715 154.816 146.277 247.161 155.519 146.211 249.214 155.561 146.481 
247.516 157.273 146.61 245.02 158.964 147.233 255.947 147.989 147.402 
255.794 148.756 146.696 255.809 148.858 147.068 245.538 153.675 147.502 
252.148 153.592 147.305 250.416 154.587 146.6 251.195 154.501 147.093 
244.174 159.637 148.056 245.301 160.173 147.466 244.928 160.626 147.756 
245.114 161.137 147.862 245.73 160.96 147.649 253.763 144.146 149.001 
253.308 144.492 148.66 254.181 144.603 148.63 252.465 145.208 148.322 
255.071 145.532 148.116 251.551 146.148 148.089 256.045 146.701 148.407 
250.67 146.863 148.351 255.697 149.486 148.012 246.71 151.573 148.055 
254.772 150.968 147.921 251.462 154.988 147.857 252.524 154.04 148.681 
250.712 155.871 147.742 243.817 157.131 148.338 250.606 157.031 148.658 
246.396 162.51 148.483 253.052 143.025 150.026 252.415 144.388 149.104 
254.568 144.483 148.923 255.314 145.094 148.904 256.141 146.091 149.172 
256.257 146.657 148.973 256.35 147.047 149.242 255.957 148.857 148.803 
246.291 164.667 149.533 244.639 165.238 149.813 245.475 165.185 149.681 
253.57 142.225 150.726 254.985 143.44 150.406 251.089 144.805 149.78 
256.419 145.857 150.134 255.983 148.738 149.705 244.071 165.907 150.387 
246.404 166.8 150.571 244.634 167.84 151.093 245.197 168.029 151.036 
245.441 168.41 151.229 251.92 140.256 152.157 253.807 140.761 152.125 
251.383 142.512 151.091 251.363 144.076 150.086 256.08 144.35 150.885 
250.276 145.035 150.54 256.593 146.565 150.768 256.695 146.151 151.187 
256.3 147.72 150.757 250.299 158.676 151.414 248.924 163.609 151.7 
248.094 165.54 151.321 247.709 166.085 151.173 246.167 167.747 150.974 
246.009 168.555 151.417 244.848 169.021 151.662 245.109 169.728 152.087 
252.734 139.271 152.988 253.704 140.187 152.632 254.436 141.084 152.313 
250.426 142.288 152.005 256.769 145.191 152.176 256.72 146.06 151.573 
255.959 147.889 151.962 249.347 162.088 151.935 242.07 164.525 151.855 
244.022 168.694 151.794 247.016 169.334 152.394 244.919 170.626 152.626 
244.491 170.931 152.864 251.823 137.915 154.161 252.402 138.518 153.63 
255.082 141.232 153.08 249.315 143.09 152.854 256.732 144.557 152.855 
256.851 144.997 152.613 256.876 145.114 152.503 256.883 145.088 152.637 
256.727 145.561 152.519 256.848 145.199 152.545 247.327 147.786 152.696 
248.54 165.836 153.162 247.581 169.535 153.141 248.057 168.436 153.429 
244.1 170.825 152.98 243.945 171.532 153.528 244.403 172.613 154.149 
251.412 137.772 154.539 251.996 137.829 154.267 252.244 137.815 154.392 
250.689 138.484 154.17 252.548 138.144 154.12 249.243 140.928 153.973 
255.725 141.958 153.426 256.328 143.287 153.221 256.757 144.303 153.229 
256.656 144.073 153.282 256.738 144.222 153.396 256.802 145.059 152.844 
256.697 144.701 153.428 249.491 159.784 154.19 241.995 168.504 153.771 
247.785 170.381 154.321 247.572 170.868 154.61 247.751 170.515 154.509 
246.24 172.102 154.119 251.722 137.402 155.07 252.051 137.333 155.211 
252.882 137.664 155.179 254.025 138.599 155.078 255.967 142.06 154.807 
256.642 144.151 153.687 247.872 169.811 155.079 245.868 173.23 155.182 
246.085 173.158 155.287 244.272 173.858 155.764 244.962 173.985 156.038 
251.729 137.101 155.976 252.739 137.23 155.876 253.79 138.019 155.865 
254.128 138.441 155.641 256.153 142.798 155.238 256.315 143.843 154.997 
241.584 154.258 155.668 239.464 163.272 156.22 247.276 171.834 155.637 
246.247 173.134 155.589 243.607 174.02 156.38 245.386 173.893 156.201 
243.924 174.414 156.926 244.973 174.204 156.617 252.569 136.95 156.304 
252.986 137.227 156.385 247.63 139.824 157.467 246.978 141.119 157.381 
248.431 160.66 156.817 242.002 173.288 156.981 242.96 174.728 157.951 
243.841 174.775 157.608 251.452 137.119 157.358 251.031 137.217 157.238 
252.901 137.212 156.835 253.146 137.304 156.683 253.214 137.431 156.917 
248.068 139.078 158.142 255.05 140.127 157.113 246.512 141.325 158.068 
254.823 144.39 157.769 247.182 170.038 158.024 241.474 173.417 157.7 
245.465 174.192 157.505 243.951 174.947 158.015 244.225 174.972 158.286 
252.919 137.463 157.362 254.956 141.012 157.833 245.221 142.987 158.886 
246.371 173.092 158.132 241.798 175.088 159.332 249.771 138.167 159.404 
251.102 137.893 158.972 246.424 140.511 160.207 245.945 141.003 160.103 
241.951 176.039 160.668 242.418 176.037 160.611 242.984 175.889 160.543 
248.768 138.862 160.355 249.984 138.651 160.402 250.249 138.892 160.686 
252.96 139.281 159.49 245.04 141.972 160.583 240.366 175.197 160.679 
242.994 176.201 161.251 241.064 177.095 162.391 241.626 176.995 162.141 
247.217 139.966 161.181 250.924 139.593 161.111 251.421 139.884 161.065 
240.237 176.932 162.474 243.766 142.555 163.266 242.379 144.025 163.257 
245.195 174.163 161.439 241.79 177.287 162.943 239.507 177.975 164.265 
240.302 177.939 164.073 235.809 169.234 163.59 242.126 177.361 163.915 
240.448 178.106 164.488 243.973 142.612 164.761 242.975 176.765 164.916 
240.888 178.217 165.331 238.751 178.696 165.754 239.664 178.651 165.888 
240.395 178.433 165.607 238.69 178.901 166.245 243.947 142.837 165.366 
242.186 143.947 165.9 248.233 145.668 165.872 242.15 177.515 165.444 
242.438 177.26 165.807 239.561 178.896 166.89 238.131 178.934 166.655 
242.2 144.141 166.618 245.224 143.46 166.43 245.575 143.737 166.625 
247.321 143.867 165.889 233.454 169.309 166.904 241.897 177.513 167.07 
236.717 178.768 167.551 239.018 179.068 167.017 241.883 144.36 166.827 
242.765 144.145 166.963 240.689 145.224 167.158 245.697 144.243 166.931 
237.686 148.068 167.745 236.492 149.171 168.231 247.639 149.016 166.942 
235.556 151.175 167.961 243.824 164.055 167.943 240.647 178.412 167.712 
236.519 178.986 168.339 238.75 147.012 168.362 243.258 146.058 168.678 
245.189 147.232 168.579 236.579 148.847 169.411 236.025 149.221 169.173 
245.802 148.264 168.484 235.215 150.242 169.064 235.081 150.063 169.548 
245.813 156.015 168.634 233.21 175.472 169.183 242.384 175.968 169.242 
234.978 178.087 168.577 235.181 149.9 170.318 234.868 150.217 169.972 
234.42 150.815 170.081 234.103 151.165 170.378 233.948 151.914 169.924 
245.692 152.378 169.146 232.017 166.415 169.595 241.511 176.98 170.183 
234.14 177.987 169.542 239.207 178.82 170.124 234.583 178.666 169.985 
236.743 179.33 169.855 235.172 178.981 170.018 242.935 148.45 169.958 
235.124 150.07 170.747 239.827 149.525 171.185 233.709 151.93 170.901 
243.286 151.24 170.882 243.726 151.536 170.717 244.39 157.368 170.504 
231.925 175.061 171.205 232.997 178.036 171.416 240.654 177.622 171.236 
233.448 178.36 171.115 236.962 179.271 171.183 235.172 179.185 170.909 
236.685 149.851 171.47 234.909 150.697 171.446 233.585 152.259 171.416 
240.966 151.005 171.699 232.686 153.971 171.946 242.905 163.532 171.29 
242.802 162.648 171.798 233 178.584 172.22 234.969 179.249 171.723 
233.449 178.812 172.058 234.297 151.593 171.921 234.489 151.881 172.425 
235.702 151.625 172.784 236.247 151.474 172.715 233.092 153.583 172.689 
232.393 154.993 172.83 231.369 158.132 173.121 242.749 159.084 172.378 
242.713 161.953 172.135 242.316 165.537 172.505 230.598 169.683 173.361 
240.991 176.643 172.795 232.268 178.223 173.312 232.674 178.613 173.06 
235.144 179.202 172.999 233.539 179 172.683 234.302 152.866 173.248 
233.662 153.044 172.855 237.546 153.765 173.915 239.117 154.767 173.894 
231.614 157.038 173.584 239.907 155.62 173.87 241.112 157.878 173.796 
236.158 178.771 174.258 232.194 178.404 174.22 233.779 179.102 173.137 
234.229 179.082 173.855 233.245 154.719 174.155 233.517 154.831 174.486 
233.883 154.767 174.615 234.211 155.023 174.862 232.633 156.053 174.635 
241.521 164.983 174.07 238.077 178.034 174.543 234.78 178.921 174.6 
232.137 178.531 174.754 232.647 178.698 174.755 232.855 178.794 173.828 
231.963 178.463 174.95 233.256 155.727 174.938 233.702 155.841 175.221 
235.347 155.634 175.227 231.638 158.143 174.947 231.06 160.69 175.396 
230.44 163.826 175.605 240.914 167.399 175.464 230.066 173.377 175.889 
231.188 177.488 176.24 231.911 158.254 175.591 232.107 158.546 176.012 
231.346 160.093 175.822 230.747 162.855 177.003 230.476 163.477 176.304 
239.101 164.676 176.833 240.564 173.51 176.546 240.432 174.165 176.615 
240.062 175.331 176.498 239.17 175.981 177.064 231.195 177.484 177.301 
231.743 160.091 176.52 229.784 171.983 178.073 229.98 174.557 178.254 
230.394 176.121 178.524 237.823 176.361 178.047 231.145 177.497 177.919 
231.609 177.683 177.952 231.001 177.38 178.134 231.087 164.473 178.663 
239.128 175.096 178.042 230.866 176.758 179.202 232.32 163.476 179.155 
231.556 164.507 179.2 236.455 167.826 179.758 238.389 173.882 179.362 
237.185 175.229 179.922 232.697 164.061 179.534 233.238 164.631 179.812 
231.889 165.355 179.851 232.211 165.603 180.147 232.615 165.626 180.267 
233.575 166.55 180.645 230.962 167.625 180.099 236.951 173.772 180.69 
237.378 174.385 180.205 230.598 175.533 180.616 231.971 177.246 179.657 
232.561 167.553 181.13 230.763 171.305 181.299 235.476 172.991 181.701 
[...]
POINT_DATA 863
COLOR_SCALARS scalars 3
1 0.564706 0.623529 1 0.564706 0.623529 1 0.564706 0.623529 
1 0.564706 0.623529 1 0.564706 0.623529 
1 0.564706 0.623529 1 0.564706 0.623529 
1 0.564706 0.623529 1 0.564706 0.623529 
1 0.564706 0.623529 1 0.564706 0.623529 
1 0.564706 0.623529 1 0.564706 0.623529 
1 0.564706 0.623529 1 0.564706 0.623529 
1 0.564706 0.623529 1 0.564706 0.623529 
1 0.564706 0.623529 1 0.564706 0.623529 
1 0.564706 0.623529 1 0.564706 0.623529 
1 0.564706 0.623529 1 0.564706 0.623529 
1 0.564706 0.623529 1 0.564706 0.623529 
1 0.564706 0.623529 1 0.564706 0.623529 
1 0.564706 0.623529 1 0.564706 0.623529 
1 0.564706 0.623529 1 0.564706 0.623529 
1 0.564706 0.623529 1 0.564706 0.623529 
1 0.564706 0.623529 1 0.564706 0.623529 
1 0.564706 0.623529 1 0.564706 0.623529 
1 0.564706 0.623529 1 0.564706 0.623529 
1 0.564706 0.623529 1 0.564706 0.623529 
1 0.564706 0.623529 1 0.564706 0.623529 
1 0.564706 0.623529 1 0.564706 0.623529 
1 0.564706 0.623529 1 0.564706 0.623529 
1 0.564706 0.623529 1 0.564706 0.623529 
1 0.564706 0.623529 1 0.564706 0.623529 
1 0.564706 0.623529 1 0.564706 0.623529 
1 0.564706 0.623529 1 0.564706 0.623529 
1 0.564706 0.623529 1 0.564706 0.623529 
1 0.564706 0.623529 1 0.564706 0.623529 
1 0.564706 0.623529 1 0.564706 0.623529 
1 0.564706 0.623529 1 0.564706 0.623529 
1 0.564706 0.623529 1 0.564706 0.623529 
1 0.564706 0.623529 1 0.564706 0.623529 
1 0.564706 0.623529 1 0.564706 0.623529 
1 0.564706 0.623529 1 0.564706 0.623529 
1 0.564706 0.623529 1 0.564706 0.623529 
1 0.564706 0.623529 1 0.564706 0.623529 
1 0.564706 0.623529 1 0.564706 0.623529 
1 0.564706 0.623529 1 0.564706 0.623529 
1 0.564706 0.623529 1 0.564706 0.623529 
1 0.564706 0.623529 1 0.564706 0.623529 
1 0.564706 0.623529 1 0.564706 0.623529 
1 0.564706 0.623529 1 0.564706 0.623529 
1 0.564706 0.623529 1 0.564706 0.623529 
1 0.564706 0.623529 1 0.564706 0.623529 
1 0.564706 0.623529 1 0.564706 0.623529 
1 0.564706 0.623529 1 0.564706 0.623529 
1 0.564706 0.623529 1 0.564706 0.623529 
1 0.564706 0.623529 1 0.564706 0.623529 
1 0.564706 0.623529 1 0.564706 0.623529 
1 0.564706 0.623529 1 0.564706 0.623529 
1 0.564706 0.623529 1 0.564706 0.623529 
1 0.564706 0.623529 1 0.564706 0.623529 
1 0.564706 0.623529 1 0.564706 0.623529 
1 0.564706 0.623529 1 0.564706 0.623529 
1 0.564706 0.623529 1 0.564706 0.623529 
1 0.564706 0.623529 1 0.564706 0.623529 
1 0.564706 0.623529 1 0.564706 0.623529 
1 0.564706 0.623529 1 0.564706 0.623529 
1 0.564706 0.623529 1 0.564706 0.623529 
1 0.564706 0.623529 1 0.564706 0.623529 
1 0.564706 0.623529 1 0.564706 0.623529 
1 0.564706 0.623529 1 0.564706 0.623529 
1 0.564706 0.623529 1 0.564706 0.623529 
1 0.564706 0.623529 1 0.564706 0.623529 
1 0.564706 0.623529 1 0.564706 0.623529 
1 0.564706 0.623529 1 0.564706 0.623529 
1 0.564706 0.623529 1 0.564706 0.623529 
1 0.564706 0.623529 1 0.564706 0.623529 
1 0.564706 0.623529 1 0.564706 0.623529 
1 0.564706 0.623529 1 0.564706 0.623529 
1 0.564706 0.623529 1 0.564706 0.623529 
1 0.564706 0.623529 1 0.564706 0.623529 
1 0.564706 0.623529 1 0.564706 0.623529 
1 0.564706 0.623529 1 0.564706 0.623529 
1 0.564706 0.623529 1 0.564706 0.623529 
1 0.564706 0.623529 1 0.564706 0.623529 
1 0.564706 0.623529 1 0.564706 0.623529 
1 0.564706 0.623529 1 0.564706 0.623529 
1 0.564706 0.623529 1 0.564706 0.623529 
1 0.564706 0.623529 1 0.564706 0.623529 
1 0.564706 0.623529 1 0.564706 0.623529 
1 0.564706 0.623529 1 0.564706 0.623529 
1 0.564706 0.623529 1 0.564706 0.623529 
1 0.564706 0.623529 1 0.564706 0.623529 
1 0.564706 0.623529 1 0.564706 0.623529 
1 0.564706 0.623529 1 0.564706 0.623529 
1 0.564706 0.623529 1 0.564706 0.623529 
1 0.564706 0.623529 1 0.564706 0.623529 
1 0.564706 0.623529 1 0.564706 0.623529 
1 0.564706 0.623529 1 0.564706 0.623529 
1 0.564706 0.623529 1 0.564706 0.623529 
1 0.564706 0.623529 1 0.564706 0.623529 
1 0.564706 0.623529 1 0.564706 0.623529 
1 0.564706 0.623529 1 0.564706 0.623529 
1 0.564706 0.623529 1 0.564706 0.623529 
1 0.564706 0.623529 1 0.564706 0.623529 
1 0.564706 0.623529 1 0.564706 0.623529 
1 0.564706 0.623529 1 0.564706 0.623529 
1 0.564706 0.623529 1 0.564706 0.623529 
1 0.564706 0.623529 1 0.564706 0.623529 
1 0.564706 0.623529 1 0.564706 0.623529 
1 0.564706 0.623529 1 0.564706 0.623529 
1 0.564706 0.623529 1 0.564706 0.623529 
1 0.564706 0.623529 1 0.564706 0.623529 
1 0.564706 0.623529 1 0.564706 0.623529 
1 0.564706 0.623529 1 0.564706 0.623529 
1 0.564706 0.623529 1 0.564706 0.623529 
1 0.564706 0.623529 1 0.564706 0.623529 
1 0.564706 0.623529 1 0.564706 0.623529 
1 0.564706 0.623529 1 0.564706 0.623529 
1 0.564706 0.623529 1 0.564706 0.623529 
1 0.564706 0.623529 1 0.564706 0.623529 
1 0.564706 0.623529 1 0.564706 0.623529 
1 0.564706 0.623529 1 0.564706 0.623529 
1 0.564706 0.623529 1 0.564706 0.623529 
1 0.564706 0.623529 1 0.564706 0.623529 
1 0.564706 0.623529 1 0.564706 0.623529 
1 0.564706 0.623529 1 0.564706 0.623529 
1 0.564706 0.623529 1 0.564706 0.623529 
1 0.564706 0.623529 1 0.564706 0.623529 
1 0.564706 0.623529 1 0.564706 0.623529 
1 0.564706 0.623529 1 0.564706 0.623529 
1 0.564706 0.623529 1 0.564706 0.623529 
1 0.564706 0.623529 1 0.564706 0.623529 
1 0.564706 0.623529 1 0.564706 0.623529 
1 0.564706 0.623529 1 0.564706 0.623529 
1 0.564706 0.623529 1 0.564706 0.623529 
1 0.564706 0.623529 1 0.564706 0.623529 
1 0.564706 0.623529 1 0.564706 0.623529 
1 0.564706 0.623529 1 0.564706 0.623529 
1 0.564706 0.623529 1 0.564706 0.623529 
1 0.564706 0.623529 1 0.564706 0.623529 
1 0.564706 0.623529 1 0.564706 0.623529 
1 0.564706 0.623529 1 0.564706 0.623529 
1 0.564706 0.623529 1 0.564706 0.623529 
1 0.564706 0.623529 1 0.564706 0.623529 
1 0.564706 0.623529 1 0.564706 0.623529 
1 0.564706 0.623529 1 0.564706 0.623529 
1 0.564706 0.623529 1 0.564706 0.623529 
1 0.564706 0.623529 1 0.564706 0.623529 
1 0.564706 0.623529 1 0.564706 0.623529 
1 0.564706 0.623529 1 0.564706 0.623529 
1 0.564706 0.623529 1 0.564706 0.623529 
1 0.564706 0.623529 1 0.564706 0.623529 
1 0.564706 0.623529 1 0.564706 0.623529 
1 0.564706 0.623529 1 0.564706 0.623529 
1 0.564706 0.623529 1 0.564706 0.623529 
1 0.564706 0.623529 1 0.564706 0.623529 
1 0.564706 0.623529 1 0.564706 0.623529 
1 0.564706 0.623529 1 0.564706 0.623529 
1 0.564706 0.623529 1 0.564706 0.623529 
1 0.564706 0.623529 1 0.564706 0.623529 
1 0.564706 0.623529 1 0.564706 0.623529 
1 0.564706 0.623529 1 0.564706 0.623529 
1 0.564706 0.623529 1 0.564706 0.623529 
1 0.564706 0.623529 1 0.564706 0.623529 
1 0.564706 0.623529 1 0.564706 0.623529 
1 0.564706 0.623529 1 0.564706 0.623529 
1 0.564706 0.623529 1 0.564706 0.623529 
1 0.564706 0.623529 1 0.564706 0.623529 
1 0.564706 0.623529 1 0.564706 0.623529 
1 0.564706 0.623529 1 0.564706 0.623529 
1 0.564706 0.623529 1 0.564706 0.623529 
1 0.564706 0.623529 1 0.564706 0.623529 
1 0.564706 0.623529 1 0.564706 0.623529 
1 0.564706 0.623529 1 0.564706 0.623529 
1 0.564706 0.623529 1 0.564706 0.623529 
1 0.564706 0.623529 1 0.564706 0.623529 
1 0.564706 0.623529 1 0.564706 0.623529 
1 0.564706 0.623529 1 0.564706 0.623529 
1 0.564706 0.623529 1 0.564706 0.623529 
1 0.564706 0.623529 1 0.564706 0.623529 
1 0.564706 0.623529 1 0.564706 0.623529 
1 0.564706 0.623529 1 0.564706 0.623529 
1 0.564706 0.623529 1 0.564706 0.623529 
1 0.564706 0.623529 1 0.564706 0.623529 
1 0.564706 0.623529 1 0.564706 0.623529 
1 0.564706 0.623529 1 0.564706 0.623529 
1 0.564706 0.623529 1 0.564706 0.623529 
1 0.564706 0.623529 1 0.564706 0.623529 
1 0.564706 0.623529 1 0.564706 0.623529 
1 0.564706 0.623529 1 0.564706 0.623529 
1 0.564706 0.623529 1 0.564706 0.623529 
1 0.564706 0.623529 1 0.564706 0.623529 
1 0.564706 0.623529 1 0.564706 0.623529 
1 0.564706 0.623529 1 0.564706 0.623529 
1 0.564706 0.623529 1 0.564706 0.623529 
1 0.564706 0.623529 1 0.564706 0.623529 
1 0.564706 0.623529 1 0.564706 0.623529 
1 0.564706 0.623529 1 0.564706 0.623529 
1 0.564706 0.623529 1 0.564706 0.623529 
1 0.564706 0.623529 1 0.564706 0.623529 
1 0.564706 0.623529 1 0.564706 0.623529 
1 0.564706 0.623529 1 0.564706 0.623529 
1 0.564706 0.623529 1 0.564706 0.623529 
1 0.564706 0.623529 1 0.564706 0.623529 
1 0.564706 0.623529 1 0.564706 0.623529 
1 0.564706 0.623529 1 0.564706 0.623529 
1 0.564706 0.623529 1 0.564706 0.623529 
1 0.564706 0.623529 1 0.564706 0.623529 
1 0.564706 0.623529 1 0.564706 0.623529 
1 0.564706 0.623529 1 0.564706 0.623529 
1 0.564706 0.623529 1 0.564706 0.623529 
1 0.564706 0.623529 1 0.564706 0.623529 
1 0.564706 0.623529 1 0.564706 0.623529 
1 0.564706 0.623529 1 0.564706 0.623529 
1 0.564706 0.623529 1 0.564706 0.623529 
1 0.564706 0.623529 1 0.564706 0.623529 
1 0.564706 0.623529 1 0.564706 0.623529 
1 0.564706 0.623529 1 0.564706 0.623529 
1 0.564706 0.623529 1 0.564706 0.623529 
1 0.564706 0.623529 1 0.564706 0.623529 
1 0.564706 0.623529 1 0.564706 0.623529 
1 0.564706 0.623529 1 0.564706 0.623529 
1 0.564706 0.623529 1 0.564706 0.623529 
1 0.564706 0.623529 1 0.564706 0.623529 
1 0.564706 0.623529 1 0.564706 0.623529 
1 0.564706 0.623529 1 0.564706 0.623529 
1 0.564706 0.623529 1 0.564706 0.623529 
1 0.564706 0.623529 1 0.564706 0.623529 
1 0.564706 0.623529 1 0.564706 0.623529 
1 0.564706 0.623529 1 0.564706 0.623529 
1 0.564706 0.623529 1 0.564706 0.623529 
1 0.564706 0.623529 1 0.564706 0.623529 
1 0.564706 0.623529 1 0.564706 0.623529 
1 0.564706 0.623529 1 0.564706 0.623529 
1 0.564706 0.623529 1 0.564706 0.623529 
1 0.564706 0.623529 1 0.564706 0.623529 
1 0.564706 0.623529 1 0.564706 0.623529 
1 0.564706 0.623529 1 0.564706 0.623529 
1 0.564706 0.623529 1 0.564706 0.623529 
1 0.564706 0.623529 1 0.564706 0.623529 
1 0.564706 0.623529 1 0.564706 0.623529 
1 0.564706 0.623529 1 0.564706 0.623529 
1 0.564706 0.623529 1 0.564706 0.623529 
1 0.564706 0.623529 1 0.564706 0.623529 
1 0.564706 0.623529 1 0.564706 0.623529 
1 0.564706 0.623529 1 0.564706 0.623529 
1 0.564706 0.623529 1 0.564706 0.623529 
1 0.564706 0.623529 1 0.564706 0.623529 
1 0.564706 0.623529 1 0.564706 0.623529 
1 0.564706 0.623529 1 0.564706 0.623529 
1 0.564706 0.623529 1 0.564706 0.623529 
1 0.564706 0.623529 1 0.564706 0.623529 
1 0.564706 0.623529 1 0.564706 0.623529 
1 0.564706 0.623529 1 0.564706 0.623529 
1 0.564706 0.623529 1 0.564706 0.623529 
1 0.564706 0.623529 1 0.564706 0.623529 
1 0.564706 0.623529 1 0.564706 0.623529 
1 0.564706 0.623529 1 0.564706 0.623529 
1 0.564706 0.623529 1 0.564706 0.623529 
1 0.564706 0.623529 1 0.564706 0.623529 
1 0.564706 0.623529 1 0.564706 0.623529 
1 0.564706 0.623529 1 0.564706 0.623529 
1 0.564706 0.623529 1 0.564706 0.623529 
1 0.564706 0.623529 1 0.564706 0.623529 
1 0.564706 0.623529 1 0.564706 0.623529 
1 0.564706 0.623529 1 0.564706 0.623529 
1 0.564706 0.623529 1 0.564706 0.623529 
1 0.564706 0.623529 1 0.564706 0.623529 
1 0.564706 0.623529 1 0.564706 0.623529 
1 0.564706 0.623529 1 0.564706 0.623529 
1 0.564706 0.623529 1 0.564706 0.623529 
1 0.564706 0.623529 1 0.564706 0.623529 
1 0.564706 0.623529 1 0.564706 0.623529 
1 0.564706 0.623529 1 0.564706 0.623529 
1 0.564706 0.623529 1 0.564706 0.623529 
1 0.564706 0.623529 1 0.564706 0.623529 
1 0.564706 0.623529 1 0.564706 0.623529 
1 0.564706 0.623529 1 0.564706 0.623529 
1 0.564706 0.623529 1 0.564706 0.623529 
1 0.564706 0.623529 1 0.564706 0.623529 
1 0.564706 0.623529 1 0.564706 0.623529 
1 0.564706 0.623529 1 0.564706 0.623529 
1 0.564706 0.623529 1 0.564706 0.623529 
1 0.564706 0.623529 1 0.564706 0.623529 
1 0.564706 0.623529 1 0.564706 0.623529 
1 0.564706 0.623529 1 0.564706 0.623529 
1 0.564706 0.623529 1 0.564706 0.623529 
1 0.564706 0.623529 1 0.564706 0.623529 
1 0.564706 0.623529 1 0.564706 0.623529 
1 0.564706 0.623529 1 0.564706 0.623529 
1 0.564706 0.623529 1 0.564706 0.623529 
1 0.564706 0.623529 1 0.564706 0.623529 
1 0.564706 0.623529 1 0.564706 0.623529 
1 0.564706 0.623529 1 0.564706 0.623529 
1 0.564706 0.623529 1 0.564706 0.623529 
1 0.564706 0.623529 1 0.564706 0.623529 
1 0.564706 0.623529 1 0.564706 0.623529 
1 0.564706 0.623529 1 0.564706 0.623529 
1 0.564706 0.623529 1 0.564706 0.623529 
1 0.564706 0.623529 1 0.564706 0.623529 
1 0.564706 0.623529 1 0.564706 0.623529 
1 0.564706 0.623529 1 0.564706 0.623529 
1 0.564706 0.623529 1 0.564706 0.623529 
1 0.564706 0.623529 1 0.564706 0.623529 
1 0.564706 0.623529 1 0.564706 0.623529 
1 0.564706 0.623529 1 0.564706 0.623529 
1 0.564706 0.623529 1 0.564706 0.623529 
1 0.564706 0.623529 1 0.564706 0.623529 
1 0.564706 0.623529 1 0.564706 0.623529 
1 0.564706 0.623529 1 0.564706 0.623529 
1 0.564706 0.623529 1 0.564706 0.623529 
1 0.564706 0.623529 1 0.564706 0.623529 
1 0.564706 0.623529 1 0.564706 0.623529 
1 0.564706 0.623529 1 0.564706 0.623529 
1 0.564706 0.623529 1 0.564706 0.623529 
1 0.564706 0.623529 1 0.564706 0.623529 
1 0.564706 0.623529 1 0.564706 0.623529 
1 0.564706 0.623529 1 0.564706 0.623529 
1 0.564706 0.623529 1 0.564706 0.623529 
1 0.564706 0.623529 1 0.564706 0.623529 
1 0.564706 0.623529 1 0.564706 0.623529 
1 0.564706 0.623529 1 0.564706 0.623529 
1 0.564706 0.623529 1 0.564706 0.623529 
1 0.564706 0.623529 1 0.564706 0.623529 
1 0.564706 0.623529 1 0.564706 0.623529 
1 0.564706 0.623529 1 0.564706 0.623529 
1 0.564706 0.623529 1 0.564706 0.623529 
1 0.564706 0.623529 1 0.564706 0.623529 
1 0.564706 0.623529 1 0.564706 0.623529 
1 0.564706 0.623529 1 0.564706 0.623529 
1 0.564706 0.623529 1 0.564706 0.623529 
1 0.564706 0.623529 1 0.564706 0.623529 
1 0.564706 0.623529 1 0.564706 0.623529 
1 0.564706 0.623529 1 0.564706 0.623529 
1 0.564706 0.623529 1 0.564706 0.623529 
1 0.564706 0.623529 1 0.564706 0.623529 
1 0.564706 0.623529 1 0.564706 0.623529 
1 0.564706 0.623529 1 0.564706 0.623529 
1 0.564706 0.623529 1 0.564706 0.623529 
1 0.564706 0.623529 1 0.564706 0.623529 
1 0.564706 0.623529 1 0.564706 0.623529 
1 0.564706 0.623529 1 0.564706 0.623529 
1 0.564706 0.623529 1 0.564706 0.623529 
1 0.564706 0.623529 1 0.564706 0.623529 
1 0.564706 0.623529 1 0.564706 0.623529 
1 0.564706 0.623529 1 0.564706 0.623529 
1 0.564706 0.623529 1 0.564706 0.623529 
1 0.564706 0.623529 1 0.564706 0.623529 
1 0.564706 0.623529 1 0.564706 0.623529 
1 0.564706 0.623529 1 0.564706 0.623529 
1 0.564706 0.623529 1 0.564706 0.623529 
1 0.564706 0.623529 1 0.564706 0.623529 
1 0.564706 0.623529 1 0.564706 0.623529 
1 0.564706 0.623529 1 0.564706 0.623529 
1 0.564706 0.623529 1 0.564706 0.623529 
1 0.564706 0.623529 1 0.564706 0.623529 
1 0.564706 0.623529 1 0.564706 0.623529 
1 0.564706 0.623529 1 0.564706 0.623529 
1 0.564706 0.623529 1 0.564706 0.623529 
1 0.564706 0.623529 1 0.564706 0.623529 
1 0.564706 0.623529 1 0.564706 0.623529 
1 0.564706 0.623529 1 0.564706 0.623529 
1 0.564706 0.623529 1 0.564706 0.623529 
1 0.564706 0.623529 1 0.564706 0.623529 
1 0.564706 0.623529 1 0.564706 0.623529 
1 0.564706 0.623529 1 0.564706 0.623529 
1 0.564706 0.623529 1 0.564706 0.623529 
1 0.564706 0.623529 1 0.564706 0.623529 
1 0.564706 0.623529 1 0.564706 0.623529 
1 0.564706 0.623529 1 0.564706 0.623529 
1 0.564706 0.623529 1 0.564706 0.623529 
1 0.564706 0.623529 1 0.564706 0.623529 
1 0.564706 0.623529 1 0.564706 0.623529 
1 0.564706 0.623529 1 0.564706 0.623529 
1 0.564706 0.623529 1 0.564706 0.623529 
1 0.564706 0.623529 1 0.564706 0.623529 
1 0.564706 0.623529 1 0.564706 0.623529 
1 0.564706 0.623529 1 0.564706 0.623529 
1 0.564706 0.623529 1 0.564706 0.623529 
1 0.564706 0.623529 1 0.564706 0.623529 
1 0.564706 0.623529 1 0.564706 0.623529 
1 0.564706 0.623529 1 0.564706 0.623529 
1 0.564706 0.623529 1 0.564706 0.623529 
1 0.564706 0.623529 1 0.564706 0.623529 
1 0.564706 0.623529 1 0.564706 0.623529 
1 0.564706 0.623529 1 0.564706 0.623529 
1 0.564706 0.623529 1 0.564706 0.623529 
1 0.564706 0.623529 1 0.564706 0.623529 
1 0.564706 0.623529 1 0.564706 0.623529 
1 0.564706 0.623529 1 0.564706 0.623529 
1 0.564706 0.623529 1 0.564706 0.623529 
1 0.564706 0.623529 1 0.564706 0.623529 
1 0.564706 0.623529 1 0.564706 0.623529 
1 0.564706 0.623529 1 0.564706 0.623529 
1 0.564706 0.623529 1 0.564706 0.623529 
1 0.564706 0.623529 1 0.564706 0.623529 
1 0.564706 0.623529 1 0.564706 0.623529 
1 0.564706 0.623529 1 0.564706 0.623529 
1 0.564706 0.623529 1 0.564706 0.623529 
1 0.564706 0.623529 1 0.564706 0.623529 
1 0.564706 0.623529 1 0.564706 0.623529 
1 0.564706 0.623529 1 0.564706 0.623529 
1 0.564706 0.623529 1 0.564706 0.623529 
1 0.564706 0.623529 1 0.564706 0.623529 
1 0.564706 0.623529 1 0.564706 0.623529 
1 0.564706 0.623529 1 0.564706 0.623529 
1 0.564706 0.623529 1 0.564706 0.623529 
1 0.564706 0.623529 1 0.564706 0.623529 
1 0.564706 0.623529 1 0.564706 0.623529 
1 0.564706 0.623529 1 0.564706 0.623529 
1 0.564706 0.623529 1 0.564706 0.623529 
1 0.564706 0.623529 1 0.564706 0.623529 
1 0.564706 0.623529 1 0.564706 0.623529 
1 0.564706 0.623529 1 0.564706 0.623529 
1 0.564706 0.623529 1 0.564706 0.623529 
1 0.564706 0.623529 1 0.564706 0.623529 
1 0.564706 0.623529 1 0.564706 0.623529 
1 0.564706 0.623529 1 0.564706 0.623529 
1 0.564706 0.623529 1 0.564706 0.623529 
1 0.564706 0.623529 1 0.564706 0.623529 
1 0.564706 0.623529 1 0.564706 0.623529 
1 0.564706 0.623529 1 0.564706 0.623529 
1 0.564706 0.623529 1 0.564706 0.623529 
1 0.564706 0.623529 1 0.564706 0.623529 
1 0.564706 0.623529 1 0.564706 0.623529 
1 0.564706 0.623529 1 0.564706 0.623529 
1 0.564706 0.623529 1 0.564706 0.623529 
1 0.564706 0.623529 1 0.564706 0.623529 
1 0.564706 0.623529 1 0.564706 0.623529 
1 0.564706 0.623529 1 0.564706 0.623529 
1 0.564706 0.623529 1 0.564706 0.623529 
1 0.564706 0.623529 1 0.564706 0.623529 
1 0.564706 0.623529 1 0.564706 0.623529 
1 0.564706 0.623529 1 0.564706 0.623529 
1 0.564706 0.623529 1 0.564706 0.623529 
1 0.564706 0.623529 1 0.564706 0.623529 
1 0.564706 0.623529 1 0.564706 0.623529 
1 0.564706 0.623529 1 0.564706 0.623529 

NORMALS Normals float
-0.00648169 -0.460224 -0.887779 -0.133586 -0.445057 -0.885482 0.339673 -0.358736 -0.869443 
-0.339873 -0.2389 -0.909622 0.151839 -0.0831868 -0.984898 0.301213 -0.15241 -0.941298 
0.297201 -0.489638 -0.819711 0.050834 -0.670415 -0.740242 -0.387039 -0.523701 -0.758905 
0.540931 -0.271405 -0.796073 0.607815 -0.0358591 -0.793268 0.163903 0.200304 -0.965926 
0.339582 0.0481993 -0.939341 0.632726 -0.153074 -0.759095 0.518664 0.211869 -0.828311 
-0.458312 -0.434896 -0.775123 0.4417 0.556221 -0.703931 -0.425656 -0.151428 -0.892125 
-0.460788 -0.276567 -0.843318 -0.15794 0.033028 -0.986896 -0.04325 0.352437 -0.934835 
0.0651057 0.098979 -0.992957 -0.151032 -0.19394 -0.969318 -0.0677275 -0.0057678 -0.997687 
-0.316487 -0.127198 -0.94003 -0.14329 0.0300215 -0.989225 -0.316201 -0.0418878 -0.947767 
0.627886 -0.424784 -0.652164 0.856843 -0.25384 -0.448759 0.750699 0.114314 -0.650679 
0.640613 -0.363794 -0.676217 0.927472 -0.0513788 -0.370345 0.845843 0.46062 -0.269032 
0.900698 0.389792 -0.191846 -0.646524 -0.334765 -0.685521 0.245398 0.39602 -0.884843 
0.488312 0.562681 -0.66704 0.612795 0.694598 -0.37685 0.403685 0.437096 -0.803732 
-0.432601 -0.156191 -0.887953 0.0465617 0.121374 -0.991514 0.355586 0.376584 -0.85542 
0.141006 0.239653 -0.960564 -0.284674 0.180558 -0.941467 0.938959 -0.116345 -0.323759 
0.97796 -0.0992474 -0.183694 0.976514 0.208542 -0.0541413 -0.676174 -0.405836 -0.614887 
0.596048 0.553213 -0.581964 0.409413 0.434686 -0.802141 0.604228 0.517976 -0.605483 
-0.746337 0.16691 -0.644299 -0.311788 0.240761 -0.919142 -0.45137 0.296486 -0.841642 
-0.420578 0.380317 -0.823695 0.000814975 0.341708 -0.939806 0.0831474 -0.734725 -0.67325 
0.026817 -0.587518 -0.808767 0.243781 -0.645525 -0.723787 -0.295143 -0.524005 -0.798942 
0.448562 -0.613745 -0.649699 -0.393485 -0.56384 -0.726123 0.928765 -0.163125 -0.332845 
-0.626926 -0.554091 -0.547674 0.936653 0.341965 -0.075772 -0.67814 -0.479142 -0.55727 
0.771408 0.636317 -0.00555071 0.659142 0.541867 -0.521452 0.787431 0.536583 -0.303367 
0.621174 0.531174 -0.576192 -0.775035 -0.109175 -0.622416 0.71839 0.474083 -0.509079 
0.268174 0.444299 -0.854799 -0.100827 -0.616344 -0.780995 -0.378136 -0.626754 -0.681317 