# vtk DataFile Version 4.2
vtk output
ASCII
DATASET POLYDATA
POINTS 546 float
349.589 96.0918 206.725 349.433 95.934 206.851 349.291 96.2219 206.867 
349.812 96.1072 206.681 350.035 96.0077 206.743 350.006 96.2376 206.709 
349.531 95.6114 207.042 350.119 95.6327 206.962 350.675 95.6129 207.019 
348.877 96.2369 207.095 350.488 96.1745 206.852 349.018 96.508 207.039 
350.003 96.581 206.811 351.361 96.6178 207.112 349.046 96.9404 207.186 
350.852 97.1875 207.106 351.259 97.0054 207.161 350.535 97.5064 207.238 
350.534 94.006 207.971 352.282 94.2638 207.943 348.614 96.0657 207.301 
348.08 96.7593 207.717 352.26 92.4244 209.262 350.136 93.3033 208.874 
351.953 93.3502 208.439 349.31 93.8057 208.688 353.093 94.6994 208.175 
347.647 95.6678 208.256 346.924 96.4942 208.796 353.164 96.9471 208.235 
347.034 97.0845 208.802 349.054 98.5009 208.208 353.007 97.9781 208.701 
351.637 98.8195 208.306 350.022 99.5791 209.261 350.538 99.3416 208.708 
351.921 98.8892 208.561 350.894 99.4065 208.786 351.232 99.3337 208.799 
351.636 91.9529 209.829 351.257 92.0171 209.918 353.39 92.6157 209.372 
353.599 92.9718 209.219 347.4 94.919 209.315 353.985 94.7499 208.885 
354.333 95.8865 209.268 349.419 99.942 210.123 350.105 99.8045 209.794 
354.559 93.2627 209.734 345.335 96.9404 210.878 345.714 97.8279 210.565 
353.881 97.618 210.175 347.55 99.3967 210.358 350.964 99.6386 210.042 
349.429 100.004 210.444 354.942 90.1314 212.004 355.842 90.5873 211.711 
355.944 91.037 211.444 346.128 95.005 211.195 344.879 97.2056 211.818 
345.921 98.6161 211.044 351.067 99.5265 211.355 349.371 99.997 210.962 
355.551 89.5349 212.915 344.664 96.7561 212.677 344.944 97.9265 212.436 
345.3 98.3473 212.043 347.274 100.077 212.201 366.557 85.6043 214.063 
366.419 85.6411 214.082 365.812 86.2789 213.942 365.746 86.1653 214.025 
365.679 86.406 213.989 366.59 85.7814 214.068 365.994 86.1879 213.987 
358.623 88.4568 213.907 359.609 88.3188 214.024 365.928 86.4285 213.951 
357.265 88.7195 213.856 357.983 90.3429 212.757 359.245 90.154 213.323 
349.573 91.9316 212.771 359.145 91.6941 213.304 344.76 96.1172 213.25 
344.594 97.034 213.104 346.102 99.4111 213.314 350.043 99.7298 212.749 
347.987 100.184 213.13 368.069 84.7341 214.797 364.946 85.3012 215.051 
366.984 85.2137 214.471 369.313 84.9175 214.657 369.788 84.7313 214.829 
363.724 86.1746 214.864 365.381 85.7775 214.426 366.086 85.7479 214.221 
367.32 85.8474 214.153 369.308 85.5282 214.445 365.282 86.3036 214.209 
366.515 86.4088 214.018 358.267 88.0234 214.571 362.311 87.3083 214.556 
363.856 87.2893 214.294 365.745 86.9342 214.039 357.768 88.0566 214.908 
359.668 89.0516 213.705 366.981 87.7799 214.153 371.581 87.3842 215.117 
360.142 89.5719 213.765 364.235 88.7232 214.24 365.814 88.5257 214.283 
363.857 89.905 214.483 368.288 88.8999 214.843 370.017 88.7028 215.179 
360.473 90.8281 213.967 365.69 89.8599 214.86 366.074 90.1669 215.204 
367.236 89.7799 215.205 359.7 91.8355 213.767 359.247 93.1505 214.088 
345.292 95.2817 213.909 344.584 96.5212 214.134 345.367 98.5762 214.125 
369.954 84.3607 215.183 365.225 84.8146 215.639 362.931 86.0064 215.483 
363.198 85.7309 215.855 370.357 85.3258 214.706 372.301 85.044 215.614 
360.558 87.2885 215.192 361.404 87.7959 214.521 361.523 88.8171 214.216 
371.898 87.8769 215.505 362.476 90.7174 214.701 364.534 90.3732 214.974 
366.226 90.6883 215.845 361.395 92.4563 215.405 357.855 95.034 215.247 
344.558 96.7898 214.377 344.683 97.1511 214.516 350.978 98.8575 215.117 
346.809 99.5784 214.877 347.664 100.004 214.177 371.518 83.6004 216.319 
371.402 83.408 216.47 370.767 83.5743 216.366 365.387 84.653 216.002 
365.46 84.5896 216.613 361.278 86.6628 215.82 373.161 86.0054 215.871 
358.994 87.3765 215.993 354.875 89.0786 215.784 346.246 94.3976 215.949 
344.899 96.0793 215.368 344.616 96.786 214.715 345.62 98.2556 215.812 
350.202 98.9832 215.959 372.83 83.0929 217.492 366.665 84.1152 216.853 
367.415 83.8779 217.106 363.547 85.3812 217.041 374.792 84.6904 216.964 
375.454 85.6976 217.093 375.649 86.0629 217.186 375.612 86.5061 217.229 
355.439 88.86 217.044 376.479 87.0085 218.179 345.197 95.8742 216.281 
345.012 96.1413 215.91 349.642 99.1093 216.22 346.813 98.7487 216.664 
348.751 99.3504 216.113 347.546 99.3412 216.142 375.846 82.6943 218.497 
375.67 82.7547 218.407 376.01 82.6912 218.639 375.488 83.0634 218.106 
375.315 82.7131 218.507 377.111 85.3803 218.285 377.021 86.1009 218.24 
347.49 93.752 218.323 361.39 93.7814 218.486 346.411 94.721 217.668 
348.822 98.864 217.405 347.563 98.7543 217.343 347.86 99.1155 216.765 
375.826 82.6508 218.619 376.854 82.4809 219.336 376.277 82.5799 219.134 
376.706 82.9494 218.939 377.19 82.5792 219.602 378.184 84.7733 219.49 
377.72 86.5169 219.164 374.573 88.9248 218.827 349.338 92.4838 219.478 
346.123 95.4795 218.045 345.691 96.0174 217.431 346.405 97.2226 218.201 
353.046 97.4058 218.796 346.862 97.4605 218.604 350.896 98.1295 218.611 
347.627 98.3821 218.092 348.715 98.5953 218.074 377.493 82.578 219.836 
377.535 82.5265 219.971 377.37 82.504 219.906 377.635 82.6198 219.981 
376.984 82.4655 219.973 379.021 85.7314 220.643 378.516 86.5038 220.269 
348.259 93.4909 219.967 347.79 97.2633 219.905 348.488 98.3184 218.66 
378.12 82.9476 220.472 379.335 85.1593 221.178 379.516 85.4289 221.599 
379.537 85.9335 221.836 378.774 86.7309 220.887 376.02 88.9552 220.94 
378.798 87.0251 221.396 347.994 94.2343 220.919 358.493 95.1619 221.487 
348.791 97.2503 221.18 349.142 97.5614 220.776 377.537 82.5496 221.518 
379.497 84.6251 221.733 378.892 87.2921 222.159 349.015 93.284 221.681 
347.882 95.7497 221.421 348.171 96.6075 221.346 348.86 96.9638 221.835 
349.427 97.016 222.5 377.313 82.561 222.52 379.926 86.3961 223.333 
348.261 95.0619 222.344 348.127 95.4337 222.037 348.702 95.9012 223.043 
348.903 96.3958 222.901 349.29 96.625 223.223 379.277 83.5631 223.422 
380.273 85.4687 223.906 350.696 97.1642 223.515 378.233 82.8964 223.46 
380.359 85.1556 224.999 367.287 85.4425 224.33 349.439 93.9403 224.99 
349.557 96.0717 225.116 350.818 96.8696 225.16 379.859 84.0897 225.621 
350.375 92.9461 226.393 350.253 96.4205 226.649 352.696 96.9286 225.632 
351.38 96.8804 226.142 352.046 96.9466 225.935 380.237 84.7214 226.713 
380.595 86.0174 227.2 380.511 86.7187 226.932 380.611 86.6367 227.298 
352.19 91.7047 226.622 349.663 94.054 227.663 349.48 94.681 226.912 
349.476 95.2389 226.801 349.628 95.6407 227.114 355.398 96.2446 226.43 
350.659 96.6251 227.075 351.249 96.7893 227.249 379.403 83.7431 227.016 
379.177 88.001 227.628 354.331 96.5373 228.104 378.682 83.3143 228.565 
379.951 84.3367 228.531 349.702 95.9657 229.299 350.861 96.7539 229.446 
379.531 83.8833 230.287 379.987 84.5482 230.493 349.371 93.8004 230.815 
349.152 95.3038 230.453 350.009 96.6531 230.888 380.253 85.1042 230.289 
367.016 85.5209 230.668 380.171 86.5927 230.144 349.3 93.5186 231.741 
348.895 94.623 231.212 349.268 96.0959 231.117 350.31 96.9255 231.339 
350.376 97.0646 231.858 379.751 84.6951 232.018 379.92 85.2068 231.838 
380.217 85.6864 230.891 380.174 86.0381 230.97 348.738 96.0102 232.292 
354.145 96.6698 232.16 378.242 82.9573 233.068 379.201 84.3509 233.377 
379.735 85.873 232.28 380.006 86.264 231.298 379.161 87.1225 232.131 
348.206 95.3083 233.132 348.39 95.8891 232.97 349.374 97.1137 233.424 
376.776 82.4806 233.257 379.408 85.3575 233.269 379.274 86.654 232.721 
377.154 88.2537 233.831 377.73 87.9967 233.437 373.872 89.7416 234.181 
359.82 94.5854 233.833 347.809 95.4861 234.073 347.733 96.1553 234.494 
348.482 96.9539 234.196 351.454 97.5062 234.549 377.604 82.6384 234.837 
376.802 82.4718 234.954 370.58 83.3061 235.15 363.009 86.0058 235.152 
379.108 86.04 233.72 378.676 87.0031 233.635 378.67 86.6793 234.039 
376.952 88.0334 234.706 349.934 92.214 234.809 364.833 92.7077 234.968 
347.164 96.1128 235.454 347.905 97.1516 235.308 349.442 97.8732 235.756 
376.95 82.4762 235.295 376.876 82.491 235.459 377.464 82.5231 234.886 
377.019 82.5607 235.416 375.158 82.4271 234.871 376.093 82.6084 235.79 
377.271 82.5829 235.109 373.918 82.5801 235.184 377.621 83.5473 235.6 
378.268 83.9815 235.037 378.31 85.024 235.242 374.982 88.6741 236.024 
361.143 93.8366 236.113 346.803 95.1071 236.272 346.591 94.9026 236.966 
346.47 95.8213 236.565 347.071 96.711 235.929 347.035 97.4601 236.575 
347.35 97.885 236.77 347.919 98.1765 236.801 375.775 82.636 236.301 
375.72 82.6161 236.216 375.237 82.6799 236.265 376.233 83.0876 236.299 
377.092 84.1368 236.271 376.597 84.3988 236.741 376.995 85.2217 236.627 
377.065 85.5959 236.56 377.315 85.8704 236.26 377.622 86.7132 235.439 
360.394 94.1027 236.437 345.984 95.563 237.64 356.963 95.6757 236.906 
346.35 96.9839 237.093 346.989 98.3892 237.661 375.2 83.0018 236.774 
375.082 83.6535 237.34 375.335 84.8405 237.665 375.375 85.9115 237.797 
375.895 86.4905 237.377 374.346 88.1256 237.503 370.68 90.0606 237.49 
345.517 96.2111 238.315 347.013 99.241 239.27 371.373 83.4868 238.522 
367.826 83.8729 238.568 373.891 83.4533 237.631 366.498 84.2203 238.343 
366.262 84.3698 239.005 363.044 85.6134 238.645 362.562 85.8131 238.239 
374.744 86.6256 238.111 373.084 88.3989 238.112 352.159 90.3907 239.103 
362.06 92.7187 238.36 347.292 93.5042 239.025 345.789 94.9251 239.672 
345.134 95.8864 239.764 356.155 96.057 238.639 356.785 95.6935 238.832 
345.479 97.8523 239.122 346.16 98.9345 239.694 368.038 84.1068 239.475 
365.869 84.7108 239.609 371.462 84.6445 239.478 360.465 87.3155 239.731 
373.286 87.6021 238.596 374.057 87.2263 238.328 361.615 91.3114 240.267 
361.401 91.7319 240.122 362.749 90.9548 240.048 361.585 92.1637 239.643 
361.671 92.4335 239.202 359.868 93.5256 239.306 357.443 95.2394 239.423 
357.886 94.8305 239.915 359.108 93.9982 239.515 344.851 96.3986 240.205 
344.628 96.7558 240.871 344.611 97.1567 240.796 344.95 97.8105 240.233 
351.901 98.2658 239.528 345.047 98.1346 240.528 346.11 99.3431 240.932 
367.955 84.4127 239.941 368.887 84.5418 240.125 365.163 84.9543 239.649 
[...]
POINT_DATA 546
COLOR_SCALARS scalars 3
1 0.564706 1 1 0.564706 1 1 0.564706 1 
1 0.564706 1 1 0.564706 1 
1 0.564706 1 1 0.564706 1 
1 0.564706 1 1 0.564706 1 
1 0.564706 1 1 0.564706 1 
1 0.564706 1 1 0.564706 1 
1 0.564706 1 1 0.564706 1 
1 0.564706 1 1 0.564706 1 
1 0.564706 1 1 0.564706 1 
1 0.564706 1 1 0.564706 1 
1 0.564706 1 1 0.564706 1 
1 0.564706 1 1 0.564706 1 
1 0.564706 1 1 0.564706 1 
1 0.564706 1 1 0.564706 1 
1 0.564706 1 1 0.564706 1 
1 0.564706 1 1 0.564706 1 
1 0.564706 1 1 0.564706 1 
1 0.564706 1 1 0.564706 1 
1 0.564706 1 1 0.564706 1 
1 0.564706 1 1 0.564706 1 
1 0.564706 1 1 0.564706 1 
1 0.564706 1 1 0.564706 1 
1 0.564706 1 1 0.564706 1 
1 0.564706 1 1 0.564706 1 
1 0.564706 1 1 0.564706 1 
1 0.564706 1 1 0.564706 1 
1 0.564706 1 1 0.564706 1 
1 0.564706 1 1 0.564706 1 
1 0.564706 1 1 0.564706 1 
1 0.564706 1 1 0.564706 1 
1 0.564706 1 1 0.564706 1 
1 0.564706 1 1 0.564706 1 
1 0.564706 1 1 0.564706 1 
1 0.564706 1 1 0.564706 1 
1 0.564706 1 1 0.564706 1 
1 0.564706 1 1 0.564706 1 
1 0.564706 1 1 0.564706 1 
1 0.564706 1 1 0.564706 1 
1 0.564706 1 1 0.564706 1 
1 0.564706 1 1 0.564706 1 
1 0.564706 1 1 0.564706 1 
1 0.564706 1 1 0.564706 1 
1 0.564706 1 1 0.564706 1 
1 0.564706 1 1 0.564706 1 
1 0.564706 1 1 0.564706 1 
1 0.564706 1 1 0.564706 1 
1 0.564706 1 1 0.564706 1 
1 0.564706 1 1 0.564706 1 
1 0.564706 1 1 0.564706 1 
1 0.564706 1 1 0.564706 1 
1 0.564706 1 1 0.564706 1 
1 0.564706 1 1 0.564706 1 
1 0.564706 1 1 0.564706 1 
1 0.564706 1 1 0.564706 1 
1 0.564706 1 1 0.564706 1 
1 0.564706 1 1 0.564706 1 
1 0.564706 1 1 0.564706 1 
1 0.564706 1 1 0.564706 1 
1 0.564706 1 1 0.564706 1 
1 0.564706 1 1 0.564706 1 
1 0.564706 1 1 0.564706 1 
1 0.564706 1 1 0.564706 1 
1 0.564706 1 1 0.564706 1 
1 0.564706 1 1 0.564706 1 
1 0.564706 1 1 0.564706 1 
1 0.564706 1 1 0.564706 1 
1 0.564706 1 1 0.564706 1 
1 0.564706 1 1 0.564706 1 
1 0.564706 1 1 0.564706 1 
1 0.564706 1 1 0.564706 1 
1 0.564706 1 1 0.564706 1 
1 0.564706 1 1 0.564706 1 
1 0.564706 1 1 0.564706 1 
1 0.564706 1 1 0.564706 1 
1 0.564706 1 1 0.564706 1 
1 0.564706 1 1 0.564706 1 
1 0.564706 1 1 0.564706 1 
1 0.564706 1 1 0.564706 1 
1 0.564706 1 1 0.564706 1 
1 0.564706 1 1 0.564706 1 
1 0.564706 1 1 0.564706 1 
1 0.564706 1 1 0.564706 1 
1 0.564706 1 1 0.564706 1 
1 0.564706 1 1 0.564706 1 
1 0.564706 1 1 0.564706 1 
1 0.564706 1 1 0.564706 1 
1 0.564706 1 1 0.564706 1 
1 0.564706 1 1 0.564706 1 
1 0.564706 1 1 0.564706 1 
1 0.564706 1 1 0.564706 1 
1 0.564706 1 1 0.564706 1 
1 0.564706 1 1 0.564706 1 
1 0.564706 1 1 0.564706 1 
1 0.564706 1 1 0.564706 1 
1 0.564706 1 1 0.564706 1 
1 0.564706 1 1 0.564706 1 
1 0.564706 1 1 0.564706 1 
1 0.564706 1 1 0.564706 1 
1 0.564706 1 1 0.564706 1 
1 0.564706 1 1 0.564706 1 
1 0.564706 1 1 0.564706 1 
1 0.564706 1 1 0.564706 1 
1 0.564706 1 1 0.564706 1 
1 0.564706 1 1 0.564706 1 
1 0.564706 1 1 0.564706 1 
1 0.564706 1 1 0.564706 1 
1 0.564706 1 1 0.564706 1 
1 0.564706 1 1 0.564706 1 
1 0.564706 1 1 0.564706 1 
1 0.564706 1 1 0.564706 1 
1 0.564706 1 1 0.564706 1 
1 0.564706 1 1 0.564706 1 
1 0.564706 1 1 0.564706 1 
1 0.564706 1 1 0.564706 1 
1 0.564706 1 1 0.564706 1 
1 0.564706 1 1 0.564706 1 
1 0.564706 1 1 0.564706 1 
1 0.564706 1 1 0.564706 1 
1 0.564706 1 1 0.564706 1 
1 0.564706 1 1 0.564706 1 
1 0.564706 1 1 0.564706 1 
1 0.564706 1 1 0.564706 1 
1 0.564706 1 1 0.564706 1 
1 0.564706 1 1 0.564706 1 
1 0.564706 1 1 0.564706 1 
1 0.564706 1 1 0.564706 1 
1 0.564706 1 1 0.564706 1 
1 0.564706 1 1 0.564706 1 
1 0.564706 1 1 0.564706 1 
1 0.564706 1 1 0.564706 1 
1 0.564706 1 1 0.564706 1 
1 0.564706 1 1 0.564706 1 
1 0.564706 1 1 0.564706 1 
1 0.564706 1 1 0.564706 1 
1 0.564706 1 1 0.564706 1 
1 0.564706 1 1 0.564706 1 
1 0.564706 1 1 0.564706 1 
1 0.564706 1 1 0.564706 1 
1 0.564706 1 1 0.564706 1 
1 0.564706 1 1 0.564706 1 
1 0.564706 1 1 0.564706 1 
1 0.564706 1 1 0.564706 1 
1 0.564706 1 1 0.564706 1 
1 0.564706 1 1 0.564706 1 
1 0.564706 1 1 0.564706 1 
1 0.564706 1 1 0.564706 1 
1 0.564706 1 1 0.564706 1 
1 0.564706 1 1 0.564706 1 
1 0.564706 1 1 0.564706 1 
1 0.564706 1 1 0.564706 1 
1 0.564706 1 1 0.564706 1 
1 0.564706 1 1 0.564706 1 
1 0.564706 1 1 0.564706 1 
1 0.564706 1 1 0.564706 1 
1 0.564706 1 1 0.564706 1 
1 0.564706 1 1 0.564706 1 
1 0.564706 1 1 0.564706 1 
1 0.564706 1 1 0.564706 1 
1 0.564706 1 1 0.564706 1 
1 0.564706 1 1 0.564706 1 
1 0.564706 1 1 0.564706 1 
1 0.564706 1 1 0.564706 1 
1 0.564706 1 1 0.564706 1 
1 0.564706 1 1 0.564706 1 
1 0.564706 1 1 0.564706 1 
1 0.564706 1 1 0.564706 1 
1 0.564706 1 1 0.564706 1 
1 0.564706 1 1 0.564706 1 
1 0.564706 1 1 0.564706 1 
1 0.564706 1 1 0.564706 1 
1 0.564706 1 1 0.564706 1 
1 0.564706 1 1 0.564706 1 
1 0.564706 1 1 0.564706 1 
1 0.564706 1 1 0.564706 1 
1 0.564706 1 1 0.564706 1 
1 0.564706 1 1 0.564706 1 
1 0.564706 1 1 0.564706 1 
1 0.564706 1 1 0.564706 1 
1 0.564706 1 1 0.564706 1 
1 0.564706 1 1 0.564706 1 
1 0.564706 1 1 0.564706 1 
1 0.564706 1 1 0.564706 1 
1 0.564706 1 1 0.564706 1 
1 0.564706 1 1 0.564706 1 
1 0.564706 1 1 0.564706 1 
1 0.564706 1 1 0.564706 1 
1 0.564706 1 1 0.564706 1 
1 0.564706 1 1 0.564706 1 
1 0.564706 1 1 0.564706 1 
1 0.564706 1 1 0.564706 1 
1 0.564706 1 1 0.564706 1 
1 0.564706 1 1 0.564706 1 
1 0.564706 1 1 0.564706 1 
1 0.564706 1 1 0.564706 1 
1 0.564706 1 1 0.564706 1 
1 0.564706 1 1 0.564706 1 
1 0.564706 1 1 0.564706 1 
1 0.564706 1 1 0.564706 1 
1 0.564706 1 1 0.564706 1 
1 0.564706 1 1 0.564706 1 
1 0.564706 1 1 0.564706 1 
1 0.564706 1 1 0.564706 1 
1 0.564706 1 1 0.564706 1 
1 0.564706 1 1 0.564706 1 
1 0.564706 1 1 0.564706 1 
1 0.564706 1 1 0.564706 1 
1 0.564706 1 1 0.564706 1 
1 0.564706 1 1 0.564706 1 
1 0.564706 1 1 0.564706 1 
1 0.564706 1 1 0.564706 1 
1 0.564706 1 1 0.564706 1 
1 0.564706 1 1 0.564706 1 
1 0.564706 1 1 0.564706 1 
1 0.564706 1 1 0.564706 1 
1 0.564706 1 1 0.564706 1 
1 0.564706 1 1 0.564706 1 
1 0.564706 1 1 0.564706 1 
1 0.564706 1 1 0.564706 1 
1 0.564706 1 1 0.564706 1 
1 0.564706 1 1 0.564706 1 
1 0.564706 1 1 0.564706 1 
1 0.564706 1 1 0.564706 1 
1 0.564706 1 1 0.564706 1 
1 0.564706 1 1 0.564706 1 
1 0.564706 1 1 0.564706 1 
1 0.564706 1 1 0.564706 1 
1 0.564706 1 1 0.564706 1 
1 0.564706 1 1 0.564706 1 
1 0.564706 1 1 0.564706 1 
1 0.564706 1 1 0.564706 1 
1 0.564706 1 1 0.564706 1 
1 0.564706 1 1 0.564706 1 
1 0.564706 1 1 0.564706 1 
1 0.564706 1 1 0.564706 1 
1 0.564706 1 1 0.564706 1 
1 0.564706 1 1 0.564706 1 
1 0.564706 1 1 0.564706 1 
1 0.564706 1 1 0.564706 1 
1 0.564706 1 1 0.564706 1 
1 0.564706 1 1 0.564706 1 
1 0.564706 1 1 0.564706 1 
1 0.564706 1 1 0.564706 1 
1 0.564706 1 1 0.564706 1 
1 0.564706 1 1 0.564706 1 
1 0.564706 1 1 0.564706 1 
1 0.564706 1 1 0.564706 1 
1 0.564706 1 1 0.564706 1 
1 0.564706 1 1 0.564706 1 
1 0.564706 1 1 0.564706 1 
1 0.564706 1 1 0.564706 1 
1 0.564706 1 1 0.564706 1 
1 0.564706 1 1 0.564706 1 
1 0.564706 1 1 0.564706 1 
1 0.564706 1 1 0.564706 1 
1 0.564706 1 1 0.564706 1 
1 0.564706 1 1 0.564706 1 
1 0.564706 1 1 0.564706 1 
1 0.564706 1 1 0.564706 1 
1 0.564706 1 1 0.564706 1 
1 0.564706 1 1 0.564706 1 
1 0.564706 1 1 0.564706 1 
1 0.564706 1 1 0.564706 1 
1 0.564706 1 1 0.564706 1 
1 0.564706 1 1 0.564706 1 
1 0.564706 1 1 0.564706 1 
1 0.564706 1 1 0.564706 1 
1 0.564706 1 1 0.564706 1 
1 0.564706 1 1 0.564706 1 
1 0.564706 1 1 0.564706 1 
1 0.564706 1 1 0.564706 1 
1 0.564706 1 1 0.564706 1 
1 0.564706 1 1 0.564706 1 
1 0.564706 1 
NORMALS Normals float
-0.295813 -0.00655349 -0.955223 -0.372409 -0.41591 -0.829657 -0.377371 0.123616 -0.917774 
-0.0574749 -0.252718 -0.965831 0.220843 -0.291019 -0.930879 0.192166 0.0871313 -0.977487 
-0.297692 -0.624758 -0.721843 0.0783503 -0.576411 -0.813395 0.188661 -0.426247 -0.884715 
-0.552392 -0.170389 -0.815985 0.273029 -0.0869577 -0.958068 -0.544917 0.226831 -0.807226 
-0.011159 0.333327 -0.942745 0.417272 0.0988056 -0.903395 -0.395888 0.35869 -0.845348 
0.214321 0.427206 -0.878386 0.365753 0.367325 -0.855159 0.080656 0.557593 -0.826187 
-0.171536 -0.589201 -0.789568 0.250806 -0.449942 -0.857116 -0.611524 -0.0676589 -0.788327 
-0.609373 0.267779 -0.746297 0.0285352 -0.639025 -0.768656 -0.38394 -0.790079 -0.477876 
0.235823 -0.576312 -0.782465 -0.455986 -0.681743 -0.572104 0.495213 -0.242316 -0.834294 
-0.636128 -0.2966 -0.712299 -0.782716 -0.197099 -0.590345 0.596804 0.241151 -0.765291 
-0.636187 0.272714 -0.72173 -0.262427 0.598348 -0.757042 0.674581 0.505937 -0.537557 
0.313216 0.556414 -0.769609 -0.0538266 0.893247 -0.446333 -0.0840735 0.715028 -0.694022 
0.555995 0.784702 -0.274066 0.0986074 0.878829 -0.466837 0.27226 0.806514 -0.524796 
-0.178753 -0.765308 -0.618345 -0.327311 -0.798949 -0.504527 0.306143 -0.555162 -0.773351 
0.350427 -0.472859 -0.808459 -0.587129 -0.640386 -0.495162 0.685883 -0.0546302 -0.725658 
0.749276 0.171596 -0.639641 -0.23754 0.925308 -0.295602 0.196663 0.969255 -0.147878 
0.571346 -0.27268 -0.774086 -0.879501 -0.0452263 -0.473743 -0.745649 0.354998 -0.563901 
0.693001 0.710914 -0.119796 -0.458425 0.720866 -0.519807 0.329549 0.93409 -0.13738 
-0.154219 0.983977 -0.0894736 -0.0524214 -0.798062 -0.600291 0.139223 -0.620958 -0.771381 
0.27255 -0.498447 -0.822963 -0.722357 -0.631595 -0.28158 -0.930898 0.0408522 -0.362987 
-0.636702 0.669757 -0.382147 0.431041 0.898555 0.0824756 0.036309 0.999254 -0.0131615 
-0.137135 -0.860422 -0.490783 -0.944229 -0.219928 -0.245078 -0.896118 0.424057 -0.130948 
-0.762602 0.590511 -0.264075 -0.343382 0.929536 -0.134355 -0.0945032 -0.601688 -0.793121 
-0.231282 -0.955957 0.180707 -0.159446 -0.197305 -0.967289 -0.325399 -0.457408 -0.827583 
-0.372666 -0.0141649 -0.927857 -0.0945152 0.0321156 -0.995005 0.075798 -0.34388 -0.935949 
-0.230242 -0.784007 -0.576473 0.122253 -0.560116 -0.819344 0.0191836 0.0623962 -0.997867 
0.179324 0.819769 -0.543895 0.419918 -0.266716 -0.867485 0.361678 -0.0963989 -0.927306 
-0.473219 -0.850442 -0.229808 0.578271 0.217817 -0.78623 -0.900189 -0.361371 -0.243044 
-0.98511 0.16329 -0.0538077 -0.629465 0.776987 0.0080371 0.365628 0.913433 0.178761 
-0.0578836 0.995678 0.0726225 -0.0829464 -0.716082 -0.69307 -0.360135 -0.67248 -0.646586 
-0.127867 -0.760544 -0.636572 0.0565388 -0.445685 -0.893403 0.163323 -0.523248 -0.836383 
-0.303565 -0.619757 -0.723706 -0.288773 -0.610729 -0.737306 -0.259708 -0.589268 -0.765059 
0.174728 -0.0835019 -0.98107 0.171076 -0.0962693 -0.980543 -0.389248 -0.348461 -0.852679 
0.100709 -0.0199722 -0.994715 -0.216857 -0.813579 -0.539502 -0.265759 -0.591208 -0.761476 
-0.153121 -0.156796 -0.975689 -0.126877 0.106398 -0.986196 -0.309569 -0.897051 -0.315384 
0.233969 -0.334157 -0.913016 0.144216 0.247536 -0.958085 0.345064 0.166126 -0.92376 
0.338357 -0.145453 -0.929709 0.0325109 0.192505 -0.980757 0.113331 0.263187 -0.958065 
0.0636145 0.26498 -0.962153 0.304047 0.51372 -0.802276 0.303179 0.650861 -0.696034 
0.43512 0.214446 -0.874462 0.173919 0.586016 -0.791415 0.193206 0.612687 -0.766346 
0.26913 0.6152 -0.741011 0.557426 0.247418 -0.792502 0.454178 0.587246 -0.669973 
-0.806501 -0.590621 0.0268764 -0.952983 -0.295993 0.0648937 -0.799767 0.592546 0.0962364 
0.13709 -0.71001 -0.690718 -0.306325 -0.866693 -0.393711 -0.442826 -0.791175 -0.421838 
-0.455082 -0.823106 -0.339703 0.350123 -0.317129 -0.881387 0.429369 0.00470977 -0.903117 
-0.197446 -0.819646 -0.537769 -0.0519152 -0.440108 -0.896443 0.0867585 -0.0370432 -0.99554 
0.476287 0.446306 -0.757603 0.240078 0.330767 -0.912664 0.241595 0.572818 -0.78327 
0.274007 0.78914 -0.549708 0.464247 0.578206 -0.670934 0.495336 0.809984 -0.313955 
-0.998071 0.0614574 0.00874636 -0.903437 0.33403 0.268747 0.401499 0.896499 0.187318 
-0.39622 0.891893 0.218026 0.0459961 0.974095 0.22141 0.161121 -0.652613 -0.740363 
0.0030149 -0.867176 -0.497992 -0.158674 -0.916586 -0.367006 -0.434337 -0.891007 -0.13213 
-0.465008 -0.8816 0.08093 -0.342503 -0.887542 -0.308156 0.443587 -0.0985652 -0.890795 
-0.311046 -0.941024 -0.133129 -0.510093 -0.859646 -0.0285325 -0.733232 -0.669886 0.116717 
-0.92192 -0.255464 0.291208 -0.948893 -0.0911557 0.302147 -0.722702 0.591759 0.357104 
0.419802 0.854238 0.306666 -0.0668396 -0.96835 -0.24048 -0.265278 -0.954018 -0.139558 
-0.231677 -0.971822 0.0434508 -0.439105 -0.898152 -0.0225855 0.306218 -0.198926 -0.930945 
0.389866 -0.082683 -0.917152 0.555687 0.0890469 -0.826609 0.417347 0.259639 -0.870867 
-0.399238 -0.912041 0.0937587 0.570203 0.453958 -0.684683 -0.857414 -0.437273 0.271354 
-0.946186 -0.0693807 0.316099 0.243508 0.908059 0.340781 -0.462924 0.779204 0.422543 
0.118645 0.958831 0.258006 -0.277918 0.897343 0.342836 0.256406 -0.751953 -0.607308 
-0.0227573 -0.820769 -0.570807 0.499143 -0.557132 -0.663672 0.326924 -0.543188 -0.773348 
-0.0693752 -0.947558 -0.311963 0.550771 -0.130839 -0.824338 0.596823 0.117293 -0.793753 
-0.669523 -0.709504 0.21987 0.403057 0.864785 -0.299487 -0.794345 -0.540613 0.277043 
0.00466503 0.918701 0.394927 -0.339329 0.819768 0.461342 -0.0897648 0.904332 0.417284 
0.0420066 -0.954167 -0.296313 0.392256 -0.756769 -0.522912 0.0460727 -0.969232 -0.2418 
0.463586 -0.480009 -0.744768 0.52653 -0.606318 -0.59594 0.723502 -0.147673 -0.674343 
0.739009 0.315626 -0.595185 0.315272 0.860764 -0.399612 -0.612543 -0.78457 0.0961263 
-0.850798 -0.3628 0.380157 -0.887014 -0.173396 0.427949 -0.77207 0.395444 0.497525 
0.313016 0.949701 -0.00944562 -0.556634 0.66138 0.502727 0.0996609 0.985479 0.137474 
-0.359203 0.826863 0.432748 0.230048 0.922303 0.310539 0.549163 -0.575293 -0.606183 
0.425451 -0.888544 -0.171702 0.189855 -0.946808 -0.259826 0.741848 -0.326653 -0.585628 
0.0272872 -0.999302 -0.0255062 0.858691 0.0644674 -0.508423 0.581396 0.616642 -0.530784 
-0.707894 -0.69945 0.0982607 -0.622187 0.615438 0.483859 -0.218888 0.864273 0.452902 
0.780444 -0.557744 -0.282539 0.884919 -0.0136443 -0.465545 0.931253 0.0782132 -0.355879 
0.917328 0.267333 -0.295031 0.817518 0.386665 -0.426796 0.411716 0.880776 -0.23393 
0.47914 0.784913 -0.392857 -0.850373 -0.383952 0.359787 0.46225 0.883301 0.0781267 
-0.577487 0.782595 0.232494 -0.345462 0.881151 0.322846 0.400877 -0.914122 0.0606551 
0.942705 -0.182537 -0.279261 0.5662 0.770807 -0.292017 -0.7373 -0.625662 0.254825 
-0.88832 0.167185 0.427711 -0.732245 0.55733 0.391408 -0.642593 0.651858 0.402686 
-0.392528 0.871334 0.294445 0.212875 -0.976467 0.0345798 0.902067 0.375324 -0.213088 
-0.928294 -0.182174 0.324166 -0.891399 0.162768 0.422983 -0.843616 0.414789 0.340972 
-0.710289 0.593243 0.378882 -0.650371 0.674718 0.348959 0.744633 -0.656133 -0.122524 
0.978116 -0.097316 -0.183896 -0.0480743 0.99174 0.118914 0.470087 -0.882614 0.00322846 
0.98269 -0.159515 -0.0942098 -0.355278 -0.934756 0.00296797 -0.707753 -0.699936 0.0957899 
-0.777578 0.607113 0.163664 -0.333249 0.925465 0.180164 0.75408 -0.656774 -0.00329944 
-0.749537 -0.659961 0.0514375 -0.40635 0.913669 0.00939565 0.0154968 0.997675 -0.0663645 
-0.220828 0.972829 -0.069565 0.0146536 0.999373 -0.0322368 0.854342 -0.517759 0.0449997 
0.992796 -0.119759 -0.00380359 0.876274 0.470961 -0.101682 0.940341 0.340078 -0.0102822 
-0.575468 -0.810128 -0.111931 -0.802204 -0.597004 -0.00742738 -0.993823 -0.109532 0.0178611 
-0.962635 0.158665 0.219451 -0.983616 0.126316 0.128625 0.368952 0.917349 0.149485 
-0.381245 0.922051 -0.0668874 -0.107796 0.994116 -0.0106684 0.586962 -0.804128 0.0940897 
0.431638 0.901755 0.0229523 0.356774 0.921728 0.152084 0.556195 -0.830907 0.0154961 
0.76233 -0.647051 -0.0133729 -0.749259 0.65272 -0.112103 -0.26306 0.962687 -0.0635028 
0.772166 -0.633013 0.0552682 0.898152 -0.424812 0.113393 -0.821855 -0.525469 -0.220085 
-0.964898 0.131303 -0.227445 -0.527443 0.813129 -0.246222 0.961888 -0.268578 0.0513608 
-0.261439 -0.95704 -0.125395 0.905129 0.403146 0.13496 -0.791684 -0.553656 -0.258267 
-0.947292 -0.133902 -0.291045 -0.858897 0.432733 -0.273931 -0.245925 0.944067 -0.219678 
-0.157078 0.965598 -0.207236 0.917098 -0.293514 0.269778 0.939868 -0.0238898 0.340702 
0.977591 -0.102219 0.184029 0.926082 0.333473 0.176542 -0.768692 0.523194 -0.36794 
0.188115 0.976981 -0.100598 0.521595 -0.853187 -0.00323173 0.871654 -0.303241 0.385051 
0.916797 0.17829 0.357346 0.893623 0.39054 0.221172 0.659024 0.749077 0.0676096 
-0.928552 0.090532 -0.359993 -0.902253 0.298304 -0.311374 -0.355844 0.888654 -0.289255 
0.147387 -0.987419 -0.0572838 0.912308 0.0396491 0.40758 0.837465 0.449894 0.310238 
0.489736 0.864201 0.115396 0.590264 0.764443 0.259258 0.376278 0.902262 0.210566 
0.385949 0.92164 0.0402767 -0.843448 0.214357 -0.492593 -0.755193 0.394316 -0.523639 
-0.688996 0.597161 -0.410711 -0.0130147 0.959513 -0.281364 0.70328 -0.61298 0.360074 
0.0372957 -0.998632 0.0366364 -0.16755 -0.985776 0.0131342 -0.335859 -0.936481 -0.101003 
0.865928 0.197843 0.459377 0.749638 0.550438 0.367506 0.746124 0.420308 0.516372 
0.616118 0.674444 0.406846 -0.564463 -0.811092 -0.153332 0.356434 0.91326 0.197257 
-0.834938 0.199237 -0.513015 -0.557077 0.65262 -0.513568 -0.180643 0.923619 -0.338076 
0.293898 -0.944356 0.147703 0.341111 -0.740916 0.578521 0.324902 -0.937043 0.128019 
0.492602 -0.738826 0.459869 -0.021792 -0.999749 0.00525857 0.108478 -0.966217 0.233787 
0.372293 -0.87922 0.297273 -0.2017 -0.978952 0.0311501 0.638756 -0.341788 0.689327 
0.771713 -0.269272 0.576153 0.815861 0.0304387 0.577447 0.458979 0.785006 0.416057 
0.380627 0.893124 0.239694 -0.846154 -0.363096 -0.390108 -0.784722 -0.51498 -0.344973 
-0.87122 0.0195041 -0.490504 -0.70785 0.426168 -0.56332 -0.685782 0.471529 -0.554404 
-0.527302 0.652056 -0.544772 -0.202883 0.863609 -0.461539 0.217161 -0.846839 0.485494 
-0.0337113 -0.993543 0.108332 -0.0788885 -0.955815 0.283185 0.453436 -0.535419 0.712546 
0.649028 -0.259651 0.715083 0.509185 -0.338047 0.791489 0.630893 -0.106339 0.768548 
0.600339 0.259072 0.75662 0.720025 0.0874673 0.688413 0.596204 0.582734 0.552234 
0.404971 0.914044 0.0228236 -0.874316 -0.32932 -0.356539 0.442481 0.869806 0.218285 
-0.803473 0.345662 -0.484715 -0.592276 0.634083 -0.49714 0.27737 -0.62971 0.725624 
0.417051 -0.371025 0.829704 0.470708 -0.194066 0.860681 0.533574 -0.0427443 0.844673 
0.612989 0.20427 0.763229 0.461209 0.683246 0.566094 0.348848 0.813289 0.46569 
-0.913821 -0.0141728 -0.405871 -0.325348 0.84763 -0.419132 0.0682078 -0.879925 0.470191 
-0.190588 -0.981278 0.0277482 0.164287 -0.728377 0.665189 -0.294943 -0.95448 0.044456 
-0.279193 -0.919187 0.277752 -0.491238 -0.85811 0.149441 -0.3791 -0.921521 0.0841601 
0.517112 0.316014 0.795444 0.426539 0.653417 0.625389 -0.410744 -0.911716 0.00795847 
0.370095 0.81227 0.450829 -0.663153 -0.730875 -0.161399 -0.78188 -0.618829 -0.0755984 
-0.872633 -0.458404 -0.168456 0.585395 0.797119 0.148036 0.34026 0.918697 0.200548 
-0.715973 0.50616 -0.480817 -0.564931 0.747955 -0.348448 -0.169461 -0.904435 0.39151 
-0.147935 -0.847493 0.509775 0.384073 -0.453315 0.804359 -0.272926 -0.832379 0.482345 
0.398542 0.374971 0.836995 0.545626 0.443647 0.710965 0.471559 0.463617 0.750128 
0.367274 0.486011 0.793034 0.261303 0.600696 0.755569 0.459933 0.638978 0.616578 
0.27405 0.817343 0.5068 0.6134 0.49292 0.617065 0.381868 0.832141 0.402142 
0.509162 0.793464 0.333421 0.562294 0.687905 0.458925 -0.914416 -0.377813 -0.145261 
-0.979145 -0.177991 -0.097952 -0.984863 0.116779 -0.128094 -0.816783 0.457333 -0.351727 
0.432546 0.900333 -0.0480125 -0.821636 0.54827 -0.15593 -0.60082 0.77469 -0.197157 
-0.153523 -0.785067 0.600084 0.101055 -0.629062 0.770759 -0.321591 -0.832834 0.450518 
-0.497391 -0.780917 0.37785 -0.433939 -0.700919 0.566047 0.189339 -0.290521 0.937949 
0.382331 -0.290412 0.877202 -0.162557 -0.41504 0.895163 0.153137 -0.450508 0.879541 
0.477997 0.159243 0.863806 -0.290936 -0.893172 0.342928 0.265833 -0.070296 0.961453 
-0.0328154 -0.00686322 0.999438 0.131342 -0.0839333 0.987778 0.231909 0.254196 0.938937 
0.0795863 0.218244 0.972643 0.150399 0.362293 0.91985 0.414399 0.572286 0.707646 
0.318428 0.527219 0.78781 -0.521363 -0.841017 0.14447 0.186846 0.597786 0.779577 
-0.498747 0.866419 -0.023872 -0.061213 0.965965 -0.251326 -0.112312 -0.630552 0.767978 