# vtk DataFile Version 4.2
vtk output
ASCII
DATASET POLYDATA
POINTS 1113 float
396 74.0087 175.017 396 74.0087 175.017 396 74.0088 175.017 
396 74.0088 175.017 396 74.0088 175.017 396 74.0087 175.017 
395.826 75.4725 178.555 395.824 75.5449 178.48 395.873 75.5378 178.486 
395.967 75.5296 178.596 395.87 75.6602 178.535 395.728 75.5669 178.567 
396.141 75.3951 178.835 395.66 76.136 178.707 396.366 75.1232 179.119 
396.403 74.8627 179.338 396.603 74.9414 179.368 395.932 75.0951 179.111 
396.157 76.4272 178.889 396.566 76.2296 179.081 395.86 76.9187 179.008 
397.379 74.0605 180.468 397.283 73.999 180.54 397.292 74.1633 180.378 
397.432 73.9984 180.649 397.42 74.1851 180.443 397.125 76.5111 179.568 
395.442 77.4645 179.216 396.694 77.8487 179.496 396.07 78.6516 179.499 
396.46 79.1214 179.678 397.048 74.1024 180.459 397.228 74.5897 180.153 
393.789 78.3282 179.887 394.269 79.5022 179.87 395.53 84.6598 180.413 
395.418 85.4909 180.526 396.57 84.9688 180.792 395.123 86.7891 180.781 
394.23 87.5554 181.33 395.207 87.297 180.984 395.629 87.3291 181.103 
395.967 87.1209 181.21 394.765 87.7811 181.426 395.191 87.8433 181.299 
395.112 87.6957 181.169 395.409 87.6654 181.208 395.281 87.8133 181.207 
398.582 72.9044 182.534 398.49 72.8188 182.616 397.87 73.8788 181.282 
398.617 73.0577 182.483 391.321 82.2211 180.835 397.458 84.4603 181.217 
396.946 86.0173 181.367 392.37 87.1138 181.746 396.791 86.6198 181.585 
395.789 87.5031 181.373 394.687 87.9464 181.94 395.364 87.8107 181.581 
395.331 87.8351 181.291 395.907 87.5983 181.685 398.202 72.883 182.556 
398.823 72.5584 183.269 397.503 72.9904 182.357 398.332 73.5152 182.067 
398.726 74.5337 181.794 391.62 75.7121 181.556 398.972 79.9442 181.695 
387.934 80.5482 182.138 387.993 82.9657 182.415 397.5 85.5898 181.657 
391.679 87.6652 182.772 396.435 87.3829 182.381 397.198 86.9185 182.604 
399.062 71.7586 184.344 399.385 71.8202 184.461 399.335 72.7307 183.529 
394.619 73.0011 182.923 392.952 73.5912 182.863 399.46 82.5553 182.927 
399.306 83.4607 183.045 397.942 86.1551 182.675 393.305 88.0663 183.582 
394.332 88.0822 182.761 398.736 71.649 184.438 397.074 72.072 183.875 
383.905 75.8688 184.484 382.649 76.2049 184.822 386.354 83.6082 183.903 
387.05 84.8903 184.058 399.752 84.0302 184.375 390.212 87.5514 184.117 
390.343 87.77 184.438 390.133 87.749 184.713 391.009 87.8306 184.323 
390.526 87.8523 184.476 390.351 87.8351 184.555 400.418 70.5568 186.362 
400.102 70.6074 186.225 400.722 70.663 186.471 398.284 71.2177 185.229 
401.198 72.8217 185.618 383.892 74.5527 185.424 379.824 76.2493 186.201 
380.679 76.9639 185.695 387.215 86.1535 185.51 399.459 84.9134 185.296 
397.57 86.4645 185.509 395.238 87.73 184.415 389.507 87.586 185.65 
400.576 70.3286 186.708 400.495 70.0769 187.061 401.32 71.4339 186.527 
383.464 73.7437 186.404 384.923 73.5257 186.188 379.689 75.6264 186.557 
380.004 77.9132 186.311 381.236 80.3126 186.591 385.437 84.6866 185.873 
387.931 86.7358 185.485 388.628 87.2845 185.853 388.418 87.2464 186.38 
401.114 69.7992 187.794 401.101 69.5285 188.146 401.288 69.6046 188.218 
400.611 69.7285 187.734 382.309 73.7123 186.954 378.619 77.1969 187.34 
401.392 82.6073 187.026 400.662 83.883 187.183 385.464 85.4492 187.112 
386.5 86.2287 187.003 381.651 73.1101 188.095 380.508 73.8713 187.668 
402.692 75.6922 188.077 381.368 82.0195 188.104 387.887 86.9839 187.863 
377.01 77.19 189.371 365.52 81.4481 190.461 366.139 81.2375 190.593 
365.484 81.7203 190.396 385.042 85.7682 189.002 387.716 86.792 188.762 
402.658 70.7005 189.739 375.962 75.3325 190.282 375.65 74.9103 190.807 
369.679 78.731 191.592 369.88 78.6371 191.715 366.831 80.1848 190.99 
403.256 79.4233 190.247 364.978 81.634 190.658 364.951 82.0417 190.56 
364.717 81.9056 190.703 366.053 82.2881 190.443 380.937 82.6898 189.861 
402.45 81.9367 190.331 364.883 83.9258 190.798 401.744 82.9503 189.745 
366.253 84.0735 190.761 401.021 83.5103 190.18 365.552 84.5658 190.854 
385.93 86.1559 190.223 385.17 86.0231 190.127 402.702 70.1337 190.5 
375.358 76.339 190.649 371.531 77.2102 192.166 371.787 77.3914 192.157 
369.812 78.2209 191.886 370.206 79.0506 191.854 376.787 78.8675 191.029 
370.202 80.0625 192.016 363.655 82.1545 191.374 363.304 83.2017 191.442 
368.669 83.2381 191.782 400.563 83.3838 191.515 366.664 84.9195 191.166 
365.265 85.2478 191.148 365.904 85.4403 191.199 383.423 85.239 191.084 
383.877 85.5089 191.407 364.247 86.3025 191.681 366.309 86.2997 191.612 
366.726 86.1954 191.708 384.376 85.6777 191.488 364.587 87.3269 192.057 
402.57 69.0474 192.011 373.707 75.8406 191.846 371.598 76.8172 192.31 
373.298 76.6936 191.891 370.567 77.5717 192.215 372.455 77.0099 192.103 
374.673 77.8512 191.8 370.95 78.4395 192.125 371.764 78.0871 192.229 
370.763 79.9415 192.316 362.876 81.8677 192.134 369.563 81.6541 192.001 
402.81 81.4055 191.9 369.69 82.6508 192.58 362.273 84.4497 192.183 
363.022 85.5522 192.004 383.353 85.3056 192.245 367.567 86.8445 192.636 
364.719 88.5838 192.914 380.329 71.0054 193.115 374.949 73.4883 192.801 
373.136 77.8725 192.206 372.465 78.4028 192.417 374.137 78.7873 192.73 
375.302 78.5388 192.085 372.619 79.7021 193.253 361.084 82.3736 193.351 
369.63 83.1337 192.832 361.09 86.0654 193.444 384.19 85.5254 192.39 
367.381 87.6559 192.944 366.698 88.3449 192.952 364.439 89.0172 193.358 
402.823 68.1416 193.934 403.317 68.0514 194.543 403.028 67.5822 194.913 
404.634 74.7409 194.097 375.019 78.8221 192.536 376.016 79.7733 193.11 
360.229 84.043 193.661 369.653 83.853 193.625 361.156 87.5335 194.371 
366.882 88.8538 194.021 363.947 89.4712 194.161 365.164 89.6599 194.073 
364.608 89.8023 194.444 403.29 67.3476 195.425 403.259 67.1267 195.797 
401.384 67.3753 194.971 361.467 80.0722 195.092 359.503 82.2254 194.848 
402.254 81.178 195.319 359.241 86.5903 195.19 360.611 87.5093 194.917 
361.214 88.2944 195.605 362.238 88.9141 195.541 367.394 88.5923 194.565 
362.771 89.1501 195.275 364.981 89.8149 194.363 366.16 89.5172 194.812 
363.877 89.6538 194.908 364.407 89.7987 194.843 365.472 89.7996 194.783 
385.308 68.4865 196.787 371.117 74.0406 195.343 374.258 80.383 194.368 
358.946 81.5807 195.783 373.618 81.2664 195.377 375.914 81.1704 194.981 
371.905 82.1281 195.461 370.473 83.4132 195.401 370.028 83.9428 195.296 
356.216 85.2879 196.544 381.242 83.9726 195.95 356.776 85.9955 196.43 
359.087 87.2452 195.993 359.26 87.6013 196.456 360.898 88.2398 196.207 
367.447 88.5315 195.215 362.639 89.1194 195.708 363.69 89.5812 195.304 
366.106 89.5245 195.146 366.067 89.3373 195.56 364.717 89.7712 195.216 
365.341 89.7526 195.174 404.029 66.4769 197.84 404.201 66.5753 197.932 
403.533 66.6087 197.317 404.306 67.2949 197.099 404.558 67.9377 196.902 
404.927 69.5167 196.676 357.212 81.6272 197.362 372.087 82.4792 196.434 
368.799 84.9763 197.374 383.614 83.9415 196.754 353.482 85.2929 198.195 
354.783 85.1431 197.422 353.478 85.6706 198.168 354.403 85.9147 197.657 
354.591 86.672 197.807 356.737 86.6498 196.883 357.485 87.27 197.118 
359.841 88.0312 197.51 360.816 88.2077 197.01 367.356 87.8641 196.327 
362.71 89.075 196.064 363.048 89.1404 196.146 366.898 88.4088 196.268 
367.423 88.4111 195.538 365.45 89.2391 196.007 404.331 66.5784 198.359 
404.583 66.9561 198.372 401.565 66.4682 197.961 404.039 78.7903 198.079 
372.313 82.6104 197.083 375.341 82.4244 197.525 355.111 83.746 197.64 
354.263 83.9331 198.17 367.479 85.7336 198.023 352.772 85.613 198.937 
353.205 86.3023 198.546 354.88 87.5382 198.367 360.117 87.9812 198.73 
363.371 88.6287 196.959 404.135 66.3209 198.839 359.242 79.3442 198.519 
367.229 85.2668 199.013 369.46 84.078 199.385 352.308 85.0616 199.749 
361.714 87.4609 199.261 353.191 87.6422 199.566 360.366 87.8003 199.51 
354.831 88.4462 199.477 358.068 88.2793 199.212 401.537 66.128 199.787 
405.126 67.6144 199.973 353.093 83.7411 199.842 367.561 84.4863 200.86 
376.307 82.9238 199.549 376.974 82.9111 200.02 360.779 87.5519 199.91 
354.788 89.215 200.744 355.577 89.421 201.112 353.793 89.4603 201.986 
402.818 65.7132 202.025 404.114 77.2834 201.819 350.325 86.1487 202.684 
352.29 88.88 202.397 404.313 66.1066 202.27 403.297 65.7066 202.455 
380.678 67.7745 202.762 405.764 73.9707 202.772 354.001 89.925 203.453 
355.623 89.9286 203.098 404.897 66.3466 203.663 405.637 74.4259 203.799 
396.517 78.3595 203.911 358.001 78.2506 204.021 349.739 86.1724 204.234 
354.995 90.0955 203.831 404.45 65.7018 204.746 406.059 68.3509 204.628 
406.136 72.4537 205.298 401.757 76.7726 205.455 349.934 85.1446 204.694 
349.414 86.7629 204.857 349.638 88.1391 205.157 353.198 90.0737 205.316 
355.04 90.0746 204.336 405.489 65.5551 206.826 384.621 66.5818 206.679 
361.777 75.7592 205.853 404.927 75.056 205.824 384.778 78.957 206.042 
350.623 83.8441 206.003 348.446 86.8508 206.577 348.109 86.7596 207.234 
349.263 87.9788 205.546 350.002 88.9373 205.65 353.878 90.1849 206.191 
405.363 64.7855 207.673 405.199 64.7312 207.608 405.415 64.7138 207.974 
404.942 64.8423 207.302 403.218 65.0413 206.36 406.029 66.3297 207.34 
403.8 75.6496 206.492 348.74 89.0996 207.255 350.782 89.8963 206.749 
352.894 90.2158 207.254 405.279 64.5661 208.281 404.703 64.6443 207.71 
404.375 64.6097 207.889 406.296 71.6886 208.121 368.173 72.1786 208.012 
405.671 73.3589 208.144 367.988 83.2369 208.508 348.161 88.9209 207.711 
355.811 89.4072 207.586 351.778 90.4545 208.031 351.834 90.479 208.123 
404.609 64.3797 209.027 386.201 66.4187 209.228 406.569 69.8911 209.074 
346.444 87.9315 209.984 346.303 88.3966 209.914 346.45 88.6516 209.64 
346.452 89.0506 209.806 348.074 89.9163 208.904 349.538 90.4307 208.853 
351.847 90.4998 208.993 350.65 90.719 209.449 403.644 74.5319 210.436 
359.355 77.4926 210.358 345.825 88.982 210.909 346.479 89.9493 210.57 
347.35 90.4779 210.285 347.531 90.7356 210.618 348.424 91.1871 211.09 
350.55 90.8393 209.987 403.401 64.3884 210.905 387.037 66.498 211.062 
406.565 69.93 211.015 405.357 73.0742 211.152 399.509 75.2714 211.742 
348.28 85.5783 211.351 346.831 86.9572 210.752 346.257 87.6311 211.545 
[...]
POINT_DATA 1113
COLOR_SCALARS scalars 3
1 0.564706 1 1 0.564706 1 1 0.564706 1 
1 0.564706 1 1 0.564706 1 
1 0.564706 1 1 0.564706 1 
1 0.564706 1 1 0.564706 1 
1 0.564706 1 1 0.564706 1 
1 0.564706 1 1 0.564706 1 
1 0.564706 1 1 0.564706 1 
1 0.564706 1 1 0.564706 1 
1 0.564706 1 1 0.564706 1 
1 0.564706 1 1 0.564706 1 
1 0.564706 1 1 0.564706 1 
1 0.564706 1 1 0.564706 1 
1 0.564706 1 1 0.564706 1 
1 0.564706 1 1 0.564706 1 
1 0.564706 1 1 0.564706 1 
1 0.564706 1 1 0.564706 1 
1 0.564706 1 1 0.564706 1 
1 0.564706 1 1 0.564706 1 
1 0.564706 1 1 0.564706 1 
1 0.564706 1 1 0.564706 1 
1 0.564706 1 1 0.564706 1 
1 0.564706 1 1 0.564706 1 
1 0.564706 1 1 0.564706 1 
1 0.564706 1 1 0.564706 1 
1 0.564706 1 1 0.564706 1 
1 0.564706 1 1 0.564706 1 
1 0.564706 1 1 0.564706 1 
1 0.564706 1 1 0.564706 1 
1 0.564706 1 1 0.564706 1 
1 0.564706 1 1 0.564706 1 
1 0.564706 1 1 0.564706 1 
1 0.564706 1 1 0.564706 1 
1 0.564706 1 1 0.564706 1 
1 0.564706 1 1 0.564706 1 
1 0.564706 1 1 0.564706 1 
1 0.564706 1 1 0.564706 1 
1 0.564706 1 1 0.564706 1 
1 0.564706 1 1 0.564706 1 
1 0.564706 1 1 0.564706 1 
1 0.564706 1 1 0.564706 1 
1 0.564706 1 1 0.564706 1 
1 0.564706 1 1 0.564706 1 
1 0.564706 1 1 0.564706 1 
1 0.564706 1 1 0.564706 1 
1 0.564706 1 1 0.564706 1 
1 0.564706 1 1 0.564706 1 
1 0.564706 1 1 0.564706 1 
1 0.564706 1 1 0.564706 1 
1 0.564706 1 1 0.564706 1 
1 0.564706 1 1 0.564706 1 
1 0.564706 1 1 0.564706 1 
1 0.564706 1 1 0.564706 1 
1 0.564706 1 1 0.564706 1 
1 0.564706 1 1 0.564706 1 
1 0.564706 1 1 0.564706 1 
1 0.564706 1 1 0.564706 1 
1 0.564706 1 1 0.564706 1 
1 0.564706 1 1 0.564706 1 
1 0.564706 1 1 0.564706 1 
1 0.564706 1 1 0.564706 1 
1 0.564706 1 1 0.564706 1 
1 0.564706 1 1 0.564706 1 
1 0.564706 1 1 0.564706 1 
1 0.564706 1 1 0.564706 1 
1 0.564706 1 1 0.564706 1 
1 0.564706 1 1 0.564706 1 
1 0.564706 1 1 0.564706 1 
1 0.564706 1 1 0.564706 1 
1 0.564706 1 1 0.564706 1 
1 0.564706 1 1 0.564706 1 
1 0.564706 1 1 0.564706 1 
1 0.564706 1 1 0.564706 1 
1 0.564706 1 1 0.564706 1 
1 0.564706 1 1 0.564706 1 
1 0.564706 1 1 0.564706 1 
1 0.564706 1 1 0.564706 1 
1 0.564706 1 1 0.564706 1 
1 0.564706 1 1 0.564706 1 
1 0.564706 1 1 0.564706 1 
1 0.564706 1 1 0.564706 1 
1 0.564706 1 1 0.564706 1 
1 0.564706 1 1 0.564706 1 
1 0.564706 1 1 0.564706 1 
1 0.564706 1 1 0.564706 1 
1 0.564706 1 1 0.564706 1 
1 0.564706 1 1 0.564706 1 
1 0.564706 1 1 0.564706 1 
1 0.564706 1 1 0.564706 1 
1 0.564706 1 1 0.564706 1 
1 0.564706 1 1 0.564706 1 
1 0.564706 1 1 0.564706 1 
1 0.564706 1 1 0.564706 1 
1 0.564706 1 1 0.564706 1 
1 0.564706 1 1 0.564706 1 
1 0.564706 1 1 0.564706 1 
1 0.564706 1 1 0.564706 1 
1 0.564706 1 1 0.564706 1 
1 0.564706 1 1 0.564706 1 
1 0.564706 1 1 0.564706 1 
1 0.564706 1 1 0.564706 1 
1 0.564706 1 1 0.564706 1 
1 0.564706 1 1 0.564706 1 
1 0.564706 1 1 0.564706 1 
1 0.564706 1 1 0.564706 1 
1 0.564706 1 1 0.564706 1 
1 0.564706 1 1 0.564706 1 
1 0.564706 1 1 0.564706 1 
1 0.564706 1 1 0.564706 1 
1 0.564706 1 1 0.564706 1 
1 0.564706 1 1 0.564706 1 
1 0.564706 1 1 0.564706 1 
1 0.564706 1 1 0.564706 1 
1 0.564706 1 1 0.564706 1 
1 0.564706 1 1 0.564706 1 
1 0.564706 1 1 0.564706 1 
1 0.564706 1 1 0.564706 1 
1 0.564706 1 1 0.564706 1 
1 0.564706 1 1 0.564706 1 
1 0.564706 1 1 0.564706 1 
1 0.564706 1 1 0.564706 1 
1 0.564706 1 1 0.564706 1 
1 0.564706 1 1 0.564706 1 
1 0.564706 1 1 0.564706 1 
1 0.564706 1 1 0.564706 1 
1 0.564706 1 1 0.564706 1 
1 0.564706 1 1 0.564706 1 
1 0.564706 1 1 0.564706 1 
1 0.564706 1 1 0.564706 1 
1 0.564706 1 1 0.564706 1 
1 0.564706 1 1 0.564706 1 
1 0.564706 1 1 0.564706 1 
1 0.564706 1 1 0.564706 1 
1 0.564706 1 1 0.564706 1 
1 0.564706 1 1 0.564706 1 
1 0.564706 1 1 0.564706 1 
1 0.564706 1 1 0.564706 1 
1 0.564706 1 1 0.564706 1 
1 0.564706 1 1 0.564706 1 
1 0.564706 1 1 0.564706 1 
1 0.564706 1 1 0.564706 1 
1 0.564706 1 1 0.564706 1 
1 0.564706 1 1 0.564706 1 
1 0.564706 1 1 0.564706 1 
1 0.564706 1 1 0.564706 1 
1 0.564706 1 1 0.564706 1 
1 0.564706 1 1 0.564706 1 
1 0.564706 1 1 0.564706 1 
1 0.564706 1 1 0.564706 1 
1 0.564706 1 1 0.564706 1 
1 0.564706 1 1 0.564706 1 
1 0.564706 1 1 0.564706 1 
1 0.564706 1 1 0.564706 1 
1 0.564706 1 1 0.564706 1 
1 0.564706 1 1 0.564706 1 
1 0.564706 1 1 0.564706 1 
1 0.564706 1 1 0.564706 1 
1 0.564706 1 1 0.564706 1 
1 0.564706 1 1 0.564706 1 
1 0.564706 1 1 0.564706 1 
1 0.564706 1 1 0.564706 1 
1 0.564706 1 1 0.564706 1 
1 0.564706 1 1 0.564706 1 
1 0.564706 1 1 0.564706 1 
1 0.564706 1 1 0.564706 1 
1 0.564706 1 1 0.564706 1 
1 0.564706 1 1 0.564706 1 
1 0.564706 1 1 0.564706 1 
1 0.564706 1 1 0.564706 1 
1 0.564706 1 1 0.564706 1 
1 0.564706 1 1 0.564706 1 
1 0.564706 1 1 0.564706 1 
1 0.564706 1 1 0.564706 1 
1 0.564706 1 1 0.564706 1 
1 0.564706 1 1 0.564706 1 
1 0.564706 1 1 0.564706 1 
1 0.564706 1 1 0.564706 1 
1 0.564706 1 1 0.564706 1 
1 0.564706 1 1 0.564706 1 
1 0.564706 1 1 0.564706 1 
1 0.564706 1 1 0.564706 1 
1 0.564706 1 1 0.564706 1 
1 0.564706 1 1 0.564706 1 
1 0.564706 1 1 0.564706 1 
1 0.564706 1 1 0.564706 1 
1 0.564706 1 1 0.564706 1 
1 0.564706 1 1 0.564706 1 
1 0.564706 1 1 0.564706 1 
1 0.564706 1 1 0.564706 1 
1 0.564706 1 1 0.564706 1 
1 0.564706 1 1 0.564706 1 
1 0.564706 1 1 0.564706 1 
1 0.564706 1 1 0.564706 1 
1 0.564706 1 1 0.564706 1 
1 0.564706 1 1 0.564706 1 
1 0.564706 1 1 0.564706 1 
1 0.564706 1 1 0.564706 1 
1 0.564706 1 1 0.564706 1 
1 0.564706 1 1 0.564706 1 
1 0.564706 1 1 0.564706 1 
1 0.564706 1 1 0.564706 1 
1 0.564706 1 1 0.564706 1 
1 0.564706 1 1 0.564706 1 
1 0.564706 1 1 0.564706 1 
1 0.564706 1 1 0.564706 1 
1 0.564706 1 1 0.564706 1 
1 0.564706 1 1 0.564706 1 
1 0.564706 1 1 0.564706 1 
1 0.564706 1 1 0.564706 1 
1 0.564706 1 1 0.564706 1 
1 0.564706 1 1 0.564706 1 
1 0.564706 1 1 0.564706 1 
1 0.564706 1 1 0.564706 1 
1 0.564706 1 1 0.564706 1 
1 0.564706 1 1 0.564706 1 
1 0.564706 1 1 0.564706 1 
1 0.564706 1 1 0.564706 1 
1 0.564706 1 1 0.564706 1 
1 0.564706 1 1 0.564706 1 
1 0.564706 1 1 0.564706 1 
1 0.564706 1 1 0.564706 1 
1 0.564706 1 1 0.564706 1 
1 0.564706 1 1 0.564706 1 
1 0.564706 1 1 0.564706 1 
1 0.564706 1 1 0.564706 1 
1 0.564706 1 1 0.564706 1 
1 0.564706 1 1 0.564706 1 
1 0.564706 1 1 0.564706 1 
1 0.564706 1 1 0.564706 1 
1 0.564706 1 1 0.564706 1 
1 0.564706 1 1 0.564706 1 
1 0.564706 1 1 0.564706 1 
1 0.564706 1 1 0.564706 1 
1 0.564706 1 1 0.564706 1 
1 0.564706 1 1 0.564706 1 
1 0.564706 1 1 0.564706 1 
1 0.564706 1 1 0.564706 1 
1 0.564706 1 1 0.564706 1 
1 0.564706 1 1 0.564706 1 
1 0.564706 1 1 0.564706 1 
1 0.564706 1 1 0.564706 1 
1 0.564706 1 1 0.564706 1 
1 0.564706 1 1 0.564706 1 
1 0.564706 1 1 0.564706 1 
1 0.564706 1 1 0.564706 1 
1 0.564706 1 1 0.564706 1 
1 0.564706 1 1 0.564706 1 
1 0.564706 1 1 0.564706 1 
1 0.564706 1 1 0.564706 1 
1 0.564706 1 1 0.564706 1 
1 0.564706 1 1 0.564706 1 
1 0.564706 1 1 0.564706 1 
1 0.564706 1 1 0.564706 1 
1 0.564706 1 1 0.564706 1 
1 0.564706 1 1 0.564706 1 
1 0.564706 1 1 0.564706 1 
1 0.564706 1 1 0.564706 1 
1 0.564706 1 1 0.564706 1 
1 0.564706 1 1 0.564706 1 
1 0.564706 1 1 0.564706 1 
1 0.564706 1 1 0.564706 1 
1 0.564706 1 1 0.564706 1 
1 0.564706 1 1 0.564706 1 
1 0.564706 1 1 0.564706 1 
1 0.564706 1 1 0.564706 1 
1 0.564706 1 1 0.564706 1 
1 0.564706 1 1 0.564706 1 
1 0.564706 1 1 0.564706 1 
1 0.564706 1 1 0.564706 1 
1 0.564706 1 1 0.564706 1 
1 0.564706 1 1 0.564706 1 
1 0.564706 1 1 0.564706 1 
1 0.564706 1 1 0.564706 1 
1 0.564706 1 1 0.564706 1 
1 0.564706 1 1 0.564706 1 
1 0.564706 1 1 0.564706 1 
1 0.564706 1 1 0.564706 1 
1 0.564706 1 1 0.564706 1 
1 0.564706 1 1 0.564706 1 
1 0.564706 1 1 0.564706 1 
1 0.564706 1 1 0.564706 1 
1 0.564706 1 1 0.564706 1 
1 0.564706 1 1 0.564706 1 
1 0.564706 1 1 0.564706 1 
1 0.564706 1 1 0.564706 1 
1 0.564706 1 1 0.564706 1 
1 0.564706 1 1 0.564706 1 
1 0.564706 1 1 0.564706 1 
1 0.564706 1 1 0.564706 1 
1 0.564706 1 1 0.564706 1 
1 0.564706 1 1 0.564706 1 
1 0.564706 1 1 0.564706 1 
1 0.564706 1 1 0.564706 1 
1 0.564706 1 1 0.564706 1 
1 0.564706 1 1 0.564706 1 
1 0.564706 1 1 0.564706 1 
1 0.564706 1 1 0.564706 1 
1 0.564706 1 1 0.564706 1 
1 0.564706 1 1 0.564706 1 
1 0.564706 1 1 0.564706 1 
1 0.564706 1 1 0.564706 1 
1 0.564706 1 1 0.564706 1 
1 0.564706 1 1 0.564706 1 
1 0.564706 1 1 0.564706 1 
1 0.564706 1 1 0.564706 1 
1 0.564706 1 1 0.564706 1 
1 0.564706 1 1 0.564706 1 
1 0.564706 1 1 0.564706 1 
1 0.564706 1 1 0.564706 1 
1 0.564706 1 1 0.564706 1 
1 0.564706 1 1 0.564706 1 
1 0.564706 1 1 0.564706 1 
1 0.564706 1 1 0.564706 1 
1 0.564706 1 1 0.564706 1 
1 0.564706 1 1 0.564706 1 
1 0.564706 1 1 0.564706 1 
1 0.564706 1 1 0.564706 1 
1 0.564706 1 1 0.564706 1 
1 0.564706 1 1 0.564706 1 
1 0.564706 1 1 0.564706 1 
1 0.564706 1 1 0.564706 1 
1 0.564706 1 1 0.564706 1 
1 0.564706 1 1 0.564706 1 
1 0.564706 1 1 0.564706 1 
1 0.564706 1 1 0.564706 1 
1 0.564706 1 1 0.564706 1 
1 0.564706 1 1 0.564706 1 
1 0.564706 1 1 0.564706 1 
1 0.564706 1 1 0.564706 1 
1 0.564706 1 1 0.564706 1 
1 0.564706 1 1 0.564706 1 
1 0.564706 1 1 0.564706 1 
1 0.564706 1 1 0.564706 1 
1 0.564706 1 1 0.564706 1 
1 0.564706 1 1 0.564706 1 
1 0.564706 1 1 0.564706 1 
1 0.564706 1 1 0.564706 1 
1 0.564706 1 1 0.564706 1 
1 0.564706 1 1 0.564706 1 
1 0.564706 1 1 0.564706 1 
1 0.564706 1 1 0.564706 1 
1 0.564706 1 1 0.564706 1 
1 0.564706 1 1 0.564706 1 
1 0.564706 1 1 0.564706 1 
1 0.564706 1 1 0.564706 1 
1 0.564706 1 1 0.564706 1 
1 0.564706 1 1 0.564706 1 
1 0.564706 1 1 0.564706 1 
1 0.564706 1 1 0.564706 1 
1 0.564706 1 1 0.564706 1 
1 0.564706 1 1 0.564706 1 
1 0.564706 1 1 0.564706 1 
1 0.564706 1 1 0.564706 1 
1 0.564706 1 1 0.564706 1 
1 0.564706 1 1 0.564706 1 
1 0.564706 1 1 0.564706 1 
1 0.564706 1 1 0.564706 1 
1 0.564706 1 1 0.564706 1 
1 0.564706 1 1 0.564706 1 
1 0.564706 1 1 0.564706 1 
1 0.564706 1 1 0.564706 1 
1 0.564706 1 1 0.564706 1 
1 0.564706 1 1 0.564706 1 
1 0.564706 1 1 0.564706 1 
1 0.564706 1 1 0.564706 1 
1 0.564706 1 1 0.564706 1 
1 0.564706 1 1 0.564706 1 
1 0.564706 1 1 0.564706 1 
1 0.564706 1 1 0.564706 1 
1 0.564706 1 1 0.564706 1 
1 0.564706 1 1 0.564706 1 
1 0.564706 1 1 0.564706 1 
1 0.564706 1 1 0.564706 1 
1 0.564706 1 1 0.564706 1 
1 0.564706 1 1 0.564706 1 
1 0.564706 1 1 0.564706 1 
1 0.564706 1 1 0.564706 1 
1 0.564706 1 1 0.564706 1 
1 0.564706 1 1 0.564706 1 
1 0.564706 1 1 0.564706 1 
1 0.564706 1 1 0.564706 1 
1 0.564706 1 1 0.564706 1 
1 0.564706 1 1 0.564706 1 
1 0.564706 1 1 0.564706 1 
1 0.564706 1 1 0.564706 1 
1 0.564706 1 1 0.564706 1 
1 0.564706 1 1 0.564706 1 
1 0.564706 1 1 0.564706 1 
1 0.564706 1 1 0.564706 1 
1 0.564706 1 1 0.564706 1 
1 0.564706 1 1 0.564706 1 
1 0.564706 1 1 0.564706 1 
1 0.564706 1 1 0.564706 1 
1 0.564706 1 1 0.564706 1 
1 0.564706 1 1 0.564706 1 
1 0.564706 1 1 0.564706 1 
1 0.564706 1 1 0.564706 1 
1 0.564706 1 1 0.564706 1 
1 0.564706 1 1 0.564706 1 
1 0.564706 1 1 0.564706 1 
1 0.564706 1 1 0.564706 1 
1 0.564706 1 1 0.564706 1 
1 0.564706 1 1 0.564706 1 
1 0.564706 1 1 0.564706 1 
1 0.564706 1 1 0.564706 1 
1 0.564706 1 1 0.564706 1 
1 0.564706 1 1 0.564706 1 
1 0.564706 1 1 0.564706 1 
1 0.564706 1 1 0.564706 1 
1 0.564706 1 1 0.564706 1 
1 0.564706 1 1 0.564706 1 
1 0.564706 1 1 0.564706 1 
1 0.564706 1 1 0.564706 1 
1 0.564706 1 1 0.564706 1 
1 0.564706 1 1 0.564706 1 
1 0.564706 1 1 0.564706 1 
1 0.564706 1 1 0.564706 1 
1 0.564706 1 1 0.564706 1 
1 0.564706 1 1 0.564706 1 
1 0.564706 1 1 0.564706 1 
1 0.564706 1 1 0.564706 1 
1 0.564706 1 1 0.564706 1 
1 0.564706 1 1 0.564706 1 
1 0.564706 1 1 0.564706 1 
1 0.564706 1 1 0.564706 1 
1 0.564706 1 1 0.564706 1 
1 0.564706 1 1 0.564706 1 
1 0.564706 1 1 0.564706 1 
1 0.564706 1 1 0.564706 1 
1 0.564706 1 1 0.564706 1 
1 0.564706 1 1 0.564706 1 
1 0.564706 1 1 0.564706 1 
1 0.564706 1 1 0.564706 1 
1 0.564706 1 1 0.564706 1 
1 0.564706 1 1 0.564706 1 
1 0.564706 1 1 0.564706 1 
1 0.564706 1 1 0.564706 1 
1 0.564706 1 1 0.564706 1 
1 0.564706 1 1 0.564706 1 
1 0.564706 1 1 0.564706 1 
1 0.564706 1 1 0.564706 1 
1 0.564706 1 1 0.564706 1 
1 0.564706 1 1 0.564706 1 
1 0.564706 1 1 0.564706 1 
1 0.564706 1 1 0.564706 1 
1 0.564706 1 1 0.564706 1 
1 0.564706 1 1 0.564706 1 
1 0.564706 1 1 0.564706 1 
1 0.564706 1 1 0.564706 1 
1 0.564706 1 1 0.564706 1 
1 0.564706 1 1 0.564706 1 
1 0.564706 1 1 0.564706 1 
1 0.564706 1 1 0.564706 1 
1 0.564706 1 1 0.564706 1 
1 0.564706 1 1 0.564706 1 
1 0.564706 1 1 0.564706 1 
1 0.564706 1 1 0.564706 1 
1 0.564706 1 1 0.564706 1 
1 0.564706 1 1 0.564706 1 
1 0.564706 1 1 0.564706 1 
1 0.564706 1 1 0.564706 1 
1 0.564706 1 1 0.564706 1 
1 0.564706 1 1 0.564706 1 
1 0.564706 1 1 0.564706 1 
1 0.564706 1 1 0.564706 1 
1 0.564706 1 1 0.564706 1 
1 0.564706 1 1 0.564706 1 
1 0.564706 1 1 0.564706 1 
1 0.564706 1 1 0.564706 1 
1 0.564706 1 1 0.564706 1 
1 0.564706 1 1 0.564706 1 
1 0.564706 1 1 0.564706 1 
1 0.564706 1 1 0.564706 1 
1 0.564706 1 1 0.564706 1 
1 0.564706 1 1 0.564706 1 
1 0.564706 1 1 0.564706 1 
1 0.564706 1 1 0.564706 1 
1 0.564706 1 1 0.564706 1 
1 0.564706 1 1 0.564706 1 
1 0.564706 1 1 0.564706 1 
1 0.564706 1 1 0.564706 1 
1 0.564706 1 1 0.564706 1 
1 0.564706 1 1 0.564706 1 
1 0.564706 1 1 0.564706 1 
1 0.564706 1 1 0.564706 1 
1 0.564706 1 1 0.564706 1 
1 0.564706 1 1 0.564706 1 
1 0.564706 1 1 0.564706 1 
1 0.564706 1 1 0.564706 1 
1 0.564706 1 1 0.564706 1 
1 0.564706 1 1 0.564706 1 
1 0.564706 1 1 0.564706 1 
1 0.564706 1 1 0.564706 1 
1 0.564706 1 1 0.564706 1 
1 0.564706 1 1 0.564706 1 
1 0.564706 1 1 0.564706 1 
1 0.564706 1 1 0.564706 1 
1 0.564706 1 1 0.564706 1 
1 0.564706 1 1 0.564706 1 
1 0.564706 1 1 0.564706 1 
1 0.564706 1 1 0.564706 1 
1 0.564706 1 1 0.564706 1 
1 0.564706 1 1 0.564706 1 
1 0.564706 1 1 0.564706 1 
1 0.564706 1 1 0.564706 1 
1 0.564706 1 1 0.564706 1 
1 0.564706 1 1 0.564706 1 
1 0.564706 1 1 0.564706 1 
1 0.564706 1 1 0.564706 1 
1 0.564706 1 1 0.564706 1 
1 0.564706 1 1 0.564706 1 
1 0.564706 1 1 0.564706 1 
1 0.564706 1 1 0.564706 1 
1 0.564706 1 1 0.564706 1 
1 0.564706 1 1 0.564706 1 
1 0.564706 1 1 0.564706 1 
1 0.564706 1 1 0.564706 1 
1 0.564706 1 1 0.564706 1 
1 0.564706 1 1 0.564706 1 
1 0.564706 1 1 0.564706 1 
1 0.564706 1 1 0.564706 1 
1 0.564706 1 1 0.564706 1 
1 0.564706 1 1 0.564706 1 
1 0.564706 1 1 0.564706 1 
1 0.564706 1 1 0.564706 1 
1 0.564706 1 1 0.564706 1 
1 0.564706 1 1 0.564706 1 
1 0.564706 1 1 0.564706 1 
1 0.564706 1 1 0.564706 1 
1 0.564706 1 1 0.564706 1 
1 0.564706 1 1 0.564706 1 
1 0.564706 1 1 0.564706 1 
1 0.564706 1 1 0.564706 1 
1 0.564706 1 1 0.564706 1 
1 0.564706 1 1 0.564706 1 
1 0.564706 1 1 0.564706 1 
1 0.564706 1 1 0.564706 1 
1 0.564706 1 1 0.564706 1 
1 0.564706 1 1 0.564706 1 
1 0.564706 1 1 0.564706 1 
1 0.564706 1 1 0.564706 1 
1 0.564706 1 1 0.564706 1 
1 0.564706 1 1 0.564706 1 
1 0.564706 1 1 0.564706 1 
1 0.564706 1 1 0.564706 1 
1 0.564706 1 1 0.564706 1 
1 0.564706 1 1 0.564706 1 
1 0.564706 1 1 0.564706 1 
1 0.564706 1 1 0.564706 1 
1 0.564706 1 1 0.564706 1 
1 0.564706 1 1 0.564706 1 
1 0.564706 1 1 0.564706 1 
1 0.564706 1 1 0.564706 1 
1 0.564706 1 1 0.564706 1 
1 0.564706 1 1 0.564706 1 
1 0.564706 1 1 0.564706 1 
1 0.564706 1 1 0.564706 1 

NORMALS Normals float
0 -0.970143 -0.242536 0 -1 0 -0.447214 -0.894427 0 
0.447214 -0.894427 0 0 1 0 0 -0.970143 0.242536 
-0.0368802 -0.76381 -0.644387 -0.314212 -0.134281 -0.939808 0.436325 -0.279133 -0.855397 
0.6463 -0.188845 -0.739347 0.159091 0.351977 -0.922389 -0.584826 -0.174241 -0.792224 
0.491545 -0.487508 -0.721609 -0.258229 0.236808 -0.936611 0.251524 -0.586035 -0.770259 
0.151451 -0.737924 -0.657671 0.557289 -0.399146 -0.728087 0.00447045 -0.775895 -0.630847 
0.243148 0.256712 -0.935402 0.657549 0.0679872 -0.750338 0.209687 0.279073 -0.937096 
0.426598 -0.633745 -0.645276 -0.115554 -0.921262 -0.37138 0.132699 -0.5403 -0.830944 
0.358173 -0.83306 -0.421571 0.706472 -0.313668 -0.634437 0.63444 0.0739403 -0.769427 
-0.121514 0.242305 -0.962561 0.356851 0.203384 -0.911752 0.000640374 0.21937 -0.975641 
0.268286 0.227932 -0.935986 -0.120372 -0.838705 -0.531116 0.623784 -0.312997 -0.716189 
-0.413209 0.206325 -0.886955 -0.312025 0.103176 -0.944455 -0.02829 0.133287 -0.990674 
0.232502 0.250059 -0.939901 0.438496 0.184879 -0.879512 -0.12721 0.257436 -0.957886 
-0.31709 0.659668 -0.68139 0.174206 0.310851 -0.934357 0.405722 0.38003 -0.831244 
0.502879 0.355226 -0.787989 -0.190629 0.915755 -0.353629 -0.141814 0.951579 -0.272738 
-0.145139 0.538613 -0.829959 0.48993 0.53916 -0.685036 0.136286 0.695731 -0.705255 
0.363371 -0.616137 -0.698811 0.0589914 -0.849434 -0.524387 0.751708 -0.320867 -0.576176 
0.632245 -0.432236 -0.642992 -0.330729 0.125798 -0.935304 0.653924 0.152893 -0.74095 
0.544152 0.378575 -0.748719 -0.396846 0.470945 -0.787861 0.604551 0.527964 -0.596466 
0.546817 0.672039 -0.499355 0.0754876 0.995734 0.0530622 0.328741 0.940446 -0.0865499 
0.473128 0.851202 -0.227167 0.542423 0.803669 -0.244732 0.0310688 -0.783534 -0.620572 
0.363476 -0.757226 -0.542673 0.0545126 -0.815089 -0.576765 0.439644 -0.533274 -0.722726 
0.726449 -0.281594 -0.626879 -0.528642 -0.187843 -0.8278 0.732333 0.0548103 -0.678737 
-0.437642 -0.00222216 -0.899146 -0.442827 0.231281 -0.866264 0.685036 0.293877 -0.666604 
-0.369505 0.789964 -0.489309 0.474523 0.873822 0.106128 0.560244 0.82803 0.0221879 
0.31617 -0.783864 -0.53441 0.388072 -0.76233 -0.517931 0.701178 -0.372571 -0.607898 
-0.168515 -0.883721 -0.436624 -0.302469 -0.795043 -0.525755 0.84424 0.211287 -0.492561 
0.832511 0.306138 -0.461741 0.774689 0.445164 -0.449094 -0.11635 0.980342 0.159352 
-0.0420197 0.991401 -0.123925 0.132583 -0.870146 -0.474624 -0.12837 -0.894567 -0.428101 
-0.265299 -0.312218 -0.912215 -0.368342 -0.33706 -0.866438 -0.638359 0.396724 -0.659627 
-0.590555 0.587115 -0.553661 0.82991 0.42102 -0.366049 -0.430498 0.8128 -0.392464 
-0.349324 0.805697 -0.478357 -0.399967 0.905165 -0.143882 -0.0159759 0.996768 0.0787254 
-0.0930912 0.979011 -0.181305 -0.113671 0.972857 0.201562 0.338388 -0.558839 -0.757094 
0.291675 -0.616071 -0.731699 0.57608 -0.525091 -0.626427 -0.0865915 -0.898062 -0.431262 
0.724877 -0.303855 -0.618244 -0.250136 -0.616026 -0.746957 -0.534536 -0.180971 -0.825543 
-0.442467 0.130761 -0.887201 -0.638334 0.677242 -0.365886 0.717337 0.67961 -0.153486 
0.19117 0.890043 0.413858 0.222192 0.933683 0.280832 -0.212699 0.977056 -0.0109487 
0.418127 -0.744421 -0.520583 0.323467 -0.819665 -0.472777 0.733963 -0.331121 -0.593007 
-0.280748 -0.741113 -0.609862 -0.172335 -0.798572 -0.576701 -0.518558 -0.394311 -0.758694 
-0.570667 0.267694 -0.776324 -0.665235 0.429992 -0.610385 -0.664836 0.614336 -0.424952 
-0.525876 0.783189 -0.331768 -0.131414 0.987981 -0.0813893 -0.341416 0.93857 -0.0502081 
0.413356 -0.708493 -0.571992 0.256813 -0.85839 -0.444087 0.669657 -0.611313 -0.42173 
0.0722347 -0.883571 -0.462693 -0.20034 -0.774571 -0.59992 -0.714218 0.120502 -0.689472 
0.895174 0.311903 -0.318403 0.858337 0.475161 -0.193596 -0.646106 0.740092 -0.186578 
-0.574007 0.800309 -0.173267 -0.143899 -0.798025 -0.585192 -0.33607 -0.726491 -0.599389 
0.943982 -0.0447967 -0.326942 -0.671483 0.603295 -0.430285 -0.117398 0.97622 0.182242 
-0.690281 0.338296 -0.639584 -0.304922 -0.497843 -0.811896 -0.245258 -0.714817 -0.654894 
-0.0809426 -0.0227204 -0.99646 -0.534361 0.814991 -0.224159 0.0438129 0.936433 0.348099 
0.902077 -0.269613 -0.336996 -0.497266 -0.504201 -0.706051 -0.472932 -0.454465 -0.754849 
0.322964 -0.0878049 -0.942329 0.527214 -0.295569 -0.796671 -0.162802 -0.516963 -0.840384 
0.971797 0.206814 -0.113312 -0.478637 -0.666837 -0.57117 -0.411612 -0.111367 -0.904529 
-0.520968 -0.125087 -0.844361 0.241299 -0.00175424 -0.970449 -0.683074 0.625081 -0.377735 
0.89172 0.400859 -0.210114 -0.294688 0.151545 -0.943501 0.795715 0.604661 -0.0349784 
0.139164 0.200964 -0.969663 0.610595 0.782779 0.120127 -0.0016742 0.31593 -0.948781 
-0.117707 0.976567 0.180171 -0.309848 0.949133 -0.0560495 0.881067 -0.344869 -0.323709 
-0.644586 0.0459862 -0.763147 -0.00871552 -0.126057 -0.991985 -0.034347 -0.0778888 -0.99637 