# vtk DataFile Version 4.2
vtk output
ASCII
DATASET POLYDATA
POINTS 2056 float
219.405 145.044 190.337 219.144 145.333 190.352 219.883 145.357 190.244 
220.148 145.138 190.416 220.003 144.641 190.481 219.491 146.407 189.985 
220.034 147.458 190.071 218.149 149.191 189.871 217.753 148.634 190.207 
217.568 149.391 190.193 218.678 149.327 189.677 219.57 148.712 189.784 
217.955 150.237 189.803 219.053 149.948 189.603 219.954 149.34 189.952 
220.313 148.938 190.3 217.13 151.41 190.033 218.413 151.087 189.568 
220.344 150.971 190.285 216.324 156.133 189.754 217.412 156.143 189.316 
215.958 157.97 189.884 217.823 157.777 189.232 215.276 159.191 190.396 
216.368 158.715 189.607 218.181 159.403 189.383 219.294 160.136 189.741 
220.358 141.652 191.501 220.448 141.562 191.606 220.111 142.575 191.179 
220.346 142.479 191.268 219.702 143.306 191.004 218.823 144.995 190.708 
218.535 144.777 191.092 220.594 146.569 190.854 216.689 151.162 190.419 
216.52 150.711 190.758 215.863 154.866 190.298 221.274 154.836 191.064 
215.339 156.234 190.746 221.512 156.213 190.885 221.303 157.915 190.552 
214.86 159.244 190.847 214.63 159.089 191.248 220.323 159.588 190.048 
215.39 162.3 190.524 214.854 163.162 191.056 215.992 163.49 190.526 
217.445 163.174 190.309 220.512 140.826 191.866 220.546 140.605 191.967 
220.457 140.833 191.904 220.579 140.621 191.96 220.368 141.291 191.705 
220.532 141.006 191.869 220.028 141.771 191.673 219.752 141.843 191.982 
219.269 142.821 191.71 220.559 142.196 191.783 218.353 144.131 191.855 
216.61 149.394 191.207 216.446 149.181 191.632 220.831 148.886 191.279 
222.121 157.315 191.535 222.281 158.302 191.755 220.414 161.307 190.712 
221.434 162.419 192.055 218.068 163.829 190.65 215.046 165.231 191.214 
214.344 166.229 191.68 216.034 165.747 191.035 213.845 167.108 192.182 
215.213 166.636 191.328 214.141 168.887 191.917 213.89 169.411 192.03 
214.309 169.514 191.985 214.677 169.594 192.183 213.943 169.72 192.014 
213.996 169.677 191.919 213.951 169.737 191.937 220.606 140.408 192.062 
220.619 140.497 192.079 220.32 140.897 192.366 220.553 140.979 192.146 
219.919 141.325 192.631 220.613 142.305 192.193 218.67 143.036 192.529 
220.823 143.797 192.586 213.775 163.444 192.76 220.667 163.982 192.254 
219.261 165.835 192.308 218.091 166.734 192.05 219.244 166.174 192.658 
213.464 168.575 192.742 213.417 168.64 192.841 217.331 168.224 192.662 
213.517 168.786 192.843 213.759 169.247 192.555 214.044 169.715 192.19 
214.331 169.725 192.609 214.885 169.88 192.271 214.819 169.883 192.441 
215.075 169.717 192.309 215.632 169.483 192.741 214.025 169.744 191.989 
214.949 169.994 192.342 214.912 169.999 192.295 214.964 169.965 192.269 
214.955 170.027 192.281 220.66 140.225 192.139 220.686 140.09 192.194 
220.634 140.23 192.159 220.583 140.316 192.23 220.617 140.409 192.211 
220.545 140.474 192.273 220.502 140.759 192.314 220.033 141.267 193.111 
220.408 141.248 192.601 220.286 141.533 193.439 222.576 161.613 193.253 
218.433 166.918 192.472 219.402 166.307 193.257 218.455 167.183 192.828 
213.407 168.608 192.969 213.408 168.42 193.376 213.96 169.507 192.819 
214.135 169.645 193.015 216.434 169.238 193.009 217.278 168.738 193.535 
214.94 169.81 193.063 215.068 169.852 192.51 216.733 169.403 193.789 
215.001 169.957 192.318 220.699 140.036 192.225 220.669 140.095 192.242 
220.633 140.229 192.243 219.806 141.193 194.334 220.062 141.306 194.322 
216.494 146.855 193.898 223.719 158.882 194.962 220.952 165.054 194.413 
221.501 164.497 194.563 219.535 166.254 194.093 220.219 165.686 194.989 
218.777 167.093 193.407 218.272 167.541 194.045 218.695 167.13 193.844 
214.268 169.729 194.488 217.309 168.778 194.049 215.884 169.899 194.433 
220.696 140.024 192.24 219.458 141.18 194.771 219.033 141.324 195.232 
221.769 151.195 194.581 218.529 165.119 196.347 222.144 163.694 195.217 
219.638 165.571 195.483 220.165 165.261 195.875 220.667 165.629 195.752 
220.663 165.68 195.427 220.897 165.514 195.367 218.586 167.001 194.578 
220.827 165.721 195.618 214.114 169.804 195.466 214.69 170.067 195.183 
215.188 170.423 196.025 216.735 169.298 195.105 215.955 169.982 195.367 
217 172.009 195.017 217 172.009 195.017 217 172.009 195.017 
217 172.009 195.017 217 172.009 195.017 219.833 140.936 195.535 
219.599 140.903 195.548 223.892 159.378 196.231 219.084 163.536 197.083 
219.285 163.673 196.976 222.985 162.059 195.715 218.776 164.097 196.828 
220.692 165.127 196.329 221.176 165.435 195.968 220.881 165.806 195.784 
220.977 165.742 195.759 220.974 165.866 195.87 214.358 170.274 196.345 
216.321 169.793 197.203 217 172.009 195.017 215.7 170.895 197.257 
220.245 141.12 196.865 218.901 140.915 196.811 218.539 141.398 196.627 
218.713 163.19 197.535 222.624 162.719 196.447 221.087 165.218 196.404 
221.287 164.718 196.947 221.06 165.61 196.103 221.449 164.915 196.579 
212.667 167.629 197.543 221.076 165.761 196.005 221.009 165.807 196.012 
221.05 165.814 195.927 213.231 168.751 196.392 221.006 165.888 195.946 
214.379 170.736 197.211 215.553 171.242 197.577 215.336 171.483 197.835 
219.415 140.476 197.199 224.321 156.106 197.732 223.902 159.102 198.081 
218.888 161.69 198.561 222.417 162.736 197.207 221.043 165.87 195.978 
215.486 171.652 198.082 215.493 171.745 198.277 219.638 140.216 197.919 
219.542 140.025 198.476 219.298 140.1 198.752 217.146 142.984 198.447 
222.166 143.495 198.83 214.871 148.831 198.845 225.785 149.473 200.266 
222.997 160.657 198.428 221.659 164.375 197.395 221.697 164.548 197.203 
221.643 164.531 197.288 214.743 171.625 198.613 215.213 171.75 198.73 
215.526 171.718 198.427 215.419 171.786 198.464 219.721 139.917 198.556 
219.663 139.9 198.652 219.281 139.967 199.425 219.614 140.025 198.918 
219.688 139.894 198.744 219.509 140.063 199.601 218.571 140.702 199.457 
220.032 140.651 199.665 217.14 142.569 199.911 219.407 158.924 200.326 
222.323 160.96 198.877 221.722 164.429 197.336 216.038 168.771 199.893 
215.344 171.564 199.124 215.103 171.495 199.899 214.893 171.723 199.488 
215.434 171.717 198.659 216.004 175.013 200.009 216.004 175.013 200.009 
216.004 175.013 200.009 216.004 175.013 200.009 216.004 175.013 200.009 
219.164 139.825 199.892 219.71 139.872 198.671 218.964 140.153 199.869 
219.367 140.103 200.075 218.814 140.554 200.355 218.419 140.954 200.965 
219.826 140.662 200.473 221.59 141.792 200.707 226.377 149.596 201.409 
225.94 151.977 201.611 219.695 157.025 201.63 221.943 159.09 200.333 
222.715 159.568 199.754 215.135 170.715 200.859 213.262 171.443 200.988 
213.904 171.637 201.463 214.853 171.747 200.034 214.736 171.813 200.175 
216.004 175.013 200.009 219.164 139.817 200.002 219.1 139.871 199.963 
219.185 139.906 200.07 219.094 139.935 200.057 219.115 140.132 200.175 
219.295 140.385 200.463 219.135 140.746 201.318 219.918 140.863 201.363 
221.184 141.228 202.123 225.422 143.712 201.945 226.03 145.328 201.707 
226.829 148.285 202.642 221.851 155.668 202.829 224.545 155.809 201.593 
222.245 157.483 201.554 223.217 157.657 201.184 214.657 171.053 201.491 
214.243 171.236 202.61 213.258 172.044 202.537 213.676 171.994 203.113 
215.004 175.013 202.009 215.004 175.013 202.009 215.004 175.013 202.009 
215.004 175.013 202.009 215.004 175.013 202.009 219.131 139.837 200.055 
218.295 140.899 202.235 218.19 140.921 202.312 218.27 140.946 202.425 
217.882 141.245 202.272 218.374 141.075 202.758 218.922 141.049 202.894 
221.911 141.129 203.083 223.926 141.19 203.551 221.168 141.109 202.884 
224.646 141.715 203.176 226.122 143.66 202.848 226.688 145.025 203.187 
221.064 153.225 204.035 221.298 153.669 203.859 220.746 154.461 203.23 
212.08 157.262 202.48 223.98 156.045 202.611 222.705 158.212 200.931 
213.784 172.097 204.062 212.625 173.203 204.098 215.004 175.013 202.009 
217.557 141.603 203.111 217.939 141.343 202.942 223.736 140.755 204.257 
225.609 141.559 204.043 220.761 141.035 203.908 215.382 145.025 203.764 
221.337 151.995 204.84 221.617 151.672 205.16 213.451 152.803 203.388 
222.295 154.109 204.295 222.492 153.486 204.977 212.667 155.43 203.847 
223.329 154.722 204.805 223.751 155.741 203.298 210.78 171.791 204.178 
211.938 172.655 203.693 213.538 173.025 205.054 212.719 173.939 205.017 
212.524 174.167 205.147 217 139.009 205.017 217 139.009 205.017 
217 139.009 205.017 217 139.009 205.017 224.493 140.129 205.413 
225.285 140.181 205.597 217 139.009 205.017 223.041 140.39 205.164 
225.421 140.37 205.308 217.381 142.106 203.644 220.856 141.004 204.786 
226.344 141.176 205.142 216.512 143.185 204.697 216.322 143.319 204.91 
218.465 141.696 204.324 226.587 141.879 204.976 215.606 144.477 204.428 
215.045 146.994 204.587 214.727 147.691 204.199 214.824 147.647 204.477 
221.305 149.363 206.203 221.618 149.745 206.127 214.103 151.276 204.151 
214.484 150.774 204.596 214.028 152.03 204.366 222.174 151.007 206 
226.406 150.718 205.214 214.307 152.087 204.744 213.456 153.693 204.185 
225.674 152.853 204.948 225.075 154.026 204.655 212.048 157.079 204.505 
223.603 154.202 206.072 209.81 171.562 205.908 211.757 174.207 205.331 
212.288 174.369 205.34 212.496 175.207 206.257 213.086 174.51 206.073 
215.004 177.013 205.009 215.004 177.013 205.009 215.004 177.013 205.009 
215.004 177.013 205.009 215.004 177.013 205.009 217 139.009 205.017 
224.933 139.929 206.253 225.87 140.216 206.264 226.428 140.537 206.151 
226.258 140.374 206.273 226.434 140.524 206.422 223.559 140.067 205.818 
226.563 140.743 206.215 216.291 143.342 205.098 216.201 143.41 205.122 
216.163 143.466 204.963 215.97 143.874 204.885 226.85 141.888 205.96 
215.81 144.222 204.903 216.757 143.602 205.651 215.398 146.543 205.34 
227.122 146.967 205.81 220.491 148.578 206.536 220.878 148.441 206.617 
221.548 148.682 206.655 215.387 148.849 205.367 215.261 149.636 205.262 
222.246 149.214 206.895 215.74 149.58 205.613 216.05 150.608 205.637 
222.542 150.934 206.576 217.538 151.756 205.457 214.797 153.119 205.224 
212.783 156.049 204.85 213.292 155.622 205.129 224.634 154.177 205.831 
224.273 154.302 206.153 211.98 157.734 205.252 213.572 156.679 205.736 
[...]
POINT_DATA 2056
COLOR_SCALARS scalars 3
0.564706 0.796078 0.929412 0.564706 0.796078 0.929412 0.564706 0.796078 0.929412 
0.564706 0.796078 0.929412 0.564706 0.796078 0.929412 
0.564706 0.796078 0.929412 0.564706 0.796078 0.929412 
0.564706 0.796078 0.929412 0.564706 0.796078 0.929412 
0.564706 0.796078 0.929412 0.564706 0.796078 0.929412 
0.564706 0.796078 0.929412 0.564706 0.796078 0.929412 
0.564706 0.796078 0.929412 0.564706 0.796078 0.929412 
0.564706 0.796078 0.929412 0.564706 0.796078 0.929412 
0.564706 0.796078 0.929412 0.564706 0.796078 0.929412 
0.564706 0.796078 0.929412 0.564706 0.796078 0.929412 
0.564706 0.796078 0.929412 0.564706 0.796078 0.929412 
0.564706 0.796078 0.929412 0.564706 0.796078 0.929412 
0.564706 0.796078 0.929412 0.564706 0.796078 0.929412 
0.564706 0.796078 0.929412 0.564706 0.796078 0.929412 
0.564706 0.796078 0.929412 0.564706 0.796078 0.929412 
0.564706 0.796078 0.929412 0.564706 0.796078 0.929412 
0.564706 0.796078 0.929412 0.564706 0.796078 0.929412 
0.564706 0.796078 0.929412 0.564706 0.796078 0.929412 
0.564706 0.796078 0.929412 0.564706 0.796078 0.929412 
0.564706 0.796078 0.929412 0.564706 0.796078 0.929412 
0.564706 0.796078 0.929412 0.564706 0.796078 0.929412 
0.564706 0.796078 0.929412 0.564706 0.796078 0.929412 
0.564706 0.796078 0.929412 0.564706 0.796078 0.929412 
0.564706 0.796078 0.929412 0.564706 0.796078 0.929412 
0.564706 0.796078 0.929412 0.564706 0.796078 0.929412 
0.564706 0.796078 0.929412 0.564706 0.796078 0.929412 
0.564706 0.796078 0.929412 0.564706 0.796078 0.929412 
0.564706 0.796078 0.929412 0.564706 0.796078 0.929412 
0.564706 0.796078 0.929412 0.564706 0.796078 0.929412 
0.564706 0.796078 0.929412 0.564706 0.796078 0.929412 
0.564706 0.796078 0.929412 0.564706 0.796078 0.929412 
0.564706 0.796078 0.929412 0.564706 0.796078 0.929412 
0.564706 0.796078 0.929412 0.564706 0.796078 0.929412 
0.564706 0.796078 0.929412 0.564706 0.796078 0.929412 
0.564706 0.796078 0.929412 0.564706 0.796078 0.929412 
0.564706 0.796078 0.929412 0.564706 0.796078 0.929412 
0.564706 0.796078 0.929412 0.564706 0.796078 0.929412 
0.564706 0.796078 0.929412 0.564706 0.796078 0.929412 
0.564706 0.796078 0.929412 0.564706 0.796078 0.929412 
0.564706 0.796078 0.929412 0.564706 0.796078 0.929412 
0.564706 0.796078 0.929412 0.564706 0.796078 0.929412 
0.564706 0.796078 0.929412 0.564706 0.796078 0.929412 
0.564706 0.796078 0.929412 0.564706 0.796078 0.929412 
0.564706 0.796078 0.929412 0.564706 0.796078 0.929412 
0.564706 0.796078 0.929412 0.564706 0.796078 0.929412 
0.564706 0.796078 0.929412 0.564706 0.796078 0.929412 
0.564706 0.796078 0.929412 0.564706 0.796078 0.929412 
0.564706 0.796078 0.929412 0.564706 0.796078 0.929412 
0.564706 0.796078 0.929412 0.564706 0.796078 0.929412 
0.564706 0.796078 0.929412 0.564706 0.796078 0.929412 
0.564706 0.796078 0.929412 0.564706 0.796078 0.929412 
0.564706 0.796078 0.929412 0.564706 0.796078 0.929412 
0.564706 0.796078 0.929412 0.564706 0.796078 0.929412 
0.564706 0.796078 0.929412 0.564706 0.796078 0.929412 
0.564706 0.796078 0.929412 0.564706 0.796078 0.929412 
0.564706 0.796078 0.929412 0.564706 0.796078 0.929412 
0.564706 0.796078 0.929412 0.564706 0.796078 0.929412 
0.564706 0.796078 0.929412 0.564706 0.796078 0.929412 
0.564706 0.796078 0.929412 0.564706 0.796078 0.929412 
0.564706 0.796078 0.929412 0.564706 0.796078 0.929412 
0.564706 0.796078 0.929412 0.564706 0.796078 0.929412 
0.564706 0.796078 0.929412 0.564706 0.796078 0.929412 
0.564706 0.796078 0.929412 0.564706 0.796078 0.929412 
0.564706 0.796078 0.929412 0.564706 0.796078 0.929412 
0.564706 0.796078 0.929412 0.564706 0.796078 0.929412 
0.564706 0.796078 0.929412 0.564706 0.796078 0.929412 
0.564706 0.796078 0.929412 0.564706 0.796078 0.929412 
0.564706 0.796078 0.929412 0.564706 0.796078 0.929412 
0.564706 0.796078 0.929412 0.564706 0.796078 0.929412 
0.564706 0.796078 0.929412 0.564706 0.796078 0.929412 
0.564706 0.796078 0.929412 0.564706 0.796078 0.929412 
0.564706 0.796078 0.929412 0.564706 0.796078 0.929412 
0.564706 0.796078 0.929412 0.564706 0.796078 0.929412 
0.564706 0.796078 0.929412 0.564706 0.796078 0.929412 
0.564706 0.796078 0.929412 0.564706 0.796078 0.929412 
0.564706 0.796078 0.929412 0.564706 0.796078 0.929412 
0.564706 0.796078 0.929412 0.564706 0.796078 0.929412 
0.564706 0.796078 0.929412 0.564706 0.796078 0.929412 
0.564706 0.796078 0.929412 0.564706 0.796078 0.929412 
0.564706 0.796078 0.929412 0.564706 0.796078 0.929412 
0.564706 0.796078 0.929412 0.564706 0.796078 0.929412 
0.564706 0.796078 0.929412 0.564706 0.796078 0.929412 
0.564706 0.796078 0.929412 0.564706 0.796078 0.929412 
0.564706 0.796078 0.929412 0.564706 0.796078 0.929412 
0.564706 0.796078 0.929412 0.564706 0.796078 0.929412 
0.564706 0.796078 0.929412 0.564706 0.796078 0.929412 
0.564706 0.796078 0.929412 0.564706 0.796078 0.929412 
0.564706 0.796078 0.929412 0.564706 0.796078 0.929412 
0.564706 0.796078 0.929412 0.564706 0.796078 0.929412 
0.564706 0.796078 0.929412 0.564706 0.796078 0.929412 
0.564706 0.796078 0.929412 0.564706 0.796078 0.929412 
0.564706 0.796078 0.929412 0.564706 0.796078 0.929412 
0.564706 0.796078 0.929412 0.564706 0.796078 0.929412 
0.564706 0.796078 0.929412 0.564706 0.796078 0.929412 
0.564706 0.796078 0.929412 0.564706 0.796078 0.929412 
0.564706 0.796078 0.929412 0.564706 0.796078 0.929412 
0.564706 0.796078 0.929412 0.564706 0.796078 0.929412 
0.564706 0.796078 0.929412 0.564706 0.796078 0.929412 
0.564706 0.796078 0.929412 0.564706 0.796078 0.929412 
0.564706 0.796078 0.929412 0.564706 0.796078 0.929412 
0.564706 0.796078 0.929412 0.564706 0.796078 0.929412 
0.564706 0.796078 0.929412 0.564706 0.796078 0.929412 
0.564706 0.796078 0.929412 0.564706 0.796078 0.929412 
0.564706 0.796078 0.929412 0.564706 0.796078 0.929412 
0.564706 0.796078 0.929412 0.564706 0.796078 0.929412 
0.564706 0.796078 0.929412 0.564706 0.796078 0.929412 
0.564706 0.796078 0.929412 0.564706 0.796078 0.929412 
0.564706 0.796078 0.929412 0.564706 0.796078 0.929412 
0.564706 0.796078 0.929412 0.564706 0.796078 0.929412 
0.564706 0.796078 0.929412 0.564706 0.796078 0.929412 
0.564706 0.796078 0.929412 0.564706 0.796078 0.929412 
0.564706 0.796078 0.929412 0.564706 0.796078 0.929412 
0.564706 0.796078 0.929412 0.564706 0.796078 0.929412 
0.564706 0.796078 0.929412 0.564706 0.796078 0.929412 
0.564706 0.796078 0.929412 0.564706 0.796078 0.929412 
0.564706 0.796078 0.929412 0.564706 0.796078 0.929412 
0.564706 0.796078 0.929412 0.564706 0.796078 0.929412 
0.564706 0.796078 0.929412 0.564706 0.796078 0.929412 
0.564706 0.796078 0.929412 0.564706 0.796078 0.929412 
0.564706 0.796078 0.929412 0.564706 0.796078 0.929412 
0.564706 0.796078 0.929412 0.564706 0.796078 0.929412 
0.564706 0.796078 0.929412 0.564706 0.796078 0.929412 
0.564706 0.796078 0.929412 0.564706 0.796078 0.929412 
0.564706 0.796078 0.929412 0.564706 0.796078 0.929412 
0.564706 0.796078 0.929412 0.564706 0.796078 0.929412 
0.564706 0.796078 0.929412 0.564706 0.796078 0.929412 
0.564706 0.796078 0.929412 0.564706 0.796078 0.929412 
0.564706 0.796078 0.929412 0.564706 0.796078 0.929412 
0.564706 0.796078 0.929412 0.564706 0.796078 0.929412 
0.564706 0.796078 0.929412 0.564706 0.796078 0.929412 
0.564706 0.796078 0.929412 0.564706 0.796078 0.929412 
0.564706 0.796078 0.929412 0.564706 0.796078 0.929412 
0.564706 0.796078 0.929412 0.564706 0.796078 0.929412 
0.564706 0.796078 0.929412 0.564706 0.796078 0.929412 
0.564706 0.796078 0.929412 0.564706 0.796078 0.929412 
0.564706 0.796078 0.929412 0.564706 0.796078 0.929412 
0.564706 0.796078 0.929412 0.564706 0.796078 0.929412 
0.564706 0.796078 0.929412 0.564706 0.796078 0.929412 
0.564706 0.796078 0.929412 0.564706 0.796078 0.929412 
0.564706 0.796078 0.929412 0.564706 0.796078 0.929412 
0.564706 0.796078 0.929412 0.564706 0.796078 0.929412 
0.564706 0.796078 0.929412 0.564706 0.796078 0.929412 
0.564706 0.796078 0.929412 0.564706 0.796078 0.929412 
0.564706 0.796078 0.929412 0.564706 0.796078 0.929412 
0.564706 0.796078 0.929412 0.564706 0.796078 0.929412 
0.564706 0.796078 0.929412 0.564706 0.796078 0.929412 
0.564706 0.796078 0.929412 0.564706 0.796078 0.929412 
0.564706 0.796078 0.929412 0.564706 0.796078 0.929412 
0.564706 0.796078 0.929412 0.564706 0.796078 0.929412 
0.564706 0.796078 0.929412 0.564706 0.796078 0.929412 
0.564706 0.796078 0.929412 0.564706 0.796078 0.929412 
0.564706 0.796078 0.929412 0.564706 0.796078 0.929412 
0.564706 0.796078 0.929412 0.564706 0.796078 0.929412 
0.564706 0.796078 0.929412 0.564706 0.796078 0.929412 
0.564706 0.796078 0.929412 0.564706 0.796078 0.929412 
0.564706 0.796078 0.929412 0.564706 0.796078 0.929412 
0.564706 0.796078 0.929412 0.564706 0.796078 0.929412 
0.564706 0.796078 0.929412 0.564706 0.796078 0.929412 
0.564706 0.796078 0.929412 0.564706 0.796078 0.929412 
0.564706 0.796078 0.929412 0.564706 0.796078 0.929412 
0.564706 0.796078 0.929412 0.564706 0.796078 0.929412 
0.564706 0.796078 0.929412 0.564706 0.796078 0.929412 
0.564706 0.796078 0.929412 0.564706 0.796078 0.929412 
0.564706 0.796078 0.929412 0.564706 0.796078 0.929412 
0.564706 0.796078 0.929412 0.564706 0.796078 0.929412 
0.564706 0.796078 0.929412 0.564706 0.796078 0.929412 
0.564706 0.796078 0.929412 0.564706 0.796078 0.929412 
0.564706 0.796078 0.929412 0.564706 0.796078 0.929412 
0.564706 0.796078 0.929412 0.564706 0.796078 0.929412 
0.564706 0.796078 0.929412 0.564706 0.796078 0.929412 
0.564706 0.796078 0.929412 0.564706 0.796078 0.929412 
0.564706 0.796078 0.929412 0.564706 0.796078 0.929412 
0.564706 0.796078 0.929412 0.564706 0.796078 0.929412 
0.564706 0.796078 0.929412 0.564706 0.796078 0.929412 
0.564706 0.796078 0.929412 0.564706 0.796078 0.929412 
0.564706 0.796078 0.929412 0.564706 0.796078 0.929412 
0.564706 0.796078 0.929412 0.564706 0.796078 0.929412 
0.564706 0.796078 0.929412 0.564706 0.796078 0.929412 
0.564706 0.796078 0.929412 0.564706 0.796078 0.929412 
0.564706 0.796078 0.929412 0.564706 0.796078 0.929412 
0.564706 0.796078 0.929412 0.564706 0.796078 0.929412 
0.564706 0.796078 0.929412 0.564706 0.796078 0.929412 
0.564706 0.796078 0.929412 0.564706 0.796078 0.929412 
0.564706 0.796078 0.929412 0.564706 0.796078 0.929412 
0.564706 0.796078 0.929412 0.564706 0.796078 0.929412 
0.564706 0.796078 0.929412 0.564706 0.796078 0.929412 
0.564706 0.796078 0.929412 0.564706 0.796078 0.929412 
0.564706 0.796078 0.929412 0.564706 0.796078 0.929412 
0.564706 0.796078 0.929412 0.564706 0.796078 0.929412 
0.564706 0.796078 0.929412 0.564706 0.796078 0.929412 
0.564706 0.796078 0.929412 0.564706 0.796078 0.929412 
0.564706 0.796078 0.929412 0.564706 0.796078 0.929412 
0.564706 0.796078 0.929412 0.564706 0.796078 0.929412 
0.564706 0.796078 0.929412 0.564706 0.796078 0.929412 
0.564706 0.796078 0.929412 0.564706 0.796078 0.929412 
0.564706 0.796078 0.929412 0.564706 0.796078 0.929412 
0.564706 0.796078 0.929412 0.564706 0.796078 0.929412 
0.564706 0.796078 0.929412 0.564706 0.796078 0.929412 
0.564706 0.796078 0.929412 0.564706 0.796078 0.929412 
0.564706 0.796078 0.929412 0.564706 0.796078 0.929412 
0.564706 0.796078 0.929412 0.564706 0.796078 0.929412 
0.564706 0.796078 0.929412 0.564706 0.796078 0.929412 
0.564706 0.796078 0.929412 0.564706 0.796078 0.929412 
0.564706 0.796078 0.929412 0.564706 0.796078 0.929412 
0.564706 0.796078 0.929412 0.564706 0.796078 0.929412 
0.564706 0.796078 0.929412 0.564706 0.796078 0.929412 
0.564706 0.796078 0.929412 0.564706 0.796078 0.929412 
0.564706 0.796078 0.929412 0.564706 0.796078 0.929412 
0.564706 0.796078 0.929412 0.564706 0.796078 0.929412 
0.564706 0.796078 0.929412 0.564706 0.796078 0.929412 
0.564706 0.796078 0.929412 0.564706 0.796078 0.929412 
0.564706 0.796078 0.929412 0.564706 0.796078 0.929412 
0.564706 0.796078 0.929412 0.564706 0.796078 0.929412 
0.564706 0.796078 0.929412 0.564706 0.796078 0.929412 
0.564706 0.796078 0.929412 0.564706 0.796078 0.929412 
0.564706 0.796078 0.929412 0.564706 0.796078 0.929412 
0.564706 0.796078 0.929412 0.564706 0.796078 0.929412 
0.564706 0.796078 0.929412 0.564706 0.796078 0.929412 
0.564706 0.796078 0.929412 0.564706 0.796078 0.929412 
0.564706 0.796078 0.929412 0.564706 0.796078 0.929412 
0.564706 0.796078 0.929412 0.564706 0.796078 0.929412 
0.564706 0.796078 0.929412 0.564706 0.796078 0.929412 
0.564706 0.796078 0.929412 0.564706 0.796078 0.929412 
0.564706 0.796078 0.929412 0.564706 0.796078 0.929412 
0.564706 0.796078 0.929412 0.564706 0.796078 0.929412 
0.564706 0.796078 0.929412 0.564706 0.796078 0.929412 
0.564706 0.796078 0.929412 0.564706 0.796078 0.929412 
0.564706 0.796078 0.929412 0.564706 0.796078 0.929412 
0.564706 0.796078 0.929412 0.564706 0.796078 0.929412 
0.564706 0.796078 0.929412 0.564706 0.796078 0.929412 
0.564706 0.796078 0.929412 0.564706 0.796078 0.929412 
0.564706 0.796078 0.929412 0.564706 0.796078 0.929412 
0.564706 0.796078 0.929412 0.564706 0.796078 0.929412 
0.564706 0.796078 0.929412 0.564706 0.796078 0.929412 
0.564706 0.796078 0.929412 0.564706 0.796078 0.929412 
0.564706 0.796078 0.929412 0.564706 0.796078 0.929412 
0.564706 0.796078 0.929412 0.564706 0.796078 0.929412 
0.564706 0.796078 0.929412 0.564706 0.796078 0.929412 
0.564706 0.796078 0.929412 0.564706 0.796078 0.929412 
0.564706 0.796078 0.929412 0.564706 0.796078 0.929412 
0.564706 0.796078 0.929412 0.564706 0.796078 0.929412 
0.564706 0.796078 0.929412 0.564706 0.796078 0.929412 
0.564706 0.796078 0.929412 0.564706 0.796078 0.929412 
0.564706 0.796078 0.929412 0.564706 0.796078 0.929412 
0.564706 0.796078 0.929412 0.564706 0.796078 0.929412 
0.564706 0.796078 0.929412 0.564706 0.796078 0.929412 
0.564706 0.796078 0.929412 0.564706 0.796078 0.929412 
0.564706 0.796078 0.929412 0.564706 0.796078 0.929412 
0.564706 0.796078 0.929412 0.564706 0.796078 0.929412 
0.564706 0.796078 0.929412 0.564706 0.796078 0.929412 
0.564706 0.796078 0.929412 0.564706 0.796078 0.929412 
0.564706 0.796078 0.929412 0.564706 0.796078 0.929412 
0.564706 0.796078 0.929412 0.564706 0.796078 0.929412 
0.564706 0.796078 0.929412 0.564706 0.796078 0.929412 
0.564706 0.796078 0.929412 0.564706 0.796078 0.929412 
0.564706 0.796078 0.929412 0.564706 0.796078 0.929412 
0.564706 0.796078 0.929412 0.564706 0.796078 0.929412 
0.564706 0.796078 0.929412 0.564706 0.796078 0.929412 
0.564706 0.796078 0.929412 0.564706 0.796078 0.929412 
0.564706 0.796078 0.929412 0.564706 0.796078 0.929412 
0.564706 0.796078 0.929412 0.564706 0.796078 0.929412 
0.564706 0.796078 0.929412 0.564706 0.796078 0.929412 
0.564706 0.796078 0.929412 0.564706 0.796078 0.929412 
0.564706 0.796078 0.929412 0.564706 0.796078 0.929412 
0.564706 0.796078 0.929412 0.564706 0.796078 0.929412 
0.564706 0.796078 0.929412 0.564706 0.796078 0.929412 
0.564706 0.796078 0.929412 0.564706 0.796078 0.929412 
0.564706 0.796078 0.929412 0.564706 0.796078 0.929412 
0.564706 0.796078 0.929412 0.564706 0.796078 0.929412 
0.564706 0.796078 0.929412 0.564706 0.796078 0.929412 
0.564706 0.796078 0.929412 0.564706 0.796078 0.929412 
0.564706 0.796078 0.929412 0.564706 0.796078 0.929412 
0.564706 0.796078 0.929412 0.564706 0.796078 0.929412 
0.564706 0.796078 0.929412 0.564706 0.796078 0.929412 
0.564706 0.796078 0.929412 0.564706 0.796078 0.929412 
0.564706 0.796078 0.929412 0.564706 0.796078 0.929412 
0.564706 0.796078 0.929412 0.564706 0.796078 0.929412 
0.564706 0.796078 0.929412 0.564706 0.796078 0.929412 
0.564706 0.796078 0.929412 0.564706 0.796078 0.929412 
0.564706 0.796078 0.929412 0.564706 0.796078 0.929412 
0.564706 0.796078 0.929412 0.564706 0.796078 0.929412 
0.564706 0.796078 0.929412 0.564706 0.796078 0.929412 
0.564706 0.796078 0.929412 0.564706 0.796078 0.929412 
0.564706 0.796078 0.929412 0.564706 0.796078 0.929412 
0.564706 0.796078 0.929412 0.564706 0.796078 0.929412 
0.564706 0.796078 0.929412 0.564706 0.796078 0.929412 
0.564706 0.796078 0.929412 0.564706 0.796078 0.929412 
0.564706 0.796078 0.929412 0.564706 0.796078 0.929412 
0.564706 0.796078 0.929412 0.564706 0.796078 0.929412 
0.564706 0.796078 0.929412 0.564706 0.796078 0.929412 
0.564706 0.796078 0.929412 0.564706 0.796078 0.929412 
0.564706 0.796078 0.929412 0.564706 0.796078 0.929412 
0.564706 0.796078 0.929412 0.564706 0.796078 0.929412 
0.564706 0.796078 0.929412 0.564706 0.796078 0.929412 
0.564706 0.796078 0.929412 0.564706 0.796078 0.929412 
0.564706 0.796078 0.929412 0.564706 0.796078 0.929412 
0.564706 0.796078 0.929412 0.564706 0.796078 0.929412 
0.564706 0.796078 0.929412 0.564706 0.796078 0.929412 
0.564706 0.796078 0.929412 0.564706 0.796078 0.929412 
0.564706 0.796078 0.929412 0.564706 0.796078 0.929412 
0.564706 0.796078 0.929412 0.564706 0.796078 0.929412 
0.564706 0.796078 0.929412 0.564706 0.796078 0.929412 
0.564706 0.796078 0.929412 0.564706 0.796078 0.929412 
0.564706 0.796078 0.929412 0.564706 0.796078 0.929412 
0.564706 0.796078 0.929412 0.564706 0.796078 0.929412 
0.564706 0.796078 0.929412 0.564706 0.796078 0.929412 
0.564706 0.796078 0.929412 0.564706 0.796078 0.929412 
0.564706 0.796078 0.929412 0.564706 0.796078 0.929412 
0.564706 0.796078 0.929412 0.564706 0.796078 0.929412 
0.564706 0.796078 0.929412 0.564706 0.796078 0.929412 
0.564706 0.796078 0.929412 0.564706 0.796078 0.929412 
0.564706 0.796078 0.929412 0.564706 0.796078 0.929412 
0.564706 0.796078 0.929412 0.564706 0.796078 0.929412 
0.564706 0.796078 0.929412 0.564706 0.796078 0.929412 
0.564706 0.796078 0.929412 0.564706 0.796078 0.929412 
0.564706 0.796078 0.929412 0.564706 0.796078 0.929412 
0.564706 0.796078 0.929412 0.564706 0.796078 0.929412 
0.564706 0.796078 0.929412 0.564706 0.796078 0.929412 
0.564706 0.796078 0.929412 0.564706 0.796078 0.929412 
0.564706 0.796078 0.929412 0.564706 0.796078 0.929412 
0.564706 0.796078 0.929412 0.564706 0.796078 0.929412 
0.564706 0.796078 0.929412 0.564706 0.796078 0.929412 
0.564706 0.796078 0.929412 0.564706 0.796078 0.929412 
0.564706 0.796078 0.929412 0.564706 0.796078 0.929412 
0.564706 0.796078 0.929412 0.564706 0.796078 0.929412 
0.564706 0.796078 0.929412 0.564706 0.796078 0.929412 
0.564706 0.796078 0.929412 0.564706 0.796078 0.929412 
0.564706 0.796078 0.929412 0.564706 0.796078 0.929412 
0.564706 0.796078 0.929412 0.564706 0.796078 0.929412 
0.564706 0.796078 0.929412 0.564706 0.796078 0.929412 
0.564706 0.796078 0.929412 0.564706 0.796078 0.929412 
0.564706 0.796078 0.929412 0.564706 0.796078 0.929412 
0.564706 0.796078 0.929412 0.564706 0.796078 0.929412 
0.564706 0.796078 0.929412 0.564706 0.796078 0.929412 
0.564706 0.796078 0.929412 0.564706 0.796078 0.929412 
0.564706 0.796078 0.929412 0.564706 0.796078 0.929412 
0.564706 0.796078 0.929412 0.564706 0.796078 0.929412 
0.564706 0.796078 0.929412 0.564706 0.796078 0.929412 
0.564706 0.796078 0.929412 0.564706 0.796078 0.929412 
0.564706 0.796078 0.929412 0.564706 0.796078 0.929412 
0.564706 0.796078 0.929412 0.564706 0.796078 0.929412 
0.564706 0.796078 0.929412 0.564706 0.796078 0.929412 
0.564706 0.796078 0.929412 0.564706 0.796078 0.929412 
0.564706 0.796078 0.929412 0.564706 0.796078 0.929412 
0.564706 0.796078 0.929412 0.564706 0.796078 0.929412 
0.564706 0.796078 0.929412 0.564706 0.796078 0.929412 
0.564706 0.796078 0.929412 0.564706 0.796078 0.929412 
0.564706 0.796078 0.929412 0.564706 0.796078 0.929412 
0.564706 0.796078 0.929412 0.564706 0.796078 0.929412 
0.564706 0.796078 0.929412 0.564706 0.796078 0.929412 
0.564706 0.796078 0.929412 0.564706 0.796078 0.929412 
0.564706 0.796078 0.929412 0.564706 0.796078 0.929412 
0.564706 0.796078 0.929412 0.564706 0.796078 0.929412 
0.564706 0.796078 0.929412 0.564706 0.796078 0.929412 
0.564706 0.796078 0.929412 0.564706 0.796078 0.929412 
0.564706 0.796078 0.929412 0.564706 0.796078 0.929412 
0.564706 0.796078 0.929412 0.564706 0.796078 0.929412 
0.564706 0.796078 0.929412 0.564706 0.796078 0.929412 
0.564706 0.796078 0.929412 0.564706 0.796078 0.929412 
0.564706 0.796078 0.929412 0.564706 0.796078 0.929412 
0.564706 0.796078 0.929412 0.564706 0.796078 0.929412 
0.564706 0.796078 0.929412 0.564706 0.796078 0.929412 