# vtk DataFile Version 4.2
vtk output
ASCII
DATASET POLYDATA
POINTS 1750 float
189.651 259.175 129.528 190.111 259.286 129.547 188.924 259.561 129.541 
185.785 257.517 130.576 185.978 257.443 130.607 185.951 257.642 130.501 
186.997 257.916 130.24 187.168 258.343 130.071 188.19 258.07 130.078 
192.963 259.542 130.212 193.901 259.66 130.537 187.517 259.627 129.925 
193.376 260.093 130.272 189.328 260.432 129.802 192.422 260.43 130.082 
193.063 260.352 130.228 191.523 260.947 130.126 186.455 257.621 130.48 
187.257 257.575 130.451 189.804 257.696 130.549 185.529 258.597 130.565 
185.753 259.2 130.463 195.121 259.907 131.119 195.442 259.751 131.377 
186.15 259.441 130.329 186.804 260.37 130.418 193.621 261.026 130.708 
195.476 260.488 131.428 185.104 256.558 131.653 194.945 259.073 131.487 
195.585 259.418 131.717 196.053 259.638 132.057 195.812 260.626 131.769 
196.089 260.492 132.054 181.292 256.593 133.289 186.387 255.903 132.275 
193.75 258.011 131.846 196.643 259.747 133.025 181.153 255.976 133.976 
189.008 255.667 133.318 190.353 256.069 133.296 180.805 257.238 133.496 
180.735 257.715 133.437 181.809 257.634 132.673 193.019 257.268 132.681 
180.967 258.049 133.229 194.514 257.836 132.862 195.721 258.492 132.934 
196.244 259.006 132.87 181.485 258.99 133.011 196.672 259.441 133.362 
180.497 255.913 135.069 181.073 255.582 134.893 183.473 255.319 133.605 
188.662 255.344 134.144 194.484 257.606 133.457 196.978 260.802 134.252 
196.645 261.996 133.935 187.265 254.873 135.167 179.224 257.588 135.267 
179.01 257.458 135.695 194.993 257.749 134.225 197.078 260.899 134.92 
197.096 260.381 135.254 193.052 268.235 135.533 195.377 269.507 136.295 
195.471 269.364 136.275 181.957 254.995 136.499 183.597 254.734 135.404 
184.086 254.68 135.813 187.694 255.03 135.839 179.842 256.16 135.98 
190.989 256.007 135.252 178.509 257.692 136.624 197.021 259.994 135.467 
197.047 260.277 135.8 197.198 262.656 136.31 194.918 266.858 135.222 
196.938 267.156 136.472 195.905 269.279 136.469 196.264 269.893 136.954 
196.906 269.702 137.192 189.039 255.541 136.232 176.584 260.311 138.129 
195.3 270.71 137.264 197.876 270.106 138.379 196.603 271.434 138.271 
197.367 270.934 138.286 197.677 270.694 138.434 182.986 255.108 137.7 
180.721 255.672 137.776 185.01 255.216 137.686 179.265 256.588 137.531 
191.319 256.938 137.799 193.739 257.888 137.826 177.429 258.451 138.16 
196.53 259.903 137.277 176.249 260.197 138.563 176.008 259.925 139.109 
176.546 261.101 138.164 177.436 261.841 137.656 197.754 264.399 138.16 
195.541 271.686 138.214 195.202 271.898 138.457 197.583 271.062 138.636 
181.188 255.763 138.544 177.611 258.143 138.386 175.75 259.781 139.725 
176.115 259.404 139.609 175.552 261.268 139.219 197.685 263.899 138.725 
179.086 264.76 138.601 198.328 267.469 138.603 198.332 270.34 139.488 
197.47 271.845 139.509 197.309 272.243 140.018 181.397 256.213 139.371 
176.365 259.069 139.819 198.56 268.631 139.571 195.579 272.775 139.862 
197.952 271.737 140.336 196.593 273.005 140.833 197.644 272.148 140.407 
176.496 258.973 141.395 177.334 258.475 140.92 195.827 259.966 139.326 
174.835 260.035 141.491 193.254 259.349 141.162 194.785 259.94 140.897 
195.323 260.161 140.522 174.357 261.22 140.882 173.612 261.898 141.781 
173.941 261.644 141.355 174.642 261.891 140.586 197.253 263.555 140.993 
184.95 270.454 141.082 195.874 273.866 141.993 173.201 261.482 142.443 
173.227 261.659 142.383 173.233 262.011 142.485 176.343 264.988 141.476 
198.513 268.862 140.99 177.362 258.826 142.563 175.995 259.537 142.97 
178 258.812 142.546 173.22 261.831 142.913 173.47 261.347 143.134 
173.155 262.306 142.815 173.149 262.138 142.759 173.589 262.837 142.534 
196.587 263.049 142.16 181.888 269.887 142.742 197.935 272.686 143.353 
190.5 273.077 143.384 192.897 273.763 142.564 197.461 274.109 143.972 
173.353 261.685 143.334 173.564 261.616 143.694 192.919 260.66 143.477 
194.933 262.012 143.669 173.919 263.78 143.235 175.035 264.912 143.648 
175.741 265.478 143.13 178.965 268.435 143.991 183.983 271.434 143.998 
197.738 274.661 144.845 197.675 275.056 145.136 197.455 275.387 145.397 
197.798 275.245 145.513 175.772 259.969 143.816 173.783 261.409 143.892 
173.47 262.399 143.778 173.666 262.64 144.081 173.778 263.386 143.771 
195.542 264.642 144.881 174.401 264.32 143.983 174.798 264.625 144.046 
181.411 270.497 144.694 183.69 271.634 145.312 185.396 272.039 144.997 
190.203 272.702 145.183 186.484 272.163 145.16 191.547 273.251 145.529 
193.078 274.33 145.55 197.972 274.604 145.197 195.584 275.615 145.608 
196.434 275.436 145.075 176.286 260.508 144.609 190.851 261.278 144.973 
173.931 261.94 144.353 175.645 262.958 145.592 175.782 262.445 145.557 
175.013 263.342 145.201 187.143 261.903 146.413 174.222 263.129 144.613 
174.479 263.73 144.555 175.167 263.955 145.053 174.477 264.189 144.232 
177.183 264.489 146.417 176.08 265.563 144.526 177.326 265.329 146.358 
177.242 266.38 145.49 180.96 270.532 145.784 182.465 271.255 145.809 
190.414 271.832 146.452 183.759 271.643 146.055 194.871 275.554 146.218 
197.732 275.86 146.376 198.201 276.491 147.317 198.308 276.528 147.339 
198.322 276.505 147.375 198.268 276.539 147.444 176.161 261.884 145.446 
192.44 261.807 145.027 174.73 262.34 144.986 178.858 262.105 146.396 
174.74 262.934 145.074 177.665 263.974 146.726 178.427 263.702 147.208 
178.262 264.596 147.35 179.51 269.461 146.745 189.468 270.257 147.291 
180.046 269.964 146.488 190.937 271.461 146.963 181.001 270.591 146.342 
181.742 270.968 146.521 186.858 271.34 146.829 192.218 273.207 146.776 
192.448 273.608 146.539 198.167 275.23 147.064 193.671 274.772 147.43 
198.179 275.971 147.475 194.24 275.327 147.217 197.338 276.357 147.047 
197.921 276.251 147.083 198.298 276.488 147.498 198.027 276.525 147.508 
198.173 276.516 147.705 179.138 263.499 147.69 179.737 263.378 148.181 
180.535 263.03 148.465 179.125 264.704 148.584 178.733 266.015 148.083 
179.031 265.519 148.726 179.184 267.234 148.504 189.377 268.588 148.044 
191.203 268.609 147.843 193.351 267.981 147.636 194.413 268.456 147.512 
188.185 269.083 148.156 194.928 268.651 147.367 191.72 270.258 147.683 
186.365 270.22 148.096 182.242 271.013 147.495 192.274 272.916 147.121 
184.257 271.4 147.55 197.9 274.292 148.012 198.247 276.37 147.641 
198.118 276.367 148.174 197.444 276.678 147.987 197.813 276.619 148.001 
182.192 262.799 149.2 183.045 262.674 149.059 187.076 263.002 148.106 
179.269 265.787 149.514 189.403 266.15 148.464 179.372 266.459 149.697 
187.931 267.564 148.923 193.18 269.586 147.986 193.765 269.315 147.929 
193.1 270.372 148.061 194.633 270.273 148.194 180.82 269.83 148.377 
194.177 271.402 148.554 194.501 270.806 148.415 195.787 270.641 148.021 
181.757 270.516 148.267 183.765 270.67 148.52 193.087 272.081 148.134 
196.945 272.198 148.034 182.017 270.766 148.003 182.542 270.867 148.046 
197.55 273.745 148.413 194.368 275.495 148.541 194.719 275.911 148.995 
197.835 276.708 148.598 197.982 276.748 148.868 198.066 276.721 148.906 
197.966 276.708 149.029 180.6 263.695 150.232 181.166 263.376 150.132 
184.504 262.959 149.428 186.924 263.52 148.851 187.237 264.102 149.236 
179.605 264.668 149.923 187.043 264.901 149.791 187.031 264.373 149.588 
179.442 265.265 150.17 186.934 265.707 149.986 179.601 266.778 150.455 
186.658 266.753 150.033 180.003 267.585 150.214 180.999 268.972 149.636 
181.269 268.633 150.388 182.37 269.445 149.878 194.839 272.072 148.891 
196.211 272.158 148.645 197.054 273.467 148.963 194.306 273.952 149.168 
197.304 273.742 148.864 194.15 274.926 148.929 194.258 275.273 148.869 
194.59 275.505 149.269 197.765 275.207 149.06 194.708 275.934 149.422 
194.74 276.054 149.399 194.694 275.938 149.305 197.817 275.696 149.143 
194.886 276.132 149.281 195.225 276.296 149.261 197.013 276.762 149.188 
198.072 276.634 148.925 197.383 276.749 149.189 197.701 276.623 149.256 
182.15 263.264 150.801 180.395 264.031 151.764 179.703 264.667 151.033 
179.417 265.473 150.927 186.435 265.613 150.429 186.158 265.263 150.646 
179.388 266.106 151.312 185.791 266.352 150.876 179.892 267.034 151.692 
185.246 267.16 150.942 180.482 267.571 151.479 184.952 267.752 150.767 
182.138 268.222 151.35 182.723 268.188 151.395 196.07 272.823 149.111 
195.658 273.677 149.667 196.635 273.359 149.179 195.202 274.224 149.713 
196.453 274.393 149.813 194.863 275.424 149.586 197.185 275.486 149.681 
194.823 276.077 149.448 194.885 275.935 149.505 195.034 275.701 149.614 
197.51 275.775 149.516 196.6 276.515 149.511 197.768 276.362 149.332 
197.527 276.428 149.484 173 262.009 152.017 173 262.009 152.017 
173 262.009 152.017 173 262.009 152.017 173 262.009 152.017 
182.479 263.327 151.126 183.479 263.506 151.237 185.014 263.833 150.605 
179.323 264.796 152.02 179.148 265.909 152.08 185.189 266.062 151.473 
179.383 266.475 152.293 180.035 267.077 152.414 181.122 267.718 151.92 
181.368 267.536 152.534 196.523 274.823 149.86 195.281 276.046 149.597 
196.74 275.988 149.764 197.164 275.874 149.705 173 262.009 152.017 
173.693 263.167 154.589 173.974 263.243 154.522 174.199 263.31 154.48 
174.452 263.391 154.453 174.567 263.418 154.447 174.675 263.454 154.442 
177.113 264.297 154.425 178.734 264.553 153.251 178.745 264.207 153.952 
181.021 263.927 153.076 182.389 263.807 152.383 177.147 264.676 154.179 
178.055 264.965 153.524 184.409 265.545 152.232 177.685 265.432 153.881 
178.814 266.401 153.557 183.654 266.642 152.492 180.203 267.097 153.446 
182.373 267.313 152.765 173.448 263.094 154.64 173.462 263.1 154.636 
175.227 263.736 154.735 175.202 263.868 154.725 175.172 264.026 155.038 
176.186 264.225 154.628 176.657 264.042 154.991 175.699 264.307 154.851 
180.785 267.08 154.217 173.287 263.063 154.732 173.802 263.252 154.741 
174.5 263.561 154.88 173.837 263.281 154.762 175.539 264.029 155.529 
175.416 264.317 155.428 181.401 264.209 154.216 182.466 264.798 154.146 
175.665 264.733 155.319 183.001 265.028 153.69 182.512 265.957 154.437 
182.264 266.293 154.541 173.208 263.053 154.807 173.418 263.128 154.797 
[...]
POINT_DATA 1750
COLOR_SCALARS scalars 3
0.635294 0.694118 0.847059 0.635294 0.694118 0.847059 0.635294 0.694118 0.847059 
0.635294 0.694118 0.847059 0.635294 0.694118 0.847059 
0.635294 0.694118 0.847059 0.635294 0.694118 0.847059 
0.635294 0.694118 0.847059 0.635294 0.694118 0.847059 
0.635294 0.694118 0.847059 0.635294 0.694118 0.847059 
0.635294 0.694118 0.847059 0.635294 0.694118 0.847059 
0.635294 0.694118 0.847059 0.635294 0.694118 0.847059 
0.635294 0.694118 0.847059 0.635294 0.694118 0.847059 
0.635294 0.694118 0.847059 0.635294 0.694118 0.847059 
0.635294 0.694118 0.847059 0.635294 0.694118 0.847059 
0.635294 0.694118 0.847059 0.635294 0.694118 0.847059 
0.635294 0.694118 0.847059 0.635294 0.694118 0.847059 
0.635294 0.694118 0.847059 0.635294 0.694118 0.847059 
0.635294 0.694118 0.847059 0.635294 0.694118 0.847059 
0.635294 0.694118 0.847059 0.635294 0.694118 0.847059 
0.635294 0.694118 0.847059 0.635294 0.694118 0.847059 
0.635294 0.694118 0.847059 0.635294 0.694118 0.847059 
0.635294 0.694118 0.847059 0.635294 0.694118 0.847059 
0.635294 0.694118 0.847059 0.635294 0.694118 0.847059 
0.635294 0.694118 0.847059 0.635294 0.694118 0.847059 
0.635294 0.694118 0.847059 0.635294 0.694118 0.847059 
0.635294 0.694118 0.847059 0.635294 0.694118 0.847059 
0.635294 0.694118 0.847059 0.635294 0.694118 0.847059 
0.635294 0.694118 0.847059 0.635294 0.694118 0.847059 
0.635294 0.694118 0.847059 0.635294 0.694118 0.847059 
0.635294 0.694118 0.847059 0.635294 0.694118 0.847059 
0.635294 0.694118 0.847059 0.635294 0.694118 0.847059 
0.635294 0.694118 0.847059 0.635294 0.694118 0.847059 
0.635294 0.694118 0.847059 0.635294 0.694118 0.847059 
0.635294 0.694118 0.847059 0.635294 0.694118 0.847059 
0.635294 0.694118 0.847059 0.635294 0.694118 0.847059 
0.635294 0.694118 0.847059 0.635294 0.694118 0.847059 
0.635294 0.694118 0.847059 0.635294 0.694118 0.847059 
0.635294 0.694118 0.847059 0.635294 0.694118 0.847059 
0.635294 0.694118 0.847059 0.635294 0.694118 0.847059 
0.635294 0.694118 0.847059 0.635294 0.694118 0.847059 
0.635294 0.694118 0.847059 0.635294 0.694118 0.847059 
0.635294 0.694118 0.847059 0.635294 0.694118 0.847059 
0.635294 0.694118 0.847059 0.635294 0.694118 0.847059 
0.635294 0.694118 0.847059 0.635294 0.694118 0.847059 
0.635294 0.694118 0.847059 0.635294 0.694118 0.847059 
0.635294 0.694118 0.847059 0.635294 0.694118 0.847059 
0.635294 0.694118 0.847059 0.635294 0.694118 0.847059 
0.635294 0.694118 0.847059 0.635294 0.694118 0.847059 
0.635294 0.694118 0.847059 0.635294 0.694118 0.847059 
0.635294 0.694118 0.847059 0.635294 0.694118 0.847059 
0.635294 0.694118 0.847059 0.635294 0.694118 0.847059 
0.635294 0.694118 0.847059 0.635294 0.694118 0.847059 
0.635294 0.694118 0.847059 0.635294 0.694118 0.847059 
0.635294 0.694118 0.847059 0.635294 0.694118 0.847059 
0.635294 0.694118 0.847059 0.635294 0.694118 0.847059 
0.635294 0.694118 0.847059 0.635294 0.694118 0.847059 
0.635294 0.694118 0.847059 0.635294 0.694118 0.847059 
0.635294 0.694118 0.847059 0.635294 0.694118 0.847059 
0.635294 0.694118 0.847059 0.635294 0.694118 0.847059 
0.635294 0.694118 0.847059 0.635294 0.694118 0.847059 
0.635294 0.694118 0.847059 0.635294 0.694118 0.847059 
0.635294 0.694118 0.847059 0.635294 0.694118 0.847059 
0.635294 0.694118 0.847059 0.635294 0.694118 0.847059 
0.635294 0.694118 0.847059 0.635294 0.694118 0.847059 
0.635294 0.694118 0.847059 0.635294 0.694118 0.847059 
0.635294 0.694118 0.847059 0.635294 0.694118 0.847059 
0.635294 0.694118 0.847059 0.635294 0.694118 0.847059 
0.635294 0.694118 0.847059 0.635294 0.694118 0.847059 
0.635294 0.694118 0.847059 0.635294 0.694118 0.847059 
0.635294 0.694118 0.847059 0.635294 0.694118 0.847059 
0.635294 0.694118 0.847059 0.635294 0.694118 0.847059 
0.635294 0.694118 0.847059 0.635294 0.694118 0.847059 
0.635294 0.694118 0.847059 0.635294 0.694118 0.847059 
0.635294 0.694118 0.847059 0.635294 0.694118 0.847059 
0.635294 0.694118 0.847059 0.635294 0.694118 0.847059 
0.635294 0.694118 0.847059 0.635294 0.694118 0.847059 
0.635294 0.694118 0.847059 0.635294 0.694118 0.847059 
0.635294 0.694118 0.847059 0.635294 0.694118 0.847059 
0.635294 0.694118 0.847059 0.635294 0.694118 0.847059 
0.635294 0.694118 0.847059 0.635294 0.694118 0.847059 
0.635294 0.694118 0.847059 0.635294 0.694118 0.847059 
0.635294 0.694118 0.847059 0.635294 0.694118 0.847059 
0.635294 0.694118 0.847059 0.635294 0.694118 0.847059 
0.635294 0.694118 0.847059 0.635294 0.694118 0.847059 
0.635294 0.694118 0.847059 0.635294 0.694118 0.847059 
0.635294 0.694118 0.847059 0.635294 0.694118 0.847059 
0.635294 0.694118 0.847059 0.635294 0.694118 0.847059 
0.635294 0.694118 0.847059 0.635294 0.694118 0.847059 
0.635294 0.694118 0.847059 0.635294 0.694118 0.847059 
0.635294 0.694118 0.847059 0.635294 0.694118 0.847059 
0.635294 0.694118 0.847059 0.635294 0.694118 0.847059 
0.635294 0.694118 0.847059 0.635294 0.694118 0.847059 
0.635294 0.694118 0.847059 0.635294 0.694118 0.847059 
0.635294 0.694118 0.847059 0.635294 0.694118 0.847059 
0.635294 0.694118 0.847059 0.635294 0.694118 0.847059 
0.635294 0.694118 0.847059 0.635294 0.694118 0.847059 
0.635294 0.694118 0.847059 0.635294 0.694118 0.847059 
0.635294 0.694118 0.847059 0.635294 0.694118 0.847059 
0.635294 0.694118 0.847059 0.635294 0.694118 0.847059 
0.635294 0.694118 0.847059 0.635294 0.694118 0.847059 
0.635294 0.694118 0.847059 0.635294 0.694118 0.847059 
0.635294 0.694118 0.847059 0.635294 0.694118 0.847059 
0.635294 0.694118 0.847059 0.635294 0.694118 0.847059 
0.635294 0.694118 0.847059 0.635294 0.694118 0.847059 
0.635294 0.694118 0.847059 0.635294 0.694118 0.847059 
0.635294 0.694118 0.847059 0.635294 0.694118 0.847059 
0.635294 0.694118 0.847059 0.635294 0.694118 0.847059 
0.635294 0.694118 0.847059 0.635294 0.694118 0.847059 
0.635294 0.694118 0.847059 0.635294 0.694118 0.847059 
0.635294 0.694118 0.847059 0.635294 0.694118 0.847059 
0.635294 0.694118 0.847059 0.635294 0.694118 0.847059 
0.635294 0.694118 0.847059 0.635294 0.694118 0.847059 
0.635294 0.694118 0.847059 0.635294 0.694118 0.847059 
0.635294 0.694118 0.847059 0.635294 0.694118 0.847059 
0.635294 0.694118 0.847059 0.635294 0.694118 0.847059 
0.635294 0.694118 0.847059 0.635294 0.694118 0.847059 
0.635294 0.694118 0.847059 0.635294 0.694118 0.847059 
0.635294 0.694118 0.847059 0.635294 0.694118 0.847059 
0.635294 0.694118 0.847059 0.635294 0.694118 0.847059 
0.635294 0.694118 0.847059 0.635294 0.694118 0.847059 
0.635294 0.694118 0.847059 0.635294 0.694118 0.847059 
0.635294 0.694118 0.847059 0.635294 0.694118 0.847059 
0.635294 0.694118 0.847059 0.635294 0.694118 0.847059 
0.635294 0.694118 0.847059 0.635294 0.694118 0.847059 
0.635294 0.694118 0.847059 0.635294 0.694118 0.847059 
0.635294 0.694118 0.847059 0.635294 0.694118 0.847059 
0.635294 0.694118 0.847059 0.635294 0.694118 0.847059 
0.635294 0.694118 0.847059 0.635294 0.694118 0.847059 
0.635294 0.694118 0.847059 0.635294 0.694118 0.847059 
0.635294 0.694118 0.847059 0.635294 0.694118 0.847059 
0.635294 0.694118 0.847059 0.635294 0.694118 0.847059 
0.635294 0.694118 0.847059 0.635294 0.694118 0.847059 
0.635294 0.694118 0.847059 0.635294 0.694118 0.847059 
0.635294 0.694118 0.847059 0.635294 0.694118 0.847059 
0.635294 0.694118 0.847059 0.635294 0.694118 0.847059 
0.635294 0.694118 0.847059 0.635294 0.694118 0.847059 
0.635294 0.694118 0.847059 0.635294 0.694118 0.847059 
0.635294 0.694118 0.847059 0.635294 0.694118 0.847059 
0.635294 0.694118 0.847059 0.635294 0.694118 0.847059 
0.635294 0.694118 0.847059 0.635294 0.694118 0.847059 
0.635294 0.694118 0.847059 0.635294 0.694118 0.847059 
0.635294 0.694118 0.847059 0.635294 0.694118 0.847059 
0.635294 0.694118 0.847059 0.635294 0.694118 0.847059 
0.635294 0.694118 0.847059 0.635294 0.694118 0.847059 
0.635294 0.694118 0.847059 0.635294 0.694118 0.847059 
0.635294 0.694118 0.847059 0.635294 0.694118 0.847059 
0.635294 0.694118 0.847059 0.635294 0.694118 0.847059 
0.635294 0.694118 0.847059 0.635294 0.694118 0.847059 
0.635294 0.694118 0.847059 0.635294 0.694118 0.847059 
0.635294 0.694118 0.847059 0.635294 0.694118 0.847059 
0.635294 0.694118 0.847059 0.635294 0.694118 0.847059 
0.635294 0.694118 0.847059 0.635294 0.694118 0.847059 
0.635294 0.694118 0.847059 0.635294 0.694118 0.847059 
0.635294 0.694118 0.847059 0.635294 0.694118 0.847059 
0.635294 0.694118 0.847059 0.635294 0.694118 0.847059 
0.635294 0.694118 0.847059 0.635294 0.694118 0.847059 
0.635294 0.694118 0.847059 0.635294 0.694118 0.847059 
0.635294 0.694118 0.847059 0.635294 0.694118 0.847059 
0.635294 0.694118 0.847059 0.635294 0.694118 0.847059 
0.635294 0.694118 0.847059 0.635294 0.694118 0.847059 
0.635294 0.694118 0.847059 0.635294 0.694118 0.847059 
0.635294 0.694118 0.847059 0.635294 0.694118 0.847059 
0.635294 0.694118 0.847059 0.635294 0.694118 0.847059 
0.635294 0.694118 0.847059 0.635294 0.694118 0.847059 
0.635294 0.694118 0.847059 0.635294 0.694118 0.847059 
0.635294 0.694118 0.847059 0.635294 0.694118 0.847059 
0.635294 0.694118 0.847059 0.635294 0.694118 0.847059 
0.635294 0.694118 0.847059 0.635294 0.694118 0.847059 
0.635294 0.694118 0.847059 0.635294 0.694118 0.847059 
0.635294 0.694118 0.847059 0.635294 0.694118 0.847059 
0.635294 0.694118 0.847059 0.635294 0.694118 0.847059 
0.635294 0.694118 0.847059 0.635294 0.694118 0.847059 
0.635294 0.694118 0.847059 0.635294 0.694118 0.847059 
0.635294 0.694118 0.847059 0.635294 0.694118 0.847059 
0.635294 0.694118 0.847059 0.635294 0.694118 0.847059 
0.635294 0.694118 0.847059 0.635294 0.694118 0.847059 
0.635294 0.694118 0.847059 0.635294 0.694118 0.847059 
0.635294 0.694118 0.847059 0.635294 0.694118 0.847059 
0.635294 0.694118 0.847059 0.635294 0.694118 0.847059 
0.635294 0.694118 0.847059 0.635294 0.694118 0.847059 
0.635294 0.694118 0.847059 0.635294 0.694118 0.847059 
0.635294 0.694118 0.847059 0.635294 0.694118 0.847059 
0.635294 0.694118 0.847059 0.635294 0.694118 0.847059 
0.635294 0.694118 0.847059 0.635294 0.694118 0.847059 
0.635294 0.694118 0.847059 0.635294 0.694118 0.847059 
0.635294 0.694118 0.847059 0.635294 0.694118 0.847059 
0.635294 0.694118 0.847059 0.635294 0.694118 0.847059 
0.635294 0.694118 0.847059 0.635294 0.694118 0.847059 
0.635294 0.694118 0.847059 0.635294 0.694118 0.847059 
0.635294 0.694118 0.847059 0.635294 0.694118 0.847059 
0.635294 0.694118 0.847059 0.635294 0.694118 0.847059 
0.635294 0.694118 0.847059 0.635294 0.694118 0.847059 
0.635294 0.694118 0.847059 0.635294 0.694118 0.847059 
0.635294 0.694118 0.847059 0.635294 0.694118 0.847059 
0.635294 0.694118 0.847059 0.635294 0.694118 0.847059 
0.635294 0.694118 0.847059 0.635294 0.694118 0.847059 
0.635294 0.694118 0.847059 0.635294 0.694118 0.847059 
0.635294 0.694118 0.847059 0.635294 0.694118 0.847059 
0.635294 0.694118 0.847059 0.635294 0.694118 0.847059 
0.635294 0.694118 0.847059 0.635294 0.694118 0.847059 
0.635294 0.694118 0.847059 0.635294 0.694118 0.847059 
0.635294 0.694118 0.847059 0.635294 0.694118 0.847059 
0.635294 0.694118 0.847059 0.635294 0.694118 0.847059 
0.635294 0.694118 0.847059 0.635294 0.694118 0.847059 
0.635294 0.694118 0.847059 0.635294 0.694118 0.847059 
0.635294 0.694118 0.847059 0.635294 0.694118 0.847059 
0.635294 0.694118 0.847059 0.635294 0.694118 0.847059 
0.635294 0.694118 0.847059 0.635294 0.694118 0.847059 
0.635294 0.694118 0.847059 0.635294 0.694118 0.847059 
0.635294 0.694118 0.847059 0.635294 0.694118 0.847059 
0.635294 0.694118 0.847059 0.635294 0.694118 0.847059 
0.635294 0.694118 0.847059 0.635294 0.694118 0.847059 
0.635294 0.694118 0.847059 0.635294 0.694118 0.847059 
0.635294 0.694118 0.847059 0.635294 0.694118 0.847059 
0.635294 0.694118 0.847059 0.635294 0.694118 0.847059 
0.635294 0.694118 0.847059 0.635294 0.694118 0.847059 
0.635294 0.694118 0.847059 0.635294 0.694118 0.847059 
0.635294 0.694118 0.847059 0.635294 0.694118 0.847059 
0.635294 0.694118 0.847059 0.635294 0.694118 0.847059 
0.635294 0.694118 0.847059 0.635294 0.694118 0.847059 
0.635294 0.694118 0.847059 0.635294 0.694118 0.847059 
0.635294 0.694118 0.847059 0.635294 0.694118 0.847059 
0.635294 0.694118 0.847059 0.635294 0.694118 0.847059 
0.635294 0.694118 0.847059 0.635294 0.694118 0.847059 
0.635294 0.694118 0.847059 0.635294 0.694118 0.847059 
0.635294 0.694118 0.847059 0.635294 0.694118 0.847059 
0.635294 0.694118 0.847059 0.635294 0.694118 0.847059 
0.635294 0.694118 0.847059 0.635294 0.694118 0.847059 
0.635294 0.694118 0.847059 0.635294 0.694118 0.847059 
0.635294 0.694118 0.847059 0.635294 0.694118 0.847059 
0.635294 0.694118 0.847059 0.635294 0.694118 0.847059 
0.635294 0.694118 0.847059 0.635294 0.694118 0.847059 
0.635294 0.694118 0.847059 0.635294 0.694118 0.847059 
0.635294 0.694118 0.847059 0.635294 0.694118 0.847059 
0.635294 0.694118 0.847059 0.635294 0.694118 0.847059 
0.635294 0.694118 0.847059 0.635294 0.694118 0.847059 
0.635294 0.694118 0.847059 0.635294 0.694118 0.847059 
0.635294 0.694118 0.847059 0.635294 0.694118 0.847059 
0.635294 0.694118 0.847059 0.635294 0.694118 0.847059 
0.635294 0.694118 0.847059 0.635294 0.694118 0.847059 
0.635294 0.694118 0.847059 0.635294 0.694118 0.847059 
0.635294 0.694118 0.847059 0.635294 0.694118 0.847059 
0.635294 0.694118 0.847059 0.635294 0.694118 0.847059 
0.635294 0.694118 0.847059 0.635294 0.694118 0.847059 
0.635294 0.694118 0.847059 0.635294 0.694118 0.847059 
0.635294 0.694118 0.847059 0.635294 0.694118 0.847059 
0.635294 0.694118 0.847059 0.635294 0.694118 0.847059 
0.635294 0.694118 0.847059 0.635294 0.694118 0.847059 
0.635294 0.694118 0.847059 0.635294 0.694118 0.847059 
0.635294 0.694118 0.847059 0.635294 0.694118 0.847059 
0.635294 0.694118 0.847059 0.635294 0.694118 0.847059 
0.635294 0.694118 0.847059 0.635294 0.694118 0.847059 
0.635294 0.694118 0.847059 0.635294 0.694118 0.847059 
0.635294 0.694118 0.847059 0.635294 0.694118 0.847059 
0.635294 0.694118 0.847059 0.635294 0.694118 0.847059 
0.635294 0.694118 0.847059 0.635294 0.694118 0.847059 
0.635294 0.694118 0.847059 0.635294 0.694118 0.847059 
0.635294 0.694118 0.847059 0.635294 0.694118 0.847059 
0.635294 0.694118 0.847059 0.635294 0.694118 0.847059 
0.635294 0.694118 0.847059 0.635294 0.694118 0.847059 
0.635294 0.694118 0.847059 0.635294 0.694118 0.847059 
0.635294 0.694118 0.847059 0.635294 0.694118 0.847059 
0.635294 0.694118 0.847059 0.635294 0.694118 0.847059 
0.635294 0.694118 0.847059 0.635294 0.694118 0.847059 
0.635294 0.694118 0.847059 0.635294 0.694118 0.847059 
0.635294 0.694118 0.847059 0.635294 0.694118 0.847059 
0.635294 0.694118 0.847059 0.635294 0.694118 0.847059 
0.635294 0.694118 0.847059 0.635294 0.694118 0.847059 
0.635294 0.694118 0.847059 0.635294 0.694118 0.847059 
0.635294 0.694118 0.847059 0.635294 0.694118 0.847059 
0.635294 0.694118 0.847059 0.635294 0.694118 0.847059 
0.635294 0.694118 0.847059 0.635294 0.694118 0.847059 
0.635294 0.694118 0.847059 0.635294 0.694118 0.847059 
0.635294 0.694118 0.847059 0.635294 0.694118 0.847059 
0.635294 0.694118 0.847059 0.635294 0.694118 0.847059 
0.635294 0.694118 0.847059 0.635294 0.694118 0.847059 
0.635294 0.694118 0.847059 0.635294 0.694118 0.847059 
0.635294 0.694118 0.847059 0.635294 0.694118 0.847059 
0.635294 0.694118 0.847059 0.635294 0.694118 0.847059 
0.635294 0.694118 0.847059 0.635294 0.694118 0.847059 
0.635294 0.694118 0.847059 0.635294 0.694118 0.847059 
0.635294 0.694118 0.847059 0.635294 0.694118 0.847059 
0.635294 0.694118 0.847059 0.635294 0.694118 0.847059 
0.635294 0.694118 0.847059 0.635294 0.694118 0.847059 
0.635294 0.694118 0.847059 0.635294 0.694118 0.847059 
0.635294 0.694118 0.847059 0.635294 0.694118 0.847059 
0.635294 0.694118 0.847059 0.635294 0.694118 0.847059 
0.635294 0.694118 0.847059 0.635294 0.694118 0.847059 
0.635294 0.694118 0.847059 0.635294 0.694118 0.847059 
0.635294 0.694118 0.847059 0.635294 0.694118 0.847059 
0.635294 0.694118 0.847059 0.635294 0.694118 0.847059 
0.635294 0.694118 0.847059 0.635294 0.694118 0.847059 
0.635294 0.694118 0.847059 0.635294 0.694118 0.847059 
0.635294 0.694118 0.847059 0.635294 0.694118 0.847059 
0.635294 0.694118 0.847059 0.635294 0.694118 0.847059 
0.635294 0.694118 0.847059 0.635294 0.694118 0.847059 
0.635294 0.694118 0.847059 0.635294 0.694118 0.847059 
0.635294 0.694118 0.847059 0.635294 0.694118 0.847059 
0.635294 0.694118 0.847059 0.635294 0.694118 0.847059 
0.635294 0.694118 0.847059 0.635294 0.694118 0.847059 
0.635294 0.694118 0.847059 0.635294 0.694118 0.847059 
0.635294 0.694118 0.847059 0.635294 0.694118 0.847059 
0.635294 0.694118 0.847059 0.635294 0.694118 0.847059 
0.635294 0.694118 0.847059 0.635294 0.694118 0.847059 
0.635294 0.694118 0.847059 0.635294 0.694118 0.847059 
0.635294 0.694118 0.847059 0.635294 0.694118 0.847059 
0.635294 0.694118 0.847059 0.635294 0.694118 0.847059 
0.635294 0.694118 0.847059 0.635294 0.694118 0.847059 
0.635294 0.694118 0.847059 0.635294 0.694118 0.847059 
0.635294 0.694118 0.847059 0.635294 0.694118 0.847059 
0.635294 0.694118 0.847059 0.635294 0.694118 0.847059 
0.635294 0.694118 0.847059 0.635294 0.694118 0.847059 
0.635294 0.694118 0.847059 0.635294 0.694118 0.847059 
0.635294 0.694118 0.847059 0.635294 0.694118 0.847059 
0.635294 0.694118 0.847059 0.635294 0.694118 0.847059 
0.635294 0.694118 0.847059 0.635294 0.694118 0.847059 
0.635294 0.694118 0.847059 0.635294 0.694118 0.847059 
0.635294 0.694118 0.847059 0.635294 0.694118 0.847059 
0.635294 0.694118 0.847059 0.635294 0.694118 0.847059 
0.635294 0.694118 0.847059 0.635294 0.694118 0.847059 
0.635294 0.694118 0.847059 0.635294 0.694118 0.847059 
0.635294 0.694118 0.847059 0.635294 0.694118 0.847059 
0.635294 0.694118 0.847059 0.635294 0.694118 0.847059 
0.635294 0.694118 0.847059 0.635294 0.694118 0.847059 
0.635294 0.694118 0.847059 0.635294 0.694118 0.847059 
0.635294 0.694118 0.847059 0.635294 0.694118 0.847059 
0.635294 0.694118 0.847059 0.635294 0.694118 0.847059 
0.635294 0.694118 0.847059 0.635294 0.694118 0.847059 
0.635294 0.694118 0.847059 0.635294 0.694118 0.847059 
0.635294 0.694118 0.847059 0.635294 0.694118 0.847059 
0.635294 0.694118 0.847059 0.635294 0.694118 0.847059 
0.635294 0.694118 0.847059 0.635294 0.694118 0.847059 
0.635294 0.694118 0.847059 0.635294 0.694118 0.847059 
0.635294 0.694118 0.847059 0.635294 0.694118 0.847059 
0.635294 0.694118 0.847059 0.635294 0.694118 0.847059 
0.635294 0.694118 0.847059 0.635294 0.694118 0.847059 
0.635294 0.694118 0.847059 0.635294 0.694118 0.847059 
0.635294 0.694118 0.847059 0.635294 0.694118 0.847059 
0.635294 0.694118 0.847059 0.635294 0.694118 0.847059 
0.635294 0.694118 0.847059 0.635294 0.694118 0.847059 
0.635294 0.694118 0.847059 0.635294 0.694118 0.847059 
0.635294 0.694118 0.847059 0.635294 0.694118 0.847059 
0.635294 0.694118 0.847059 0.635294 0.694118 0.847059 
0.635294 0.694118 0.847059 0.635294 0.694118 0.847059 
0.635294 0.694118 0.847059 0.635294 0.694118 0.847059 
0.635294 0.694118 0.847059 0.635294 0.694118 0.847059 
0.635294 0.694118 0.847059 0.635294 0.694118 0.847059 
0.635294 0.694118 0.847059 0.635294 0.694118 0.847059 
0.635294 0.694118 0.847059 0.635294 0.694118 0.847059 
0.635294 0.694118 0.847059 0.635294 0.694118 0.847059 
0.635294 0.694118 0.847059 0.635294 0.694118 0.847059 
0.635294 0.694118 0.847059 0.635294 0.694118 0.847059 
0.635294 0.694118 0.847059 0.635294 0.694118 0.847059 
0.635294 0.694118 0.847059 0.635294 0.694118 0.847059 
0.635294 0.694118 0.847059 0.635294 0.694118 0.847059 
0.635294 0.694118 0.847059 0.635294 0.694118 0.847059 
0.635294 0.694118 0.847059 0.635294 0.694118 0.847059 
0.635294 0.694118 0.847059 0.635294 0.694118 0.847059 
0.635294 0.694118 0.847059 0.635294 0.694118 0.847059 
0.635294 0.694118 0.847059 0.635294 0.694118 0.847059 
0.635294 0.694118 0.847059 0.635294 0.694118 0.847059 
0.635294 0.694118 0.847059 0.635294 0.694118 0.847059 
0.635294 0.694118 0.847059 0.635294 0.694118 0.847059 
0.635294 0.694118 0.847059 0.635294 0.694118 0.847059 
0.635294 0.694118 0.847059 0.635294 0.694118 0.847059 
0.635294 0.694118 0.847059 0.635294 0.694118 0.847059 