# vtk DataFile Version 4.2
vtk output
ASCII
DATASET POLYDATA
POINTS 477 float
329.182 220.127 154.311 329.875 220.012 154.422 329.685 219.751 154.298 
330.17 219.981 154.625 327.555 216.879 154.25 328.866 217.513 154.272 
329.343 217.397 154.387 327.437 218.865 154.29 328.146 218.863 154.182 
329.995 217.964 154.504 330.591 218.696 154.71 330.822 218.337 155.094 
326.793 219.651 154.719 329.943 219.274 154.369 330.391 219.062 154.553 
330.849 218.829 154.86 330.908 219.002 154.872 326.941 220.186 154.974 
327.471 220.429 154.964 327.157 220.524 155.202 329.837 220.494 154.888 
329.121 220.707 155.086 323.936 204.456 155.887 324.387 203.853 156.378 
326.158 204.114 156.351 320.903 206.11 155.159 326.072 205.242 155.705 
326.989 205.156 156.062 320.098 206.826 155.081 325.095 206.204 155.201 
321.783 207.669 154.715 323.392 207.415 154.744 322.158 212.027 154.511 
329.588 215.966 154.937 324.574 218.832 155.237 325.882 218.306 154.566 
324.953 219.472 155.496 330.936 218.864 155.008 330.947 218.931 155.373 
329.998 220.507 155.149 330.291 220.321 155.381 330.511 220.035 155.237 
327.077 220.713 155.605 329.401 220.751 155.424 323.943 203.633 156.751 
323.87 203.498 157.153 323.249 203.763 156.967 324.508 203.499 156.761 
319.842 204.806 156.4 321.467 204.723 155.917 325.761 203.53 156.927 
326.379 203.699 156.973 318.086 205.547 156.412 317.754 205.818 156.307 
315.644 207.589 156.657 317.331 206.934 155.886 315.219 208.153 156.811 
315.364 209.236 156.324 315.945 209.704 155.973 327.418 209.893 155.38 
328.5 209.125 156.141 315.85 211.363 155.95 316.423 212.765 155.87 
317.43 214.389 155.899 330.137 213.654 156.239 330.027 215.096 155.516 
330.431 215.831 155.555 319.273 216.302 155.975 330.754 216.516 155.663 
331.126 217.592 156.207 331.086 218.461 156.12 325.249 220.077 156.034 
330.747 219.749 156.098 323.836 220.063 156.98 325.5 220.508 156.763 
326.786 220.779 156.045 330.322 220.275 156.192 327.947 220.949 156.067 
329.374 220.733 155.964 323.541 203.579 157.249 325.606 203.31 157.222 
325.47 203.259 157.403 319.367 204.938 156.665 327.002 203.774 157.55 
318.257 205.429 157.045 319.16 205.04 157.021 320.591 204.638 157.179 
316.458 206.424 156.802 316.656 206.272 156.894 320.015 204.972 157.519 
315.892 206.996 157.061 316.346 206.544 157.021 314.721 208.647 157.12 
314.383 208.864 157.571 314.363 210.074 156.89 314.209 210.788 156.899 
329.413 209.273 156.945 313.317 213.591 157.354 313.714 213.287 157.127 
313.675 213.924 157.21 313.859 214.533 157.27 314.065 215.136 157.374 
315.96 215.693 156.889 316.356 216.996 157.541 318.04 217.969 157.671 
320.791 219.409 158.26 329.874 220.269 157.123 328.266 220.895 156.593 
328.997 220.753 156.593 325.946 203.291 157.918 323.024 203.86 157.616 
326.419 203.423 158.245 317.484 205.998 157.467 319.498 205.409 157.885 
329.648 206.21 158.456 314.488 208.54 157.868 314.747 208.226 157.968 
315.752 207.327 157.928 318.913 206.187 158.533 316.6 207.174 158.503 
330.077 208.587 158.136 312.403 212.16 158.697 312.163 213.254 158.504 
312.887 213.523 157.691 330.874 213.174 158.23 311.815 214.663 158.763 
331.018 214.423 157.309 311.789 214.907 158.876 331.244 216.396 157.565 
312.502 216.211 159.168 331.216 217.293 157.466 313.258 216.966 159.467 
315.925 217.328 158.156 330.991 218.296 157.813 325.855 220.718 157.868 
326.641 220.77 157.757 327.354 220.775 157.669 326.773 203.435 158.748 
326.778 203.407 158.892 326.59 203.46 158.878 326.892 203.476 158.944 
327.124 203.658 158.795 314.882 208.276 158.431 315.315 208.242 158.923 
316.076 207.786 158.915 313.386 210.579 159.392 312.078 212.678 159.275 
311.828 213.688 159.129 311.765 214.213 159.248 311.898 215.446 159.853 
331.03 216.133 158.866 313.074 217.075 160.082 315.471 217.931 159.635 
318.57 218.936 159.408 320.296 219.556 159.471 323.171 220.232 159.055 
326.806 203.456 159 325.963 203.696 159.189 326.917 203.666 159.285 
327.853 204.201 159.867 328.5 204.559 159.864 329.995 206.209 159.427 
329.721 205.688 159.514 321.116 206.809 160.135 330.311 207.319 159.27 
312.994 211.569 160.225 311.947 213.055 159.484 330.878 214.465 159.656 
312.567 216.554 160.616 313.474 217.394 160.717 329.872 218.693 159.703 
320.739 219.655 160.399 324.334 220.457 159.336 325.552 220.522 159.179 
329.38 205.166 160.163 329.464 205.348 160.65 330.469 208.49 160.682 
311.917 213.747 160.278 312.214 213.931 161.491 312.025 215.696 160.918 
312.229 216.032 161.292 330.339 216.907 160.108 313.457 217.312 161.169 
314.47 217.796 161.258 317.629 218.772 161.407 328.857 218.721 160.768 
327.714 204.724 161.193 330.183 207.986 161.588 312.136 215.395 161.765 
312.273 215.964 161.688 317.811 218.718 162.008 327.131 218.957 161.581 
324.447 219.695 161.179 328.553 205.182 161.734 329.796 206.112 161.26 
321.441 209.313 163.048 329.648 210.004 162.647 312.366 214.765 162.227 
314.271 217.321 162.753 315.183 217.822 162.683 318.574 218.649 162.764 
323.65 218.982 162.576 325.477 218.67 162.531 329.132 205.553 161.833 
329.125 205.886 162.07 327.355 206.1 162.735 328.53 209.854 163.604 
322.576 209.902 163.972 328.662 213.145 163.304 313.345 214.093 163.422 
328.516 214.819 163.076 312.748 215.563 162.762 313.312 215.74 163.455 
325.374 217.774 163.502 328.487 206.073 162.577 326.187 207.475 163.382 
326.969 211.196 164.409 314.609 213.514 164.504 313.536 214.782 163.971 
325.72 216.619 164.128 314.244 216.483 164.02 322.843 217.281 164.617 
317.477 217.869 164.095 322.706 210.995 164.88 324.545 210.639 164.666 
321.026 212.417 165.811 314.741 216.385 164.667 315.268 216.596 164.92 
317.433 217.22 165.096 320.345 216.803 165.519 319.093 212.345 165.715 
318.553 213.248 166.32 323.376 212.739 165.611 315.822 213.97 165.91 
320.762 213.539 166.328 322.403 213.545 165.969 321.537 214.311 166.287 
314.741 214.834 165.449 314.88 214.996 165.613 314.647 215.103 165.359 
317.628 216.319 166.086 319.99 215.851 166.352 322.542 212.823 165.871 
316.117 214.096 166.127 317.909 213.852 166.55 318.974 214.323 166.77 
320.118 214.633 166.727 320.107 214.948 166.732 315.471 215.441 165.987 
315.78 215.352 166.209 318.927 215.602 166.636 319.189 215.281 166.77 
318.223 215.835 166.464 315.931 215.069 166.308 318.579 214.688 166.808 
319.768 214.81 166.81 317.508 214.213 288.221 316.323 214.913 288.437 
316.101 214.719 288.535 316.016 214.904 288.557 316.497 214.497 288.451 
318.195 214.846 288.095 318.882 214.813 288.084 316.539 215.283 288.453 
319.387 215.463 288.194 320.404 215.324 288.343 319.11 215.803 288.344 
323.068 212.759 288.975 321.9 214.219 288.647 315.178 215.272 289.431 
315.84 215.503 288.851 315.526 215.657 289.239 322.29 212.857 288.955 
323.683 212.928 289.186 315.386 214.512 289.24 324.042 214.345 289.372 
314.814 215.143 289.895 315.733 216.197 289.504 316.819 216.666 289.337 
319.329 216.668 289.01 321.932 215.978 289.159 320.621 216.833 289.346 
327.468 208.27 290.946 327.073 208.248 290.856 325.635 209.319 290.493 
327.946 208.956 290.965 326.086 210.529 290.187 323.51 210.035 290.415 
314.909 214.019 290.072 314.631 214.512 290.237 325.529 214.872 290.109 
313.897 215.418 291.2 314.412 216.339 290.975 315.276 216.46 290.165 
314.879 216.739 290.909 318.292 218.03 290.818 328.583 206.464 292.078 
328.466 206.177 292.211 328.293 206.447 291.999 328.89 206.695 292.192 
326.981 207.52 291.265 328.591 210.354 291.29 327.663 214.068 291.087 
313.854 213.823 291.547 314.057 216.062 291.246 320.901 218.515 291.278 
328.626 205.623 292.787 327.245 206.299 292.157 329.606 206.577 292.993 
329.412 207.743 292.309 329.849 208.811 292.682 318.042 210.18 292.036 
329.3 210.138 291.956 314.428 212.304 292.014 329.257 212.822 292.198 
327.743 216.144 291.77 328.404 216.136 292.273 312.811 215.878 292.967 
327.238 217.571 292.123 329.599 205.804 293.683 330.02 206.462 293.894 
330.098 207.419 293.388 329.719 211.384 292.583 330.088 214.46 293.601 
312.094 214.738 293.839 312.127 215.205 293.95 314.479 217.513 292.895 
315.703 218.185 293.293 327.014 218.609 292.736 328.741 218.102 293.537 
324.302 219.885 293.666 329.927 206.088 294.332 330.413 211.022 293.946 
312.312 213.377 294.02 312.125 213.776 294.108 312.079 214.264 293.971 
311.999 213.986 294.414 330.446 215.552 294.453 312.137 215.913 294.693 
312.895 216.678 293.942 320.82 219.743 294.538 327.376 219.386 293.789 
328.013 219.147 293.891 322.563 220.093 294.514 327.046 204.177 295.275 
325.285 204.672 294.897 328.888 205.009 294.596 330.221 206.851 294.959 
313.309 210.762 294.947 312.706 211.436 295.141 330.923 215.589 295.572 
316.94 218.671 294.475 330.449 217.864 295.518 320.538 219.727 295.156 
329.447 218.887 294.999 326.271 203.895 295.702 326.214 203.716 295.955 
326.322 203.73 296.027 324.943 204.018 295.992 329.79 205.954 295.273 
314.543 208.731 296.071 312.765 210.851 296.079 330.708 212.186 295.887 
311.86 214.325 295.784 312.826 216.945 295.203 313.152 217.164 295.403 
317.216 218.576 295.696 319.934 219.498 295.871 330.292 218.734 296.073 
321.364 219.899 296.029 324.571 203.594 296.863 326.169 203.676 296.105 
325.474 203.507 297.097 323.713 203.726 296.972 326.053 203.685 296.445 
327.946 204.557 296.709 329.517 206.176 296.461 314.702 208.109 296.949 
312.86 210.726 296.509 312.619 211.682 296.875 312.37 212.056 296.482 
331.134 214.916 296.766 311.887 214.958 296.316 331.193 215.35 297.203 
311.86 215.172 296.093 312.16 216.053 295.922 312.224 216.262 295.744 
312.938 216.978 295.729 312.98 216.857 295.975 313.786 217.256 295.926 
316.305 217.979 296.373 317.655 218.483 296.389 328.283 220.489 296.162 
329.446 219.989 296.625 325.486 203.462 297.458 322.867 203.725 297.635 
326.646 203.915 297.685 317.59 205.754 298.181 328.998 206.591 297.648 
314.653 208.128 297.24 314.957 207.932 297.682 315.402 207.394 297.59 
313.894 209.39 297.365 313.646 209.978 297.558 312.109 214.836 296.584 
312.416 215.371 296.64 316.862 217.644 297.231 331.235 217.571 298.389 
331.038 218.884 298.3 320.659 219.357 297.097 323.222 220.194 297.648 
[...]
POINT_DATA 477
COLOR_SCALARS scalars 3
1 0.564706 1 1 0.564706 1 1 0.564706 1 
1 0.564706 1 1 0.564706 1 
1 0.564706 1 1 0.564706 1 
1 0.564706 1 1 0.564706 1 
1 0.564706 1 1 0.564706 1 
1 0.564706 1 1 0.564706 1 
1 0.564706 1 1 0.564706 1 
1 0.564706 1 1 0.564706 1 
1 0.564706 1 1 0.564706 1 
1 0.564706 1 1 0.564706 1 
1 0.564706 1 1 0.564706 1 
1 0.564706 1 1 0.564706 1 
1 0.564706 1 1 0.564706 1 
1 0.564706 1 1 0.564706 1 
1 0.564706 1 1 0.564706 1 
1 0.564706 1 1 0.564706 1 
1 0.564706 1 1 0.564706 1 
1 0.564706 1 1 0.564706 1 
1 0.564706 1 1 0.564706 1 
1 0.564706 1 1 0.564706 1 
1 0.564706 1 1 0.564706 1 
1 0.564706 1 1 0.564706 1 
1 0.564706 1 1 0.564706 1 
1 0.564706 1 1 0.564706 1 
1 0.564706 1 1 0.564706 1 
1 0.564706 1 1 0.564706 1 
1 0.564706 1 1 0.564706 1 
1 0.564706 1 1 0.564706 1 
1 0.564706 1 1 0.564706 1 
1 0.564706 1 1 0.564706 1 
1 0.564706 1 1 0.564706 1 
1 0.564706 1 1 0.564706 1 
1 0.564706 1 1 0.564706 1 
1 0.564706 1 1 0.564706 1 
1 0.564706 1 1 0.564706 1 
1 0.564706 1 1 0.564706 1 
1 0.564706 1 1 0.564706 1 
1 0.564706 1 1 0.564706 1 
1 0.564706 1 1 0.564706 1 
1 0.564706 1 1 0.564706 1 
1 0.564706 1 1 0.564706 1 
1 0.564706 1 1 0.564706 1 
1 0.564706 1 1 0.564706 1 
1 0.564706 1 1 0.564706 1 
1 0.564706 1 1 0.564706 1 
1 0.564706 1 1 0.564706 1 
1 0.564706 1 1 0.564706 1 
1 0.564706 1 1 0.564706 1 
1 0.564706 1 1 0.564706 1 
1 0.564706 1 1 0.564706 1 
1 0.564706 1 1 0.564706 1 
1 0.564706 1 1 0.564706 1 
1 0.564706 1 1 0.564706 1 
1 0.564706 1 1 0.564706 1 
1 0.564706 1 1 0.564706 1 
1 0.564706 1 1 0.564706 1 
1 0.564706 1 1 0.564706 1 
1 0.564706 1 1 0.564706 1 
1 0.564706 1 1 0.564706 1 
1 0.564706 1 1 0.564706 1 
1 0.564706 1 1 0.564706 1 
1 0.564706 1 1 0.564706 1 
1 0.564706 1 1 0.564706 1 
1 0.564706 1 1 0.564706 1 
1 0.564706 1 1 0.564706 1 
1 0.564706 1 1 0.564706 1 
1 0.564706 1 1 0.564706 1 
1 0.564706 1 1 0.564706 1 
1 0.564706 1 1 0.564706 1 
1 0.564706 1 1 0.564706 1 
1 0.564706 1 1 0.564706 1 
1 0.564706 1 1 0.564706 1 
1 0.564706 1 1 0.564706 1 
1 0.564706 1 1 0.564706 1 
1 0.564706 1 1 0.564706 1 
1 0.564706 1 1 0.564706 1 
1 0.564706 1 1 0.564706 1 
1 0.564706 1 1 0.564706 1 
1 0.564706 1 1 0.564706 1 
1 0.564706 1 1 0.564706 1 
1 0.564706 1 1 0.564706 1 
1 0.564706 1 1 0.564706 1 
1 0.564706 1 1 0.564706 1 
1 0.564706 1 1 0.564706 1 
1 0.564706 1 1 0.564706 1 
1 0.564706 1 1 0.564706 1 
1 0.564706 1 1 0.564706 1 
1 0.564706 1 1 0.564706 1 
1 0.564706 1 1 0.564706 1 
1 0.564706 1 1 0.564706 1 
1 0.564706 1 1 0.564706 1 
1 0.564706 1 1 0.564706 1 
1 0.564706 1 1 0.564706 1 
1 0.564706 1 1 0.564706 1 
1 0.564706 1 1 0.564706 1 
1 0.564706 1 1 0.564706 1 
1 0.564706 1 1 0.564706 1 
1 0.564706 1 1 0.564706 1 
1 0.564706 1 1 0.564706 1 
1 0.564706 1 1 0.564706 1 
1 0.564706 1 1 0.564706 1 
1 0.564706 1 1 0.564706 1 
1 0.564706 1 1 0.564706 1 
1 0.564706 1 1 0.564706 1 
1 0.564706 1 1 0.564706 1 
1 0.564706 1 1 0.564706 1 
1 0.564706 1 1 0.564706 1 
1 0.564706 1 1 0.564706 1 
1 0.564706 1 1 0.564706 1 
1 0.564706 1 1 0.564706 1 
1 0.564706 1 1 0.564706 1 
1 0.564706 1 1 0.564706 1 
1 0.564706 1 1 0.564706 1 
1 0.564706 1 1 0.564706 1 
1 0.564706 1 1 0.564706 1 
1 0.564706 1 1 0.564706 1 
1 0.564706 1 1 0.564706 1 
1 0.564706 1 1 0.564706 1 
1 0.564706 1 1 0.564706 1 
1 0.564706 1 1 0.564706 1 
1 0.564706 1 1 0.564706 1 
1 0.564706 1 1 0.564706 1 
1 0.564706 1 1 0.564706 1 
1 0.564706 1 1 0.564706 1 
1 0.564706 1 1 0.564706 1 
1 0.564706 1 1 0.564706 1 
1 0.564706 1 1 0.564706 1 
1 0.564706 1 1 0.564706 1 
1 0.564706 1 1 0.564706 1 
1 0.564706 1 1 0.564706 1 
1 0.564706 1 1 0.564706 1 
1 0.564706 1 1 0.564706 1 
1 0.564706 1 1 0.564706 1 
1 0.564706 1 1 0.564706 1 
1 0.564706 1 1 0.564706 1 
1 0.564706 1 1 0.564706 1 
1 0.564706 1 1 0.564706 1 
1 0.564706 1 1 0.564706 1 
1 0.564706 1 1 0.564706 1 
1 0.564706 1 1 0.564706 1 
1 0.564706 1 1 0.564706 1 
1 0.564706 1 1 0.564706 1 
1 0.564706 1 1 0.564706 1 
1 0.564706 1 1 0.564706 1 
1 0.564706 1 1 0.564706 1 
1 0.564706 1 1 0.564706 1 
1 0.564706 1 1 0.564706 1 
1 0.564706 1 1 0.564706 1 
1 0.564706 1 1 0.564706 1 
1 0.564706 1 1 0.564706 1 
1 0.564706 1 1 0.564706 1 
1 0.564706 1 1 0.564706 1 
1 0.564706 1 1 0.564706 1 
1 0.564706 1 1 0.564706 1 
1 0.564706 1 1 0.564706 1 
1 0.564706 1 1 0.564706 1 
1 0.564706 1 1 0.564706 1 
1 0.564706 1 1 0.564706 1 
1 0.564706 1 1 0.564706 1 
1 0.564706 1 1 0.564706 1 
1 0.564706 1 1 0.564706 1 
1 0.564706 1 1 0.564706 1 
1 0.564706 1 1 0.564706 1 
1 0.564706 1 1 0.564706 1 
1 0.564706 1 1 0.564706 1 
1 0.564706 1 1 0.564706 1 
1 0.564706 1 1 0.564706 1 
1 0.564706 1 1 0.564706 1 
1 0.564706 1 1 0.564706 1 
1 0.564706 1 1 0.564706 1 
1 0.564706 1 1 0.564706 1 
1 0.564706 1 1 0.564706 1 
1 0.564706 1 1 0.564706 1 
1 0.564706 1 1 0.564706 1 
1 0.564706 1 1 0.564706 1 
1 0.564706 1 1 0.564706 1 
1 0.564706 1 1 0.564706 1 
1 0.564706 1 1 0.564706 1 
1 0.564706 1 1 0.564706 1 
1 0.564706 1 1 0.564706 1 
1 0.564706 1 1 0.564706 1 
1 0.564706 1 1 0.564706 1 
1 0.564706 1 1 0.564706 1 
1 0.564706 1 1 0.564706 1 
1 0.564706 1 1 0.564706 1 
1 0.564706 1 1 0.564706 1 
1 0.564706 1 1 0.564706 1 
1 0.564706 1 1 0.564706 1 
1 0.564706 1 1 0.564706 1 
1 0.564706 1 1 0.564706 1 
1 0.564706 1 1 0.564706 1 
1 0.564706 1 1 0.564706 1 
1 0.564706 1 1 0.564706 1 
1 0.564706 1 1 0.564706 1 
1 0.564706 1 1 0.564706 1 
1 0.564706 1 1 0.564706 1 
1 0.564706 1 1 0.564706 1 
1 0.564706 1 1 0.564706 1 
1 0.564706 1 1 0.564706 1 
1 0.564706 1 1 0.564706 1 
1 0.564706 1 1 0.564706 1 
1 0.564706 1 1 0.564706 1 
1 0.564706 1 1 0.564706 1 
1 0.564706 1 1 0.564706 1 
1 0.564706 1 1 0.564706 1 
1 0.564706 1 1 0.564706 1 
1 0.564706 1 1 0.564706 1 
1 0.564706 1 1 0.564706 1 
1 0.564706 1 1 0.564706 1 
1 0.564706 1 1 0.564706 1 
1 0.564706 1 1 0.564706 1 
1 0.564706 1 1 0.564706 1 
1 0.564706 1 1 0.564706 1 
1 0.564706 1 1 0.564706 1 
1 0.564706 1 1 0.564706 1 
1 0.564706 1 1 0.564706 1 
1 0.564706 1 1 0.564706 1 
1 0.564706 1 1 0.564706 1 
1 0.564706 1 1 0.564706 1 
1 0.564706 1 1 0.564706 1 
1 0.564706 1 1 0.564706 1 
1 0.564706 1 1 0.564706 1 
1 0.564706 1 1 0.564706 1 
1 0.564706 1 1 0.564706 1 
1 0.564706 1 1 0.564706 1 
1 0.564706 1 1 0.564706 1 
1 0.564706 1 1 0.564706 1 
1 0.564706 1 1 0.564706 1 
1 0.564706 1 1 0.564706 1 
1 0.564706 1 1 0.564706 1 
1 0.564706 1 1 0.564706 1 
1 0.564706 1 1 0.564706 1 
1 0.564706 1 1 0.564706 1 
1 0.564706 1 1 0.564706 1 
1 0.564706 1 1 0.564706 1 
1 0.564706 1 1 0.564706 1 
1 0.564706 1 1 0.564706 1 
1 0.564706 1 1 0.564706 1 

NORMALS Normals float
-0.0167495 0.407394 -0.913099 0.404014 0.384442 -0.830046 0.15132 0.0521005 -0.987111 
0.623763 0.458816 -0.632777 -0.100124 -0.04087 -0.994135 0.106945 -0.135685 -0.984963 
0.34683 -0.237063 -0.907475 -0.217311 0.148904 -0.964678 -0.0233935 0.0214311 -0.999497 
0.478721 -0.196723 -0.855644 0.506201 -0.212756 -0.835761 0.853925 -0.245266 -0.458974 
-0.331389 0.310551 -0.890921 0.271078 -0.0325192 -0.962008 0.448147 0.00664497 -0.893935 
0.737255 -0.263755 -0.622003 0.851202 0.136385 -0.506808 -0.438574 0.626989 -0.643846 
-0.196708 0.616092 -0.762717 -0.29224 0.797722 -0.527481 0.331546 0.80468 -0.492512 
-0.0274817 0.937718 -0.346309 0.00317914 -0.566669 -0.82394 -0.0607295 -0.70081 -0.710758 
0.178984 -0.62303 -0.761445 -0.103254 -0.412503 -0.905085 0.161847 -0.28231 -0.945572 
0.495276 -0.33972 -0.799558 -0.27112 -0.206614 -0.940109 0.214084 -0.25471 -0.943022 
-0.0187849 -0.216653 -0.976068 0.0381716 -0.230514 -0.97232 0.0391202 -0.0599979 -0.997432 
0.342225 -0.280268 -0.896846 -0.429144 0.604169 -0.671428 -0.302976 0.319692 -0.897777 
-0.490614 0.573648 -0.655916 0.958082 -0.152963 -0.24224 0.994841 0.0745897 -0.0687637 
0.513232 0.84436 -0.153782 0.699668 0.696903 -0.157452 0.79315 0.552106 -0.257084 
-0.3394 0.852585 -0.397375 0.18012 0.977193 -0.112475 -0.235661 -0.881645 -0.40886 
-0.178467 -0.981909 -0.0632785 -0.298521 -0.882776 -0.362755 -0.0832911 -0.894324 -0.439598 
-0.331244 -0.822594 -0.462188 -0.137985 -0.583142 -0.800566 0.137435 -0.72091 -0.679264 
0.450217 -0.795208 -0.406139 -0.462818 -0.859774 -0.215844 -0.394894 -0.602045 -0.693974 
-0.6235 -0.351594 -0.698304 -0.375804 -0.175688 -0.909893 -0.647973 -0.409344 -0.642316 
-0.526839 -0.230285 -0.818174 -0.34615 -0.11425 -0.931197 0.386051 -0.300768 -0.872068 
0.511095 -0.327226 -0.794798 -0.413013 0.00545278 -0.910709 -0.284837 0.113073 -0.951884 
-0.244125 0.299695 -0.922272 0.65728 -0.286968 -0.696873 0.713067 -0.427769 -0.555472 
0.702769 -0.342596 -0.623494 -0.245213 0.250246 -0.936615 0.901898 -0.208979 -0.378033 
0.986268 -0.000848748 -0.16515 0.986092 0.0594887 -0.155189 -0.462259 0.759638 -0.457457 
0.889476 0.450657 0.0757713 -0.341217 0.863901 -0.370468 -0.241754 0.956809 -0.161469 
-0.245479 0.946432 -0.209778 0.589532 0.787925 0.177837 0.0442171 0.998057 -0.0438964 
0.226185 0.972389 0.0574562 -0.306811 -0.947092 0.0942544 0.0861324 -0.937087 -0.338302 
-0.0770884 -0.996119 0.0424729 -0.346247 -0.937374 0.0379949 0.55822 -0.767956 -0.314061 
-0.454056 -0.888125 0.0711882 -0.320936 -0.898899 0.298295 -0.15303 -0.768225 0.62162 
-0.654326 -0.703876 -0.276433 -0.537148 -0.843469 -0.00565425 -0.158176 -0.847891 0.506025 
-0.667865 -0.733563 0.125862 -0.616335 -0.731568 0.291444 -0.755319 -0.412126 -0.509554 
-0.903473 -0.299809 -0.306353 -0.676761 -0.158735 -0.718886 -0.722581 -0.0616513 -0.688532 
0.769927 -0.204871 -0.604351 -0.563344 0.089173 -0.821396 -0.557101 -0.0823091 -0.826356 
-0.470229 0.206606 -0.85802 -0.407754 0.264222 -0.874027 -0.426488 0.447315 -0.786141 
-0.336479 0.407574 -0.84892 -0.384005 0.573106 -0.723941 -0.335744 0.69868 -0.631761 
-0.281885 0.894082 -0.348079 0.373926 0.842772 0.387188 0.0763314 0.974039 0.213122 
0.261672 0.945546 0.193574 0.162428 -0.9867 -0.00636148 -0.284838 -0.896191 0.34016 
0.19202 -0.980335 -0.0455096 -0.49928 -0.721275 0.480085 -0.170476 -0.735876 0.655304 
0.719568 -0.536179 -0.441286 -0.909515 -0.367005 0.195165 -0.69962 -0.714251 -0.019419 
-0.520822 -0.769987 0.368598 -0.296343 -0.558112 0.775043 -0.397877 -0.775414 0.490334 
0.906685 -0.205757 -0.368219 -0.881444 -0.43808 -0.176474 -0.847217 -0.219399 -0.483825 
-0.648828 -0.0303547 -0.760329 0.980356 -0.164102 -0.109416 -0.727794 0.149567 -0.669288 
0.932012 -0.197317 -0.304007 -0.891268 0.346824 -0.292155 0.998678 0.0269284 0.0437925 
-0.580647 0.551277 -0.599118 0.998283 0.0258803 0.0525423 -0.508886 0.783177 -0.357307 
-0.389537 0.707764 -0.589347 0.943691 0.255118 0.210622 -0.226703 0.973951 -0.00500508 
0.106255 0.984011 0.142942 0.117901 0.963388 0.240798 0.284105 -0.943455 -0.170815 
0.1212 -0.986392 0.111088 -0.237566 -0.928181 0.286432 0.552522 -0.821585 0.140418 
0.542075 -0.837132 -0.0732412 -0.742092 -0.539212 0.398182 -0.430519 -0.739782 0.517084 
-0.403552 -0.643298 0.650626 -0.646874 -0.567011 0.509954 -0.908682 -0.413902 0.0546103 
-0.988642 -0.149778 0.012357 -0.995766 -0.0835439 -0.0383567 -0.980953 0.156017 0.115713 
0.901083 0.189495 0.390052 -0.664902 0.73917 -0.107391 -0.305335 0.933634 -0.187348 
-0.287196 0.945282 -0.154794 -0.263003 0.947085 -0.184007 -0.196255 0.978963 0.0558219 
0.052727 -0.870454 0.489417 -0.154111 -0.870828 0.466806 0.18527 -0.836162 0.516245 
0.285622 -0.879893 0.379749 0.520717 -0.848105 0.0978343 0.914402 -0.376278 -0.149279 
0.756898 -0.615915 -0.218528 -0.350529 -0.651205 0.673098 0.974667 -0.214131 -0.0645941 
-0.868864 -0.464969 0.16994 -0.953506 -0.301258 -0.00837054 0.974015 -0.0217564 0.225435 
-0.787309 0.611962 -0.0751464 -0.444294 0.892596 -0.0766527 0.675066 0.563008 0.476769 
-0.195923 0.9786 0.0628962 -0.128301 0.980809 0.146805 -0.0323111 0.989787 0.138843 
0.753172 -0.654408 -0.0669437 0.652123 -0.724383 0.223617 0.991903 -0.0548733 0.114531 
-0.903343 -0.34434 0.255738 -0.832609 -0.419053 0.362155 -0.934137 0.347451 0.0816479 
-0.848126 0.507009 0.153702 0.874192 0.209904 0.437869 -0.619399 0.74437 0.249516 
-0.399754 0.893047 0.206553 -0.24398 0.963456 0.110568 0.427058 0.731829 0.531082 
-0.0439495 -0.824341 0.564384 0.886619 -0.191764 0.420872 -0.95576 0.0898808 0.28008 
-0.744368 0.497716 0.445191 -0.273776 0.934588 0.227137 0.32376 0.709033 0.62646 
0.0962685 0.881449 0.462364 0.308155 -0.823206 0.476836 0.897669 -0.289334 0.332379 
-0.187435 -0.712984 0.675664 0.781644 0.0542079 0.621365 -0.847338 -0.0118777 0.53092 
-0.576209 0.737748 0.351725 -0.335267 0.884769 0.323697 -0.0593843 0.928069 0.367644 
0.00607009 0.82146 0.570234 0.267929 0.678926 0.683574 0.574079 -0.615674 0.539795 
0.681866 -0.168564 0.711789 -0.123064 -0.637807 0.760301 0.531975 -0.071624 0.843725 
-0.033903 -0.764216 0.644068 0.46982 0.106004 0.876375 -0.714978 -0.458601 0.527723 
0.622331 0.345707 0.702276 -0.834513 0.109347 0.540029 -0.745184 0.39472 0.537492 
0.2411 0.654348 0.716729 0.368446 -0.366818 0.85422 -0.204948 -0.567059 0.797772 
0.373192 -0.0751132 0.924708 -0.547752 -0.585535 0.597592 -0.787916 -0.103481 0.607026 
0.271984 0.365533 0.890174 -0.6036 0.599317 0.52582 0.289223 0.445898 0.847069 
-0.259415 0.881158 0.395303 -0.0269987 -0.54648 0.837037 0.0729838 -0.508917 0.857716 
0.0531091 -0.435974 0.898391 -0.501111 0.73701 0.453547 -0.454583 0.651024 0.607883 
-0.0815734 0.821946 0.563693 0.186929 0.68227 0.706799 -0.134244 -0.606583 0.783605 
-0.0876817 -0.456721 0.885279 0.297927 -0.0873991 0.950579 -0.48849 -0.427119 0.760885 
0.209674 -0.285977 0.935015 0.296881 -0.000139055 0.954914 0.339095 -0.0451041 0.93967 
-0.728588 -0.240659 0.641283 -0.638073 0.0802922 0.765778 -0.741325 0.16267 0.651134 
-0.194465 0.538874 0.819633 0.205295 0.560349 0.802411 0.154077 -0.288644 0.944958 
-0.347568 -0.383236 0.855761 -0.24424 -0.533164 0.809989 0.0395526 -0.258537 0.965191 
0.250706 -0.135333 0.958557 0.315957 0.254998 0.913864 -0.585118 0.139693 0.798826 
-0.30992 0.381397 0.870911 0.0225089 0.490593 0.871098 0.0392893 0.207815 0.977379 
-0.0941711 0.49726 0.862476 -0.408242 -0.100069 0.907372 -0.155503 0.0490955 0.986614 
0.101332 -0.000766019 0.994852 -0.166447 -0.331203 -0.928763 -0.240309 0.011259 -0.970631 
-0.465732 -0.418038 -0.77996 -0.527112 0.0803851 -0.845985 -0.273953 -0.319036 -0.907285 
-0.07578 0.194066 -0.978057 0.0152755 0.0232117 -0.999614 -0.180126 0.34468 -0.921276 
0.112699 0.375393 -0.919989 0.199416 0.242676 -0.94939 -0.0430397 0.448227 -0.892883 
0.0955027 -0.152606 -0.983662 0.26682 0.0485259 -0.962524 -0.741495 0.17784 -0.64696 
-0.549368 0.355841 -0.756023 -0.695278 0.447694 -0.562279 0.113743 -0.101602 -0.988301 
0.303511 0.145057 -0.941722 -0.710961 -0.167658 -0.682953 0.315504 0.183438 -0.931025 
-0.794631 0.177463 -0.580577 -0.429886 0.732661 -0.527641 -0.257536 0.685155 -0.68135 
0.035404 0.653326 -0.756248 0.30723 0.469667 -0.827661 0.201902 0.628079 -0.7515 
0.274122 -0.331664 -0.902694 0.106974 -0.348044 -0.931355 -0.101271 -0.461348 -0.881421 
0.439981 -0.14345 -0.886476 0.389622 -0.0090541 -0.92093 -0.113422 -0.615703 -0.779773 
-0.69248 -0.424737 -0.583155 -0.832519 -0.0799649 -0.548195 0.414354 0.174289 -0.893272 
-0.812434 0.011161 -0.582946 -0.743107 0.387999 -0.545205 -0.504638 0.634966 -0.584943 
-0.414415 0.825089 -0.384042 -0.226594 0.896229 -0.381352 0.404829 -0.315517 -0.858232 
0.351856 -0.590159 -0.726574 0.225036 -0.32009 -0.920273 0.584001 -0.246259 -0.773499 
-0.00710891 -0.545933 -0.837799 0.583633 0.0883746 -0.807194 0.519109 0.18105 -0.835312 
-0.697267 -0.323618 -0.639602 -0.761092 0.450203 -0.466966 0.0802481 0.802203 -0.591634 
0.259601 -0.779433 -0.570168 -0.119797 -0.651426 -0.749195 0.703234 -0.402629 -0.585963 
0.613833 -0.186621 -0.76706 0.83867 -0.0850556 -0.537958 -0.371523 -0.677832 -0.63444 
0.787084 -0.000750312 -0.616846 -0.598668 -0.464443 -0.652602 0.762686 0.0513492 -0.644728 
0.531022 0.222913 -0.817511 0.66095 0.298306 -0.688592 -0.790336 0.405742 -0.459066 
0.330551 0.482356 -0.811214 0.749039 -0.586009 -0.309087 0.937818 -0.309817 -0.156561 
0.890656 -0.185042 -0.415321 0.765908 0.200431 -0.610912 0.790334 0.0827466 -0.607063 
-0.8876 0.0516791 -0.457707 -0.942753 0.238044 -0.233563 -0.561101 0.759434 -0.32928 
-0.319849 0.923054 -0.2137 0.358518 0.586283 -0.726455 0.545277 0.494337 -0.676982 
0.0170122 0.854377 -0.519376 0.885018 -0.464153 -0.0361363 0.937414 0.0319564 -0.346748 
-0.869006 -0.362662 -0.336607 -0.903564 -0.277165 -0.326728 -0.939884 -0.107851 -0.324016 
-0.961774 -0.2461 -0.120107 0.903838 0.0671282 -0.422575 -0.968886 0.182968 -0.16668 
-0.716735 0.643085 -0.26969 -0.262553 0.931546 -0.251572 0.301595 0.72507 -0.619123 
0.509657 0.587033 -0.629001 -0.134755 0.97661 -0.16755 0.0380066 -0.861071 -0.507063 
-0.315169 -0.736402 -0.598648 0.533872 -0.842582 -0.0709628 0.968031 -0.205223 0.144218 
-0.644218 -0.590104 -0.486581 -0.830831 -0.446032 -0.33283 0.952525 0.000535391 -0.304459 
-0.24966 0.967606 0.0375382 0.78339 0.340394 -0.520031 -0.331419 0.943155 0.0249159 
0.635005 0.545129 -0.547359 0.0128962 -0.795246 -0.60615 -0.177498 -0.891051 -0.417759 
0.337278 -0.930752 -0.141225 -0.218669 -0.833768 -0.506967 0.83705 -0.535683 0.111316 
-0.49573 -0.736353 -0.460473 -0.891901 -0.445248 -0.079167 0.994323 -0.0948903 -0.0481413 
-0.990928 -0.124875 -0.0496831 -0.652355 0.756315 -0.0492033 -0.453077 0.891472 -2.39819e-05 
-0.252878 0.925514 0.281916 -0.354198 0.928035 0.115305 0.734677 0.552605 -0.393544 
-0.312226 0.934278 0.172161 -0.191513 -0.923028 -0.333681 -0.143003 -0.975666 -0.166214 
0.110752 -0.970991 -0.211923 -0.30334 -0.820404 -0.484688 -0.0665665 -0.990753 -0.118229 
0.640686 -0.745571 0.183428 0.799973 -0.495345 0.338638 -0.704364 -0.693428 -0.151754 
-0.87519 -0.438001 0.20542 -0.870822 -0.203493 0.447504 -0.923432 -0.157403 0.349995 
0.983127 -0.175711 -0.0508546 -0.946589 -0.128204 0.295861 0.997093 -0.0576154 0.0498629 
-0.893046 0.279887 0.352323 -0.802743 0.459012 0.380672 -0.80688 0.587585 0.0607387 
-0.583494 0.722841 0.370185 -0.485274 0.624019 0.612462 -0.339866 0.818152 0.463809 
-0.385156 0.802951 0.45489 -0.22894 0.895938 0.380632 0.384551 0.815128 -0.433228 
0.535624 0.744289 -0.398924 0.123193 -0.989145 0.0800968 -0.263874 -0.94393 -0.198412 
0.444082 -0.876639 0.185192 -0.488933 -0.868579 -0.0807134 0.769994 -0.154225 0.619132 
-0.753695 -0.654231 0.0626559 -0.723181 -0.640694 0.257915 -0.634008 -0.773297 0.00679772 
-0.815097 -0.481659 0.321903 -0.748517 -0.290374 0.596159 -0.696526 0.171607 0.696708 
-0.544658 0.426382 0.722181 -0.344609 0.681699 0.645392 0.989845 0.0372267 0.137188 
0.953855 0.213982 -0.210649 -0.332441 0.888746 0.315616 -0.288695 0.941756 0.172484 
0.0095967 -0.80465 0.593672 -0.363347 -0.809834 0.460595 0.36066 -0.785128 0.503486 
0.64928 -0.436598 0.62275 -0.530623 -0.609468 0.589056 0.686189 -0.464988 0.559403 
0.608184 -0.249399 0.7536 -0.644176 -0.510437 0.569642 -0.658447 -0.284541 0.696766 
-0.510866 -0.178909 0.840837 -0.547085 -0.154379 0.822718 -0.611329 0.0229438 0.791044 
-0.176625 0.175262 0.968549 0.842559 -0.298463 0.448347 -0.364637 0.485322 0.794671 
0.886787 -0.218632 0.407196 -0.339877 0.663527 0.666495 0.917345 0.391142 -0.0740725 
0.621512 0.731872 -0.279437 0.139465 0.971805 -0.190116 -0.232595 0.947369 0.219981 
0.0430173 0.998091 0.0443254 -0.185344 -0.884382 0.428388 -0.228408 -0.638086 0.735307 
-0.113823 -0.509453 0.852937 0.162082 -0.796808 0.582089 0.517579 -0.434519 0.737092 
-0.152554 -0.279618 0.947914 -0.253378 -0.236541 0.938002 0.511673 -0.154538 0.845168 
0.426299 -0.110596 0.897796 0.668749 -0.262214 0.695715 0.790555 -0.244338 0.561536 
0.944674 0.327448 0.0192333 -0.389516 0.721716 0.572192 0.752657 0.658393 -0.00506551 
-0.430198 0.657201 0.618884 0.418857 0.907963 -0.0127115 -0.320858 0.867049 0.38115 
-0.0981343 0.971066 0.217717 0.253958 0.945561 0.203516 0.00935727 -0.456137 0.88986 
0.295889 -0.3815 0.875733 0.11982 -0.278488 0.952936 0.114021 -0.0924662 0.989166 
0.0484629 -0.0214636 0.998594 0.219994 -0.130192 0.966774 0.251262 -0.215578 0.943607 
0.44742 -0.23336 0.863342 0.860476 0.493589 0.126296 0.837779 0.138664 0.528108 
0.716002 0.679908 0.158323 0.461049 0.868053 0.184167 0.378222 0.854483 0.3561 