# vtk DataFile Version 4.2
vtk output
ASCII
DATASET POLYDATA
POINTS 554 float
339.598 191.893 137.771 339.419 191.73 137.844 339.827 191.89 137.857 
339.599 191.745 137.847 339.678 191.743 137.913 338.891 192.188 137.756 
340.243 192.191 137.975 340.16 192.002 138.219 340.409 192.66 137.783 
340.984 192.617 138.393 339.393 193.039 137.49 340.4 193.139 137.63 
341.229 192.919 138.3 341.325 193.228 138.133 341.495 193.215 138.387 
341.248 193.79 137.825 341.545 194.112 137.957 336.274 191.904 138.596 
338.047 191.662 138.15 337.701 191.583 138.286 339.206 191.7 137.927 
338.025 191.558 138.333 338.731 191.708 138.147 339.733 191.822 138.576 
334.257 193.17 139.013 334.068 193.561 138.759 336.859 192.984 137.846 
341.03 192.613 138.603 334.624 194.151 138.251 338.388 193.26 137.568 
341.678 193.397 138.623 332.993 195.005 139.036 341.794 194.76 138.14 
332.903 196.246 138.802 335.33 196.153 137.839 335.827 197.746 137.829 
336.004 191.952 138.827 336.443 191.754 138.809 335.365 192.237 139.499 
338.102 191.568 138.63 333.808 193.516 138.989 333.745 193.426 139.281 
334.084 193.099 139.445 340.96 192.617 138.85 333.053 194.39 139.405 
332.764 194.795 139.273 332.708 194.791 139.415 332.639 194.894 139.327 
342.202 194.098 139.427 332.665 195.062 139.274 332.545 195.712 139.408 
332.121 196.613 139.591 332.715 196.804 138.778 326.429 199.842 139.805 
326.33 199.971 139.794 331.762 198.529 139.141 330.949 198.396 139.913 
343.423 198.064 139.449 325.98 200.258 139.754 327.948 199.66 140.14 
329.759 199.816 139.498 343.852 198.46 139.889 328.445 200.7 139.288 
340.421 200.401 138.62 325.619 202.744 139.462 327.865 202.779 139.092 
333.307 202.304 138.733 336.478 191.86 139.572 337.227 191.73 139.41 
338.426 191.864 139.541 333.414 193.765 139.454 334.206 193.008 139.837 
333.908 193.334 140.139 341.49 193.397 139.61 332.708 194.984 139.736 
324.971 199.648 140.36 324.777 199.723 140.421 326.272 199.806 139.897 
344.161 198.605 140.433 324.28 199.834 140.563 325.331 200.14 139.977 
325.935 199.776 140.196 327.835 199.428 140.715 329.461 199.068 140.475 
330.771 198.173 140.678 344.033 199.062 140.031 344.545 199.292 140.929 
324.916 200.59 139.901 329.126 199.065 141.077 344.544 199.63 140.674 
343.705 200.557 140.027 342.151 201.488 139.493 322.885 202.423 140.897 
323.394 203.404 140.943 323.588 203.19 140.664 326.133 203.866 139.602 
324.568 204.334 140.528 325.126 204.322 140.204 335.762 192.186 140.047 
339.888 192.576 140.036 334.201 193.406 140.73 341.02 193.605 140.558 
333.922 193.949 140.991 332.128 196.45 141.007 342.936 195.951 140.822 
343.54 197.036 140.985 323.1 199.782 141.309 322.849 199.976 141.372 
323.715 199.633 141.101 324.922 199.619 140.474 344.037 198.008 141.664 
322.555 200.207 141.385 323.102 200.091 140.922 324.864 199.64 140.795 
326.859 199.488 141.192 330.664 198.233 141.266 322.249 200.766 141.338 
329.776 198.81 141.564 344.634 200.143 140.948 345.035 200.39 141.58 
345.104 200.198 141.737 322.095 200.989 141.512 322.502 201.089 140.991 
322.071 201.562 141.674 322.238 201.928 141.603 323.042 203.545 141.838 
343.462 203.539 141.294 323.522 204.155 141.565 324.57 204.866 140.856 
324.561 206.249 142.151 324.917 206.603 141.952 325.292 206.766 141.71 
337.074 192.672 140.902 338.046 192.663 140.777 323.026 199.838 141.45 
323.277 199.764 141.45 323.714 199.669 141.348 322.608 200.202 141.6 
323.024 200.012 141.674 325.954 199.6 141.622 322.399 200.46 141.72 
327.979 199.576 142.485 345.177 200.451 142.589 322.093 200.962 141.744 
322.019 201.234 141.71 345.393 200.981 142.556 345.444 201.371 142.401 
345.504 201.31 142.743 322.036 201.47 141.893 345.548 201.707 142.694 
323.746 204.918 142.367 344.221 204.234 142.664 325.44 207.441 142.74 
325.822 207.815 142.528 326.271 208.24 142.483 326.922 208.828 142.63 
336.159 193.575 141.828 334.655 194.404 142.065 339.984 194.166 141.81 
324.927 199.842 142.039 344.464 199.409 143.16 324.691 200.18 142.584 
327.774 199.887 143.128 322.095 201.199 141.956 322.322 201.291 142.301 
322.118 201.505 142.107 322.384 201.623 142.553 322.47 202.561 142.352 
344.973 203.307 142.842 324.01 205.188 142.93 325.732 207.631 143.491 
327.265 209.794 143.645 327.528 210.069 143.542 324.431 200.578 143.009 
330.265 199.175 143.498 322.98 201.42 142.96 326.655 200.71 143.904 
345.202 201.119 143.665 345.422 201.408 143.383 322.354 201.849 142.553 
345.341 201.967 143.799 345.336 202.328 143.657 345.071 202.758 144.071 
345.457 202.267 143.199 344.777 203.673 144.086 324.922 206.107 143.664 
343.895 205.639 143.671 342.898 207.184 143.959 333.424 211.692 143.619 
329.064 211.72 144.359 323.994 201.448 143.479 329.384 200.67 145.303 
345.085 201.376 144.073 328.588 201.461 145.622 323.679 203.308 143.554 
324.738 205.071 143.975 327.878 210.076 145.187 328.061 210.756 144.672 
328.497 211.304 144.572 338.176 211.675 145.236 329.38 212.433 145.296 
330.996 213.066 144.977 329.703 212.711 145.323 339.614 197.904 146.061 
343.804 200.983 145.619 328.022 202.633 146.071 325.173 204.548 144.474 
327.645 208.848 145.501 341.472 209.702 145.522 342.909 208.219 145.998 
329.598 212.631 145.53 329.733 212.62 145.83 336.718 212.986 145.999 
330.747 213.423 145.876 341.497 199.382 146.581 328.563 202.545 146.373 
326.766 203.876 145.679 342.64 208.674 146.723 342.406 209.14 146.382 
342.526 209.3 146.808 342.205 209.548 146.679 329.652 211.878 146.316 
341.118 210.618 146.875 338.609 212.19 146.818 340.399 211.153 147.106 
337.172 213.041 146.692 337.616 212.891 146.89 337.995 212.666 146.941 
331.103 213.796 146.277 334.84 213.833 146.739 331.428 214.05 146.598 
331.406 214.026 146.428 331.811 214.113 146.417 332.205 214.201 146.638 
334.153 214.104 146.908 331.621 214.141 146.581 331.872 214.186 146.658 
330.705 205.573 148.143 342.93 205.633 147.626 331.486 208.786 148.187 
342.421 209.313 146.896 341.94 209.87 146.903 340.872 210.835 147.154 
341.742 210.017 147.128 330.901 212.825 146.942 339.102 211.932 147.196 
340.63 210.885 147.597 337.723 212.835 147.149 332.199 213.644 147.315 
336.823 213.087 147.459 331.672 214.08 146.738 333.099 214.301 147.139 
333.857 214.202 147.142 335.117 213.719 147.278 335.71 213.46 147.492 
333.252 214.273 147.263 333.997 214.085 147.364 333.258 200.425 148.144 
342.146 208.388 147.945 341.624 208.817 148.384 341.187 210.04 148.138 
340.577 210.68 148.092 336.05 211.968 148.746 339.39 211.536 147.902 
336.371 212.217 148.575 336.145 213.088 147.8 334.382 213.78 147.553 
340.41 200.914 148.852 331.667 202.432 148.45 333.502 204.285 149.807 
340.848 206.882 149.494 336.263 208.518 150.037 340.457 208.577 149.4 
336.523 209.123 149.898 336.809 209.708 149.744 336.921 210.323 149.479 
338.986 210.034 149.43 339.561 210.611 148.845 335.221 200.873 149.628 
338.416 200.886 149.738 338.825 201.164 149.8 339.083 202.412 150.16 
339.125 204.124 150.405 336.244 205.684 150.649 338.889 206.744 150.424 
338.145 207.532 150.438 337.068 201.719 150.29 337.736 202.947 150.572 
336.929 204.871 150.738 335.056 201.648 305.021 336.886 201.949 304.606 
338.901 201.121 305.144 334.662 202.687 304.807 335.873 202.555 304.529 
335.476 203.878 304.42 339.306 203.434 304.695 336.261 204.993 304.299 
338.489 204.517 304.388 339.124 205.195 304.554 335.549 200.966 305.318 
340.221 200.82 306 332.941 202.052 305.828 340.977 206.238 305.51 
336.122 208.418 304.96 340.34 208.863 305.602 337.431 210.273 305.412 
338.77 210.203 305.534 338.994 199.27 306.942 334.474 211.038 306.084 
340.512 210.801 306.661 339.603 211.432 306.651 333.388 200.308 306.852 
342.495 203.063 307.005 342.624 206.352 306.958 332.274 210.181 306.665 
341.777 209.881 307.106 341.245 210.529 307.176 331.945 213.435 307.65 
337.725 212.551 307.039 338.533 212.334 307.237 332.53 213.755 307.573 
334.177 213.343 307.018 334.911 213.358 307.047 335.844 213.146 306.979 
332.666 214.062 307.854 333.108 214.121 307.694 333.369 214.083 307.597 
334.378 213.944 307.582 343.186 201.651 308.241 329.693 202.679 307.921 
329.047 203.499 308.02 328.758 203.956 308.103 343.396 203.961 307.935 
342.681 208.737 308.192 342.449 209.483 307.881 341.705 210.232 307.521 
342.343 209.605 307.933 340.924 210.956 307.841 341.266 210.645 308.044 
330.316 212.711 308.453 330.89 213.143 308.174 330.603 213.193 308.505 
338.125 212.68 307.926 331.043 213.547 308.34 335.66 213.627 307.676 
336.495 213.333 307.945 331.437 213.934 308.469 332.362 214.125 308.188 
333.38 214.133 307.848 334.103 214.057 307.866 334.503 213.944 308.214 
331.698 214.031 308.325 332.001 214.099 308.322 338.266 197.64 308.823 
326.349 203.416 309.591 327.125 202.802 309.36 328.574 205.859 308.15 
327.913 207.019 308.721 327.556 208.201 309.253 343.355 207.393 308.914 
343.144 207.931 308.956 341.995 209.517 308.968 340.704 210.759 308.848 
329.115 211.734 309.163 329.441 212.322 309.251 329.667 212.674 309.388 
330.042 212.961 309.428 332.42 213.919 308.928 334.088 213.875 308.665 
334.558 213.573 309.092 331.738 214.01 308.543 341.097 197.749 309.966 
330.151 200.617 309.276 324.326 201.835 310.971 325.085 202.263 310.53 
326.234 201.683 310.39 344.571 203.261 309.785 325.091 203.761 310.382 
326.024 203.895 309.766 325.32 205.423 310.496 344.277 204.777 309.559 
343.973 205.95 309.635 343.739 206.576 309.668 327.763 210.221 309.973 
339.504 210.746 310.057 331.06 213.223 309.806 331.324 213.072 310.09 
329.92 212.847 309.764 343.765 199.466 310.58 324.059 201.143 311.551 
345.401 201.652 311.491 323.432 201.484 311.645 345.256 202.244 310.998 
324.152 203.96 311.114 324.502 205.552 311.517 325.449 206.776 310.976 
326.697 208.678 310.513 327.401 209.912 310.357 327.655 210.497 310.788 
328.24 211.115 310.853 329.397 212.221 310.319 330.894 212.128 311.056 
329.619 212.6 309.958 331.166 198.152 312.178 324.818 200.517 311.98 
345.07 200.695 311.59 323.254 201.217 311.96 322.837 201.221 312.262 
327.042 200.155 311.752 322.634 201.399 312.392 322.617 201.678 312.347 
345.246 202.955 311.264 345.382 202.924 311.953 323.844 205.005 312.18 
[...]
POINT_DATA 554
COLOR_SCALARS scalars 3
1 0.564706 1 1 0.564706 1 1 0.564706 1 
1 0.564706 1 1 0.564706 1 
1 0.564706 1 1 0.564706 1 
1 0.564706 1 1 0.564706 1 
1 0.564706 1 1 0.564706 1 
1 0.564706 1 1 0.564706 1 
1 0.564706 1 1 0.564706 1 
1 0.564706 1 1 0.564706 1 
1 0.564706 1 1 0.564706 1 
1 0.564706 1 1 0.564706 1 
1 0.564706 1 1 0.564706 1 
1 0.564706 1 1 0.564706 1 
1 0.564706 1 1 0.564706 1 
1 0.564706 1 1 0.564706 1 
1 0.564706 1 1 0.564706 1 
1 0.564706 1 1 0.564706 1 
1 0.564706 1 1 0.564706 1 
1 0.564706 1 1 0.564706 1 
1 0.564706 1 1 0.564706 1 
1 0.564706 1 1 0.564706 1 
1 0.564706 1 1 0.564706 1 
1 0.564706 1 1 0.564706 1 
1 0.564706 1 1 0.564706 1 
1 0.564706 1 1 0.564706 1 
1 0.564706 1 1 0.564706 1 
1 0.564706 1 1 0.564706 1 
1 0.564706 1 1 0.564706 1 
1 0.564706 1 1 0.564706 1 
1 0.564706 1 1 0.564706 1 
1 0.564706 1 1 0.564706 1 
1 0.564706 1 1 0.564706 1 
1 0.564706 1 1 0.564706 1 
1 0.564706 1 1 0.564706 1 
1 0.564706 1 1 0.564706 1 
1 0.564706 1 1 0.564706 1 
1 0.564706 1 1 0.564706 1 
1 0.564706 1 1 0.564706 1 
1 0.564706 1 1 0.564706 1 
1 0.564706 1 1 0.564706 1 
1 0.564706 1 1 0.564706 1 
1 0.564706 1 1 0.564706 1 
1 0.564706 1 1 0.564706 1 
1 0.564706 1 1 0.564706 1 
1 0.564706 1 1 0.564706 1 
1 0.564706 1 1 0.564706 1 
1 0.564706 1 1 0.564706 1 
1 0.564706 1 1 0.564706 1 
1 0.564706 1 1 0.564706 1 
1 0.564706 1 1 0.564706 1 
1 0.564706 1 1 0.564706 1 
1 0.564706 1 1 0.564706 1 
1 0.564706 1 1 0.564706 1 
1 0.564706 1 1 0.564706 1 
1 0.564706 1 1 0.564706 1 
1 0.564706 1 1 0.564706 1 
1 0.564706 1 1 0.564706 1 
1 0.564706 1 1 0.564706 1 
1 0.564706 1 1 0.564706 1 
1 0.564706 1 1 0.564706 1 
1 0.564706 1 1 0.564706 1 
1 0.564706 1 1 0.564706 1 
1 0.564706 1 1 0.564706 1 
1 0.564706 1 1 0.564706 1 
1 0.564706 1 1 0.564706 1 
1 0.564706 1 1 0.564706 1 
1 0.564706 1 1 0.564706 1 
1 0.564706 1 1 0.564706 1 
1 0.564706 1 1 0.564706 1 
1 0.564706 1 1 0.564706 1 
1 0.564706 1 1 0.564706 1 
1 0.564706 1 1 0.564706 1 
1 0.564706 1 1 0.564706 1 
1 0.564706 1 1 0.564706 1 
1 0.564706 1 1 0.564706 1 
1 0.564706 1 1 0.564706 1 
1 0.564706 1 1 0.564706 1 
1 0.564706 1 1 0.564706 1 
1 0.564706 1 1 0.564706 1 
1 0.564706 1 1 0.564706 1 
1 0.564706 1 1 0.564706 1 
1 0.564706 1 1 0.564706 1 
1 0.564706 1 1 0.564706 1 
1 0.564706 1 1 0.564706 1 
1 0.564706 1 1 0.564706 1 
1 0.564706 1 1 0.564706 1 
1 0.564706 1 1 0.564706 1 
1 0.564706 1 1 0.564706 1 
1 0.564706 1 1 0.564706 1 
1 0.564706 1 1 0.564706 1 
1 0.564706 1 1 0.564706 1 
1 0.564706 1 1 0.564706 1 
1 0.564706 1 1 0.564706 1 
1 0.564706 1 1 0.564706 1 
1 0.564706 1 1 0.564706 1 
1 0.564706 1 1 0.564706 1 
1 0.564706 1 1 0.564706 1 
1 0.564706 1 1 0.564706 1 
1 0.564706 1 1 0.564706 1 
1 0.564706 1 1 0.564706 1 
1 0.564706 1 1 0.564706 1 
1 0.564706 1 1 0.564706 1 
1 0.564706 1 1 0.564706 1 
1 0.564706 1 1 0.564706 1 
1 0.564706 1 1 0.564706 1 
1 0.564706 1 1 0.564706 1 
1 0.564706 1 1 0.564706 1 
1 0.564706 1 1 0.564706 1 
1 0.564706 1 1 0.564706 1 
1 0.564706 1 1 0.564706 1 
1 0.564706 1 1 0.564706 1 
1 0.564706 1 1 0.564706 1 
1 0.564706 1 1 0.564706 1 
1 0.564706 1 1 0.564706 1 
1 0.564706 1 1 0.564706 1 
1 0.564706 1 1 0.564706 1 
1 0.564706 1 1 0.564706 1 
1 0.564706 1 1 0.564706 1 
1 0.564706 1 1 0.564706 1 
1 0.564706 1 1 0.564706 1 
1 0.564706 1 1 0.564706 1 
1 0.564706 1 1 0.564706 1 
1 0.564706 1 1 0.564706 1 
1 0.564706 1 1 0.564706 1 
1 0.564706 1 1 0.564706 1 
1 0.564706 1 1 0.564706 1 
1 0.564706 1 1 0.564706 1 
1 0.564706 1 1 0.564706 1 
1 0.564706 1 1 0.564706 1 
1 0.564706 1 1 0.564706 1 
1 0.564706 1 1 0.564706 1 
1 0.564706 1 1 0.564706 1 
1 0.564706 1 1 0.564706 1 
1 0.564706 1 1 0.564706 1 
1 0.564706 1 1 0.564706 1 
1 0.564706 1 1 0.564706 1 
1 0.564706 1 1 0.564706 1 
1 0.564706 1 1 0.564706 1 
1 0.564706 1 1 0.564706 1 
1 0.564706 1 1 0.564706 1 
1 0.564706 1 1 0.564706 1 
1 0.564706 1 1 0.564706 1 
1 0.564706 1 1 0.564706 1 
1 0.564706 1 1 0.564706 1 
1 0.564706 1 1 0.564706 1 
1 0.564706 1 1 0.564706 1 
1 0.564706 1 1 0.564706 1 
1 0.564706 1 1 0.564706 1 
1 0.564706 1 1 0.564706 1 
1 0.564706 1 1 0.564706 1 
1 0.564706 1 1 0.564706 1 
1 0.564706 1 1 0.564706 1 
1 0.564706 1 1 0.564706 1 
1 0.564706 1 1 0.564706 1 
1 0.564706 1 1 0.564706 1 
1 0.564706 1 1 0.564706 1 
1 0.564706 1 1 0.564706 1 
1 0.564706 1 1 0.564706 1 
1 0.564706 1 1 0.564706 1 
1 0.564706 1 1 0.564706 1 
1 0.564706 1 1 0.564706 1 
1 0.564706 1 1 0.564706 1 
1 0.564706 1 1 0.564706 1 
1 0.564706 1 1 0.564706 1 
1 0.564706 1 1 0.564706 1 
1 0.564706 1 1 0.564706 1 
1 0.564706 1 1 0.564706 1 
1 0.564706 1 1 0.564706 1 
1 0.564706 1 1 0.564706 1 
1 0.564706 1 1 0.564706 1 
1 0.564706 1 1 0.564706 1 
1 0.564706 1 1 0.564706 1 
1 0.564706 1 1 0.564706 1 
1 0.564706 1 1 0.564706 1 
1 0.564706 1 1 0.564706 1 
1 0.564706 1 1 0.564706 1 
1 0.564706 1 1 0.564706 1 
1 0.564706 1 1 0.564706 1 
1 0.564706 1 1 0.564706 1 
1 0.564706 1 1 0.564706 1 
1 0.564706 1 1 0.564706 1 
1 0.564706 1 1 0.564706 1 
1 0.564706 1 1 0.564706 1 
1 0.564706 1 1 0.564706 1 
1 0.564706 1 1 0.564706 1 
1 0.564706 1 1 0.564706 1 
1 0.564706 1 1 0.564706 1 
1 0.564706 1 1 0.564706 1 
1 0.564706 1 1 0.564706 1 
1 0.564706 1 1 0.564706 1 
1 0.564706 1 1 0.564706 1 
1 0.564706 1 1 0.564706 1 
1 0.564706 1 1 0.564706 1 
1 0.564706 1 1 0.564706 1 
1 0.564706 1 1 0.564706 1 
1 0.564706 1 1 0.564706 1 
1 0.564706 1 1 0.564706 1 
1 0.564706 1 1 0.564706 1 
1 0.564706 1 1 0.564706 1 
1 0.564706 1 1 0.564706 1 
1 0.564706 1 1 0.564706 1 
1 0.564706 1 1 0.564706 1 
1 0.564706 1 1 0.564706 1 
1 0.564706 1 1 0.564706 1 
1 0.564706 1 1 0.564706 1 
1 0.564706 1 1 0.564706 1 
1 0.564706 1 1 0.564706 1 
1 0.564706 1 1 0.564706 1 
1 0.564706 1 1 0.564706 1 
1 0.564706 1 1 0.564706 1 
1 0.564706 1 1 0.564706 1 
1 0.564706 1 1 0.564706 1 
1 0.564706 1 1 0.564706 1 
1 0.564706 1 1 0.564706 1 
1 0.564706 1 1 0.564706 1 
1 0.564706 1 1 0.564706 1 
1 0.564706 1 1 0.564706 1 
1 0.564706 1 1 0.564706 1 
1 0.564706 1 1 0.564706 1 
1 0.564706 1 1 0.564706 1 
1 0.564706 1 1 0.564706 1 
1 0.564706 1 1 0.564706 1 
1 0.564706 1 1 0.564706 1 
1 0.564706 1 1 0.564706 1 
1 0.564706 1 1 0.564706 1 
1 0.564706 1 1 0.564706 1 
1 0.564706 1 1 0.564706 1 
1 0.564706 1 1 0.564706 1 
1 0.564706 1 1 0.564706 1 
1 0.564706 1 1 0.564706 1 
1 0.564706 1 1 0.564706 1 
1 0.564706 1 1 0.564706 1 
1 0.564706 1 1 0.564706 1 
1 0.564706 1 1 0.564706 1 
1 0.564706 1 1 0.564706 1 
1 0.564706 1 1 0.564706 1 
1 0.564706 1 1 0.564706 1 
1 0.564706 1 1 0.564706 1 
1 0.564706 1 1 0.564706 1 
1 0.564706 1 1 0.564706 1 
1 0.564706 1 1 0.564706 1 
1 0.564706 1 1 0.564706 1 
1 0.564706 1 1 0.564706 1 
1 0.564706 1 1 0.564706 1 
1 0.564706 1 1 0.564706 1 
1 0.564706 1 1 0.564706 1 
1 0.564706 1 1 0.564706 1 
1 0.564706 1 1 0.564706 1 
1 0.564706 1 1 0.564706 1 
1 0.564706 1 1 0.564706 1 
1 0.564706 1 1 0.564706 1 
1 0.564706 1 1 0.564706 1 
1 0.564706 1 1 0.564706 1 
1 0.564706 1 1 0.564706 1 
1 0.564706 1 1 0.564706 1 
1 0.564706 1 1 0.564706 1 
1 0.564706 1 1 0.564706 1 
1 0.564706 1 1 0.564706 1 
1 0.564706 1 1 0.564706 1 
1 0.564706 1 1 0.564706 1 
1 0.564706 1 1 0.564706 1 
1 0.564706 1 1 0.564706 1 
1 0.564706 1 1 0.564706 1 
1 0.564706 1 1 0.564706 1 
1 0.564706 1 1 0.564706 1 
1 0.564706 1 1 0.564706 1 
1 0.564706 1 1 0.564706 1 
1 0.564706 1 1 0.564706 1 
1 0.564706 1 1 0.564706 1 
1 0.564706 1 1 0.564706 1 
1 0.564706 1 1 0.564706 1 
1 0.564706 1 1 0.564706 1 
1 0.564706 1 1 0.564706 1 
1 0.564706 1 1 0.564706 1 
1 0.564706 1 1 0.564706 1 
1 0.564706 1 1 0.564706 1 
1 0.564706 1 1 0.564706 1 
1 0.564706 1 
NORMALS Normals float
0.103066 -0.312335 -0.944364 0.0628565 -0.971317 -0.229331 0.467045 -0.528265 -0.709087 
0.249803 -0.701656 -0.667292 0.39629 -0.894341 -0.207628 -0.187838 -0.36596 -0.911477 
0.576744 -0.571841 -0.583407 0.520265 -0.842219 0.141391 0.432224 -0.392816 -0.811713 
0.610024 -0.645741 -0.459226 0.045225 -0.0891891 -0.994987 0.147718 0.137918 -0.979366 
0.762019 -0.604513 -0.232144 0.630719 -0.372023 -0.681024 0.804393 -0.438022 -0.401358 
0.540675 -0.12797 -0.831441 0.456038 0.0518139 -0.888451 -0.471779 -0.551657 -0.687822 
-0.0605736 -0.688908 -0.722313 -0.211781 -0.734086 -0.645187 -0.302634 -0.324974 -0.895994 
0.04716 -0.968054 -0.246267 0.0960046 -0.970835 -0.219686 0.257064 -0.937504 0.23453 
-0.476044 -0.70558 -0.524918 -0.440349 -0.440339 -0.782428 -0.202588 -0.180232 -0.962536 
0.729213 -0.683755 0.0269589 -0.40573 -0.256977 -0.877124 -0.0702051 -0.0150697 -0.997419 
0.868785 -0.39607 -0.297223 -0.600945 -0.248361 -0.759725 0.507803 0.0727314 -0.858398 
-0.491551 -0.136867 -0.860026 -0.269893 -0.0648828 -0.960702 -0.138353 0.0634096 -0.988351 
-0.521321 -0.837778 -0.162334 -0.246708 -0.968337 -0.0382016 -0.63445 -0.7392 -0.225957 
0.043276 -0.994538 0.0949828 -0.673186 -0.465909 -0.574238 -0.682322 -0.715913 -0.148006 
-0.577336 -0.812852 -0.077163 0.638964 -0.712672 0.289523 -0.792238 -0.579468 -0.191251 
-0.608254 -0.473031 -0.637392 -0.791547 -0.611093 0.00425372 -0.898272 -0.332919 -0.28683 
0.840663 -0.459776 0.286169 -0.644421 -0.099099 -0.758222 -0.878949 -0.199224 -0.433312 
-0.816091 -0.443951 -0.370005 -0.557835 -0.142579 -0.817613 -0.0386433 -0.835727 -0.547783 
-0.357827 -0.353035 -0.86448 -0.561466 -0.0643027 -0.824998 -0.412923 -0.526444 -0.743203 
0.615248 -0.0239446 -0.78797 -0.23438 -0.381874 -0.894001 -0.188562 -0.815198 -0.547628 
0.228818 -0.0451317 -0.972422 0.745991 -0.13155 -0.652833 -0.0983818 -0.302865 -0.947942 
0.207908 0.201152 -0.957242 -0.275964 0.00510459 -0.961154 0.0463699 0.144255 -0.988453 
-0.126241 0.250677 -0.959804 -0.153553 -0.925431 0.346408 -0.0308434 -0.941086 0.336757 
0.172534 -0.886805 0.42873 -0.807137 -0.582242 -0.0975885 -0.585506 -0.795549 0.155835 
-0.743984 -0.618175 0.253667 0.544622 -0.734208 0.405372 -0.884779 -0.428361 0.183504 
-0.222618 -0.753517 -0.61859 -0.427688 -0.703432 -0.567684 -0.315539 -0.731661 -0.604242 
0.892091 -0.327751 -0.311051 -0.343518 -0.700239 -0.625828 -0.215478 -0.412394 -0.885156 
-0.0836899 -0.90193 -0.423696 -0.225516 -0.974191 -0.00971457 -0.390326 -0.920671 0.00327878 
-0.683591 -0.702194 -0.199068 0.744038 -0.0298845 -0.667468 0.930716 -0.26372 -0.253414 
-0.326727 -0.357677 -0.874824 -0.246753 -0.959739 0.134218 0.873813 -0.0396412 -0.484644 
0.612147 0.214623 -0.76106 0.266735 0.446549 -0.854077 -0.722365 0.286318 -0.629454 
-0.66136 0.490887 -0.567127 -0.406904 0.291754 -0.865626 -0.142929 0.495149 -0.856971 
-0.473119 0.293126 -0.830804 -0.39614 0.397055 -0.827901 -0.354659 -0.881021 0.313079 
0.381032 -0.788696 0.482465 -0.4342 -0.721357 0.53955 0.574552 -0.63469 0.516777 
-0.575098 -0.591716 0.56492 -0.817016 -0.545707 0.186251 0.869606 -0.430149 0.242398 
0.80658 -0.528834 0.264127 -0.41156 -0.860729 -0.299606 -0.629356 -0.777068 -0.00876882 
-0.173779 -0.959875 -0.220091 -0.197789 -0.969162 -0.146985 0.879667 -0.473955 0.0393927 
-0.76988 -0.588083 -0.247875 -0.501416 -0.552357 -0.665946 -0.104287 -0.993517 -0.0452593 
-0.135364 -0.969673 -0.203498 -0.662044 -0.748629 0.035406 -0.780627 -0.320813 -0.536378 
-0.462091 -0.881681 0.0954477 0.866825 0.0543337 -0.495643 0.705246 0.257846 -0.660412 
0.937539 -0.284024 -0.200873 -0.895278 -0.0920376 -0.435897 -0.520501 -0.0623719 -0.85158 
-0.918949 0.220511 -0.326967 -0.874232 0.363018 -0.322393 -0.826491 0.550018 -0.119972 
0.550449 0.454593 -0.700251 -0.819033 0.514691 -0.253531 -0.50073 0.533172 -0.681907 
-0.826702 0.517617 -0.220537 -0.706214 0.552683 -0.442496 -0.525315 0.519391 -0.674001 
-0.0393077 -0.762381 0.645933 0.134961 -0.79689 0.588856 -0.468582 -0.816985 0.336106 
-0.172329 -0.878323 0.445927 -0.0884574 -0.930695 0.35494 -0.565455 -0.751953 0.338861 
-0.342347 -0.718467 0.605478 -0.108986 -0.941407 0.31918 -0.647635 -0.612344 0.453435 
-0.142817 -0.952757 0.268062 0.912091 -0.409842 0.0109211 -0.826618 -0.477944 0.297106 
-0.99635 -0.0846169 -0.0112147 0.91502 -0.319621 -0.246132 0.894969 -0.0610421 -0.441933 
0.957979 -0.283739 0.0420576 -0.969702 0.170542 0.174907 0.916313 0.220495 -0.334292 
-0.902325 0.403167 0.152534 0.734169 0.469252 -0.490712 -0.762353 0.64651 -0.0290241 
-0.698463 0.68867 -0.194634 -0.500863 0.679758 -0.535785 -0.467369 0.700876 -0.538831 
-0.158854 -0.704941 0.691248 -0.434818 -0.682349 0.58765 0.415122 -0.622562 0.663393 
-0.312058 -0.943602 0.110612 0.75956 -0.550595 0.346287 -0.242309 -0.825621 0.509546 
-0.255437 -0.85549 0.450431 -0.872841 -0.247127 0.420805 -0.724458 -0.369131 0.582154 
-0.875716 -0.087007 0.474922 -0.728669 -0.209555 0.652019 -0.826209 0.455795 0.331103 
0.888352 0.438824 -0.135143 -0.874967 0.251875 0.413511 -0.742625 0.394105 0.54147 
-0.823784 0.566064 0.0308545 -0.411231 0.69026 -0.595341 -0.289126 -0.743268 0.60329 
-0.479942 -0.799062 0.362154 -0.511413 -0.426868 0.745815 -0.266449 -0.792856 0.548074 
0.849398 -0.384367 0.361641 0.948312 -0.199668 0.246653 -0.777386 0.0500113 0.627033 
0.919315 -0.0274202 0.392567 0.948185 0.218781 0.230391 0.892387 0.167749 0.418934 
0.963866 0.255918 0.0739473 0.923219 0.378183 0.0681515 -0.736117 0.483138 0.474036 
0.837013 0.472826 -0.275399 0.530391 0.601028 -0.597872 0.140563 0.590042 -0.795043 
-0.516513 0.656899 -0.549271 -0.428446 -0.337639 0.838114 -0.331701 -0.696459 0.636333 
0.80414 -0.166494 0.570647 -0.402801 -0.603587 0.688066 -0.664378 0.158747 0.730343 
-0.728285 0.167614 0.66446 -0.79936 0.43514 0.414339 -0.789951 0.611642 -0.0432654 
-0.776024 0.618316 -0.124383 0.403294 0.682009 -0.610096 -0.783963 0.610036 0.11514 
-0.0789497 0.75579 -0.650037 -0.521384 0.807445 -0.276028 0.208282 -0.756653 0.619754 
0.705681 -0.434867 0.559379 -0.565914 -0.434795 0.700495 -0.641812 0.27595 0.715492 
-0.752781 0.176051 0.634292 0.577618 0.66696 -0.470661 0.914038 0.405617 0.00319567 
-0.679905 0.712682 0.172668 -0.699996 0.560316 0.442778 0.353823 0.84486 -0.401274 
-0.524701 0.837899 -0.150381 0.47965 -0.702402 0.525897 -0.451599 -0.449273 0.770851 
-0.560233 -0.103906 0.821792 0.943246 0.188681 0.273287 0.800639 0.512587 -0.310213 
0.842998 0.521003 0.133827 0.725074 0.688193 -0.0256502 -0.69419 0.328755 0.640329 
0.677945 0.734441 0.0314276 0.511433 0.858291 -0.0421125 0.502111 0.857766 -0.1101 
0.321111 0.930112 -0.178267 0.447856 0.876652 -0.175804 0.542121 0.803367 -0.246387 
-0.47581 0.825136 -0.304556 0.342418 0.885434 -0.314255 -0.572829 0.768018 0.286382 
-0.369166 0.872331 -0.320556 -0.10374 0.87536 -0.47221 0.0700037 0.984805 -0.158929 
0.292493 0.951349 -0.0968667 -0.292526 0.955777 0.0303045 -0.118507 0.971443 0.205562 
-0.499272 0.0995765 0.860704 0.826104 0.0674373 0.559468 -0.460554 0.0882869 0.88323 
0.739874 0.470252 0.481092 0.742588 0.669747 0.000980336 0.673245 0.721658 0.161093 
0.747211 0.556799 0.362838 -0.561088 0.400721 0.724294 0.435244 0.869975 0.231743 
0.614167 0.715841 0.332222 0.454064 0.855578 0.248622 -0.398958 0.412553 0.818922 
0.285861 0.912818 0.291626 -0.337677 0.690705 0.639453 0.0264033 0.990257 -0.136729 
0.227019 0.969119 0.0962798 0.233962 0.855667 0.461623 0.519872 0.853444 0.0369742 
-0.0602493 0.748365 0.660545 0.317728 0.844997 0.430151 -0.492669 -0.609521 0.621096 
0.798801 0.207272 0.564762 0.629382 0.320333 0.708001 0.647575 0.579713 0.494549 
0.479685 0.665031 0.572395 -0.182605 0.436978 0.880742 0.393932 0.803008 0.447208 
0.221894 0.631801 0.742691 0.238618 0.791768 0.562286 0.238485 0.752698 0.613654 
0.53259 -0.389995 0.751167 -0.484873 -0.394261 0.780677 -0.353845 -0.027567 0.934898 
0.5882 0.0149271 0.808578 -0.193189 0.202601 0.960016 0.419004 0.268853 0.867268 
-0.0768859 0.293364 0.952904 0.185114 0.349701 0.918391 0.0105764 0.403536 0.914903 
0.195324 0.375611 0.905961 0.325719 0.571111 0.753485 -0.219966 -0.561948 0.797389 
0.168095 -0.593543 0.787052 0.280911 -0.430236 0.857896 0.320577 -0.207851 0.924137 
0.258025 0.0135072 0.966044 -0.246212 0.145429 0.958243 0.347983 0.226313 0.909775 
0.115659 0.223224 0.967881 -0.0560234 -0.290226 0.955317 0.112917 -0.138351 0.983925 
0.00463808 -0.0318164 0.999483 -0.291317 -0.36936 -0.882444 0.00120156 -0.41609 -0.909323 
0.226767 -0.480613 -0.847105 -0.382725 -0.275136 -0.881942 -0.0725413 -0.228846 -0.970756 
-0.287717 -0.0261342 -0.957359 0.420458 -0.109497 -0.90068 -0.288608 0.162135 -0.943619 
0.184414 -0.0534612 -0.981394 0.308425 0.0473655 -0.950069 -0.155213 -0.636075 -0.755856 
0.513327 -0.511464 -0.68913 -0.527765 -0.111256 -0.842073 0.585212 0.0301619 -0.810319 
-0.0764829 0.188301 -0.979129 0.457678 0.210686 -0.863795 0.0426566 0.444621 -0.894702 
0.222559 0.375342 -0.89977 0.168082 -0.719105 -0.674267 -0.270061 0.19054 -0.943802 
0.52329 0.63987 -0.562791 0.318034 0.680377 -0.660259 -0.411161 -0.578791 -0.704235 
0.736002 -0.229902 -0.636747 0.817308 0.145554 -0.557514 -0.374235 0.146501 -0.915688 
0.725064 0.408503 -0.554444 0.63463 0.71135 -0.302037 -0.445673 0.423112 -0.788893 
0.268594 0.740801 -0.615687 0.459979 0.837646 -0.294565 -0.252428 0.531206 -0.808764 
-0.041019 0.398827 -0.916108 0.0215415 0.630985 -0.775496 0.107299 0.496469 -0.861398 
-0.310612 0.802832 -0.508901 -0.153744 0.896633 -0.415225 0.00949175 0.83511 -0.550001 
0.222763 0.920893 -0.319895 0.715884 -0.30318 -0.628961 -0.334918 -0.218461 -0.916572 
-0.307435 -0.145087 -0.940443 -0.262565 0.0459519 -0.963819 0.813007 -0.0487084 -0.580213 
0.868696 0.260262 -0.421463 0.883947 0.461656 -0.0742359 0.751511 0.65895 0.0318819 
0.739285 0.673393 -0.000916382 0.515648 0.850521 0.103542 0.727223 0.66741 0.160349 
-0.625914 0.311464 -0.714998 -0.48325 0.407738 -0.774738 -0.691401 0.595533 -0.409029 
0.421836 0.901368 0.0979335 -0.506741 0.595372 -0.623494 0.299561 0.941248 -0.155934 
0.326988 0.934671 0.139534 -0.474911 0.86976 -0.134078 -0.0106289 0.993475 0.113558 
0.034864 0.999287 0.0144724 0.167521 0.982519 -0.081202 0.227738 0.962088 0.150071 
-0.368615 0.872489 -0.32076 -0.135058 0.990518 -0.0251606 0.215844 -0.77098 -0.599167 
-0.367244 -0.122249 -0.922056 -0.43832 -0.134195 -0.888745 -0.458273 0.0477446 -0.887528 
-0.612045 0.164501 -0.773525 -0.645136 0.253555 -0.72077 0.910978 0.39124 -0.130576 
0.898923 0.430826 -0.0795329 0.722622 0.597063 0.34833 0.594275 0.690452 0.412448 
-0.823967 0.452654 -0.340856 -0.702905 0.592386 -0.393705 -0.754856 0.649455 -0.0916497 
-0.629497 0.740482 -0.235416 -0.0750969 0.86587 0.494601 0.146586 0.908929 0.390334 
0.260634 0.75027 0.60759 -0.152114 0.915886 0.371503 0.434222 -0.688672 -0.580674 
-0.48014 -0.680856 -0.553083 -0.427929 -0.291228 -0.855607 -0.394889 -0.376215 -0.838167 
-0.419526 -0.501343 -0.756738 0.846091 -0.0514261 -0.530552 -0.616232 0.0900963 -0.782395 
-0.440483 0.106972 -0.891365 -0.673434 0.262534 -0.691058 0.892839 -0.0147494 -0.450134 
0.921181 0.303082 -0.244063 0.920435 0.380642 -0.0889463 -0.750474 0.4229 -0.507883 
0.352589 0.788196 0.504408 -0.192194 0.842899 0.502576 -0.0211094 0.777342 0.628724 
-0.358576 0.816296 0.452863 0.732981 -0.436575 -0.521671 -0.27554 -0.687464 -0.671916 
0.921877 -0.184758 -0.340598 -0.564891 -0.28849 -0.773093 0.942969 -0.0120464 -0.332662 
-0.66531 0.127851 -0.735538 -0.751494 0.37599 -0.542115 -0.690866 0.392749 -0.607002 
-0.830539 0.341426 -0.440038 -0.842209 0.430756 -0.324241 -0.767823 0.637335 -0.065208 
-0.670649 0.728519 0.139611 -0.486362 0.738651 0.46674 -0.150518 0.630428 0.761515 
-0.615546 0.76174 0.202126 -0.63721 -0.733404 -0.236817 -0.206745 -0.742105 -0.637602 
0.884741 -0.394916 -0.247538 -0.514171 -0.523929 -0.679063 -0.528459 -0.550166 -0.646567 
-0.240446 -0.821837 -0.516498 -0.845627 -0.161642 -0.508711 -0.763425 0.00952693 -0.645826 
0.941849 0.259847 -0.213075 0.959868 0.276236 0.048448 -0.865538 0.390425 -0.313708 
0.794323 0.531746 0.293764 -0.807644 0.547435 -0.219146 0.412347 0.580449 0.702175 
-0.647003 0.649307 0.399735 -0.481294 0.693038 0.536707 0.601053 -0.630424 -0.491224 
-0.397187 -0.789323 -0.468201 0.892235 -0.393666 -0.221232 -0.792443 -0.558938 -0.244177 
0.91405 -0.377063 -0.149451 0.96694 -0.253707 -0.0256737 -0.763499 -0.368672 -0.530236 
-0.952033 -0.289061 -0.100382 0.991769 -0.127926 0.00535389 0.908804 -0.0039176 0.417205 