# vtk DataFile Version 4.2
vtk output
ASCII
DATASET POLYDATA
POINTS 1863 float
505.397 242.872 137.708 506.236 243.733 137.221 506.027 245.217 136.893 
505.31 246.346 136.831 506.541 245.781 136.897 504.945 249.543 136.965 
505.47 250.111 136.993 504.97 251.152 137.277 504.837 251.221 137.353 
505.256 251.14 137.286 508.042 243.737 137.577 508.511 244.838 137.575 
504.249 246.036 137.217 503.682 247.226 137.533 508.2 246.604 137.602 
506.941 248.652 137.361 506.65 249.4 137.415 507.15 249.134 137.804 
504.347 250.937 137.731 505.619 250.852 137.283 505.831 250.858 137.501 
506.534 250.169 137.931 504.479 251.21 137.865 505.475 251.164 137.34 
504.811 251.445 137.69 505.01 251.547 137.549 505.003 251.578 137.671 
505.188 251.465 137.493 505.394 251.31 137.426 505.091 251.589 137.581 
504.122 241.801 139.006 506.513 242.236 138.036 503.349 244.856 138.005 
509.082 245.34 137.838 502.822 247.824 138.457 503.4 249.2 138.119 
507.464 249.336 138.785 506.709 250.119 138.388 505.753 251.051 137.807 
504.339 251.14 138.275 505.419 251.37 137.657 504.949 251.475 137.942 
505.158 251.536 137.696 505.679 223.458 140.372 505.616 223.238 140.418 
505.408 223.327 140.546 505.578 223.623 140.452 505.934 223.513 140.357 
506.188 223.779 140.454 505.929 223.89 140.467 513.27 238.834 139.96 
511.615 239.317 140.116 509.075 241.227 139.217 511.061 242.463 138.842 
511.191 244.305 138.651 512.542 244.427 139.187 510.443 247.516 139.888 
502.629 248.859 139.138 508.11 248.835 139.21 503.165 250.074 139.281 
506.161 250.565 138.872 504.674 251.292 138.358 505.634 222.858 140.575 
505.095 222.525 140.864 504.846 222.582 141.001 506.865 222.553 140.574 
504.569 223.44 141.389 508.562 223.375 140.862 505.74 224.17 140.803 
508.669 223.712 140.959 508.48 224.068 141.038 514.087 236.588 141.248 
513.718 236.658 141.248 514.995 237.505 140.747 514.942 238.773 140.265 
515.283 239.17 140.293 501.74 243.487 140.098 513.606 245.783 140.174 
502.188 248.919 140.155 503.03 249.991 139.718 504.806 250.74 139.855 
505.151 220.703 141.511 504.567 220.517 141.868 505.849 220.811 141.282 
507.141 220.669 141.238 503.758 221.953 142.112 503.706 222.482 142.249 
510.157 222.097 141.629 504.254 223.595 141.906 505.039 224.546 142.004 
506.949 224.894 141.453 508.306 225.013 141.747 509.991 224.533 142.31 
516.672 236.739 141.835 512.399 236.976 141.596 517.115 237.435 141.694 
501.895 241.051 141.621 502.039 240.998 141.762 501.926 241.298 141.238 
501.685 241.464 141.368 502.615 240.871 141.725 501.292 247.492 141.161 
516.123 245.702 141.808 507.735 249.255 141.259 502.414 249.33 140.912 
503.059 250.004 140.696 504.382 250.782 139.783 504.903 219.197 142.377 
509.367 219.756 142.054 503.751 220.837 142.336 511.897 220.98 142.908 
503.285 222.606 142.995 504.248 224.248 142.636 516.533 236.057 142.5 
518.165 236.903 142.92 501.811 241.123 141.791 501.955 241.11 142.28 
501.541 241.487 141.813 505.376 240.111 141.471 508.581 239.478 141.367 
500.745 245.343 141.652 517.863 243.967 142.344 517.381 245.262 142.894 
502.206 249.045 141.541 503.993 218.199 143.528 503.439 219.292 143.373 
513.187 219.685 144.159 512.696 220.16 143.68 513.003 220.076 143.994 
511.802 223.09 143.693 506.741 225.552 142.64 514.282 235.141 143.538 
516.534 235.658 143.132 517.219 235.638 143.717 501.458 241.464 142.31 
501.255 241.67 142.555 500.755 242.795 142.877 519.129 241.471 143.147 
500.576 245.932 142.721 500.763 246.704 142.791 511.722 248.331 142.784 
504.475 216.66 144.245 509.757 216.663 143.851 513.339 218.695 144.619 
513.401 219.608 144.394 513.474 219.449 144.468 513.297 219.954 144.507 
513.139 220.678 144.776 512.626 222.055 144.79 517.934 235.731 144.321 
520.064 238.006 144.249 520.238 238.62 144.379 501.248 241.751 142.877 
503.508 240.651 143.898 507.577 239.025 143.414 501.348 241.999 143.602 
502.431 241.503 144.271 500.648 242.994 143.249 501.118 242.364 143.655 
500.562 243.345 143.17 500.545 244.299 143.553 500.584 245.005 143.593 
519.139 243.694 144.723 500.518 245.443 143.167 518.357 244.875 144.15 
500.736 246.266 143.5 500.764 246.601 143.248 502.439 248.331 143.31 
506.469 248.802 144.236 503.786 215.495 145.58 513.016 216.036 145.427 
513.612 217.385 145.262 513.909 217.084 145.69 513.584 217.966 145.095 
513.609 219.212 145.129 502.085 220.402 144.766 502.339 223.551 145.727 
509.983 226.752 145.961 513.045 234.418 145.215 520.436 237.747 145.119 
520.411 238.069 144.823 520.478 237.929 145.036 520.384 238.536 144.829 
520.472 238.143 145.072 504.913 240.133 144.965 520.376 238.863 145.212 
502.423 241.912 144.798 503.784 241.142 145.417 501.918 242.57 144.805 
501.36 244.623 144.74 519.392 243.448 145.716 501.236 245.467 144.515 
502.008 246.402 144.788 501.269 247.21 143.537 522.175 256.738 146.3 
522.09 256.626 146.345 522.079 256.822 146.362 522.279 256.628 146.34 
522.269 256.824 146.358 504.061 214.436 146.235 506.389 213.534 146.166 
512.18 215.261 145.529 513.543 215.013 146.544 513.804 215.43 146.513 
514.13 216.231 146.365 514.169 216.479 146.248 502.156 218.212 145.601 
514.011 217.869 145.896 513.957 218.414 146.118 513.742 219.404 146.056 
513.365 220.55 146.172 501.391 221.165 146.076 510.631 226.484 146.743 
509.515 227.601 146.462 508.687 227.966 146.726 510.49 227.283 146.936 
510.732 227.831 147.238 509.896 228.287 146.942 510.594 228.9 147.337 
513.359 233.917 145.703 514.937 233.74 145.784 515.427 233.559 146.16 
520.044 237.12 145.419 520.274 237.418 145.689 520.389 237.774 145.646 
520.272 237.498 146.028 520.427 238.295 145.43 502.533 243.401 145.681 
502.892 246.326 145.44 504.64 247.67 145.44 515.006 248.107 145.659 
507.62 248.754 145.689 509.546 249.187 145.941 512.257 249.165 145.83 
524.21 250.101 147.399 524.167 249.782 147.547 524.453 250.288 147.43 
521.656 255.112 146.699 523.551 254.743 146.714 522.195 256.207 146.438 
521.746 256.67 146.532 522.685 256.68 146.507 523.414 256.619 146.728 
523.838 256.178 146.881 521.557 257.477 146.725 522.143 257.181 146.52 
520.987 258.164 147.087 522.044 258.061 146.803 522.636 258.301 146.875 
521.382 259.017 147.302 512.524 213.225 147.368 513.261 213.787 147.277 
513.778 214.456 147.285 514.076 214.884 147.492 514.328 216.274 147.242 
514.262 217.046 146.773 514.194 217.653 147.083 500.94 222.444 147.649 
512.014 229.162 147.983 511.833 229.884 147.732 510.716 230.526 147.634 
513.126 231.998 147.188 512.207 232.514 147.062 512.105 233.455 146.621 
514.528 232.34 147.137 516.519 233.529 146.788 519.706 236.22 146.707 
507.886 238.037 146.478 505.42 240.166 147.049 503.874 242.661 146.94 
517.825 246.113 146.996 507.023 248.257 147.347 524.391 249.408 147.816 
524.796 249.173 148.042 525.05 248.982 148.277 525.129 248.699 148.547 
524.739 249.8 147.748 525.082 249.432 148.121 525.267 249.086 148.485 
522.831 250.512 147.736 524.806 251.342 147.47 524.66 252.944 147.242 
525.24 253.584 147.795 524.846 257.385 147.787 509.385 212.215 147.59 
513.811 213.652 148.305 513.947 218.699 147.69 511.364 224.429 148.686 
506.831 227.484 147.194 511.184 227.204 147.873 512.241 228.13 148.686 
509.068 229.338 147.622 509.734 229.691 147.591 513.161 230.011 148.187 
511.51 232.128 147.374 515.119 232.04 147.592 510.479 233.805 147.585 
509.74 235.407 147.531 504.851 241.479 148.03 519.577 242.666 148.332 
504.491 244.062 148.055 504.563 245.234 147.716 505.656 246.901 147.854 
524.995 248.469 148.619 524.815 248.421 148.61 525.134 248.447 148.852 
523.703 249.249 148.099 525.317 248.748 148.863 522.953 249.79 148.185 
512.516 250.55 148.225 518.71 255.781 148.272 521.162 260.589 148.501 
522.134 261.363 148.553 523.86 261.86 148.944 504.311 211.852 149.399 
512.938 212.263 149.325 513.556 212.889 149.092 513.801 213.312 148.928 
514.385 215.22 148.567 514.426 215.741 148.537 514.356 216.119 148.914 
499.977 219.133 149.669 501.538 224.022 149.504 511.246 225.653 148.81 
511.889 226.93 149.425 508.18 229.376 148.177 515.322 231.195 148.409 
509.547 232.174 148.431 507.364 237.734 148.382 520.126 237.787 148.716 
506.039 239.296 148.788 504.641 242.997 148.407 524.055 248.328 149.135 
524.695 248.304 148.82 524.737 248.185 149.241 525.038 248.277 149.131 
506.584 247.707 148.962 523.134 249.083 148.828 525.466 248.816 149.332 
507.87 248.902 148.539 515.535 249.135 148.123 525.668 249.336 149.411 
509.968 250.165 148.51 513.863 250.485 148.353 519.637 253.008 148.434 
525.596 259.541 149.424 523.776 263.251 150.42 524.555 262.924 150.083 
524.199 263.356 150.433 524.489 263.532 150.73 524.49 263.269 150.351 
524.756 263.416 150.669 511.413 225.444 150.137 516.965 231.967 148.984 
518.981 233.845 150.043 505.089 241.737 149.876 505.14 244.133 150.27 
505.399 245.448 149.629 518.907 245.07 150.134 523.749 248.152 150.137 
524.298 248.022 150.188 525.31 248.473 149.774 507.746 249.345 150.249 
516.239 249.007 148.748 515.82 250.518 149.154 513.183 252.014 149.367 
515.24 251.818 149.295 516.73 251.846 149.508 517.471 251.79 149.566 
518.19 251.706 149.567 516.651 254.119 149.3 515.547 256.252 150.068 
525.137 263.289 150.983 524.794 263.584 151.029 511.159 210.362 151.807 
507.854 210.003 151.425 511.559 210.909 151.07 503.804 211.599 150.535 
505.036 210.727 151.185 513.439 212.625 151.349 514.152 214.608 150.492 
514.179 215.384 150.727 511.155 223.62 151.723 511.179 224.285 151.357 
518.228 231.334 151.423 518.494 232.863 150.155 519.837 235.685 151.118 
517.837 247.496 149.868 523.437 248.017 151.033 524.624 248.022 150.549 
506.66 248.117 150.841 526.117 250.244 150.96 515.84 257.683 150.551 
525.485 263.3 151.456 525.009 263.72 151.671 525.365 263.687 151.889 
525.474 263.62 151.814 509.706 209.812 152.159 510.308 209.848 152.529 
510.768 210.109 152.415 502.45 212.361 151.336 513.6 213.001 151.899 
511.211 223.313 151.937 511.164 224.462 152.786 511.284 224.858 152.248 
511.55 225.343 152.582 517.293 229.874 151.857 505.572 229.538 150.99 
505.897 236.803 151.367 504.927 242.428 151.815 505.382 245.28 151.513 
[...]
POINT_DATA 1863
COLOR_SCALARS scalars 3
1 0.647059 0.823529 1 0.647059 0.823529 1 0.647059 0.823529 
1 0.647059 0.823529 1 0.647059 0.823529 
1 0.647059 0.823529 1 0.647059 0.823529 
1 0.647059 0.823529 1 0.647059 0.823529 
1 0.647059 0.823529 1 0.647059 0.823529 
1 0.647059 0.823529 1 0.647059 0.823529 
1 0.647059 0.823529 1 0.647059 0.823529 
1 0.647059 0.823529 1 0.647059 0.823529 
1 0.647059 0.823529 1 0.647059 0.823529 
1 0.647059 0.823529 1 0.647059 0.823529 
1 0.647059 0.823529 1 0.647059 0.823529 
1 0.647059 0.823529 1 0.647059 0.823529 
1 0.647059 0.823529 1 0.647059 0.823529 
1 0.647059 0.823529 1 0.647059 0.823529 
1 0.647059 0.823529 1 0.647059 0.823529 
1 0.647059 0.823529 1 0.647059 0.823529 
1 0.647059 0.823529 1 0.647059 0.823529 
1 0.647059 0.823529 1 0.647059 0.823529 
1 0.647059 0.823529 1 0.647059 0.823529 
1 0.647059 0.823529 1 0.647059 0.823529 
1 0.647059 0.823529 1 0.647059 0.823529 
1 0.647059 0.823529 1 0.647059 0.823529 
1 0.647059 0.823529 1 0.647059 0.823529 
1 0.647059 0.823529 1 0.647059 0.823529 
1 0.647059 0.823529 1 0.647059 0.823529 
1 0.647059 0.823529 1 0.647059 0.823529 
1 0.647059 0.823529 1 0.647059 0.823529 
1 0.647059 0.823529 1 0.647059 0.823529 
1 0.647059 0.823529 1 0.647059 0.823529 
1 0.647059 0.823529 1 0.647059 0.823529 
1 0.647059 0.823529 1 0.647059 0.823529 
1 0.647059 0.823529 1 0.647059 0.823529 
1 0.647059 0.823529 1 0.647059 0.823529 
1 0.647059 0.823529 1 0.647059 0.823529 
1 0.647059 0.823529 1 0.647059 0.823529 
1 0.647059 0.823529 1 0.647059 0.823529 
1 0.647059 0.823529 1 0.647059 0.823529 
1 0.647059 0.823529 1 0.647059 0.823529 
1 0.647059 0.823529 1 0.647059 0.823529 
1 0.647059 0.823529 1 0.647059 0.823529 
1 0.647059 0.823529 1 0.647059 0.823529 
1 0.647059 0.823529 1 0.647059 0.823529 
1 0.647059 0.823529 1 0.647059 0.823529 
1 0.647059 0.823529 1 0.647059 0.823529 
1 0.647059 0.823529 1 0.647059 0.823529 
1 0.647059 0.823529 1 0.647059 0.823529 
1 0.647059 0.823529 1 0.647059 0.823529 
1 0.647059 0.823529 1 0.647059 0.823529 
1 0.647059 0.823529 1 0.647059 0.823529 
1 0.647059 0.823529 1 0.647059 0.823529 
1 0.647059 0.823529 1 0.647059 0.823529 
1 0.647059 0.823529 1 0.647059 0.823529 
1 0.647059 0.823529 1 0.647059 0.823529 
1 0.647059 0.823529 1 0.647059 0.823529 
1 0.647059 0.823529 1 0.647059 0.823529 
1 0.647059 0.823529 1 0.647059 0.823529 
1 0.647059 0.823529 1 0.647059 0.823529 
1 0.647059 0.823529 1 0.647059 0.823529 
1 0.647059 0.823529 1 0.647059 0.823529 
1 0.647059 0.823529 1 0.647059 0.823529 
1 0.647059 0.823529 1 0.647059 0.823529 
1 0.647059 0.823529 1 0.647059 0.823529 
1 0.647059 0.823529 1 0.647059 0.823529 
1 0.647059 0.823529 1 0.647059 0.823529 
1 0.647059 0.823529 1 0.647059 0.823529 
1 0.647059 0.823529 1 0.647059 0.823529 
1 0.647059 0.823529 1 0.647059 0.823529 
1 0.647059 0.823529 1 0.647059 0.823529 
1 0.647059 0.823529 1 0.647059 0.823529 
1 0.647059 0.823529 1 0.647059 0.823529 
1 0.647059 0.823529 1 0.647059 0.823529 
1 0.647059 0.823529 1 0.647059 0.823529 
1 0.647059 0.823529 1 0.647059 0.823529 
1 0.647059 0.823529 1 0.647059 0.823529 
1 0.647059 0.823529 1 0.647059 0.823529 
1 0.647059 0.823529 1 0.647059 0.823529 
1 0.647059 0.823529 1 0.647059 0.823529 
1 0.647059 0.823529 1 0.647059 0.823529 
1 0.647059 0.823529 1 0.647059 0.823529 
1 0.647059 0.823529 1 0.647059 0.823529 
1 0.647059 0.823529 1 0.647059 0.823529 
1 0.647059 0.823529 1 0.647059 0.823529 
1 0.647059 0.823529 1 0.647059 0.823529 
1 0.647059 0.823529 1 0.647059 0.823529 
1 0.647059 0.823529 1 0.647059 0.823529 
1 0.647059 0.823529 1 0.647059 0.823529 
1 0.647059 0.823529 1 0.647059 0.823529 
1 0.647059 0.823529 1 0.647059 0.823529 
1 0.647059 0.823529 1 0.647059 0.823529 
1 0.647059 0.823529 1 0.647059 0.823529 
1 0.647059 0.823529 1 0.647059 0.823529 
1 0.647059 0.823529 1 0.647059 0.823529 
1 0.647059 0.823529 1 0.647059 0.823529 
1 0.647059 0.823529 1 0.647059 0.823529 
1 0.647059 0.823529 1 0.647059 0.823529 
1 0.647059 0.823529 1 0.647059 0.823529 
1 0.647059 0.823529 1 0.647059 0.823529 
1 0.647059 0.823529 1 0.647059 0.823529 
1 0.647059 0.823529 1 0.647059 0.823529 
1 0.647059 0.823529 1 0.647059 0.823529 
1 0.647059 0.823529 1 0.647059 0.823529 
1 0.647059 0.823529 1 0.647059 0.823529 
1 0.647059 0.823529 1 0.647059 0.823529 
1 0.647059 0.823529 1 0.647059 0.823529 
1 0.647059 0.823529 1 0.647059 0.823529 
1 0.647059 0.823529 1 0.647059 0.823529 
1 0.647059 0.823529 1 0.647059 0.823529 
1 0.647059 0.823529 1 0.647059 0.823529 
1 0.647059 0.823529 1 0.647059 0.823529 
1 0.647059 0.823529 1 0.647059 0.823529 
1 0.647059 0.823529 1 0.647059 0.823529 
1 0.647059 0.823529 1 0.647059 0.823529 
1 0.647059 0.823529 1 0.647059 0.823529 
1 0.647059 0.823529 1 0.647059 0.823529 
1 0.647059 0.823529 1 0.647059 0.823529 
1 0.647059 0.823529 1 0.647059 0.823529 
1 0.647059 0.823529 1 0.647059 0.823529 
1 0.647059 0.823529 1 0.647059 0.823529 
1 0.647059 0.823529 1 0.647059 0.823529 
1 0.647059 0.823529 1 0.647059 0.823529 
1 0.647059 0.823529 1 0.647059 0.823529 
1 0.647059 0.823529 1 0.647059 0.823529 
1 0.647059 0.823529 1 0.647059 0.823529 
1 0.647059 0.823529 1 0.647059 0.823529 
1 0.647059 0.823529 1 0.647059 0.823529 
1 0.647059 0.823529 1 0.647059 0.823529 
1 0.647059 0.823529 1 0.647059 0.823529 
1 0.647059 0.823529 1 0.647059 0.823529 
1 0.647059 0.823529 1 0.647059 0.823529 
1 0.647059 0.823529 1 0.647059 0.823529 
1 0.647059 0.823529 1 0.647059 0.823529 
1 0.647059 0.823529 1 0.647059 0.823529 
1 0.647059 0.823529 1 0.647059 0.823529 
1 0.647059 0.823529 1 0.647059 0.823529 
1 0.647059 0.823529 1 0.647059 0.823529 
1 0.647059 0.823529 1 0.647059 0.823529 
1 0.647059 0.823529 1 0.647059 0.823529 
1 0.647059 0.823529 1 0.647059 0.823529 
1 0.647059 0.823529 1 0.647059 0.823529 
1 0.647059 0.823529 1 0.647059 0.823529 
1 0.647059 0.823529 1 0.647059 0.823529 
1 0.647059 0.823529 1 0.647059 0.823529 
1 0.647059 0.823529 1 0.647059 0.823529 
1 0.647059 0.823529 1 0.647059 0.823529 
1 0.647059 0.823529 1 0.647059 0.823529 
1 0.647059 0.823529 1 0.647059 0.823529 
1 0.647059 0.823529 1 0.647059 0.823529 
1 0.647059 0.823529 1 0.647059 0.823529 
1 0.647059 0.823529 1 0.647059 0.823529 
1 0.647059 0.823529 1 0.647059 0.823529 
1 0.647059 0.823529 1 0.647059 0.823529 
1 0.647059 0.823529 1 0.647059 0.823529 
1 0.647059 0.823529 1 0.647059 0.823529 
1 0.647059 0.823529 1 0.647059 0.823529 
1 0.647059 0.823529 1 0.647059 0.823529 
1 0.647059 0.823529 1 0.647059 0.823529 
1 0.647059 0.823529 1 0.647059 0.823529 
1 0.647059 0.823529 1 0.647059 0.823529 
1 0.647059 0.823529 1 0.647059 0.823529 
1 0.647059 0.823529 1 0.647059 0.823529 
1 0.647059 0.823529 1 0.647059 0.823529 
1 0.647059 0.823529 1 0.647059 0.823529 
1 0.647059 0.823529 1 0.647059 0.823529 
1 0.647059 0.823529 1 0.647059 0.823529 
1 0.647059 0.823529 1 0.647059 0.823529 
1 0.647059 0.823529 1 0.647059 0.823529 
1 0.647059 0.823529 1 0.647059 0.823529 
1 0.647059 0.823529 1 0.647059 0.823529 
1 0.647059 0.823529 1 0.647059 0.823529 
1 0.647059 0.823529 1 0.647059 0.823529 
1 0.647059 0.823529 1 0.647059 0.823529 
1 0.647059 0.823529 1 0.647059 0.823529 
1 0.647059 0.823529 1 0.647059 0.823529 
1 0.647059 0.823529 1 0.647059 0.823529 
1 0.647059 0.823529 1 0.647059 0.823529 
1 0.647059 0.823529 1 0.647059 0.823529 
1 0.647059 0.823529 1 0.647059 0.823529 
1 0.647059 0.823529 1 0.647059 0.823529 
1 0.647059 0.823529 1 0.647059 0.823529 
1 0.647059 0.823529 1 0.647059 0.823529 
1 0.647059 0.823529 1 0.647059 0.823529 
1 0.647059 0.823529 1 0.647059 0.823529 
1 0.647059 0.823529 1 0.647059 0.823529 
1 0.647059 0.823529 1 0.647059 0.823529 
1 0.647059 0.823529 1 0.647059 0.823529 
1 0.647059 0.823529 1 0.647059 0.823529 
1 0.647059 0.823529 1 0.647059 0.823529 
1 0.647059 0.823529 1 0.647059 0.823529 
1 0.647059 0.823529 1 0.647059 0.823529 
1 0.647059 0.823529 1 0.647059 0.823529 
1 0.647059 0.823529 1 0.647059 0.823529 
1 0.647059 0.823529 1 0.647059 0.823529 
1 0.647059 0.823529 1 0.647059 0.823529 
1 0.647059 0.823529 1 0.647059 0.823529 
1 0.647059 0.823529 1 0.647059 0.823529 
1 0.647059 0.823529 1 0.647059 0.823529 
1 0.647059 0.823529 1 0.647059 0.823529 
1 0.647059 0.823529 1 0.647059 0.823529 
1 0.647059 0.823529 1 0.647059 0.823529 
1 0.647059 0.823529 1 0.647059 0.823529 
1 0.647059 0.823529 1 0.647059 0.823529 
1 0.647059 0.823529 1 0.647059 0.823529 
1 0.647059 0.823529 1 0.647059 0.823529 
1 0.647059 0.823529 1 0.647059 0.823529 
1 0.647059 0.823529 1 0.647059 0.823529 
1 0.647059 0.823529 1 0.647059 0.823529 
1 0.647059 0.823529 1 0.647059 0.823529 
1 0.647059 0.823529 1 0.647059 0.823529 
1 0.647059 0.823529 1 0.647059 0.823529 
1 0.647059 0.823529 1 0.647059 0.823529 
1 0.647059 0.823529 1 0.647059 0.823529 
1 0.647059 0.823529 1 0.647059 0.823529 
1 0.647059 0.823529 1 0.647059 0.823529 
1 0.647059 0.823529 1 0.647059 0.823529 
1 0.647059 0.823529 1 0.647059 0.823529 
1 0.647059 0.823529 1 0.647059 0.823529 
1 0.647059 0.823529 1 0.647059 0.823529 
1 0.647059 0.823529 1 0.647059 0.823529 
1 0.647059 0.823529 1 0.647059 0.823529 
1 0.647059 0.823529 1 0.647059 0.823529 
1 0.647059 0.823529 1 0.647059 0.823529 
1 0.647059 0.823529 1 0.647059 0.823529 
1 0.647059 0.823529 1 0.647059 0.823529 
1 0.647059 0.823529 1 0.647059 0.823529 
1 0.647059 0.823529 1 0.647059 0.823529 
1 0.647059 0.823529 1 0.647059 0.823529 
1 0.647059 0.823529 1 0.647059 0.823529 
1 0.647059 0.823529 1 0.647059 0.823529 
1 0.647059 0.823529 1 0.647059 0.823529 
1 0.647059 0.823529 1 0.647059 0.823529 
1 0.647059 0.823529 1 0.647059 0.823529 
1 0.647059 0.823529 1 0.647059 0.823529 
1 0.647059 0.823529 1 0.647059 0.823529 
1 0.647059 0.823529 1 0.647059 0.823529 
1 0.647059 0.823529 1 0.647059 0.823529 
1 0.647059 0.823529 1 0.647059 0.823529 
1 0.647059 0.823529 1 0.647059 0.823529 
1 0.647059 0.823529 1 0.647059 0.823529 
1 0.647059 0.823529 1 0.647059 0.823529 
1 0.647059 0.823529 1 0.647059 0.823529 
1 0.647059 0.823529 1 0.647059 0.823529 
1 0.647059 0.823529 1 0.647059 0.823529 
1 0.647059 0.823529 1 0.647059 0.823529 
1 0.647059 0.823529 1 0.647059 0.823529 
1 0.647059 0.823529 1 0.647059 0.823529 
1 0.647059 0.823529 1 0.647059 0.823529 
1 0.647059 0.823529 1 0.647059 0.823529 
1 0.647059 0.823529 1 0.647059 0.823529 
1 0.647059 0.823529 1 0.647059 0.823529 
1 0.647059 0.823529 1 0.647059 0.823529 
1 0.647059 0.823529 1 0.647059 0.823529 
1 0.647059 0.823529 1 0.647059 0.823529 
1 0.647059 0.823529 1 0.647059 0.823529 
1 0.647059 0.823529 1 0.647059 0.823529 
1 0.647059 0.823529 1 0.647059 0.823529 
1 0.647059 0.823529 1 0.647059 0.823529 
1 0.647059 0.823529 1 0.647059 0.823529 
1 0.647059 0.823529 1 0.647059 0.823529 
1 0.647059 0.823529 1 0.647059 0.823529 
1 0.647059 0.823529 1 0.647059 0.823529 
1 0.647059 0.823529 1 0.647059 0.823529 
1 0.647059 0.823529 1 0.647059 0.823529 
1 0.647059 0.823529 1 0.647059 0.823529 
1 0.647059 0.823529 1 0.647059 0.823529 
1 0.647059 0.823529 1 0.647059 0.823529 
1 0.647059 0.823529 1 0.647059 0.823529 
1 0.647059 0.823529 1 0.647059 0.823529 
1 0.647059 0.823529 1 0.647059 0.823529 
1 0.647059 0.823529 1 0.647059 0.823529 
1 0.647059 0.823529 1 0.647059 0.823529 
1 0.647059 0.823529 1 0.647059 0.823529 
1 0.647059 0.823529 1 0.647059 0.823529 
1 0.647059 0.823529 1 0.647059 0.823529 
1 0.647059 0.823529 1 0.647059 0.823529 
1 0.647059 0.823529 1 0.647059 0.823529 
1 0.647059 0.823529 1 0.647059 0.823529 
1 0.647059 0.823529 1 0.647059 0.823529 
1 0.647059 0.823529 1 0.647059 0.823529 
1 0.647059 0.823529 1 0.647059 0.823529 
1 0.647059 0.823529 1 0.647059 0.823529 
1 0.647059 0.823529 1 0.647059 0.823529 
1 0.647059 0.823529 1 0.647059 0.823529 
1 0.647059 0.823529 1 0.647059 0.823529 
1 0.647059 0.823529 1 0.647059 0.823529 
1 0.647059 0.823529 1 0.647059 0.823529 
1 0.647059 0.823529 1 0.647059 0.823529 
1 0.647059 0.823529 1 0.647059 0.823529 
1 0.647059 0.823529 1 0.647059 0.823529 
1 0.647059 0.823529 1 0.647059 0.823529 
1 0.647059 0.823529 1 0.647059 0.823529 
1 0.647059 0.823529 1 0.647059 0.823529 
1 0.647059 0.823529 1 0.647059 0.823529 
1 0.647059 0.823529 1 0.647059 0.823529 
1 0.647059 0.823529 1 0.647059 0.823529 
1 0.647059 0.823529 1 0.647059 0.823529 
1 0.647059 0.823529 1 0.647059 0.823529 
1 0.647059 0.823529 1 0.647059 0.823529 
1 0.647059 0.823529 1 0.647059 0.823529 
1 0.647059 0.823529 1 0.647059 0.823529 
1 0.647059 0.823529 1 0.647059 0.823529 
1 0.647059 0.823529 1 0.647059 0.823529 
1 0.647059 0.823529 1 0.647059 0.823529 
1 0.647059 0.823529 1 0.647059 0.823529 
1 0.647059 0.823529 1 0.647059 0.823529 
1 0.647059 0.823529 1 0.647059 0.823529 
1 0.647059 0.823529 1 0.647059 0.823529 
1 0.647059 0.823529 1 0.647059 0.823529 
1 0.647059 0.823529 1 0.647059 0.823529 
1 0.647059 0.823529 1 0.647059 0.823529 
1 0.647059 0.823529 1 0.647059 0.823529 
1 0.647059 0.823529 1 0.647059 0.823529 
1 0.647059 0.823529 1 0.647059 0.823529 
1 0.647059 0.823529 1 0.647059 0.823529 
1 0.647059 0.823529 1 0.647059 0.823529 
1 0.647059 0.823529 1 0.647059 0.823529 
1 0.647059 0.823529 1 0.647059 0.823529 
1 0.647059 0.823529 1 0.647059 0.823529 
1 0.647059 0.823529 1 0.647059 0.823529 
1 0.647059 0.823529 1 0.647059 0.823529 
1 0.647059 0.823529 1 0.647059 0.823529 
1 0.647059 0.823529 1 0.647059 0.823529 
1 0.647059 0.823529 1 0.647059 0.823529 
1 0.647059 0.823529 1 0.647059 0.823529 
1 0.647059 0.823529 1 0.647059 0.823529 
1 0.647059 0.823529 1 0.647059 0.823529 
1 0.647059 0.823529 1 0.647059 0.823529 
1 0.647059 0.823529 1 0.647059 0.823529 
1 0.647059 0.823529 1 0.647059 0.823529 
1 0.647059 0.823529 1 0.647059 0.823529 
1 0.647059 0.823529 1 0.647059 0.823529 
1 0.647059 0.823529 1 0.647059 0.823529 
1 0.647059 0.823529 1 0.647059 0.823529 
1 0.647059 0.823529 1 0.647059 0.823529 
1 0.647059 0.823529 1 0.647059 0.823529 
1 0.647059 0.823529 1 0.647059 0.823529 
1 0.647059 0.823529 1 0.647059 0.823529 
1 0.647059 0.823529 1 0.647059 0.823529 
1 0.647059 0.823529 1 0.647059 0.823529 
1 0.647059 0.823529 1 0.647059 0.823529 
1 0.647059 0.823529 1 0.647059 0.823529 
1 0.647059 0.823529 1 0.647059 0.823529 
1 0.647059 0.823529 1 0.647059 0.823529 
1 0.647059 0.823529 1 0.647059 0.823529 
1 0.647059 0.823529 1 0.647059 0.823529 
1 0.647059 0.823529 1 0.647059 0.823529 
1 0.647059 0.823529 1 0.647059 0.823529 
1 0.647059 0.823529 1 0.647059 0.823529 
1 0.647059 0.823529 1 0.647059 0.823529 
1 0.647059 0.823529 1 0.647059 0.823529 
1 0.647059 0.823529 1 0.647059 0.823529 
1 0.647059 0.823529 1 0.647059 0.823529 
1 0.647059 0.823529 1 0.647059 0.823529 
1 0.647059 0.823529 1 0.647059 0.823529 
1 0.647059 0.823529 1 0.647059 0.823529 
1 0.647059 0.823529 1 0.647059 0.823529 
1 0.647059 0.823529 1 0.647059 0.823529 
1 0.647059 0.823529 1 0.647059 0.823529 
1 0.647059 0.823529 1 0.647059 0.823529 
1 0.647059 0.823529 1 0.647059 0.823529 
1 0.647059 0.823529 1 0.647059 0.823529 
1 0.647059 0.823529 1 0.647059 0.823529 
1 0.647059 0.823529 1 0.647059 0.823529 
1 0.647059 0.823529 1 0.647059 0.823529 
1 0.647059 0.823529 1 0.647059 0.823529 
1 0.647059 0.823529 1 0.647059 0.823529 
1 0.647059 0.823529 1 0.647059 0.823529 
1 0.647059 0.823529 1 0.647059 0.823529 
1 0.647059 0.823529 1 0.647059 0.823529 
1 0.647059 0.823529 1 0.647059 0.823529 
1 0.647059 0.823529 1 0.647059 0.823529 
1 0.647059 0.823529 1 0.647059 0.823529 
1 0.647059 0.823529 1 0.647059 0.823529 
1 0.647059 0.823529 1 0.647059 0.823529 
1 0.647059 0.823529 1 0.647059 0.823529 
1 0.647059 0.823529 1 0.647059 0.823529 
1 0.647059 0.823529 1 0.647059 0.823529 
1 0.647059 0.823529 1 0.647059 0.823529 
1 0.647059 0.823529 1 0.647059 0.823529 
1 0.647059 0.823529 1 0.647059 0.823529 
1 0.647059 0.823529 1 0.647059 0.823529 
1 0.647059 0.823529 1 0.647059 0.823529 
1 0.647059 0.823529 1 0.647059 0.823529 
1 0.647059 0.823529 1 0.647059 0.823529 
1 0.647059 0.823529 1 0.647059 0.823529 
1 0.647059 0.823529 1 0.647059 0.823529 
1 0.647059 0.823529 1 0.647059 0.823529 
1 0.647059 0.823529 1 0.647059 0.823529 
1 0.647059 0.823529 1 0.647059 0.823529 
1 0.647059 0.823529 1 0.647059 0.823529 
1 0.647059 0.823529 1 0.647059 0.823529 
1 0.647059 0.823529 1 0.647059 0.823529 
1 0.647059 0.823529 1 0.647059 0.823529 
1 0.647059 0.823529 1 0.647059 0.823529 
1 0.647059 0.823529 1 0.647059 0.823529 
1 0.647059 0.823529 1 0.647059 0.823529 
1 0.647059 0.823529 1 0.647059 0.823529 
1 0.647059 0.823529 1 0.647059 0.823529 
1 0.647059 0.823529 1 0.647059 0.823529 
1 0.647059 0.823529 1 0.647059 0.823529 
1 0.647059 0.823529 1 0.647059 0.823529 
1 0.647059 0.823529 1 0.647059 0.823529 
1 0.647059 0.823529 1 0.647059 0.823529 
1 0.647059 0.823529 1 0.647059 0.823529 
1 0.647059 0.823529 1 0.647059 0.823529 
1 0.647059 0.823529 1 0.647059 0.823529 
1 0.647059 0.823529 1 0.647059 0.823529 
1 0.647059 0.823529 1 0.647059 0.823529 
1 0.647059 0.823529 1 0.647059 0.823529 
1 0.647059 0.823529 1 0.647059 0.823529 
1 0.647059 0.823529 1 0.647059 0.823529 
1 0.647059 0.823529 1 0.647059 0.823529 
1 0.647059 0.823529 1 0.647059 0.823529 
1 0.647059 0.823529 1 0.647059 0.823529 
1 0.647059 0.823529 1 0.647059 0.823529 
1 0.647059 0.823529 1 0.647059 0.823529 
1 0.647059 0.823529 1 0.647059 0.823529 
1 0.647059 0.823529 1 0.647059 0.823529 
1 0.647059 0.823529 1 0.647059 0.823529 
1 0.647059 0.823529 1 0.647059 0.823529 
1 0.647059 0.823529 1 0.647059 0.823529 
1 0.647059 0.823529 1 0.647059 0.823529 
1 0.647059 0.823529 1 0.647059 0.823529 
1 0.647059 0.823529 1 0.647059 0.823529 
1 0.647059 0.823529 1 0.647059 0.823529 
1 0.647059 0.823529 1 0.647059 0.823529 
1 0.647059 0.823529 1 0.647059 0.823529 
1 0.647059 0.823529 1 0.647059 0.823529 
1 0.647059 0.823529 1 0.647059 0.823529 
1 0.647059 0.823529 1 0.647059 0.823529 
1 0.647059 0.823529 1 0.647059 0.823529 
1 0.647059 0.823529 1 0.647059 0.823529 
1 0.647059 0.823529 1 0.647059 0.823529 
1 0.647059 0.823529 1 0.647059 0.823529 
1 0.647059 0.823529 1 0.647059 0.823529 
1 0.647059 0.823529 1 0.647059 0.823529 
1 0.647059 0.823529 1 0.647059 0.823529 
1 0.647059 0.823529 1 0.647059 0.823529 
1 0.647059 0.823529 1 0.647059 0.823529 
1 0.647059 0.823529 1 0.647059 0.823529 
1 0.647059 0.823529 1 0.647059 0.823529 
1 0.647059 0.823529 1 0.647059 0.823529 
1 0.647059 0.823529 1 0.647059 0.823529 
1 0.647059 0.823529 1 0.647059 0.823529 
1 0.647059 0.823529 1 0.647059 0.823529 
1 0.647059 0.823529 1 0.647059 0.823529 
1 0.647059 0.823529 1 0.647059 0.823529 
1 0.647059 0.823529 1 0.647059 0.823529 
1 0.647059 0.823529 1 0.647059 0.823529 
1 0.647059 0.823529 1 0.647059 0.823529 
1 0.647059 0.823529 1 0.647059 0.823529 
1 0.647059 0.823529 1 0.647059 0.823529 
1 0.647059 0.823529 1 0.647059 0.823529 
1 0.647059 0.823529 1 0.647059 0.823529 
1 0.647059 0.823529 1 0.647059 0.823529 
1 0.647059 0.823529 1 0.647059 0.823529 
1 0.647059 0.823529 1 0.647059 0.823529 
1 0.647059 0.823529 1 0.647059 0.823529 
1 0.647059 0.823529 1 0.647059 0.823529 
1 0.647059 0.823529 1 0.647059 0.823529 
1 0.647059 0.823529 1 0.647059 0.823529 
1 0.647059 0.823529 1 0.647059 0.823529 
1 0.647059 0.823529 1 0.647059 0.823529 
1 0.647059 0.823529 1 0.647059 0.823529 
1 0.647059 0.823529 1 0.647059 0.823529 
1 0.647059 0.823529 1 0.647059 0.823529 
1 0.647059 0.823529 1 0.647059 0.823529 
1 0.647059 0.823529 1 0.647059 0.823529 
1 0.647059 0.823529 1 0.647059 0.823529 
1 0.647059 0.823529 1 0.647059 0.823529 
1 0.647059 0.823529 1 0.647059 0.823529 
1 0.647059 0.823529 1 0.647059 0.823529 
1 0.647059 0.823529 1 0.647059 0.823529 
1 0.647059 0.823529 1 0.647059 0.823529 
1 0.647059 0.823529 1 0.647059 0.823529 
1 0.647059 0.823529 1 0.647059 0.823529 
1 0.647059 0.823529 1 0.647059 0.823529 
1 0.647059 0.823529 1 0.647059 0.823529 
1 0.647059 0.823529 1 0.647059 0.823529 
1 0.647059 0.823529 1 0.647059 0.823529 
1 0.647059 0.823529 1 0.647059 0.823529 
1 0.647059 0.823529 1 0.647059 0.823529 
1 0.647059 0.823529 1 0.647059 0.823529 
1 0.647059 0.823529 1 0.647059 0.823529 
1 0.647059 0.823529 1 0.647059 0.823529 
1 0.647059 0.823529 1 0.647059 0.823529 
1 0.647059 0.823529 1 0.647059 0.823529 