# vtk DataFile Version 4.2
vtk output
ASCII
DATASET POLYDATA
POINTS 2456 float
505.351 233.114 137.013 504.808 234.393 137.093 505.397 235.04 136.876 
505.497 236.101 136.822 506.067 236.319 136.716 506.389 236.77 136.714 
505.213 239.444 137.426 505.372 239.848 137.607 506.02 239.673 137.162 
506.446 239.513 137.06 506.087 240.102 137.4 506.514 240.326 137.512 
505.866 228.168 138.064 506.174 227.999 138.114 505.788 228.789 137.876 
506.289 228.964 137.757 504.526 231.748 137.516 504 232.64 137.677 
506.472 233.451 136.927 507.06 234.075 136.957 506.541 235.317 136.792 
507.717 235.548 137.052 504.404 237.552 137.445 507.314 239.66 137.294 
505.917 240.409 138.007 506.305 240.581 137.961 507.2 240.091 137.478 
506.575 240.557 137.808 507.51 240.247 137.821 506.788 252.679 138.166 
507.725 253.405 137.83 505.224 257.563 138.042 505.794 258.14 137.98 
505.725 226.86 138.876 506.022 226.736 139.017 505.625 227.162 138.672 
505.209 227.459 138.652 506.872 227.864 138.297 504.585 228.537 138.418 
507.484 231.528 137.403 503.41 233.412 138.133 508.841 234.88 137.576 
503.303 236.74 138.312 508.395 238.577 137.652 508.018 239.675 137.727 
505.67 240.367 138.543 506.568 240.666 138.079 506.755 240.688 138.324 
508.537 239.677 138.435 507.343 240.499 138.112 509.282 250.012 139.463 
510.165 250.296 139.109 509.07 251.713 138.443 509.864 251.512 138.543 
505.378 253.347 138.413 507.39 256.2 137.686 503.994 257.195 138.73 
509.031 256.536 138.042 506.237 260.143 138.646 505.175 226.68 139.254 
503.439 229.431 139.017 511.328 230.542 139.136 511.157 236.294 139.789 
509.983 238.195 139.705 508.316 240.06 139.14 510.249 249.346 140.07 
511.898 249.464 139.887 513.19 249.414 140.059 513.16 249.094 140.377 
511.383 250.103 139.371 511.272 250.872 138.976 511.2 251.663 138.742 
509.424 259.602 138.943 505.789 226.115 140.057 506.21 226.196 139.868 
507.766 226.351 140.451 511.383 227.086 140.965 513.343 231.398 140.039 
513.87 233.129 140.657 512.803 234.682 140.678 502.513 238.579 141.05 
510.383 237.988 140.755 503.959 239.583 140.723 505.687 240.398 139.6 
508.2 240.135 139.485 507.859 240.318 139.555 510.73 248.682 141.112 
512.337 248.659 140.972 514.083 249.416 140.402 514.116 252.368 139.653 
502.511 255.578 140.163 505.396 262.94 140.276 506.09 226.051 140.295 
512.441 225.503 142.389 512.157 225.917 142.075 508.189 226.173 141.591 
513.999 225.837 141.921 514.421 226.146 141.833 510.85 226.384 141.816 
513.12 227.348 141.119 501.791 231.68 140.464 514.516 233.342 141.179 
515.245 233.093 141.46 514.399 234.312 142.037 515.952 233.514 142.095 
508.798 239.492 141.06 507.131 240.414 139.919 513.061 248.383 141.631 
513.937 248.473 141.553 516.762 249.588 141.444 505.204 250.292 141.013 
504.052 263.347 141.18 504.74 264.403 141.484 514.535 223.415 143.309 
512.413 224.922 143.05 510.588 225.978 142.799 515.927 226.443 142.14 
517.154 228.649 142.174 516.824 232.623 141.993 517.48 233.111 142.475 
518.121 232.899 142.674 512.834 235.436 142.055 515.102 234.299 142.661 
516.695 233.841 142.728 512.29 235.996 142.508 510.776 237.631 141.784 
501.056 238.273 142.507 503.425 239.709 142.397 504.312 239.877 142.241 
508.577 239.554 141.418 510.042 248.528 141.98 518.415 248.563 142.8 
503.096 251.18 141.36 516.535 256.154 141.169 502.843 262.899 141.97 
504.803 265.603 142.411 515.512 222.219 143.946 515.832 221.829 144.166 
514.231 222.966 143.742 515.6 223.685 143.181 502.643 225.67 143.319 
502.421 225.474 143.733 502.292 225.673 143.534 501.671 226.419 143.323 
506.138 225.848 142.772 510.668 225.755 143.491 501.548 226.96 143.016 
508.706 226.202 143.135 509.487 226.258 144.11 518.735 231.657 142.848 
513.509 235.042 143.782 515.861 234.346 143.364 516.655 234.218 143.326 
517.406 234.376 143.961 518.762 233.872 143.46 519.326 233.763 143.619 
519.367 234.439 144.304 519.724 234.316 144.245 499.853 237.652 143.569 
502.296 239.815 143.138 505.091 240.002 143.02 507.87 239.75 141.834 
519.61 247.676 143.952 519.153 247.51 143.952 519.949 247.495 144.302 
517.1 247.766 143.161 519.684 248.628 143.416 519.693 249.386 143.128 
500.727 250.245 143.219 520.218 250.727 143.236 503.769 266.287 143.546 
515.441 220.97 144.845 514.844 221.349 144.758 516.569 221.544 144.472 
513.311 223.028 144.206 502.417 225.338 144.014 517.824 223.617 143.992 
501.712 225.722 144.119 501.744 225.415 144.665 511.468 224.867 144.353 
510.522 225.754 144.241 519.801 231.957 143.599 519.711 233.185 143.634 
512.782 235.382 144.089 514.963 234.513 144.309 515.802 234.44 144.163 
519.502 234.602 144.817 520.125 234.229 144.415 499.634 239.44 144.422 
502.763 240.386 143.766 503.612 240.384 143.869 506.815 239.68 143.65 
501.475 240.794 144.177 519.016 247.228 144.284 518.661 247.107 144.485 
519.757 247.038 144.917 520.343 247.613 144.521 520.449 247.371 144.962 
499.405 248.05 144.588 513.905 247.883 143.974 515.643 247.654 143.793 
500.151 248.316 144.201 500.753 248.294 144.066 502.285 248.297 143.852 
506.445 248.682 143.354 511.9 248.296 144.404 498.832 251.22 144.347 
520.611 252.124 143.553 519.569 257.008 143.507 518.732 259.559 143.627 
516.529 219.517 145.657 514.382 220.821 145.453 501.729 225.161 145.224 
502.343 225.16 144.904 519.544 224.25 145.022 510.896 225.264 145.861 
510.011 226.332 145.292 509.836 226.774 145.861 509.11 226.816 145.466 
499.541 228.926 145.097 520.723 229.464 144.723 512.568 235.1 145.119 
516.573 234.382 144.868 521.39 233.77 145.464 519.02 234.584 145.147 
520.41 234.356 144.769 521.102 234.129 145.277 520.04 234.628 145.148 
520.513 234.484 145.144 520.938 234.333 145.327 509.776 237.835 144.745 
505.149 240.333 144.923 502.434 241.606 144.787 500.467 241.623 144.718 
501.814 242.169 144.889 498.944 244.191 145.53 520.176 247.076 145.236 
517.051 247.098 145.356 521.486 247.943 145.778 502.123 246.713 144.773 
521.67 248.319 145.619 521.834 248.58 145.759 504.437 247.738 144.646 
507.09 248.226 145.013 521.565 251.857 144.903 521.148 252.944 144.363 
521.629 252.269 145.244 520.852 255.226 144.999 519.5 258.725 144.195 
520.02 258.596 145.19 502.385 266.299 144.747 517.804 218.732 146.352 
513.563 220.863 146.193 500.444 225.328 146.375 510.594 226.083 146.538 
521.158 226.946 146.057 508.431 227.089 146.047 509.482 227.474 146.496 
508.783 227.746 146.856 510.28 227.213 146.781 511.021 228.656 147.696 
510.147 228.633 147.342 521.79 231.732 145.794 513.468 234.118 145.922 
515.414 233.702 146.372 521.753 233.378 145.997 521.591 233.871 145.765 
521.51 234.024 145.676 521.575 234.024 145.775 518.192 234.312 146.105 
520.039 234.646 145.498 520.249 234.554 145.796 521.287 234.148 145.624 
521.512 234.079 145.747 504.309 241.671 146.164 498.249 242.437 145.996 
502.424 243.971 145.509 497.669 247.283 146.062 516.318 247.319 145.577 
521.551 247.822 146.369 504.093 246.825 145.454 505.949 247.367 146.224 
510.337 248.72 145.95 514.303 248.139 146.007 497.897 252.811 145.262 
521.645 252.441 145.74 520.638 256.019 145.718 520.371 257.083 145.625 
520.19 257.683 146.191 520.076 259.39 146.533 520.333 260.628 146.812 
520.349 261.252 146.491 520.459 261.087 146.779 520.3 262.971 146.325 
514.911 268.014 145.65 517.089 215.864 147.8 516.089 216.455 147.749 
517.864 215.99 147.744 521.057 222.592 147.264 500.633 225.03 146.697 
501.146 224.592 147.488 521.425 223.732 147.69 521.511 225.804 147.454 
510.763 226.259 147.499 510.869 228.091 147.556 521.816 228.465 146.801 
510.212 229.142 147.595 511.893 229.279 148.195 511.334 230.384 147.882 
510.814 230.508 147.932 513.124 230.789 148.185 513.273 231.501 147.854 
522.085 230.756 146.99 522.236 232.06 146.691 522.291 232.089 146.957 
512.277 233.638 146.894 513.95 232.874 147.076 522.215 232.554 146.565 
522.015 233.122 146.332 522.224 232.736 146.739 521.527 233.943 145.906 
521.536 233.668 146.408 522.099 232.965 146.748 520.286 234.344 146.239 
497.426 237.807 147.215 505.795 240.43 147.029 503.886 243.167 146.456 
504.221 242.726 146.71 504.393 245.582 146.564 518.283 246.6 146.65 
519.157 246.274 147.874 497.209 246.525 146.69 505.092 245.669 147.317 
505.029 246.277 146.691 517.258 246.986 147.08 515.86 247.755 147.06 
521.973 248.815 146.622 512.589 249.341 147.461 521.981 249.518 147.182 
521.758 250.786 147.47 520.19 256.244 146.911 519.749 256.748 147.471 
519.752 258.351 147.459 520.1 259.854 147.549 521.08 262.919 147.307 
521.401 262.659 147.95 521.904 263.746 148.176 521.581 264.287 147.627 
505.144 269.688 147.341 512.801 220.716 147.633 511.938 222.047 147.908 
521.755 222.043 148.483 500.385 224.497 148.203 499.693 225.199 147.673 
501.512 224.491 148.07 502.72 224.807 148.116 521.603 225.266 148.151 
499.263 226.043 147.461 507.061 227.15 147.346 510.938 227.098 147.822 
521.698 227.168 148.098 511.77 228.489 148.382 521.846 227.956 147.45 
521.933 229.185 147.521 511.647 232.217 147.688 521.971 231.49 147.628 
522.259 231.98 147.108 522.228 232.27 147.09 510.773 233.917 147.901 
521.467 233.235 147.254 519.11 233.897 147.296 521.179 233.473 147.253 
504.955 241.959 147.42 504.524 244.045 147.241 519.425 246.096 148.486 
519.383 246.038 148.977 521.477 247.598 147.862 506.618 247.231 147.801 
507.457 247.908 148.301 515.355 248.305 147.619 521.806 249.223 147.854 
510.655 249.585 148.12 520.647 253.155 147.912 518.841 255.718 148.573 
521.295 262.252 148.178 522.108 263.53 148.626 522.951 264.63 149.315 
522.596 266.159 148.722 520.732 267.749 147.929 506.742 270.858 148.526 
499.763 224.624 148.546 500.436 224.24 149.391 511.108 223.127 149.345 
521.881 223.56 149.571 510.875 224.719 149.669 506.419 227.764 149.305 
513.508 229.309 149.435 521.611 228.81 148.573 521.375 229.022 148.974 
509.405 231.037 148.808 521.765 230.918 147.978 521.395 230.932 148.489 
509.635 232.574 149.028 518.744 233.252 148.139 519.106 233.083 148.289 
520.509 232.724 148.275 520.777 233.505 147.405 506.958 239.009 148.55 
505.846 240.732 148.779 505.176 242.228 148.141 505.089 243.674 148.236 
519 246.164 149.153 519.948 246.114 148.878 519.722 246.025 149.264 
[...]
POINT_DATA 2456
COLOR_SCALARS scalars 3
1 0.647059 0.823529 1 0.647059 0.823529 1 0.647059 0.823529 
1 0.647059 0.823529 1 0.647059 0.823529 
1 0.647059 0.823529 1 0.647059 0.823529 
1 0.647059 0.823529 1 0.647059 0.823529 
1 0.647059 0.823529 1 0.647059 0.823529 
1 0.647059 0.823529 1 0.647059 0.823529 
1 0.647059 0.823529 1 0.647059 0.823529 
1 0.647059 0.823529 1 0.647059 0.823529 
1 0.647059 0.823529 1 0.647059 0.823529 
1 0.647059 0.823529 1 0.647059 0.823529 
1 0.647059 0.823529 1 0.647059 0.823529 
1 0.647059 0.823529 1 0.647059 0.823529 
1 0.647059 0.823529 1 0.647059 0.823529 
1 0.647059 0.823529 1 0.647059 0.823529 
1 0.647059 0.823529 1 0.647059 0.823529 
1 0.647059 0.823529 1 0.647059 0.823529 
1 0.647059 0.823529 1 0.647059 0.823529 
1 0.647059 0.823529 1 0.647059 0.823529 
1 0.647059 0.823529 1 0.647059 0.823529 
1 0.647059 0.823529 1 0.647059 0.823529 
1 0.647059 0.823529 1 0.647059 0.823529 
1 0.647059 0.823529 1 0.647059 0.823529 
1 0.647059 0.823529 1 0.647059 0.823529 
1 0.647059 0.823529 1 0.647059 0.823529 
1 0.647059 0.823529 1 0.647059 0.823529 
1 0.647059 0.823529 1 0.647059 0.823529 
1 0.647059 0.823529 1 0.647059 0.823529 
1 0.647059 0.823529 1 0.647059 0.823529 
1 0.647059 0.823529 1 0.647059 0.823529 
1 0.647059 0.823529 1 0.647059 0.823529 
1 0.647059 0.823529 1 0.647059 0.823529 
1 0.647059 0.823529 1 0.647059 0.823529 
1 0.647059 0.823529 1 0.647059 0.823529 
1 0.647059 0.823529 1 0.647059 0.823529 
1 0.647059 0.823529 1 0.647059 0.823529 
1 0.647059 0.823529 1 0.647059 0.823529 
1 0.647059 0.823529 1 0.647059 0.823529 
1 0.647059 0.823529 1 0.647059 0.823529 
1 0.647059 0.823529 1 0.647059 0.823529 
1 0.647059 0.823529 1 0.647059 0.823529 
1 0.647059 0.823529 1 0.647059 0.823529 
1 0.647059 0.823529 1 0.647059 0.823529 
1 0.647059 0.823529 1 0.647059 0.823529 
1 0.647059 0.823529 1 0.647059 0.823529 
1 0.647059 0.823529 1 0.647059 0.823529 
1 0.647059 0.823529 1 0.647059 0.823529 
1 0.647059 0.823529 1 0.647059 0.823529 
1 0.647059 0.823529 1 0.647059 0.823529 
1 0.647059 0.823529 1 0.647059 0.823529 
1 0.647059 0.823529 1 0.647059 0.823529 
1 0.647059 0.823529 1 0.647059 0.823529 
1 0.647059 0.823529 1 0.647059 0.823529 
1 0.647059 0.823529 1 0.647059 0.823529 
1 0.647059 0.823529 1 0.647059 0.823529 
1 0.647059 0.823529 1 0.647059 0.823529 
1 0.647059 0.823529 1 0.647059 0.823529 
1 0.647059 0.823529 1 0.647059 0.823529 
1 0.647059 0.823529 1 0.647059 0.823529 
1 0.647059 0.823529 1 0.647059 0.823529 
1 0.647059 0.823529 1 0.647059 0.823529 
1 0.647059 0.823529 1 0.647059 0.823529 
1 0.647059 0.823529 1 0.647059 0.823529 
1 0.647059 0.823529 1 0.647059 0.823529 
1 0.647059 0.823529 1 0.647059 0.823529 
1 0.647059 0.823529 1 0.647059 0.823529 
1 0.647059 0.823529 1 0.647059 0.823529 
1 0.647059 0.823529 1 0.647059 0.823529 
1 0.647059 0.823529 1 0.647059 0.823529 
1 0.647059 0.823529 1 0.647059 0.823529 
1 0.647059 0.823529 1 0.647059 0.823529 
1 0.647059 0.823529 1 0.647059 0.823529 
1 0.647059 0.823529 1 0.647059 0.823529 
1 0.647059 0.823529 1 0.647059 0.823529 
1 0.647059 0.823529 1 0.647059 0.823529 
1 0.647059 0.823529 1 0.647059 0.823529 
1 0.647059 0.823529 1 0.647059 0.823529 
1 0.647059 0.823529 1 0.647059 0.823529 
1 0.647059 0.823529 1 0.647059 0.823529 
1 0.647059 0.823529 1 0.647059 0.823529 
1 0.647059 0.823529 1 0.647059 0.823529 
1 0.647059 0.823529 1 0.647059 0.823529 
1 0.647059 0.823529 1 0.647059 0.823529 
1 0.647059 0.823529 1 0.647059 0.823529 
1 0.647059 0.823529 1 0.647059 0.823529 
1 0.647059 0.823529 1 0.647059 0.823529 
1 0.647059 0.823529 1 0.647059 0.823529 
1 0.647059 0.823529 1 0.647059 0.823529 
1 0.647059 0.823529 1 0.647059 0.823529 
1 0.647059 0.823529 1 0.647059 0.823529 
1 0.647059 0.823529 1 0.647059 0.823529 
1 0.647059 0.823529 1 0.647059 0.823529 
1 0.647059 0.823529 1 0.647059 0.823529 
1 0.647059 0.823529 1 0.647059 0.823529 
1 0.647059 0.823529 1 0.647059 0.823529 
1 0.647059 0.823529 1 0.647059 0.823529 
1 0.647059 0.823529 1 0.647059 0.823529 
1 0.647059 0.823529 1 0.647059 0.823529 
1 0.647059 0.823529 1 0.647059 0.823529 
1 0.647059 0.823529 1 0.647059 0.823529 
1 0.647059 0.823529 1 0.647059 0.823529 
1 0.647059 0.823529 1 0.647059 0.823529 
1 0.647059 0.823529 1 0.647059 0.823529 
1 0.647059 0.823529 1 0.647059 0.823529 
1 0.647059 0.823529 1 0.647059 0.823529 
1 0.647059 0.823529 1 0.647059 0.823529 
1 0.647059 0.823529 1 0.647059 0.823529 
1 0.647059 0.823529 1 0.647059 0.823529 
1 0.647059 0.823529 1 0.647059 0.823529 
1 0.647059 0.823529 1 0.647059 0.823529 
1 0.647059 0.823529 1 0.647059 0.823529 
1 0.647059 0.823529 1 0.647059 0.823529 
1 0.647059 0.823529 1 0.647059 0.823529 
1 0.647059 0.823529 1 0.647059 0.823529 
1 0.647059 0.823529 1 0.647059 0.823529 
1 0.647059 0.823529 1 0.647059 0.823529 
1 0.647059 0.823529 1 0.647059 0.823529 
1 0.647059 0.823529 1 0.647059 0.823529 
1 0.647059 0.823529 1 0.647059 0.823529 
1 0.647059 0.823529 1 0.647059 0.823529 
1 0.647059 0.823529 1 0.647059 0.823529 
1 0.647059 0.823529 1 0.647059 0.823529 
1 0.647059 0.823529 1 0.647059 0.823529 
1 0.647059 0.823529 1 0.647059 0.823529 
1 0.647059 0.823529 1 0.647059 0.823529 
1 0.647059 0.823529 1 0.647059 0.823529 
1 0.647059 0.823529 1 0.647059 0.823529 
1 0.647059 0.823529 1 0.647059 0.823529 
1 0.647059 0.823529 1 0.647059 0.823529 
1 0.647059 0.823529 1 0.647059 0.823529 
1 0.647059 0.823529 1 0.647059 0.823529 
1 0.647059 0.823529 1 0.647059 0.823529 
1 0.647059 0.823529 1 0.647059 0.823529 
1 0.647059 0.823529 1 0.647059 0.823529 
1 0.647059 0.823529 1 0.647059 0.823529 
1 0.647059 0.823529 1 0.647059 0.823529 
1 0.647059 0.823529 1 0.647059 0.823529 
1 0.647059 0.823529 1 0.647059 0.823529 
1 0.647059 0.823529 1 0.647059 0.823529 
1 0.647059 0.823529 1 0.647059 0.823529 
1 0.647059 0.823529 1 0.647059 0.823529 
1 0.647059 0.823529 1 0.647059 0.823529 
1 0.647059 0.823529 1 0.647059 0.823529 
1 0.647059 0.823529 1 0.647059 0.823529 
1 0.647059 0.823529 1 0.647059 0.823529 
1 0.647059 0.823529 1 0.647059 0.823529 
1 0.647059 0.823529 1 0.647059 0.823529 
1 0.647059 0.823529 1 0.647059 0.823529 
1 0.647059 0.823529 1 0.647059 0.823529 
1 0.647059 0.823529 1 0.647059 0.823529 
1 0.647059 0.823529 1 0.647059 0.823529 
1 0.647059 0.823529 1 0.647059 0.823529 
1 0.647059 0.823529 1 0.647059 0.823529 
1 0.647059 0.823529 1 0.647059 0.823529 
1 0.647059 0.823529 1 0.647059 0.823529 
1 0.647059 0.823529 1 0.647059 0.823529 
1 0.647059 0.823529 1 0.647059 0.823529 
1 0.647059 0.823529 1 0.647059 0.823529 
1 0.647059 0.823529 1 0.647059 0.823529 
1 0.647059 0.823529 1 0.647059 0.823529 
1 0.647059 0.823529 1 0.647059 0.823529 
1 0.647059 0.823529 1 0.647059 0.823529 
1 0.647059 0.823529 1 0.647059 0.823529 
1 0.647059 0.823529 1 0.647059 0.823529 
1 0.647059 0.823529 1 0.647059 0.823529 
1 0.647059 0.823529 1 0.647059 0.823529 
1 0.647059 0.823529 1 0.647059 0.823529 
1 0.647059 0.823529 1 0.647059 0.823529 
1 0.647059 0.823529 1 0.647059 0.823529 
1 0.647059 0.823529 1 0.647059 0.823529 
1 0.647059 0.823529 1 0.647059 0.823529 
1 0.647059 0.823529 1 0.647059 0.823529 
1 0.647059 0.823529 1 0.647059 0.823529 
1 0.647059 0.823529 1 0.647059 0.823529 
1 0.647059 0.823529 1 0.647059 0.823529 
1 0.647059 0.823529 1 0.647059 0.823529 
1 0.647059 0.823529 1 0.647059 0.823529 
1 0.647059 0.823529 1 0.647059 0.823529 
1 0.647059 0.823529 1 0.647059 0.823529 
1 0.647059 0.823529 1 0.647059 0.823529 
1 0.647059 0.823529 1 0.647059 0.823529 
1 0.647059 0.823529 1 0.647059 0.823529 
1 0.647059 0.823529 1 0.647059 0.823529 
1 0.647059 0.823529 1 0.647059 0.823529 
1 0.647059 0.823529 1 0.647059 0.823529 
1 0.647059 0.823529 1 0.647059 0.823529 
1 0.647059 0.823529 1 0.647059 0.823529 
1 0.647059 0.823529 1 0.647059 0.823529 
1 0.647059 0.823529 1 0.647059 0.823529 
1 0.647059 0.823529 1 0.647059 0.823529 
1 0.647059 0.823529 1 0.647059 0.823529 
1 0.647059 0.823529 1 0.647059 0.823529 
1 0.647059 0.823529 1 0.647059 0.823529 
1 0.647059 0.823529 1 0.647059 0.823529 
1 0.647059 0.823529 1 0.647059 0.823529 
1 0.647059 0.823529 1 0.647059 0.823529 
1 0.647059 0.823529 1 0.647059 0.823529 
1 0.647059 0.823529 1 0.647059 0.823529 
1 0.647059 0.823529 1 0.647059 0.823529 
1 0.647059 0.823529 1 0.647059 0.823529 
1 0.647059 0.823529 1 0.647059 0.823529 
1 0.647059 0.823529 1 0.647059 0.823529 
1 0.647059 0.823529 1 0.647059 0.823529 
1 0.647059 0.823529 1 0.647059 0.823529 
1 0.647059 0.823529 1 0.647059 0.823529 
1 0.647059 0.823529 1 0.647059 0.823529 
1 0.647059 0.823529 1 0.647059 0.823529 
1 0.647059 0.823529 1 0.647059 0.823529 
1 0.647059 0.823529 1 0.647059 0.823529 
1 0.647059 0.823529 1 0.647059 0.823529 
1 0.647059 0.823529 1 0.647059 0.823529 
1 0.647059 0.823529 1 0.647059 0.823529 
1 0.647059 0.823529 1 0.647059 0.823529 
1 0.647059 0.823529 1 0.647059 0.823529 
1 0.647059 0.823529 1 0.647059 0.823529 
1 0.647059 0.823529 1 0.647059 0.823529 
1 0.647059 0.823529 1 0.647059 0.823529 
1 0.647059 0.823529 1 0.647059 0.823529 
1 0.647059 0.823529 1 0.647059 0.823529 
1 0.647059 0.823529 1 0.647059 0.823529 
1 0.647059 0.823529 1 0.647059 0.823529 
1 0.647059 0.823529 1 0.647059 0.823529 
1 0.647059 0.823529 1 0.647059 0.823529 
1 0.647059 0.823529 1 0.647059 0.823529 
1 0.647059 0.823529 1 0.647059 0.823529 
1 0.647059 0.823529 1 0.647059 0.823529 
1 0.647059 0.823529 1 0.647059 0.823529 
1 0.647059 0.823529 1 0.647059 0.823529 
1 0.647059 0.823529 1 0.647059 0.823529 
1 0.647059 0.823529 1 0.647059 0.823529 
1 0.647059 0.823529 1 0.647059 0.823529 
1 0.647059 0.823529 1 0.647059 0.823529 
1 0.647059 0.823529 1 0.647059 0.823529 
1 0.647059 0.823529 1 0.647059 0.823529 
1 0.647059 0.823529 1 0.647059 0.823529 
1 0.647059 0.823529 1 0.647059 0.823529 
1 0.647059 0.823529 1 0.647059 0.823529 
1 0.647059 0.823529 1 0.647059 0.823529 
1 0.647059 0.823529 1 0.647059 0.823529 
1 0.647059 0.823529 1 0.647059 0.823529 
1 0.647059 0.823529 1 0.647059 0.823529 
1 0.647059 0.823529 1 0.647059 0.823529 
1 0.647059 0.823529 1 0.647059 0.823529 
1 0.647059 0.823529 1 0.647059 0.823529 
1 0.647059 0.823529 1 0.647059 0.823529 
1 0.647059 0.823529 1 0.647059 0.823529 
1 0.647059 0.823529 1 0.647059 0.823529 
1 0.647059 0.823529 1 0.647059 0.823529 
1 0.647059 0.823529 1 0.647059 0.823529 
1 0.647059 0.823529 1 0.647059 0.823529 
1 0.647059 0.823529 1 0.647059 0.823529 
1 0.647059 0.823529 1 0.647059 0.823529 
1 0.647059 0.823529 1 0.647059 0.823529 
1 0.647059 0.823529 1 0.647059 0.823529 
1 0.647059 0.823529 1 0.647059 0.823529 
1 0.647059 0.823529 1 0.647059 0.823529 
1 0.647059 0.823529 1 0.647059 0.823529 
1 0.647059 0.823529 1 0.647059 0.823529 
1 0.647059 0.823529 1 0.647059 0.823529 
1 0.647059 0.823529 1 0.647059 0.823529 
1 0.647059 0.823529 1 0.647059 0.823529 
1 0.647059 0.823529 1 0.647059 0.823529 
1 0.647059 0.823529 1 0.647059 0.823529 
1 0.647059 0.823529 1 0.647059 0.823529 
1 0.647059 0.823529 1 0.647059 0.823529 
1 0.647059 0.823529 1 0.647059 0.823529 
1 0.647059 0.823529 1 0.647059 0.823529 
1 0.647059 0.823529 1 0.647059 0.823529 
1 0.647059 0.823529 1 0.647059 0.823529 
1 0.647059 0.823529 1 0.647059 0.823529 
1 0.647059 0.823529 1 0.647059 0.823529 
1 0.647059 0.823529 1 0.647059 0.823529 
1 0.647059 0.823529 1 0.647059 0.823529 
1 0.647059 0.823529 1 0.647059 0.823529 
1 0.647059 0.823529 1 0.647059 0.823529 
1 0.647059 0.823529 1 0.647059 0.823529 
1 0.647059 0.823529 1 0.647059 0.823529 
1 0.647059 0.823529 1 0.647059 0.823529 
1 0.647059 0.823529 1 0.647059 0.823529 
1 0.647059 0.823529 1 0.647059 0.823529 
1 0.647059 0.823529 1 0.647059 0.823529 
1 0.647059 0.823529 1 0.647059 0.823529 
1 0.647059 0.823529 1 0.647059 0.823529 
1 0.647059 0.823529 1 0.647059 0.823529 
1 0.647059 0.823529 1 0.647059 0.823529 
1 0.647059 0.823529 1 0.647059 0.823529 
1 0.647059 0.823529 1 0.647059 0.823529 
1 0.647059 0.823529 1 0.647059 0.823529 
1 0.647059 0.823529 1 0.647059 0.823529 
1 0.647059 0.823529 1 0.647059 0.823529 
1 0.647059 0.823529 1 0.647059 0.823529 
1 0.647059 0.823529 1 0.647059 0.823529 
1 0.647059 0.823529 1 0.647059 0.823529 
1 0.647059 0.823529 1 0.647059 0.823529 
1 0.647059 0.823529 1 0.647059 0.823529 
1 0.647059 0.823529 1 0.647059 0.823529 
1 0.647059 0.823529 1 0.647059 0.823529 
1 0.647059 0.823529 1 0.647059 0.823529 
1 0.647059 0.823529 1 0.647059 0.823529 
1 0.647059 0.823529 1 0.647059 0.823529 
1 0.647059 0.823529 1 0.647059 0.823529 
1 0.647059 0.823529 1 0.647059 0.823529 
1 0.647059 0.823529 1 0.647059 0.823529 
1 0.647059 0.823529 1 0.647059 0.823529 
1 0.647059 0.823529 1 0.647059 0.823529 
1 0.647059 0.823529 1 0.647059 0.823529 
1 0.647059 0.823529 1 0.647059 0.823529 
1 0.647059 0.823529 1 0.647059 0.823529 
1 0.647059 0.823529 1 0.647059 0.823529 
1 0.647059 0.823529 1 0.647059 0.823529 
1 0.647059 0.823529 1 0.647059 0.823529 
1 0.647059 0.823529 1 0.647059 0.823529 
1 0.647059 0.823529 1 0.647059 0.823529 
1 0.647059 0.823529 1 0.647059 0.823529 
1 0.647059 0.823529 1 0.647059 0.823529 
1 0.647059 0.823529 1 0.647059 0.823529 
1 0.647059 0.823529 1 0.647059 0.823529 
1 0.647059 0.823529 1 0.647059 0.823529 
1 0.647059 0.823529 1 0.647059 0.823529 
1 0.647059 0.823529 1 0.647059 0.823529 
1 0.647059 0.823529 1 0.647059 0.823529 
1 0.647059 0.823529 1 0.647059 0.823529 
1 0.647059 0.823529 1 0.647059 0.823529 
1 0.647059 0.823529 1 0.647059 0.823529 
1 0.647059 0.823529 1 0.647059 0.823529 
1 0.647059 0.823529 1 0.647059 0.823529 
1 0.647059 0.823529 1 0.647059 0.823529 
1 0.647059 0.823529 1 0.647059 0.823529 
1 0.647059 0.823529 1 0.647059 0.823529 
1 0.647059 0.823529 1 0.647059 0.823529 
1 0.647059 0.823529 1 0.647059 0.823529 
1 0.647059 0.823529 1 0.647059 0.823529 
1 0.647059 0.823529 1 0.647059 0.823529 
1 0.647059 0.823529 1 0.647059 0.823529 
1 0.647059 0.823529 1 0.647059 0.823529 
1 0.647059 0.823529 1 0.647059 0.823529 
1 0.647059 0.823529 1 0.647059 0.823529 
1 0.647059 0.823529 1 0.647059 0.823529 
1 0.647059 0.823529 1 0.647059 0.823529 
1 0.647059 0.823529 1 0.647059 0.823529 
1 0.647059 0.823529 1 0.647059 0.823529 
1 0.647059 0.823529 1 0.647059 0.823529 
1 0.647059 0.823529 1 0.647059 0.823529 
1 0.647059 0.823529 1 0.647059 0.823529 
1 0.647059 0.823529 1 0.647059 0.823529 
1 0.647059 0.823529 1 0.647059 0.823529 
1 0.647059 0.823529 1 0.647059 0.823529 
1 0.647059 0.823529 1 0.647059 0.823529 
1 0.647059 0.823529 1 0.647059 0.823529 
1 0.647059 0.823529 1 0.647059 0.823529 
1 0.647059 0.823529 1 0.647059 0.823529 
1 0.647059 0.823529 1 0.647059 0.823529 
1 0.647059 0.823529 1 0.647059 0.823529 
1 0.647059 0.823529 1 0.647059 0.823529 
1 0.647059 0.823529 1 0.647059 0.823529 
1 0.647059 0.823529 1 0.647059 0.823529 
1 0.647059 0.823529 1 0.647059 0.823529 
1 0.647059 0.823529 1 0.647059 0.823529 
1 0.647059 0.823529 1 0.647059 0.823529 
1 0.647059 0.823529 1 0.647059 0.823529 
1 0.647059 0.823529 1 0.647059 0.823529 
1 0.647059 0.823529 1 0.647059 0.823529 
1 0.647059 0.823529 1 0.647059 0.823529 
1 0.647059 0.823529 1 0.647059 0.823529 
1 0.647059 0.823529 1 0.647059 0.823529 
1 0.647059 0.823529 1 0.647059 0.823529 
1 0.647059 0.823529 1 0.647059 0.823529 
1 0.647059 0.823529 1 0.647059 0.823529 
1 0.647059 0.823529 1 0.647059 0.823529 
1 0.647059 0.823529 1 0.647059 0.823529 
1 0.647059 0.823529 1 0.647059 0.823529 
1 0.647059 0.823529 1 0.647059 0.823529 
1 0.647059 0.823529 1 0.647059 0.823529 
1 0.647059 0.823529 1 0.647059 0.823529 
1 0.647059 0.823529 1 0.647059 0.823529 
1 0.647059 0.823529 1 0.647059 0.823529 
1 0.647059 0.823529 1 0.647059 0.823529 
1 0.647059 0.823529 1 0.647059 0.823529 
1 0.647059 0.823529 1 0.647059 0.823529 
1 0.647059 0.823529 1 0.647059 0.823529 
1 0.647059 0.823529 1 0.647059 0.823529 
1 0.647059 0.823529 1 0.647059 0.823529 
1 0.647059 0.823529 1 0.647059 0.823529 
1 0.647059 0.823529 1 0.647059 0.823529 
1 0.647059 0.823529 1 0.647059 0.823529 
1 0.647059 0.823529 1 0.647059 0.823529 
1 0.647059 0.823529 1 0.647059 0.823529 
1 0.647059 0.823529 1 0.647059 0.823529 
1 0.647059 0.823529 1 0.647059 0.823529 
1 0.647059 0.823529 1 0.647059 0.823529 
1 0.647059 0.823529 1 0.647059 0.823529 
1 0.647059 0.823529 1 0.647059 0.823529 
1 0.647059 0.823529 1 0.647059 0.823529 
1 0.647059 0.823529 1 0.647059 0.823529 
1 0.647059 0.823529 1 0.647059 0.823529 
1 0.647059 0.823529 1 0.647059 0.823529 
1 0.647059 0.823529 1 0.647059 0.823529 
1 0.647059 0.823529 1 0.647059 0.823529 
1 0.647059 0.823529 1 0.647059 0.823529 
1 0.647059 0.823529 1 0.647059 0.823529 
1 0.647059 0.823529 1 0.647059 0.823529 
1 0.647059 0.823529 1 0.647059 0.823529 
1 0.647059 0.823529 1 0.647059 0.823529 
1 0.647059 0.823529 1 0.647059 0.823529 
1 0.647059 0.823529 1 0.647059 0.823529 
1 0.647059 0.823529 1 0.647059 0.823529 
1 0.647059 0.823529 1 0.647059 0.823529 
1 0.647059 0.823529 1 0.647059 0.823529 
1 0.647059 0.823529 1 0.647059 0.823529 
1 0.647059 0.823529 1 0.647059 0.823529 
1 0.647059 0.823529 1 0.647059 0.823529 
1 0.647059 0.823529 1 0.647059 0.823529 
1 0.647059 0.823529 1 0.647059 0.823529 
1 0.647059 0.823529 1 0.647059 0.823529 
1 0.647059 0.823529 1 0.647059 0.823529 
1 0.647059 0.823529 1 0.647059 0.823529 
1 0.647059 0.823529 1 0.647059 0.823529 
1 0.647059 0.823529 1 0.647059 0.823529 
1 0.647059 0.823529 1 0.647059 0.823529 
1 0.647059 0.823529 1 0.647059 0.823529 
1 0.647059 0.823529 1 0.647059 0.823529 
1 0.647059 0.823529 1 0.647059 0.823529 
1 0.647059 0.823529 1 0.647059 0.823529 
1 0.647059 0.823529 1 0.647059 0.823529 
1 0.647059 0.823529 1 0.647059 0.823529 
1 0.647059 0.823529 1 0.647059 0.823529 
1 0.647059 0.823529 1 0.647059 0.823529 
1 0.647059 0.823529 1 0.647059 0.823529 
1 0.647059 0.823529 1 0.647059 0.823529 
1 0.647059 0.823529 1 0.647059 0.823529 
1 0.647059 0.823529 1 0.647059 0.823529 
1 0.647059 0.823529 1 0.647059 0.823529 
1 0.647059 0.823529 1 0.647059 0.823529 
1 0.647059 0.823529 1 0.647059 0.823529 
1 0.647059 0.823529 1 0.647059 0.823529 
1 0.647059 0.823529 1 0.647059 0.823529 
1 0.647059 0.823529 1 0.647059 0.823529 
1 0.647059 0.823529 1 0.647059 0.823529 
1 0.647059 0.823529 1 0.647059 0.823529 
1 0.647059 0.823529 1 0.647059 0.823529 
1 0.647059 0.823529 1 0.647059 0.823529 
1 0.647059 0.823529 1 0.647059 0.823529 
1 0.647059 0.823529 1 0.647059 0.823529 
1 0.647059 0.823529 1 0.647059 0.823529 
1 0.647059 0.823529 1 0.647059 0.823529 
1 0.647059 0.823529 1 0.647059 0.823529 
1 0.647059 0.823529 1 0.647059 0.823529 
1 0.647059 0.823529 1 0.647059 0.823529 
1 0.647059 0.823529 1 0.647059 0.823529 
1 0.647059 0.823529 1 0.647059 0.823529 
1 0.647059 0.823529 1 0.647059 0.823529 
1 0.647059 0.823529 1 0.647059 0.823529 
1 0.647059 0.823529 1 0.647059 0.823529 
1 0.647059 0.823529 1 0.647059 0.823529 
1 0.647059 0.823529 1 0.647059 0.823529 
1 0.647059 0.823529 1 0.647059 0.823529 
1 0.647059 0.823529 1 0.647059 0.823529 
1 0.647059 0.823529 1 0.647059 0.823529 
1 0.647059 0.823529 1 0.647059 0.823529 
1 0.647059 0.823529 1 0.647059 0.823529 
1 0.647059 0.823529 1 0.647059 0.823529 
1 0.647059 0.823529 1 0.647059 0.823529 
1 0.647059 0.823529 1 0.647059 0.823529 
1 0.647059 0.823529 1 0.647059 0.823529 
1 0.647059 0.823529 1 0.647059 0.823529 
1 0.647059 0.823529 1 0.647059 0.823529 
1 0.647059 0.823529 1 0.647059 0.823529 
1 0.647059 0.823529 1 0.647059 0.823529 
1 0.647059 0.823529 1 0.647059 0.823529 
1 0.647059 0.823529 1 0.647059 0.823529 
1 0.647059 0.823529 1 0.647059 0.823529 
1 0.647059 0.823529 1 0.647059 0.823529 
1 0.647059 0.823529 1 0.647059 0.823529 
1 0.647059 0.823529 1 0.647059 0.823529 
1 0.647059 0.823529 1 0.647059 0.823529 
1 0.647059 0.823529 1 0.647059 0.823529 
1 0.647059 0.823529 1 0.647059 0.823529 
1 0.647059 0.823529 1 0.647059 0.823529 
1 0.647059 0.823529 1 0.647059 0.823529 
1 0.647059 0.823529 1 0.647059 0.823529 
1 0.647059 0.823529 1 0.647059 0.823529 
1 0.647059 0.823529 1 0.647059 0.823529 
1 0.647059 0.823529 1 0.647059 0.823529 
1 0.647059 0.823529 1 0.647059 0.823529 
1 0.647059 0.823529 1 0.647059 0.823529 
1 0.647059 0.823529 1 0.647059 0.823529 
1 0.647059 0.823529 1 0.647059 0.823529 