# vtk DataFile Version 4.2
vtk output
ASCII
DATASET POLYDATA
POINTS 2107 float
489.281 238.759 128.077 490.677 238.637 127.346 490.066 239.452 127.715 
492.083 239.312 127.111 490.163 240.129 127.834 491.387 240.174 127.254 
490.159 240.568 128.017 491.397 241.001 127.341 490.639 242.142 128.254 
492.085 241.822 127.22 493.452 241.624 127.131 491.12 242.82 127.83 
491.535 242.746 127.522 491.045 243.496 128.114 492.098 243.537 127.394 
492.112 245.051 127.685 493.157 245.268 127.467 491.983 246.29 128.216 
488.495 235.501 127.787 488.339 236.219 127.863 487.438 236.774 128.375 
489.969 237.082 127.492 488.587 238.535 128.612 489.613 240.141 128.589 
490.452 242.039 128.706 494.652 245.049 127.553 491.734 246.222 128.73 
492.503 248.027 128.968 493.062 248.128 128.443 493.793 249.572 128.652 
494.505 230.247 129.17 485.515 233.158 128.647 483.008 234.584 130.038 
496.62 234.824 128.704 487.623 238.315 129.661 497.493 238.712 128.597 
489.855 240.762 129.47 490.333 241.781 129.054 490.672 242.467 129.469 
492.594 250.695 129.999 494.342 250.668 128.896 492.458 252.39 130.219 
493.304 252.046 129.559 492.734 253.064 130.008 484.974 229.215 130.049 
498.254 231.438 130.133 483.079 235.35 130.568 499.662 236.828 130.21 
499.318 237.852 129.774 488.178 238.909 130.068 489.825 240.597 130.177 
491.216 243.723 129.837 499.9 242.458 130.037 498.659 246.009 129.269 
492.166 247.522 130.249 492.368 249.124 130.356 492.359 250.911 130.678 
492.368 250.532 131.216 492.261 251.346 131.125 491.999 253.129 130.653 
491.862 254.192 130.417 489.196 255.996 131.152 489.081 255.759 131.422 
488.73 256.053 131.41 491 255.113 130.65 487.915 256.663 131.586 
487.717 256.637 131.918 488.443 256.502 131.311 488.969 256.513 131.014 
489.625 256.258 130.848 493.613 255.187 130.141 487.71 257.167 131.47 
490.852 256.465 130.547 488.124 226.069 131.078 491.927 225.836 131.011 
481.978 229.818 131.189 481.158 230.315 131.699 480.927 231.585 131.892 
499.752 234.268 130.733 500.512 235.308 131.726 500.095 236.147 130.954 
500.399 236.145 131.703 488.771 239.443 131.192 500.228 241.04 130.451 
491.491 242.586 131.091 500.305 245.149 130.528 492.186 247.145 130.56 
492.518 249.814 131.633 498.943 253.09 131.046 491.093 254.235 131.097 
491.437 253.655 131.254 489.595 255.26 131.789 490.154 254.885 131.797 
496.551 254.785 130.572 488.056 256.287 132.272 486.299 258.13 132.052 
488.821 257.455 130.95 486.29 258.218 131.854 486.113 258.348 131.971 
486.113 258.347 131.891 489.957 257.734 130.797 486.207 258.436 131.889 
486.502 258.712 131.822 489.461 259.074 131.23 501.337 231.367 132.234 
501.648 233.62 132.737 500.866 235.332 132.164 500.053 236.774 132.827 
499.716 236.877 133.273 500.162 236.39 133.375 500.553 236.099 132.456 
500.33 236.683 132.317 500.837 236.11 132.579 500.765 236.365 132.168 
500.928 236.116 132.272 500.59 236.662 132.079 500.624 237.235 131.697 
500.764 237.001 132.021 499.361 237.983 132.869 490.558 240.554 131.926 
500.565 240.155 131.251 500.716 243.82 131.837 500.896 245.28 131.499 
501.124 245.837 132.125 501.178 247.394 131.671 501.388 246.974 132.153 
492.751 249.232 132.078 490.077 254.905 132.314 486.863 257.291 132.66 
486.072 258.439 131.968 486.082 258.672 132.229 485.857 259.202 132.505 
485.804 259.43 132.473 485.949 259.284 132.32 485.872 259.547 132.415 
485.82 259.617 132.543 485.955 259.758 132.509 486.298 260.126 132.613 
494.768 223.072 133.248 499.51 224.949 133.463 501.477 228.368 133.121 
501.188 235.523 133.038 499.254 236.89 134.017 500.905 236.213 132.435 
500.511 237.289 132.244 500.778 236.839 132.195 497.669 238.672 133.674 
500.444 238.064 132.149 500.556 238.383 131.947 495.599 240.477 133.61 
500.419 240.118 131.905 493.447 242.595 132.716 499.462 242.632 132.771 
500.046 243.532 132.641 493.178 245.863 132.234 498.309 244.231 133.453 
499.656 244.532 133.195 500.7 244.751 132.476 500.52 245.338 133.058 
501.65 247.245 133.002 493.447 248.239 132.906 501.936 248.071 133.328 
491.348 254.04 133.248 485.821 259.491 132.677 485.922 259.706 132.983 
486.437 260.6 132.972 486.446 260.802 133.274 486.412 260.844 133.627 
487.231 261.608 133.528 492.478 262.205 132.917 479.203 227.609 134.87 
502.793 232.848 134.341 501.381 235.243 133.988 496.596 238.276 134.827 
489.764 239.574 133.615 494.068 239.729 134.367 492.51 240.851 133.136 
494.434 244.877 133.065 496.898 244.984 133.709 495.84 246.121 133.846 
498.841 246.558 134.238 500.083 246.544 133.929 501.48 247.192 133.428 
502.106 248.237 133.787 502.173 248.884 133.963 493.181 251.655 134.099 
487.252 257.334 134.389 501.315 257.168 133.953 486.036 259.758 133.472 
486.429 260.883 133.985 487.24 262.024 134.456 487.53 262.396 134.452 
487.866 262.613 134.269 487.137 221.867 134.822 480.516 224.855 135.204 
479.287 226.131 135.612 479.06 228.811 135.079 503.07 230.937 134.731 
503.29 230.356 135.437 479.671 232.07 135.45 502.883 233.183 135.407 
501.061 235.418 135.189 495.066 238.674 135.672 491.164 239.542 135.188 
492.025 239.656 134.804 496.404 247.406 134.486 494.415 248.94 134.127 
495.034 248.55 134.411 497.733 247.815 134.864 502.476 250.148 134.852 
502.643 250.538 134.731 502.982 252.915 135.192 491.517 254.638 134.544 
502.326 255.412 134.368 502.809 256.211 135.259 502.367 257.498 135.048 
486.891 258.126 134.866 486.543 261.011 134.235 486.718 261.038 134.632 
487.204 261.765 134.923 488.127 262.968 135.208 488.877 263.653 135.381 
489.713 263.984 134.843 489.385 263.994 135.63 489.888 264.341 135.679 
490.2 264.477 135.534 492.461 264.974 135.574 480.932 223.738 136.053 
501.688 223.633 135.817 502.458 225.234 135.686 502.945 233.179 136.073 
502.344 234.227 135.593 487.838 239.134 135.825 490.375 239.463 136.292 
498.557 250.131 136.173 501.729 249.888 135.384 502.153 250.228 135.364 
495.19 251.264 135.808 503.308 254.086 136.163 503.017 256.484 135.77 
489.455 257.088 136.416 489.098 263.136 136.631 500.03 263.422 136.186 
501.1 263.138 136.614 488.951 263.636 135.734 497.186 264.438 135.711 
497.706 264.597 136.231 501.507 222.325 136.749 480.112 223.776 137.274 
479.964 223.787 137.72 502.138 222.97 136.818 479.063 225.813 136.694 
503.001 225.421 136.538 503.257 225.96 137.026 478.626 228.396 136.668 
502.494 233.769 136.89 484.274 238.124 137.434 495.823 250.82 135.916 
502.304 250.718 135.522 503.067 253.917 136.475 503.255 254.116 136.302 
503.163 254.52 136.54 503.135 256.331 136.845 488.343 257.592 136.207 
487.455 259.816 136.336 488.049 260.831 136.916 502.671 261.638 137.196 
489.668 263.089 137.298 499.003 264.23 136.459 501.029 263.714 137.373 
496.669 264.921 136.359 499.357 264.384 137.116 495.609 265.173 136.925 
493.395 265.501 136.733 493.663 265.521 136.77 481.807 221.062 138.587 
502.697 223.269 137.427 478.767 226.787 137.25 503.483 227.223 137.727 
479.985 233.468 137.921 490.942 239.553 137.975 502.001 253.06 137.109 
502.549 255.452 137.697 488.233 258.221 136.708 493.366 256.287 137.86 
487.762 258.897 136.568 489.477 258.032 137.402 489.79 258.376 137.825 
502.917 258.214 138.312 492.637 264.631 137.777 501.401 263.741 137.904 
499.497 264.408 137.577 495.227 265.147 137.432 498.925 264.583 137.725 
483.58 219.399 138.765 482.981 219.562 139.037 482.54 219.878 139.127 
502.584 221.739 138.936 502.772 222.148 138.813 503.108 223.276 138.806 
503.271 224.284 138.65 503.334 227.237 138.944 502.627 258.376 138.852 
488.771 259.487 137.579 489.559 260.075 138.237 491.823 263.877 138.148 
502.562 263.036 138.494 502.634 262.799 138.705 494.292 264.682 138.152 
502.09 263.468 138.489 497.6 264.415 138.691 498.641 264.543 138.128 
500.185 264.016 138.774 501.786 263.604 138.775 494.356 216.935 139.681 
498.733 217.962 139.635 481.975 220.146 139.88 501.595 220.178 139.219 
480.389 222.902 139.775 503.046 225.344 140.397 502.882 226.945 140.418 
479.001 230.564 140.105 479.266 231.825 139.848 501.294 234.328 139.069 
500.285 235.305 139.524 486.739 240.006 139.786 488.252 240.16 139.783 
494.273 257.924 139.406 501.752 257.867 139.412 491.897 258.155 138.72 
494.979 258.397 139.777 490.977 259.474 138.956 502.546 259.424 139.329 
502.736 261.182 139.284 493.355 263.077 139.104 495.736 262.615 139.865 
496.237 263.218 139.651 499.186 263.339 139.827 502.505 262.851 139.07 
499.562 263.562 139.637 500.834 263.451 139.534 501.088 263.649 139.225 
502.184 263.403 138.792 494.593 215.93 141.198 483.175 217.61 141.712 
482.948 218.532 140.725 481.886 220.072 140.635 502.209 219.255 141.229 
502.373 219.417 141.249 502.234 220.171 140.32 502.815 221.642 140.056 
480.41 234.49 141.333 500.684 258.124 139.922 500.856 259.159 140.179 
502.405 259.816 139.558 493.384 260.825 139.849 493.105 261.674 139.596 
495.267 261.783 140.051 498.556 262.171 140.323 500.81 262.184 140.197 
502.062 262.248 139.744 501.159 262.465 140.044 502.397 262.693 139.306 
485.931 215.511 142.112 487.399 215.446 141.783 491.262 215.399 141.553 
500.439 217.292 141.598 502.316 219.298 141.822 502.367 219.354 141.412 
481.59 221.086 142.558 502.76 221.509 141.503 501.014 232.714 141.809 
485.24 240.241 141.738 487.161 241.251 142.797 492.351 260.059 139.724 
492.696 259.93 139.803 501.501 259.752 140.072 495.74 260.948 140.319 
485.29 214.807 143.972 485.026 214.974 143.526 487.593 215.012 142.778 
488.248 214.897 143.286 493.03 215.031 142.999 495.319 215.594 142.396 
498.585 215.986 143.171 483.418 216.268 143.696 500.127 216.714 142.54 
502.332 219.244 142.605 502.217 219.025 143.144 499.52 234.706 143.327 
486.302 241.358 143.758 484.282 214.895 144.144 484.725 214.862 143.918 
486.911 214.848 144.129 483.486 215.611 144.541 499.406 216.215 143.516 
498.946 216.063 143.596 501.527 217.666 143.364 482.93 217.403 144.161 
502.057 218.574 143.333 484.403 240.345 144.395 485.944 241.363 144.423 
486.254 241.514 144.204 486.264 241.526 144.427 486.46 241.533 144.161 
486.964 241.465 144.211 486.353 241.572 144.287 483.82 214.489 145.167 
483.682 214.425 145.306 483.633 214.561 145.225 483.774 214.418 145.322 
[...]
POINT_DATA 2107
COLOR_SCALARS scalars 3
1 0.647059 0.823529 1 0.647059 0.823529 1 0.647059 0.823529 
1 0.647059 0.823529 1 0.647059 0.823529 
1 0.647059 0.823529 1 0.647059 0.823529 
1 0.647059 0.823529 1 0.647059 0.823529 
1 0.647059 0.823529 1 0.647059 0.823529 
1 0.647059 0.823529 1 0.647059 0.823529 
1 0.647059 0.823529 1 0.647059 0.823529 
1 0.647059 0.823529 1 0.647059 0.823529 
1 0.647059 0.823529 1 0.647059 0.823529 
1 0.647059 0.823529 1 0.647059 0.823529 
1 0.647059 0.823529 1 0.647059 0.823529 
1 0.647059 0.823529 1 0.647059 0.823529 
1 0.647059 0.823529 1 0.647059 0.823529 
1 0.647059 0.823529 1 0.647059 0.823529 
1 0.647059 0.823529 1 0.647059 0.823529 
1 0.647059 0.823529 1 0.647059 0.823529 
1 0.647059 0.823529 1 0.647059 0.823529 
1 0.647059 0.823529 1 0.647059 0.823529 
1 0.647059 0.823529 1 0.647059 0.823529 
1 0.647059 0.823529 1 0.647059 0.823529 
1 0.647059 0.823529 1 0.647059 0.823529 
1 0.647059 0.823529 1 0.647059 0.823529 
1 0.647059 0.823529 1 0.647059 0.823529 
1 0.647059 0.823529 1 0.647059 0.823529 
1 0.647059 0.823529 1 0.647059 0.823529 
1 0.647059 0.823529 1 0.647059 0.823529 
1 0.647059 0.823529 1 0.647059 0.823529 
1 0.647059 0.823529 1 0.647059 0.823529 
1 0.647059 0.823529 1 0.647059 0.823529 
1 0.647059 0.823529 1 0.647059 0.823529 
1 0.647059 0.823529 1 0.647059 0.823529 
1 0.647059 0.823529 1 0.647059 0.823529 
1 0.647059 0.823529 1 0.647059 0.823529 
1 0.647059 0.823529 1 0.647059 0.823529 
1 0.647059 0.823529 1 0.647059 0.823529 
1 0.647059 0.823529 1 0.647059 0.823529 
1 0.647059 0.823529 1 0.647059 0.823529 
1 0.647059 0.823529 1 0.647059 0.823529 
1 0.647059 0.823529 1 0.647059 0.823529 
1 0.647059 0.823529 1 0.647059 0.823529 
1 0.647059 0.823529 1 0.647059 0.823529 
1 0.647059 0.823529 1 0.647059 0.823529 
1 0.647059 0.823529 1 0.647059 0.823529 
1 0.647059 0.823529 1 0.647059 0.823529 
1 0.647059 0.823529 1 0.647059 0.823529 
1 0.647059 0.823529 1 0.647059 0.823529 
1 0.647059 0.823529 1 0.647059 0.823529 
1 0.647059 0.823529 1 0.647059 0.823529 
1 0.647059 0.823529 1 0.647059 0.823529 
1 0.647059 0.823529 1 0.647059 0.823529 
1 0.647059 0.823529 1 0.647059 0.823529 
1 0.647059 0.823529 1 0.647059 0.823529 
1 0.647059 0.823529 1 0.647059 0.823529 
1 0.647059 0.823529 1 0.647059 0.823529 
1 0.647059 0.823529 1 0.647059 0.823529 
1 0.647059 0.823529 1 0.647059 0.823529 
1 0.647059 0.823529 1 0.647059 0.823529 
1 0.647059 0.823529 1 0.647059 0.823529 
1 0.647059 0.823529 1 0.647059 0.823529 
1 0.647059 0.823529 1 0.647059 0.823529 
1 0.647059 0.823529 1 0.647059 0.823529 
1 0.647059 0.823529 1 0.647059 0.823529 
1 0.647059 0.823529 1 0.647059 0.823529 
1 0.647059 0.823529 1 0.647059 0.823529 
1 0.647059 0.823529 1 0.647059 0.823529 
1 0.647059 0.823529 1 0.647059 0.823529 
1 0.647059 0.823529 1 0.647059 0.823529 
1 0.647059 0.823529 1 0.647059 0.823529 
1 0.647059 0.823529 1 0.647059 0.823529 
1 0.647059 0.823529 1 0.647059 0.823529 
1 0.647059 0.823529 1 0.647059 0.823529 
1 0.647059 0.823529 1 0.647059 0.823529 
1 0.647059 0.823529 1 0.647059 0.823529 
1 0.647059 0.823529 1 0.647059 0.823529 
1 0.647059 0.823529 1 0.647059 0.823529 
1 0.647059 0.823529 1 0.647059 0.823529 
1 0.647059 0.823529 1 0.647059 0.823529 
1 0.647059 0.823529 1 0.647059 0.823529 
1 0.647059 0.823529 1 0.647059 0.823529 
1 0.647059 0.823529 1 0.647059 0.823529 
1 0.647059 0.823529 1 0.647059 0.823529 
1 0.647059 0.823529 1 0.647059 0.823529 
1 0.647059 0.823529 1 0.647059 0.823529 
1 0.647059 0.823529 1 0.647059 0.823529 
1 0.647059 0.823529 1 0.647059 0.823529 
1 0.647059 0.823529 1 0.647059 0.823529 
1 0.647059 0.823529 1 0.647059 0.823529 
1 0.647059 0.823529 1 0.647059 0.823529 
1 0.647059 0.823529 1 0.647059 0.823529 
1 0.647059 0.823529 1 0.647059 0.823529 
1 0.647059 0.823529 1 0.647059 0.823529 
1 0.647059 0.823529 1 0.647059 0.823529 
1 0.647059 0.823529 1 0.647059 0.823529 
1 0.647059 0.823529 1 0.647059 0.823529 
1 0.647059 0.823529 1 0.647059 0.823529 
1 0.647059 0.823529 1 0.647059 0.823529 
1 0.647059 0.823529 1 0.647059 0.823529 
1 0.647059 0.823529 1 0.647059 0.823529 
1 0.647059 0.823529 1 0.647059 0.823529 
1 0.647059 0.823529 1 0.647059 0.823529 
1 0.647059 0.823529 1 0.647059 0.823529 
1 0.647059 0.823529 1 0.647059 0.823529 
1 0.647059 0.823529 1 0.647059 0.823529 
1 0.647059 0.823529 1 0.647059 0.823529 
1 0.647059 0.823529 1 0.647059 0.823529 
1 0.647059 0.823529 1 0.647059 0.823529 
1 0.647059 0.823529 1 0.647059 0.823529 
1 0.647059 0.823529 1 0.647059 0.823529 
1 0.647059 0.823529 1 0.647059 0.823529 
1 0.647059 0.823529 1 0.647059 0.823529 
1 0.647059 0.823529 1 0.647059 0.823529 
1 0.647059 0.823529 1 0.647059 0.823529 
1 0.647059 0.823529 1 0.647059 0.823529 
1 0.647059 0.823529 1 0.647059 0.823529 
1 0.647059 0.823529 1 0.647059 0.823529 
1 0.647059 0.823529 1 0.647059 0.823529 
1 0.647059 0.823529 1 0.647059 0.823529 
1 0.647059 0.823529 1 0.647059 0.823529 
1 0.647059 0.823529 1 0.647059 0.823529 
1 0.647059 0.823529 1 0.647059 0.823529 
1 0.647059 0.823529 1 0.647059 0.823529 
1 0.647059 0.823529 1 0.647059 0.823529 
1 0.647059 0.823529 1 0.647059 0.823529 
1 0.647059 0.823529 1 0.647059 0.823529 
1 0.647059 0.823529 1 0.647059 0.823529 
1 0.647059 0.823529 1 0.647059 0.823529 
1 0.647059 0.823529 1 0.647059 0.823529 
1 0.647059 0.823529 1 0.647059 0.823529 
1 0.647059 0.823529 1 0.647059 0.823529 
1 0.647059 0.823529 1 0.647059 0.823529 
1 0.647059 0.823529 1 0.647059 0.823529 
1 0.647059 0.823529 1 0.647059 0.823529 
1 0.647059 0.823529 1 0.647059 0.823529 
1 0.647059 0.823529 1 0.647059 0.823529 
1 0.647059 0.823529 1 0.647059 0.823529 
1 0.647059 0.823529 1 0.647059 0.823529 
1 0.647059 0.823529 1 0.647059 0.823529 
1 0.647059 0.823529 1 0.647059 0.823529 
1 0.647059 0.823529 1 0.647059 0.823529 
1 0.647059 0.823529 1 0.647059 0.823529 
1 0.647059 0.823529 1 0.647059 0.823529 
1 0.647059 0.823529 1 0.647059 0.823529 
1 0.647059 0.823529 1 0.647059 0.823529 
1 0.647059 0.823529 1 0.647059 0.823529 
1 0.647059 0.823529 1 0.647059 0.823529 
1 0.647059 0.823529 1 0.647059 0.823529 
1 0.647059 0.823529 1 0.647059 0.823529 
1 0.647059 0.823529 1 0.647059 0.823529 
1 0.647059 0.823529 1 0.647059 0.823529 
1 0.647059 0.823529 1 0.647059 0.823529 
1 0.647059 0.823529 1 0.647059 0.823529 
1 0.647059 0.823529 1 0.647059 0.823529 
1 0.647059 0.823529 1 0.647059 0.823529 
1 0.647059 0.823529 1 0.647059 0.823529 
1 0.647059 0.823529 1 0.647059 0.823529 
1 0.647059 0.823529 1 0.647059 0.823529 
1 0.647059 0.823529 1 0.647059 0.823529 
1 0.647059 0.823529 1 0.647059 0.823529 
1 0.647059 0.823529 1 0.647059 0.823529 
1 0.647059 0.823529 1 0.647059 0.823529 
1 0.647059 0.823529 1 0.647059 0.823529 
1 0.647059 0.823529 1 0.647059 0.823529 
1 0.647059 0.823529 1 0.647059 0.823529 
1 0.647059 0.823529 1 0.647059 0.823529 
1 0.647059 0.823529 1 0.647059 0.823529 
1 0.647059 0.823529 1 0.647059 0.823529 
1 0.647059 0.823529 1 0.647059 0.823529 
1 0.647059 0.823529 1 0.647059 0.823529 
1 0.647059 0.823529 1 0.647059 0.823529 
1 0.647059 0.823529 1 0.647059 0.823529 
1 0.647059 0.823529 1 0.647059 0.823529 
1 0.647059 0.823529 1 0.647059 0.823529 
1 0.647059 0.823529 1 0.647059 0.823529 
1 0.647059 0.823529 1 0.647059 0.823529 
1 0.647059 0.823529 1 0.647059 0.823529 
1 0.647059 0.823529 1 0.647059 0.823529 
1 0.647059 0.823529 1 0.647059 0.823529 
1 0.647059 0.823529 1 0.647059 0.823529 
1 0.647059 0.823529 1 0.647059 0.823529 
1 0.647059 0.823529 1 0.647059 0.823529 
1 0.647059 0.823529 1 0.647059 0.823529 
1 0.647059 0.823529 1 0.647059 0.823529 
1 0.647059 0.823529 1 0.647059 0.823529 
1 0.647059 0.823529 1 0.647059 0.823529 
1 0.647059 0.823529 1 0.647059 0.823529 
1 0.647059 0.823529 1 0.647059 0.823529 
1 0.647059 0.823529 1 0.647059 0.823529 
1 0.647059 0.823529 1 0.647059 0.823529 
1 0.647059 0.823529 1 0.647059 0.823529 
1 0.647059 0.823529 1 0.647059 0.823529 
1 0.647059 0.823529 1 0.647059 0.823529 
1 0.647059 0.823529 1 0.647059 0.823529 
1 0.647059 0.823529 1 0.647059 0.823529 
1 0.647059 0.823529 1 0.647059 0.823529 
1 0.647059 0.823529 1 0.647059 0.823529 
1 0.647059 0.823529 1 0.647059 0.823529 
1 0.647059 0.823529 1 0.647059 0.823529 
1 0.647059 0.823529 1 0.647059 0.823529 
1 0.647059 0.823529 1 0.647059 0.823529 
1 0.647059 0.823529 1 0.647059 0.823529 
1 0.647059 0.823529 1 0.647059 0.823529 
1 0.647059 0.823529 1 0.647059 0.823529 
1 0.647059 0.823529 1 0.647059 0.823529 
1 0.647059 0.823529 1 0.647059 0.823529 
1 0.647059 0.823529 1 0.647059 0.823529 
1 0.647059 0.823529 1 0.647059 0.823529 
1 0.647059 0.823529 1 0.647059 0.823529 
1 0.647059 0.823529 1 0.647059 0.823529 
1 0.647059 0.823529 1 0.647059 0.823529 
1 0.647059 0.823529 1 0.647059 0.823529 
1 0.647059 0.823529 1 0.647059 0.823529 
1 0.647059 0.823529 1 0.647059 0.823529 
1 0.647059 0.823529 1 0.647059 0.823529 
1 0.647059 0.823529 1 0.647059 0.823529 
1 0.647059 0.823529 1 0.647059 0.823529 
1 0.647059 0.823529 1 0.647059 0.823529 
1 0.647059 0.823529 1 0.647059 0.823529 
1 0.647059 0.823529 1 0.647059 0.823529 
1 0.647059 0.823529 1 0.647059 0.823529 
1 0.647059 0.823529 1 0.647059 0.823529 
1 0.647059 0.823529 1 0.647059 0.823529 
1 0.647059 0.823529 1 0.647059 0.823529 
1 0.647059 0.823529 1 0.647059 0.823529 
1 0.647059 0.823529 1 0.647059 0.823529 
1 0.647059 0.823529 1 0.647059 0.823529 
1 0.647059 0.823529 1 0.647059 0.823529 
1 0.647059 0.823529 1 0.647059 0.823529 
1 0.647059 0.823529 1 0.647059 0.823529 
1 0.647059 0.823529 1 0.647059 0.823529 
1 0.647059 0.823529 1 0.647059 0.823529 
1 0.647059 0.823529 1 0.647059 0.823529 
1 0.647059 0.823529 1 0.647059 0.823529 
1 0.647059 0.823529 1 0.647059 0.823529 
1 0.647059 0.823529 1 0.647059 0.823529 
1 0.647059 0.823529 1 0.647059 0.823529 
1 0.647059 0.823529 1 0.647059 0.823529 
1 0.647059 0.823529 1 0.647059 0.823529 
1 0.647059 0.823529 1 0.647059 0.823529 
1 0.647059 0.823529 1 0.647059 0.823529 
1 0.647059 0.823529 1 0.647059 0.823529 
1 0.647059 0.823529 1 0.647059 0.823529 
1 0.647059 0.823529 1 0.647059 0.823529 
1 0.647059 0.823529 1 0.647059 0.823529 
1 0.647059 0.823529 1 0.647059 0.823529 
1 0.647059 0.823529 1 0.647059 0.823529 
1 0.647059 0.823529 1 0.647059 0.823529 
1 0.647059 0.823529 1 0.647059 0.823529 
1 0.647059 0.823529 1 0.647059 0.823529 
1 0.647059 0.823529 1 0.647059 0.823529 
1 0.647059 0.823529 1 0.647059 0.823529 
1 0.647059 0.823529 1 0.647059 0.823529 
1 0.647059 0.823529 1 0.647059 0.823529 
1 0.647059 0.823529 1 0.647059 0.823529 
1 0.647059 0.823529 1 0.647059 0.823529 
1 0.647059 0.823529 1 0.647059 0.823529 
1 0.647059 0.823529 1 0.647059 0.823529 
1 0.647059 0.823529 1 0.647059 0.823529 
1 0.647059 0.823529 1 0.647059 0.823529 
1 0.647059 0.823529 1 0.647059 0.823529 
1 0.647059 0.823529 1 0.647059 0.823529 
1 0.647059 0.823529 1 0.647059 0.823529 
1 0.647059 0.823529 1 0.647059 0.823529 
1 0.647059 0.823529 1 0.647059 0.823529 
1 0.647059 0.823529 1 0.647059 0.823529 
1 0.647059 0.823529 1 0.647059 0.823529 
1 0.647059 0.823529 1 0.647059 0.823529 
1 0.647059 0.823529 1 0.647059 0.823529 
1 0.647059 0.823529 1 0.647059 0.823529 
1 0.647059 0.823529 1 0.647059 0.823529 
1 0.647059 0.823529 1 0.647059 0.823529 
1 0.647059 0.823529 1 0.647059 0.823529 
1 0.647059 0.823529 1 0.647059 0.823529 
1 0.647059 0.823529 1 0.647059 0.823529 
1 0.647059 0.823529 1 0.647059 0.823529 
1 0.647059 0.823529 1 0.647059 0.823529 
1 0.647059 0.823529 1 0.647059 0.823529 
1 0.647059 0.823529 1 0.647059 0.823529 
1 0.647059 0.823529 1 0.647059 0.823529 
1 0.647059 0.823529 1 0.647059 0.823529 
1 0.647059 0.823529 1 0.647059 0.823529 
1 0.647059 0.823529 1 0.647059 0.823529 
1 0.647059 0.823529 1 0.647059 0.823529 
1 0.647059 0.823529 1 0.647059 0.823529 
1 0.647059 0.823529 1 0.647059 0.823529 
1 0.647059 0.823529 1 0.647059 0.823529 
1 0.647059 0.823529 1 0.647059 0.823529 
1 0.647059 0.823529 1 0.647059 0.823529 
1 0.647059 0.823529 1 0.647059 0.823529 
1 0.647059 0.823529 1 0.647059 0.823529 
1 0.647059 0.823529 1 0.647059 0.823529 
1 0.647059 0.823529 1 0.647059 0.823529 
1 0.647059 0.823529 1 0.647059 0.823529 
1 0.647059 0.823529 1 0.647059 0.823529 
1 0.647059 0.823529 1 0.647059 0.823529 
1 0.647059 0.823529 1 0.647059 0.823529 
1 0.647059 0.823529 1 0.647059 0.823529 
1 0.647059 0.823529 1 0.647059 0.823529 
1 0.647059 0.823529 1 0.647059 0.823529 
1 0.647059 0.823529 1 0.647059 0.823529 
1 0.647059 0.823529 1 0.647059 0.823529 
1 0.647059 0.823529 1 0.647059 0.823529 
1 0.647059 0.823529 1 0.647059 0.823529 
1 0.647059 0.823529 1 0.647059 0.823529 
1 0.647059 0.823529 1 0.647059 0.823529 
1 0.647059 0.823529 1 0.647059 0.823529 
1 0.647059 0.823529 1 0.647059 0.823529 
1 0.647059 0.823529 1 0.647059 0.823529 
1 0.647059 0.823529 1 0.647059 0.823529 
1 0.647059 0.823529 1 0.647059 0.823529 
1 0.647059 0.823529 1 0.647059 0.823529 
1 0.647059 0.823529 1 0.647059 0.823529 
1 0.647059 0.823529 1 0.647059 0.823529 
1 0.647059 0.823529 1 0.647059 0.823529 
1 0.647059 0.823529 1 0.647059 0.823529 
1 0.647059 0.823529 1 0.647059 0.823529 
1 0.647059 0.823529 1 0.647059 0.823529 
1 0.647059 0.823529 1 0.647059 0.823529 
1 0.647059 0.823529 1 0.647059 0.823529 
1 0.647059 0.823529 1 0.647059 0.823529 
1 0.647059 0.823529 1 0.647059 0.823529 
1 0.647059 0.823529 1 0.647059 0.823529 
1 0.647059 0.823529 1 0.647059 0.823529 
1 0.647059 0.823529 1 0.647059 0.823529 
1 0.647059 0.823529 1 0.647059 0.823529 
1 0.647059 0.823529 1 0.647059 0.823529 
1 0.647059 0.823529 1 0.647059 0.823529 
1 0.647059 0.823529 1 0.647059 0.823529 
1 0.647059 0.823529 1 0.647059 0.823529 
1 0.647059 0.823529 1 0.647059 0.823529 
1 0.647059 0.823529 1 0.647059 0.823529 
1 0.647059 0.823529 1 0.647059 0.823529 
1 0.647059 0.823529 1 0.647059 0.823529 
1 0.647059 0.823529 1 0.647059 0.823529 
1 0.647059 0.823529 1 0.647059 0.823529 
1 0.647059 0.823529 1 0.647059 0.823529 
1 0.647059 0.823529 1 0.647059 0.823529 
1 0.647059 0.823529 1 0.647059 0.823529 
1 0.647059 0.823529 1 0.647059 0.823529 
1 0.647059 0.823529 1 0.647059 0.823529 
1 0.647059 0.823529 1 0.647059 0.823529 
1 0.647059 0.823529 1 0.647059 0.823529 
1 0.647059 0.823529 1 0.647059 0.823529 
1 0.647059 0.823529 1 0.647059 0.823529 
1 0.647059 0.823529 1 0.647059 0.823529 
1 0.647059 0.823529 1 0.647059 0.823529 
1 0.647059 0.823529 1 0.647059 0.823529 
1 0.647059 0.823529 1 0.647059 0.823529 
1 0.647059 0.823529 1 0.647059 0.823529 
1 0.647059 0.823529 1 0.647059 0.823529 
1 0.647059 0.823529 1 0.647059 0.823529 
1 0.647059 0.823529 1 0.647059 0.823529 
1 0.647059 0.823529 1 0.647059 0.823529 
1 0.647059 0.823529 1 0.647059 0.823529 
1 0.647059 0.823529 1 0.647059 0.823529 
1 0.647059 0.823529 1 0.647059 0.823529 
1 0.647059 0.823529 1 0.647059 0.823529 
1 0.647059 0.823529 1 0.647059 0.823529 
1 0.647059 0.823529 1 0.647059 0.823529 
1 0.647059 0.823529 1 0.647059 0.823529 
1 0.647059 0.823529 1 0.647059 0.823529 
1 0.647059 0.823529 1 0.647059 0.823529 
1 0.647059 0.823529 1 0.647059 0.823529 
1 0.647059 0.823529 1 0.647059 0.823529 
1 0.647059 0.823529 1 0.647059 0.823529 
1 0.647059 0.823529 1 0.647059 0.823529 
1 0.647059 0.823529 1 0.647059 0.823529 
1 0.647059 0.823529 1 0.647059 0.823529 
1 0.647059 0.823529 1 0.647059 0.823529 
1 0.647059 0.823529 1 0.647059 0.823529 
1 0.647059 0.823529 1 0.647059 0.823529 
1 0.647059 0.823529 1 0.647059 0.823529 
1 0.647059 0.823529 1 0.647059 0.823529 
1 0.647059 0.823529 1 0.647059 0.823529 
1 0.647059 0.823529 1 0.647059 0.823529 
1 0.647059 0.823529 1 0.647059 0.823529 
1 0.647059 0.823529 1 0.647059 0.823529 
1 0.647059 0.823529 1 0.647059 0.823529 
1 0.647059 0.823529 1 0.647059 0.823529 
1 0.647059 0.823529 1 0.647059 0.823529 
1 0.647059 0.823529 1 0.647059 0.823529 
1 0.647059 0.823529 1 0.647059 0.823529 
1 0.647059 0.823529 1 0.647059 0.823529 
1 0.647059 0.823529 1 0.647059 0.823529 
1 0.647059 0.823529 1 0.647059 0.823529 
1 0.647059 0.823529 1 0.647059 0.823529 
1 0.647059 0.823529 1 0.647059 0.823529 
1 0.647059 0.823529 1 0.647059 0.823529 
1 0.647059 0.823529 1 0.647059 0.823529 
1 0.647059 0.823529 1 0.647059 0.823529 
1 0.647059 0.823529 1 0.647059 0.823529 
1 0.647059 0.823529 1 0.647059 0.823529 
1 0.647059 0.823529 1 0.647059 0.823529 
1 0.647059 0.823529 1 0.647059 0.823529 
1 0.647059 0.823529 1 0.647059 0.823529 
1 0.647059 0.823529 1 0.647059 0.823529 
1 0.647059 0.823529 1 0.647059 0.823529 
1 0.647059 0.823529 1 0.647059 0.823529 
1 0.647059 0.823529 1 0.647059 0.823529 
1 0.647059 0.823529 1 0.647059 0.823529 
1 0.647059 0.823529 1 0.647059 0.823529 
1 0.647059 0.823529 1 0.647059 0.823529 
1 0.647059 0.823529 1 0.647059 0.823529 
1 0.647059 0.823529 1 0.647059 0.823529 
1 0.647059 0.823529 1 0.647059 0.823529 
1 0.647059 0.823529 1 0.647059 0.823529 
1 0.647059 0.823529 1 0.647059 0.823529 
1 0.647059 0.823529 1 0.647059 0.823529 
1 0.647059 0.823529 1 0.647059 0.823529 
1 0.647059 0.823529 1 0.647059 0.823529 
1 0.647059 0.823529 1 0.647059 0.823529 
1 0.647059 0.823529 1 0.647059 0.823529 
1 0.647059 0.823529 1 0.647059 0.823529 
1 0.647059 0.823529 1 0.647059 0.823529 
1 0.647059 0.823529 1 0.647059 0.823529 
1 0.647059 0.823529 1 0.647059 0.823529 
1 0.647059 0.823529 1 0.647059 0.823529 
1 0.647059 0.823529 1 0.647059 0.823529 
1 0.647059 0.823529 1 0.647059 0.823529 
1 0.647059 0.823529 1 0.647059 0.823529 
1 0.647059 0.823529 1 0.647059 0.823529 
1 0.647059 0.823529 1 0.647059 0.823529 
1 0.647059 0.823529 1 0.647059 0.823529 
1 0.647059 0.823529 1 0.647059 0.823529 
1 0.647059 0.823529 1 0.647059 0.823529 
1 0.647059 0.823529 1 0.647059 0.823529 
1 0.647059 0.823529 1 0.647059 0.823529 
1 0.647059 0.823529 1 0.647059 0.823529 
1 0.647059 0.823529 1 0.647059 0.823529 
1 0.647059 0.823529 1 0.647059 0.823529 
1 0.647059 0.823529 1 0.647059 0.823529 
1 0.647059 0.823529 1 0.647059 0.823529 
1 0.647059 0.823529 1 0.647059 0.823529 
1 0.647059 0.823529 1 0.647059 0.823529 
1 0.647059 0.823529 1 0.647059 0.823529 
1 0.647059 0.823529 1 0.647059 0.823529 
1 0.647059 0.823529 1 0.647059 0.823529 
1 0.647059 0.823529 1 0.647059 0.823529 
1 0.647059 0.823529 1 0.647059 0.823529 
1 0.647059 0.823529 1 0.647059 0.823529 
1 0.647059 0.823529 1 0.647059 0.823529 
1 0.647059 0.823529 1 0.647059 0.823529 
1 0.647059 0.823529 1 0.647059 0.823529 
1 0.647059 0.823529 1 0.647059 0.823529 
1 0.647059 0.823529 1 0.647059 0.823529 
1 0.647059 0.823529 1 0.647059 0.823529 
1 0.647059 0.823529 1 0.647059 0.823529 
1 0.647059 0.823529 1 0.647059 0.823529 
1 0.647059 0.823529 1 0.647059 0.823529 
1 0.647059 0.823529 1 0.647059 0.823529 
1 0.647059 0.823529 1 0.647059 0.823529 
1 0.647059 0.823529 1 0.647059 0.823529 
1 0.647059 0.823529 1 0.647059 0.823529 
1 0.647059 0.823529 1 0.647059 0.823529 
1 0.647059 0.823529 1 0.647059 0.823529 
1 0.647059 0.823529 1 0.647059 0.823529 
1 0.647059 0.823529 1 0.647059 0.823529 
1 0.647059 0.823529 1 0.647059 0.823529 
1 0.647059 0.823529 1 0.647059 0.823529 
1 0.647059 0.823529 1 0.647059 0.823529 
1 0.647059 0.823529 1 0.647059 0.823529 
1 0.647059 0.823529 1 0.647059 0.823529 
1 0.647059 0.823529 1 0.647059 0.823529 
1 0.647059 0.823529 1 0.647059 0.823529 
1 0.647059 0.823529 1 0.647059 0.823529 
1 0.647059 0.823529 1 0.647059 0.823529 
1 0.647059 0.823529 1 0.647059 0.823529 
1 0.647059 0.823529 1 0.647059 0.823529 
1 0.647059 0.823529 1 0.647059 0.823529 
1 0.647059 0.823529 1 0.647059 0.823529 
1 0.647059 0.823529 1 0.647059 0.823529 
1 0.647059 0.823529 1 0.647059 0.823529 
1 0.647059 0.823529 1 0.647059 0.823529 
1 0.647059 0.823529 1 0.647059 0.823529 
1 0.647059 0.823529 1 0.647059 0.823529 
1 0.647059 0.823529 1 0.647059 0.823529 
1 0.647059 0.823529 1 0.647059 0.823529 
1 0.647059 0.823529 1 0.647059 0.823529 
1 0.647059 0.823529 1 0.647059 0.823529 
1 0.647059 0.823529 1 0.647059 0.823529 
1 0.647059 0.823529 1 0.647059 0.823529 
1 0.647059 0.823529 1 0.647059 0.823529 
1 0.647059 0.823529 1 0.647059 0.823529 
1 0.647059 0.823529 1 0.647059 0.823529 
1 0.647059 0.823529 1 0.647059 0.823529 
1 0.647059 0.823529 1 0.647059 0.823529 
1 0.647059 0.823529 1 0.647059 0.823529 