# vtk DataFile Version 4.2
vtk output
ASCII
DATASET POLYDATA
POINTS 1784 float
500.187 237.156 133.302 500.221 236.75 133.715 498.62 237.555 133.526 
500.782 237.69 133.01 501.137 237.466 133.155 498.847 238.149 133.056 
498.319 238.478 133.163 499.442 238.779 132.779 501.618 236.434 133.937 
502.585 236.646 134.002 499.609 236.848 133.771 502.298 237.125 133.644 
502.662 236.951 133.897 501.932 237.996 133.211 497.634 238.54 133.48 
495.749 240.316 133.684 497.038 240.68 133.136 502.826 239.582 133.496 
495.505 242.363 133.734 498.897 242.761 132.907 497.293 243.593 133.249 
502.509 243.024 133.519 501.569 244.695 133.515 501.965 236.201 134.409 
501.553 236.282 134.192 502.617 236.498 134.217 502.848 236.615 134.404 
502.987 237.221 134.108 497.185 237.669 134.504 495.201 239.169 134.626 
495.092 239.674 134.385 503.505 239.008 134.279 494.259 240.028 135.085 
503.226 240.142 133.826 503.547 240.717 134.22 503.227 244.341 134.321 
503.1 245.17 134.422 502.47 245.959 134.29 502.714 246.392 134.629 
501.965 236.151 134.723 502.635 236.422 134.524 502.896 236.641 134.674 
498.573 236.577 135.377 499.808 236.253 135.632 503.364 237.391 134.834 
503.368 237.317 135.188 503.541 237.991 134.764 503.541 237.766 135.174 
494.892 239.104 135.1 503.662 238.709 134.721 503.801 239.182 135.159 
503.772 241.292 134.665 503.897 240.929 135.148 503.676 243.141 134.688 
503.79 243.717 135.174 503.454 244.911 134.775 494.808 245.875 135.051 
503.548 245.452 135.236 495.11 246.976 135.348 503.219 246.69 135.29 
502.856 247.308 135.494 503.135 246.959 135.407 498.461 236.557 135.941 
503.208 237.137 135.411 497.113 237.123 136.5 503.835 239.659 135.643 
492.985 240.987 136.436 503.918 241.464 135.656 503.247 246.809 135.697 
501.912 248.245 135.573 502.937 247.532 136.062 500.818 236.347 136.416 
502.783 237.043 136.045 503.414 238.884 136.601 492.557 241.213 137.358 
492.449 242.457 137.087 494.087 249.195 137.168 502.969 247.597 136.618 
495.58 250.739 136.993 500.962 250.319 136.839 499.847 251.228 137.016 
501.723 250.166 137.526 501.868 236.839 136.783 496.936 237.243 137.889 
502.092 237.446 137.512 494.416 238.658 138.122 492.607 240.7 137.975 
502.319 248.571 138.409 501.612 250.824 138.357 501.003 251.51 137.955 
501.491 251.616 138.477 497.564 252.496 137.455 496.379 253.869 138.192 
494.958 266.596 139.598 494.693 266.407 139.651 494.723 266.66 139.768 
495.756 266.712 139.593 495.633 266.368 139.515 495.578 266.929 139.739 
496.015 266.913 139.748 498.967 236.663 137.863 497.562 237.196 138.598 
501.998 238.846 138.571 491.755 246.085 138.536 501.623 250.917 139.104 
501.454 251.675 138.647 500.78 252.946 138.803 499.645 255.194 139.195 
497.334 264.684 139.604 497.046 265.747 139.602 497.755 265.017 139.629 
497.944 265.561 139.717 499.118 265.121 139.909 500.26 265.585 140.287 
500.871 265.227 140.488 499.534 266.196 140.277 500.98 265.511 140.606 
494.173 266.834 140.388 494.736 266.952 140.131 495.392 267.146 140.067 
499.291 266.582 140.448 499.615 236.896 138.315 500.947 237.14 137.99 
493.679 239.245 140.07 491.681 241.498 139.957 491.662 241.224 140.618 
491.352 241.795 140.345 501.571 248.939 140.233 500.48 255.626 140.049 
500.035 256.571 140.103 496.527 262.898 139.898 499.419 264.088 140.088 
500.643 264.932 140.392 493.49 267.083 141.376 498.915 237.622 139.701 
500.166 238.881 140.347 500.706 239.201 140.107 490.602 248.788 139.954 
490.045 250.148 140.386 487.907 254.538 141.623 500.8 255.234 141.267 
500.695 256.454 141 500.315 257.132 140.592 500.775 257.343 141.195 
500.535 257.783 141.009 500.722 257.585 141.171 491.057 259.108 140.905 
499.63 258.621 140.578 499.216 259.328 140.55 495.704 260.437 140.153 
491.712 263.418 141.13 501.622 264.545 141.26 501.415 264.021 141.443 
502.067 264.999 141.526 492.516 265.613 140.989 502.008 265.162 141.417 
501.679 265.6 141.37 501.951 265.352 141.458 494.838 267.871 141.975 
496.726 238.319 141.065 492.234 240.397 141.699 500.78 257.146 141.292 
500.744 258.131 141.898 500.683 259.421 141.79 500.797 259.296 142.192 
500.4 260.071 141.452 498.239 260.944 140.387 499.679 261.175 140.89 
500.783 261.996 141.752 501.009 261.844 142.451 501.542 263.958 142.184 
502.072 264.867 141.673 502.058 264.93 141.836 502.115 265.052 141.691 
502.07 265.217 141.601 501.513 266.326 142.359 499.57 267.529 141.673 
499.971 267.475 141.929 498.81 238.72 141.076 498.132 239.353 142.212 
486.179 253.894 142.763 500.182 255.079 143.054 501.878 264.867 142.155 
490.923 265.486 142.405 501.802 265.524 142.257 501.641 265.97 142.936 
501.662 266.352 142.73 501.654 266.44 142.649 501.672 266.464 142.771 
501.291 266.847 143.085 501.589 266.527 142.76 500.883 267.413 143.443 
487.059 213.07 145.419 486.721 213.223 145.531 487.262 212.798 145.436 
491.341 213.346 144.921 490.806 212.711 145.11 492.42 213.264 144.915 
492.968 212.66 145.097 494.29 213.325 144.926 487.93 213.574 145.258 
491.372 213.898 144.856 491.746 214.22 144.868 497.321 214.07 145.143 
500.85 214.68 145.706 501 214.624 145.73 500.648 214.844 145.804 
498.086 239.818 142.815 493.743 239.668 143.607 498.192 240.699 143.639 
485.295 252.184 143.749 501.273 264.38 144.103 490.55 266.17 143.337 
501.6 266.446 142.965 501.488 266.388 143.536 501.318 266.918 144.061 
495.261 268.439 144.252 488.121 211.734 145.87 485.459 213.13 146.052 
493.744 212.304 145.282 499.374 213.22 145.909 485.522 213.339 146.066 
498.543 214.179 145.441 501.04 214.152 146.083 489.696 215.221 145.368 
501.098 214.656 145.78 501.072 214.524 145.844 501.136 214.625 145.861 
500.555 215.055 146.072 500.917 214.84 146.054 501.088 214.699 145.878 
501.318 265.632 144.458 488.797 266.918 145.731 501.043 267.613 145.274 
487.342 211.585 146.232 496.859 211.992 145.988 485.268 212.937 146.387 
485.219 213.114 146.321 485.509 212.632 146.392 500.344 213.099 146.408 
501.2 213.642 146.355 501.078 213.465 146.449 501.242 213.561 146.506 
485.305 213.293 146.307 485.56 213.613 146.251 485.335 213.455 146.661 
501.192 213.815 146.295 501.276 213.701 146.453 486.051 214.393 146.407 
501.11 214.567 146.095 501.186 214.278 146.59 487.809 215.97 146.459 
498.691 215.733 146.135 499.558 215.545 146.263 500.728 215.096 146.411 
500.853 215.093 146.785 492.299 239.766 146.546 492.976 239.791 146.159 
495.366 239.982 145.221 496.767 240.417 144.823 497.498 241.496 145.347 
497.142 241.208 145.583 498.131 244.743 145.602 482.499 263.626 146.063 
484.759 263.894 145.357 484.967 264.667 145.584 487.496 265.978 145.377 
487.072 266.646 146.25 501.018 267.036 145.885 488.662 267.316 146.608 
499.422 268.618 145.657 500.728 268.255 145.669 501.142 268.095 146.206 
501.421 268.484 146.603 501.359 268.51 146.667 485.292 212.004 147.396 
485.938 211.439 147.371 486.893 211.297 146.779 485.212 212.23 147.089 
485.105 212.24 147.262 485.056 212.303 147.142 485.586 212.192 146.733 
485.211 213.104 146.502 485.077 212.402 147.075 485.209 212.728 146.933 
485.261 213.429 147.237 487.532 216.817 147.647 489.582 217.916 147.367 
486.076 241.977 147.14 482.784 254.486 146.395 497.221 254.813 147.608 
480.648 265.687 147.689 484.725 265.622 146.237 485.405 265.571 145.939 
499.982 265.836 147.246 482.608 266.618 147.772 500.809 267.562 147.002 
485.249 267.108 147.746 496.689 268.593 146.577 501.036 267.903 146.747 
501.389 268.454 146.665 501.305 268.466 146.775 492.253 209.839 147.437 
485.071 212.391 147.182 485.197 212.338 147.549 500.827 212.782 147.418 
501.156 213.173 147.835 487.465 217.321 148.681 487.897 217.672 148.458 
489.589 239.872 147.787 491.892 239.449 148.118 496.07 240.795 146.57 
483.394 245.89 148.102 478.754 259.518 148.666 478.309 262.327 148.5 
479.999 266.095 148.458 480.07 266.697 149.088 480.68 266.88 149.041 
481.597 267.005 148.781 489.059 267.764 148.109 497.44 268.524 147.25 
501.169 268.418 146.95 504.004 270.013 148.009 504.004 270.013 148.009 
504.004 270.013 148.009 504.004 270.013 148.009 504.004 270.013 148.009 
486.059 211.059 148.948 499.221 209.931 149.487 501.349 213.77 148.634 
486.985 216.774 148.883 498.902 217.536 149.032 494.948 220.461 149.015 
487.976 239.988 148.882 494.157 239.887 147.997 496.249 242.312 148.669 
496.506 244.434 148.93 477.99 263.706 149.022 478.251 265.038 149.26 
478.42 265.391 149.35 498.968 265.536 148.407 479.679 266.694 149.646 
499.323 266.725 148.353 499.93 267.943 148.18 480.681 267.027 149.496 
482.066 267.233 149.29 495.497 268.225 148.379 498.956 268.266 148.169 
500.44 268.575 147.726 504.004 270.013 148.009 485.869 211.795 149.296 
500.887 211.947 149.251 486.922 216.682 149.504 488.16 218.467 150.248 
496.878 220.678 150.385 491.03 221.796 150.447 495.068 240.457 148.738 
494.89 240.251 149.614 481.131 253.894 149.849 479.751 256.555 150.45 
477.554 259.937 150.015 477.227 263.806 150.329 477.898 265.094 150.395 
478.382 265.646 150.104 478.666 265.973 150.383 498.346 266.304 149.208 
499.044 267.803 148.529 498.409 267.593 148.888 479.933 266.824 149.817 
481.001 267.087 149.837 488.249 267.583 149.489 499.8 268.292 148.223 
500.364 268.37 148.122 500.262 268.477 148.262 500.439 268.532 148.108 
500.208 268.534 148.11 487.929 209.01 151.108 486.331 212.449 150.479 
501.285 212.476 150.09 501.322 212.639 150.452 486.704 215.904 150.168 
487.436 217.224 150.67 487.71 217.791 150.464 488.824 219.669 151.238 
497.558 221.139 151.942 495.682 222.674 150.917 495.188 224.007 151.474 
492.334 238.264 150.871 493.46 238.908 150.354 483.071 244.848 150.659 
477.799 265.023 150.904 497.387 265.081 150 478.683 265.892 150.773 
497.223 265.839 150.155 497.786 266.448 149.658 478.981 266.173 150.565 
479.505 266.44 150.522 480.641 266.918 150.262 481.75 266.862 150.784 
485.39 267.017 150.773 488.805 267.406 150.134 493.38 267.169 150.711 
497.541 267.125 149.667 497.481 267.595 149.442 496.142 267.654 149.685 
500.444 268.534 148.282 500.408 268.522 148.312 500.412 268.566 148.279 
500.376 268.555 148.309 488.015 209.105 152.259 501.191 211.253 151.634 
[...]
POINT_DATA 1784
COLOR_SCALARS scalars 3
1 0.647059 0.823529 1 0.647059 0.823529 1 0.647059 0.823529 
1 0.647059 0.823529 1 0.647059 0.823529 
1 0.647059 0.823529 1 0.647059 0.823529 
1 0.647059 0.823529 1 0.647059 0.823529 
1 0.647059 0.823529 1 0.647059 0.823529 
1 0.647059 0.823529 1 0.647059 0.823529 
1 0.647059 0.823529 1 0.647059 0.823529 
1 0.647059 0.823529 1 0.647059 0.823529 
1 0.647059 0.823529 1 0.647059 0.823529 
1 0.647059 0.823529 1 0.647059 0.823529 
1 0.647059 0.823529 1 0.647059 0.823529 
1 0.647059 0.823529 1 0.647059 0.823529 
1 0.647059 0.823529 1 0.647059 0.823529 
1 0.647059 0.823529 1 0.647059 0.823529 
1 0.647059 0.823529 1 0.647059 0.823529 
1 0.647059 0.823529 1 0.647059 0.823529 
1 0.647059 0.823529 1 0.647059 0.823529 
1 0.647059 0.823529 1 0.647059 0.823529 
1 0.647059 0.823529 1 0.647059 0.823529 
1 0.647059 0.823529 1 0.647059 0.823529 
1 0.647059 0.823529 1 0.647059 0.823529 
1 0.647059 0.823529 1 0.647059 0.823529 
1 0.647059 0.823529 1 0.647059 0.823529 
1 0.647059 0.823529 1 0.647059 0.823529 
1 0.647059 0.823529 1 0.647059 0.823529 
1 0.647059 0.823529 1 0.647059 0.823529 
1 0.647059 0.823529 1 0.647059 0.823529 
1 0.647059 0.823529 1 0.647059 0.823529 
1 0.647059 0.823529 1 0.647059 0.823529 
1 0.647059 0.823529 1 0.647059 0.823529 
1 0.647059 0.823529 1 0.647059 0.823529 
1 0.647059 0.823529 1 0.647059 0.823529 
1 0.647059 0.823529 1 0.647059 0.823529 
1 0.647059 0.823529 1 0.647059 0.823529 
1 0.647059 0.823529 1 0.647059 0.823529 
1 0.647059 0.823529 1 0.647059 0.823529 
1 0.647059 0.823529 1 0.647059 0.823529 
1 0.647059 0.823529 1 0.647059 0.823529 
1 0.647059 0.823529 1 0.647059 0.823529 
1 0.647059 0.823529 1 0.647059 0.823529 
1 0.647059 0.823529 1 0.647059 0.823529 
1 0.647059 0.823529 1 0.647059 0.823529 
1 0.647059 0.823529 1 0.647059 0.823529 
1 0.647059 0.823529 1 0.647059 0.823529 
1 0.647059 0.823529 1 0.647059 0.823529 
1 0.647059 0.823529 1 0.647059 0.823529 
1 0.647059 0.823529 1 0.647059 0.823529 
1 0.647059 0.823529 1 0.647059 0.823529 
1 0.647059 0.823529 1 0.647059 0.823529 
1 0.647059 0.823529 1 0.647059 0.823529 
1 0.647059 0.823529 1 0.647059 0.823529 
1 0.647059 0.823529 1 0.647059 0.823529 
1 0.647059 0.823529 1 0.647059 0.823529 
1 0.647059 0.823529 1 0.647059 0.823529 
1 0.647059 0.823529 1 0.647059 0.823529 
1 0.647059 0.823529 1 0.647059 0.823529 
1 0.647059 0.823529 1 0.647059 0.823529 
1 0.647059 0.823529 1 0.647059 0.823529 
1 0.647059 0.823529 1 0.647059 0.823529 
1 0.647059 0.823529 1 0.647059 0.823529 
1 0.647059 0.823529 1 0.647059 0.823529 
1 0.647059 0.823529 1 0.647059 0.823529 
1 0.647059 0.823529 1 0.647059 0.823529 
1 0.647059 0.823529 1 0.647059 0.823529 
1 0.647059 0.823529 1 0.647059 0.823529 
1 0.647059 0.823529 1 0.647059 0.823529 
1 0.647059 0.823529 1 0.647059 0.823529 
1 0.647059 0.823529 1 0.647059 0.823529 
1 0.647059 0.823529 1 0.647059 0.823529 
1 0.647059 0.823529 1 0.647059 0.823529 
1 0.647059 0.823529 1 0.647059 0.823529 
1 0.647059 0.823529 1 0.647059 0.823529 
1 0.647059 0.823529 1 0.647059 0.823529 
1 0.647059 0.823529 1 0.647059 0.823529 
1 0.647059 0.823529 1 0.647059 0.823529 
1 0.647059 0.823529 1 0.647059 0.823529 
1 0.647059 0.823529 1 0.647059 0.823529 
1 0.647059 0.823529 1 0.647059 0.823529 
1 0.647059 0.823529 1 0.647059 0.823529 
1 0.647059 0.823529 1 0.647059 0.823529 
1 0.647059 0.823529 1 0.647059 0.823529 
1 0.647059 0.823529 1 0.647059 0.823529 
1 0.647059 0.823529 1 0.647059 0.823529 
1 0.647059 0.823529 1 0.647059 0.823529 
1 0.647059 0.823529 1 0.647059 0.823529 
1 0.647059 0.823529 1 0.647059 0.823529 
1 0.647059 0.823529 1 0.647059 0.823529 
1 0.647059 0.823529 1 0.647059 0.823529 
1 0.647059 0.823529 1 0.647059 0.823529 
1 0.647059 0.823529 1 0.647059 0.823529 
1 0.647059 0.823529 1 0.647059 0.823529 
1 0.647059 0.823529 1 0.647059 0.823529 
1 0.647059 0.823529 1 0.647059 0.823529 
1 0.647059 0.823529 1 0.647059 0.823529 
1 0.647059 0.823529 1 0.647059 0.823529 
1 0.647059 0.823529 1 0.647059 0.823529 
1 0.647059 0.823529 1 0.647059 0.823529 
1 0.647059 0.823529 1 0.647059 0.823529 
1 0.647059 0.823529 1 0.647059 0.823529 
1 0.647059 0.823529 1 0.647059 0.823529 
1 0.647059 0.823529 1 0.647059 0.823529 
1 0.647059 0.823529 1 0.647059 0.823529 
1 0.647059 0.823529 1 0.647059 0.823529 
1 0.647059 0.823529 1 0.647059 0.823529 
1 0.647059 0.823529 1 0.647059 0.823529 
1 0.647059 0.823529 1 0.647059 0.823529 
1 0.647059 0.823529 1 0.647059 0.823529 
1 0.647059 0.823529 1 0.647059 0.823529 
1 0.647059 0.823529 1 0.647059 0.823529 
1 0.647059 0.823529 1 0.647059 0.823529 
1 0.647059 0.823529 1 0.647059 0.823529 
1 0.647059 0.823529 1 0.647059 0.823529 
1 0.647059 0.823529 1 0.647059 0.823529 
1 0.647059 0.823529 1 0.647059 0.823529 
1 0.647059 0.823529 1 0.647059 0.823529 
1 0.647059 0.823529 1 0.647059 0.823529 
1 0.647059 0.823529 1 0.647059 0.823529 
1 0.647059 0.823529 1 0.647059 0.823529 
1 0.647059 0.823529 1 0.647059 0.823529 
1 0.647059 0.823529 1 0.647059 0.823529 
1 0.647059 0.823529 1 0.647059 0.823529 
1 0.647059 0.823529 1 0.647059 0.823529 
1 0.647059 0.823529 1 0.647059 0.823529 
1 0.647059 0.823529 1 0.647059 0.823529 
1 0.647059 0.823529 1 0.647059 0.823529 
1 0.647059 0.823529 1 0.647059 0.823529 
1 0.647059 0.823529 1 0.647059 0.823529 
1 0.647059 0.823529 1 0.647059 0.823529 
1 0.647059 0.823529 1 0.647059 0.823529 
1 0.647059 0.823529 1 0.647059 0.823529 
1 0.647059 0.823529 1 0.647059 0.823529 
1 0.647059 0.823529 1 0.647059 0.823529 
1 0.647059 0.823529 1 0.647059 0.823529 
1 0.647059 0.823529 1 0.647059 0.823529 
1 0.647059 0.823529 1 0.647059 0.823529 
1 0.647059 0.823529 1 0.647059 0.823529 
1 0.647059 0.823529 1 0.647059 0.823529 
1 0.647059 0.823529 1 0.647059 0.823529 
1 0.647059 0.823529 1 0.647059 0.823529 
1 0.647059 0.823529 1 0.647059 0.823529 
1 0.647059 0.823529 1 0.647059 0.823529 
1 0.647059 0.823529 1 0.647059 0.823529 
1 0.647059 0.823529 1 0.647059 0.823529 
1 0.647059 0.823529 1 0.647059 0.823529 
1 0.647059 0.823529 1 0.647059 0.823529 
1 0.647059 0.823529 1 0.647059 0.823529 
1 0.647059 0.823529 1 0.647059 0.823529 
1 0.647059 0.823529 1 0.647059 0.823529 
1 0.647059 0.823529 1 0.647059 0.823529 
1 0.647059 0.823529 1 0.647059 0.823529 
1 0.647059 0.823529 1 0.647059 0.823529 
1 0.647059 0.823529 1 0.647059 0.823529 
1 0.647059 0.823529 1 0.647059 0.823529 
1 0.647059 0.823529 1 0.647059 0.823529 
1 0.647059 0.823529 1 0.647059 0.823529 
1 0.647059 0.823529 1 0.647059 0.823529 
1 0.647059 0.823529 1 0.647059 0.823529 
1 0.647059 0.823529 1 0.647059 0.823529 
1 0.647059 0.823529 1 0.647059 0.823529 
1 0.647059 0.823529 1 0.647059 0.823529 
1 0.647059 0.823529 1 0.647059 0.823529 
1 0.647059 0.823529 1 0.647059 0.823529 
1 0.647059 0.823529 1 0.647059 0.823529 
1 0.647059 0.823529 1 0.647059 0.823529 
1 0.647059 0.823529 1 0.647059 0.823529 
1 0.647059 0.823529 1 0.647059 0.823529 
1 0.647059 0.823529 1 0.647059 0.823529 
1 0.647059 0.823529 1 0.647059 0.823529 
1 0.647059 0.823529 1 0.647059 0.823529 
1 0.647059 0.823529 1 0.647059 0.823529 
1 0.647059 0.823529 1 0.647059 0.823529 
1 0.647059 0.823529 1 0.647059 0.823529 
1 0.647059 0.823529 1 0.647059 0.823529 
1 0.647059 0.823529 1 0.647059 0.823529 
1 0.647059 0.823529 1 0.647059 0.823529 
1 0.647059 0.823529 1 0.647059 0.823529 
1 0.647059 0.823529 1 0.647059 0.823529 
1 0.647059 0.823529 1 0.647059 0.823529 
1 0.647059 0.823529 1 0.647059 0.823529 
1 0.647059 0.823529 1 0.647059 0.823529 
1 0.647059 0.823529 1 0.647059 0.823529 
1 0.647059 0.823529 1 0.647059 0.823529 
1 0.647059 0.823529 1 0.647059 0.823529 
1 0.647059 0.823529 1 0.647059 0.823529 
1 0.647059 0.823529 1 0.647059 0.823529 
1 0.647059 0.823529 1 0.647059 0.823529 
1 0.647059 0.823529 1 0.647059 0.823529 
1 0.647059 0.823529 1 0.647059 0.823529 
1 0.647059 0.823529 1 0.647059 0.823529 
1 0.647059 0.823529 1 0.647059 0.823529 
1 0.647059 0.823529 1 0.647059 0.823529 
1 0.647059 0.823529 1 0.647059 0.823529 
1 0.647059 0.823529 1 0.647059 0.823529 
1 0.647059 0.823529 1 0.647059 0.823529 
1 0.647059 0.823529 1 0.647059 0.823529 
1 0.647059 0.823529 1 0.647059 0.823529 
1 0.647059 0.823529 1 0.647059 0.823529 
1 0.647059 0.823529 1 0.647059 0.823529 
1 0.647059 0.823529 1 0.647059 0.823529 
1 0.647059 0.823529 1 0.647059 0.823529 
1 0.647059 0.823529 1 0.647059 0.823529 
1 0.647059 0.823529 1 0.647059 0.823529 
1 0.647059 0.823529 1 0.647059 0.823529 
1 0.647059 0.823529 1 0.647059 0.823529 
1 0.647059 0.823529 1 0.647059 0.823529 
1 0.647059 0.823529 1 0.647059 0.823529 
1 0.647059 0.823529 1 0.647059 0.823529 
1 0.647059 0.823529 1 0.647059 0.823529 
1 0.647059 0.823529 1 0.647059 0.823529 
1 0.647059 0.823529 1 0.647059 0.823529 
1 0.647059 0.823529 1 0.647059 0.823529 
1 0.647059 0.823529 1 0.647059 0.823529 
1 0.647059 0.823529 1 0.647059 0.823529 
1 0.647059 0.823529 1 0.647059 0.823529 
1 0.647059 0.823529 1 0.647059 0.823529 
1 0.647059 0.823529 1 0.647059 0.823529 
1 0.647059 0.823529 1 0.647059 0.823529 
1 0.647059 0.823529 1 0.647059 0.823529 
1 0.647059 0.823529 1 0.647059 0.823529 
1 0.647059 0.823529 1 0.647059 0.823529 
1 0.647059 0.823529 1 0.647059 0.823529 
1 0.647059 0.823529 1 0.647059 0.823529 
1 0.647059 0.823529 1 0.647059 0.823529 
1 0.647059 0.823529 1 0.647059 0.823529 
1 0.647059 0.823529 1 0.647059 0.823529 
1 0.647059 0.823529 1 0.647059 0.823529 
1 0.647059 0.823529 1 0.647059 0.823529 
1 0.647059 0.823529 1 0.647059 0.823529 
1 0.647059 0.823529 1 0.647059 0.823529 
1 0.647059 0.823529 1 0.647059 0.823529 
1 0.647059 0.823529 1 0.647059 0.823529 
1 0.647059 0.823529 1 0.647059 0.823529 
1 0.647059 0.823529 1 0.647059 0.823529 
1 0.647059 0.823529 1 0.647059 0.823529 
1 0.647059 0.823529 1 0.647059 0.823529 
1 0.647059 0.823529 1 0.647059 0.823529 
1 0.647059 0.823529 1 0.647059 0.823529 
1 0.647059 0.823529 1 0.647059 0.823529 
1 0.647059 0.823529 1 0.647059 0.823529 
1 0.647059 0.823529 1 0.647059 0.823529 
1 0.647059 0.823529 1 0.647059 0.823529 
1 0.647059 0.823529 1 0.647059 0.823529 
1 0.647059 0.823529 1 0.647059 0.823529 
1 0.647059 0.823529 1 0.647059 0.823529 
1 0.647059 0.823529 1 0.647059 0.823529 
1 0.647059 0.823529 1 0.647059 0.823529 
1 0.647059 0.823529 1 0.647059 0.823529 
1 0.647059 0.823529 1 0.647059 0.823529 
1 0.647059 0.823529 1 0.647059 0.823529 
1 0.647059 0.823529 1 0.647059 0.823529 
1 0.647059 0.823529 1 0.647059 0.823529 
1 0.647059 0.823529 1 0.647059 0.823529 
1 0.647059 0.823529 1 0.647059 0.823529 
1 0.647059 0.823529 1 0.647059 0.823529 
1 0.647059 0.823529 1 0.647059 0.823529 
1 0.647059 0.823529 1 0.647059 0.823529 
1 0.647059 0.823529 1 0.647059 0.823529 
1 0.647059 0.823529 1 0.647059 0.823529 
1 0.647059 0.823529 1 0.647059 0.823529 
1 0.647059 0.823529 1 0.647059 0.823529 
1 0.647059 0.823529 1 0.647059 0.823529 
1 0.647059 0.823529 1 0.647059 0.823529 
1 0.647059 0.823529 1 0.647059 0.823529 
1 0.647059 0.823529 1 0.647059 0.823529 
1 0.647059 0.823529 1 0.647059 0.823529 
1 0.647059 0.823529 1 0.647059 0.823529 
1 0.647059 0.823529 1 0.647059 0.823529 
1 0.647059 0.823529 1 0.647059 0.823529 
1 0.647059 0.823529 1 0.647059 0.823529 
1 0.647059 0.823529 1 0.647059 0.823529 
1 0.647059 0.823529 1 0.647059 0.823529 
1 0.647059 0.823529 1 0.647059 0.823529 
1 0.647059 0.823529 1 0.647059 0.823529 
1 0.647059 0.823529 1 0.647059 0.823529 
1 0.647059 0.823529 1 0.647059 0.823529 
1 0.647059 0.823529 1 0.647059 0.823529 
1 0.647059 0.823529 1 0.647059 0.823529 
1 0.647059 0.823529 1 0.647059 0.823529 
1 0.647059 0.823529 1 0.647059 0.823529 
1 0.647059 0.823529 1 0.647059 0.823529 
1 0.647059 0.823529 1 0.647059 0.823529 
1 0.647059 0.823529 1 0.647059 0.823529 
1 0.647059 0.823529 1 0.647059 0.823529 
1 0.647059 0.823529 1 0.647059 0.823529 
1 0.647059 0.823529 1 0.647059 0.823529 
1 0.647059 0.823529 1 0.647059 0.823529 
1 0.647059 0.823529 1 0.647059 0.823529 
1 0.647059 0.823529 1 0.647059 0.823529 
1 0.647059 0.823529 1 0.647059 0.823529 
1 0.647059 0.823529 1 0.647059 0.823529 
1 0.647059 0.823529 1 0.647059 0.823529 
1 0.647059 0.823529 1 0.647059 0.823529 
1 0.647059 0.823529 1 0.647059 0.823529 
1 0.647059 0.823529 1 0.647059 0.823529 
1 0.647059 0.823529 1 0.647059 0.823529 
1 0.647059 0.823529 1 0.647059 0.823529 
1 0.647059 0.823529 1 0.647059 0.823529 
1 0.647059 0.823529 1 0.647059 0.823529 
1 0.647059 0.823529 1 0.647059 0.823529 
1 0.647059 0.823529 1 0.647059 0.823529 
1 0.647059 0.823529 1 0.647059 0.823529 
1 0.647059 0.823529 1 0.647059 0.823529 
1 0.647059 0.823529 1 0.647059 0.823529 
1 0.647059 0.823529 1 0.647059 0.823529 
1 0.647059 0.823529 1 0.647059 0.823529 
1 0.647059 0.823529 1 0.647059 0.823529 
1 0.647059 0.823529 1 0.647059 0.823529 
1 0.647059 0.823529 1 0.647059 0.823529 
1 0.647059 0.823529 1 0.647059 0.823529 
1 0.647059 0.823529 1 0.647059 0.823529 
1 0.647059 0.823529 1 0.647059 0.823529 
1 0.647059 0.823529 1 0.647059 0.823529 
1 0.647059 0.823529 1 0.647059 0.823529 
1 0.647059 0.823529 1 0.647059 0.823529 
1 0.647059 0.823529 1 0.647059 0.823529 
1 0.647059 0.823529 1 0.647059 0.823529 
1 0.647059 0.823529 1 0.647059 0.823529 
1 0.647059 0.823529 1 0.647059 0.823529 
1 0.647059 0.823529 1 0.647059 0.823529 
1 0.647059 0.823529 1 0.647059 0.823529 
1 0.647059 0.823529 1 0.647059 0.823529 
1 0.647059 0.823529 1 0.647059 0.823529 
1 0.647059 0.823529 1 0.647059 0.823529 
1 0.647059 0.823529 1 0.647059 0.823529 
1 0.647059 0.823529 1 0.647059 0.823529 
1 0.647059 0.823529 1 0.647059 0.823529 
1 0.647059 0.823529 1 0.647059 0.823529 
1 0.647059 0.823529 1 0.647059 0.823529 
1 0.647059 0.823529 1 0.647059 0.823529 
1 0.647059 0.823529 1 0.647059 0.823529 
1 0.647059 0.823529 1 0.647059 0.823529 
1 0.647059 0.823529 1 0.647059 0.823529 
1 0.647059 0.823529 1 0.647059 0.823529 
1 0.647059 0.823529 1 0.647059 0.823529 
1 0.647059 0.823529 1 0.647059 0.823529 
1 0.647059 0.823529 1 0.647059 0.823529 
1 0.647059 0.823529 1 0.647059 0.823529 
1 0.647059 0.823529 1 0.647059 0.823529 
1 0.647059 0.823529 1 0.647059 0.823529 
1 0.647059 0.823529 1 0.647059 0.823529 
1 0.647059 0.823529 1 0.647059 0.823529 
1 0.647059 0.823529 1 0.647059 0.823529 
1 0.647059 0.823529 1 0.647059 0.823529 
1 0.647059 0.823529 1 0.647059 0.823529 
1 0.647059 0.823529 1 0.647059 0.823529 
1 0.647059 0.823529 1 0.647059 0.823529 
1 0.647059 0.823529 1 0.647059 0.823529 
1 0.647059 0.823529 1 0.647059 0.823529 
1 0.647059 0.823529 1 0.647059 0.823529 
1 0.647059 0.823529 1 0.647059 0.823529 
1 0.647059 0.823529 1 0.647059 0.823529 
1 0.647059 0.823529 1 0.647059 0.823529 
1 0.647059 0.823529 1 0.647059 0.823529 
1 0.647059 0.823529 1 0.647059 0.823529 
1 0.647059 0.823529 1 0.647059 0.823529 
1 0.647059 0.823529 1 0.647059 0.823529 
1 0.647059 0.823529 1 0.647059 0.823529 
1 0.647059 0.823529 1 0.647059 0.823529 
1 0.647059 0.823529 1 0.647059 0.823529 
1 0.647059 0.823529 1 0.647059 0.823529 
1 0.647059 0.823529 1 0.647059 0.823529 
1 0.647059 0.823529 1 0.647059 0.823529 
1 0.647059 0.823529 1 0.647059 0.823529 
1 0.647059 0.823529 1 0.647059 0.823529 
1 0.647059 0.823529 1 0.647059 0.823529 
1 0.647059 0.823529 1 0.647059 0.823529 
1 0.647059 0.823529 1 0.647059 0.823529 
1 0.647059 0.823529 1 0.647059 0.823529 
1 0.647059 0.823529 1 0.647059 0.823529 
1 0.647059 0.823529 1 0.647059 0.823529 
1 0.647059 0.823529 1 0.647059 0.823529 
1 0.647059 0.823529 1 0.647059 0.823529 
1 0.647059 0.823529 1 0.647059 0.823529 
1 0.647059 0.823529 1 0.647059 0.823529 
1 0.647059 0.823529 1 0.647059 0.823529 
1 0.647059 0.823529 1 0.647059 0.823529 
1 0.647059 0.823529 1 0.647059 0.823529 
1 0.647059 0.823529 1 0.647059 0.823529 
1 0.647059 0.823529 1 0.647059 0.823529 
1 0.647059 0.823529 1 0.647059 0.823529 
1 0.647059 0.823529 1 0.647059 0.823529 
1 0.647059 0.823529 1 0.647059 0.823529 
1 0.647059 0.823529 1 0.647059 0.823529 
1 0.647059 0.823529 1 0.647059 0.823529 
1 0.647059 0.823529 1 0.647059 0.823529 
1 0.647059 0.823529 1 0.647059 0.823529 
1 0.647059 0.823529 1 0.647059 0.823529 
1 0.647059 0.823529 1 0.647059 0.823529 
1 0.647059 0.823529 1 0.647059 0.823529 
1 0.647059 0.823529 1 0.647059 0.823529 
1 0.647059 0.823529 1 0.647059 0.823529 
1 0.647059 0.823529 1 0.647059 0.823529 
1 0.647059 0.823529 1 0.647059 0.823529 
1 0.647059 0.823529 1 0.647059 0.823529 
1 0.647059 0.823529 1 0.647059 0.823529 
1 0.647059 0.823529 1 0.647059 0.823529 
1 0.647059 0.823529 1 0.647059 0.823529 
1 0.647059 0.823529 1 0.647059 0.823529 
1 0.647059 0.823529 1 0.647059 0.823529 
1 0.647059 0.823529 1 0.647059 0.823529 
1 0.647059 0.823529 1 0.647059 0.823529 
1 0.647059 0.823529 1 0.647059 0.823529 
1 0.647059 0.823529 1 0.647059 0.823529 
1 0.647059 0.823529 1 0.647059 0.823529 
1 0.647059 0.823529 1 0.647059 0.823529 
1 0.647059 0.823529 1 0.647059 0.823529 
1 0.647059 0.823529 1 0.647059 0.823529 
1 0.647059 0.823529 1 0.647059 0.823529 
1 0.647059 0.823529 1 0.647059 0.823529 
1 0.647059 0.823529 1 0.647059 0.823529 
1 0.647059 0.823529 1 0.647059 0.823529 
1 0.647059 0.823529 1 0.647059 0.823529 
1 0.647059 0.823529 1 0.647059 0.823529 
1 0.647059 0.823529 1 0.647059 0.823529 
1 0.647059 0.823529 1 0.647059 0.823529 
1 0.647059 0.823529 1 0.647059 0.823529 
1 0.647059 0.823529 1 0.647059 0.823529 
1 0.647059 0.823529 1 0.647059 0.823529 
1 0.647059 0.823529 1 0.647059 0.823529 
1 0.647059 0.823529 1 0.647059 0.823529 
1 0.647059 0.823529 1 0.647059 0.823529 
1 0.647059 0.823529 1 0.647059 0.823529 
1 0.647059 0.823529 1 0.647059 0.823529 
1 0.647059 0.823529 1 0.647059 0.823529 
1 0.647059 0.823529 1 0.647059 0.823529 
1 0.647059 0.823529 1 0.647059 0.823529 
1 0.647059 0.823529 1 0.647059 0.823529 
1 0.647059 0.823529 1 0.647059 0.823529 
1 0.647059 0.823529 1 0.647059 0.823529 
1 0.647059 0.823529 1 0.647059 0.823529 
1 0.647059 0.823529 1 0.647059 0.823529 
1 0.647059 0.823529 1 0.647059 0.823529 
1 0.647059 0.823529 1 0.647059 0.823529 
1 0.647059 0.823529 1 0.647059 0.823529 
1 0.647059 0.823529 1 0.647059 0.823529 
1 0.647059 0.823529 1 0.647059 0.823529 
1 0.647059 0.823529 1 0.647059 0.823529 
1 0.647059 0.823529 1 0.647059 0.823529 
1 0.647059 0.823529 1 0.647059 0.823529 
1 0.647059 0.823529 1 0.647059 0.823529 
1 0.647059 0.823529 1 0.647059 0.823529 
1 0.647059 0.823529 1 0.647059 0.823529 
1 0.647059 0.823529 1 0.647059 0.823529 
1 0.647059 0.823529 1 0.647059 0.823529 
1 0.647059 0.823529 1 0.647059 0.823529 
1 0.647059 0.823529 1 0.647059 0.823529 
1 0.647059 0.823529 1 0.647059 0.823529 
1 0.647059 0.823529 1 0.647059 0.823529 
1 0.647059 0.823529 1 0.647059 0.823529 
1 0.647059 0.823529 1 0.647059 0.823529 
1 0.647059 0.823529 1 0.647059 0.823529 
1 0.647059 0.823529 1 0.647059 0.823529 
1 0.647059 0.823529 1 0.647059 0.823529 
1 0.647059 0.823529 1 0.647059 0.823529 
1 0.647059 0.823529 1 0.647059 0.823529 
1 0.647059 0.823529 1 0.647059 0.823529 
1 0.647059 0.823529 1 0.647059 0.823529 
1 0.647059 0.823529 1 0.647059 0.823529 
1 0.647059 0.823529 1 0.647059 0.823529 
1 0.647059 0.823529 1 0.647059 0.823529 
1 0.647059 0.823529 1 0.647059 0.823529 
1 0.647059 0.823529 1 0.647059 0.823529 
1 0.647059 0.823529 1 0.647059 0.823529 
1 0.647059 0.823529 1 0.647059 0.823529 
1 0.647059 0.823529 1 0.647059 0.823529 
1 0.647059 0.823529 1 0.647059 0.823529 
1 0.647059 0.823529 1 0.647059 0.823529 
1 0.647059 0.823529 1 0.647059 0.823529 
1 0.647059 0.823529 1 0.647059 0.823529 
1 0.647059 0.823529 1 0.647059 0.823529 
1 0.647059 0.823529 1 0.647059 0.823529 
1 0.647059 0.823529 1 0.647059 0.823529 
1 0.647059 0.823529 1 0.647059 0.823529 
1 0.647059 0.823529 1 0.647059 0.823529 
1 0.647059 0.823529 1 0.647059 0.823529 
1 0.647059 0.823529 1 0.647059 0.823529 
1 0.647059 0.823529 1 0.647059 0.823529 
1 0.647059 0.823529 1 0.647059 0.823529 
1 0.647059 0.823529 1 0.647059 0.823529 
1 0.647059 0.823529 1 0.647059 0.823529 
1 0.647059 0.823529 1 0.647059 0.823529 
1 0.647059 0.823529 1 0.647059 0.823529 
1 0.647059 0.823529 1 0.647059 0.823529 
1 0.647059 0.823529 1 0.647059 0.823529 
1 0.647059 0.823529 1 0.647059 0.823529 
1 0.647059 0.823529 1 0.647059 0.823529 