# vtk DataFile Version 4.2
vtk output
ASCII
DATASET POLYDATA
POINTS 744 float
217.993 45.5668 130.296 217.868 45.505 130.371 217.909 45.6135 130.264 
216.961 46.3987 130.005 216.713 46.5962 129.993 217.248 46.4058 130.037 
217.132 46.0794 130.163 217.989 45.6941 130.323 217.611 46.2865 130.212 
217.048 46.6636 129.992 217.659 45.7558 130.284 218.221 45.354 130.817 
215.358 47.1282 130.323 215.831 47.3685 130.182 218.311 45.0353 131.098 
218.241 44.8617 131.329 218.144 44.9165 131.154 218.431 44.9368 131.314 
216.767 45.1288 131.13 217.85 45.0326 131.035 218.465 45.2501 131.072 
218.53 45.0793 131.241 215.77 45.6556 130.969 218.473 45.6187 131.131 
213.256 47.1676 131.335 213.41 47.5633 131.145 213.75 47.7231 130.962 
216.735 48.8165 130.673 219.119 54.8867 131.571 219.183 55.084 131.566 
219.572 55.9441 131.576 220.091 56.1907 131.578 220.272 56.0231 131.698 
220.406 56.3063 131.705 220.25 56.5784 131.564 220.468 56.6533 131.779 
219.789 56.7719 131.659 220.386 56.7777 131.582 220.368 56.8621 131.577 
220.037 56.8711 131.691 220.279 56.8973 131.689 218.023 44.8449 131.305 
218.333 44.858 131.599 218.528 44.9848 131.478 215.596 45.2769 131.475 
218.603 45.1419 131.43 211.889 47.3013 132.201 218.63 46.5269 131.782 
212.198 47.9053 131.794 212.33 48.1218 131.729 213.378 48.0513 131.203 
218.2 47.5143 131.178 215.022 50.2892 131.348 217.151 50.4243 131.393 
216.126 50.8359 131.427 218.18 54.0973 131.698 219.072 54.0356 131.969 
218.426 54.6771 131.661 219.513 55.294 131.666 218.982 55.3604 131.601 
220.411 56.058 131.78 220.578 56.5693 131.999 220.624 56.4357 132.199 
218.835 56.5466 131.992 219.368 56.6201 131.78 220.407 56.8378 131.661 
220.356 56.855 131.896 220.474 56.7012 132.248 220.045 56.9529 132.014 
217.477 44.5895 132.583 215.075 44.8049 132.598 218.625 45.6515 132.285 
213.055 45.8577 132.487 218.419 49.8812 132.2 216.744 51.5384 131.655 
217.599 52.2171 131.842 218.227 51.0082 132.104 216.673 52.7072 131.886 
218.297 52.5225 132.065 216.154 53.6951 132.286 216.541 54.78 132.41 
220.186 55.3246 132.152 220.619 56.2184 132.127 216.663 55.9974 132.937 
216.891 56.2373 132.926 217.775 56.0225 132.173 219.986 56.9913 132.438 
218.015 44.8374 133.117 218.815 46.5408 132.86 200.544 51.6316 134.791 
200.747 51.5821 134.902 198.991 52.5666 134.452 198.917 52.292 134.579 
199.43 52.6116 134.417 200.55 51.8371 134.764 198.063 52.998 134.647 
197.743 52.9005 134.892 197.844 53.1537 134.722 199.5 52.9406 134.414 
213.982 53.0181 133.224 220.431 55.1978 133.323 216.604 56.2524 133.26 
220.56 56.4463 133.021 220.41 56.5482 133.303 218.228 57.1566 133.499 
218.65 57.1485 133.247 217.564 44.4048 134.178 216.817 44.1472 134.768 
218.268 45.12 133.451 218.461 45.6161 134.374 200.042 51.8891 134.736 
199.056 52.0358 134.739 200.4 52.446 134.692 197.246 53.6014 135.109 
197.537 52.7272 135.181 219.811 52.4252 134.133 197.92 54.0198 134.77 
213.6 54.0877 134.384 197.786 54.3959 134.91 200.197 54.3485 135.067 
220.426 55.1797 134.264 215.415 55.9878 134.477 220.509 56.1959 133.699 
216.445 56.7159 134.247 216.549 43.9029 135.477 217.521 44.4832 134.698 
207.682 47.696 135.438 205.835 48.4639 136.056 206.027 49.625 135.605 
202.092 50.6109 135.678 207.715 49.7521 135.057 209.186 50.1518 134.478 
200.442 50.8114 135.652 210.498 51.4368 134.512 202.652 51.8828 135.517 
196.522 53.8817 135.834 197.013 52.9059 135.718 196.591 54.5778 135.719 
196.7 54.8094 135.684 199.263 55.5832 135.621 220.437 55.9183 134.077 
197.973 56.0195 135.805 215.69 56.6742 135.462 219.916 56.0346 135.624 
216.556 57.0598 135.069 219.355 56.7493 135.233 217.041 57.1769 134.968 
215.977 43.7211 135.873 214.996 43.6992 136.195 206.72 47.4775 136.311 
204.87 48.9785 136.154 205.029 48.3371 136.573 200.903 49.9901 136.495 
200.465 50.3781 136.158 207.146 50.3451 135.437 204.994 51.145 135.945 
206.594 50.9587 135.848 208.49 51.0776 135.363 197.601 52.0905 135.79 
204.613 51.4733 136.019 220.251 54.9952 135.954 196.598 55.6661 136.285 
219.577 56.4272 135.7 219.856 55.7491 136.351 198.328 56.7507 136.63 
213.374 43.9949 136.275 217.073 44.2721 137.2 217.821 44.9725 136.455 
204.896 47.837 137.319 202.032 49.2815 136.904 199.941 50.2651 136.837 
207.103 51.5204 136.136 206.708 52.0148 136.658 209.061 52.3539 136.281 
196.039 53.6629 136.691 196.069 53.5283 137.023 195.892 53.8029 136.882 
204.317 52.6314 136.757 195.831 54.0084 136.911 195.881 54.217 136.831 
196.012 54.624 136.987 196.516 56.0043 136.824 196.626 56.3151 136.978 
218.57 56.7327 136.821 219.257 55.9953 137.312 199.047 56.7355 136.9 
217.53 57.2387 135.969 217.509 57.15 136.538 197.468 57.3545 137.754 
198.957 56.9301 137.352 197.77 57.3759 137.843 214.944 43.458 138.352 
215.71 43.5737 137.944 216.143 43.7505 138.345 205.997 46.9275 138.173 
205.524 47.2911 137.747 201.443 49.256 137.47 201.472 49.1143 138.078 
197.882 51.3834 137.987 197.094 52.1227 137.375 197.109 52.0617 137.86 
196.05 53.7414 137.381 195.866 54.1951 137.051 219.954 54.1254 138.542 
196.258 55.5045 137.672 201.002 55.5518 137.496 196.405 55.9947 137.599 
196.913 56.9219 137.616 214.845 56.8995 138.283 197.261 57.3433 137.87 
197.199 57.3401 138.051 216.047 43.7751 139.16 209.691 45.0452 138.362 
207.534 46.1481 138.196 203.363 48.087 138.723 200.977 49.3564 138.807 
197.374 51.8027 138.087 196.915 52.6154 138.409 220.167 51.8256 139.057 
206.379 53.1608 138.538 207.423 53.0919 138.171 203.605 53.9051 138.648 
204.364 53.6491 139.177 210.088 54.1544 138.358 219.631 54.4314 139.388 
196.431 55.8207 138.041 196.574 56.3085 137.953 200.25 56.1689 138.229 
217.03 56.8971 138.002 196.969 56.7491 138.496 214.155 56.9428 139.408 
197.066 57.1954 138.14 198.084 57.2765 138.609 214.637 57.0657 139.115 
197.261 57.3161 138.266 215.618 43.4958 139.63 207.315 46.2816 139.718 
202.945 48.3261 139.298 199.103 50.5684 139.061 197.026 52.8909 138.852 
207.406 53.4707 139.407 220.104 52.8292 140.249 219.836 53.6823 140.285 
197.066 56.4601 138.813 200.19 55.6805 139.626 197.783 56.9893 138.983 
213.666 56.9152 140.209 213.963 57.0329 139.92 214.119 57.0386 139.89 
214.498 56.9743 139.954 197.535 56.9258 138.953 213.993 57.0638 140.01 
215.026 43.5713 140.364 213.273 43.7817 140.37 211.1 44.459 139.854 
218.731 47.8354 140.217 202.437 48.7362 139.683 199.475 50.7348 139.991 
219.733 50.0724 140.414 197.805 52.7117 139.749 206.079 53.3909 139.565 
198.234 53.6139 140.317 203.282 53.8542 140.261 203.921 53.379 140.8 
205.059 53.3388 140.53 208.977 54.0988 140.645 198.323 54.1415 140.374 
198.769 54.2964 140.589 198.958 54.9261 140.446 200.698 54.9347 140.463 
217.808 55.8305 140.53 214.004 57.015 140.149 213.31 56.8463 140.815 
212.646 44.3056 140.907 216.388 44.8456 140.672 208.857 46.05 140.995 
203.711 48.4276 140.496 202.715 49.0358 140.478 205.979 48.1302 141.505 
202.465 49.5655 140.901 203.056 50.0809 141.518 200.528 51.2718 140.995 
202.705 50.5452 141.572 220.157 52.315 141.338 198.826 53.1463 140.646 
200.027 52.7019 141.149 202.484 53.6694 140.939 206.999 53.3181 140.979 
208.078 53.6672 140.868 210.317 54.8439 141.723 199.456 54.7634 140.721 
200.213 55.1481 140.457 199.927 55.0918 140.565 200.271 54.8369 140.705 
210.961 55.3555 141.488 212.654 45.9491 142.317 215.879 46.5179 142.353 
207.274 49.2713 142.554 204.43 50.5023 142.083 206.902 49.8995 142.606 
219.755 50.8498 142.016 203.51 51.2241 141.923 204.972 50.8675 142.251 
208.398 50.7071 143.153 220.052 51.7332 141.807 208.06 51.1138 143.046 
204.909 52.0988 142.018 219.717 52.7426 142.572 204.799 52.5271 141.728 
207.844 53.2391 141.763 219.551 53.1953 142.57 219.31 53.3718 142.772 
199.721 54.4845 140.888 200.262 54.3582 140.946 215.856 55.8854 142.536 
212.259 55.9726 142.74 213.961 56.4385 142.293 212.686 56.2246 142.478 
217.578 50.3842 143.706 219.009 50.5065 142.861 219.357 51.3927 143.078 
207.115 51.9771 142.545 219.577 51.6312 142.864 208.199 52.6414 142.602 
219.536 52.5835 143.016 209.656 53.6022 142.967 219.161 52.9773 143.279 
219.325 52.6896 143.29 210.962 52.2448 143.988 216.782 52.0759 144.302 
218.873 51.986 143.567 215.894 52.4519 144.471 219.134 52.3568 143.547 
219.338 52.3049 143.304 219.223 52.5216 143.48 215.028 53.0869 144.534 
211.789 54.1826 144.076 213.269 53.8614 144.498 216.679 54.187 143.929 
214.692 55.4144 143.77 212.273 55.5726 143.568 213.087 55.7537 143.582 
213.601 55.6939 143.786 216.668 53.14 144.306 219.11 52.5103 143.579 
214.405 54.7893 144.275 213.329 55.1498 144.227 212.57 55.5339 143.718 
215.264 54.5629 144.348 213.581 55.3151 144.22 213.823 55.2883 144.242 
215.145 54.4282 310.533 215.016 54.3407 310.51 215.005 54.4935 310.555 
213.663 55.242 310.784 213.418 55.0277 310.757 213.921 55.2484 310.764 
214.199 55.1001 310.746 214.144 55.3458 310.898 215.916 53.1244 310.535 
216.717 53.1281 310.702 219.093 52.4748 311.38 218.924 52.3659 311.308 
219.134 52.3115 311.412 215.102 53.8193 310.498 212.937 53.7941 310.524 
214.572 54.5972 310.65 216.449 54.2081 311.032 212.252 55.0419 311.279 
215.336 55.028 311.176 212.899 55.565 311.411 213.662 55.7785 311.479 
213.215 55.8634 311.599 214.267 55.5711 311.249 216.614 51.3205 310.79 
217.759 50.4294 311.266 210.434 51.6531 311.203 219.395 51.3759 311.806 
210.662 52.8148 311.236 218.368 52.4007 311.154 218.9 53.2064 311.7 
216.765 54.5405 311.452 212.425 55.9782 312.513 215.174 46.6543 312.301 
216.417 48.0332 311.896 208.95 49.2516 311.969 218.329 49.0821 312.46 
218.549 50.3058 311.701 219.572 50.4224 312.665 219.728 50.7475 312.701 
208.202 50.8508 311.98 206.406 51.6647 312.652 208.236 51.5353 312.063 
207.468 51.0481 312.232 219.767 51.843 312.374 208.35 52.4912 312.367 
207.824 52.9325 313.07 219.072 53.2727 311.911 219.519 52.8351 312.193 
219.155 53.4628 312.319 213.547 56.2813 312.352 213.8 44.2903 313.724 
214.346 44.1186 313.776 215.394 44.6319 313.632 216.201 44.7634 314.02 
212.99 45.8751 312.664 208.759 47.5125 312.773 216.983 47.5455 312.484 
218.037 46.9881 314.019 218.245 48.2614 313.119 204.333 49.2116 313.514 
[...]
POINT_DATA 744
COLOR_SCALARS scalars 3
0.0941176 0.501961 0.392157 0.0941176 0.501961 0.392157 0.0941176 0.501961 0.392157 
0.0941176 0.501961 0.392157 0.0941176 0.501961 0.392157 
0.0941176 0.501961 0.392157 0.0941176 0.501961 0.392157 
0.0941176 0.501961 0.392157 0.0941176 0.501961 0.392157 
0.0941176 0.501961 0.392157 0.0941176 0.501961 0.392157 
0.0941176 0.501961 0.392157 0.0941176 0.501961 0.392157 
0.0941176 0.501961 0.392157 0.0941176 0.501961 0.392157 
0.0941176 0.501961 0.392157 0.0941176 0.501961 0.392157 
0.0941176 0.501961 0.392157 0.0941176 0.501961 0.392157 
0.0941176 0.501961 0.392157 0.0941176 0.501961 0.392157 
0.0941176 0.501961 0.392157 0.0941176 0.501961 0.392157 
0.0941176 0.501961 0.392157 0.0941176 0.501961 0.392157 
0.0941176 0.501961 0.392157 0.0941176 0.501961 0.392157 
0.0941176 0.501961 0.392157 0.0941176 0.501961 0.392157 
0.0941176 0.501961 0.392157 0.0941176 0.501961 0.392157 
0.0941176 0.501961 0.392157 0.0941176 0.501961 0.392157 
0.0941176 0.501961 0.392157 0.0941176 0.501961 0.392157 
0.0941176 0.501961 0.392157 0.0941176 0.501961 0.392157 
0.0941176 0.501961 0.392157 0.0941176 0.501961 0.392157 
0.0941176 0.501961 0.392157 0.0941176 0.501961 0.392157 
0.0941176 0.501961 0.392157 0.0941176 0.501961 0.392157 
0.0941176 0.501961 0.392157 0.0941176 0.501961 0.392157 
0.0941176 0.501961 0.392157 0.0941176 0.501961 0.392157 
0.0941176 0.501961 0.392157 0.0941176 0.501961 0.392157 
0.0941176 0.501961 0.392157 0.0941176 0.501961 0.392157 
0.0941176 0.501961 0.392157 0.0941176 0.501961 0.392157 
0.0941176 0.501961 0.392157 0.0941176 0.501961 0.392157 
0.0941176 0.501961 0.392157 0.0941176 0.501961 0.392157 
0.0941176 0.501961 0.392157 0.0941176 0.501961 0.392157 
0.0941176 0.501961 0.392157 0.0941176 0.501961 0.392157 
0.0941176 0.501961 0.392157 0.0941176 0.501961 0.392157 
0.0941176 0.501961 0.392157 0.0941176 0.501961 0.392157 
0.0941176 0.501961 0.392157 0.0941176 0.501961 0.392157 
0.0941176 0.501961 0.392157 0.0941176 0.501961 0.392157 
0.0941176 0.501961 0.392157 0.0941176 0.501961 0.392157 
0.0941176 0.501961 0.392157 0.0941176 0.501961 0.392157 
0.0941176 0.501961 0.392157 0.0941176 0.501961 0.392157 
0.0941176 0.501961 0.392157 0.0941176 0.501961 0.392157 
0.0941176 0.501961 0.392157 0.0941176 0.501961 0.392157 
0.0941176 0.501961 0.392157 0.0941176 0.501961 0.392157 
0.0941176 0.501961 0.392157 0.0941176 0.501961 0.392157 
0.0941176 0.501961 0.392157 0.0941176 0.501961 0.392157 
0.0941176 0.501961 0.392157 0.0941176 0.501961 0.392157 
0.0941176 0.501961 0.392157 0.0941176 0.501961 0.392157 
0.0941176 0.501961 0.392157 0.0941176 0.501961 0.392157 
0.0941176 0.501961 0.392157 0.0941176 0.501961 0.392157 
0.0941176 0.501961 0.392157 0.0941176 0.501961 0.392157 
0.0941176 0.501961 0.392157 0.0941176 0.501961 0.392157 
0.0941176 0.501961 0.392157 0.0941176 0.501961 0.392157 
0.0941176 0.501961 0.392157 0.0941176 0.501961 0.392157 
0.0941176 0.501961 0.392157 0.0941176 0.501961 0.392157 
0.0941176 0.501961 0.392157 0.0941176 0.501961 0.392157 
0.0941176 0.501961 0.392157 0.0941176 0.501961 0.392157 
0.0941176 0.501961 0.392157 0.0941176 0.501961 0.392157 
0.0941176 0.501961 0.392157 0.0941176 0.501961 0.392157 
0.0941176 0.501961 0.392157 0.0941176 0.501961 0.392157 
0.0941176 0.501961 0.392157 0.0941176 0.501961 0.392157 
0.0941176 0.501961 0.392157 0.0941176 0.501961 0.392157 
0.0941176 0.501961 0.392157 0.0941176 0.501961 0.392157 
0.0941176 0.501961 0.392157 0.0941176 0.501961 0.392157 
0.0941176 0.501961 0.392157 0.0941176 0.501961 0.392157 
0.0941176 0.501961 0.392157 0.0941176 0.501961 0.392157 
0.0941176 0.501961 0.392157 0.0941176 0.501961 0.392157 
0.0941176 0.501961 0.392157 0.0941176 0.501961 0.392157 
0.0941176 0.501961 0.392157 0.0941176 0.501961 0.392157 
0.0941176 0.501961 0.392157 0.0941176 0.501961 0.392157 
0.0941176 0.501961 0.392157 0.0941176 0.501961 0.392157 
0.0941176 0.501961 0.392157 0.0941176 0.501961 0.392157 
0.0941176 0.501961 0.392157 0.0941176 0.501961 0.392157 
0.0941176 0.501961 0.392157 0.0941176 0.501961 0.392157 
0.0941176 0.501961 0.392157 0.0941176 0.501961 0.392157 
0.0941176 0.501961 0.392157 0.0941176 0.501961 0.392157 
0.0941176 0.501961 0.392157 0.0941176 0.501961 0.392157 
0.0941176 0.501961 0.392157 0.0941176 0.501961 0.392157 
0.0941176 0.501961 0.392157 0.0941176 0.501961 0.392157 
0.0941176 0.501961 0.392157 0.0941176 0.501961 0.392157 
0.0941176 0.501961 0.392157 0.0941176 0.501961 0.392157 
0.0941176 0.501961 0.392157 0.0941176 0.501961 0.392157 
0.0941176 0.501961 0.392157 0.0941176 0.501961 0.392157 
0.0941176 0.501961 0.392157 0.0941176 0.501961 0.392157 
0.0941176 0.501961 0.392157 0.0941176 0.501961 0.392157 
0.0941176 0.501961 0.392157 0.0941176 0.501961 0.392157 
0.0941176 0.501961 0.392157 0.0941176 0.501961 0.392157 
0.0941176 0.501961 0.392157 0.0941176 0.501961 0.392157 
0.0941176 0.501961 0.392157 0.0941176 0.501961 0.392157 
0.0941176 0.501961 0.392157 0.0941176 0.501961 0.392157 
0.0941176 0.501961 0.392157 0.0941176 0.501961 0.392157 
0.0941176 0.501961 0.392157 0.0941176 0.501961 0.392157 
0.0941176 0.501961 0.392157 0.0941176 0.501961 0.392157 
0.0941176 0.501961 0.392157 0.0941176 0.501961 0.392157 
0.0941176 0.501961 0.392157 0.0941176 0.501961 0.392157 
0.0941176 0.501961 0.392157 0.0941176 0.501961 0.392157 
0.0941176 0.501961 0.392157 0.0941176 0.501961 0.392157 
0.0941176 0.501961 0.392157 0.0941176 0.501961 0.392157 
0.0941176 0.501961 0.392157 0.0941176 0.501961 0.392157 
0.0941176 0.501961 0.392157 0.0941176 0.501961 0.392157 
0.0941176 0.501961 0.392157 0.0941176 0.501961 0.392157 
0.0941176 0.501961 0.392157 0.0941176 0.501961 0.392157 
0.0941176 0.501961 0.392157 0.0941176 0.501961 0.392157 
0.0941176 0.501961 0.392157 0.0941176 0.501961 0.392157 
0.0941176 0.501961 0.392157 0.0941176 0.501961 0.392157 
0.0941176 0.501961 0.392157 0.0941176 0.501961 0.392157 
0.0941176 0.501961 0.392157 0.0941176 0.501961 0.392157 
0.0941176 0.501961 0.392157 0.0941176 0.501961 0.392157 
0.0941176 0.501961 0.392157 0.0941176 0.501961 0.392157 
0.0941176 0.501961 0.392157 0.0941176 0.501961 0.392157 
0.0941176 0.501961 0.392157 0.0941176 0.501961 0.392157 
0.0941176 0.501961 0.392157 0.0941176 0.501961 0.392157 
0.0941176 0.501961 0.392157 0.0941176 0.501961 0.392157 
0.0941176 0.501961 0.392157 0.0941176 0.501961 0.392157 
0.0941176 0.501961 0.392157 0.0941176 0.501961 0.392157 
0.0941176 0.501961 0.392157 0.0941176 0.501961 0.392157 
0.0941176 0.501961 0.392157 0.0941176 0.501961 0.392157 
0.0941176 0.501961 0.392157 0.0941176 0.501961 0.392157 
0.0941176 0.501961 0.392157 0.0941176 0.501961 0.392157 
0.0941176 0.501961 0.392157 0.0941176 0.501961 0.392157 
0.0941176 0.501961 0.392157 0.0941176 0.501961 0.392157 
0.0941176 0.501961 0.392157 0.0941176 0.501961 0.392157 
0.0941176 0.501961 0.392157 0.0941176 0.501961 0.392157 
0.0941176 0.501961 0.392157 0.0941176 0.501961 0.392157 
0.0941176 0.501961 0.392157 0.0941176 0.501961 0.392157 
0.0941176 0.501961 0.392157 0.0941176 0.501961 0.392157 
0.0941176 0.501961 0.392157 0.0941176 0.501961 0.392157 
0.0941176 0.501961 0.392157 0.0941176 0.501961 0.392157 
0.0941176 0.501961 0.392157 0.0941176 0.501961 0.392157 
0.0941176 0.501961 0.392157 0.0941176 0.501961 0.392157 
0.0941176 0.501961 0.392157 0.0941176 0.501961 0.392157 
0.0941176 0.501961 0.392157 0.0941176 0.501961 0.392157 
0.0941176 0.501961 0.392157 0.0941176 0.501961 0.392157 
0.0941176 0.501961 0.392157 0.0941176 0.501961 0.392157 
0.0941176 0.501961 0.392157 0.0941176 0.501961 0.392157 
0.0941176 0.501961 0.392157 0.0941176 0.501961 0.392157 
0.0941176 0.501961 0.392157 0.0941176 0.501961 0.392157 
0.0941176 0.501961 0.392157 0.0941176 0.501961 0.392157 
0.0941176 0.501961 0.392157 0.0941176 0.501961 0.392157 
0.0941176 0.501961 0.392157 0.0941176 0.501961 0.392157 
0.0941176 0.501961 0.392157 0.0941176 0.501961 0.392157 
0.0941176 0.501961 0.392157 0.0941176 0.501961 0.392157 
0.0941176 0.501961 0.392157 0.0941176 0.501961 0.392157 
0.0941176 0.501961 0.392157 0.0941176 0.501961 0.392157 
0.0941176 0.501961 0.392157 0.0941176 0.501961 0.392157 
0.0941176 0.501961 0.392157 0.0941176 0.501961 0.392157 
0.0941176 0.501961 0.392157 0.0941176 0.501961 0.392157 
0.0941176 0.501961 0.392157 0.0941176 0.501961 0.392157 
0.0941176 0.501961 0.392157 0.0941176 0.501961 0.392157 
0.0941176 0.501961 0.392157 0.0941176 0.501961 0.392157 
0.0941176 0.501961 0.392157 0.0941176 0.501961 0.392157 
0.0941176 0.501961 0.392157 0.0941176 0.501961 0.392157 
0.0941176 0.501961 0.392157 0.0941176 0.501961 0.392157 
0.0941176 0.501961 0.392157 0.0941176 0.501961 0.392157 
0.0941176 0.501961 0.392157 0.0941176 0.501961 0.392157 
0.0941176 0.501961 0.392157 0.0941176 0.501961 0.392157 
0.0941176 0.501961 0.392157 0.0941176 0.501961 0.392157 
0.0941176 0.501961 0.392157 0.0941176 0.501961 0.392157 
0.0941176 0.501961 0.392157 0.0941176 0.501961 0.392157 
0.0941176 0.501961 0.392157 0.0941176 0.501961 0.392157 
0.0941176 0.501961 0.392157 0.0941176 0.501961 0.392157 
0.0941176 0.501961 0.392157 0.0941176 0.501961 0.392157 
0.0941176 0.501961 0.392157 0.0941176 0.501961 0.392157 
0.0941176 0.501961 0.392157 0.0941176 0.501961 0.392157 
0.0941176 0.501961 0.392157 0.0941176 0.501961 0.392157 
0.0941176 0.501961 0.392157 0.0941176 0.501961 0.392157 
0.0941176 0.501961 0.392157 0.0941176 0.501961 0.392157 
0.0941176 0.501961 0.392157 0.0941176 0.501961 0.392157 
0.0941176 0.501961 0.392157 0.0941176 0.501961 0.392157 
0.0941176 0.501961 0.392157 0.0941176 0.501961 0.392157 
0.0941176 0.501961 0.392157 0.0941176 0.501961 0.392157 
0.0941176 0.501961 0.392157 0.0941176 0.501961 0.392157 
0.0941176 0.501961 0.392157 0.0941176 0.501961 0.392157 
0.0941176 0.501961 0.392157 0.0941176 0.501961 0.392157 
0.0941176 0.501961 0.392157 0.0941176 0.501961 0.392157 
0.0941176 0.501961 0.392157 0.0941176 0.501961 0.392157 
0.0941176 0.501961 0.392157 0.0941176 0.501961 0.392157 
0.0941176 0.501961 0.392157 0.0941176 0.501961 0.392157 
0.0941176 0.501961 0.392157 0.0941176 0.501961 0.392157 
0.0941176 0.501961 0.392157 0.0941176 0.501961 0.392157 
0.0941176 0.501961 0.392157 0.0941176 0.501961 0.392157 
0.0941176 0.501961 0.392157 0.0941176 0.501961 0.392157 
0.0941176 0.501961 0.392157 0.0941176 0.501961 0.392157 
0.0941176 0.501961 0.392157 0.0941176 0.501961 0.392157 
0.0941176 0.501961 0.392157 0.0941176 0.501961 0.392157 
0.0941176 0.501961 0.392157 0.0941176 0.501961 0.392157 
0.0941176 0.501961 0.392157 0.0941176 0.501961 0.392157 
0.0941176 0.501961 0.392157 0.0941176 0.501961 0.392157 
0.0941176 0.501961 0.392157 0.0941176 0.501961 0.392157 
0.0941176 0.501961 0.392157 0.0941176 0.501961 0.392157 
0.0941176 0.501961 0.392157 0.0941176 0.501961 0.392157 
0.0941176 0.501961 0.392157 0.0941176 0.501961 0.392157 
0.0941176 0.501961 0.392157 0.0941176 0.501961 0.392157 
0.0941176 0.501961 0.392157 0.0941176 0.501961 0.392157 
0.0941176 0.501961 0.392157 0.0941176 0.501961 0.392157 
0.0941176 0.501961 0.392157 0.0941176 0.501961 0.392157 
0.0941176 0.501961 0.392157 0.0941176 0.501961 0.392157 
0.0941176 0.501961 0.392157 0.0941176 0.501961 0.392157 
0.0941176 0.501961 0.392157 0.0941176 0.501961 0.392157 
0.0941176 0.501961 0.392157 0.0941176 0.501961 0.392157 
0.0941176 0.501961 0.392157 0.0941176 0.501961 0.392157 
0.0941176 0.501961 0.392157 0.0941176 0.501961 0.392157 
0.0941176 0.501961 0.392157 0.0941176 0.501961 0.392157 
0.0941176 0.501961 0.392157 0.0941176 0.501961 0.392157 
0.0941176 0.501961 0.392157 0.0941176 0.501961 0.392157 
0.0941176 0.501961 0.392157 0.0941176 0.501961 0.392157 
0.0941176 0.501961 0.392157 0.0941176 0.501961 0.392157 
0.0941176 0.501961 0.392157 0.0941176 0.501961 0.392157 
0.0941176 0.501961 0.392157 0.0941176 0.501961 0.392157 
0.0941176 0.501961 0.392157 0.0941176 0.501961 0.392157 
0.0941176 0.501961 0.392157 0.0941176 0.501961 0.392157 
0.0941176 0.501961 0.392157 0.0941176 0.501961 0.392157 
0.0941176 0.501961 0.392157 0.0941176 0.501961 0.392157 
0.0941176 0.501961 0.392157 0.0941176 0.501961 0.392157 
0.0941176 0.501961 0.392157 0.0941176 0.501961 0.392157 
0.0941176 0.501961 0.392157 0.0941176 0.501961 0.392157 
0.0941176 0.501961 0.392157 0.0941176 0.501961 0.392157 
0.0941176 0.501961 0.392157 0.0941176 0.501961 0.392157 
0.0941176 0.501961 0.392157 0.0941176 0.501961 0.392157 
0.0941176 0.501961 0.392157 0.0941176 0.501961 0.392157 
0.0941176 0.501961 0.392157 0.0941176 0.501961 0.392157 
0.0941176 0.501961 0.392157 0.0941176 0.501961 0.392157 
0.0941176 0.501961 0.392157 0.0941176 0.501961 0.392157 
0.0941176 0.501961 0.392157 0.0941176 0.501961 0.392157 
0.0941176 0.501961 0.392157 0.0941176 0.501961 0.392157 
0.0941176 0.501961 0.392157 0.0941176 0.501961 0.392157 
0.0941176 0.501961 0.392157 0.0941176 0.501961 0.392157 
0.0941176 0.501961 0.392157 0.0941176 0.501961 0.392157 
0.0941176 0.501961 0.392157 0.0941176 0.501961 0.392157 
0.0941176 0.501961 0.392157 0.0941176 0.501961 0.392157 
0.0941176 0.501961 0.392157 0.0941176 0.501961 0.392157 
0.0941176 0.501961 0.392157 0.0941176 0.501961 0.392157 
0.0941176 0.501961 0.392157 0.0941176 0.501961 0.392157 
0.0941176 0.501961 0.392157 0.0941176 0.501961 0.392157 
0.0941176 0.501961 0.392157 0.0941176 0.501961 0.392157 
0.0941176 0.501961 0.392157 0.0941176 0.501961 0.392157 
0.0941176 0.501961 0.392157 0.0941176 0.501961 0.392157 
0.0941176 0.501961 0.392157 0.0941176 0.501961 0.392157 
0.0941176 0.501961 0.392157 0.0941176 0.501961 0.392157 
0.0941176 0.501961 0.392157 0.0941176 0.501961 0.392157 
0.0941176 0.501961 0.392157 0.0941176 0.501961 0.392157 
0.0941176 0.501961 0.392157 0.0941176 0.501961 0.392157 
0.0941176 0.501961 0.392157 0.0941176 0.501961 0.392157 
0.0941176 0.501961 0.392157 0.0941176 0.501961 0.392157 
0.0941176 0.501961 0.392157 0.0941176 0.501961 0.392157 
0.0941176 0.501961 0.392157 0.0941176 0.501961 0.392157 
0.0941176 0.501961 0.392157 0.0941176 0.501961 0.392157 
0.0941176 0.501961 0.392157 0.0941176 0.501961 0.392157 
0.0941176 0.501961 0.392157 0.0941176 0.501961 0.392157 
0.0941176 0.501961 0.392157 0.0941176 0.501961 0.392157 
0.0941176 0.501961 0.392157 0.0941176 0.501961 0.392157 
0.0941176 0.501961 0.392157 0.0941176 0.501961 0.392157 
0.0941176 0.501961 0.392157 0.0941176 0.501961 0.392157 
0.0941176 0.501961 0.392157 0.0941176 0.501961 0.392157 
0.0941176 0.501961 0.392157 0.0941176 0.501961 0.392157 
0.0941176 0.501961 0.392157 0.0941176 0.501961 0.392157 
0.0941176 0.501961 0.392157 0.0941176 0.501961 0.392157 
0.0941176 0.501961 0.392157 0.0941176 0.501961 0.392157 
0.0941176 0.501961 0.392157 0.0941176 0.501961 0.392157 
0.0941176 0.501961 0.392157 0.0941176 0.501961 0.392157 
0.0941176 0.501961 0.392157 0.0941176 0.501961 0.392157 
0.0941176 0.501961 0.392157 0.0941176 0.501961 0.392157 
0.0941176 0.501961 0.392157 0.0941176 0.501961 0.392157 
0.0941176 0.501961 0.392157 0.0941176 0.501961 0.392157 
0.0941176 0.501961 0.392157 0.0941176 0.501961 0.392157 
0.0941176 0.501961 0.392157 0.0941176 0.501961 0.392157 
0.0941176 0.501961 0.392157 0.0941176 0.501961 0.392157 
0.0941176 0.501961 0.392157 0.0941176 0.501961 0.392157 
0.0941176 0.501961 0.392157 0.0941176 0.501961 0.392157 
0.0941176 0.501961 0.392157 0.0941176 0.501961 0.392157 
0.0941176 0.501961 0.392157 0.0941176 0.501961 0.392157 
0.0941176 0.501961 0.392157 0.0941176 0.501961 0.392157 
0.0941176 0.501961 0.392157 0.0941176 0.501961 0.392157 
0.0941176 0.501961 0.392157 0.0941176 0.501961 0.392157 
0.0941176 0.501961 0.392157 0.0941176 0.501961 0.392157 
0.0941176 0.501961 0.392157 0.0941176 0.501961 0.392157 
0.0941176 0.501961 0.392157 0.0941176 0.501961 0.392157 
0.0941176 0.501961 0.392157 0.0941176 0.501961 0.392157 
0.0941176 0.501961 0.392157 0.0941176 0.501961 0.392157 
0.0941176 0.501961 0.392157 0.0941176 0.501961 0.392157 
0.0941176 0.501961 0.392157 0.0941176 0.501961 0.392157 
0.0941176 0.501961 0.392157 0.0941176 0.501961 0.392157 
0.0941176 0.501961 0.392157 0.0941176 0.501961 0.392157 
0.0941176 0.501961 0.392157 0.0941176 0.501961 0.392157 
0.0941176 0.501961 0.392157 0.0941176 0.501961 0.392157 
0.0941176 0.501961 0.392157 0.0941176 0.501961 0.392157 
0.0941176 0.501961 0.392157 0.0941176 0.501961 0.392157 
0.0941176 0.501961 0.392157 0.0941176 0.501961 0.392157 
0.0941176 0.501961 0.392157 0.0941176 0.501961 0.392157 
0.0941176 0.501961 0.392157 0.0941176 0.501961 0.392157 
0.0941176 0.501961 0.392157 0.0941176 0.501961 0.392157 
0.0941176 0.501961 0.392157 0.0941176 0.501961 0.392157 
0.0941176 0.501961 0.392157 0.0941176 0.501961 0.392157 
0.0941176 0.501961 0.392157 0.0941176 0.501961 0.392157 
0.0941176 0.501961 0.392157 0.0941176 0.501961 0.392157 
0.0941176 0.501961 0.392157 0.0941176 0.501961 0.392157 
0.0941176 0.501961 0.392157 0.0941176 0.501961 0.392157 
0.0941176 0.501961 0.392157 0.0941176 0.501961 0.392157 
0.0941176 0.501961 0.392157 0.0941176 0.501961 0.392157 
0.0941176 0.501961 0.392157 0.0941176 0.501961 0.392157 
0.0941176 0.501961 0.392157 0.0941176 0.501961 0.392157 
0.0941176 0.501961 0.392157 0.0941176 0.501961 0.392157 
0.0941176 0.501961 0.392157 0.0941176 0.501961 0.392157 
0.0941176 0.501961 0.392157 0.0941176 0.501961 0.392157 
0.0941176 0.501961 0.392157 0.0941176 0.501961 0.392157 
0.0941176 0.501961 0.392157 0.0941176 0.501961 0.392157 
0.0941176 0.501961 0.392157 0.0941176 0.501961 0.392157 
0.0941176 0.501961 0.392157 0.0941176 0.501961 0.392157 
0.0941176 0.501961 0.392157 0.0941176 0.501961 0.392157 
0.0941176 0.501961 0.392157 0.0941176 0.501961 0.392157 
0.0941176 0.501961 0.392157 0.0941176 0.501961 0.392157 
0.0941176 0.501961 0.392157 0.0941176 0.501961 0.392157 
0.0941176 0.501961 0.392157 0.0941176 0.501961 0.392157 
0.0941176 0.501961 0.392157 0.0941176 0.501961 0.392157 
0.0941176 0.501961 0.392157 0.0941176 0.501961 0.392157 
0.0941176 0.501961 0.392157 0.0941176 0.501961 0.392157 
0.0941176 0.501961 0.392157 0.0941176 0.501961 0.392157 
0.0941176 0.501961 0.392157 0.0941176 0.501961 0.392157 
0.0941176 0.501961 0.392157 0.0941176 0.501961 0.392157 
0.0941176 0.501961 0.392157 0.0941176 0.501961 0.392157 
0.0941176 0.501961 0.392157 0.0941176 0.501961 0.392157 
0.0941176 0.501961 0.392157 0.0941176 0.501961 0.392157 
0.0941176 0.501961 0.392157 0.0941176 0.501961 0.392157 
0.0941176 0.501961 0.392157 0.0941176 0.501961 0.392157 
0.0941176 0.501961 0.392157 0.0941176 0.501961 0.392157 
0.0941176 0.501961 0.392157 0.0941176 0.501961 0.392157 
0.0941176 0.501961 0.392157 0.0941176 0.501961 0.392157 
0.0941176 0.501961 0.392157 0.0941176 0.501961 0.392157 
0.0941176 0.501961 0.392157 0.0941176 0.501961 0.392157 
0.0941176 0.501961 0.392157 0.0941176 0.501961 0.392157 
0.0941176 0.501961 0.392157 0.0941176 0.501961 0.392157 
0.0941176 0.501961 0.392157 0.0941176 0.501961 0.392157 
0.0941176 0.501961 0.392157 0.0941176 0.501961 0.392157 
0.0941176 0.501961 0.392157 0.0941176 0.501961 0.392157 
0.0941176 0.501961 0.392157 0.0941176 0.501961 0.392157 
0.0941176 0.501961 0.392157 0.0941176 0.501961 0.392157 
0.0941176 0.501961 0.392157 0.0941176 0.501961 0.392157 
0.0941176 0.501961 0.392157 0.0941176 0.501961 0.392157 
0.0941176 0.501961 0.392157 0.0941176 0.501961 0.392157 
0.0941176 0.501961 0.392157 0.0941176 0.501961 0.392157 
0.0941176 0.501961 0.392157 0.0941176 0.501961 0.392157 
0.0941176 0.501961 0.392157 0.0941176 0.501961 0.392157 
0.0941176 0.501961 0.392157 0.0941176 0.501961 0.392157 
0.0941176 0.501961 0.392157 0.0941176 0.501961 0.392157 
0.0941176 0.501961 0.392157 0.0941176 0.501961 0.392157 
0.0941176 0.501961 0.392157 0.0941176 0.501961 0.392157 
0.0941176 0.501961 0.392157 0.0941176 0.501961 0.392157 
0.0941176 0.501961 0.392157 0.0941176 0.501961 0.392157 
0.0941176 0.501961 0.392157 0.0941176 0.501961 0.392157 
0.0941176 0.501961 0.392157 0.0941176 0.501961 0.392157 
0.0941176 0.501961 0.392157 0.0941176 0.501961 0.392157 
0.0941176 0.501961 0.392157 0.0941176 0.501961 0.392157 
0.0941176 0.501961 0.392157 0.0941176 0.501961 0.392157 