# vtk DataFile Version 4.2
vtk output
ASCII
DATASET POLYDATA
POINTS 1954 float
201.657 85.3147 115.367 200.166 86.2365 115.092 200.487 86.2443 115.074 
200.401 85.9287 115.216 200.79 86.4309 115.068 196.384 88.1909 115.127 
196.38 88.0871 115.164 196.227 88.2475 115.211 198.841 87.4259 115.021 
212.487 80.4687 116.199 208.977 81.7204 115.966 209.361 81.1521 116.181 
213.946 80.4062 116.283 211.967 81.6823 115.953 208.818 82.7811 115.705 
202.181 84.3679 115.948 202.512 85.5934 115.38 199.375 86.0027 115.441 
206.609 85.4931 115.643 196.425 87.8103 115.325 194.332 88.6556 115.68 
193.479 88.6 115.9 196.892 88.295 115.151 198.386 88.8743 115.122 
190.692 90.2647 116.101 194.368 90.521 115.687 186.51 91.8869 116.565 
186.457 91.7726 116.599 186.316 91.9181 116.64 186.638 91.7929 116.584 
186.667 92.0907 116.595 216.908 78.3227 116.902 212.041 79.4389 116.776 
208.036 81.3624 116.362 207.03 82.0491 116.195 207.137 81.7057 116.398 
203.346 83.2334 116.56 207.959 85.6561 115.861 195.079 87.4138 115.959 
186.405 91.5202 116.759 187.21 91.1454 116.748 196.519 91.112 115.83 
185.499 91.8193 116.918 187.196 91.7271 116.588 187.933 91.993 116.525 
182.274 93.2347 117.406 182.625 93.19 117.332 217.977 76.4668 117.956 
209.337 80.1425 117.008 218.364 79.8335 117.16 213.146 84.62 116.905 
209.455 87.431 116.971 183.624 91.8099 117.646 181.168 93.1684 117.943 
196.698 93.0694 116.868 180.295 94.1017 117.915 180.158 93.983 118.001 
181.361 94.1561 117.629 176 95.0087 117.017 176 95.0087 117.017 
176 95.0088 117.017 176 95.0088 117.017 179.316 95.0665 118.282 
179.544 95.1039 118.27 176 95.0088 117.017 179.304 95.2017 118.347 
224.865 73.6564 119.476 225.154 73.722 119.529 225.37 74.01 119.513 
214.263 77.4282 118.139 222.174 79.0706 118.167 220.15 80.6639 117.87 
200.533 92.932 117.614 203.297 92.1131 117.857 179.566 94.5845 118.317 
176 95.0087 117.018 179.08 95.0051 118.56 178.952 95.0209 118.79 
178.906 95.1847 118.703 184.75 95.1041 117.592 178.905 95.3524 118.748 
178.957 95.2657 118.621 179.149 95.3168 118.517 181.469 95.7218 118.055 
225.14 73.0149 120.098 225.072 72.8383 120.315 225.408 73.0736 120.295 
220.677 74.0978 119.507 218.37 75.0673 119.259 209.986 88.9901 118.141 
212.624 88.666 119.207 211.159 89.6827 119.329 183.175 91.2156 118.34 
179.586 93.6359 119.133 204.551 92.4773 118.822 202.527 93.5122 119.156 
206.318 92.291 119.985 178.912 95.2713 118.909 203.68 93.3678 119.753 
179.878 96.0559 118.67 197.312 95.2804 119.014 179.247 96.0228 119.242 
187.302 96.6515 118.514 179.523 96.5218 119.393 179.739 96.9661 119.778 
224.729 72.7838 120.318 225.243 72.7804 120.622 228.604 75.7964 121.406 
228.769 75.8159 121.665 226.801 77.9549 120.061 225.576 79.0009 119.683 
225.532 80.1264 120.117 219.226 84.8224 119.571 217.162 85.9201 119.294 
216.828 86.7495 120.023 183.84 89.6697 119.742 212.942 89.1649 120.429 
181.013 91.62 119.988 201.748 94.3636 120.255 179.111 95.5474 119.778 
179.887 97.3943 120.355 189.534 97.7179 119.757 190.868 97.7295 120.118 
180.562 97.9676 119.992 223.978 72.1552 121.502 225.17 72.6067 121.148 
222.532 72.4788 121.235 226.551 73.5561 121.335 227.858 75.4638 121.034 
228.69 76.4815 121.329 224.834 82.4632 121.35 223.269 83.8442 121.538 
219.181 86.3012 121.768 182.604 89.7194 121.003 180.55 91.712 120.92 
180.626 91.5789 121.167 180.468 91.722 121.044 181.59 90.6525 121.141 
210.573 90.4763 120.655 211.361 90.1012 121.052 179.93 92.828 120.392 
180.401 91.8612 120.984 180.291 92.2735 120.868 203.981 93.5311 120.991 
179.411 95.3105 120.727 179.757 96.9697 121.049 180.25 97.9902 120.496 
189.204 98.5667 120.838 180.344 98.3402 121.099 182.684 99.3162 120.754 
191.038 98.3756 121.659 181.623 99.4112 121.451 236.915 66.2579 123.611 
236.849 66.1226 123.7 236.748 66.2398 123.775 237.035 66.134 123.656 
236.871 66.5416 123.708 237.382 66.5047 123.57 236.992 66.6372 123.644 
223.044 72.0046 121.949 226.495 73.2483 122.671 216.125 74.8643 120.921 
228.668 75.0912 122.56 231.416 77.4967 123.082 228.742 79.9984 122.204 
222.467 84.5854 122.193 185.459 87.7002 121.431 182.594 89.5158 121.509 
182.189 89.6797 121.969 181.914 89.9481 122.116 180.558 91.795 121.391 
181.001 91.2443 121.598 209.458 91.0697 122.022 180.175 94.5489 122.182 
194.565 97.2045 121.52 191.072 98.4307 122.107 193.32 97.5968 122.121 
180.537 98.5894 121.288 181.169 99.2056 122.073 189.506 98.967 122.255 
181.42 99.7271 122.343 181.495 99.8893 122.341 181.737 99.8457 122.052 
188.329 99.3363 122.358 181.941 100.122 122.348 182.763 100.411 122.222 
184.101 100.419 122.272 238.292 65.7934 123.886 237.965 65.6569 123.921 
238.576 65.8437 123.972 238.446 65.6449 124.042 236.795 65.9018 123.942 
236.423 65.7906 124.288 237.34 65.958 123.789 238.292 66.0426 123.79 
238.561 66.1129 123.877 236.531 65.9958 123.994 236.42 65.9288 124.086 
236.442 66.0056 124.041 236.534 66.1691 124.068 236.761 66.5306 123.921 
238.661 66.7579 123.863 237.48 67.2581 123.835 238.386 67.3242 123.834 
237.558 67.8285 124.11 238.193 68.277 124.13 224.053 71.9055 123.211 
211.552 75.5104 123.383 230.997 76.1757 124.098 231.6 76.5659 123.998 
232.118 76.9978 123.899 232.568 77.656 123.916 231.394 77.9437 123.112 
232.568 77.9568 123.941 229.833 79.1221 122.502 230.561 79.0039 123.017 
230.918 79.202 123.544 229.729 80.1952 123.619 231.333 79.2522 124.128 
228.417 80.8878 123.05 225.354 82.884 123.005 221.645 85.0579 122.861 
218.072 86.8225 122.695 217.006 87.2398 123.163 182.109 89.669 122.328 
203.048 93.8146 122.272 194.164 97.1425 123.239 181.567 99.9007 122.45 
186.716 99.8203 122.839 187.687 99.4985 123.03 182.973 100.521 122.429 
181 103.009 123.017 181 103.009 123.017 181 103.009 123.017 
182.607 100.415 122.791 181 103.009 123.017 181 103.009 123.017 
237.815 65.5094 124.075 238.321 65.5248 124.2 238.548 65.6151 124.168 
238.511 65.6023 124.3 236.106 65.3897 125.036 236.644 65.3033 124.786 
238.666 65.7313 124.275 236.413 65.9652 124.172 236.396 65.9801 124.552 
238.955 66.8089 124.088 238.668 67.7675 124.033 239.101 67.9358 124.293 
237.293 68.369 124.919 222.102 71.6832 123.726 237.78 69.5816 124.915 
217.19 73.3458 123.478 232.398 76.638 124.608 233.052 76.9075 124.617 
233.424 77.4922 124.732 232.557 78.478 124.433 232.689 78.4809 124.713 
230.994 79.6046 124.706 228.732 80.9681 123.782 183.992 87.5209 123.82 
207.987 91.2346 123.674 181.19 92.3101 123.52 192.064 97.8795 123.613 
181.459 98.7888 123.089 189.159 98.9745 123.401 188.883 98.7395 124.378 
184.477 100.302 123.55 185.806 99.8095 124.042 183.604 100.468 123.252 
183.14 100.364 123.35 184.164 100.441 123.213 181 103.009 123.018 
236.976 65.2773 124.713 236.704 65.2424 125.047 236.009 65.0584 125.754 
235.816 65.1104 125.732 238.048 65.67 124.846 236.355 65.8493 125.186 
236.67 66.507 124.793 237.034 67.2727 125.107 239.651 67.2416 125.161 
239.792 67.6586 124.952 240.129 67.7505 125.291 237.281 68.7168 125.37 
237.33 69.4452 125.474 239.57 69.9395 125.05 224.41 72.1312 124.885 
237.658 71.3974 125.633 238.819 72.3708 125.62 237.041 73.5681 126.024 
211.918 74.6815 125.119 236.738 74.5153 126.009 236.15 74.5873 126.253 
238.047 73.9064 125.977 235.665 75.5545 125.909 235.559 75.2641 126.265 
234.981 75.9733 125.835 231.973 76.3349 125.404 233.236 76.5718 125.243 
234.483 76.6497 125.419 234.089 76.4834 125.432 235.377 76.2194 125.789 
237.326 75.1007 126.357 233.813 77.4487 125.3 235.248 76.5188 125.937 
232.495 78.6433 125.35 234.026 77.3721 125.686 231.091 79.5784 125.249 
226.286 82.1322 125.212 183.581 87.6682 124.722 183.67 87.587 124.99 
183.506 87.6917 124.851 183.435 87.8051 124.768 183.315 88.1529 124.575 
206.236 91.4205 124.993 194.522 96.2415 125.211 185.753 99.6143 124.527 
184.003 99.9399 124.113 184.616 99.9229 124.186 182.806 100.297 123.333 
235.186 64.5718 126.805 235.297 64.7041 126.624 236.81 65.3991 125.234 
235.233 64.5781 126.868 235.269 64.7659 126.758 235.62 64.9029 126.411 
236.457 65.5891 125.55 237.224 65.8238 125.309 235.83 65.1907 125.932 
236.813 66.4071 125.272 237.113 66.2491 125.456 237.77 66.4724 125.564 
237.365 67.0497 125.642 238.016 67.2357 126.181 238.975 66.9216 125.798 
239.88 67.5704 126.155 237.615 67.6744 126.168 237.301 68.1194 125.809 
240.835 68.9086 126.225 241.006 68.7717 126.706 241.352 69.3852 126.883 
221.224 71.7485 125.706 241.476 70.9322 126.733 237.153 71.8418 126.103 
241.023 71.8154 126.521 216.346 73.3508 126.133 236.83 72.0717 126.471 
240.842 72.2613 126.608 212.764 74.2113 126.036 240.007 73.2469 126.726 
238.73 74.1434 126.462 239.352 73.8493 126.731 230.306 75.8297 126.224 
235.568 75.0476 126.776 234.99 75.8255 126.256 238.37 74.6506 126.715 
232.467 76.4606 125.768 234.043 76.3843 125.901 236.805 75.5443 126.665 
230.925 79.615 125.607 186.056 85.3617 125.623 183.472 87.7997 124.888 
182.986 90.6303 125.955 185.494 99.4909 124.78 185.106 99.427 124.842 
234.82 64.3876 127.355 234.62 64.471 127.672 234.08 64.4759 128.363 
234.959 64.3929 127.62 234.344 64.5721 128.441 234.812 64.4943 127.865 
235.291 64.7325 126.892 237.923 67.848 126.73 238.589 67.6117 126.898 
240.758 68.3788 126.885 237.658 68.4062 127.175 237.317 68.802 126.626 
242.169 69.6912 128.096 237.049 69.7842 126.766 242.39 70.1112 128.082 
242.389 70.5699 127.922 242.649 70.3932 128.384 222.664 71.903 126.265 
237.042 70.5408 126.364 242.804 70.9327 128.533 242.612 71.4502 128.354 
240.896 73.0822 127.546 235.519 75.2887 127.163 239.108 74.4304 127.586 
230.993 76.3397 126.801 233.598 76.6237 126.262 235.035 76.2128 126.526 
235.96 75.4343 127.652 233.957 76.7612 126.428 236.036 75.9258 126.593 
233.387 77.0755 126.542 234.064 76.9604 126.357 232.078 78.0559 126.802 
185.536 85.6977 126.146 185.524 85.7655 126.701 184.207 87.7905 126.591 
183.657 90.2431 126.829 184.447 95.2674 127.128 234.044 64.04 128.354 
234.45 63.8771 128.714 233.526 64.1903 128.767 234.657 64.1151 128.95 
233.808 64.7008 128.856 234.199 64.8302 129.163 234.548 64.5059 128.925 
238.185 68.0617 127.459 239.212 67.8582 127.553 240.483 68.18 127.324 
[...]
POINT_DATA 1954
COLOR_SCALARS scalars 3
0.0941176 0.501961 0.392157 0.0941176 0.501961 0.392157 0.0941176 0.501961 0.392157 
0.0941176 0.501961 0.392157 0.0941176 0.501961 0.392157 
0.0941176 0.501961 0.392157 0.0941176 0.501961 0.392157 
0.0941176 0.501961 0.392157 0.0941176 0.501961 0.392157 
0.0941176 0.501961 0.392157 0.0941176 0.501961 0.392157 
0.0941176 0.501961 0.392157 0.0941176 0.501961 0.392157 
0.0941176 0.501961 0.392157 0.0941176 0.501961 0.392157 
0.0941176 0.501961 0.392157 0.0941176 0.501961 0.392157 
0.0941176 0.501961 0.392157 0.0941176 0.501961 0.392157 
0.0941176 0.501961 0.392157 0.0941176 0.501961 0.392157 
0.0941176 0.501961 0.392157 0.0941176 0.501961 0.392157 
0.0941176 0.501961 0.392157 0.0941176 0.501961 0.392157 
0.0941176 0.501961 0.392157 0.0941176 0.501961 0.392157 
0.0941176 0.501961 0.392157 0.0941176 0.501961 0.392157 
0.0941176 0.501961 0.392157 0.0941176 0.501961 0.392157 
0.0941176 0.501961 0.392157 0.0941176 0.501961 0.392157 
0.0941176 0.501961 0.392157 0.0941176 0.501961 0.392157 
0.0941176 0.501961 0.392157 0.0941176 0.501961 0.392157 
0.0941176 0.501961 0.392157 0.0941176 0.501961 0.392157 
0.0941176 0.501961 0.392157 0.0941176 0.501961 0.392157 
0.0941176 0.501961 0.392157 0.0941176 0.501961 0.392157 
0.0941176 0.501961 0.392157 0.0941176 0.501961 0.392157 
0.0941176 0.501961 0.392157 0.0941176 0.501961 0.392157 
0.0941176 0.501961 0.392157 0.0941176 0.501961 0.392157 
0.0941176 0.501961 0.392157 0.0941176 0.501961 0.392157 
0.0941176 0.501961 0.392157 0.0941176 0.501961 0.392157 
0.0941176 0.501961 0.392157 0.0941176 0.501961 0.392157 
0.0941176 0.501961 0.392157 0.0941176 0.501961 0.392157 
0.0941176 0.501961 0.392157 0.0941176 0.501961 0.392157 
0.0941176 0.501961 0.392157 0.0941176 0.501961 0.392157 
0.0941176 0.501961 0.392157 0.0941176 0.501961 0.392157 
0.0941176 0.501961 0.392157 0.0941176 0.501961 0.392157 
0.0941176 0.501961 0.392157 0.0941176 0.501961 0.392157 
0.0941176 0.501961 0.392157 0.0941176 0.501961 0.392157 
0.0941176 0.501961 0.392157 0.0941176 0.501961 0.392157 
0.0941176 0.501961 0.392157 0.0941176 0.501961 0.392157 
0.0941176 0.501961 0.392157 0.0941176 0.501961 0.392157 
0.0941176 0.501961 0.392157 0.0941176 0.501961 0.392157 
0.0941176 0.501961 0.392157 0.0941176 0.501961 0.392157 
0.0941176 0.501961 0.392157 0.0941176 0.501961 0.392157 
0.0941176 0.501961 0.392157 0.0941176 0.501961 0.392157 
0.0941176 0.501961 0.392157 0.0941176 0.501961 0.392157 
0.0941176 0.501961 0.392157 0.0941176 0.501961 0.392157 
0.0941176 0.501961 0.392157 0.0941176 0.501961 0.392157 
0.0941176 0.501961 0.392157 0.0941176 0.501961 0.392157 
0.0941176 0.501961 0.392157 0.0941176 0.501961 0.392157 
0.0941176 0.501961 0.392157 0.0941176 0.501961 0.392157 
0.0941176 0.501961 0.392157 0.0941176 0.501961 0.392157 
0.0941176 0.501961 0.392157 0.0941176 0.501961 0.392157 
0.0941176 0.501961 0.392157 0.0941176 0.501961 0.392157 
0.0941176 0.501961 0.392157 0.0941176 0.501961 0.392157 
0.0941176 0.501961 0.392157 0.0941176 0.501961 0.392157 
0.0941176 0.501961 0.392157 0.0941176 0.501961 0.392157 
0.0941176 0.501961 0.392157 0.0941176 0.501961 0.392157 
0.0941176 0.501961 0.392157 0.0941176 0.501961 0.392157 
0.0941176 0.501961 0.392157 0.0941176 0.501961 0.392157 
0.0941176 0.501961 0.392157 0.0941176 0.501961 0.392157 
0.0941176 0.501961 0.392157 0.0941176 0.501961 0.392157 
0.0941176 0.501961 0.392157 0.0941176 0.501961 0.392157 
0.0941176 0.501961 0.392157 0.0941176 0.501961 0.392157 
0.0941176 0.501961 0.392157 0.0941176 0.501961 0.392157 
0.0941176 0.501961 0.392157 0.0941176 0.501961 0.392157 
0.0941176 0.501961 0.392157 0.0941176 0.501961 0.392157 
0.0941176 0.501961 0.392157 0.0941176 0.501961 0.392157 
0.0941176 0.501961 0.392157 0.0941176 0.501961 0.392157 
0.0941176 0.501961 0.392157 0.0941176 0.501961 0.392157 
0.0941176 0.501961 0.392157 0.0941176 0.501961 0.392157 
0.0941176 0.501961 0.392157 0.0941176 0.501961 0.392157 
0.0941176 0.501961 0.392157 0.0941176 0.501961 0.392157 
0.0941176 0.501961 0.392157 0.0941176 0.501961 0.392157 
0.0941176 0.501961 0.392157 0.0941176 0.501961 0.392157 
0.0941176 0.501961 0.392157 0.0941176 0.501961 0.392157 
0.0941176 0.501961 0.392157 0.0941176 0.501961 0.392157 
0.0941176 0.501961 0.392157 0.0941176 0.501961 0.392157 
0.0941176 0.501961 0.392157 0.0941176 0.501961 0.392157 
0.0941176 0.501961 0.392157 0.0941176 0.501961 0.392157 
0.0941176 0.501961 0.392157 0.0941176 0.501961 0.392157 
0.0941176 0.501961 0.392157 0.0941176 0.501961 0.392157 
0.0941176 0.501961 0.392157 0.0941176 0.501961 0.392157 
0.0941176 0.501961 0.392157 0.0941176 0.501961 0.392157 
0.0941176 0.501961 0.392157 0.0941176 0.501961 0.392157 
0.0941176 0.501961 0.392157 0.0941176 0.501961 0.392157 
0.0941176 0.501961 0.392157 0.0941176 0.501961 0.392157 
0.0941176 0.501961 0.392157 0.0941176 0.501961 0.392157 
0.0941176 0.501961 0.392157 0.0941176 0.501961 0.392157 
0.0941176 0.501961 0.392157 0.0941176 0.501961 0.392157 
0.0941176 0.501961 0.392157 0.0941176 0.501961 0.392157 
0.0941176 0.501961 0.392157 0.0941176 0.501961 0.392157 
0.0941176 0.501961 0.392157 0.0941176 0.501961 0.392157 
0.0941176 0.501961 0.392157 0.0941176 0.501961 0.392157 
0.0941176 0.501961 0.392157 0.0941176 0.501961 0.392157 
0.0941176 0.501961 0.392157 0.0941176 0.501961 0.392157 
0.0941176 0.501961 0.392157 0.0941176 0.501961 0.392157 
0.0941176 0.501961 0.392157 0.0941176 0.501961 0.392157 
0.0941176 0.501961 0.392157 0.0941176 0.501961 0.392157 
0.0941176 0.501961 0.392157 0.0941176 0.501961 0.392157 
0.0941176 0.501961 0.392157 0.0941176 0.501961 0.392157 
0.0941176 0.501961 0.392157 0.0941176 0.501961 0.392157 
0.0941176 0.501961 0.392157 0.0941176 0.501961 0.392157 
0.0941176 0.501961 0.392157 0.0941176 0.501961 0.392157 
0.0941176 0.501961 0.392157 0.0941176 0.501961 0.392157 
0.0941176 0.501961 0.392157 0.0941176 0.501961 0.392157 
0.0941176 0.501961 0.392157 0.0941176 0.501961 0.392157 
0.0941176 0.501961 0.392157 0.0941176 0.501961 0.392157 
0.0941176 0.501961 0.392157 0.0941176 0.501961 0.392157 
0.0941176 0.501961 0.392157 0.0941176 0.501961 0.392157 
0.0941176 0.501961 0.392157 0.0941176 0.501961 0.392157 
0.0941176 0.501961 0.392157 0.0941176 0.501961 0.392157 
0.0941176 0.501961 0.392157 0.0941176 0.501961 0.392157 
0.0941176 0.501961 0.392157 0.0941176 0.501961 0.392157 
0.0941176 0.501961 0.392157 0.0941176 0.501961 0.392157 
0.0941176 0.501961 0.392157 0.0941176 0.501961 0.392157 
0.0941176 0.501961 0.392157 0.0941176 0.501961 0.392157 
0.0941176 0.501961 0.392157 0.0941176 0.501961 0.392157 
0.0941176 0.501961 0.392157 0.0941176 0.501961 0.392157 
0.0941176 0.501961 0.392157 0.0941176 0.501961 0.392157 
0.0941176 0.501961 0.392157 0.0941176 0.501961 0.392157 
0.0941176 0.501961 0.392157 0.0941176 0.501961 0.392157 
0.0941176 0.501961 0.392157 0.0941176 0.501961 0.392157 
0.0941176 0.501961 0.392157 0.0941176 0.501961 0.392157 
0.0941176 0.501961 0.392157 0.0941176 0.501961 0.392157 
0.0941176 0.501961 0.392157 0.0941176 0.501961 0.392157 
0.0941176 0.501961 0.392157 0.0941176 0.501961 0.392157 
0.0941176 0.501961 0.392157 0.0941176 0.501961 0.392157 
0.0941176 0.501961 0.392157 0.0941176 0.501961 0.392157 
0.0941176 0.501961 0.392157 0.0941176 0.501961 0.392157 
0.0941176 0.501961 0.392157 0.0941176 0.501961 0.392157 
0.0941176 0.501961 0.392157 0.0941176 0.501961 0.392157 
0.0941176 0.501961 0.392157 0.0941176 0.501961 0.392157 
0.0941176 0.501961 0.392157 0.0941176 0.501961 0.392157 
0.0941176 0.501961 0.392157 0.0941176 0.501961 0.392157 
0.0941176 0.501961 0.392157 0.0941176 0.501961 0.392157 
0.0941176 0.501961 0.392157 0.0941176 0.501961 0.392157 
0.0941176 0.501961 0.392157 0.0941176 0.501961 0.392157 
0.0941176 0.501961 0.392157 0.0941176 0.501961 0.392157 
0.0941176 0.501961 0.392157 0.0941176 0.501961 0.392157 
0.0941176 0.501961 0.392157 0.0941176 0.501961 0.392157 
0.0941176 0.501961 0.392157 0.0941176 0.501961 0.392157 
0.0941176 0.501961 0.392157 0.0941176 0.501961 0.392157 
0.0941176 0.501961 0.392157 0.0941176 0.501961 0.392157 
0.0941176 0.501961 0.392157 0.0941176 0.501961 0.392157 
0.0941176 0.501961 0.392157 0.0941176 0.501961 0.392157 
0.0941176 0.501961 0.392157 0.0941176 0.501961 0.392157 
0.0941176 0.501961 0.392157 0.0941176 0.501961 0.392157 
0.0941176 0.501961 0.392157 0.0941176 0.501961 0.392157 
0.0941176 0.501961 0.392157 0.0941176 0.501961 0.392157 
0.0941176 0.501961 0.392157 0.0941176 0.501961 0.392157 
0.0941176 0.501961 0.392157 0.0941176 0.501961 0.392157 
0.0941176 0.501961 0.392157 0.0941176 0.501961 0.392157 
0.0941176 0.501961 0.392157 0.0941176 0.501961 0.392157 
0.0941176 0.501961 0.392157 0.0941176 0.501961 0.392157 
0.0941176 0.501961 0.392157 0.0941176 0.501961 0.392157 
0.0941176 0.501961 0.392157 0.0941176 0.501961 0.392157 
0.0941176 0.501961 0.392157 0.0941176 0.501961 0.392157 
0.0941176 0.501961 0.392157 0.0941176 0.501961 0.392157 
0.0941176 0.501961 0.392157 0.0941176 0.501961 0.392157 
0.0941176 0.501961 0.392157 0.0941176 0.501961 0.392157 
0.0941176 0.501961 0.392157 0.0941176 0.501961 0.392157 
0.0941176 0.501961 0.392157 0.0941176 0.501961 0.392157 
0.0941176 0.501961 0.392157 0.0941176 0.501961 0.392157 
0.0941176 0.501961 0.392157 0.0941176 0.501961 0.392157 
0.0941176 0.501961 0.392157 0.0941176 0.501961 0.392157 
0.0941176 0.501961 0.392157 0.0941176 0.501961 0.392157 
0.0941176 0.501961 0.392157 0.0941176 0.501961 0.392157 
0.0941176 0.501961 0.392157 0.0941176 0.501961 0.392157 
0.0941176 0.501961 0.392157 0.0941176 0.501961 0.392157 
0.0941176 0.501961 0.392157 0.0941176 0.501961 0.392157 
0.0941176 0.501961 0.392157 0.0941176 0.501961 0.392157 
0.0941176 0.501961 0.392157 0.0941176 0.501961 0.392157 
0.0941176 0.501961 0.392157 0.0941176 0.501961 0.392157 
0.0941176 0.501961 0.392157 0.0941176 0.501961 0.392157 
0.0941176 0.501961 0.392157 0.0941176 0.501961 0.392157 
0.0941176 0.501961 0.392157 0.0941176 0.501961 0.392157 
0.0941176 0.501961 0.392157 0.0941176 0.501961 0.392157 
0.0941176 0.501961 0.392157 0.0941176 0.501961 0.392157 
0.0941176 0.501961 0.392157 0.0941176 0.501961 0.392157 
0.0941176 0.501961 0.392157 0.0941176 0.501961 0.392157 
0.0941176 0.501961 0.392157 0.0941176 0.501961 0.392157 
0.0941176 0.501961 0.392157 0.0941176 0.501961 0.392157 
0.0941176 0.501961 0.392157 0.0941176 0.501961 0.392157 
0.0941176 0.501961 0.392157 0.0941176 0.501961 0.392157 
0.0941176 0.501961 0.392157 0.0941176 0.501961 0.392157 
0.0941176 0.501961 0.392157 0.0941176 0.501961 0.392157 
0.0941176 0.501961 0.392157 0.0941176 0.501961 0.392157 
0.0941176 0.501961 0.392157 0.0941176 0.501961 0.392157 
0.0941176 0.501961 0.392157 0.0941176 0.501961 0.392157 
0.0941176 0.501961 0.392157 0.0941176 0.501961 0.392157 
0.0941176 0.501961 0.392157 0.0941176 0.501961 0.392157 
0.0941176 0.501961 0.392157 0.0941176 0.501961 0.392157 
0.0941176 0.501961 0.392157 0.0941176 0.501961 0.392157 
0.0941176 0.501961 0.392157 0.0941176 0.501961 0.392157 
0.0941176 0.501961 0.392157 0.0941176 0.501961 0.392157 
0.0941176 0.501961 0.392157 0.0941176 0.501961 0.392157 
0.0941176 0.501961 0.392157 0.0941176 0.501961 0.392157 
0.0941176 0.501961 0.392157 0.0941176 0.501961 0.392157 
0.0941176 0.501961 0.392157 0.0941176 0.501961 0.392157 
0.0941176 0.501961 0.392157 0.0941176 0.501961 0.392157 
0.0941176 0.501961 0.392157 0.0941176 0.501961 0.392157 
0.0941176 0.501961 0.392157 0.0941176 0.501961 0.392157 
0.0941176 0.501961 0.392157 0.0941176 0.501961 0.392157 
0.0941176 0.501961 0.392157 0.0941176 0.501961 0.392157 
0.0941176 0.501961 0.392157 0.0941176 0.501961 0.392157 
0.0941176 0.501961 0.392157 0.0941176 0.501961 0.392157 
0.0941176 0.501961 0.392157 0.0941176 0.501961 0.392157 
0.0941176 0.501961 0.392157 0.0941176 0.501961 0.392157 
0.0941176 0.501961 0.392157 0.0941176 0.501961 0.392157 
0.0941176 0.501961 0.392157 0.0941176 0.501961 0.392157 
0.0941176 0.501961 0.392157 0.0941176 0.501961 0.392157 
0.0941176 0.501961 0.392157 0.0941176 0.501961 0.392157 
0.0941176 0.501961 0.392157 0.0941176 0.501961 0.392157 
0.0941176 0.501961 0.392157 0.0941176 0.501961 0.392157 
0.0941176 0.501961 0.392157 0.0941176 0.501961 0.392157 
0.0941176 0.501961 0.392157 0.0941176 0.501961 0.392157 
0.0941176 0.501961 0.392157 0.0941176 0.501961 0.392157 
0.0941176 0.501961 0.392157 0.0941176 0.501961 0.392157 
0.0941176 0.501961 0.392157 0.0941176 0.501961 0.392157 
0.0941176 0.501961 0.392157 0.0941176 0.501961 0.392157 
0.0941176 0.501961 0.392157 0.0941176 0.501961 0.392157 
0.0941176 0.501961 0.392157 0.0941176 0.501961 0.392157 
0.0941176 0.501961 0.392157 0.0941176 0.501961 0.392157 
0.0941176 0.501961 0.392157 0.0941176 0.501961 0.392157 
0.0941176 0.501961 0.392157 0.0941176 0.501961 0.392157 
0.0941176 0.501961 0.392157 0.0941176 0.501961 0.392157 
0.0941176 0.501961 0.392157 0.0941176 0.501961 0.392157 
0.0941176 0.501961 0.392157 0.0941176 0.501961 0.392157 
0.0941176 0.501961 0.392157 0.0941176 0.501961 0.392157 
0.0941176 0.501961 0.392157 0.0941176 0.501961 0.392157 
0.0941176 0.501961 0.392157 0.0941176 0.501961 0.392157 
0.0941176 0.501961 0.392157 0.0941176 0.501961 0.392157 
0.0941176 0.501961 0.392157 0.0941176 0.501961 0.392157 
0.0941176 0.501961 0.392157 0.0941176 0.501961 0.392157 
0.0941176 0.501961 0.392157 0.0941176 0.501961 0.392157 
0.0941176 0.501961 0.392157 0.0941176 0.501961 0.392157 
0.0941176 0.501961 0.392157 0.0941176 0.501961 0.392157 
0.0941176 0.501961 0.392157 0.0941176 0.501961 0.392157 
0.0941176 0.501961 0.392157 0.0941176 0.501961 0.392157 
0.0941176 0.501961 0.392157 0.0941176 0.501961 0.392157 
0.0941176 0.501961 0.392157 0.0941176 0.501961 0.392157 
0.0941176 0.501961 0.392157 0.0941176 0.501961 0.392157 
0.0941176 0.501961 0.392157 0.0941176 0.501961 0.392157 
0.0941176 0.501961 0.392157 0.0941176 0.501961 0.392157 
0.0941176 0.501961 0.392157 0.0941176 0.501961 0.392157 
0.0941176 0.501961 0.392157 0.0941176 0.501961 0.392157 
0.0941176 0.501961 0.392157 0.0941176 0.501961 0.392157 
0.0941176 0.501961 0.392157 0.0941176 0.501961 0.392157 
0.0941176 0.501961 0.392157 0.0941176 0.501961 0.392157 
0.0941176 0.501961 0.392157 0.0941176 0.501961 0.392157 
0.0941176 0.501961 0.392157 0.0941176 0.501961 0.392157 
0.0941176 0.501961 0.392157 0.0941176 0.501961 0.392157 
0.0941176 0.501961 0.392157 0.0941176 0.501961 0.392157 
0.0941176 0.501961 0.392157 0.0941176 0.501961 0.392157 
0.0941176 0.501961 0.392157 0.0941176 0.501961 0.392157 
0.0941176 0.501961 0.392157 0.0941176 0.501961 0.392157 
0.0941176 0.501961 0.392157 0.0941176 0.501961 0.392157 
0.0941176 0.501961 0.392157 0.0941176 0.501961 0.392157 
0.0941176 0.501961 0.392157 0.0941176 0.501961 0.392157 
0.0941176 0.501961 0.392157 0.0941176 0.501961 0.392157 
0.0941176 0.501961 0.392157 0.0941176 0.501961 0.392157 
0.0941176 0.501961 0.392157 0.0941176 0.501961 0.392157 
0.0941176 0.501961 0.392157 0.0941176 0.501961 0.392157 
0.0941176 0.501961 0.392157 0.0941176 0.501961 0.392157 
0.0941176 0.501961 0.392157 0.0941176 0.501961 0.392157 
0.0941176 0.501961 0.392157 0.0941176 0.501961 0.392157 
0.0941176 0.501961 0.392157 0.0941176 0.501961 0.392157 
0.0941176 0.501961 0.392157 0.0941176 0.501961 0.392157 
0.0941176 0.501961 0.392157 0.0941176 0.501961 0.392157 
0.0941176 0.501961 0.392157 0.0941176 0.501961 0.392157 
0.0941176 0.501961 0.392157 0.0941176 0.501961 0.392157 
0.0941176 0.501961 0.392157 0.0941176 0.501961 0.392157 
0.0941176 0.501961 0.392157 0.0941176 0.501961 0.392157 
0.0941176 0.501961 0.392157 0.0941176 0.501961 0.392157 
0.0941176 0.501961 0.392157 0.0941176 0.501961 0.392157 
0.0941176 0.501961 0.392157 0.0941176 0.501961 0.392157 
0.0941176 0.501961 0.392157 0.0941176 0.501961 0.392157 
0.0941176 0.501961 0.392157 0.0941176 0.501961 0.392157 
0.0941176 0.501961 0.392157 0.0941176 0.501961 0.392157 
0.0941176 0.501961 0.392157 0.0941176 0.501961 0.392157 
0.0941176 0.501961 0.392157 0.0941176 0.501961 0.392157 
0.0941176 0.501961 0.392157 0.0941176 0.501961 0.392157 
0.0941176 0.501961 0.392157 0.0941176 0.501961 0.392157 
0.0941176 0.501961 0.392157 0.0941176 0.501961 0.392157 
0.0941176 0.501961 0.392157 0.0941176 0.501961 0.392157 
0.0941176 0.501961 0.392157 0.0941176 0.501961 0.392157 
0.0941176 0.501961 0.392157 0.0941176 0.501961 0.392157 
0.0941176 0.501961 0.392157 0.0941176 0.501961 0.392157 
0.0941176 0.501961 0.392157 0.0941176 0.501961 0.392157 
0.0941176 0.501961 0.392157 0.0941176 0.501961 0.392157 
0.0941176 0.501961 0.392157 0.0941176 0.501961 0.392157 
0.0941176 0.501961 0.392157 0.0941176 0.501961 0.392157 
0.0941176 0.501961 0.392157 0.0941176 0.501961 0.392157 
0.0941176 0.501961 0.392157 0.0941176 0.501961 0.392157 
0.0941176 0.501961 0.392157 0.0941176 0.501961 0.392157 
0.0941176 0.501961 0.392157 0.0941176 0.501961 0.392157 
0.0941176 0.501961 0.392157 0.0941176 0.501961 0.392157 
0.0941176 0.501961 0.392157 0.0941176 0.501961 0.392157 
0.0941176 0.501961 0.392157 0.0941176 0.501961 0.392157 
0.0941176 0.501961 0.392157 0.0941176 0.501961 0.392157 
0.0941176 0.501961 0.392157 0.0941176 0.501961 0.392157 
0.0941176 0.501961 0.392157 0.0941176 0.501961 0.392157 
0.0941176 0.501961 0.392157 0.0941176 0.501961 0.392157 
0.0941176 0.501961 0.392157 0.0941176 0.501961 0.392157 
0.0941176 0.501961 0.392157 0.0941176 0.501961 0.392157 
0.0941176 0.501961 0.392157 0.0941176 0.501961 0.392157 
0.0941176 0.501961 0.392157 0.0941176 0.501961 0.392157 
0.0941176 0.501961 0.392157 0.0941176 0.501961 0.392157 
0.0941176 0.501961 0.392157 0.0941176 0.501961 0.392157 
0.0941176 0.501961 0.392157 0.0941176 0.501961 0.392157 
0.0941176 0.501961 0.392157 0.0941176 0.501961 0.392157 
0.0941176 0.501961 0.392157 0.0941176 0.501961 0.392157 
0.0941176 0.501961 0.392157 0.0941176 0.501961 0.392157 
0.0941176 0.501961 0.392157 0.0941176 0.501961 0.392157 
0.0941176 0.501961 0.392157 0.0941176 0.501961 0.392157 
0.0941176 0.501961 0.392157 0.0941176 0.501961 0.392157 
0.0941176 0.501961 0.392157 0.0941176 0.501961 0.392157 
0.0941176 0.501961 0.392157 0.0941176 0.501961 0.392157 
0.0941176 0.501961 0.392157 0.0941176 0.501961 0.392157 
0.0941176 0.501961 0.392157 0.0941176 0.501961 0.392157 
0.0941176 0.501961 0.392157 0.0941176 0.501961 0.392157 
0.0941176 0.501961 0.392157 0.0941176 0.501961 0.392157 
0.0941176 0.501961 0.392157 0.0941176 0.501961 0.392157 
0.0941176 0.501961 0.392157 0.0941176 0.501961 0.392157 
0.0941176 0.501961 0.392157 0.0941176 0.501961 0.392157 
0.0941176 0.501961 0.392157 0.0941176 0.501961 0.392157 
0.0941176 0.501961 0.392157 0.0941176 0.501961 0.392157 
0.0941176 0.501961 0.392157 0.0941176 0.501961 0.392157 
0.0941176 0.501961 0.392157 0.0941176 0.501961 0.392157 
0.0941176 0.501961 0.392157 0.0941176 0.501961 0.392157 
0.0941176 0.501961 0.392157 0.0941176 0.501961 0.392157 
0.0941176 0.501961 0.392157 0.0941176 0.501961 0.392157 
0.0941176 0.501961 0.392157 0.0941176 0.501961 0.392157 
0.0941176 0.501961 0.392157 0.0941176 0.501961 0.392157 
0.0941176 0.501961 0.392157 0.0941176 0.501961 0.392157 
0.0941176 0.501961 0.392157 0.0941176 0.501961 0.392157 
0.0941176 0.501961 0.392157 0.0941176 0.501961 0.392157 
0.0941176 0.501961 0.392157 0.0941176 0.501961 0.392157 
0.0941176 0.501961 0.392157 0.0941176 0.501961 0.392157 
0.0941176 0.501961 0.392157 0.0941176 0.501961 0.392157 
0.0941176 0.501961 0.392157 0.0941176 0.501961 0.392157 
0.0941176 0.501961 0.392157 0.0941176 0.501961 0.392157 
0.0941176 0.501961 0.392157 0.0941176 0.501961 0.392157 
0.0941176 0.501961 0.392157 0.0941176 0.501961 0.392157 
0.0941176 0.501961 0.392157 0.0941176 0.501961 0.392157 
0.0941176 0.501961 0.392157 0.0941176 0.501961 0.392157 
0.0941176 0.501961 0.392157 0.0941176 0.501961 0.392157 
0.0941176 0.501961 0.392157 0.0941176 0.501961 0.392157 
0.0941176 0.501961 0.392157 0.0941176 0.501961 0.392157 
0.0941176 0.501961 0.392157 0.0941176 0.501961 0.392157 
0.0941176 0.501961 0.392157 0.0941176 0.501961 0.392157 
0.0941176 0.501961 0.392157 0.0941176 0.501961 0.392157 