# vtk DataFile Version 4.2
vtk output
ASCII
DATASET POLYDATA
POINTS 998 float
272.25 28.428 134.569 273.965 28.6277 134.409 274.361 28.3121 134.515 
275.93 28.7214 134.669 275.659 28.3625 134.709 276.131 28.4639 134.962 
270.058 28.9959 134.949 270.709 28.4688 134.836 272.794 29.0593 134.46 
275.706 29.0364 134.548 276.283 28.8109 134.867 276.48 29.0857 135.032 
275.457 29.3455 134.535 274.977 27.8982 134.873 275.828 28.163 134.934 
275.694 27.9449 135.113 271.872 27.8557 135.02 273.456 27.7707 134.953 
276.397 28.4217 135.455 268.115 28.6708 135.64 269.984 28.2804 135.145 
276.676 29.0702 135.374 270.522 29.4819 135.008 271.574 29.9675 135.107 
273.562 29.8558 134.727 275.982 29.7841 134.892 275.785 30.0377 135.019 
276.307 29.6598 135.041 274.662 30.1612 134.918 276.481 29.8764 135.398 
272.58 27.2912 135.607 274.697 27.6755 135.109 275.331 27.5405 135.703 
275.732 27.801 135.515 276.167 28.0358 135.821 264.476 28.9222 136.991 
264.128 29.0166 137.192 264.731 28.6929 136.944 266.711 29.0219 136.181 
276.688 28.7964 135.644 267.173 29.4175 136.169 269.302 29.7493 135.651 
276.711 29.9587 135.918 276.17 30.6482 136.063 276.553 30.4165 136.188 
268.303 27.903 136.106 263.372 28.9279 137.727 263.198 29.0199 137.96 
263.563 28.7024 137.677 263.966 28.5192 137.482 265.838 28.2317 136.851 
263.471 29.1212 137.729 264.445 29.445 137.346 272.334 30.9065 136.096 
276.834 30.3557 136.766 274.132 26.7036 137.142 268.006 27.2772 137.16 
276.214 27.7347 137.273 276.284 31.3052 137.275 276.51 31.5057 137.919 
274.687 26.6487 137.734 264.749 27.8091 137.977 276.823 31.4286 138.473 
275.859 32.2423 138.53 266.67 26.8049 138.846 276.456 27.8133 138.839 
262.369 28.8236 139.853 262.771 28.2288 139.282 263.169 29.5499 139.22 
277.288 30.1754 139.471 277.248 30.6679 139.049 277.114 31.2609 139.174 
261.941 28.4395 140.708 277.031 28.6987 139.996 276.333 33.1932 140.486 
276.134 33.4055 140.65 276.712 32.8902 140.639 263.001 26.9945 141.15 
261.685 27.4939 141.84 263.005 29.9049 141.537 277.327 31.2652 140.488 
275.787 33.6119 140.905 277.077 32.7686 141.392 276.389 33.7154 141.586 
276.196 33.9313 141.911 274.178 25.4283 141.92 260.936 28.0508 142.419 
261.501 28.7569 142.093 277.067 29.3881 141.773 269.949 32.6593 141.462 
277.313 32.2816 141.985 277.278 32.4299 141.618 274.431 33.9217 141.529 
276.977 33.2148 142.182 276.738 33.6025 142.166 276.143 34.0513 142.481 
276.54 33.8336 142.476 260.344 27.1943 144.327 261.074 27.2634 143.171 
262.051 26.4701 143.217 260.427 27.424 144.122 260.775 27.7869 143.498 
277.113 32.8897 142.694 273.779 34.7299 143.759 275.094 25.7982 144.045 
263.395 25.7855 143.589 260.214 27.0895 144.653 260.188 26.9073 145.009 
260.107 27.1207 144.937 275.838 26.8321 143.641 273.18 34.9093 144.488 
273.674 34.9284 144.234 273.647 34.9671 144.463 273.909 34.8985 144.198 
274.344 34.758 144.305 273.791 34.9663 144.32 272.538 24.1102 145.461 
260.279 26.6624 145.37 276.642 33.3488 145.038 271.878 35.0863 145.285 
273.647 34.9233 144.898 273.881 34.9357 144.427 260.28 26.5068 146.057 
269.225 34.3924 145.95 270.077 34.95 146.253 260.79 25.6202 147.199 
276.513 30.1824 146.882 269.511 34.86 146.784 269.895 35.0157 146.892 
271.405 23.3158 147.831 261.692 25.0072 147.599 260.168 25.8811 148.16 
260.04 26.0654 148.082 260.561 27.7242 147.94 268.283 34.4898 148.412 
270.408 35.0334 147.768 271.863 23.1146 149.27 260.439 25.4716 148.699 
260.091 26.5224 148.598 260.149 26.8539 148.316 270.111 22.671 150.426 
260.172 25.1809 150.311 260.01 25.3594 150.286 260.458 24.9928 150.236 
260.034 25.8827 149.719 266.37 33.4083 149.707 267.586 34.2163 149.138 
269.409 34.5742 150.565 267.538 22.896 150.539 272.866 23.3846 150.539 
260.032 25.2931 150.512 264.247 31.344 150.808 269.318 34.4293 151.368 
267.825 34.3178 150.117 261.874 24.445 151.65 260.064 25.3385 150.702 
260.19 25.2811 150.899 260.412 25.1044 151.009 260.3 25.937 150.78 
263.535 30.1333 151.843 275.419 31.2054 151.622 274.882 32.4518 151.548 
274.586 32.6728 151.813 266.899 33.8152 151.778 268.37 34.1769 152.131 
269.661 34.3344 151.85 271.353 34.1954 151.658 271.648 22.5688 152.146 
272.506 22.878 152.837 273 23.2227 152.652 263.242 24.1668 152.822 
265.563 23.3235 153.449 261.086 24.9447 152.01 260.941 24.9576 151.942 
261.173 24.7549 151.557 261.429 24.7965 152.01 274.195 24.8291 152.639 
260.379 25.3195 151.144 260.877 24.9903 151.846 260.768 25.1053 151.537 
261.272 26.3785 151.918 263.056 28.7166 152.703 263.226 29.5125 152.134 
274.727 31.8989 152.97 273.395 23.6328 153.375 261.296 25.099 152.152 
261.823 24.9671 152.428 263.362 24.2365 153.265 263.147 24.5279 153.244 
261.062 25.4778 151.929 262.696 25.7413 153.26 274.642 26.3773 153.893 
275.13 29.0398 153.892 266.709 33.2967 153.681 267.895 33.8097 153.417 
267.818 22.3254 154.962 272.652 22.9201 155.026 265.68 23.8923 154.912 
267.081 22.7337 154.944 266.077 23.9722 155.693 265.606 31.9958 154.407 
271.573 33.1125 154.889 269.224 33.7139 154.139 266.432 24.1559 156.7 
273.817 25.0898 156.571 265.829 27.0001 156.351 274.543 30.4928 155.388 
266.484 32.4492 155.344 271.276 32.9833 155.451 266.632 32.8565 155.193 
267.867 33.2537 155.104 266.739 33.0285 154.959 267.194 33.1943 154.936 
267.415 22.1688 157.387 267.185 22.4131 157.295 267.082 22.6249 157.027 
266.629 23.6768 156.913 266.678 25.6971 157.642 274.453 29.9622 156.227 
266.948 32.577 155.73 267.007 32.896 155.563 267.472 32.8924 155.64 
267.062 33.0301 155.397 267.055 22.6204 157.552 273.895 30.5177 157.176 
267.895 31.1105 157.534 273.143 31.1306 157.617 267.954 31.6019 157.273 
270.494 32.0911 157.606 266.902 32.9766 155.445 267.347 26.057 158.985 
267.723 28.1758 158.686 274.073 27.3594 158.212 268.569 32.0464 157.186 
270.825 21.0699 160.144 266.959 21.7085 160.631 272.522 23.2005 160.276 
269.285 29.8273 159.409 272.761 30.3783 159.33 270.418 20.8682 160.674 
271.369 21.5287 160.864 266.688 22.7024 161.185 266.826 23.3004 161.235 
267.028 23.8062 160.721 267.571 25.0113 160.75 273.111 25.2978 160.607 
269.161 28.1445 160.495 273.126 29.4363 160.126 271.317 29.8038 160.587 
268.407 20.4967 161.838 269.139 20.4002 162.589 271.238 21.6632 162.445 
268.421 25.4727 162.25 269.008 26.3652 161.861 273.4 27.8977 160.549 
271.417 29.1987 161.28 273.131 28.7138 160.806 270.223 20.8192 162.61 
266.176 22.5704 162.926 266.886 23.6847 162.894 268.598 25.1146 163.382 
269.666 26.0078 162.987 272.723 25.8298 161.732 272.241 26.6287 162.261 
271.621 28.1311 162.004 271.916 28.3194 161.888 272.897 28.7625 161.127 
272.738 29.0716 161.096 270.586 21.3077 164.13 265.371 21.1938 164.392 
271.535 22.46 163.225 266.671 23.6581 164.167 272.337 28.2844 161.725 
272.322 28.8299 161.508 268.43 20.0351 164.9 264.398 21.7696 165.444 
265.04 22.1923 164.795 265.036 22.7224 165.307 271.499 23.1018 163.888 
267.22 24.0897 165.592 271.585 24.3344 163.67 269.161 24.9206 164.467 
270.494 25.6339 163.709 262.99 21.2092 166.87 264.211 22.6311 166.161 
270.985 24.5484 164.317 268.636 19.9133 166.362 259.354 21.2183 168.929 
259.064 21.0565 169.278 258.858 21.341 169.13 261.83 21.3939 167.594 
261.788 21.899 167.571 268.547 24.1629 166.875 269.794 24.0053 166.162 
265.285 19.5991 168.394 269.704 21.0045 167.864 259.038 20.8291 169.681 
269.986 21.55 167.641 258.277 21.6749 169.405 262.75 23.2073 168.305 
268.709 20.2316 169.309 260.231 20.4657 169.712 255.363 22.132 170.713 
254.944 22.3138 170.906 269.825 22.2336 168.337 255.426 22.4057 170.699 
257.126 22.4819 170.143 264.379 23.9243 168.947 267.727 19.715 169.77 
257.036 21.2557 170.579 257.85 20.751 171.124 254.22 22.0729 171.606 
253.909 22.431 171.543 254.06 22.6461 171.404 255.534 22.7955 170.869 
253.843 23.0645 171.693 254.825 23.1482 171.384 256.784 23.2624 171.157 
266.214 24.3529 170.157 268.692 23.6766 169.247 268.76 20.7449 170.676 
253.416 22.4032 172.03 254.465 21.7137 171.916 252.449 22.9567 172.509 
252.177 22.9019 172.839 252.22 23.0776 172.663 253.545 23.4979 172.074 
257.437 23.481 171.718 254.443 23.9431 172.458 255.447 23.8128 172.265 
267.658 20.0164 171.956 252.611 22.3151 172.978 251.862 22.9988 173.361 
251.808 23.2852 173.307 252.163 22.5963 173.273 252.013 23.4294 173.02 
252.268 23.574 172.846 254.093 24.2207 172.911 253.766 24.3103 173.179 
265.853 19.4102 171.991 267.152 19.7983 172.342 267.933 20.6023 172.925 
252.066 22.3811 173.855 252.954 21.7399 173.896 254.195 21.3722 173.35 
268.632 22.0779 172.549 251.881 23.756 173.68 258.964 23.4392 173.127 
252.297 23.9856 173.585 254.638 24.2851 173.223 268.247 23.7928 172.767 
254.132 24.4366 173.787 254.545 24.3594 173.626 268.073 21.2944 173.649 
252.199 21.9657 174.926 251.396 22.6444 175.182 251.326 23.1179 174.906 
268.322 22.3944 173.727 268.453 22.6332 173.316 251.671 23.6087 173.969 
258.063 23.3746 173.889 266.071 24.4403 173.434 268.282 23.641 172.92 
267.133 24.239 173.407 267.05 20.0756 173.812 260.702 20.2734 174.148 
267.098 20.485 174.619 254.494 21.1681 174.51 255.989 21.0488 174.891 
251.696 22.232 175.395 251.121 22.9373 175.521 250.996 23.0161 175.954 
258.131 22.8366 174.98 251.088 23.1626 175.597 251.263 23.4656 175.525 
256.973 23.0594 175.328 263.352 23.6492 174.711 268.042 23.3113 174.215 
267.939 23.1606 174.52 251.614 23.8252 175.131 251.991 24.1087 174.856 
254.833 24.2058 174.622 266.067 24.1911 174.419 267.946 23.5801 173.949 
267.573 23.7453 174.267 265.202 19.9381 174.979 265.691 19.8551 174.698 
266.271 19.9968 174.637 261.705 20.4789 175.402 266.936 20.5522 174.938 
255.1 21.2156 175.742 255.812 21.2001 175.517 257.463 21.2533 175.224 
251.588 22.1744 176.169 258.058 22.5013 175.36 257.389 22.3008 175.749 
258.408 22.0163 175.498 259.053 22.322 175.3 260.026 22.2062 175.402 
260.599 21.7502 175.681 267.273 22.2185 175.325 267.325 21.7585 175.217 
251.008 22.7058 176.846 267.916 22.867 174.619 263.937 23.4016 175.348 
267.508 23.5083 174.726 252.248 24.2044 175.94 254.55 23.9875 175.949 
266.316 24.0723 174.692 253.015 24.4297 175.387 265.3 20.1722 175.373 
[...]
POINT_DATA 998
COLOR_SCALARS scalars 3
0.0941176 0.501961 0.392157 0.0941176 0.501961 0.392157 0.0941176 0.501961 0.392157 
0.0941176 0.501961 0.392157 0.0941176 0.501961 0.392157 
0.0941176 0.501961 0.392157 0.0941176 0.501961 0.392157 
0.0941176 0.501961 0.392157 0.0941176 0.501961 0.392157 
0.0941176 0.501961 0.392157 0.0941176 0.501961 0.392157 
0.0941176 0.501961 0.392157 0.0941176 0.501961 0.392157 
0.0941176 0.501961 0.392157 0.0941176 0.501961 0.392157 
0.0941176 0.501961 0.392157 0.0941176 0.501961 0.392157 
0.0941176 0.501961 0.392157 0.0941176 0.501961 0.392157 
0.0941176 0.501961 0.392157 0.0941176 0.501961 0.392157 
0.0941176 0.501961 0.392157 0.0941176 0.501961 0.392157 
0.0941176 0.501961 0.392157 0.0941176 0.501961 0.392157 
0.0941176 0.501961 0.392157 0.0941176 0.501961 0.392157 
0.0941176 0.501961 0.392157 0.0941176 0.501961 0.392157 
0.0941176 0.501961 0.392157 0.0941176 0.501961 0.392157 
0.0941176 0.501961 0.392157 0.0941176 0.501961 0.392157 
0.0941176 0.501961 0.392157 0.0941176 0.501961 0.392157 
0.0941176 0.501961 0.392157 0.0941176 0.501961 0.392157 
0.0941176 0.501961 0.392157 0.0941176 0.501961 0.392157 
0.0941176 0.501961 0.392157 0.0941176 0.501961 0.392157 
0.0941176 0.501961 0.392157 0.0941176 0.501961 0.392157 
0.0941176 0.501961 0.392157 0.0941176 0.501961 0.392157 
0.0941176 0.501961 0.392157 0.0941176 0.501961 0.392157 
0.0941176 0.501961 0.392157 0.0941176 0.501961 0.392157 
0.0941176 0.501961 0.392157 0.0941176 0.501961 0.392157 
0.0941176 0.501961 0.392157 0.0941176 0.501961 0.392157 
0.0941176 0.501961 0.392157 0.0941176 0.501961 0.392157 
0.0941176 0.501961 0.392157 0.0941176 0.501961 0.392157 
0.0941176 0.501961 0.392157 0.0941176 0.501961 0.392157 
0.0941176 0.501961 0.392157 0.0941176 0.501961 0.392157 
0.0941176 0.501961 0.392157 0.0941176 0.501961 0.392157 
0.0941176 0.501961 0.392157 0.0941176 0.501961 0.392157 
0.0941176 0.501961 0.392157 0.0941176 0.501961 0.392157 
0.0941176 0.501961 0.392157 0.0941176 0.501961 0.392157 
0.0941176 0.501961 0.392157 0.0941176 0.501961 0.392157 
0.0941176 0.501961 0.392157 0.0941176 0.501961 0.392157 
0.0941176 0.501961 0.392157 0.0941176 0.501961 0.392157 
0.0941176 0.501961 0.392157 0.0941176 0.501961 0.392157 
0.0941176 0.501961 0.392157 0.0941176 0.501961 0.392157 
0.0941176 0.501961 0.392157 0.0941176 0.501961 0.392157 
0.0941176 0.501961 0.392157 0.0941176 0.501961 0.392157 
0.0941176 0.501961 0.392157 0.0941176 0.501961 0.392157 
0.0941176 0.501961 0.392157 0.0941176 0.501961 0.392157 
0.0941176 0.501961 0.392157 0.0941176 0.501961 0.392157 
0.0941176 0.501961 0.392157 0.0941176 0.501961 0.392157 
0.0941176 0.501961 0.392157 0.0941176 0.501961 0.392157 
0.0941176 0.501961 0.392157 0.0941176 0.501961 0.392157 
0.0941176 0.501961 0.392157 0.0941176 0.501961 0.392157 
0.0941176 0.501961 0.392157 0.0941176 0.501961 0.392157 
0.0941176 0.501961 0.392157 0.0941176 0.501961 0.392157 
0.0941176 0.501961 0.392157 0.0941176 0.501961 0.392157 
0.0941176 0.501961 0.392157 0.0941176 0.501961 0.392157 
0.0941176 0.501961 0.392157 0.0941176 0.501961 0.392157 
0.0941176 0.501961 0.392157 0.0941176 0.501961 0.392157 
0.0941176 0.501961 0.392157 0.0941176 0.501961 0.392157 
0.0941176 0.501961 0.392157 0.0941176 0.501961 0.392157 
0.0941176 0.501961 0.392157 0.0941176 0.501961 0.392157 
0.0941176 0.501961 0.392157 0.0941176 0.501961 0.392157 
0.0941176 0.501961 0.392157 0.0941176 0.501961 0.392157 
0.0941176 0.501961 0.392157 0.0941176 0.501961 0.392157 
0.0941176 0.501961 0.392157 0.0941176 0.501961 0.392157 
0.0941176 0.501961 0.392157 0.0941176 0.501961 0.392157 
0.0941176 0.501961 0.392157 0.0941176 0.501961 0.392157 
0.0941176 0.501961 0.392157 0.0941176 0.501961 0.392157 
0.0941176 0.501961 0.392157 0.0941176 0.501961 0.392157 
0.0941176 0.501961 0.392157 0.0941176 0.501961 0.392157 
0.0941176 0.501961 0.392157 0.0941176 0.501961 0.392157 
0.0941176 0.501961 0.392157 0.0941176 0.501961 0.392157 
0.0941176 0.501961 0.392157 0.0941176 0.501961 0.392157 
0.0941176 0.501961 0.392157 0.0941176 0.501961 0.392157 
0.0941176 0.501961 0.392157 0.0941176 0.501961 0.392157 
0.0941176 0.501961 0.392157 0.0941176 0.501961 0.392157 
0.0941176 0.501961 0.392157 0.0941176 0.501961 0.392157 
0.0941176 0.501961 0.392157 0.0941176 0.501961 0.392157 
0.0941176 0.501961 0.392157 0.0941176 0.501961 0.392157 
0.0941176 0.501961 0.392157 0.0941176 0.501961 0.392157 
0.0941176 0.501961 0.392157 0.0941176 0.501961 0.392157 
0.0941176 0.501961 0.392157 0.0941176 0.501961 0.392157 
0.0941176 0.501961 0.392157 0.0941176 0.501961 0.392157 
0.0941176 0.501961 0.392157 0.0941176 0.501961 0.392157 
0.0941176 0.501961 0.392157 0.0941176 0.501961 0.392157 
0.0941176 0.501961 0.392157 0.0941176 0.501961 0.392157 
0.0941176 0.501961 0.392157 0.0941176 0.501961 0.392157 
0.0941176 0.501961 0.392157 0.0941176 0.501961 0.392157 
0.0941176 0.501961 0.392157 0.0941176 0.501961 0.392157 
0.0941176 0.501961 0.392157 0.0941176 0.501961 0.392157 
0.0941176 0.501961 0.392157 0.0941176 0.501961 0.392157 
0.0941176 0.501961 0.392157 0.0941176 0.501961 0.392157 
0.0941176 0.501961 0.392157 0.0941176 0.501961 0.392157 
0.0941176 0.501961 0.392157 0.0941176 0.501961 0.392157 
0.0941176 0.501961 0.392157 0.0941176 0.501961 0.392157 
0.0941176 0.501961 0.392157 0.0941176 0.501961 0.392157 
0.0941176 0.501961 0.392157 0.0941176 0.501961 0.392157 
0.0941176 0.501961 0.392157 0.0941176 0.501961 0.392157 
0.0941176 0.501961 0.392157 0.0941176 0.501961 0.392157 
0.0941176 0.501961 0.392157 0.0941176 0.501961 0.392157 
0.0941176 0.501961 0.392157 0.0941176 0.501961 0.392157 
0.0941176 0.501961 0.392157 0.0941176 0.501961 0.392157 
0.0941176 0.501961 0.392157 0.0941176 0.501961 0.392157 
0.0941176 0.501961 0.392157 0.0941176 0.501961 0.392157 
0.0941176 0.501961 0.392157 0.0941176 0.501961 0.392157 
0.0941176 0.501961 0.392157 0.0941176 0.501961 0.392157 
0.0941176 0.501961 0.392157 0.0941176 0.501961 0.392157 
0.0941176 0.501961 0.392157 0.0941176 0.501961 0.392157 
0.0941176 0.501961 0.392157 0.0941176 0.501961 0.392157 
0.0941176 0.501961 0.392157 0.0941176 0.501961 0.392157 
0.0941176 0.501961 0.392157 0.0941176 0.501961 0.392157 
0.0941176 0.501961 0.392157 0.0941176 0.501961 0.392157 
0.0941176 0.501961 0.392157 0.0941176 0.501961 0.392157 
0.0941176 0.501961 0.392157 0.0941176 0.501961 0.392157 
0.0941176 0.501961 0.392157 0.0941176 0.501961 0.392157 
0.0941176 0.501961 0.392157 0.0941176 0.501961 0.392157 
0.0941176 0.501961 0.392157 0.0941176 0.501961 0.392157 
0.0941176 0.501961 0.392157 0.0941176 0.501961 0.392157 
0.0941176 0.501961 0.392157 0.0941176 0.501961 0.392157 
0.0941176 0.501961 0.392157 0.0941176 0.501961 0.392157 
0.0941176 0.501961 0.392157 0.0941176 0.501961 0.392157 
0.0941176 0.501961 0.392157 0.0941176 0.501961 0.392157 
0.0941176 0.501961 0.392157 0.0941176 0.501961 0.392157 
0.0941176 0.501961 0.392157 0.0941176 0.501961 0.392157 
0.0941176 0.501961 0.392157 0.0941176 0.501961 0.392157 
0.0941176 0.501961 0.392157 0.0941176 0.501961 0.392157 
0.0941176 0.501961 0.392157 0.0941176 0.501961 0.392157 
0.0941176 0.501961 0.392157 0.0941176 0.501961 0.392157 
0.0941176 0.501961 0.392157 0.0941176 0.501961 0.392157 
0.0941176 0.501961 0.392157 0.0941176 0.501961 0.392157 
0.0941176 0.501961 0.392157 0.0941176 0.501961 0.392157 
0.0941176 0.501961 0.392157 0.0941176 0.501961 0.392157 
0.0941176 0.501961 0.392157 0.0941176 0.501961 0.392157 
0.0941176 0.501961 0.392157 0.0941176 0.501961 0.392157 
0.0941176 0.501961 0.392157 0.0941176 0.501961 0.392157 
0.0941176 0.501961 0.392157 0.0941176 0.501961 0.392157 
0.0941176 0.501961 0.392157 0.0941176 0.501961 0.392157 
0.0941176 0.501961 0.392157 0.0941176 0.501961 0.392157 
0.0941176 0.501961 0.392157 0.0941176 0.501961 0.392157 
0.0941176 0.501961 0.392157 0.0941176 0.501961 0.392157 
0.0941176 0.501961 0.392157 0.0941176 0.501961 0.392157 
0.0941176 0.501961 0.392157 0.0941176 0.501961 0.392157 
0.0941176 0.501961 0.392157 0.0941176 0.501961 0.392157 
0.0941176 0.501961 0.392157 0.0941176 0.501961 0.392157 
0.0941176 0.501961 0.392157 0.0941176 0.501961 0.392157 
0.0941176 0.501961 0.392157 0.0941176 0.501961 0.392157 
0.0941176 0.501961 0.392157 0.0941176 0.501961 0.392157 
0.0941176 0.501961 0.392157 0.0941176 0.501961 0.392157 
0.0941176 0.501961 0.392157 0.0941176 0.501961 0.392157 
0.0941176 0.501961 0.392157 0.0941176 0.501961 0.392157 
0.0941176 0.501961 0.392157 0.0941176 0.501961 0.392157 
0.0941176 0.501961 0.392157 0.0941176 0.501961 0.392157 
0.0941176 0.501961 0.392157 0.0941176 0.501961 0.392157 
0.0941176 0.501961 0.392157 0.0941176 0.501961 0.392157 
0.0941176 0.501961 0.392157 0.0941176 0.501961 0.392157 
0.0941176 0.501961 0.392157 0.0941176 0.501961 0.392157 
0.0941176 0.501961 0.392157 0.0941176 0.501961 0.392157 
0.0941176 0.501961 0.392157 0.0941176 0.501961 0.392157 
0.0941176 0.501961 0.392157 0.0941176 0.501961 0.392157 
0.0941176 0.501961 0.392157 0.0941176 0.501961 0.392157 
0.0941176 0.501961 0.392157 0.0941176 0.501961 0.392157 
0.0941176 0.501961 0.392157 0.0941176 0.501961 0.392157 
0.0941176 0.501961 0.392157 0.0941176 0.501961 0.392157 
0.0941176 0.501961 0.392157 0.0941176 0.501961 0.392157 
0.0941176 0.501961 0.392157 0.0941176 0.501961 0.392157 
0.0941176 0.501961 0.392157 0.0941176 0.501961 0.392157 
0.0941176 0.501961 0.392157 0.0941176 0.501961 0.392157 
0.0941176 0.501961 0.392157 0.0941176 0.501961 0.392157 
0.0941176 0.501961 0.392157 0.0941176 0.501961 0.392157 
0.0941176 0.501961 0.392157 0.0941176 0.501961 0.392157 
0.0941176 0.501961 0.392157 0.0941176 0.501961 0.392157 
0.0941176 0.501961 0.392157 0.0941176 0.501961 0.392157 
0.0941176 0.501961 0.392157 0.0941176 0.501961 0.392157 
0.0941176 0.501961 0.392157 0.0941176 0.501961 0.392157 
0.0941176 0.501961 0.392157 0.0941176 0.501961 0.392157 
0.0941176 0.501961 0.392157 0.0941176 0.501961 0.392157 
0.0941176 0.501961 0.392157 0.0941176 0.501961 0.392157 
0.0941176 0.501961 0.392157 0.0941176 0.501961 0.392157 
0.0941176 0.501961 0.392157 0.0941176 0.501961 0.392157 
0.0941176 0.501961 0.392157 0.0941176 0.501961 0.392157 
0.0941176 0.501961 0.392157 0.0941176 0.501961 0.392157 
0.0941176 0.501961 0.392157 0.0941176 0.501961 0.392157 
0.0941176 0.501961 0.392157 0.0941176 0.501961 0.392157 
0.0941176 0.501961 0.392157 0.0941176 0.501961 0.392157 
0.0941176 0.501961 0.392157 0.0941176 0.501961 0.392157 
0.0941176 0.501961 0.392157 0.0941176 0.501961 0.392157 
0.0941176 0.501961 0.392157 0.0941176 0.501961 0.392157 
0.0941176 0.501961 0.392157 0.0941176 0.501961 0.392157 
0.0941176 0.501961 0.392157 0.0941176 0.501961 0.392157 
0.0941176 0.501961 0.392157 0.0941176 0.501961 0.392157 
0.0941176 0.501961 0.392157 0.0941176 0.501961 0.392157 
0.0941176 0.501961 0.392157 0.0941176 0.501961 0.392157 
0.0941176 0.501961 0.392157 0.0941176 0.501961 0.392157 
0.0941176 0.501961 0.392157 0.0941176 0.501961 0.392157 
0.0941176 0.501961 0.392157 0.0941176 0.501961 0.392157 
0.0941176 0.501961 0.392157 0.0941176 0.501961 0.392157 
0.0941176 0.501961 0.392157 0.0941176 0.501961 0.392157 
0.0941176 0.501961 0.392157 0.0941176 0.501961 0.392157 
0.0941176 0.501961 0.392157 0.0941176 0.501961 0.392157 
0.0941176 0.501961 0.392157 0.0941176 0.501961 0.392157 
0.0941176 0.501961 0.392157 0.0941176 0.501961 0.392157 
0.0941176 0.501961 0.392157 0.0941176 0.501961 0.392157 
0.0941176 0.501961 0.392157 0.0941176 0.501961 0.392157 
0.0941176 0.501961 0.392157 0.0941176 0.501961 0.392157 
0.0941176 0.501961 0.392157 0.0941176 0.501961 0.392157 
0.0941176 0.501961 0.392157 0.0941176 0.501961 0.392157 
0.0941176 0.501961 0.392157 0.0941176 0.501961 0.392157 
0.0941176 0.501961 0.392157 0.0941176 0.501961 0.392157 
0.0941176 0.501961 0.392157 0.0941176 0.501961 0.392157 
0.0941176 0.501961 0.392157 0.0941176 0.501961 0.392157 
0.0941176 0.501961 0.392157 0.0941176 0.501961 0.392157 
0.0941176 0.501961 0.392157 0.0941176 0.501961 0.392157 
0.0941176 0.501961 0.392157 0.0941176 0.501961 0.392157 
0.0941176 0.501961 0.392157 0.0941176 0.501961 0.392157 
0.0941176 0.501961 0.392157 0.0941176 0.501961 0.392157 
0.0941176 0.501961 0.392157 0.0941176 0.501961 0.392157 
0.0941176 0.501961 0.392157 0.0941176 0.501961 0.392157 
0.0941176 0.501961 0.392157 0.0941176 0.501961 0.392157 
0.0941176 0.501961 0.392157 0.0941176 0.501961 0.392157 
0.0941176 0.501961 0.392157 0.0941176 0.501961 0.392157 
0.0941176 0.501961 0.392157 0.0941176 0.501961 0.392157 
0.0941176 0.501961 0.392157 0.0941176 0.501961 0.392157 
0.0941176 0.501961 0.392157 0.0941176 0.501961 0.392157 
0.0941176 0.501961 0.392157 0.0941176 0.501961 0.392157 
0.0941176 0.501961 0.392157 0.0941176 0.501961 0.392157 
0.0941176 0.501961 0.392157 0.0941176 0.501961 0.392157 
0.0941176 0.501961 0.392157 0.0941176 0.501961 0.392157 
0.0941176 0.501961 0.392157 0.0941176 0.501961 0.392157 
0.0941176 0.501961 0.392157 0.0941176 0.501961 0.392157 
0.0941176 0.501961 0.392157 0.0941176 0.501961 0.392157 
0.0941176 0.501961 0.392157 0.0941176 0.501961 0.392157 
0.0941176 0.501961 0.392157 0.0941176 0.501961 0.392157 
0.0941176 0.501961 0.392157 0.0941176 0.501961 0.392157 
0.0941176 0.501961 0.392157 0.0941176 0.501961 0.392157 
0.0941176 0.501961 0.392157 0.0941176 0.501961 0.392157 
0.0941176 0.501961 0.392157 0.0941176 0.501961 0.392157 
0.0941176 0.501961 0.392157 0.0941176 0.501961 0.392157 
0.0941176 0.501961 0.392157 0.0941176 0.501961 0.392157 
0.0941176 0.501961 0.392157 0.0941176 0.501961 0.392157 
0.0941176 0.501961 0.392157 0.0941176 0.501961 0.392157 
0.0941176 0.501961 0.392157 0.0941176 0.501961 0.392157 
0.0941176 0.501961 0.392157 0.0941176 0.501961 0.392157 
0.0941176 0.501961 0.392157 0.0941176 0.501961 0.392157 
0.0941176 0.501961 0.392157 0.0941176 0.501961 0.392157 
0.0941176 0.501961 0.392157 0.0941176 0.501961 0.392157 
0.0941176 0.501961 0.392157 0.0941176 0.501961 0.392157 
0.0941176 0.501961 0.392157 0.0941176 0.501961 0.392157 
0.0941176 0.501961 0.392157 0.0941176 0.501961 0.392157 
0.0941176 0.501961 0.392157 0.0941176 0.501961 0.392157 
0.0941176 0.501961 0.392157 0.0941176 0.501961 0.392157 
0.0941176 0.501961 0.392157 0.0941176 0.501961 0.392157 
0.0941176 0.501961 0.392157 0.0941176 0.501961 0.392157 
0.0941176 0.501961 0.392157 0.0941176 0.501961 0.392157 
0.0941176 0.501961 0.392157 0.0941176 0.501961 0.392157 
0.0941176 0.501961 0.392157 0.0941176 0.501961 0.392157 
0.0941176 0.501961 0.392157 0.0941176 0.501961 0.392157 
0.0941176 0.501961 0.392157 0.0941176 0.501961 0.392157 
0.0941176 0.501961 0.392157 0.0941176 0.501961 0.392157 
0.0941176 0.501961 0.392157 0.0941176 0.501961 0.392157 
0.0941176 0.501961 0.392157 0.0941176 0.501961 0.392157 
0.0941176 0.501961 0.392157 0.0941176 0.501961 0.392157 
0.0941176 0.501961 0.392157 0.0941176 0.501961 0.392157 
0.0941176 0.501961 0.392157 0.0941176 0.501961 0.392157 
0.0941176 0.501961 0.392157 0.0941176 0.501961 0.392157 
0.0941176 0.501961 0.392157 0.0941176 0.501961 0.392157 
0.0941176 0.501961 0.392157 0.0941176 0.501961 0.392157 
0.0941176 0.501961 0.392157 0.0941176 0.501961 0.392157 
0.0941176 0.501961 0.392157 0.0941176 0.501961 0.392157 
0.0941176 0.501961 0.392157 0.0941176 0.501961 0.392157 
0.0941176 0.501961 0.392157 0.0941176 0.501961 0.392157 
0.0941176 0.501961 0.392157 0.0941176 0.501961 0.392157 
0.0941176 0.501961 0.392157 0.0941176 0.501961 0.392157 
0.0941176 0.501961 0.392157 0.0941176 0.501961 0.392157 
0.0941176 0.501961 0.392157 0.0941176 0.501961 0.392157 
0.0941176 0.501961 0.392157 0.0941176 0.501961 0.392157 
0.0941176 0.501961 0.392157 0.0941176 0.501961 0.392157 
0.0941176 0.501961 0.392157 0.0941176 0.501961 0.392157 
0.0941176 0.501961 0.392157 0.0941176 0.501961 0.392157 
0.0941176 0.501961 0.392157 0.0941176 0.501961 0.392157 
0.0941176 0.501961 0.392157 0.0941176 0.501961 0.392157 
0.0941176 0.501961 0.392157 0.0941176 0.501961 0.392157 
0.0941176 0.501961 0.392157 0.0941176 0.501961 0.392157 
0.0941176 0.501961 0.392157 0.0941176 0.501961 0.392157 
0.0941176 0.501961 0.392157 0.0941176 0.501961 0.392157 
0.0941176 0.501961 0.392157 0.0941176 0.501961 0.392157 
0.0941176 0.501961 0.392157 0.0941176 0.501961 0.392157 
0.0941176 0.501961 0.392157 0.0941176 0.501961 0.392157 
0.0941176 0.501961 0.392157 0.0941176 0.501961 0.392157 
0.0941176 0.501961 0.392157 0.0941176 0.501961 0.392157 
0.0941176 0.501961 0.392157 0.0941176 0.501961 0.392157 
0.0941176 0.501961 0.392157 0.0941176 0.501961 0.392157 
0.0941176 0.501961 0.392157 0.0941176 0.501961 0.392157 
0.0941176 0.501961 0.392157 0.0941176 0.501961 0.392157 
0.0941176 0.501961 0.392157 0.0941176 0.501961 0.392157 
0.0941176 0.501961 0.392157 0.0941176 0.501961 0.392157 
0.0941176 0.501961 0.392157 0.0941176 0.501961 0.392157 
0.0941176 0.501961 0.392157 0.0941176 0.501961 0.392157 
0.0941176 0.501961 0.392157 0.0941176 0.501961 0.392157 
0.0941176 0.501961 0.392157 0.0941176 0.501961 0.392157 
0.0941176 0.501961 0.392157 0.0941176 0.501961 0.392157 
0.0941176 0.501961 0.392157 0.0941176 0.501961 0.392157 
0.0941176 0.501961 0.392157 0.0941176 0.501961 0.392157 
0.0941176 0.501961 0.392157 0.0941176 0.501961 0.392157 
0.0941176 0.501961 0.392157 0.0941176 0.501961 0.392157 
0.0941176 0.501961 0.392157 0.0941176 0.501961 0.392157 
0.0941176 0.501961 0.392157 0.0941176 0.501961 0.392157 
0.0941176 0.501961 0.392157 0.0941176 0.501961 0.392157 
0.0941176 0.501961 0.392157 0.0941176 0.501961 0.392157 
0.0941176 0.501961 0.392157 0.0941176 0.501961 0.392157 
0.0941176 0.501961 0.392157 0.0941176 0.501961 0.392157 
0.0941176 0.501961 0.392157 0.0941176 0.501961 0.392157 
0.0941176 0.501961 0.392157 0.0941176 0.501961 0.392157 
0.0941176 0.501961 0.392157 0.0941176 0.501961 0.392157 
0.0941176 0.501961 0.392157 0.0941176 0.501961 0.392157 
0.0941176 0.501961 0.392157 0.0941176 0.501961 0.392157 
0.0941176 0.501961 0.392157 0.0941176 0.501961 0.392157 
0.0941176 0.501961 0.392157 0.0941176 0.501961 0.392157 
0.0941176 0.501961 0.392157 0.0941176 0.501961 0.392157 
0.0941176 0.501961 0.392157 0.0941176 0.501961 0.392157 
0.0941176 0.501961 0.392157 0.0941176 0.501961 0.392157 
0.0941176 0.501961 0.392157 0.0941176 0.501961 0.392157 
0.0941176 0.501961 0.392157 0.0941176 0.501961 0.392157 
0.0941176 0.501961 0.392157 0.0941176 0.501961 0.392157 
0.0941176 0.501961 0.392157 0.0941176 0.501961 0.392157 
0.0941176 0.501961 0.392157 0.0941176 0.501961 0.392157 
0.0941176 0.501961 0.392157 0.0941176 0.501961 0.392157 
0.0941176 0.501961 0.392157 0.0941176 0.501961 0.392157 
0.0941176 0.501961 0.392157 0.0941176 0.501961 0.392157 
0.0941176 0.501961 0.392157 0.0941176 0.501961 0.392157 
0.0941176 0.501961 0.392157 0.0941176 0.501961 0.392157 
0.0941176 0.501961 0.392157 0.0941176 0.501961 0.392157 
0.0941176 0.501961 0.392157 0.0941176 0.501961 0.392157 
0.0941176 0.501961 0.392157 0.0941176 0.501961 0.392157 
0.0941176 0.501961 0.392157 0.0941176 0.501961 0.392157 
0.0941176 0.501961 0.392157 0.0941176 0.501961 0.392157 
0.0941176 0.501961 0.392157 0.0941176 0.501961 0.392157 
0.0941176 0.501961 0.392157 0.0941176 0.501961 0.392157 
0.0941176 0.501961 0.392157 0.0941176 0.501961 0.392157 
0.0941176 0.501961 0.392157 0.0941176 0.501961 0.392157 
0.0941176 0.501961 0.392157 0.0941176 0.501961 0.392157 
0.0941176 0.501961 0.392157 0.0941176 0.501961 0.392157 
0.0941176 0.501961 0.392157 0.0941176 0.501961 0.392157 
0.0941176 0.501961 0.392157 0.0941176 0.501961 0.392157 
0.0941176 0.501961 0.392157 0.0941176 0.501961 0.392157 
0.0941176 0.501961 0.392157 0.0941176 0.501961 0.392157 
0.0941176 0.501961 0.392157 0.0941176 0.501961 0.392157 
0.0941176 0.501961 0.392157 0.0941176 0.501961 0.392157 
0.0941176 0.501961 0.392157 0.0941176 0.501961 0.392157 
0.0941176 0.501961 0.392157 0.0941176 0.501961 0.392157 
0.0941176 0.501961 0.392157 0.0941176 0.501961 0.392157 
0.0941176 0.501961 0.392157 0.0941176 0.501961 0.392157 
0.0941176 0.501961 0.392157 0.0941176 0.501961 0.392157 
0.0941176 0.501961 0.392157 0.0941176 0.501961 0.392157 