# vtk DataFile Version 4.2
vtk output
ASCII
DATASET POLYDATA
POINTS 1061 float
194.539 136.087 88.899 193.618 136.522 88.5017 193.307 136.334 88.5715 
193.875 136.544 88.4882 194.107 136.555 88.5596 194.406 136.46 88.7504 
193.539 136.768 88.5909 193.375 136.828 88.6808 193.84 136.748 88.573 
194.106 136.775 88.6145 194.276 136.688 88.6672 192 139.009 87.0174 
192 139.009 87.0175 192 139.009 87.0175 192 139.009 87.0175 
194.011 136.906 88.7784 192 139.009 87.0175 203 122.009 88.0174 
203 122.009 88.0175 203 122.009 88.0175 203 122.009 88.0175 
203 122.009 88.0175 192.987 134.269 89.1757 192.734 134.749 89.0081 
192.559 135.197 88.9177 194.192 134.718 89.141 192.274 135.421 89.0109 
192.248 135.914 89.0864 194.822 136.015 89.1702 192.299 136.535 89.306 
194.704 136.367 89.1033 192.682 136.764 89.0417 192.514 136.808 89.1769 
192.62 136.895 89.1526 194.238 136.82 88.7536 194.444 136.681 88.9068 
192.827 136.964 89.1843 192 139.009 87.0175 201.458 120.921 90.2553 
201.396 120.713 90.2489 201.292 120.906 90.1756 201.534 120.658 90.388 
201.449 121.228 90.3425 201.594 120.925 90.4327 200.168 122.127 90.0809 
203 122.009 88.0175 199.572 122.95 90.1479 200.101 122.659 90.1696 
201.131 122.773 90.7714 199.242 123.492 90.2578 198.855 123.905 90.4008 
198.562 123.741 90.4143 192.339 132.772 90.1215 191.885 133.072 90.0242 
193.479 133.094 89.8864 195.056 134.681 89.8861 190.895 135.536 90.0263 
195.309 135.452 89.9651 195.193 136 89.8697 195.003 136.452 89.9409 
193.899 137.154 89.6119 200.899 120.11 90.6708 201.352 120.486 90.4032 
201.258 120.165 90.7357 200.37 120.482 90.4608 201.154 120.72 90.2339 
201.646 120.652 90.6101 199.944 121.386 90.1985 199.427 121.443 90.3168 
201.678 120.932 90.6624 198.145 122.706 90.5908 201.396 122.85 91.1556 
201.618 122.492 91.4626 198.549 123.323 90.371 200.816 123.661 90.87 
197.851 123.953 90.9463 199.794 124.467 90.7345 199.064 124.991 90.9696 
191.381 132.042 91.0179 192.63 132.274 90.5843 191.091 133.451 90.116 
190.04 133.587 90.6471 189.943 133.988 90.6875 194.579 133.666 90.0872 
189.684 134.225 90.9839 190.638 134.699 90.1475 195.303 135.007 90.0288 
195.567 135.017 90.4666 190.399 135.746 91.0682 193.245 137.259 90.2593 
194.259 137.081 90.0935 200.375 119.205 91.4905 200.453 120.03 90.779 
201.375 120 91.3001 201.478 120.214 90.8595 201.774 122.064 91.9888 
197.032 121.945 91.6253 201.322 123.753 91.6032 197.046 124.335 91.9427 
198.739 125.435 91.2889 197.961 125.646 91.7648 190.328 131.234 92.1598 
190.108 131.504 91.7916 189.509 131.898 91.6194 190.673 132.028 91.1442 
189.589 132.348 91.3465 189.951 133.005 90.8874 188.45 133.205 91.9482 
195.701 133.616 91.1981 195.862 135.075 91.0734 195.735 135.727 91.2048 
190.67 136.121 91.3116 194.656 136.899 90.6442 193.626 137.282 90.8012 
200.708 119.038 91.9059 196.857 120.926 92.1058 196.329 122.8 92.4119 
197.251 125.456 92.2737 200.536 125.427 91.8909 198.536 126.695 92.2417 
199.241 126.485 92.0295 199.558 126.88 92.3686 187.327 132.36 92.7177 
196.21 133.98 91.6656 187.841 133.693 92.8385 188.446 134.313 92.8044 
196.154 135.147 91.7242 190.614 136.157 92.012 191.133 136.493 92.3552 
195.602 136.125 91.7815 191.715 136.828 91.9774 192.236 137.079 91.9815 
194.585 136.942 91.3427 200.025 118.103 93.0308 200.155 118.187 93.1135 
198.843 117.762 93.5029 199.387 117.806 93.5567 200.546 118.602 93.0759 
200.786 118.828 92.5532 201.001 119.084 92.6215 195.513 121.322 93.3873 
195.634 121.943 93.4124 201.504 124.679 92.7286 201.398 125.495 93.0657 
196.986 126.167 93.1875 199.066 127.847 92.8604 187.816 130.832 93.4195 
187.097 131.01 93.8109 186.742 131.295 93.566 190.239 130.812 93.2441 
187.254 131.517 93.0473 194.142 131.388 92.4222 186.099 132.974 93.7818 
186.733 132.991 93.3435 196.489 134.15 92.0578 196.885 134.608 92.9882 
189.514 135.379 93.3138 196.501 135.276 92.9321 196.175 135.692 93.1572 
192.809 137.075 92.5373 194.089 137.075 92.1155 198.952 117.183 94.2195 
198.892 117.023 94.382 198.95 117.095 94.4717 198.462 117.064 94.3947 
199.909 118.007 93.2477 199.737 117.945 94.2919 196.847 118.002 94.1232 
201.303 119.674 93.0623 197.505 128.114 93.5785 196.827 128.045 94.1493 
197.219 129.361 93.8587 189.497 130.72 93.8188 190.139 130.722 94.2935 
192.849 130.783 94.2676 195.142 131.249 92.9849 194.637 130.784 93.6378 
197.077 130.907 93.5148 196.241 130.289 93.9083 198.425 130.579 93.6922 
196.896 132.058 93.0439 183.575 132.617 94.9573 184.695 132.536 94.3936 
199.099 132.007 94.126 184.571 132.946 94.7878 197.501 133.65 93.382 
183.981 132.788 94.7869 186.7 133.606 94.2648 197.681 134.497 94.5004 
191.573 136.534 93.2233 196.155 135.665 93.9433 195.104 136.398 93.3807 
198.182 116.913 94.6691 198.185 116.779 94.8447 198.813 116.977 94.4892 
198.308 116.803 94.8045 197.456 116.854 95.1684 198.565 116.944 94.7505 
196.212 117.481 95.2418 195.532 118.443 95.3124 195.143 120.302 94.9255 
195.462 123.144 95.1547 195.63 123.8 94.7443 183.668 131.599 95.2981 
185.074 131.238 95.2371 186.101 131.043 95.1119 183.358 131.743 95.3217 
182.984 132.027 95.3719 193.763 130.625 94.9264 195.367 130.068 94.5977 
183.516 132.202 94.9925 181.756 133.342 95.766 181.492 133.297 95.815 
181.053 133.698 96.0225 182.176 133.379 95.7783 183.34 133.043 95.3922 
182.521 133.329 95.7976 186.67 133.629 95.0987 198.73 133.36 94.4422 
181.409 133.742 96.0251 180.737 134.217 96.3047 199.096 133.833 95.3925 
178.789 136.552 96.8989 178.827 136.392 96.8508 178.565 136.725 96.9402 
193.032 136.47 93.9676 193.368 136.234 94.4053 194.577 136.22 94.2648 
196.99 116.819 95.4969 196.646 116.848 95.7395 197.467 116.729 95.4859 
198.223 116.788 94.9511 197.585 116.7 95.6086 196.413 116.966 95.8134 
196.217 117.184 95.7751 198.014 116.842 95.3904 195.99 117.59 95.5692 
198.935 117.371 95.3597 198.775 117.367 95.6659 195.655 118.149 95.5812 
199.011 117.725 95.7344 195.289 119.204 95.4588 200.373 119.183 95.0506 
195.211 119.676 95.4532 195.299 119.938 95.7191 195.503 123.277 95.6309 
202.449 126.558 96.508 196.109 127.967 95.3923 183.292 131.623 95.8459 
182.716 131.808 95.8112 185.112 131.235 95.6755 187.559 130.941 95.2085 
195.831 129.143 95.1633 195.47 129.437 95.7564 202.303 130.152 96.0919 
182.359 131.941 95.898 185.579 131.312 95.8958 189.312 131.02 95.4071 
194.753 130.206 95.606 181.387 132.485 96.1609 193.084 131.367 96.3106 
181.35 133.096 95.8925 201.739 132.383 96.5038 179.988 133.785 96.3638 
179.675 134.231 96.4212 183.132 133.131 95.8273 184.593 133.049 95.6255 
186.937 133.68 95.2147 201.069 133.109 96.4025 201.433 132.879 96.5517 
179.595 134.751 96.4819 181.358 133.908 96.4321 181.895 133.572 96.3352 
188.422 134.376 95.087 188.656 134.316 95.3562 199.078 134.074 95.9776 
201.302 133.172 96.8198 178.958 135.895 96.7726 179.968 135.107 96.8782 
197.601 134.629 96.0702 177.545 137.166 96.9962 179.412 135.777 97.0648 
177.235 138.297 97.2108 177.055 138.845 97.3923 177.225 139.008 97.6013 
196.505 116.928 96.1299 196.573 117.011 96.2482 196.382 117.105 96.2011 
196.576 116.855 95.9606 197.19 116.76 95.975 197.561 116.746 95.7916 
197.461 116.856 96.0448 196.177 117.458 96.171 195.445 118.921 95.8045 
199.304 118.668 96.187 199.307 119.283 96.5443 200.173 120.473 96.4677 
195.58 122.617 96.1905 196.02 127.592 95.9732 203.008 129.043 97.371 
184.07 131.636 96.191 203.097 129.741 97.5316 180.986 132.559 96.8384 
180.426 132.795 96.9574 187.032 131.735 96.2271 188.048 131.396 96.0109 
189.814 131.336 95.9011 193.681 131.151 96.3683 194.921 130.47 96.7826 
179.68 133.138 97.3231 188.686 131.677 96.2668 193.097 131.853 96.6638 
179.271 133.697 96.8532 180.118 133.368 96.4804 182.942 133.088 96.1917 
183.953 132.913 96.0226 185.576 132.889 95.9534 178.507 134.341 96.9651 
187.224 133.324 95.821 188.079 133.609 95.831 177.818 135.09 97.0683 
189.524 134.111 95.867 193.012 134.765 96.0433 193.294 134.21 96.4727 
196.839 134.045 97.3293 200.018 133.992 97.6002 177.141 136.713 97.076 
179.401 135.803 97.5719 176.051 137.369 97.424 175.017 139.555 97.9837 
174.777 140.23 98.2523 175.267 140.344 98.189 175.629 140.375 98.2055 
176.074 140.178 98.2033 197.165 116.969 96.2099 196.332 117.764 96.4154 
196.596 118.183 96.6267 195.84 119.767 96.4577 198.066 119.212 97.069 
196.422 120.496 97.0583 198.927 119.687 97.0136 195.83 121.594 96.6082 
196.146 122.305 97.0203 196.244 124.413 97.3005 201.973 125.902 98.0349 
196.232 126.212 97.4948 196.169 128.095 97.7344 196.47 127.723 98.3264 
203.131 129.368 97.9953 195.642 129.962 97.5285 180.606 132.792 97.0989 
181.498 132.508 96.8338 195.426 130.632 97.5836 203.049 130.605 97.9515 
203.126 130.275 98.0719 180.141 133.056 97.4223 182.6 132.635 96.629 
185.921 132.33 96.237 188.037 132.144 96.4471 190.953 132.659 96.5678 
190.059 132.555 96.5652 194.082 132.204 97.1318 177.772 133.894 98.2229 
180.701 133.454 97.3878 189.181 133.096 96.3842 192.852 133.075 96.7997 
194.989 132.803 97.4936 202.749 132.379 98.7846 195.863 132.803 97.9563 
195.957 133.412 97.6306 197.025 133.53 98.0502 175.838 135.666 98.0965 
180.6 134.19 97.1969 198.955 133.983 98.1845 201.301 133.686 98.2674 
177.405 139.169 98.2663 174.056 140.06 98.5606 175.685 140.556 98.4074 
174.365 141.125 98.8224 173.997 141.298 99.0087 174.861 141.069 98.8862 
174.454 141.289 98.9706 175.491 140.78 98.727 174.187 141.381 99.0709 
198.013 121.474 97.8361 196.739 122.734 97.66 199.329 122.028 97.9272 
196.636 123.826 97.7881 200.916 124.393 98.5094 196.745 126.869 98.6032 
202.346 127.036 98.3961 203.08 129.567 98.378 202.916 129.849 98.9697 
202.94 130.75 99.0178 177.248 134.009 98.8815 176.863 134.181 99.0486 
178.64 133.527 98.059 188.473 132.297 96.5173 196.231 131.73 98.5139 
202.926 131.799 99.3833 175.916 134.607 99.0794 178.187 133.776 98.4112 
179.407 133.616 98.0395 202.974 132.821 99.8047 176.274 134.766 98.4457 
202.854 133.075 99.6368 200.432 133.963 98.8248 179.278 135.475 98.161 
173.467 138.441 99.0806 173.163 139.742 99.2997 176.79 139.843 98.9625 
173.325 141.048 99.5398 175.854 140.614 98.9593 173.48 141.4 99.2912 
[...]
POINT_DATA 1061
COLOR_SCALARS scalars 3
0.0941176 0.501961 0.392157 0.0941176 0.501961 0.392157 0.0941176 0.501961 0.392157 
0.0941176 0.501961 0.392157 0.0941176 0.501961 0.392157 
0.0941176 0.501961 0.392157 0.0941176 0.501961 0.392157 
0.0941176 0.501961 0.392157 0.0941176 0.501961 0.392157 
0.0941176 0.501961 0.392157 0.0941176 0.501961 0.392157 
0.0941176 0.501961 0.392157 0.0941176 0.501961 0.392157 
0.0941176 0.501961 0.392157 0.0941176 0.501961 0.392157 
0.0941176 0.501961 0.392157 0.0941176 0.501961 0.392157 
0.0941176 0.501961 0.392157 0.0941176 0.501961 0.392157 
0.0941176 0.501961 0.392157 0.0941176 0.501961 0.392157 
0.0941176 0.501961 0.392157 0.0941176 0.501961 0.392157 
0.0941176 0.501961 0.392157 0.0941176 0.501961 0.392157 
0.0941176 0.501961 0.392157 0.0941176 0.501961 0.392157 
0.0941176 0.501961 0.392157 0.0941176 0.501961 0.392157 
0.0941176 0.501961 0.392157 0.0941176 0.501961 0.392157 
0.0941176 0.501961 0.392157 0.0941176 0.501961 0.392157 
0.0941176 0.501961 0.392157 0.0941176 0.501961 0.392157 
0.0941176 0.501961 0.392157 0.0941176 0.501961 0.392157 
0.0941176 0.501961 0.392157 0.0941176 0.501961 0.392157 
0.0941176 0.501961 0.392157 0.0941176 0.501961 0.392157 
0.0941176 0.501961 0.392157 0.0941176 0.501961 0.392157 
0.0941176 0.501961 0.392157 0.0941176 0.501961 0.392157 
0.0941176 0.501961 0.392157 0.0941176 0.501961 0.392157 
0.0941176 0.501961 0.392157 0.0941176 0.501961 0.392157 
0.0941176 0.501961 0.392157 0.0941176 0.501961 0.392157 
0.0941176 0.501961 0.392157 0.0941176 0.501961 0.392157 
0.0941176 0.501961 0.392157 0.0941176 0.501961 0.392157 
0.0941176 0.501961 0.392157 0.0941176 0.501961 0.392157 
0.0941176 0.501961 0.392157 0.0941176 0.501961 0.392157 
0.0941176 0.501961 0.392157 0.0941176 0.501961 0.392157 
0.0941176 0.501961 0.392157 0.0941176 0.501961 0.392157 
0.0941176 0.501961 0.392157 0.0941176 0.501961 0.392157 
0.0941176 0.501961 0.392157 0.0941176 0.501961 0.392157 
0.0941176 0.501961 0.392157 0.0941176 0.501961 0.392157 
0.0941176 0.501961 0.392157 0.0941176 0.501961 0.392157 
0.0941176 0.501961 0.392157 0.0941176 0.501961 0.392157 
0.0941176 0.501961 0.392157 0.0941176 0.501961 0.392157 
0.0941176 0.501961 0.392157 0.0941176 0.501961 0.392157 
0.0941176 0.501961 0.392157 0.0941176 0.501961 0.392157 
0.0941176 0.501961 0.392157 0.0941176 0.501961 0.392157 
0.0941176 0.501961 0.392157 0.0941176 0.501961 0.392157 
0.0941176 0.501961 0.392157 0.0941176 0.501961 0.392157 
0.0941176 0.501961 0.392157 0.0941176 0.501961 0.392157 
0.0941176 0.501961 0.392157 0.0941176 0.501961 0.392157 
0.0941176 0.501961 0.392157 0.0941176 0.501961 0.392157 
0.0941176 0.501961 0.392157 0.0941176 0.501961 0.392157 
0.0941176 0.501961 0.392157 0.0941176 0.501961 0.392157 
0.0941176 0.501961 0.392157 0.0941176 0.501961 0.392157 
0.0941176 0.501961 0.392157 0.0941176 0.501961 0.392157 
0.0941176 0.501961 0.392157 0.0941176 0.501961 0.392157 
0.0941176 0.501961 0.392157 0.0941176 0.501961 0.392157 
0.0941176 0.501961 0.392157 0.0941176 0.501961 0.392157 
0.0941176 0.501961 0.392157 0.0941176 0.501961 0.392157 
0.0941176 0.501961 0.392157 0.0941176 0.501961 0.392157 
0.0941176 0.501961 0.392157 0.0941176 0.501961 0.392157 
0.0941176 0.501961 0.392157 0.0941176 0.501961 0.392157 
0.0941176 0.501961 0.392157 0.0941176 0.501961 0.392157 
0.0941176 0.501961 0.392157 0.0941176 0.501961 0.392157 
0.0941176 0.501961 0.392157 0.0941176 0.501961 0.392157 
0.0941176 0.501961 0.392157 0.0941176 0.501961 0.392157 
0.0941176 0.501961 0.392157 0.0941176 0.501961 0.392157 
0.0941176 0.501961 0.392157 0.0941176 0.501961 0.392157 
0.0941176 0.501961 0.392157 0.0941176 0.501961 0.392157 
0.0941176 0.501961 0.392157 0.0941176 0.501961 0.392157 
0.0941176 0.501961 0.392157 0.0941176 0.501961 0.392157 
0.0941176 0.501961 0.392157 0.0941176 0.501961 0.392157 
0.0941176 0.501961 0.392157 0.0941176 0.501961 0.392157 
0.0941176 0.501961 0.392157 0.0941176 0.501961 0.392157 
0.0941176 0.501961 0.392157 0.0941176 0.501961 0.392157 
0.0941176 0.501961 0.392157 0.0941176 0.501961 0.392157 
0.0941176 0.501961 0.392157 0.0941176 0.501961 0.392157 
0.0941176 0.501961 0.392157 0.0941176 0.501961 0.392157 
0.0941176 0.501961 0.392157 0.0941176 0.501961 0.392157 
0.0941176 0.501961 0.392157 0.0941176 0.501961 0.392157 
0.0941176 0.501961 0.392157 0.0941176 0.501961 0.392157 
0.0941176 0.501961 0.392157 0.0941176 0.501961 0.392157 
0.0941176 0.501961 0.392157 0.0941176 0.501961 0.392157 
0.0941176 0.501961 0.392157 0.0941176 0.501961 0.392157 
0.0941176 0.501961 0.392157 0.0941176 0.501961 0.392157 
0.0941176 0.501961 0.392157 0.0941176 0.501961 0.392157 
0.0941176 0.501961 0.392157 0.0941176 0.501961 0.392157 
0.0941176 0.501961 0.392157 0.0941176 0.501961 0.392157 
0.0941176 0.501961 0.392157 0.0941176 0.501961 0.392157 
0.0941176 0.501961 0.392157 0.0941176 0.501961 0.392157 
0.0941176 0.501961 0.392157 0.0941176 0.501961 0.392157 
0.0941176 0.501961 0.392157 0.0941176 0.501961 0.392157 
0.0941176 0.501961 0.392157 0.0941176 0.501961 0.392157 
0.0941176 0.501961 0.392157 0.0941176 0.501961 0.392157 
0.0941176 0.501961 0.392157 0.0941176 0.501961 0.392157 
0.0941176 0.501961 0.392157 0.0941176 0.501961 0.392157 
0.0941176 0.501961 0.392157 0.0941176 0.501961 0.392157 
0.0941176 0.501961 0.392157 0.0941176 0.501961 0.392157 
0.0941176 0.501961 0.392157 0.0941176 0.501961 0.392157 
0.0941176 0.501961 0.392157 0.0941176 0.501961 0.392157 
0.0941176 0.501961 0.392157 0.0941176 0.501961 0.392157 
0.0941176 0.501961 0.392157 0.0941176 0.501961 0.392157 
0.0941176 0.501961 0.392157 0.0941176 0.501961 0.392157 
0.0941176 0.501961 0.392157 0.0941176 0.501961 0.392157 
0.0941176 0.501961 0.392157 0.0941176 0.501961 0.392157 
0.0941176 0.501961 0.392157 0.0941176 0.501961 0.392157 
0.0941176 0.501961 0.392157 0.0941176 0.501961 0.392157 
0.0941176 0.501961 0.392157 0.0941176 0.501961 0.392157 
0.0941176 0.501961 0.392157 0.0941176 0.501961 0.392157 
0.0941176 0.501961 0.392157 0.0941176 0.501961 0.392157 
0.0941176 0.501961 0.392157 0.0941176 0.501961 0.392157 
0.0941176 0.501961 0.392157 0.0941176 0.501961 0.392157 
0.0941176 0.501961 0.392157 0.0941176 0.501961 0.392157 
0.0941176 0.501961 0.392157 0.0941176 0.501961 0.392157 
0.0941176 0.501961 0.392157 0.0941176 0.501961 0.392157 
0.0941176 0.501961 0.392157 0.0941176 0.501961 0.392157 
0.0941176 0.501961 0.392157 0.0941176 0.501961 0.392157 
0.0941176 0.501961 0.392157 0.0941176 0.501961 0.392157 
0.0941176 0.501961 0.392157 0.0941176 0.501961 0.392157 
0.0941176 0.501961 0.392157 0.0941176 0.501961 0.392157 
0.0941176 0.501961 0.392157 0.0941176 0.501961 0.392157 
0.0941176 0.501961 0.392157 0.0941176 0.501961 0.392157 
0.0941176 0.501961 0.392157 0.0941176 0.501961 0.392157 
0.0941176 0.501961 0.392157 0.0941176 0.501961 0.392157 
0.0941176 0.501961 0.392157 0.0941176 0.501961 0.392157 
0.0941176 0.501961 0.392157 0.0941176 0.501961 0.392157 
0.0941176 0.501961 0.392157 0.0941176 0.501961 0.392157 
0.0941176 0.501961 0.392157 0.0941176 0.501961 0.392157 
0.0941176 0.501961 0.392157 0.0941176 0.501961 0.392157 
0.0941176 0.501961 0.392157 0.0941176 0.501961 0.392157 
0.0941176 0.501961 0.392157 0.0941176 0.501961 0.392157 
0.0941176 0.501961 0.392157 0.0941176 0.501961 0.392157 
0.0941176 0.501961 0.392157 0.0941176 0.501961 0.392157 
0.0941176 0.501961 0.392157 0.0941176 0.501961 0.392157 
0.0941176 0.501961 0.392157 0.0941176 0.501961 0.392157 
0.0941176 0.501961 0.392157 0.0941176 0.501961 0.392157 
0.0941176 0.501961 0.392157 0.0941176 0.501961 0.392157 
0.0941176 0.501961 0.392157 0.0941176 0.501961 0.392157 
0.0941176 0.501961 0.392157 0.0941176 0.501961 0.392157 
0.0941176 0.501961 0.392157 0.0941176 0.501961 0.392157 
0.0941176 0.501961 0.392157 0.0941176 0.501961 0.392157 
0.0941176 0.501961 0.392157 0.0941176 0.501961 0.392157 
0.0941176 0.501961 0.392157 0.0941176 0.501961 0.392157 
0.0941176 0.501961 0.392157 0.0941176 0.501961 0.392157 
0.0941176 0.501961 0.392157 0.0941176 0.501961 0.392157 
0.0941176 0.501961 0.392157 0.0941176 0.501961 0.392157 
0.0941176 0.501961 0.392157 0.0941176 0.501961 0.392157 
0.0941176 0.501961 0.392157 0.0941176 0.501961 0.392157 
0.0941176 0.501961 0.392157 0.0941176 0.501961 0.392157 
0.0941176 0.501961 0.392157 0.0941176 0.501961 0.392157 
0.0941176 0.501961 0.392157 0.0941176 0.501961 0.392157 
0.0941176 0.501961 0.392157 0.0941176 0.501961 0.392157 
0.0941176 0.501961 0.392157 0.0941176 0.501961 0.392157 
0.0941176 0.501961 0.392157 0.0941176 0.501961 0.392157 
0.0941176 0.501961 0.392157 0.0941176 0.501961 0.392157 
0.0941176 0.501961 0.392157 0.0941176 0.501961 0.392157 
0.0941176 0.501961 0.392157 0.0941176 0.501961 0.392157 
0.0941176 0.501961 0.392157 0.0941176 0.501961 0.392157 
0.0941176 0.501961 0.392157 0.0941176 0.501961 0.392157 
0.0941176 0.501961 0.392157 0.0941176 0.501961 0.392157 
0.0941176 0.501961 0.392157 0.0941176 0.501961 0.392157 
0.0941176 0.501961 0.392157 0.0941176 0.501961 0.392157 
0.0941176 0.501961 0.392157 0.0941176 0.501961 0.392157 
0.0941176 0.501961 0.392157 0.0941176 0.501961 0.392157 
0.0941176 0.501961 0.392157 0.0941176 0.501961 0.392157 
0.0941176 0.501961 0.392157 0.0941176 0.501961 0.392157 
0.0941176 0.501961 0.392157 0.0941176 0.501961 0.392157 
0.0941176 0.501961 0.392157 0.0941176 0.501961 0.392157 
0.0941176 0.501961 0.392157 0.0941176 0.501961 0.392157 
0.0941176 0.501961 0.392157 0.0941176 0.501961 0.392157 
0.0941176 0.501961 0.392157 0.0941176 0.501961 0.392157 
0.0941176 0.501961 0.392157 0.0941176 0.501961 0.392157 
0.0941176 0.501961 0.392157 0.0941176 0.501961 0.392157 
0.0941176 0.501961 0.392157 0.0941176 0.501961 0.392157 
0.0941176 0.501961 0.392157 0.0941176 0.501961 0.392157 
0.0941176 0.501961 0.392157 0.0941176 0.501961 0.392157 
0.0941176 0.501961 0.392157 0.0941176 0.501961 0.392157 
0.0941176 0.501961 0.392157 0.0941176 0.501961 0.392157 
0.0941176 0.501961 0.392157 0.0941176 0.501961 0.392157 
0.0941176 0.501961 0.392157 0.0941176 0.501961 0.392157 
0.0941176 0.501961 0.392157 0.0941176 0.501961 0.392157 
0.0941176 0.501961 0.392157 0.0941176 0.501961 0.392157 
0.0941176 0.501961 0.392157 0.0941176 0.501961 0.392157 
0.0941176 0.501961 0.392157 0.0941176 0.501961 0.392157 
0.0941176 0.501961 0.392157 0.0941176 0.501961 0.392157 
0.0941176 0.501961 0.392157 0.0941176 0.501961 0.392157 
0.0941176 0.501961 0.392157 0.0941176 0.501961 0.392157 
0.0941176 0.501961 0.392157 0.0941176 0.501961 0.392157 
0.0941176 0.501961 0.392157 0.0941176 0.501961 0.392157 
0.0941176 0.501961 0.392157 0.0941176 0.501961 0.392157 
0.0941176 0.501961 0.392157 0.0941176 0.501961 0.392157 
0.0941176 0.501961 0.392157 0.0941176 0.501961 0.392157 
0.0941176 0.501961 0.392157 0.0941176 0.501961 0.392157 
0.0941176 0.501961 0.392157 0.0941176 0.501961 0.392157 
0.0941176 0.501961 0.392157 0.0941176 0.501961 0.392157 
0.0941176 0.501961 0.392157 0.0941176 0.501961 0.392157 
0.0941176 0.501961 0.392157 0.0941176 0.501961 0.392157 
0.0941176 0.501961 0.392157 0.0941176 0.501961 0.392157 
0.0941176 0.501961 0.392157 0.0941176 0.501961 0.392157 
0.0941176 0.501961 0.392157 0.0941176 0.501961 0.392157 
0.0941176 0.501961 0.392157 0.0941176 0.501961 0.392157 
0.0941176 0.501961 0.392157 0.0941176 0.501961 0.392157 
0.0941176 0.501961 0.392157 0.0941176 0.501961 0.392157 
0.0941176 0.501961 0.392157 0.0941176 0.501961 0.392157 
0.0941176 0.501961 0.392157 0.0941176 0.501961 0.392157 
0.0941176 0.501961 0.392157 0.0941176 0.501961 0.392157 
0.0941176 0.501961 0.392157 0.0941176 0.501961 0.392157 
0.0941176 0.501961 0.392157 0.0941176 0.501961 0.392157 
0.0941176 0.501961 0.392157 0.0941176 0.501961 0.392157 
0.0941176 0.501961 0.392157 0.0941176 0.501961 0.392157 
0.0941176 0.501961 0.392157 0.0941176 0.501961 0.392157 
0.0941176 0.501961 0.392157 0.0941176 0.501961 0.392157 
0.0941176 0.501961 0.392157 0.0941176 0.501961 0.392157 
0.0941176 0.501961 0.392157 0.0941176 0.501961 0.392157 
0.0941176 0.501961 0.392157 0.0941176 0.501961 0.392157 
0.0941176 0.501961 0.392157 0.0941176 0.501961 0.392157 
0.0941176 0.501961 0.392157 0.0941176 0.501961 0.392157 
0.0941176 0.501961 0.392157 0.0941176 0.501961 0.392157 
0.0941176 0.501961 0.392157 0.0941176 0.501961 0.392157 
0.0941176 0.501961 0.392157 0.0941176 0.501961 0.392157 
0.0941176 0.501961 0.392157 0.0941176 0.501961 0.392157 
0.0941176 0.501961 0.392157 0.0941176 0.501961 0.392157 
0.0941176 0.501961 0.392157 0.0941176 0.501961 0.392157 
0.0941176 0.501961 0.392157 0.0941176 0.501961 0.392157 
0.0941176 0.501961 0.392157 0.0941176 0.501961 0.392157 
0.0941176 0.501961 0.392157 0.0941176 0.501961 0.392157 
0.0941176 0.501961 0.392157 0.0941176 0.501961 0.392157 
0.0941176 0.501961 0.392157 0.0941176 0.501961 0.392157 
0.0941176 0.501961 0.392157 0.0941176 0.501961 0.392157 
0.0941176 0.501961 0.392157 0.0941176 0.501961 0.392157 
0.0941176 0.501961 0.392157 0.0941176 0.501961 0.392157 
0.0941176 0.501961 0.392157 0.0941176 0.501961 0.392157 
0.0941176 0.501961 0.392157 0.0941176 0.501961 0.392157 
0.0941176 0.501961 0.392157 0.0941176 0.501961 0.392157 
0.0941176 0.501961 0.392157 0.0941176 0.501961 0.392157 
0.0941176 0.501961 0.392157 0.0941176 0.501961 0.392157 
0.0941176 0.501961 0.392157 0.0941176 0.501961 0.392157 
0.0941176 0.501961 0.392157 0.0941176 0.501961 0.392157 
0.0941176 0.501961 0.392157 0.0941176 0.501961 0.392157 
0.0941176 0.501961 0.392157 0.0941176 0.501961 0.392157 
0.0941176 0.501961 0.392157 0.0941176 0.501961 0.392157 
0.0941176 0.501961 0.392157 0.0941176 0.501961 0.392157 
0.0941176 0.501961 0.392157 0.0941176 0.501961 0.392157 
0.0941176 0.501961 0.392157 0.0941176 0.501961 0.392157 
0.0941176 0.501961 0.392157 0.0941176 0.501961 0.392157 
0.0941176 0.501961 0.392157 0.0941176 0.501961 0.392157 
0.0941176 0.501961 0.392157 0.0941176 0.501961 0.392157 
0.0941176 0.501961 0.392157 0.0941176 0.501961 0.392157 
0.0941176 0.501961 0.392157 0.0941176 0.501961 0.392157 
0.0941176 0.501961 0.392157 0.0941176 0.501961 0.392157 
0.0941176 0.501961 0.392157 0.0941176 0.501961 0.392157 
0.0941176 0.501961 0.392157 0.0941176 0.501961 0.392157 
0.0941176 0.501961 0.392157 0.0941176 0.501961 0.392157 
0.0941176 0.501961 0.392157 0.0941176 0.501961 0.392157 
0.0941176 0.501961 0.392157 0.0941176 0.501961 0.392157 
0.0941176 0.501961 0.392157 0.0941176 0.501961 0.392157 
0.0941176 0.501961 0.392157 0.0941176 0.501961 0.392157 
0.0941176 0.501961 0.392157 0.0941176 0.501961 0.392157 
0.0941176 0.501961 0.392157 0.0941176 0.501961 0.392157 
0.0941176 0.501961 0.392157 0.0941176 0.501961 0.392157 
0.0941176 0.501961 0.392157 0.0941176 0.501961 0.392157 
0.0941176 0.501961 0.392157 0.0941176 0.501961 0.392157 
0.0941176 0.501961 0.392157 0.0941176 0.501961 0.392157 
0.0941176 0.501961 0.392157 0.0941176 0.501961 0.392157 
0.0941176 0.501961 0.392157 0.0941176 0.501961 0.392157 
0.0941176 0.501961 0.392157 0.0941176 0.501961 0.392157 
0.0941176 0.501961 0.392157 0.0941176 0.501961 0.392157 
0.0941176 0.501961 0.392157 0.0941176 0.501961 0.392157 
0.0941176 0.501961 0.392157 0.0941176 0.501961 0.392157 
0.0941176 0.501961 0.392157 0.0941176 0.501961 0.392157 
0.0941176 0.501961 0.392157 0.0941176 0.501961 0.392157 
0.0941176 0.501961 0.392157 0.0941176 0.501961 0.392157 
0.0941176 0.501961 0.392157 0.0941176 0.501961 0.392157 
0.0941176 0.501961 0.392157 0.0941176 0.501961 0.392157 
0.0941176 0.501961 0.392157 0.0941176 0.501961 0.392157 
0.0941176 0.501961 0.392157 0.0941176 0.501961 0.392157 
0.0941176 0.501961 0.392157 0.0941176 0.501961 0.392157 
0.0941176 0.501961 0.392157 0.0941176 0.501961 0.392157 
0.0941176 0.501961 0.392157 0.0941176 0.501961 0.392157 
0.0941176 0.501961 0.392157 0.0941176 0.501961 0.392157 
0.0941176 0.501961 0.392157 0.0941176 0.501961 0.392157 
0.0941176 0.501961 0.392157 0.0941176 0.501961 0.392157 
0.0941176 0.501961 0.392157 0.0941176 0.501961 0.392157 
0.0941176 0.501961 0.392157 0.0941176 0.501961 0.392157 
0.0941176 0.501961 0.392157 0.0941176 0.501961 0.392157 
0.0941176 0.501961 0.392157 0.0941176 0.501961 0.392157 
0.0941176 0.501961 0.392157 0.0941176 0.501961 0.392157 
0.0941176 0.501961 0.392157 0.0941176 0.501961 0.392157 
0.0941176 0.501961 0.392157 0.0941176 0.501961 0.392157 
0.0941176 0.501961 0.392157 0.0941176 0.501961 0.392157 
0.0941176 0.501961 0.392157 0.0941176 0.501961 0.392157 
0.0941176 0.501961 0.392157 0.0941176 0.501961 0.392157 
0.0941176 0.501961 0.392157 0.0941176 0.501961 0.392157 
0.0941176 0.501961 0.392157 0.0941176 0.501961 0.392157 
0.0941176 0.501961 0.392157 0.0941176 0.501961 0.392157 
0.0941176 0.501961 0.392157 0.0941176 0.501961 0.392157 
0.0941176 0.501961 0.392157 0.0941176 0.501961 0.392157 
0.0941176 0.501961 0.392157 0.0941176 0.501961 0.392157 
0.0941176 0.501961 0.392157 0.0941176 0.501961 0.392157 
0.0941176 0.501961 0.392157 0.0941176 0.501961 0.392157 
0.0941176 0.501961 0.392157 0.0941176 0.501961 0.392157 
0.0941176 0.501961 0.392157 0.0941176 0.501961 0.392157 
0.0941176 0.501961 0.392157 0.0941176 0.501961 0.392157 
0.0941176 0.501961 0.392157 0.0941176 0.501961 0.392157 
0.0941176 0.501961 0.392157 0.0941176 0.501961 0.392157 
0.0941176 0.501961 0.392157 0.0941176 0.501961 0.392157 
0.0941176 0.501961 0.392157 0.0941176 0.501961 0.392157 
0.0941176 0.501961 0.392157 0.0941176 0.501961 0.392157 
0.0941176 0.501961 0.392157 0.0941176 0.501961 0.392157 
0.0941176 0.501961 0.392157 0.0941176 0.501961 0.392157 
0.0941176 0.501961 0.392157 0.0941176 0.501961 0.392157 
0.0941176 0.501961 0.392157 0.0941176 0.501961 0.392157 
0.0941176 0.501961 0.392157 0.0941176 0.501961 0.392157 
0.0941176 0.501961 0.392157 0.0941176 0.501961 0.392157 
0.0941176 0.501961 0.392157 0.0941176 0.501961 0.392157 
0.0941176 0.501961 0.392157 0.0941176 0.501961 0.392157 
0.0941176 0.501961 0.392157 0.0941176 0.501961 0.392157 
0.0941176 0.501961 0.392157 0.0941176 0.501961 0.392157 
0.0941176 0.501961 0.392157 0.0941176 0.501961 0.392157 
0.0941176 0.501961 0.392157 0.0941176 0.501961 0.392157 
0.0941176 0.501961 0.392157 0.0941176 0.501961 0.392157 
0.0941176 0.501961 0.392157 0.0941176 0.501961 0.392157 
0.0941176 0.501961 0.392157 0.0941176 0.501961 0.392157 
0.0941176 0.501961 0.392157 0.0941176 0.501961 0.392157 
0.0941176 0.501961 0.392157 0.0941176 0.501961 0.392157 
0.0941176 0.501961 0.392157 0.0941176 0.501961 0.392157 
0.0941176 0.501961 0.392157 0.0941176 0.501961 0.392157 
0.0941176 0.501961 0.392157 0.0941176 0.501961 0.392157 
0.0941176 0.501961 0.392157 0.0941176 0.501961 0.392157 
0.0941176 0.501961 0.392157 0.0941176 0.501961 0.392157 
0.0941176 0.501961 0.392157 0.0941176 0.501961 0.392157 
0.0941176 0.501961 0.392157 0.0941176 0.501961 0.392157 
0.0941176 0.501961 0.392157 0.0941176 0.501961 0.392157 
0.0941176 0.501961 0.392157 0.0941176 0.501961 0.392157 
0.0941176 0.501961 0.392157 0.0941176 0.501961 0.392157 
0.0941176 0.501961 0.392157 0.0941176 0.501961 0.392157 
0.0941176 0.501961 0.392157 0.0941176 0.501961 0.392157 
0.0941176 0.501961 0.392157 0.0941176 0.501961 0.392157 
0.0941176 0.501961 0.392157 0.0941176 0.501961 0.392157 
0.0941176 0.501961 0.392157 0.0941176 0.501961 0.392157 
0.0941176 0.501961 0.392157 0.0941176 0.501961 0.392157 
0.0941176 0.501961 0.392157 0.0941176 0.501961 0.392157 
0.0941176 0.501961 0.392157 0.0941176 0.501961 0.392157 
0.0941176 0.501961 0.392157 0.0941176 0.501961 0.392157 
0.0941176 0.501961 0.392157 0.0941176 0.501961 0.392157 
0.0941176 0.501961 0.392157 0.0941176 0.501961 0.392157 
0.0941176 0.501961 0.392157 0.0941176 0.501961 0.392157 
0.0941176 0.501961 0.392157 0.0941176 0.501961 0.392157 
0.0941176 0.501961 0.392157 0.0941176 0.501961 0.392157 
0.0941176 0.501961 0.392157 0.0941176 0.501961 0.392157 
0.0941176 0.501961 0.392157 0.0941176 0.501961 0.392157 
0.0941176 0.501961 0.392157 0.0941176 0.501961 0.392157 
0.0941176 0.501961 0.392157 0.0941176 0.501961 0.392157 
0.0941176 0.501961 0.392157 0.0941176 0.501961 0.392157 
0.0941176 0.501961 0.392157 0.0941176 0.501961 0.392157 