# vtk DataFile Version 4.2
vtk output
ASCII
DATASET POLYDATA
POINTS 1269 float
204.872 140.828 82.1131 204.772 140.766 82.0993 204.917 140.888 82.2207 
204.446 140.081 82.6132 203.547 140.322 82.2319 203.514 140.597 82.1501 
204.41 140.542 82.134 204.647 140.342 82.4056 204.661 140.566 82.1918 
203.678 140.955 82.1452 204.507 140.786 82.1088 203.195 141.631 82.3907 
204.012 141.333 82.2527 204.55 141.201 82.2607 204.891 141.103 82.3809 
204.796 141.296 82.3989 202.948 139.172 83.103 202.815 139.43 82.7814 
204.766 140.276 82.7284 201.762 141.669 82.5646 201.182 141.437 82.6422 
201.139 142.423 82.8541 203.653 142.294 82.8197 204.172 142.162 82.8708 
204.636 141.882 82.8842 202.524 142.856 83.1422 201.851 138.599 83.5471 
201.969 138.583 83.632 201.066 138.657 83.7709 201.91 139.108 83.0929 
202.425 138.78 83.5372 201.321 139.668 82.9279 201.649 140.147 82.6551 
204.89 140.117 83.6184 199.105 140.857 83.3324 205.059 140.464 83.3567 
205.175 140.899 83.3896 198.774 142.218 83.3529 204.913 141.987 83.3493 
198.269 143.728 83.7546 199.643 143.285 83.3809 202.504 143.419 83.5841 
197.453 144.758 84.3048 199.926 137.81 84.9622 199.312 137.924 84.8766 
199.352 138.484 84.3497 201.766 138.4 84.1457 198.379 139.339 84.139 
204.594 139.54 84.4187 205.363 141.05 84.2837 205.47 142.177 84.5665 
195.368 145.527 85.2601 197.123 145.643 85.0597 198.396 137.427 85.6207 
198.64 137.444 85.5217 195.531 140.42 85.0567 193.989 142.686 85.1846 
195.257 143.458 84.6499 203.071 144.062 84.4823 194.399 144.627 85.1295 
203.229 144.471 85.1635 193.067 145.712 85.9103 195.828 146.289 85.7998 
197.186 137.494 86.4613 199.649 137.342 86.08 196.301 138.592 85.792 
203.951 138.782 85.9827 193.722 140.452 86.12 205.275 140.143 86.2245 
205.449 140.584 85.7151 193.979 142.004 85.3364 205.994 142.617 86.3251 
205.615 143.406 85.942 205.396 144.024 86.579 191.007 145.801 86.6595 
192.335 146.896 86.8652 200.552 137.349 86.6852 195.226 138.222 87.2715 
202.2 137.76 86.9989 204.826 139.423 86.9798 190.519 142.273 86.9716 
206.087 141.862 87.1951 189.612 144.109 87.0448 205.979 143.386 87.17 
190.333 144.64 86.7092 194.696 146.953 86.5521 190.59 139.44 88.5384 
192.157 138.856 88.6371 205.881 140.95 87.8929 189.088 137.797 90.3571 
204.924 145.581 88.6415 185.65 147.893 89.3053 186.9 149.555 89.8791 
189.587 149.246 89.8162 183.398 155.917 89.8003 183.206 157.017 89.8021 
182.593 157.409 89.822 183.876 156.137 89.8593 184.2 156.424 90.0014 
183.679 157.634 89.8883 182.484 159.377 89.8735 183.641 162.172 90.1449 
183.138 163.093 90.4166 183.155 163.53 90.6373 183.952 163.339 90.6717 
183.822 163.74 90.8705 188.395 138.079 90.2223 190.095 137.645 90.4639 
192.054 137.797 90.3741 206.336 141.427 90.1286 182.9 148.838 90.135 
184.109 150.506 89.9022 186.041 150.478 90.1422 185.403 152.004 90.3203 
181.411 161.841 90.5738 183.926 162.346 90.269 183.874 164.034 91.1766 
185.007 138.745 91.0482 206.559 143.215 90.3628 206.56 143.687 90.6948 
206.084 145.211 90.9821 181.35 149.202 90.778 187.505 151.099 91.12 
186.088 153.945 91.1881 180.286 156.921 90.6398 179.734 161.83 91.6091 
184.924 163.413 91.2812 183.541 164.462 91.9117 185.268 164.495 92.2958 
200.406 136.447 91.1591 203.951 137.246 91.6748 205.077 138.353 91.3855 
205.613 146.435 92.094 178.458 159.892 91.9949 181.765 164.322 92.7441 
184.912 164.89 92.8206 185.604 164.313 92.3295 202.909 135.977 93.318 
181.776 138.421 93.1015 204.673 147.339 92.3375 200.092 149.07 92.6229 
188.516 151.836 92.5136 186.856 162.804 93.0314 178.053 162.523 93.7984 
205.43 136.697 94.1301 191.466 136.353 93.0837 206.848 141.449 93.817 
204.85 147.298 92.753 176.673 149.181 93.8589 192.36 150.9 93.8543 
176.363 161.242 94.6993 186.803 164.133 93.6167 187.118 164.338 94.2643 
186.129 165.118 94.4437 183.34 134.54 95.0088 182.24 134.797 95.3918 
204.795 135.798 95.0795 193.059 136.155 93.7607 206.961 138.746 95.4055 
206.663 142.674 94.8631 205.643 146.565 93.8395 205.43 146.681 94.1588 
205.649 146.368 94.1689 204.805 147.216 94.029 188.424 161.405 95.1436 
182.93 165.017 95.1031 187.651 164.069 94.7614 184.857 165.324 95.0728 
186.078 165.292 94.9721 187.882 164.332 95.3625 203.492 135.066 96.0472 
206.868 138.06 95.8488 206.89 138.119 96.2756 206.993 138.552 96.3848 
206.436 142.776 95.5483 175.462 144.233 96.1753 205.794 145.899 94.3317 
204.74 146.236 95.645 203.41 147.671 95.4391 190.905 152.566 95.9039 
188.336 164.113 95.8624 188.451 164.341 96.3586 187.433 165.077 96.2303 
181.487 128.627 98.302 182.012 129.529 98.1018 185.772 132.896 96.5099 
202.814 134.779 96.6169 203.329 134.821 96.756 203.549 134.915 96.8825 
197.467 134.552 96.3955 203.942 135.145 96.6601 206.955 138.792 96.6782 
201.122 148.734 96.0445 189.112 160.613 96.3699 188.956 162.448 96.2188 
188.992 163.784 97.3359 185.652 165.358 96.8526 186.91 165.365 97.2329 
188.418 164.664 97.1479 181.305 127.702 98.8554 180.724 128.212 98.5969 
182.487 129.897 98.1896 181.528 130.537 97.8879 183.262 130.856 97.95 
185.037 130.44 99.0096 181.835 131.527 97.5571 194.564 132.062 98.7131 
180.768 132.4 97.5767 203.629 135.042 97.3479 204.862 135.708 97.18 
206.558 137.845 97.1498 206.606 138.277 97.3456 205.733 141.384 97.7186 
205.346 141.768 97.9315 200.368 147.756 97.9593 199.414 148.886 97.4808 
200.016 148.881 96.8821 195.499 150.767 97.378 192.469 152.302 97.9679 
190.592 154.395 97.702 189.713 157.437 97.3839 172.304 158.606 97.9787 
189.78 158.642 98.0862 172.57 159.396 98.2619 172.878 160.321 99.1319 
174.587 161.541 98.8505 189.226 162.619 97.1798 187.036 165.303 97.7643 
181.134 126.137 99.9266 180.2 128.235 98.7651 184.235 129.471 99.3779 
194.567 131.59 99.2034 195.351 131.529 99.3924 196.816 131.821 99.7057 
200.723 134.378 98.537 205.028 136.282 98.3332 205.689 137.127 98.4779 
206.381 138.656 97.7803 177.966 137.784 98.6191 177.755 138.417 98.4876 
177.321 139.152 98.6466 203.39 142.299 99.183 201.483 145.779 98.5463 
198.506 148.928 98.1541 197.074 149.799 98.0459 193.692 151.552 98.5226 
190.608 155.19 98.9447 171.614 159.14 99.3854 174.998 161.822 99.8093 
189.393 161.824 98.6448 189.196 162.802 98.6452 188.775 164.218 98.2437 
186.962 165.173 98.2246 188.535 164.589 98.0825 181.327 125.598 100.661 
180.022 125.721 100.352 179.385 126.272 100.109 186.243 130.009 100.509 
201.415 134.709 100.192 205.122 137.116 99.1962 203.954 139.606 100.051 
204.662 138.876 99.7492 171.292 144.829 99.3134 192.348 152.414 99.4903 
190.921 154.413 99.7388 190.468 155.756 99.7772 170.674 159.214 101.007 
189.08 162.742 99.2702 186.978 164.873 98.9029 188.26 164.597 98.7214 
179.64 124.781 101.428 182.356 126.06 100.793 196.532 130.05 101.527 
196.724 130.008 101.764 196.882 130.273 101.496 186.69 130.074 100.778 
197.343 130.742 101.406 198.75 132.729 100.407 199.684 133.221 101.346 
177.686 135.977 99.4224 202.583 135.601 100.308 203.41 135.814 99.6961 
204.013 136.606 99.862 204.758 137.682 99.7577 203.396 138.021 100.813 
176.748 139.277 99.5926 176.641 139.122 99.8108 175.355 140.914 99.596 
169.328 142.761 101.148 191.39 153.253 100.525 189.962 156.207 100.906 
189.653 158.032 100.657 168.322 157.925 102.068 188.77 161.513 100.568 
185.506 164.572 99.8888 187.571 163.922 100.097 180.156 124.297 102.289 
180.653 124.327 102.541 177.999 124.941 101.945 176.951 126.278 101.506 
193.912 129.547 102.238 195.164 129.393 102.752 196.246 129.686 102.305 
196.697 129.881 102.135 173.641 130.678 101.728 200.13 133.657 101.535 
171.382 134.607 102.245 175.074 135.852 101.124 175.81 136.47 100.876 
201.473 135.319 101.433 203.597 137.131 100.532 203.079 137.674 101.025 
202.681 137.26 101.306 202.139 137.88 101.69 175.54 139.121 100.774 
175.38 139.546 100.693 194.188 148.769 101.455 192.945 150.622 101.194 
170.693 159.577 102.118 186.947 163.404 101.021 186.848 163.874 100.589 
199.374 132.598 103.22 169.152 135.173 103.254 201.404 136.591 102.257 
202.503 136.73 101.286 172.303 137.239 101.968 173.342 138.975 101.738 
174.097 138.909 101.63 172.832 140.013 101.286 189.6 152.159 103.124 
165.659 154.116 103.118 166.364 156.674 103.726 180.065 162.725 102.767 
182.381 163.559 101.967 177.804 123.311 104.208 176.466 123.666 104.371 
194.816 129.169 103.968 197.803 130.557 103.782 199.65 133.675 104.092 
200.082 134.127 103.214 200.192 136.145 103.405 174.149 138.144 101.738 
166.024 141.993 103.601 198.898 132.24 104.448 199.522 133.556 104.551 
199.622 133.657 104.449 199.566 133.677 104.589 199.506 134.331 104.501 
199.582 133.803 104.5 199.291 134.828 104.725 164.004 151.898 105.252 
185.045 153.264 105.515 177.344 122.506 106.449 192.196 128.955 105.979 
197.025 130.302 105.638 198.197 131.81 105.686 199.37 133.776 104.79 
165.465 136.1 105.841 164.079 141.428 106.152 164.034 154.024 106.12 
166.364 157.418 106.565 179.301 123.024 106.912 172.054 123.546 107.068 
194.504 129.232 105.991 198.17 132.347 106.117 198.566 132.729 105.801 
198.621 133.183 105.853 198.046 133.424 106.522 196.004 135.669 107.252 
163.844 138.965 107.48 163.64 140.708 107.603 163.314 144.973 107.009 
163.959 154.454 107.2 164.368 155.259 107.316 179.428 160.064 106.49 
176.562 160.753 106.357 173.59 121.732 107.818 172.731 122.416 107.573 
167.149 128.712 108.056 190.036 128.848 107.755 192.628 129.102 107.235 
196.974 132.248 107.454 164.096 136.396 107.792 163.821 137.658 108.296 
163.416 142.165 108.553 163.296 142.803 108.26 163.251 142.903 108.343 
163.301 143.145 108.276 163.867 153.881 107.749 164.006 154.105 108.026 
164.303 155.107 107.691 175.404 160.193 107.495 177.148 160.455 106.871 
174.214 119.852 109.577 167.631 126.27 109.369 166.724 128.173 109.266 
190.627 129.057 108.445 193.726 129.736 108.152 195.653 130.866 108.08 
164.731 132.616 109.389 163.929 136.098 108.697 163.84 136.918 108.887 
163.263 142.921 108.414 163.35 142.892 108.614 163.518 144.397 108.532 
163.88 145.911 109.14 165.399 155.815 108.79 178.236 159.997 107.129 
171.304 120.393 110.077 175.603 119.803 110.584 176.58 120.668 110.602 
[...]
POINT_DATA 1269
COLOR_SCALARS scalars 3
0.0941176 0.501961 0.392157 0.0941176 0.501961 0.392157 0.0941176 0.501961 0.392157 
0.0941176 0.501961 0.392157 0.0941176 0.501961 0.392157 
0.0941176 0.501961 0.392157 0.0941176 0.501961 0.392157 
0.0941176 0.501961 0.392157 0.0941176 0.501961 0.392157 
0.0941176 0.501961 0.392157 0.0941176 0.501961 0.392157 
0.0941176 0.501961 0.392157 0.0941176 0.501961 0.392157 
0.0941176 0.501961 0.392157 0.0941176 0.501961 0.392157 
0.0941176 0.501961 0.392157 0.0941176 0.501961 0.392157 
0.0941176 0.501961 0.392157 0.0941176 0.501961 0.392157 
0.0941176 0.501961 0.392157 0.0941176 0.501961 0.392157 
0.0941176 0.501961 0.392157 0.0941176 0.501961 0.392157 
0.0941176 0.501961 0.392157 0.0941176 0.501961 0.392157 
0.0941176 0.501961 0.392157 0.0941176 0.501961 0.392157 
0.0941176 0.501961 0.392157 0.0941176 0.501961 0.392157 
0.0941176 0.501961 0.392157 0.0941176 0.501961 0.392157 
0.0941176 0.501961 0.392157 0.0941176 0.501961 0.392157 
0.0941176 0.501961 0.392157 0.0941176 0.501961 0.392157 
0.0941176 0.501961 0.392157 0.0941176 0.501961 0.392157 
0.0941176 0.501961 0.392157 0.0941176 0.501961 0.392157 
0.0941176 0.501961 0.392157 0.0941176 0.501961 0.392157 
0.0941176 0.501961 0.392157 0.0941176 0.501961 0.392157 
0.0941176 0.501961 0.392157 0.0941176 0.501961 0.392157 
0.0941176 0.501961 0.392157 0.0941176 0.501961 0.392157 
0.0941176 0.501961 0.392157 0.0941176 0.501961 0.392157 
0.0941176 0.501961 0.392157 0.0941176 0.501961 0.392157 
0.0941176 0.501961 0.392157 0.0941176 0.501961 0.392157 
0.0941176 0.501961 0.392157 0.0941176 0.501961 0.392157 
0.0941176 0.501961 0.392157 0.0941176 0.501961 0.392157 
0.0941176 0.501961 0.392157 0.0941176 0.501961 0.392157 
0.0941176 0.501961 0.392157 0.0941176 0.501961 0.392157 
0.0941176 0.501961 0.392157 0.0941176 0.501961 0.392157 
0.0941176 0.501961 0.392157 0.0941176 0.501961 0.392157 
0.0941176 0.501961 0.392157 0.0941176 0.501961 0.392157 
0.0941176 0.501961 0.392157 0.0941176 0.501961 0.392157 
0.0941176 0.501961 0.392157 0.0941176 0.501961 0.392157 
0.0941176 0.501961 0.392157 0.0941176 0.501961 0.392157 
0.0941176 0.501961 0.392157 0.0941176 0.501961 0.392157 
0.0941176 0.501961 0.392157 0.0941176 0.501961 0.392157 
0.0941176 0.501961 0.392157 0.0941176 0.501961 0.392157 
0.0941176 0.501961 0.392157 0.0941176 0.501961 0.392157 
0.0941176 0.501961 0.392157 0.0941176 0.501961 0.392157 
0.0941176 0.501961 0.392157 0.0941176 0.501961 0.392157 
0.0941176 0.501961 0.392157 0.0941176 0.501961 0.392157 
0.0941176 0.501961 0.392157 0.0941176 0.501961 0.392157 
0.0941176 0.501961 0.392157 0.0941176 0.501961 0.392157 
0.0941176 0.501961 0.392157 0.0941176 0.501961 0.392157 
0.0941176 0.501961 0.392157 0.0941176 0.501961 0.392157 
0.0941176 0.501961 0.392157 0.0941176 0.501961 0.392157 
0.0941176 0.501961 0.392157 0.0941176 0.501961 0.392157 
0.0941176 0.501961 0.392157 0.0941176 0.501961 0.392157 
0.0941176 0.501961 0.392157 0.0941176 0.501961 0.392157 
0.0941176 0.501961 0.392157 0.0941176 0.501961 0.392157 
0.0941176 0.501961 0.392157 0.0941176 0.501961 0.392157 
0.0941176 0.501961 0.392157 0.0941176 0.501961 0.392157 
0.0941176 0.501961 0.392157 0.0941176 0.501961 0.392157 
0.0941176 0.501961 0.392157 0.0941176 0.501961 0.392157 
0.0941176 0.501961 0.392157 0.0941176 0.501961 0.392157 
0.0941176 0.501961 0.392157 0.0941176 0.501961 0.392157 
0.0941176 0.501961 0.392157 0.0941176 0.501961 0.392157 
0.0941176 0.501961 0.392157 0.0941176 0.501961 0.392157 
0.0941176 0.501961 0.392157 0.0941176 0.501961 0.392157 
0.0941176 0.501961 0.392157 0.0941176 0.501961 0.392157 
0.0941176 0.501961 0.392157 0.0941176 0.501961 0.392157 
0.0941176 0.501961 0.392157 0.0941176 0.501961 0.392157 
0.0941176 0.501961 0.392157 0.0941176 0.501961 0.392157 
0.0941176 0.501961 0.392157 0.0941176 0.501961 0.392157 
0.0941176 0.501961 0.392157 0.0941176 0.501961 0.392157 
0.0941176 0.501961 0.392157 0.0941176 0.501961 0.392157 
0.0941176 0.501961 0.392157 0.0941176 0.501961 0.392157 
0.0941176 0.501961 0.392157 0.0941176 0.501961 0.392157 
0.0941176 0.501961 0.392157 0.0941176 0.501961 0.392157 
0.0941176 0.501961 0.392157 0.0941176 0.501961 0.392157 
0.0941176 0.501961 0.392157 0.0941176 0.501961 0.392157 
0.0941176 0.501961 0.392157 0.0941176 0.501961 0.392157 
0.0941176 0.501961 0.392157 0.0941176 0.501961 0.392157 
0.0941176 0.501961 0.392157 0.0941176 0.501961 0.392157 
0.0941176 0.501961 0.392157 0.0941176 0.501961 0.392157 
0.0941176 0.501961 0.392157 0.0941176 0.501961 0.392157 
0.0941176 0.501961 0.392157 0.0941176 0.501961 0.392157 
0.0941176 0.501961 0.392157 0.0941176 0.501961 0.392157 
0.0941176 0.501961 0.392157 0.0941176 0.501961 0.392157 
0.0941176 0.501961 0.392157 0.0941176 0.501961 0.392157 
0.0941176 0.501961 0.392157 0.0941176 0.501961 0.392157 
0.0941176 0.501961 0.392157 0.0941176 0.501961 0.392157 
0.0941176 0.501961 0.392157 0.0941176 0.501961 0.392157 
0.0941176 0.501961 0.392157 0.0941176 0.501961 0.392157 
0.0941176 0.501961 0.392157 0.0941176 0.501961 0.392157 
0.0941176 0.501961 0.392157 0.0941176 0.501961 0.392157 
0.0941176 0.501961 0.392157 0.0941176 0.501961 0.392157 
0.0941176 0.501961 0.392157 0.0941176 0.501961 0.392157 
0.0941176 0.501961 0.392157 0.0941176 0.501961 0.392157 
0.0941176 0.501961 0.392157 0.0941176 0.501961 0.392157 
0.0941176 0.501961 0.392157 0.0941176 0.501961 0.392157 
0.0941176 0.501961 0.392157 0.0941176 0.501961 0.392157 
0.0941176 0.501961 0.392157 0.0941176 0.501961 0.392157 
0.0941176 0.501961 0.392157 0.0941176 0.501961 0.392157 
0.0941176 0.501961 0.392157 0.0941176 0.501961 0.392157 
0.0941176 0.501961 0.392157 0.0941176 0.501961 0.392157 
0.0941176 0.501961 0.392157 0.0941176 0.501961 0.392157 
0.0941176 0.501961 0.392157 0.0941176 0.501961 0.392157 
0.0941176 0.501961 0.392157 0.0941176 0.501961 0.392157 
0.0941176 0.501961 0.392157 0.0941176 0.501961 0.392157 
0.0941176 0.501961 0.392157 0.0941176 0.501961 0.392157 
0.0941176 0.501961 0.392157 0.0941176 0.501961 0.392157 
0.0941176 0.501961 0.392157 0.0941176 0.501961 0.392157 
0.0941176 0.501961 0.392157 0.0941176 0.501961 0.392157 
0.0941176 0.501961 0.392157 0.0941176 0.501961 0.392157 
0.0941176 0.501961 0.392157 0.0941176 0.501961 0.392157 
0.0941176 0.501961 0.392157 0.0941176 0.501961 0.392157 
0.0941176 0.501961 0.392157 0.0941176 0.501961 0.392157 
0.0941176 0.501961 0.392157 0.0941176 0.501961 0.392157 
0.0941176 0.501961 0.392157 0.0941176 0.501961 0.392157 
0.0941176 0.501961 0.392157 0.0941176 0.501961 0.392157 
0.0941176 0.501961 0.392157 0.0941176 0.501961 0.392157 
0.0941176 0.501961 0.392157 0.0941176 0.501961 0.392157 
0.0941176 0.501961 0.392157 0.0941176 0.501961 0.392157 
0.0941176 0.501961 0.392157 0.0941176 0.501961 0.392157 
0.0941176 0.501961 0.392157 0.0941176 0.501961 0.392157 
0.0941176 0.501961 0.392157 0.0941176 0.501961 0.392157 
0.0941176 0.501961 0.392157 0.0941176 0.501961 0.392157 
0.0941176 0.501961 0.392157 0.0941176 0.501961 0.392157 
0.0941176 0.501961 0.392157 0.0941176 0.501961 0.392157 
0.0941176 0.501961 0.392157 0.0941176 0.501961 0.392157 
0.0941176 0.501961 0.392157 0.0941176 0.501961 0.392157 
0.0941176 0.501961 0.392157 0.0941176 0.501961 0.392157 
0.0941176 0.501961 0.392157 0.0941176 0.501961 0.392157 
0.0941176 0.501961 0.392157 0.0941176 0.501961 0.392157 
0.0941176 0.501961 0.392157 0.0941176 0.501961 0.392157 
0.0941176 0.501961 0.392157 0.0941176 0.501961 0.392157 
0.0941176 0.501961 0.392157 0.0941176 0.501961 0.392157 
0.0941176 0.501961 0.392157 0.0941176 0.501961 0.392157 
0.0941176 0.501961 0.392157 0.0941176 0.501961 0.392157 
0.0941176 0.501961 0.392157 0.0941176 0.501961 0.392157 
0.0941176 0.501961 0.392157 0.0941176 0.501961 0.392157 
0.0941176 0.501961 0.392157 0.0941176 0.501961 0.392157 
0.0941176 0.501961 0.392157 0.0941176 0.501961 0.392157 
0.0941176 0.501961 0.392157 0.0941176 0.501961 0.392157 
0.0941176 0.501961 0.392157 0.0941176 0.501961 0.392157 
0.0941176 0.501961 0.392157 0.0941176 0.501961 0.392157 
0.0941176 0.501961 0.392157 0.0941176 0.501961 0.392157 
0.0941176 0.501961 0.392157 0.0941176 0.501961 0.392157 
0.0941176 0.501961 0.392157 0.0941176 0.501961 0.392157 
0.0941176 0.501961 0.392157 0.0941176 0.501961 0.392157 
0.0941176 0.501961 0.392157 0.0941176 0.501961 0.392157 
0.0941176 0.501961 0.392157 0.0941176 0.501961 0.392157 
0.0941176 0.501961 0.392157 0.0941176 0.501961 0.392157 
0.0941176 0.501961 0.392157 0.0941176 0.501961 0.392157 
0.0941176 0.501961 0.392157 0.0941176 0.501961 0.392157 
0.0941176 0.501961 0.392157 0.0941176 0.501961 0.392157 
0.0941176 0.501961 0.392157 0.0941176 0.501961 0.392157 
0.0941176 0.501961 0.392157 0.0941176 0.501961 0.392157 
0.0941176 0.501961 0.392157 0.0941176 0.501961 0.392157 
0.0941176 0.501961 0.392157 0.0941176 0.501961 0.392157 
0.0941176 0.501961 0.392157 0.0941176 0.501961 0.392157 
0.0941176 0.501961 0.392157 0.0941176 0.501961 0.392157 
0.0941176 0.501961 0.392157 0.0941176 0.501961 0.392157 
0.0941176 0.501961 0.392157 0.0941176 0.501961 0.392157 
0.0941176 0.501961 0.392157 0.0941176 0.501961 0.392157 
0.0941176 0.501961 0.392157 0.0941176 0.501961 0.392157 
0.0941176 0.501961 0.392157 0.0941176 0.501961 0.392157 
0.0941176 0.501961 0.392157 0.0941176 0.501961 0.392157 
0.0941176 0.501961 0.392157 0.0941176 0.501961 0.392157 
0.0941176 0.501961 0.392157 0.0941176 0.501961 0.392157 
0.0941176 0.501961 0.392157 0.0941176 0.501961 0.392157 
0.0941176 0.501961 0.392157 0.0941176 0.501961 0.392157 
0.0941176 0.501961 0.392157 0.0941176 0.501961 0.392157 
0.0941176 0.501961 0.392157 0.0941176 0.501961 0.392157 
0.0941176 0.501961 0.392157 0.0941176 0.501961 0.392157 
0.0941176 0.501961 0.392157 0.0941176 0.501961 0.392157 
0.0941176 0.501961 0.392157 0.0941176 0.501961 0.392157 
0.0941176 0.501961 0.392157 0.0941176 0.501961 0.392157 
0.0941176 0.501961 0.392157 0.0941176 0.501961 0.392157 
0.0941176 0.501961 0.392157 0.0941176 0.501961 0.392157 
0.0941176 0.501961 0.392157 0.0941176 0.501961 0.392157 
0.0941176 0.501961 0.392157 0.0941176 0.501961 0.392157 
0.0941176 0.501961 0.392157 0.0941176 0.501961 0.392157 
0.0941176 0.501961 0.392157 0.0941176 0.501961 0.392157 
0.0941176 0.501961 0.392157 0.0941176 0.501961 0.392157 
0.0941176 0.501961 0.392157 0.0941176 0.501961 0.392157 
0.0941176 0.501961 0.392157 0.0941176 0.501961 0.392157 
0.0941176 0.501961 0.392157 0.0941176 0.501961 0.392157 
0.0941176 0.501961 0.392157 0.0941176 0.501961 0.392157 
0.0941176 0.501961 0.392157 0.0941176 0.501961 0.392157 
0.0941176 0.501961 0.392157 0.0941176 0.501961 0.392157 
0.0941176 0.501961 0.392157 0.0941176 0.501961 0.392157 
0.0941176 0.501961 0.392157 0.0941176 0.501961 0.392157 
0.0941176 0.501961 0.392157 0.0941176 0.501961 0.392157 
0.0941176 0.501961 0.392157 0.0941176 0.501961 0.392157 
0.0941176 0.501961 0.392157 0.0941176 0.501961 0.392157 
0.0941176 0.501961 0.392157 0.0941176 0.501961 0.392157 
0.0941176 0.501961 0.392157 0.0941176 0.501961 0.392157 
0.0941176 0.501961 0.392157 0.0941176 0.501961 0.392157 
0.0941176 0.501961 0.392157 0.0941176 0.501961 0.392157 
0.0941176 0.501961 0.392157 0.0941176 0.501961 0.392157 
0.0941176 0.501961 0.392157 0.0941176 0.501961 0.392157 
0.0941176 0.501961 0.392157 0.0941176 0.501961 0.392157 
0.0941176 0.501961 0.392157 0.0941176 0.501961 0.392157 
0.0941176 0.501961 0.392157 0.0941176 0.501961 0.392157 
0.0941176 0.501961 0.392157 0.0941176 0.501961 0.392157 
0.0941176 0.501961 0.392157 0.0941176 0.501961 0.392157 
0.0941176 0.501961 0.392157 0.0941176 0.501961 0.392157 
0.0941176 0.501961 0.392157 0.0941176 0.501961 0.392157 
0.0941176 0.501961 0.392157 0.0941176 0.501961 0.392157 
0.0941176 0.501961 0.392157 0.0941176 0.501961 0.392157 
0.0941176 0.501961 0.392157 0.0941176 0.501961 0.392157 
0.0941176 0.501961 0.392157 0.0941176 0.501961 0.392157 
0.0941176 0.501961 0.392157 0.0941176 0.501961 0.392157 
0.0941176 0.501961 0.392157 0.0941176 0.501961 0.392157 
0.0941176 0.501961 0.392157 0.0941176 0.501961 0.392157 
0.0941176 0.501961 0.392157 0.0941176 0.501961 0.392157 
0.0941176 0.501961 0.392157 0.0941176 0.501961 0.392157 
0.0941176 0.501961 0.392157 0.0941176 0.501961 0.392157 
0.0941176 0.501961 0.392157 0.0941176 0.501961 0.392157 
0.0941176 0.501961 0.392157 0.0941176 0.501961 0.392157 
0.0941176 0.501961 0.392157 0.0941176 0.501961 0.392157 
0.0941176 0.501961 0.392157 0.0941176 0.501961 0.392157 
0.0941176 0.501961 0.392157 0.0941176 0.501961 0.392157 
0.0941176 0.501961 0.392157 0.0941176 0.501961 0.392157 
0.0941176 0.501961 0.392157 0.0941176 0.501961 0.392157 
0.0941176 0.501961 0.392157 0.0941176 0.501961 0.392157 
0.0941176 0.501961 0.392157 0.0941176 0.501961 0.392157 
0.0941176 0.501961 0.392157 0.0941176 0.501961 0.392157 
0.0941176 0.501961 0.392157 0.0941176 0.501961 0.392157 
0.0941176 0.501961 0.392157 0.0941176 0.501961 0.392157 
0.0941176 0.501961 0.392157 0.0941176 0.501961 0.392157 
0.0941176 0.501961 0.392157 0.0941176 0.501961 0.392157 
0.0941176 0.501961 0.392157 0.0941176 0.501961 0.392157 
0.0941176 0.501961 0.392157 0.0941176 0.501961 0.392157 
0.0941176 0.501961 0.392157 0.0941176 0.501961 0.392157 
0.0941176 0.501961 0.392157 0.0941176 0.501961 0.392157 
0.0941176 0.501961 0.392157 0.0941176 0.501961 0.392157 
0.0941176 0.501961 0.392157 0.0941176 0.501961 0.392157 
0.0941176 0.501961 0.392157 0.0941176 0.501961 0.392157 
0.0941176 0.501961 0.392157 0.0941176 0.501961 0.392157 
0.0941176 0.501961 0.392157 0.0941176 0.501961 0.392157 
0.0941176 0.501961 0.392157 0.0941176 0.501961 0.392157 
0.0941176 0.501961 0.392157 0.0941176 0.501961 0.392157 
0.0941176 0.501961 0.392157 0.0941176 0.501961 0.392157 
0.0941176 0.501961 0.392157 0.0941176 0.501961 0.392157 
0.0941176 0.501961 0.392157 0.0941176 0.501961 0.392157 
0.0941176 0.501961 0.392157 0.0941176 0.501961 0.392157 
0.0941176 0.501961 0.392157 0.0941176 0.501961 0.392157 
0.0941176 0.501961 0.392157 0.0941176 0.501961 0.392157 
0.0941176 0.501961 0.392157 0.0941176 0.501961 0.392157 
0.0941176 0.501961 0.392157 0.0941176 0.501961 0.392157 
0.0941176 0.501961 0.392157 0.0941176 0.501961 0.392157 
0.0941176 0.501961 0.392157 0.0941176 0.501961 0.392157 
0.0941176 0.501961 0.392157 0.0941176 0.501961 0.392157 
0.0941176 0.501961 0.392157 0.0941176 0.501961 0.392157 
0.0941176 0.501961 0.392157 0.0941176 0.501961 0.392157 
0.0941176 0.501961 0.392157 0.0941176 0.501961 0.392157 
0.0941176 0.501961 0.392157 0.0941176 0.501961 0.392157 
0.0941176 0.501961 0.392157 0.0941176 0.501961 0.392157 
0.0941176 0.501961 0.392157 0.0941176 0.501961 0.392157 
0.0941176 0.501961 0.392157 0.0941176 0.501961 0.392157 
0.0941176 0.501961 0.392157 0.0941176 0.501961 0.392157 
0.0941176 0.501961 0.392157 0.0941176 0.501961 0.392157 
0.0941176 0.501961 0.392157 0.0941176 0.501961 0.392157 
0.0941176 0.501961 0.392157 0.0941176 0.501961 0.392157 
0.0941176 0.501961 0.392157 0.0941176 0.501961 0.392157 
0.0941176 0.501961 0.392157 0.0941176 0.501961 0.392157 
0.0941176 0.501961 0.392157 0.0941176 0.501961 0.392157 
0.0941176 0.501961 0.392157 0.0941176 0.501961 0.392157 
0.0941176 0.501961 0.392157 0.0941176 0.501961 0.392157 
0.0941176 0.501961 0.392157 0.0941176 0.501961 0.392157 
0.0941176 0.501961 0.392157 0.0941176 0.501961 0.392157 
0.0941176 0.501961 0.392157 0.0941176 0.501961 0.392157 
0.0941176 0.501961 0.392157 0.0941176 0.501961 0.392157 
0.0941176 0.501961 0.392157 0.0941176 0.501961 0.392157 
0.0941176 0.501961 0.392157 0.0941176 0.501961 0.392157 
0.0941176 0.501961 0.392157 0.0941176 0.501961 0.392157 
0.0941176 0.501961 0.392157 0.0941176 0.501961 0.392157 
0.0941176 0.501961 0.392157 0.0941176 0.501961 0.392157 
0.0941176 0.501961 0.392157 0.0941176 0.501961 0.392157 
0.0941176 0.501961 0.392157 0.0941176 0.501961 0.392157 
0.0941176 0.501961 0.392157 0.0941176 0.501961 0.392157 
0.0941176 0.501961 0.392157 0.0941176 0.501961 0.392157 
0.0941176 0.501961 0.392157 0.0941176 0.501961 0.392157 
0.0941176 0.501961 0.392157 0.0941176 0.501961 0.392157 
0.0941176 0.501961 0.392157 0.0941176 0.501961 0.392157 
0.0941176 0.501961 0.392157 0.0941176 0.501961 0.392157 
0.0941176 0.501961 0.392157 0.0941176 0.501961 0.392157 
0.0941176 0.501961 0.392157 0.0941176 0.501961 0.392157 
0.0941176 0.501961 0.392157 0.0941176 0.501961 0.392157 
0.0941176 0.501961 0.392157 0.0941176 0.501961 0.392157 
0.0941176 0.501961 0.392157 0.0941176 0.501961 0.392157 
0.0941176 0.501961 0.392157 0.0941176 0.501961 0.392157 
0.0941176 0.501961 0.392157 0.0941176 0.501961 0.392157 
0.0941176 0.501961 0.392157 0.0941176 0.501961 0.392157 
0.0941176 0.501961 0.392157 0.0941176 0.501961 0.392157 
0.0941176 0.501961 0.392157 0.0941176 0.501961 0.392157 
0.0941176 0.501961 0.392157 0.0941176 0.501961 0.392157 
0.0941176 0.501961 0.392157 0.0941176 0.501961 0.392157 
0.0941176 0.501961 0.392157 0.0941176 0.501961 0.392157 
0.0941176 0.501961 0.392157 0.0941176 0.501961 0.392157 
0.0941176 0.501961 0.392157 0.0941176 0.501961 0.392157 
0.0941176 0.501961 0.392157 0.0941176 0.501961 0.392157 
0.0941176 0.501961 0.392157 0.0941176 0.501961 0.392157 
0.0941176 0.501961 0.392157 0.0941176 0.501961 0.392157 
0.0941176 0.501961 0.392157 0.0941176 0.501961 0.392157 
0.0941176 0.501961 0.392157 0.0941176 0.501961 0.392157 
0.0941176 0.501961 0.392157 0.0941176 0.501961 0.392157 
0.0941176 0.501961 0.392157 0.0941176 0.501961 0.392157 
0.0941176 0.501961 0.392157 0.0941176 0.501961 0.392157 
0.0941176 0.501961 0.392157 0.0941176 0.501961 0.392157 
0.0941176 0.501961 0.392157 0.0941176 0.501961 0.392157 
0.0941176 0.501961 0.392157 0.0941176 0.501961 0.392157 
0.0941176 0.501961 0.392157 0.0941176 0.501961 0.392157 
0.0941176 0.501961 0.392157 0.0941176 0.501961 0.392157 
0.0941176 0.501961 0.392157 0.0941176 0.501961 0.392157 
0.0941176 0.501961 0.392157 0.0941176 0.501961 0.392157 
0.0941176 0.501961 0.392157 0.0941176 0.501961 0.392157 
0.0941176 0.501961 0.392157 0.0941176 0.501961 0.392157 
0.0941176 0.501961 0.392157 0.0941176 0.501961 0.392157 
0.0941176 0.501961 0.392157 0.0941176 0.501961 0.392157 
0.0941176 0.501961 0.392157 0.0941176 0.501961 0.392157 
0.0941176 0.501961 0.392157 0.0941176 0.501961 0.392157 
0.0941176 0.501961 0.392157 0.0941176 0.501961 0.392157 
0.0941176 0.501961 0.392157 0.0941176 0.501961 0.392157 
0.0941176 0.501961 0.392157 0.0941176 0.501961 0.392157 
0.0941176 0.501961 0.392157 0.0941176 0.501961 0.392157 
0.0941176 0.501961 0.392157 0.0941176 0.501961 0.392157 
0.0941176 0.501961 0.392157 0.0941176 0.501961 0.392157 
0.0941176 0.501961 0.392157 0.0941176 0.501961 0.392157 
0.0941176 0.501961 0.392157 0.0941176 0.501961 0.392157 
0.0941176 0.501961 0.392157 0.0941176 0.501961 0.392157 
0.0941176 0.501961 0.392157 0.0941176 0.501961 0.392157 
0.0941176 0.501961 0.392157 0.0941176 0.501961 0.392157 
0.0941176 0.501961 0.392157 0.0941176 0.501961 0.392157 
0.0941176 0.501961 0.392157 0.0941176 0.501961 0.392157 
0.0941176 0.501961 0.392157 0.0941176 0.501961 0.392157 
0.0941176 0.501961 0.392157 0.0941176 0.501961 0.392157 
0.0941176 0.501961 0.392157 0.0941176 0.501961 0.392157 
0.0941176 0.501961 0.392157 0.0941176 0.501961 0.392157 
0.0941176 0.501961 0.392157 0.0941176 0.501961 0.392157 
0.0941176 0.501961 0.392157 0.0941176 0.501961 0.392157 
0.0941176 0.501961 0.392157 0.0941176 0.501961 0.392157 
0.0941176 0.501961 0.392157 0.0941176 0.501961 0.392157 
0.0941176 0.501961 0.392157 0.0941176 0.501961 0.392157 
0.0941176 0.501961 0.392157 0.0941176 0.501961 0.392157 
0.0941176 0.501961 0.392157 0.0941176 0.501961 0.392157 
0.0941176 0.501961 0.392157 0.0941176 0.501961 0.392157 
0.0941176 0.501961 0.392157 0.0941176 0.501961 0.392157 
0.0941176 0.501961 0.392157 0.0941176 0.501961 0.392157 
0.0941176 0.501961 0.392157 0.0941176 0.501961 0.392157 
0.0941176 0.501961 0.392157 0.0941176 0.501961 0.392157 
0.0941176 0.501961 0.392157 0.0941176 0.501961 0.392157 
0.0941176 0.501961 0.392157 0.0941176 0.501961 0.392157 
0.0941176 0.501961 0.392157 0.0941176 0.501961 0.392157 