# vtk DataFile Version 4.2
vtk output
ASCII
DATASET POLYDATA
POINTS 1708 float
192.507 140.592 75.7918 192.758 140.848 75.6964 192.561 141.267 75.6655 
192.817 141.036 75.6435 192.758 141.211 75.6555 192.872 141.106 75.7238 
192.626 141.434 75.772 192.81 141.294 75.7576 192.301 139.379 76.1367 
191.688 140.09 75.8199 192.61 139.857 76.261 192.859 140.913 75.7324 
190.45 141.838 75.9398 190.442 142.331 76.077 190.062 142.137 76.051 
192.407 141.766 76.0714 192.741 141.439 75.9406 189.531 142.907 76.5195 
190.512 142.794 76.3318 190.939 142.812 76.3688 191.406 142.629 76.3726 
189.98 143.172 76.6998 191.942 136.946 76.8426 191.635 136.779 76.7731 
191.333 137.022 76.6549 190.864 138.349 76.2618 189.613 140.173 76.1957 
192.828 141.291 76.1338 189.473 142.304 76.2781 192.259 142.095 76.3437 
192.518 141.843 76.5718 192.687 141.535 76.2262 191.06 142.96 76.5529 
191.308 142.928 76.6601 192.176 142.305 76.689 189.074 143.482 77.0972 
191.748 133.865 78.0285 191.596 134.23 77.7985 190.854 135.074 77.4404 
191.361 136.247 76.9727 189.45 137.981 76.7891 192.811 139.006 77.5925 
192.756 140.598 77.241 192.537 141.944 76.9004 192.436 142.115 76.8205 
192.475 142.099 76.9548 186.228 143.592 77.8499 191.355 142.996 76.9002 
191.552 142.881 77.086 192.294 142.232 77.0688 188.631 143.998 77.648 
189.248 143.926 77.7349 190.015 143.658 77.5891 186.617 144.331 78.174 
187.43 144.32 78.0221 199.32 124.232 80.0525 199.305 124.184 80.1004 
199.189 124.195 80.1187 199.37 124.279 80.1544 199.719 124.81 80.2167 
199.804 124.92 80.2145 199.873 124.932 80.3096 191.716 132.474 78.9362 
191.416 132.435 78.8824 191.886 132.612 78.9728 190.917 132.979 78.4475 
192.033 133.136 78.7323 192.485 141.982 77.0834 185.776 143.174 77.9495 
185.244 144.121 78.5308 184.251 144.891 79.3341 184.167 145.095 79.5484 
187.635 144.62 78.3559 197.887 123.943 80.3594 199.247 124.071 80.3112 
199.572 124.36 80.5005 199.308 124.568 80.2257 199.785 124.75 80.408 
200.061 125.143 80.656 191.131 131.445 79.8232 190.228 131.573 79.5412 
190.008 131.926 79.3096 191.699 132.215 79.285 187.086 135.53 78.8643 
183.957 142.604 78.9007 191.21 142.925 78.0769 182.93 144.338 79.744 
182.66 144.558 80.0068 182.681 144.86 80.2357 184.993 144.894 79.1547 
186.175 144.952 78.9058 186.627 145.062 79.0145 186.262 145.163 79.2867 
187.522 144.883 78.7922 187.957 144.822 78.9194 187.624 144.964 79.1427 
188.429 144.611 78.9223 183.173 145.172 80.2864 197.002 122.576 81.2267 
197.474 122.743 81.134 197.592 123.349 80.6331 196.921 123.908 80.7407 
197.205 124.361 80.7259 197.913 124.706 80.5476 199.977 125.666 80.8388 
200.469 125.636 81.1505 200.497 126.019 81.1921 198.661 126.068 81.1682 
191.498 131.309 80.5252 192.663 136.567 79.7438 181.831 143.529 80.2602 
181.588 143.83 80.5206 181.665 144.282 80.6701 182.511 144.142 79.9474 
185.826 145.162 79.3293 187.262 145.051 79.1674 188.886 144.252 79.5146 
182.857 145.552 80.9859 185.02 145.415 80.2358 185.935 145.257 79.8572 
195.956 121.676 82.0639 196.073 124.059 81.1895 199.874 124.181 81.8192 
201.166 126.174 82.0868 200.822 126.739 81.7045 201.315 127.028 82.1012 
201.517 126.978 82.3207 189.974 128.675 82.0467 201.581 127.404 82.4907 
187.08 130.66 81.0681 191.991 132.011 80.8841 180.445 143.064 81.3606 
188.504 143.66 80.7652 181.03 144.679 81.818 181.731 145.033 81.4197 
182.384 145.5 81.36 182.65 145.723 81.2582 182.613 145.744 81.4142 
182.814 145.772 81.2641 183.196 145.744 81.3827 186.246 145.104 80.588 
182.693 145.805 81.3286 194.187 121.634 82.3614 193.555 122.277 82.3287 
193.601 123.665 82.289 195.637 124.757 81.7615 196.257 125.62 82.0377 
188.824 127.248 82.3341 189.403 128.03 82.1213 189.395 127.163 82.4572 
190.117 127.414 82.7613 197.928 126.821 82.0941 201.692 127.134 82.7087 
188.647 128.58 81.7292 187.995 128.362 81.9162 190.497 128.35 82.9152 
201.818 127.564 82.9097 200.005 128.431 83.0931 200.801 128.175 82.7276 
201.356 128.1 82.7626 201.774 127.964 82.9142 191.864 131.935 81.6728 
192.064 136.241 81.3941 179.346 143.609 82.5932 187.204 144.138 81.3724 
181.37 145.073 82.0505 181.437 145.21 82.4722 182.672 145.66 81.7588 
182.778 145.791 81.4204 183.215 145.843 81.6218 183.121 145.776 81.7651 
183.356 145.806 81.647 183.855 145.596 81.7118 183.244 145.843 81.7116 
184.758 145.417 81.6986 193.69 120.09 83.7769 194.131 120.229 83.6566 
192.882 120.448 83.489 189.509 124.39 83.1234 199.834 124.086 83.477 
191.274 124.991 83.1168 192.519 124.748 83.0815 190.813 126.31 83.4086 
191.672 125.6 83.818 194.602 125.39 83.0904 188.325 127.1 82.4352 
190.687 127.369 83.6167 196.96 127.016 83.1864 201.609 126.802 83.001 
201.944 127.901 83.3131 198.884 128.31 83.396 198.686 128.404 83.723 
202.007 128.192 83.2203 201.942 128.302 83.1602 202.042 128.381 83.3154 
201.916 128.493 83.3233 191.697 131.877 82.4413 185.649 143.546 83.384 
181.793 145.349 82.6145 181.986 145.325 83.0257 185.666 144.841 81.8075 
183.149 145.519 82.3167 183.334 145.754 81.8273 195.704 120.661 83.9022 
196.183 120.959 83.9364 192.345 125.197 83.6024 193.107 125.097 83.461 
191.12 126.432 84.3583 191.722 125.759 84.6189 192.564 125.416 84.3446 
190.808 127.421 84.4978 197.436 127.812 84.4188 201.936 128.167 83.758 
190.885 129.217 83.6829 198.382 128.346 83.9573 202.016 128.489 83.4655 
199.913 128.922 84.1507 199.693 128.93 84.4766 200.927 128.955 83.8913 
201.885 128.61 83.5357 201.481 128.894 84.067 190.399 135.446 83.8916 
176.441 142.59 84.1151 176.07 142.971 84.4165 176.096 144.165 85.113 
178.699 144.711 84.6587 192.391 119.216 84.8868 192.428 119.049 85.0693 
192.551 119.076 85.0306 191.787 119.159 85.4078 192.155 119.523 84.5826 
192.838 119.219 85.0005 193.873 119.573 85.1425 189.161 120.894 85.1594 
197.638 122.078 84.5149 185.11 124.799 84.8847 192.01 125.465 85.2451 
191.297 125.903 85.3952 191.587 125.222 86.1317 192.892 125.235 85.6079 
200.481 125.409 84.7918 194.352 125.743 84.611 198.194 128.374 84.7123 
201.923 128.524 83.7291 201.802 128.443 84.0881 199.164 128.763 84.9824 
201.498 128.829 84.2956 201.617 128.65 84.3127 199.735 128.888 84.9083 
200.739 129.09 84.6666 200.924 129.079 84.5828 201.187 128.975 84.3989 
190.893 131.459 84.4911 200.85 129.074 84.7215 175.413 139.988 84.8743 
185.517 141.776 85.1809 174.45 142.778 85.2478 174.691 143.359 85.2633 
174.573 144.091 85.6371 183.673 144.042 85.2287 174.485 144.869 86.3408 
191.49 119.015 85.9293 191.267 119.137 86.1267 191.729 118.918 85.9837 
192.498 119.042 85.1954 192.394 119.041 85.7091 189.494 120.154 86.3371 
189.109 120.408 86.1429 193.996 119.573 86.0952 197.138 122.092 86.0084 
198.967 124.261 86.0463 190.563 125.624 86.7529 192.151 124.68 86.6652 
194.074 125.532 85.6544 200.643 126.39 85.3996 190.569 126.905 85.9904 
196.161 126.712 86.0876 196.718 127.264 85.5604 190.449 129.132 85.8103 
197.758 127.928 85.6451 200.826 128.37 85.3089 201.565 128.38 84.4734 
198.892 128.477 85.557 200.804 128.696 85.073 200.477 128.645 85.3444 
200.235 128.785 85.2035 200.979 128.963 84.7222 186.67 137.218 86.6409 
172.781 144.486 86.6757 172.306 144.367 86.8504 172.375 144.661 87.0443 
174.265 145.084 86.8425 191.524 119.043 86.3392 191.724 119.14 86.7098 
190.553 119.721 86.7418 193.692 119.764 87.1396 186.706 121.146 87.4817 
188.08 120.893 87.0153 190.102 120.12 87.0737 196.618 122.011 86.7445 
183.558 122.92 86.9294 190.865 124.404 87.3192 190.137 124.883 87.5757 
190.903 123.645 87.6998 192.252 124.106 87.2689 200.205 126.747 86.0912 
200.381 127.332 85.9517 199.967 127.357 86.2747 179.646 127.867 87.2637 
199.698 127.505 86.3712 200.455 127.752 85.8328 199.158 128.114 86.0944 
200.143 128.168 85.8407 177.797 131.02 87.1482 188.998 132.827 87.3418 
170.913 144.044 87.6426 170.98 144.611 88.0738 175.255 145.097 86.9501 
172.172 144.892 87.5061 173.79 145.155 87.3846 192.44 119.337 87.4158 
191.706 119.638 87.5634 193 119.58 87.4358 187.689 121.187 87.8557 
189.047 120.943 87.5757 190.781 120.517 87.7945 183.535 121.548 88.0886 
187.753 121.509 88.3177 188.85 121.593 88.0923 190.271 121.18 87.9343 
189.034 122.389 88.3402 195.909 122.019 87.4394 189.936 123.126 88.0994 
191.659 122.595 88.075 181.307 123.452 88.0786 189.407 123.908 88.2969 
188.769 124.287 88.8657 192.991 123.889 87.589 197.644 123.926 87.2789 
198.838 126.335 87.0781 199.816 126.674 86.4187 198.081 126.846 87.1155 
199.207 127.451 86.5453 197 126.917 86.843 177.776 130.239 88.6322 
176.685 131.415 88.426 175.455 132.498 88.3733 175.196 133.188 87.8199 
183.952 142.009 88.0445 169.772 142.586 88.1671 169.466 143.459 88.714 
170.051 143.958 88.4624 179.53 144.54 87.8912 181.829 143.985 88.0914 
169.882 144.256 88.9755 173.646 145.162 87.9837 173.98 145 88.4854 
175.725 144.822 88.2974 171.76 145.001 88.0856 172.313 145.094 87.9035 
192.19 119.25 87.447 192.242 119.348 87.5972 183.847 121.013 88.642 
183.859 120.866 88.8206 192.088 119.408 87.619 192.383 119.662 87.8174 
192.987 119.913 88.0624 185.709 121.113 88.6061 185.707 121.29 89.158 
186.251 121.637 89.3469 186.746 121.876 89.2684 196.232 122.769 87.6233 
179.677 123.757 89.5966 179.491 124.921 89.5763 198.395 125.48 87.3097 
188.907 125.487 88.9615 195.486 125.305 87.585 195.83 125.167 87.8206 
197.47 125.836 87.6291 196.877 125.6 87.7743 179.188 126.984 89.3048 
197.509 126.294 87.4375 197.993 126.351 87.3513 197.162 126.743 87.0922 
178.714 128.673 89.3316 174.398 132.412 89.2326 174.872 132.237 89.2461 
174.557 132.24 89.4233 177.315 130.809 89.08 173.98 132.811 89.0427 
175.764 131.952 89.2533 176.921 131.304 89.4893 172.525 133.625 89.1531 
168.075 142.42 89.6003 168.04 143.134 90.1222 168.743 143.818 90.0005 
168.956 143.56 89.3638 176.425 144.626 88.5761 169.399 144.128 89.5438 
170.554 144.749 89.1275 171.452 145.017 88.5423 192.127 119.288 87.5496 
182.79 120.721 89.6202 193.076 120.124 88.3628 192.87 120.065 88.3376 
193.165 120.312 88.4756 184.13 120.968 89.6774 192.246 120.377 88.3139 
193.706 120.545 88.3533 184.674 121.233 89.9053 185.223 121.651 90.181 
193.763 120.816 88.4893 185.838 121.952 90.0415 194.44 121.767 88.3688 
[...]
POINT_DATA 1708
COLOR_SCALARS scalars 3
0.0941176 0.501961 0.392157 0.0941176 0.501961 0.392157 0.0941176 0.501961 0.392157 
0.0941176 0.501961 0.392157 0.0941176 0.501961 0.392157 
0.0941176 0.501961 0.392157 0.0941176 0.501961 0.392157 
0.0941176 0.501961 0.392157 0.0941176 0.501961 0.392157 
0.0941176 0.501961 0.392157 0.0941176 0.501961 0.392157 
0.0941176 0.501961 0.392157 0.0941176 0.501961 0.392157 
0.0941176 0.501961 0.392157 0.0941176 0.501961 0.392157 
0.0941176 0.501961 0.392157 0.0941176 0.501961 0.392157 
0.0941176 0.501961 0.392157 0.0941176 0.501961 0.392157 
0.0941176 0.501961 0.392157 0.0941176 0.501961 0.392157 
0.0941176 0.501961 0.392157 0.0941176 0.501961 0.392157 
0.0941176 0.501961 0.392157 0.0941176 0.501961 0.392157 
0.0941176 0.501961 0.392157 0.0941176 0.501961 0.392157 
0.0941176 0.501961 0.392157 0.0941176 0.501961 0.392157 
0.0941176 0.501961 0.392157 0.0941176 0.501961 0.392157 
0.0941176 0.501961 0.392157 0.0941176 0.501961 0.392157 
0.0941176 0.501961 0.392157 0.0941176 0.501961 0.392157 
0.0941176 0.501961 0.392157 0.0941176 0.501961 0.392157 
0.0941176 0.501961 0.392157 0.0941176 0.501961 0.392157 
0.0941176 0.501961 0.392157 0.0941176 0.501961 0.392157 
0.0941176 0.501961 0.392157 0.0941176 0.501961 0.392157 
0.0941176 0.501961 0.392157 0.0941176 0.501961 0.392157 
0.0941176 0.501961 0.392157 0.0941176 0.501961 0.392157 
0.0941176 0.501961 0.392157 0.0941176 0.501961 0.392157 
0.0941176 0.501961 0.392157 0.0941176 0.501961 0.392157 
0.0941176 0.501961 0.392157 0.0941176 0.501961 0.392157 
0.0941176 0.501961 0.392157 0.0941176 0.501961 0.392157 
0.0941176 0.501961 0.392157 0.0941176 0.501961 0.392157 
0.0941176 0.501961 0.392157 0.0941176 0.501961 0.392157 
0.0941176 0.501961 0.392157 0.0941176 0.501961 0.392157 
0.0941176 0.501961 0.392157 0.0941176 0.501961 0.392157 
0.0941176 0.501961 0.392157 0.0941176 0.501961 0.392157 
0.0941176 0.501961 0.392157 0.0941176 0.501961 0.392157 
0.0941176 0.501961 0.392157 0.0941176 0.501961 0.392157 
0.0941176 0.501961 0.392157 0.0941176 0.501961 0.392157 
0.0941176 0.501961 0.392157 0.0941176 0.501961 0.392157 
0.0941176 0.501961 0.392157 0.0941176 0.501961 0.392157 
0.0941176 0.501961 0.392157 0.0941176 0.501961 0.392157 
0.0941176 0.501961 0.392157 0.0941176 0.501961 0.392157 
0.0941176 0.501961 0.392157 0.0941176 0.501961 0.392157 
0.0941176 0.501961 0.392157 0.0941176 0.501961 0.392157 
0.0941176 0.501961 0.392157 0.0941176 0.501961 0.392157 
0.0941176 0.501961 0.392157 0.0941176 0.501961 0.392157 
0.0941176 0.501961 0.392157 0.0941176 0.501961 0.392157 
0.0941176 0.501961 0.392157 0.0941176 0.501961 0.392157 
0.0941176 0.501961 0.392157 0.0941176 0.501961 0.392157 
0.0941176 0.501961 0.392157 0.0941176 0.501961 0.392157 
0.0941176 0.501961 0.392157 0.0941176 0.501961 0.392157 
0.0941176 0.501961 0.392157 0.0941176 0.501961 0.392157 
0.0941176 0.501961 0.392157 0.0941176 0.501961 0.392157 
0.0941176 0.501961 0.392157 0.0941176 0.501961 0.392157 
0.0941176 0.501961 0.392157 0.0941176 0.501961 0.392157 
0.0941176 0.501961 0.392157 0.0941176 0.501961 0.392157 
0.0941176 0.501961 0.392157 0.0941176 0.501961 0.392157 
0.0941176 0.501961 0.392157 0.0941176 0.501961 0.392157 
0.0941176 0.501961 0.392157 0.0941176 0.501961 0.392157 
0.0941176 0.501961 0.392157 0.0941176 0.501961 0.392157 
0.0941176 0.501961 0.392157 0.0941176 0.501961 0.392157 
0.0941176 0.501961 0.392157 0.0941176 0.501961 0.392157 
0.0941176 0.501961 0.392157 0.0941176 0.501961 0.392157 
0.0941176 0.501961 0.392157 0.0941176 0.501961 0.392157 
0.0941176 0.501961 0.392157 0.0941176 0.501961 0.392157 
0.0941176 0.501961 0.392157 0.0941176 0.501961 0.392157 
0.0941176 0.501961 0.392157 0.0941176 0.501961 0.392157 
0.0941176 0.501961 0.392157 0.0941176 0.501961 0.392157 
0.0941176 0.501961 0.392157 0.0941176 0.501961 0.392157 
0.0941176 0.501961 0.392157 0.0941176 0.501961 0.392157 
0.0941176 0.501961 0.392157 0.0941176 0.501961 0.392157 
0.0941176 0.501961 0.392157 0.0941176 0.501961 0.392157 
0.0941176 0.501961 0.392157 0.0941176 0.501961 0.392157 
0.0941176 0.501961 0.392157 0.0941176 0.501961 0.392157 
0.0941176 0.501961 0.392157 0.0941176 0.501961 0.392157 
0.0941176 0.501961 0.392157 0.0941176 0.501961 0.392157 
0.0941176 0.501961 0.392157 0.0941176 0.501961 0.392157 
0.0941176 0.501961 0.392157 0.0941176 0.501961 0.392157 
0.0941176 0.501961 0.392157 0.0941176 0.501961 0.392157 
0.0941176 0.501961 0.392157 0.0941176 0.501961 0.392157 
0.0941176 0.501961 0.392157 0.0941176 0.501961 0.392157 
0.0941176 0.501961 0.392157 0.0941176 0.501961 0.392157 
0.0941176 0.501961 0.392157 0.0941176 0.501961 0.392157 
0.0941176 0.501961 0.392157 0.0941176 0.501961 0.392157 
0.0941176 0.501961 0.392157 0.0941176 0.501961 0.392157 
0.0941176 0.501961 0.392157 0.0941176 0.501961 0.392157 
0.0941176 0.501961 0.392157 0.0941176 0.501961 0.392157 
0.0941176 0.501961 0.392157 0.0941176 0.501961 0.392157 
0.0941176 0.501961 0.392157 0.0941176 0.501961 0.392157 
0.0941176 0.501961 0.392157 0.0941176 0.501961 0.392157 
0.0941176 0.501961 0.392157 0.0941176 0.501961 0.392157 
0.0941176 0.501961 0.392157 0.0941176 0.501961 0.392157 
0.0941176 0.501961 0.392157 0.0941176 0.501961 0.392157 
0.0941176 0.501961 0.392157 0.0941176 0.501961 0.392157 
0.0941176 0.501961 0.392157 0.0941176 0.501961 0.392157 
0.0941176 0.501961 0.392157 0.0941176 0.501961 0.392157 
0.0941176 0.501961 0.392157 0.0941176 0.501961 0.392157 
0.0941176 0.501961 0.392157 0.0941176 0.501961 0.392157 
0.0941176 0.501961 0.392157 0.0941176 0.501961 0.392157 
0.0941176 0.501961 0.392157 0.0941176 0.501961 0.392157 
0.0941176 0.501961 0.392157 0.0941176 0.501961 0.392157 
0.0941176 0.501961 0.392157 0.0941176 0.501961 0.392157 
0.0941176 0.501961 0.392157 0.0941176 0.501961 0.392157 
0.0941176 0.501961 0.392157 0.0941176 0.501961 0.392157 
0.0941176 0.501961 0.392157 0.0941176 0.501961 0.392157 
0.0941176 0.501961 0.392157 0.0941176 0.501961 0.392157 
0.0941176 0.501961 0.392157 0.0941176 0.501961 0.392157 
0.0941176 0.501961 0.392157 0.0941176 0.501961 0.392157 
0.0941176 0.501961 0.392157 0.0941176 0.501961 0.392157 
0.0941176 0.501961 0.392157 0.0941176 0.501961 0.392157 
0.0941176 0.501961 0.392157 0.0941176 0.501961 0.392157 
0.0941176 0.501961 0.392157 0.0941176 0.501961 0.392157 
0.0941176 0.501961 0.392157 0.0941176 0.501961 0.392157 
0.0941176 0.501961 0.392157 0.0941176 0.501961 0.392157 
0.0941176 0.501961 0.392157 0.0941176 0.501961 0.392157 
0.0941176 0.501961 0.392157 0.0941176 0.501961 0.392157 
0.0941176 0.501961 0.392157 0.0941176 0.501961 0.392157 
0.0941176 0.501961 0.392157 0.0941176 0.501961 0.392157 
0.0941176 0.501961 0.392157 0.0941176 0.501961 0.392157 
0.0941176 0.501961 0.392157 0.0941176 0.501961 0.392157 
0.0941176 0.501961 0.392157 0.0941176 0.501961 0.392157 
0.0941176 0.501961 0.392157 0.0941176 0.501961 0.392157 
0.0941176 0.501961 0.392157 0.0941176 0.501961 0.392157 
0.0941176 0.501961 0.392157 0.0941176 0.501961 0.392157 
0.0941176 0.501961 0.392157 0.0941176 0.501961 0.392157 
0.0941176 0.501961 0.392157 0.0941176 0.501961 0.392157 
0.0941176 0.501961 0.392157 0.0941176 0.501961 0.392157 
0.0941176 0.501961 0.392157 0.0941176 0.501961 0.392157 
0.0941176 0.501961 0.392157 0.0941176 0.501961 0.392157 
0.0941176 0.501961 0.392157 0.0941176 0.501961 0.392157 
0.0941176 0.501961 0.392157 0.0941176 0.501961 0.392157 
0.0941176 0.501961 0.392157 0.0941176 0.501961 0.392157 
0.0941176 0.501961 0.392157 0.0941176 0.501961 0.392157 
0.0941176 0.501961 0.392157 0.0941176 0.501961 0.392157 
0.0941176 0.501961 0.392157 0.0941176 0.501961 0.392157 
0.0941176 0.501961 0.392157 0.0941176 0.501961 0.392157 
0.0941176 0.501961 0.392157 0.0941176 0.501961 0.392157 
0.0941176 0.501961 0.392157 0.0941176 0.501961 0.392157 
0.0941176 0.501961 0.392157 0.0941176 0.501961 0.392157 
0.0941176 0.501961 0.392157 0.0941176 0.501961 0.392157 
0.0941176 0.501961 0.392157 0.0941176 0.501961 0.392157 
0.0941176 0.501961 0.392157 0.0941176 0.501961 0.392157 
0.0941176 0.501961 0.392157 0.0941176 0.501961 0.392157 
0.0941176 0.501961 0.392157 0.0941176 0.501961 0.392157 
0.0941176 0.501961 0.392157 0.0941176 0.501961 0.392157 
0.0941176 0.501961 0.392157 0.0941176 0.501961 0.392157 
0.0941176 0.501961 0.392157 0.0941176 0.501961 0.392157 
0.0941176 0.501961 0.392157 0.0941176 0.501961 0.392157 
0.0941176 0.501961 0.392157 0.0941176 0.501961 0.392157 
0.0941176 0.501961 0.392157 0.0941176 0.501961 0.392157 
0.0941176 0.501961 0.392157 0.0941176 0.501961 0.392157 
0.0941176 0.501961 0.392157 0.0941176 0.501961 0.392157 
0.0941176 0.501961 0.392157 0.0941176 0.501961 0.392157 
0.0941176 0.501961 0.392157 0.0941176 0.501961 0.392157 
0.0941176 0.501961 0.392157 0.0941176 0.501961 0.392157 
0.0941176 0.501961 0.392157 0.0941176 0.501961 0.392157 
0.0941176 0.501961 0.392157 0.0941176 0.501961 0.392157 
0.0941176 0.501961 0.392157 0.0941176 0.501961 0.392157 
0.0941176 0.501961 0.392157 0.0941176 0.501961 0.392157 
0.0941176 0.501961 0.392157 0.0941176 0.501961 0.392157 
0.0941176 0.501961 0.392157 0.0941176 0.501961 0.392157 
0.0941176 0.501961 0.392157 0.0941176 0.501961 0.392157 
0.0941176 0.501961 0.392157 0.0941176 0.501961 0.392157 
0.0941176 0.501961 0.392157 0.0941176 0.501961 0.392157 
0.0941176 0.501961 0.392157 0.0941176 0.501961 0.392157 
0.0941176 0.501961 0.392157 0.0941176 0.501961 0.392157 
0.0941176 0.501961 0.392157 0.0941176 0.501961 0.392157 
0.0941176 0.501961 0.392157 0.0941176 0.501961 0.392157 
0.0941176 0.501961 0.392157 0.0941176 0.501961 0.392157 
0.0941176 0.501961 0.392157 0.0941176 0.501961 0.392157 
0.0941176 0.501961 0.392157 0.0941176 0.501961 0.392157 
0.0941176 0.501961 0.392157 0.0941176 0.501961 0.392157 
0.0941176 0.501961 0.392157 0.0941176 0.501961 0.392157 
0.0941176 0.501961 0.392157 0.0941176 0.501961 0.392157 
0.0941176 0.501961 0.392157 0.0941176 0.501961 0.392157 
0.0941176 0.501961 0.392157 0.0941176 0.501961 0.392157 
0.0941176 0.501961 0.392157 0.0941176 0.501961 0.392157 
0.0941176 0.501961 0.392157 0.0941176 0.501961 0.392157 
0.0941176 0.501961 0.392157 0.0941176 0.501961 0.392157 
0.0941176 0.501961 0.392157 0.0941176 0.501961 0.392157 
0.0941176 0.501961 0.392157 0.0941176 0.501961 0.392157 
0.0941176 0.501961 0.392157 0.0941176 0.501961 0.392157 
0.0941176 0.501961 0.392157 0.0941176 0.501961 0.392157 
0.0941176 0.501961 0.392157 0.0941176 0.501961 0.392157 
0.0941176 0.501961 0.392157 0.0941176 0.501961 0.392157 
0.0941176 0.501961 0.392157 0.0941176 0.501961 0.392157 
0.0941176 0.501961 0.392157 0.0941176 0.501961 0.392157 
0.0941176 0.501961 0.392157 0.0941176 0.501961 0.392157 
0.0941176 0.501961 0.392157 0.0941176 0.501961 0.392157 
0.0941176 0.501961 0.392157 0.0941176 0.501961 0.392157 
0.0941176 0.501961 0.392157 0.0941176 0.501961 0.392157 
0.0941176 0.501961 0.392157 0.0941176 0.501961 0.392157 
0.0941176 0.501961 0.392157 0.0941176 0.501961 0.392157 
0.0941176 0.501961 0.392157 0.0941176 0.501961 0.392157 
0.0941176 0.501961 0.392157 0.0941176 0.501961 0.392157 
0.0941176 0.501961 0.392157 0.0941176 0.501961 0.392157 
0.0941176 0.501961 0.392157 0.0941176 0.501961 0.392157 
0.0941176 0.501961 0.392157 0.0941176 0.501961 0.392157 
0.0941176 0.501961 0.392157 0.0941176 0.501961 0.392157 
0.0941176 0.501961 0.392157 0.0941176 0.501961 0.392157 
0.0941176 0.501961 0.392157 0.0941176 0.501961 0.392157 
0.0941176 0.501961 0.392157 0.0941176 0.501961 0.392157 
0.0941176 0.501961 0.392157 0.0941176 0.501961 0.392157 
0.0941176 0.501961 0.392157 0.0941176 0.501961 0.392157 
0.0941176 0.501961 0.392157 0.0941176 0.501961 0.392157 
0.0941176 0.501961 0.392157 0.0941176 0.501961 0.392157 
0.0941176 0.501961 0.392157 0.0941176 0.501961 0.392157 
0.0941176 0.501961 0.392157 0.0941176 0.501961 0.392157 
0.0941176 0.501961 0.392157 0.0941176 0.501961 0.392157 
0.0941176 0.501961 0.392157 0.0941176 0.501961 0.392157 
0.0941176 0.501961 0.392157 0.0941176 0.501961 0.392157 
0.0941176 0.501961 0.392157 0.0941176 0.501961 0.392157 
0.0941176 0.501961 0.392157 0.0941176 0.501961 0.392157 
0.0941176 0.501961 0.392157 0.0941176 0.501961 0.392157 
0.0941176 0.501961 0.392157 0.0941176 0.501961 0.392157 
0.0941176 0.501961 0.392157 0.0941176 0.501961 0.392157 
0.0941176 0.501961 0.392157 0.0941176 0.501961 0.392157 
0.0941176 0.501961 0.392157 0.0941176 0.501961 0.392157 
0.0941176 0.501961 0.392157 0.0941176 0.501961 0.392157 
0.0941176 0.501961 0.392157 0.0941176 0.501961 0.392157 
0.0941176 0.501961 0.392157 0.0941176 0.501961 0.392157 
0.0941176 0.501961 0.392157 0.0941176 0.501961 0.392157 
0.0941176 0.501961 0.392157 0.0941176 0.501961 0.392157 
0.0941176 0.501961 0.392157 0.0941176 0.501961 0.392157 
0.0941176 0.501961 0.392157 0.0941176 0.501961 0.392157 
0.0941176 0.501961 0.392157 0.0941176 0.501961 0.392157 
0.0941176 0.501961 0.392157 0.0941176 0.501961 0.392157 
0.0941176 0.501961 0.392157 0.0941176 0.501961 0.392157 
0.0941176 0.501961 0.392157 0.0941176 0.501961 0.392157 
0.0941176 0.501961 0.392157 0.0941176 0.501961 0.392157 
0.0941176 0.501961 0.392157 0.0941176 0.501961 0.392157 
0.0941176 0.501961 0.392157 0.0941176 0.501961 0.392157 
0.0941176 0.501961 0.392157 0.0941176 0.501961 0.392157 
0.0941176 0.501961 0.392157 0.0941176 0.501961 0.392157 
0.0941176 0.501961 0.392157 0.0941176 0.501961 0.392157 
0.0941176 0.501961 0.392157 0.0941176 0.501961 0.392157 
0.0941176 0.501961 0.392157 0.0941176 0.501961 0.392157 
0.0941176 0.501961 0.392157 0.0941176 0.501961 0.392157 
0.0941176 0.501961 0.392157 0.0941176 0.501961 0.392157 
0.0941176 0.501961 0.392157 0.0941176 0.501961 0.392157 
0.0941176 0.501961 0.392157 0.0941176 0.501961 0.392157 
0.0941176 0.501961 0.392157 0.0941176 0.501961 0.392157 
0.0941176 0.501961 0.392157 0.0941176 0.501961 0.392157 
0.0941176 0.501961 0.392157 0.0941176 0.501961 0.392157 
0.0941176 0.501961 0.392157 0.0941176 0.501961 0.392157 
0.0941176 0.501961 0.392157 0.0941176 0.501961 0.392157 
0.0941176 0.501961 0.392157 0.0941176 0.501961 0.392157 
0.0941176 0.501961 0.392157 0.0941176 0.501961 0.392157 
0.0941176 0.501961 0.392157 0.0941176 0.501961 0.392157 
0.0941176 0.501961 0.392157 0.0941176 0.501961 0.392157 
0.0941176 0.501961 0.392157 0.0941176 0.501961 0.392157 
0.0941176 0.501961 0.392157 0.0941176 0.501961 0.392157 
0.0941176 0.501961 0.392157 0.0941176 0.501961 0.392157 
0.0941176 0.501961 0.392157 0.0941176 0.501961 0.392157 
0.0941176 0.501961 0.392157 0.0941176 0.501961 0.392157 
0.0941176 0.501961 0.392157 0.0941176 0.501961 0.392157 
0.0941176 0.501961 0.392157 0.0941176 0.501961 0.392157 
0.0941176 0.501961 0.392157 0.0941176 0.501961 0.392157 
0.0941176 0.501961 0.392157 0.0941176 0.501961 0.392157 
0.0941176 0.501961 0.392157 0.0941176 0.501961 0.392157 
0.0941176 0.501961 0.392157 0.0941176 0.501961 0.392157 
0.0941176 0.501961 0.392157 0.0941176 0.501961 0.392157 
0.0941176 0.501961 0.392157 0.0941176 0.501961 0.392157 
0.0941176 0.501961 0.392157 0.0941176 0.501961 0.392157 
0.0941176 0.501961 0.392157 0.0941176 0.501961 0.392157 
0.0941176 0.501961 0.392157 0.0941176 0.501961 0.392157 
0.0941176 0.501961 0.392157 0.0941176 0.501961 0.392157 
0.0941176 0.501961 0.392157 0.0941176 0.501961 0.392157 
0.0941176 0.501961 0.392157 0.0941176 0.501961 0.392157 
0.0941176 0.501961 0.392157 0.0941176 0.501961 0.392157 
0.0941176 0.501961 0.392157 0.0941176 0.501961 0.392157 
0.0941176 0.501961 0.392157 0.0941176 0.501961 0.392157 
0.0941176 0.501961 0.392157 0.0941176 0.501961 0.392157 
0.0941176 0.501961 0.392157 0.0941176 0.501961 0.392157 
0.0941176 0.501961 0.392157 0.0941176 0.501961 0.392157 
0.0941176 0.501961 0.392157 0.0941176 0.501961 0.392157 
0.0941176 0.501961 0.392157 0.0941176 0.501961 0.392157 
0.0941176 0.501961 0.392157 0.0941176 0.501961 0.392157 
0.0941176 0.501961 0.392157 0.0941176 0.501961 0.392157 
0.0941176 0.501961 0.392157 0.0941176 0.501961 0.392157 
0.0941176 0.501961 0.392157 0.0941176 0.501961 0.392157 
0.0941176 0.501961 0.392157 0.0941176 0.501961 0.392157 
0.0941176 0.501961 0.392157 0.0941176 0.501961 0.392157 
0.0941176 0.501961 0.392157 0.0941176 0.501961 0.392157 
0.0941176 0.501961 0.392157 0.0941176 0.501961 0.392157 
0.0941176 0.501961 0.392157 0.0941176 0.501961 0.392157 
0.0941176 0.501961 0.392157 0.0941176 0.501961 0.392157 
0.0941176 0.501961 0.392157 0.0941176 0.501961 0.392157 
0.0941176 0.501961 0.392157 0.0941176 0.501961 0.392157 
0.0941176 0.501961 0.392157 0.0941176 0.501961 0.392157 
0.0941176 0.501961 0.392157 0.0941176 0.501961 0.392157 
0.0941176 0.501961 0.392157 0.0941176 0.501961 0.392157 
0.0941176 0.501961 0.392157 0.0941176 0.501961 0.392157 
0.0941176 0.501961 0.392157 0.0941176 0.501961 0.392157 
0.0941176 0.501961 0.392157 0.0941176 0.501961 0.392157 
0.0941176 0.501961 0.392157 0.0941176 0.501961 0.392157 
0.0941176 0.501961 0.392157 0.0941176 0.501961 0.392157 
0.0941176 0.501961 0.392157 0.0941176 0.501961 0.392157 
0.0941176 0.501961 0.392157 0.0941176 0.501961 0.392157 
0.0941176 0.501961 0.392157 0.0941176 0.501961 0.392157 
0.0941176 0.501961 0.392157 0.0941176 0.501961 0.392157 
0.0941176 0.501961 0.392157 0.0941176 0.501961 0.392157 
0.0941176 0.501961 0.392157 0.0941176 0.501961 0.392157 
0.0941176 0.501961 0.392157 0.0941176 0.501961 0.392157 
0.0941176 0.501961 0.392157 0.0941176 0.501961 0.392157 
0.0941176 0.501961 0.392157 0.0941176 0.501961 0.392157 
0.0941176 0.501961 0.392157 0.0941176 0.501961 0.392157 
0.0941176 0.501961 0.392157 0.0941176 0.501961 0.392157 
0.0941176 0.501961 0.392157 0.0941176 0.501961 0.392157 
0.0941176 0.501961 0.392157 0.0941176 0.501961 0.392157 
0.0941176 0.501961 0.392157 0.0941176 0.501961 0.392157 
0.0941176 0.501961 0.392157 0.0941176 0.501961 0.392157 
0.0941176 0.501961 0.392157 0.0941176 0.501961 0.392157 
0.0941176 0.501961 0.392157 0.0941176 0.501961 0.392157 
0.0941176 0.501961 0.392157 0.0941176 0.501961 0.392157 
0.0941176 0.501961 0.392157 0.0941176 0.501961 0.392157 
0.0941176 0.501961 0.392157 0.0941176 0.501961 0.392157 
0.0941176 0.501961 0.392157 0.0941176 0.501961 0.392157 
0.0941176 0.501961 0.392157 0.0941176 0.501961 0.392157 
0.0941176 0.501961 0.392157 0.0941176 0.501961 0.392157 
0.0941176 0.501961 0.392157 0.0941176 0.501961 0.392157 
0.0941176 0.501961 0.392157 0.0941176 0.501961 0.392157 
0.0941176 0.501961 0.392157 0.0941176 0.501961 0.392157 
0.0941176 0.501961 0.392157 0.0941176 0.501961 0.392157 
0.0941176 0.501961 0.392157 0.0941176 0.501961 0.392157 
0.0941176 0.501961 0.392157 0.0941176 0.501961 0.392157 
0.0941176 0.501961 0.392157 0.0941176 0.501961 0.392157 
0.0941176 0.501961 0.392157 0.0941176 0.501961 0.392157 
0.0941176 0.501961 0.392157 0.0941176 0.501961 0.392157 
0.0941176 0.501961 0.392157 0.0941176 0.501961 0.392157 
0.0941176 0.501961 0.392157 0.0941176 0.501961 0.392157 
0.0941176 0.501961 0.392157 0.0941176 0.501961 0.392157 
0.0941176 0.501961 0.392157 0.0941176 0.501961 0.392157 
0.0941176 0.501961 0.392157 0.0941176 0.501961 0.392157 
0.0941176 0.501961 0.392157 0.0941176 0.501961 0.392157 
0.0941176 0.501961 0.392157 0.0941176 0.501961 0.392157 
0.0941176 0.501961 0.392157 0.0941176 0.501961 0.392157 
0.0941176 0.501961 0.392157 0.0941176 0.501961 0.392157 
0.0941176 0.501961 0.392157 0.0941176 0.501961 0.392157 
0.0941176 0.501961 0.392157 0.0941176 0.501961 0.392157 
0.0941176 0.501961 0.392157 0.0941176 0.501961 0.392157 
0.0941176 0.501961 0.392157 0.0941176 0.501961 0.392157 
0.0941176 0.501961 0.392157 0.0941176 0.501961 0.392157 
0.0941176 0.501961 0.392157 0.0941176 0.501961 0.392157 
0.0941176 0.501961 0.392157 0.0941176 0.501961 0.392157 
0.0941176 0.501961 0.392157 0.0941176 0.501961 0.392157 
0.0941176 0.501961 0.392157 0.0941176 0.501961 0.392157 
0.0941176 0.501961 0.392157 0.0941176 0.501961 0.392157 
0.0941176 0.501961 0.392157 0.0941176 0.501961 0.392157 
0.0941176 0.501961 0.392157 0.0941176 0.501961 0.392157 
0.0941176 0.501961 0.392157 0.0941176 0.501961 0.392157 
0.0941176 0.501961 0.392157 0.0941176 0.501961 0.392157 