# vtk DataFile Version 4.2
vtk output
ASCII
DATASET POLYDATA
POINTS 498 float
254.617 54.9471 131.539 254.556 54.8173 131.591 254.81 55.0062 131.533 
254.764 54.8042 131.6 255.057 55.1644 131.564 254.437 54.6391 131.797 
255.122 54.5488 131.811 255.455 53.9973 132.148 256.78 54.1575 132.111 
254.121 54.9773 131.747 253.844 54.8647 131.88 256.532 54.9011 131.828 
255.633 55.6613 131.644 254.866 56.181 131.697 254.512 53.5555 132.7 
258.577 53.5493 132.657 252.899 55.144 132.463 253.387 55.7859 132.103 
254.439 56.7418 131.889 255.877 58.769 132.495 253.695 53.4191 133.226 
260.352 53.1891 133.223 260.767 52.5356 133.54 252.003 54.4742 133.54 
252.604 54.3263 133.149 251.555 56.4396 133.281 251.906 56.8557 133.038 
252.012 57.5006 133.009 253.446 56.9362 132.294 252.255 58.1582 132.971 
250.378 61.3653 133.521 249.857 61.9499 133.764 250.871 62.5466 133.34 
250.09 63.8915 133.8 250.378 64.1814 133.743 251.787 64.6882 133.703 
253.035 64.5691 134.085 251.092 65.2068 134.018 251.368 65.1964 133.866 
251.383 65.0134 133.78 251.627 65.065 133.833 251.944 65.0236 134.045 
251.476 65.1659 133.83 262.535 50.931 134.708 261.571 52.3495 133.849 
263.246 52.0008 134.47 262.053 52.931 133.879 261.285 56.8091 133.904 
250.352 59.631 133.772 248.807 62.037 134.758 252.822 61.7549 133.143 
255.187 62.4718 133.718 249.363 64.4091 134.696 254.728 63.9438 134.578 
256.758 62.8648 134.958 252.723 64.9917 134.546 250.245 65.3991 134.688 
250.911 65.4005 134.301 251.359 65.3309 134.401 251.487 65.209 133.97 
252.142 65.1715 134.575 250.446 65.4301 134.483 266.343 49.463 136.38 
266.327 49.4179 136.447 266.268 49.5158 136.393 266.356 49.5102 136.468 
265.175 50.1638 135.771 265.588 50.257 135.889 252.878 52.634 134.927 
264.666 53.0567 135.053 248.816 58.6058 135.157 248.573 58.1019 135.652 
260.681 60.1686 135.406 257.645 62.3744 135.312 256.331 63.3086 135.482 
256.689 63.1594 135.663 257.112 62.7567 135.192 254.174 64.4086 135.393 
249.665 65.1331 135.067 249.684 65.333 135.271 249.578 65.2629 135.458 
250.088 65.3757 135.179 249.773 65.419 135.292 249.67 65.3952 135.349 
266.351 49.3931 136.549 266.156 49.4002 136.621 266.414 49.443 136.62 
262.899 49.3703 136.09 265.355 49.2206 136.744 266.068 49.9155 136.334 
266.478 49.6319 136.832 266.305 53.0372 136.119 249.191 54.7384 136.005 
248.905 55.8264 135.856 265.938 55.7596 136.495 265.788 55.9222 136.509 
265.935 55.8786 136.547 248.363 57.8582 136.337 262.034 59.2455 136.034 
260.147 60.9169 135.941 248.171 62.3134 136.069 259.143 61.5933 136.392 
256.846 63.0703 135.98 249.323 64.8759 135.67 249.067 64.4906 136.217 
249.36 64.8954 136.084 249.732 65.1932 135.758 249.745 65.3751 135.402 
250.184 65.3059 135.695 264.417 48.2404 137.727 266.344 49.3804 136.762 
262.026 49.0419 136.611 266.169 49.2039 137.346 266.987 49.9165 137.659 
253.049 51.6387 136.88 267.3 52.6221 136.961 267.652 52.0162 137.529 
265.934 55.3988 136.418 267.458 54.4687 137.488 265.534 57.2062 137.803 
248.097 61.356 136.55 261.169 60.2195 136.492 248.268 61.6157 137.086 
256.303 63.1548 137.104 254.835 63.8257 137.085 249.121 64.5239 136.615 
249.265 64.7496 136.41 265.202 48.1523 138.42 264.842 48.0058 138.403 
265.978 48.5318 138.961 268.103 52.2672 138.343 268.447 54.6254 139.06 
249.148 64.4038 136.884 249.609 64.6428 137.023 265.095 47.8686 139.351 
261.432 47.9351 138.806 258.005 48.8472 139.346 266.505 48.9711 139.135 
252.796 51.2229 139.376 253.686 50.9366 138.197 250.627 52.4665 138.174 
250.689 52.4324 138.772 248.911 53.8853 138.185 248.809 53.9858 138.471 
249.327 53.3962 138.488 268.722 54.1951 139.707 248.476 55.5583 138.331 
268.249 55.3736 139.705 268.492 55.0247 139.832 259.726 61.0824 138.301 
251.272 64.3797 137.678 262.589 47.1812 140.314 256.811 49.2096 139.61 
252.314 51.5361 139.999 268.66 53.1461 140.342 268.667 54.5767 140.125 
248.581 57.858 139.589 262.617 59.0276 140.116 263.732 46.9837 141.138 
263.382 46.7563 141.791 264.593 47.1906 141.728 265.37 47.8052 140.613 
257.208 48.9176 140.629 254.165 50.4639 140.375 254.133 50.561 141.006 
267.19 49.9214 140.699 252.271 51.6977 140.542 249.528 54.4299 140.294 
268.551 54.7281 140.858 268.134 55.4592 141.104 268.309 55.0833 141.317 
262.207 58.8055 141.373 259.514 60.2751 140.662 264.622 47.1642 142.312 
258.281 48.359 141.144 256.444 49.4501 141.61 257.209 48.9358 141.156 
253.775 50.8956 141.233 251.938 52.0871 140.79 268.521 53.328 141.411 
268.606 53.6755 141.26 250.674 54.8049 141.618 249.133 57.4007 140.522 
250.243 56.8963 141.655 266.971 56.0765 142.24 263.395 46.4755 143.163 
263.86 46.6635 143.556 262.323 46.6138 142.965 264.209 46.9407 143.622 
257.561 49.0797 142.717 255.82 50.0494 142.184 254.507 50.7197 141.822 
255.718 50.441 142.635 252.947 52.4494 142.063 253.772 52.9601 142.89 
252.757 54.8032 142.896 251.867 57.6042 142.673 251.511 60.0635 141.892 
263.177 46.4063 143.462 262.898 46.4219 143.591 261.741 46.8112 143.151 
258.954 48.3119 143.347 255.438 51.5002 143.202 261.775 58.0387 143.32 
254.75 60.4729 142.527 262.598 46.593 144.363 263.302 46.5224 144.299 
263.597 46.6243 144.282 261.818 46.9256 144.054 260.651 48.0287 144.563 
256.103 55.1788 144.533 266.853 54.0697 144.943 260.961 57.8318 143.98 
262.638 46.6701 144.593 262.889 46.6624 144.691 263.153 46.634 144.623 
263.322 46.8302 144.798 261.835 47.8224 145.187 262.046 48.1206 145.459 
264.524 48.5526 145.389 259.794 52.8308 145.862 266.783 52.7759 145.432 
259.232 55.5857 145.505 265.157 55.7357 144.864 258.805 56.7387 145.114 
263.042 46.8688 144.886 262.776 47.7976 145.433 262.482 51.6385 146.644 
265.929 54.5014 145.72 260.086 56.4626 145.261 265.743 51.5089 146.281 
263.881 52.7679 146.893 264.21 52.4324 146.909 266.165 52.8595 146.242 
265.419 53.7243 146.518 264.761 50.8203 146.549 265.385 52.7015 146.69 
265.823 52.5068 146.472 264.37 53.62 146.75 264.899 50.8434 308.469 
265.269 50.7383 308.654 265.576 50.9452 308.777 264.229 52.3593 308.097 
263.791 53.2306 308.188 264.997 52.9808 308.255 265.928 52.0491 308.696 
266.164 52.3339 308.835 264.276 53.5443 308.243 266.237 53.1781 308.961 
264.75 54.4556 308.742 265.351 49.9039 309.227 262.578 51.436 308.348 
262.361 53.7369 308.514 263.445 54.2877 308.57 265.568 54.3219 308.976 
263.51 54.9944 308.985 264.487 55.0343 309.153 262.973 46.7008 310.229 
263.286 46.6764 310.246 263.421 46.8713 310.086 263.651 47.0346 310.125 
262.241 47.624 309.663 262.986 47.7496 309.449 262.393 47.9918 309.397 
260.911 53.4713 308.819 258.812 54.633 309.503 265.828 54.4975 309.303 
265.987 54.83 309.811 258.805 56.3955 309.793 258.41 57.0565 310.121 
260.626 57.4002 310.483 262.655 46.8056 310.216 262.409 46.8228 310.417 
263.171 46.5396 310.519 263.42 46.5825 310.465 261.67 47.6931 310.002 
260.881 48.3917 309.997 260.324 48.4892 310.311 266.48 54.5445 310.003 
264.997 55.6481 309.988 257.099 58.3579 311.084 262.38 46.6929 310.85 
262.754 46.5036 310.989 263.622 46.6671 310.573 263.772 46.7077 310.919 
264.197 47.0447 311.054 259.049 48.2822 311.853 265.84 48.9025 311.069 
257.238 53.1299 310.23 267.164 54.3963 310.916 254.547 57.9687 311.334 
263.31 57.316 311.466 254.306 58.7721 311.629 256.966 58.9949 311.584 
254.625 60.4604 312.629 262.945 46.455 311.273 263.225 46.4559 311.346 
261.844 46.8116 311.963 259.32 47.8602 312.588 254.493 52.3248 312.017 
254.021 54.0454 311.632 251.973 57.3073 312.221 253.286 57.7002 311.664 
259.448 58.9554 311.984 252.374 59.1744 312.322 260.508 47.3932 313.35 
265.165 47.6023 312.688 258.128 48.542 313.299 253.88 51.4612 313.14 
254.72 51.1108 312.786 268.316 54.5662 313.057 268.48 54.4842 313.464 
268.289 54.8306 313.35 250.424 56.8984 313.211 263.24 46.797 313.218 
263.724 46.8488 313.029 265.071 47.5377 313.543 268.59 53.2659 313.912 
249.77 53.9666 314.595 268.599 54.1368 313.742 249.203 55.8647 314.529 
267.662 55.7093 313.346 268.268 55.123 313.826 264.877 57.6477 313.862 
250.335 59.801 314.023 259.575 60.079 314.019 262.293 47.25 314.762 
250.4 52.6108 315.977 249.985 52.9429 315.796 249.022 53.7936 315.911 
249.047 53.9688 315.632 248.802 55.0271 315.563 267.836 55.7152 313.889 
267.833 55.779 314.49 248.958 53.8376 316.172 268.608 53.2257 315.608 
268.73 53.9886 314.897 248.623 55.3003 316.156 268.374 55.1685 315.024 
265.583 57.5373 315.297 249.688 63.086 316.854 250.521 63.803 317.034 
251.758 63.9505 316.979 250.863 64.2948 317.459 263.827 47.536 315.81 
265.538 48.2345 316.076 264.633 47.8595 316.281 250.555 52.5215 316.819 
250.95 52.3362 317.075 268.123 52.1495 316.615 268.167 52.5552 316.777 
248.864 54.0839 316.322 268.104 55.017 316.179 266.945 56.4777 315.824 
248.334 57.8283 317.321 253.092 63.7236 316.776 249.65 64.7549 318.517 
250.224 64.8515 318.262 250.047 64.9444 318.515 264.094 48.1084 316.955 
265.662 48.5484 316.766 266.254 49.1704 317.328 267.239 50.305 317.198 
251.283 52.2898 317.55 254.168 51.2341 318.307 267.98 52.7805 317.162 
249.067 54.2435 317.529 267.98 53.4627 317.127 266.952 55.2229 317.611 
248.331 58.1939 317.925 265.885 56.8602 317.243 248.248 61.1483 318.351 
248.525 63.4383 318.737 249.04 64.3307 318.653 249.331 64.6805 318.764 
266.398 49.2872 318.13 266.214 49.3064 318.032 266.45 49.3431 317.993 
265.618 49.1671 317.927 267.033 50.1839 317.575 266.618 49.7547 317.897 
267.071 51.0527 318.011 266.289 52.7977 318.911 267.252 52.4082 318.114 
265.492 55.9138 318.666 265.821 55.9002 318.497 266.046 56.4056 317.626 
248.136 61.1446 318.912 248.202 61.0255 319.326 248.091 61.473 319.147 
248.091 61.9323 319.199 256.569 63.0583 318.286 252.79 64.6848 318.454 
249.054 64.501 318.978 248.995 64.4777 319.421 250.955 65.2202 318.89 
249.67 65.3045 319.633 266.447 49.3408 318.23 266.36 49.3946 318.278 
266.436 49.4792 318.232 266.114 49.7866 318.386 265.624 50.5691 318.967 
266.16 50.534 318.676 264.644 52.8459 319.92 249.242 55.2844 319.24 
263.776 55.2138 320.054 265.94 55.775 318.512 263.91 56.6678 319.32 
248.595 58.5567 319.362 262.238 58.2495 319.693 248.238 62.522 319.595 
[...]
POINT_DATA 498
COLOR_SCALARS scalars 3
0.0941176 0.501961 0.392157 0.0941176 0.501961 0.392157 0.0941176 0.501961 0.392157 
0.0941176 0.501961 0.392157 0.0941176 0.501961 0.392157 
0.0941176 0.501961 0.392157 0.0941176 0.501961 0.392157 
0.0941176 0.501961 0.392157 0.0941176 0.501961 0.392157 
0.0941176 0.501961 0.392157 0.0941176 0.501961 0.392157 
0.0941176 0.501961 0.392157 0.0941176 0.501961 0.392157 
0.0941176 0.501961 0.392157 0.0941176 0.501961 0.392157 
0.0941176 0.501961 0.392157 0.0941176 0.501961 0.392157 
0.0941176 0.501961 0.392157 0.0941176 0.501961 0.392157 
0.0941176 0.501961 0.392157 0.0941176 0.501961 0.392157 
0.0941176 0.501961 0.392157 0.0941176 0.501961 0.392157 
0.0941176 0.501961 0.392157 0.0941176 0.501961 0.392157 
0.0941176 0.501961 0.392157 0.0941176 0.501961 0.392157 
0.0941176 0.501961 0.392157 0.0941176 0.501961 0.392157 
0.0941176 0.501961 0.392157 0.0941176 0.501961 0.392157 
0.0941176 0.501961 0.392157 0.0941176 0.501961 0.392157 
0.0941176 0.501961 0.392157 0.0941176 0.501961 0.392157 
0.0941176 0.501961 0.392157 0.0941176 0.501961 0.392157 
0.0941176 0.501961 0.392157 0.0941176 0.501961 0.392157 
0.0941176 0.501961 0.392157 0.0941176 0.501961 0.392157 
0.0941176 0.501961 0.392157 0.0941176 0.501961 0.392157 
0.0941176 0.501961 0.392157 0.0941176 0.501961 0.392157 
0.0941176 0.501961 0.392157 0.0941176 0.501961 0.392157 
0.0941176 0.501961 0.392157 0.0941176 0.501961 0.392157 
0.0941176 0.501961 0.392157 0.0941176 0.501961 0.392157 
0.0941176 0.501961 0.392157 0.0941176 0.501961 0.392157 
0.0941176 0.501961 0.392157 0.0941176 0.501961 0.392157 
0.0941176 0.501961 0.392157 0.0941176 0.501961 0.392157 
0.0941176 0.501961 0.392157 0.0941176 0.501961 0.392157 
0.0941176 0.501961 0.392157 0.0941176 0.501961 0.392157 
0.0941176 0.501961 0.392157 0.0941176 0.501961 0.392157 
0.0941176 0.501961 0.392157 0.0941176 0.501961 0.392157 
0.0941176 0.501961 0.392157 0.0941176 0.501961 0.392157 
0.0941176 0.501961 0.392157 0.0941176 0.501961 0.392157 
0.0941176 0.501961 0.392157 0.0941176 0.501961 0.392157 
0.0941176 0.501961 0.392157 0.0941176 0.501961 0.392157 
0.0941176 0.501961 0.392157 0.0941176 0.501961 0.392157 
0.0941176 0.501961 0.392157 0.0941176 0.501961 0.392157 
0.0941176 0.501961 0.392157 0.0941176 0.501961 0.392157 
0.0941176 0.501961 0.392157 0.0941176 0.501961 0.392157 
0.0941176 0.501961 0.392157 0.0941176 0.501961 0.392157 
0.0941176 0.501961 0.392157 0.0941176 0.501961 0.392157 
0.0941176 0.501961 0.392157 0.0941176 0.501961 0.392157 
0.0941176 0.501961 0.392157 0.0941176 0.501961 0.392157 
0.0941176 0.501961 0.392157 0.0941176 0.501961 0.392157 
0.0941176 0.501961 0.392157 0.0941176 0.501961 0.392157 
0.0941176 0.501961 0.392157 0.0941176 0.501961 0.392157 
0.0941176 0.501961 0.392157 0.0941176 0.501961 0.392157 
0.0941176 0.501961 0.392157 0.0941176 0.501961 0.392157 
0.0941176 0.501961 0.392157 0.0941176 0.501961 0.392157 
0.0941176 0.501961 0.392157 0.0941176 0.501961 0.392157 
0.0941176 0.501961 0.392157 0.0941176 0.501961 0.392157 
0.0941176 0.501961 0.392157 0.0941176 0.501961 0.392157 
0.0941176 0.501961 0.392157 0.0941176 0.501961 0.392157 
0.0941176 0.501961 0.392157 0.0941176 0.501961 0.392157 
0.0941176 0.501961 0.392157 0.0941176 0.501961 0.392157 
0.0941176 0.501961 0.392157 0.0941176 0.501961 0.392157 
0.0941176 0.501961 0.392157 0.0941176 0.501961 0.392157 
0.0941176 0.501961 0.392157 0.0941176 0.501961 0.392157 
0.0941176 0.501961 0.392157 0.0941176 0.501961 0.392157 
0.0941176 0.501961 0.392157 0.0941176 0.501961 0.392157 
0.0941176 0.501961 0.392157 0.0941176 0.501961 0.392157 
0.0941176 0.501961 0.392157 0.0941176 0.501961 0.392157 
0.0941176 0.501961 0.392157 0.0941176 0.501961 0.392157 
0.0941176 0.501961 0.392157 0.0941176 0.501961 0.392157 
0.0941176 0.501961 0.392157 0.0941176 0.501961 0.392157 
0.0941176 0.501961 0.392157 0.0941176 0.501961 0.392157 
0.0941176 0.501961 0.392157 0.0941176 0.501961 0.392157 
0.0941176 0.501961 0.392157 0.0941176 0.501961 0.392157 
0.0941176 0.501961 0.392157 0.0941176 0.501961 0.392157 
0.0941176 0.501961 0.392157 0.0941176 0.501961 0.392157 
0.0941176 0.501961 0.392157 0.0941176 0.501961 0.392157 
0.0941176 0.501961 0.392157 0.0941176 0.501961 0.392157 
0.0941176 0.501961 0.392157 0.0941176 0.501961 0.392157 
0.0941176 0.501961 0.392157 0.0941176 0.501961 0.392157 
0.0941176 0.501961 0.392157 0.0941176 0.501961 0.392157 
0.0941176 0.501961 0.392157 0.0941176 0.501961 0.392157 
0.0941176 0.501961 0.392157 0.0941176 0.501961 0.392157 
0.0941176 0.501961 0.392157 0.0941176 0.501961 0.392157 
0.0941176 0.501961 0.392157 0.0941176 0.501961 0.392157 
0.0941176 0.501961 0.392157 0.0941176 0.501961 0.392157 
0.0941176 0.501961 0.392157 0.0941176 0.501961 0.392157 
0.0941176 0.501961 0.392157 0.0941176 0.501961 0.392157 
0.0941176 0.501961 0.392157 0.0941176 0.501961 0.392157 
0.0941176 0.501961 0.392157 0.0941176 0.501961 0.392157 
0.0941176 0.501961 0.392157 0.0941176 0.501961 0.392157 
0.0941176 0.501961 0.392157 0.0941176 0.501961 0.392157 
0.0941176 0.501961 0.392157 0.0941176 0.501961 0.392157 
0.0941176 0.501961 0.392157 0.0941176 0.501961 0.392157 
0.0941176 0.501961 0.392157 0.0941176 0.501961 0.392157 
0.0941176 0.501961 0.392157 0.0941176 0.501961 0.392157 
0.0941176 0.501961 0.392157 0.0941176 0.501961 0.392157 
0.0941176 0.501961 0.392157 0.0941176 0.501961 0.392157 
0.0941176 0.501961 0.392157 0.0941176 0.501961 0.392157 
0.0941176 0.501961 0.392157 0.0941176 0.501961 0.392157 
0.0941176 0.501961 0.392157 0.0941176 0.501961 0.392157 
0.0941176 0.501961 0.392157 0.0941176 0.501961 0.392157 
0.0941176 0.501961 0.392157 0.0941176 0.501961 0.392157 
0.0941176 0.501961 0.392157 0.0941176 0.501961 0.392157 
0.0941176 0.501961 0.392157 0.0941176 0.501961 0.392157 
0.0941176 0.501961 0.392157 0.0941176 0.501961 0.392157 
0.0941176 0.501961 0.392157 0.0941176 0.501961 0.392157 
0.0941176 0.501961 0.392157 0.0941176 0.501961 0.392157 
0.0941176 0.501961 0.392157 0.0941176 0.501961 0.392157 
0.0941176 0.501961 0.392157 0.0941176 0.501961 0.392157 
0.0941176 0.501961 0.392157 0.0941176 0.501961 0.392157 
0.0941176 0.501961 0.392157 0.0941176 0.501961 0.392157 
0.0941176 0.501961 0.392157 0.0941176 0.501961 0.392157 
0.0941176 0.501961 0.392157 0.0941176 0.501961 0.392157 
0.0941176 0.501961 0.392157 0.0941176 0.501961 0.392157 
0.0941176 0.501961 0.392157 0.0941176 0.501961 0.392157 
0.0941176 0.501961 0.392157 0.0941176 0.501961 0.392157 
0.0941176 0.501961 0.392157 0.0941176 0.501961 0.392157 
0.0941176 0.501961 0.392157 0.0941176 0.501961 0.392157 
0.0941176 0.501961 0.392157 0.0941176 0.501961 0.392157 
0.0941176 0.501961 0.392157 0.0941176 0.501961 0.392157 
0.0941176 0.501961 0.392157 0.0941176 0.501961 0.392157 
0.0941176 0.501961 0.392157 0.0941176 0.501961 0.392157 
0.0941176 0.501961 0.392157 0.0941176 0.501961 0.392157 
0.0941176 0.501961 0.392157 0.0941176 0.501961 0.392157 
0.0941176 0.501961 0.392157 0.0941176 0.501961 0.392157 
0.0941176 0.501961 0.392157 0.0941176 0.501961 0.392157 
0.0941176 0.501961 0.392157 0.0941176 0.501961 0.392157 
0.0941176 0.501961 0.392157 0.0941176 0.501961 0.392157 
0.0941176 0.501961 0.392157 0.0941176 0.501961 0.392157 
0.0941176 0.501961 0.392157 0.0941176 0.501961 0.392157 
0.0941176 0.501961 0.392157 0.0941176 0.501961 0.392157 
0.0941176 0.501961 0.392157 0.0941176 0.501961 0.392157 
0.0941176 0.501961 0.392157 0.0941176 0.501961 0.392157 
0.0941176 0.501961 0.392157 0.0941176 0.501961 0.392157 
0.0941176 0.501961 0.392157 0.0941176 0.501961 0.392157 
0.0941176 0.501961 0.392157 0.0941176 0.501961 0.392157 
0.0941176 0.501961 0.392157 0.0941176 0.501961 0.392157 
0.0941176 0.501961 0.392157 0.0941176 0.501961 0.392157 
0.0941176 0.501961 0.392157 0.0941176 0.501961 0.392157 
0.0941176 0.501961 0.392157 0.0941176 0.501961 0.392157 
0.0941176 0.501961 0.392157 0.0941176 0.501961 0.392157 
0.0941176 0.501961 0.392157 0.0941176 0.501961 0.392157 
0.0941176 0.501961 0.392157 0.0941176 0.501961 0.392157 
0.0941176 0.501961 0.392157 0.0941176 0.501961 0.392157 
0.0941176 0.501961 0.392157 0.0941176 0.501961 0.392157 
0.0941176 0.501961 0.392157 0.0941176 0.501961 0.392157 
0.0941176 0.501961 0.392157 0.0941176 0.501961 0.392157 
0.0941176 0.501961 0.392157 0.0941176 0.501961 0.392157 
0.0941176 0.501961 0.392157 0.0941176 0.501961 0.392157 
0.0941176 0.501961 0.392157 0.0941176 0.501961 0.392157 
0.0941176 0.501961 0.392157 0.0941176 0.501961 0.392157 
0.0941176 0.501961 0.392157 0.0941176 0.501961 0.392157 
0.0941176 0.501961 0.392157 0.0941176 0.501961 0.392157 
0.0941176 0.501961 0.392157 0.0941176 0.501961 0.392157 
0.0941176 0.501961 0.392157 0.0941176 0.501961 0.392157 
0.0941176 0.501961 0.392157 0.0941176 0.501961 0.392157 
0.0941176 0.501961 0.392157 0.0941176 0.501961 0.392157 
0.0941176 0.501961 0.392157 0.0941176 0.501961 0.392157 
0.0941176 0.501961 0.392157 0.0941176 0.501961 0.392157 
0.0941176 0.501961 0.392157 0.0941176 0.501961 0.392157 
0.0941176 0.501961 0.392157 0.0941176 0.501961 0.392157 
0.0941176 0.501961 0.392157 0.0941176 0.501961 0.392157 
0.0941176 0.501961 0.392157 0.0941176 0.501961 0.392157 
0.0941176 0.501961 0.392157 0.0941176 0.501961 0.392157 
0.0941176 0.501961 0.392157 0.0941176 0.501961 0.392157 
0.0941176 0.501961 0.392157 0.0941176 0.501961 0.392157 
0.0941176 0.501961 0.392157 0.0941176 0.501961 0.392157 
0.0941176 0.501961 0.392157 0.0941176 0.501961 0.392157 
0.0941176 0.501961 0.392157 0.0941176 0.501961 0.392157 
0.0941176 0.501961 0.392157 0.0941176 0.501961 0.392157 
0.0941176 0.501961 0.392157 0.0941176 0.501961 0.392157 
0.0941176 0.501961 0.392157 0.0941176 0.501961 0.392157 
0.0941176 0.501961 0.392157 0.0941176 0.501961 0.392157 
0.0941176 0.501961 0.392157 0.0941176 0.501961 0.392157 
0.0941176 0.501961 0.392157 0.0941176 0.501961 0.392157 
0.0941176 0.501961 0.392157 0.0941176 0.501961 0.392157 
0.0941176 0.501961 0.392157 0.0941176 0.501961 0.392157 
0.0941176 0.501961 0.392157 0.0941176 0.501961 0.392157 
0.0941176 0.501961 0.392157 0.0941176 0.501961 0.392157 
0.0941176 0.501961 0.392157 0.0941176 0.501961 0.392157 
0.0941176 0.501961 0.392157 0.0941176 0.501961 0.392157 
0.0941176 0.501961 0.392157 0.0941176 0.501961 0.392157 
0.0941176 0.501961 0.392157 0.0941176 0.501961 0.392157 
0.0941176 0.501961 0.392157 0.0941176 0.501961 0.392157 
0.0941176 0.501961 0.392157 0.0941176 0.501961 0.392157 
0.0941176 0.501961 0.392157 0.0941176 0.501961 0.392157 
0.0941176 0.501961 0.392157 0.0941176 0.501961 0.392157 
0.0941176 0.501961 0.392157 0.0941176 0.501961 0.392157 
0.0941176 0.501961 0.392157 0.0941176 0.501961 0.392157 
0.0941176 0.501961 0.392157 0.0941176 0.501961 0.392157 
0.0941176 0.501961 0.392157 0.0941176 0.501961 0.392157 
0.0941176 0.501961 0.392157 0.0941176 0.501961 0.392157 
0.0941176 0.501961 0.392157 0.0941176 0.501961 0.392157 
0.0941176 0.501961 0.392157 0.0941176 0.501961 0.392157 
0.0941176 0.501961 0.392157 0.0941176 0.501961 0.392157 
0.0941176 0.501961 0.392157 0.0941176 0.501961 0.392157 
0.0941176 0.501961 0.392157 0.0941176 0.501961 0.392157 
0.0941176 0.501961 0.392157 0.0941176 0.501961 0.392157 
0.0941176 0.501961 0.392157 0.0941176 0.501961 0.392157 
0.0941176 0.501961 0.392157 0.0941176 0.501961 0.392157 
0.0941176 0.501961 0.392157 0.0941176 0.501961 0.392157 
0.0941176 0.501961 0.392157 0.0941176 0.501961 0.392157 
0.0941176 0.501961 0.392157 0.0941176 0.501961 0.392157 
0.0941176 0.501961 0.392157 0.0941176 0.501961 0.392157 
0.0941176 0.501961 0.392157 0.0941176 0.501961 0.392157 
0.0941176 0.501961 0.392157 0.0941176 0.501961 0.392157 
0.0941176 0.501961 0.392157 0.0941176 0.501961 0.392157 
0.0941176 0.501961 0.392157 0.0941176 0.501961 0.392157 
0.0941176 0.501961 0.392157 0.0941176 0.501961 0.392157 
0.0941176 0.501961 0.392157 0.0941176 0.501961 0.392157 
0.0941176 0.501961 0.392157 0.0941176 0.501961 0.392157 
0.0941176 0.501961 0.392157 0.0941176 0.501961 0.392157 
0.0941176 0.501961 0.392157 0.0941176 0.501961 0.392157 
0.0941176 0.501961 0.392157 0.0941176 0.501961 0.392157 
0.0941176 0.501961 0.392157 0.0941176 0.501961 0.392157 
0.0941176 0.501961 0.392157 0.0941176 0.501961 0.392157 
0.0941176 0.501961 0.392157 0.0941176 0.501961 0.392157 
0.0941176 0.501961 0.392157 0.0941176 0.501961 0.392157 
0.0941176 0.501961 0.392157 0.0941176 0.501961 0.392157 
0.0941176 0.501961 0.392157 0.0941176 0.501961 0.392157 
0.0941176 0.501961 0.392157 0.0941176 0.501961 0.392157 
0.0941176 0.501961 0.392157 0.0941176 0.501961 0.392157 
0.0941176 0.501961 0.392157 0.0941176 0.501961 0.392157 
0.0941176 0.501961 0.392157 0.0941176 0.501961 0.392157 
0.0941176 0.501961 0.392157 0.0941176 0.501961 0.392157 
0.0941176 0.501961 0.392157 0.0941176 0.501961 0.392157 
0.0941176 0.501961 0.392157 0.0941176 0.501961 0.392157 
0.0941176 0.501961 0.392157 0.0941176 0.501961 0.392157 
0.0941176 0.501961 0.392157 0.0941176 0.501961 0.392157 
0.0941176 0.501961 0.392157 0.0941176 0.501961 0.392157 
0.0941176 0.501961 0.392157 0.0941176 0.501961 0.392157 
0.0941176 0.501961 0.392157 0.0941176 0.501961 0.392157 
0.0941176 0.501961 0.392157 0.0941176 0.501961 0.392157 
0.0941176 0.501961 0.392157 0.0941176 0.501961 0.392157 
0.0941176 0.501961 0.392157 0.0941176 0.501961 0.392157 
0.0941176 0.501961 0.392157 0.0941176 0.501961 0.392157 
0.0941176 0.501961 0.392157 0.0941176 0.501961 0.392157 
0.0941176 0.501961 0.392157 0.0941176 0.501961 0.392157 
0.0941176 0.501961 0.392157 0.0941176 0.501961 0.392157 
0.0941176 0.501961 0.392157 0.0941176 0.501961 0.392157 
0.0941176 0.501961 0.392157 0.0941176 0.501961 0.392157 
0.0941176 0.501961 0.392157 0.0941176 0.501961 0.392157 
0.0941176 0.501961 0.392157 0.0941176 0.501961 0.392157 
0.0941176 0.501961 0.392157 0.0941176 0.501961 0.392157 
0.0941176 0.501961 0.392157 0.0941176 0.501961 0.392157 
0.0941176 0.501961 0.392157 0.0941176 0.501961 0.392157 
0.0941176 0.501961 0.392157 0.0941176 0.501961 0.392157 
0.0941176 0.501961 0.392157 0.0941176 0.501961 0.392157 
0.0941176 0.501961 0.392157 0.0941176 0.501961 0.392157 
0.0941176 0.501961 0.392157 0.0941176 0.501961 0.392157 
0.0941176 0.501961 0.392157 0.0941176 0.501961 0.392157 
0.0941176 0.501961 0.392157 0.0941176 0.501961 0.392157 
0.0941176 0.501961 0.392157 
NORMALS Normals float
-0.14786 -0.0263051 -0.988658 -0.222663 -0.483539 -0.846529 0.0953888 -0.100842 -0.990319 
0.108941 -0.491342 -0.864127 0.158169 -0.057301 -0.985748 -0.208149 -0.61588 -0.759846 
0.0790936 -0.475385 -0.876216 0.0119094 -0.583582 -0.811967 0.0731813 -0.568615 -0.819342 
-0.398907 -0.0637726 -0.914771 -0.434484 -0.391288 -0.811244 0.191242 -0.186388 -0.963684 
0.214842 0.120816 -0.969147 -0.132237 0.197241 -0.971395 -0.13154 -0.716977 -0.684574 
0.196321 -0.380957 -0.90351 -0.586451 -0.102895 -0.803423 -0.511941 0.07955 -0.855329 
-0.0838806 0.324474 -0.942168 0.0874411 0.289114 -0.953293 -0.432416 -0.691237 -0.578971 
0.275883 -0.332342 -0.901907 0.27183 -0.401809 -0.874447 -0.576681 -0.408865 -0.707296 
-0.495325 -0.531424 -0.687198 -0.651841 -0.109549 -0.750402 -0.454591 -0.0393679 -0.88983 
-0.605753 0.133667 -0.784344 -0.370067 0.15319 -0.916287 -0.452656 0.0988621 -0.886188 
-0.411992 -0.12982 -0.901892 -0.598416 0.00399875 -0.801175 -0.233488 0.083369 -0.968779 
-0.396407 0.124984 -0.909527 -0.329997 0.271613 -0.904062 0.15237 0.276675 -0.948807 
0.376424 0.718275 -0.585138 -0.183562 0.788001 -0.587672 -0.137167 0.778542 -0.61242 
-0.192832 0.332442 -0.9232 0.381313 0.578627 -0.720965 0.387692 0.789523 -0.475761 
0.196298 0.68132 -0.705174 0.115878 -0.514473 -0.849641 0.16819 -0.384 -0.907885 
0.399371 -0.155542 -0.903499 0.293057 -0.126219 -0.947727 0.417533 0.181176 -0.890416 
-0.448984 -0.062125 -0.891378 -0.742181 -0.0555495 -0.667894 -0.160772 0.0712108 -0.984419 
0.420604 0.490726 -0.763073 -0.723272 0.386376 -0.572356 0.503882 0.714938 -0.484733 
0.466833 0.71757 -0.516876 0.365971 0.886785 -0.282273 -0.505646 0.798759 -0.326046 
0.0545456 0.939453 -0.338308 0.184225 0.979894 -0.0766063 0.247091 0.9313 -0.267629 
0.268275 0.957672 -0.104371 -0.261149 0.881098 -0.394293 0.398919 -0.376773 -0.836006 
0.217514 -0.845535 -0.487605 -0.548131 -0.515848 -0.658372 0.94402 0.00888235 -0.329768 
0.252208 -0.494033 -0.83206 0.435484 -0.217565 -0.87351 -0.304999 -0.836507 -0.455226 
0.493748 0.157554 -0.855213 -0.874633 -0.0564381 -0.48149 -0.855567 -0.0991123 -0.508116 
0.510518 0.638767 -0.575628 0.613471 0.74416 -0.264347 0.412028 0.894755 -0.172179 
0.489506 0.858424 -0.153272 0.60072 0.664101 -0.44509 0.399251 0.916663 0.0180808 
-0.534898 0.699506 -0.473893 -0.690948 0.501922 -0.520255 -0.715297 0.674503 0.182745 
0.0298127 0.998063 -0.0546115 -0.153339 0.963371 -0.22001 -0.53493 0.84485 0.00885198 
0.535555 -0.806418 -0.250741 -0.184367 -0.873274 -0.451001 0.885474 -0.431615 -0.172175 
0.0192205 -0.778604 -0.627222 0.158454 -0.760606 -0.62958 0.369127 -0.261996 -0.891686 
0.887275 -0.240661 -0.393478 0.583219 -0.0162438 -0.812153 -0.761718 -0.496133 -0.416699 
-0.849078 -0.225564 -0.47769 0.641661 0.239075 -0.728776 0.391494 0.429952 -0.813556 
0.710307 0.437652 -0.551294 -0.993608 -0.0723008 -0.0866908 0.599401 0.541429 -0.589554 
0.502096 0.81602 -0.286376 -0.96002 0.238234 -0.146993 0.380618 0.919996 -0.0934786 
0.554259 0.829921 0.0634696 -0.828407 0.555928 -0.0684449 -0.896368 0.440905 0.046131 
-0.522816 0.81849 0.238196 -0.302406 0.875596 0.376673 -0.0288408 0.877685 0.478369 
0.00428813 0.944161 0.329456 0.160102 -0.83053 -0.533468 0.539279 -0.842077 -0.00918023 
-0.203179 -0.825336 -0.526819 0.50315 -0.822752 -0.264424 0.846158 -0.491729 -0.205476 
-0.470967 -0.826192 -0.309187 0.767956 -0.0109227 -0.640409 0.847636 -0.185735 -0.497007 
0.63563 0.190826 -0.748037 0.747298 0.253337 -0.614301 0.585388 0.766273 -0.264852 
-0.999227 -0.0111323 -0.0377011 0.571584 0.819908 -0.0322887 -0.91448 0.16974 0.367308 
0.427382 0.839858 0.33464 0.39603 0.879058 0.265362 -0.770953 0.575519 0.272781 
-0.640554 0.73576 0.219883 0.484485 -0.795037 -0.364953 0.177061 -0.923583 -0.340065 
0.630974 -0.770829 -0.0877215 0.919023 -0.110421 -0.378423 0.88881 0.287617 -0.356782 
-0.815587 0.413049 0.405226 -0.32768 0.791036 0.516612 0.470056 -0.873175 -0.128895 
-0.141535 -0.900088 -0.412079 -0.267684 -0.936654 -0.225885 0.700644 -0.694195 -0.164894 
-0.510833 -0.859644 0.00793701 -0.360641 -0.898916 -0.248771 -0.519793 -0.81948 -0.241386 
-0.550917 -0.820465 0.152732 -0.786705 -0.578146 -0.216432 -0.908546 -0.411674 0.0711932 
-0.663212 -0.74332 -0.0873275 0.984973 0.0400128 -0.168007 -0.974915 -0.164174 0.150291 
0.707884 0.66538 -0.237002 0.893579 0.440624 -0.0858269 0.452927 0.872939 0.181203 
0.206714 0.892709 0.400425 0.0828221 -0.930928 -0.355689 -0.428258 -0.881387 -0.199382 
-0.555725 -0.828374 0.0704686 0.956437 -0.275184 0.0974795 0.965423 0.26051 0.00966068 
-0.922213 0.0972762 0.374247 0.514158 0.821665 0.245985 0.133474 -0.843178 -0.520803 
0.0279329 -0.959602 -0.279971 0.456583 -0.838233 -0.298156 0.530779 -0.837883 -0.127379 
-0.342667 -0.939016 -0.028784 -0.444548 -0.890115 0.100363 -0.379309 -0.898807 0.219706 
0.792046 -0.600827 0.108028 -0.516279 -0.787321 0.337019 -0.760411 -0.393045 0.517001 
0.908165 0.28708 0.304665 0.799548 0.588997 0.117498 0.838962 0.370545 0.398547 
0.402116 0.850704 0.338536 0.342696 0.86685 0.36212 0.718676 -0.686311 0.111722 
-0.385515 -0.918697 -0.0858669 -0.464231 -0.849614 0.25029 -0.451612 -0.891051 0.0455391 
-0.577174 -0.754127 0.31331 -0.678401 -0.505247 0.533383 0.868508 -0.0558084 0.492524 
0.884538 0.103453 0.454852 -0.587836 -0.114472 0.80084 -0.811582 0.0113291 0.584128 
-0.61821 -0.0349928 0.785234 0.585656 0.772766 0.244624 0.244831 -0.951366 -0.186976 
0.494248 -0.86874 -0.0317751 -0.253829 -0.953755 -0.161002 0.704854 -0.704752 0.0806537 
-0.537357 -0.769255 0.345678 -0.573692 -0.712888 0.403322 -0.451602 -0.726968 0.517274 
-0.59913 -0.649385 0.468339 -0.626348 -0.44072 0.643004 -0.510226 -0.250563 0.822731 