# vtk DataFile Version 4.2
vtk output
ASCII
DATASET POLYDATA
POINTS 701 float
205.817 111.798 104.92 205.426 111.447 105.158 206.187 112.242 104.821 
206.747 111.809 104.82 204.56 112.058 105.63 206.576 112.643 104.876 
204.686 112.742 105.527 204.793 113.011 105.588 205.366 113.016 105.237 
206.336 113.545 105.329 206.861 113.478 105.246 208.72 110.642 105.54 
204.331 111.994 105.982 209.461 112.091 105.699 208.406 112.828 105.37 
210.172 112.376 106.063 204.597 112.873 105.765 204.423 112.793 106.184 
210.429 113.522 106.44 205.76 113.893 105.875 207.698 114.156 105.79 
209.033 114.177 106.049 206.102 114.224 106.178 202.787 103.09 108.146 
202.885 103.46 108.042 203.529 103.32 107.976 203.38 102.935 108.135 
203.86 103.541 107.988 209.037 108.805 106.497 204.4 110.125 106.656 
211.72 110.946 107.257 204.05 111.511 106.864 204.144 111.976 106.432 
204.175 112.422 106.548 203.439 102.654 108.269 203.208 102.593 108.311 
203.704 102.726 108.33 201.257 103.232 108.611 202.685 103.907 108.126 
204.296 103.702 108.108 206.655 106.771 107.412 209.622 107.53 107.905 
211.08 108.572 107.922 211.322 109.316 107.534 211.702 109.889 107.621 
203.979 111.669 107.304 204.116 112.452 107.022 212.277 112.484 107.793 
205.354 114.078 107.415 210.391 115.044 107.414 209.615 115.646 107.773 
203.021 102.397 108.499 204.913 104.296 108.223 205.973 104.476 108.665 
201.89 104.957 108.736 202.793 104.962 108.312 203.883 105.38 108.018 
204.925 105.3 107.931 203.354 106.797 108.429 204.799 106.289 107.681 
208.203 105.919 108.915 204.298 107.128 107.7 210.147 107.447 108.534 
203.843 108.468 107.991 211.267 108.597 108.147 212.131 109.598 108.669 
204.03 112.112 107.367 212.881 112.665 108.756 204.628 113.308 107.622 
209.439 116.039 108.396 198.355 102.84 110.344 206.736 104.236 109.705 
208.696 106.138 109.177 203.203 107.728 108.914 210.487 107.592 108.829 
210.06 107.198 109.036 211.93 109.13 108.985 203.685 110.099 109.144 
203.932 110.945 109.516 213.07 111.179 109.577 213.368 112.033 109.999 
204.43 112.531 108.804 212.974 113.433 109.25 211.882 115.27 109.045 
208.762 116.331 109.202 209.908 116.354 109.034 209.645 116.619 109.492 
200.62 101.036 110.66 199.802 101.693 110.262 196.243 103.726 111.22 
196.029 103.577 111.326 197.487 103.886 110.657 201.408 106.369 110.212 
202.615 107.259 109.522 202.742 107.719 109.775 213.338 112.969 109.974 
206.134 114.638 109.788 207.926 116.136 110.191 209.958 117.057 110.454 
210.255 117.133 110.718 201.96 100.461 111.335 201.567 100.132 111.753 
202.528 100.476 111.548 205.717 102.926 110.83 194.929 103.602 112.074 
197.839 105.068 111.353 212.159 109.156 110.684 212.872 110.335 111.247 
213.453 111.999 111.012 213.11 114.686 111.301 212.141 115.76 110.17 
208.694 116.742 111.179 210.199 117.234 111.413 210.421 117.277 111.04 
210.453 117.306 111.168 210.604 117.154 110.868 210.535 117.289 111.059 
193.655 103.705 113.007 193.388 103.96 113.282 210.499 107.281 111.79 
202.275 107.993 111.68 202.748 108.567 111.719 204.696 111.809 111.892 
212.136 116.057 111.279 210.063 117.216 112.367 210.751 117.094 111.595 
210.61 117.21 111.177 210.252 117.255 112.223 203.822 100.526 113.222 
196.078 101.481 112.923 204.932 101.728 113.694 193.33 103.467 113.308 
193.047 102.961 113.8 191.863 103.755 114.388 191.929 103.953 114.352 
192.74 103.744 113.708 192.222 103.532 114.112 192.763 104.209 113.892 
195.604 105.396 113.372 213.333 113.835 112.615 212.661 115.405 112.72 
208.606 116.717 112.525 204.982 101.784 114.741 192.059 103.262 114.392 
191.581 103.698 114.755 191.399 103.856 115.116 193.918 105.41 114.699 
195.312 105.631 114.132 213.174 112.868 113.276 212.939 114.686 113.26 
212.388 115.31 113.708 210.396 116.595 113.834 209.886 116.818 113.612 
202.052 98.2033 115.495 201.815 98.2327 115.251 191.384 103.439 115.213 
191.147 103.128 115.937 191.091 103.73 115.601 190.959 103.858 115.909 
206.066 103.734 114.972 191.562 104.378 115.574 192.978 105.202 115.408 
195.689 106.025 115.485 209.125 106.867 114.404 203.948 109.614 114.495 
205.535 112.024 114.572 207.132 114.52 115.087 212.629 114.424 114.234 
208.402 116.083 114.495 209.597 116.389 114.47 209.964 116.005 114.864 
208.802 116.371 114.33 209.051 116.624 113.92 202.692 98.313 116.231 
200.905 98.0046 115.897 204.778 101.676 116.359 190.815 103.417 116.518 
190.792 103.671 116.307 190.846 103.801 116.183 205.513 103.226 115.84 
191.024 103.996 116.197 206.881 105.165 115.297 193.906 105.699 116.501 
199.954 106.917 115.331 202.018 107.75 115.319 211.523 111.411 115.896 
212.325 114.067 114.854 211.884 114.034 115.527 207.649 115.195 115.161 
207.578 114.767 115.79 207.837 115.262 115.652 207.869 115.129 115.93 
208.245 115.535 115.412 207.964 115.404 115.686 210.145 115.391 115.603 
207.889 115.322 115.79 203.47 98.7903 116.853 190.689 103.131 116.98 
190.624 103.093 117.358 190.867 103.779 116.549 190.686 103.294 117.187 
190.862 103.626 117.277 205.39 104.384 116.992 206.731 106.006 116.144 
202.811 107.718 116.365 204.038 108.938 115.766 210.208 110.166 116.324 
210.722 114.198 116.562 207.998 115.345 115.797 202.526 97.5776 118.124 
202.805 97.6931 118.078 199.367 98.0348 117.298 199.569 97.9229 117.661 
203.622 98.9121 117.377 196.081 99.2499 117.551 204.047 99.8132 117.404 
191.068 101.933 118.168 190.785 102.435 118.047 204.975 104.326 117.616 
206.26 106.321 116.658 205.495 106.154 117.153 206.25 107.286 116.825 
201.168 106.878 117.118 204.379 108.115 116.654 204.632 107.198 117.21 
205.474 108.009 116.861 206.942 109.028 116.814 206.05 110.001 116.489 
206.392 111.03 116.397 207.542 110.871 116.967 210.082 111.489 117.04 
210.659 113.11 117.045 210.34 113.569 117.151 208.186 114.501 116.762 
202.162 97.5317 118.051 202.508 97.5718 118.468 202.744 97.6737 118.367 
202.89 97.9298 118.561 199.698 97.9914 118.818 203.149 98.2405 118.295 
197.253 98.7832 118.687 191.945 101.114 118.435 190.768 102.148 118.557 
190.709 102.131 118.945 191.129 101.602 118.879 190.665 102.813 117.951 
190.71 102.347 118.725 190.773 102.771 118.681 191.677 104.164 118.743 
197.095 105.969 118.711 201.392 106.645 117.677 201.651 106.277 118.297 
203.092 106.534 117.836 204.04 106.336 117.781 209.66 113.182 117.566 
208.406 113.28 117.508 208.792 113.689 117.551 208.991 113.504 117.642 
208.534 113.629 117.489 202.287 97.6357 118.699 202.405 97.8829 118.978 
202.727 97.9798 118.863 197.865 98.6311 119.174 200.112 98.2725 119.628 
203.671 100.706 119.287 191.334 101.264 119.879 190.962 101.584 119.661 
191.864 101.036 119.771 192.467 100.792 119.733 190.893 102.669 119.459 
191.513 103.519 119.657 192.626 104.555 119.403 193.185 104.771 119.444 
198.36 105.705 119.681 203.022 105.234 119.135 202.313 105.279 119.457 
203.604 105.2 118.767 209.436 112.582 117.617 208.691 113.008 117.664 
209.015 113.161 117.704 209.371 112.966 117.67 198.302 98.8536 120.088 
203.207 100.014 119.712 193.119 100.562 119.989 195.783 100.278 120.997 
198.266 99.4916 120.906 190.919 101.419 120.095 190.792 101.417 120.314 
191.216 101.356 120.338 203.488 101.816 120.088 190.792 101.903 119.509 
190.842 101.546 120.188 190.905 101.914 120.014 191.011 102.434 119.958 
202.883 103.388 120.646 192.088 103.642 120.278 202.222 104.242 120.659 
196.428 99.3439 120.197 194.304 100.663 120.877 200.029 100.113 121.448 
200.71 100.254 121.486 201.618 100.241 121.195 190.766 101.392 120.42 
191.01 101.576 120.432 191.578 101.475 120.567 199.279 100.621 121.775 
191.124 102.159 120.341 191.991 102.799 120.848 202.378 103.113 121.203 
196.696 104.373 121.372 197.716 104.8 121.084 198.152 104.566 121.367 
190.746 101.407 120.473 196.187 101.383 121.737 202.536 101.391 121.206 
191.372 102.095 120.612 192.489 102.143 121.2 194.761 102.019 121.692 
196.86 101.868 121.975 198.937 101.841 122.177 200.419 101.802 122.111 
202.075 102.115 121.601 202.604 101.837 121.38 202.809 101.763 121.201 
192.361 102.817 121.176 198.513 102.318 122.213 201.721 102.579 121.878 
202.641 102.047 121.372 194.952 103.457 121.601 195.602 103.238 121.83 
198.255 104.071 121.74 200.746 103.695 121.978 202.77 101.908 121.316 
192.602 102.892 121.291 193.473 102.844 121.592 200.585 103.291 122.268 
200.628 103.469 122.195 200.465 103.436 122.26 200.591 103.573 332.887 
200.428 103.426 332.851 202.871 101.411 333.776 202.763 101.516 333.717 
192.791 102.513 333.471 192.566 102.606 333.653 192.986 102.299 333.415 
193.549 102.646 333.308 193.97 102.519 333.25 195.743 103.186 333.149 
199.128 102.866 332.799 200.986 102.332 332.99 202.896 101.522 333.906 
202.153 102.597 333.501 192.848 102.73 333.554 193.316 102.916 333.521 
199.807 103.417 332.902 198.281 103.857 333.102 200.172 104.025 333.195 
200.9 104.156 333.406 200.562 100.21 333.456 201.982 99.9473 333.905 
202.468 100.092 334.026 190.938 101.276 334.661 190.981 101.267 334.768 
190.912 101.307 334.691 191.084 101.274 334.69 194.223 101.041 333.796 
195.502 101.421 333.335 197.328 101.152 333.176 197.574 100.671 333.35 
198.845 100.584 333.278 198.499 100.92 333.148 200.207 101.232 333.064 
191.015 101.319 334.642 191.556 101.61 334.297 191.433 101.784 334.407 
192.188 101.927 333.911 192.77 102.027 333.575 194.12 102.072 333.311 
198.19 101.541 332.987 199.088 101.795 332.881 202.393 101.731 333.627 
191.829 102.257 334.152 194.848 102.677 333.23 203.061 101.959 334.283 
194.557 103.821 333.817 196.453 104.418 333.754 196.584 99.309 334.863 
199.464 99.3578 334.141 202.825 99.5421 334.643 202.98 99.1691 335.098 
197.396 99.8331 333.988 191.036 101.318 335 190.918 101.326 334.794 
191.416 101.389 334.575 191.348 101.192 334.976 191.001 101.417 334.764 
191.166 101.725 334.768 191.585 102.709 334.646 203.423 102.241 334.856 
191.887 103.135 334.708 196.081 104.718 334.189 199.028 105.476 334.703 
200.683 98.1711 335.424 202.82 98.231 335.543 202.704 97.9063 335.707 
202.946 98.0359 335.86 197.598 98.7594 335.567 198.595 98.7712 335.074 
199.172 98.3989 335.577 201.722 98.4797 334.929 196.004 99.6214 334.779 
[...]
POINT_DATA 701
COLOR_SCALARS scalars 3
0.0941176 0.501961 0.392157 0.0941176 0.501961 0.392157 0.0941176 0.501961 0.392157 
0.0941176 0.501961 0.392157 0.0941176 0.501961 0.392157 
0.0941176 0.501961 0.392157 0.0941176 0.501961 0.392157 
0.0941176 0.501961 0.392157 0.0941176 0.501961 0.392157 
0.0941176 0.501961 0.392157 0.0941176 0.501961 0.392157 
0.0941176 0.501961 0.392157 0.0941176 0.501961 0.392157 
0.0941176 0.501961 0.392157 0.0941176 0.501961 0.392157 
0.0941176 0.501961 0.392157 0.0941176 0.501961 0.392157 
0.0941176 0.501961 0.392157 0.0941176 0.501961 0.392157 
0.0941176 0.501961 0.392157 0.0941176 0.501961 0.392157 
0.0941176 0.501961 0.392157 0.0941176 0.501961 0.392157 
0.0941176 0.501961 0.392157 0.0941176 0.501961 0.392157 
0.0941176 0.501961 0.392157 0.0941176 0.501961 0.392157 
0.0941176 0.501961 0.392157 0.0941176 0.501961 0.392157 
0.0941176 0.501961 0.392157 0.0941176 0.501961 0.392157 
0.0941176 0.501961 0.392157 0.0941176 0.501961 0.392157 
0.0941176 0.501961 0.392157 0.0941176 0.501961 0.392157 
0.0941176 0.501961 0.392157 0.0941176 0.501961 0.392157 
0.0941176 0.501961 0.392157 0.0941176 0.501961 0.392157 
0.0941176 0.501961 0.392157 0.0941176 0.501961 0.392157 
0.0941176 0.501961 0.392157 0.0941176 0.501961 0.392157 
0.0941176 0.501961 0.392157 0.0941176 0.501961 0.392157 
0.0941176 0.501961 0.392157 0.0941176 0.501961 0.392157 
0.0941176 0.501961 0.392157 0.0941176 0.501961 0.392157 
0.0941176 0.501961 0.392157 0.0941176 0.501961 0.392157 
0.0941176 0.501961 0.392157 0.0941176 0.501961 0.392157 
0.0941176 0.501961 0.392157 0.0941176 0.501961 0.392157 
0.0941176 0.501961 0.392157 0.0941176 0.501961 0.392157 
0.0941176 0.501961 0.392157 0.0941176 0.501961 0.392157 
0.0941176 0.501961 0.392157 0.0941176 0.501961 0.392157 
0.0941176 0.501961 0.392157 0.0941176 0.501961 0.392157 
0.0941176 0.501961 0.392157 0.0941176 0.501961 0.392157 
0.0941176 0.501961 0.392157 0.0941176 0.501961 0.392157 
0.0941176 0.501961 0.392157 0.0941176 0.501961 0.392157 
0.0941176 0.501961 0.392157 0.0941176 0.501961 0.392157 
0.0941176 0.501961 0.392157 0.0941176 0.501961 0.392157 
0.0941176 0.501961 0.392157 0.0941176 0.501961 0.392157 
0.0941176 0.501961 0.392157 0.0941176 0.501961 0.392157 
0.0941176 0.501961 0.392157 0.0941176 0.501961 0.392157 
0.0941176 0.501961 0.392157 0.0941176 0.501961 0.392157 
0.0941176 0.501961 0.392157 0.0941176 0.501961 0.392157 
0.0941176 0.501961 0.392157 0.0941176 0.501961 0.392157 
0.0941176 0.501961 0.392157 0.0941176 0.501961 0.392157 
0.0941176 0.501961 0.392157 0.0941176 0.501961 0.392157 
0.0941176 0.501961 0.392157 0.0941176 0.501961 0.392157 
0.0941176 0.501961 0.392157 0.0941176 0.501961 0.392157 
0.0941176 0.501961 0.392157 0.0941176 0.501961 0.392157 
0.0941176 0.501961 0.392157 0.0941176 0.501961 0.392157 
0.0941176 0.501961 0.392157 0.0941176 0.501961 0.392157 
0.0941176 0.501961 0.392157 0.0941176 0.501961 0.392157 
0.0941176 0.501961 0.392157 0.0941176 0.501961 0.392157 
0.0941176 0.501961 0.392157 0.0941176 0.501961 0.392157 
0.0941176 0.501961 0.392157 0.0941176 0.501961 0.392157 
0.0941176 0.501961 0.392157 0.0941176 0.501961 0.392157 
0.0941176 0.501961 0.392157 0.0941176 0.501961 0.392157 
0.0941176 0.501961 0.392157 0.0941176 0.501961 0.392157 
0.0941176 0.501961 0.392157 0.0941176 0.501961 0.392157 
0.0941176 0.501961 0.392157 0.0941176 0.501961 0.392157 
0.0941176 0.501961 0.392157 0.0941176 0.501961 0.392157 
0.0941176 0.501961 0.392157 0.0941176 0.501961 0.392157 
0.0941176 0.501961 0.392157 0.0941176 0.501961 0.392157 
0.0941176 0.501961 0.392157 0.0941176 0.501961 0.392157 
0.0941176 0.501961 0.392157 0.0941176 0.501961 0.392157 
0.0941176 0.501961 0.392157 0.0941176 0.501961 0.392157 
0.0941176 0.501961 0.392157 0.0941176 0.501961 0.392157 
0.0941176 0.501961 0.392157 0.0941176 0.501961 0.392157 
0.0941176 0.501961 0.392157 0.0941176 0.501961 0.392157 
0.0941176 0.501961 0.392157 0.0941176 0.501961 0.392157 
0.0941176 0.501961 0.392157 0.0941176 0.501961 0.392157 
0.0941176 0.501961 0.392157 0.0941176 0.501961 0.392157 
0.0941176 0.501961 0.392157 0.0941176 0.501961 0.392157 
0.0941176 0.501961 0.392157 0.0941176 0.501961 0.392157 
0.0941176 0.501961 0.392157 0.0941176 0.501961 0.392157 
0.0941176 0.501961 0.392157 0.0941176 0.501961 0.392157 
0.0941176 0.501961 0.392157 0.0941176 0.501961 0.392157 
0.0941176 0.501961 0.392157 0.0941176 0.501961 0.392157 
0.0941176 0.501961 0.392157 0.0941176 0.501961 0.392157 
0.0941176 0.501961 0.392157 0.0941176 0.501961 0.392157 
0.0941176 0.501961 0.392157 0.0941176 0.501961 0.392157 
0.0941176 0.501961 0.392157 0.0941176 0.501961 0.392157 
0.0941176 0.501961 0.392157 0.0941176 0.501961 0.392157 
0.0941176 0.501961 0.392157 0.0941176 0.501961 0.392157 
0.0941176 0.501961 0.392157 0.0941176 0.501961 0.392157 
0.0941176 0.501961 0.392157 0.0941176 0.501961 0.392157 
0.0941176 0.501961 0.392157 0.0941176 0.501961 0.392157 
0.0941176 0.501961 0.392157 0.0941176 0.501961 0.392157 
0.0941176 0.501961 0.392157 0.0941176 0.501961 0.392157 
0.0941176 0.501961 0.392157 0.0941176 0.501961 0.392157 
0.0941176 0.501961 0.392157 0.0941176 0.501961 0.392157 
0.0941176 0.501961 0.392157 0.0941176 0.501961 0.392157 
0.0941176 0.501961 0.392157 0.0941176 0.501961 0.392157 
0.0941176 0.501961 0.392157 0.0941176 0.501961 0.392157 
0.0941176 0.501961 0.392157 0.0941176 0.501961 0.392157 
0.0941176 0.501961 0.392157 0.0941176 0.501961 0.392157 
0.0941176 0.501961 0.392157 0.0941176 0.501961 0.392157 
0.0941176 0.501961 0.392157 0.0941176 0.501961 0.392157 
0.0941176 0.501961 0.392157 0.0941176 0.501961 0.392157 
0.0941176 0.501961 0.392157 0.0941176 0.501961 0.392157 
0.0941176 0.501961 0.392157 0.0941176 0.501961 0.392157 
0.0941176 0.501961 0.392157 0.0941176 0.501961 0.392157 
0.0941176 0.501961 0.392157 0.0941176 0.501961 0.392157 
0.0941176 0.501961 0.392157 0.0941176 0.501961 0.392157 
0.0941176 0.501961 0.392157 0.0941176 0.501961 0.392157 
0.0941176 0.501961 0.392157 0.0941176 0.501961 0.392157 
0.0941176 0.501961 0.392157 0.0941176 0.501961 0.392157 
0.0941176 0.501961 0.392157 0.0941176 0.501961 0.392157 
0.0941176 0.501961 0.392157 0.0941176 0.501961 0.392157 
0.0941176 0.501961 0.392157 0.0941176 0.501961 0.392157 
0.0941176 0.501961 0.392157 0.0941176 0.501961 0.392157 
0.0941176 0.501961 0.392157 0.0941176 0.501961 0.392157 
0.0941176 0.501961 0.392157 0.0941176 0.501961 0.392157 
0.0941176 0.501961 0.392157 0.0941176 0.501961 0.392157 
0.0941176 0.501961 0.392157 0.0941176 0.501961 0.392157 
0.0941176 0.501961 0.392157 0.0941176 0.501961 0.392157 
0.0941176 0.501961 0.392157 0.0941176 0.501961 0.392157 
0.0941176 0.501961 0.392157 0.0941176 0.501961 0.392157 
0.0941176 0.501961 0.392157 0.0941176 0.501961 0.392157 
0.0941176 0.501961 0.392157 0.0941176 0.501961 0.392157 
0.0941176 0.501961 0.392157 0.0941176 0.501961 0.392157 
0.0941176 0.501961 0.392157 0.0941176 0.501961 0.392157 
0.0941176 0.501961 0.392157 0.0941176 0.501961 0.392157 
0.0941176 0.501961 0.392157 0.0941176 0.501961 0.392157 
0.0941176 0.501961 0.392157 0.0941176 0.501961 0.392157 
0.0941176 0.501961 0.392157 0.0941176 0.501961 0.392157 
0.0941176 0.501961 0.392157 0.0941176 0.501961 0.392157 
0.0941176 0.501961 0.392157 0.0941176 0.501961 0.392157 
0.0941176 0.501961 0.392157 0.0941176 0.501961 0.392157 
0.0941176 0.501961 0.392157 0.0941176 0.501961 0.392157 
0.0941176 0.501961 0.392157 0.0941176 0.501961 0.392157 
0.0941176 0.501961 0.392157 0.0941176 0.501961 0.392157 
0.0941176 0.501961 0.392157 0.0941176 0.501961 0.392157 
0.0941176 0.501961 0.392157 0.0941176 0.501961 0.392157 
0.0941176 0.501961 0.392157 0.0941176 0.501961 0.392157 
0.0941176 0.501961 0.392157 0.0941176 0.501961 0.392157 
0.0941176 0.501961 0.392157 0.0941176 0.501961 0.392157 
0.0941176 0.501961 0.392157 0.0941176 0.501961 0.392157 
0.0941176 0.501961 0.392157 0.0941176 0.501961 0.392157 
0.0941176 0.501961 0.392157 0.0941176 0.501961 0.392157 
0.0941176 0.501961 0.392157 0.0941176 0.501961 0.392157 
0.0941176 0.501961 0.392157 0.0941176 0.501961 0.392157 
0.0941176 0.501961 0.392157 0.0941176 0.501961 0.392157 
0.0941176 0.501961 0.392157 0.0941176 0.501961 0.392157 
0.0941176 0.501961 0.392157 0.0941176 0.501961 0.392157 
0.0941176 0.501961 0.392157 0.0941176 0.501961 0.392157 
0.0941176 0.501961 0.392157 0.0941176 0.501961 0.392157 
0.0941176 0.501961 0.392157 0.0941176 0.501961 0.392157 
0.0941176 0.501961 0.392157 0.0941176 0.501961 0.392157 
0.0941176 0.501961 0.392157 0.0941176 0.501961 0.392157 
0.0941176 0.501961 0.392157 0.0941176 0.501961 0.392157 
0.0941176 0.501961 0.392157 0.0941176 0.501961 0.392157 
0.0941176 0.501961 0.392157 0.0941176 0.501961 0.392157 
0.0941176 0.501961 0.392157 0.0941176 0.501961 0.392157 
0.0941176 0.501961 0.392157 0.0941176 0.501961 0.392157 
0.0941176 0.501961 0.392157 0.0941176 0.501961 0.392157 
0.0941176 0.501961 0.392157 0.0941176 0.501961 0.392157 
0.0941176 0.501961 0.392157 0.0941176 0.501961 0.392157 
0.0941176 0.501961 0.392157 0.0941176 0.501961 0.392157 
0.0941176 0.501961 0.392157 0.0941176 0.501961 0.392157 
0.0941176 0.501961 0.392157 0.0941176 0.501961 0.392157 
0.0941176 0.501961 0.392157 0.0941176 0.501961 0.392157 
0.0941176 0.501961 0.392157 0.0941176 0.501961 0.392157 
0.0941176 0.501961 0.392157 0.0941176 0.501961 0.392157 
0.0941176 0.501961 0.392157 0.0941176 0.501961 0.392157 
0.0941176 0.501961 0.392157 0.0941176 0.501961 0.392157 
0.0941176 0.501961 0.392157 0.0941176 0.501961 0.392157 
0.0941176 0.501961 0.392157 0.0941176 0.501961 0.392157 
0.0941176 0.501961 0.392157 0.0941176 0.501961 0.392157 
0.0941176 0.501961 0.392157 0.0941176 0.501961 0.392157 
0.0941176 0.501961 0.392157 0.0941176 0.501961 0.392157 
0.0941176 0.501961 0.392157 0.0941176 0.501961 0.392157 
0.0941176 0.501961 0.392157 0.0941176 0.501961 0.392157 
0.0941176 0.501961 0.392157 0.0941176 0.501961 0.392157 
0.0941176 0.501961 0.392157 0.0941176 0.501961 0.392157 
0.0941176 0.501961 0.392157 0.0941176 0.501961 0.392157 
0.0941176 0.501961 0.392157 0.0941176 0.501961 0.392157 
0.0941176 0.501961 0.392157 0.0941176 0.501961 0.392157 
0.0941176 0.501961 0.392157 0.0941176 0.501961 0.392157 
0.0941176 0.501961 0.392157 0.0941176 0.501961 0.392157 
0.0941176 0.501961 0.392157 0.0941176 0.501961 0.392157 
0.0941176 0.501961 0.392157 0.0941176 0.501961 0.392157 
0.0941176 0.501961 0.392157 0.0941176 0.501961 0.392157 
0.0941176 0.501961 0.392157 0.0941176 0.501961 0.392157 
0.0941176 0.501961 0.392157 0.0941176 0.501961 0.392157 
0.0941176 0.501961 0.392157 0.0941176 0.501961 0.392157 
0.0941176 0.501961 0.392157 0.0941176 0.501961 0.392157 
0.0941176 0.501961 0.392157 0.0941176 0.501961 0.392157 
0.0941176 0.501961 0.392157 0.0941176 0.501961 0.392157 
0.0941176 0.501961 0.392157 0.0941176 0.501961 0.392157 
0.0941176 0.501961 0.392157 0.0941176 0.501961 0.392157 
0.0941176 0.501961 0.392157 0.0941176 0.501961 0.392157 
0.0941176 0.501961 0.392157 0.0941176 0.501961 0.392157 
0.0941176 0.501961 0.392157 0.0941176 0.501961 0.392157 
0.0941176 0.501961 0.392157 0.0941176 0.501961 0.392157 
0.0941176 0.501961 0.392157 0.0941176 0.501961 0.392157 
0.0941176 0.501961 0.392157 0.0941176 0.501961 0.392157 
0.0941176 0.501961 0.392157 0.0941176 0.501961 0.392157 
0.0941176 0.501961 0.392157 0.0941176 0.501961 0.392157 
0.0941176 0.501961 0.392157 0.0941176 0.501961 0.392157 
0.0941176 0.501961 0.392157 0.0941176 0.501961 0.392157 
0.0941176 0.501961 0.392157 0.0941176 0.501961 0.392157 
0.0941176 0.501961 0.392157 0.0941176 0.501961 0.392157 
0.0941176 0.501961 0.392157 0.0941176 0.501961 0.392157 
0.0941176 0.501961 0.392157 0.0941176 0.501961 0.392157 
0.0941176 0.501961 0.392157 0.0941176 0.501961 0.392157 
0.0941176 0.501961 0.392157 0.0941176 0.501961 0.392157 
0.0941176 0.501961 0.392157 0.0941176 0.501961 0.392157 
0.0941176 0.501961 0.392157 0.0941176 0.501961 0.392157 
0.0941176 0.501961 0.392157 0.0941176 0.501961 0.392157 
0.0941176 0.501961 0.392157 0.0941176 0.501961 0.392157 
0.0941176 0.501961 0.392157 0.0941176 0.501961 0.392157 
0.0941176 0.501961 0.392157 0.0941176 0.501961 0.392157 
0.0941176 0.501961 0.392157 0.0941176 0.501961 0.392157 
0.0941176 0.501961 0.392157 0.0941176 0.501961 0.392157 
0.0941176 0.501961 0.392157 0.0941176 0.501961 0.392157 
0.0941176 0.501961 0.392157 0.0941176 0.501961 0.392157 
0.0941176 0.501961 0.392157 0.0941176 0.501961 0.392157 
0.0941176 0.501961 0.392157 0.0941176 0.501961 0.392157 
0.0941176 0.501961 0.392157 0.0941176 0.501961 0.392157 
0.0941176 0.501961 0.392157 0.0941176 0.501961 0.392157 
0.0941176 0.501961 0.392157 0.0941176 0.501961 0.392157 
0.0941176 0.501961 0.392157 0.0941176 0.501961 0.392157 
0.0941176 0.501961 0.392157 0.0941176 0.501961 0.392157 
0.0941176 0.501961 0.392157 0.0941176 0.501961 0.392157 
0.0941176 0.501961 0.392157 0.0941176 0.501961 0.392157 
0.0941176 0.501961 0.392157 0.0941176 0.501961 0.392157 
0.0941176 0.501961 0.392157 0.0941176 0.501961 0.392157 
0.0941176 0.501961 0.392157 0.0941176 0.501961 0.392157 
0.0941176 0.501961 0.392157 0.0941176 0.501961 0.392157 
0.0941176 0.501961 0.392157 0.0941176 0.501961 0.392157 
0.0941176 0.501961 0.392157 0.0941176 0.501961 0.392157 
0.0941176 0.501961 0.392157 0.0941176 0.501961 0.392157 
0.0941176 0.501961 0.392157 0.0941176 0.501961 0.392157 
0.0941176 0.501961 0.392157 0.0941176 0.501961 0.392157 
0.0941176 0.501961 0.392157 0.0941176 0.501961 0.392157 
0.0941176 0.501961 0.392157 0.0941176 0.501961 0.392157 
0.0941176 0.501961 0.392157 0.0941176 0.501961 0.392157 
0.0941176 0.501961 0.392157 0.0941176 0.501961 0.392157 
0.0941176 0.501961 0.392157 0.0941176 0.501961 0.392157 
0.0941176 0.501961 0.392157 0.0941176 0.501961 0.392157 
0.0941176 0.501961 0.392157 0.0941176 0.501961 0.392157 
0.0941176 0.501961 0.392157 0.0941176 0.501961 0.392157 
0.0941176 0.501961 0.392157 0.0941176 0.501961 0.392157 
0.0941176 0.501961 0.392157 0.0941176 0.501961 0.392157 
0.0941176 0.501961 0.392157 0.0941176 0.501961 0.392157 
0.0941176 0.501961 0.392157 0.0941176 0.501961 0.392157 
0.0941176 0.501961 0.392157 0.0941176 0.501961 0.392157 
0.0941176 0.501961 0.392157 0.0941176 0.501961 0.392157 
0.0941176 0.501961 0.392157 0.0941176 0.501961 0.392157 
0.0941176 0.501961 0.392157 0.0941176 0.501961 0.392157 
0.0941176 0.501961 0.392157 0.0941176 0.501961 0.392157 
0.0941176 0.501961 0.392157 0.0941176 0.501961 0.392157 
0.0941176 0.501961 0.392157 0.0941176 0.501961 0.392157 
0.0941176 0.501961 0.392157 0.0941176 0.501961 0.392157 
0.0941176 0.501961 0.392157 0.0941176 0.501961 0.392157 
0.0941176 0.501961 0.392157 0.0941176 0.501961 0.392157 
0.0941176 0.501961 0.392157 0.0941176 0.501961 0.392157 
0.0941176 0.501961 0.392157 0.0941176 0.501961 0.392157 
0.0941176 0.501961 0.392157 0.0941176 0.501961 0.392157 
0.0941176 0.501961 0.392157 0.0941176 0.501961 0.392157 
0.0941176 0.501961 0.392157 0.0941176 0.501961 0.392157 
0.0941176 0.501961 0.392157 0.0941176 0.501961 0.392157 
0.0941176 0.501961 0.392157 0.0941176 0.501961 0.392157 
0.0941176 0.501961 0.392157 0.0941176 0.501961 0.392157 
0.0941176 0.501961 0.392157 0.0941176 0.501961 0.392157 
0.0941176 0.501961 0.392157 0.0941176 0.501961 0.392157 
0.0941176 0.501961 0.392157 0.0941176 0.501961 0.392157 
0.0941176 0.501961 0.392157 0.0941176 0.501961 0.392157 
0.0941176 0.501961 0.392157 0.0941176 0.501961 0.392157 
0.0941176 0.501961 0.392157 0.0941176 0.501961 0.392157 
0.0941176 0.501961 0.392157 0.0941176 0.501961 0.392157 
0.0941176 0.501961 0.392157 0.0941176 0.501961 0.392157 
0.0941176 0.501961 0.392157 0.0941176 0.501961 0.392157 
0.0941176 0.501961 0.392157 0.0941176 0.501961 0.392157 
0.0941176 0.501961 0.392157 0.0941176 0.501961 0.392157 
0.0941176 0.501961 0.392157 0.0941176 0.501961 0.392157 
0.0941176 0.501961 0.392157 0.0941176 0.501961 0.392157 
0.0941176 0.501961 0.392157 0.0941176 0.501961 0.392157 
0.0941176 0.501961 0.392157 0.0941176 0.501961 0.392157 
0.0941176 0.501961 0.392157 0.0941176 0.501961 0.392157 
0.0941176 0.501961 0.392157 0.0941176 0.501961 0.392157 
0.0941176 0.501961 0.392157 0.0941176 0.501961 0.392157 
0.0941176 0.501961 0.392157 0.0941176 0.501961 0.392157 
0.0941176 0.501961 0.392157 0.0941176 0.501961 0.392157 
0.0941176 0.501961 0.392157 0.0941176 0.501961 0.392157 
0.0941176 0.501961 0.392157 0.0941176 0.501961 0.392157 
0.0941176 0.501961 0.392157 0.0941176 0.501961 0.392157 
0.0941176 0.501961 0.392157 0.0941176 0.501961 0.392157 
0.0941176 0.501961 0.392157 0.0941176 0.501961 0.392157 
0.0941176 0.501961 0.392157 0.0941176 0.501961 0.392157 
0.0941176 0.501961 0.392157 0.0941176 0.501961 0.392157 
0.0941176 0.501961 0.392157 0.0941176 0.501961 0.392157 
0.0941176 0.501961 0.392157 0.0941176 0.501961 0.392157 
0.0941176 0.501961 0.392157 0.0941176 0.501961 0.392157 
0.0941176 0.501961 0.392157 0.0941176 0.501961 0.392157 
0.0941176 0.501961 0.392157 0.0941176 0.501961 0.392157 
0.0941176 0.501961 0.392157 0.0941176 0.501961 0.392157 
0.0941176 0.501961 0.392157 0.0941176 0.501961 0.392157 
0.0941176 0.501961 0.392157 0.0941176 0.501961 0.392157 
0.0941176 0.501961 0.392157 0.0941176 0.501961 0.392157 
0.0941176 0.501961 0.392157 0.0941176 0.501961 0.392157 
0.0941176 0.501961 0.392157 0.0941176 0.501961 0.392157 
0.0941176 0.501961 0.392157 0.0941176 0.501961 0.392157 
0.0941176 0.501961 0.392157 0.0941176 0.501961 0.392157 
0.0941176 0.501961 0.392157 0.0941176 0.501961 0.392157 
0.0941176 0.501961 0.392157 0.0941176 0.501961 0.392157 
0.0941176 0.501961 0.392157 0.0941176 0.501961 0.392157 
0.0941176 0.501961 0.392157 0.0941176 0.501961 0.392157 
0.0941176 0.501961 0.392157 0.0941176 0.501961 0.392157 
0.0941176 0.501961 0.392157 0.0941176 0.501961 0.392157 
0.0941176 0.501961 0.392157 0.0941176 0.501961 0.392157 
0.0941176 0.501961 0.392157 0.0941176 0.501961 0.392157 
0.0941176 0.501961 0.392157 0.0941176 0.501961 0.392157 
0.0941176 0.501961 0.392157 0.0941176 0.501961 0.392157 
0.0941176 0.501961 0.392157 0.0941176 0.501961 0.392157 
0.0941176 0.501961 0.392157 0.0941176 0.501961 0.392157 
0.0941176 0.501961 0.392157 0.0941176 0.501961 0.392157 
0.0941176 0.501961 0.392157 0.0941176 0.501961 0.392157 
0.0941176 0.501961 0.392157 0.0941176 0.501961 0.392157 
0.0941176 0.501961 0.392157 0.0941176 0.501961 0.392157 
0.0941176 0.501961 0.392157 0.0941176 0.501961 0.392157 
0.0941176 0.501961 0.392157 0.0941176 0.501961 0.392157 
0.0941176 0.501961 0.392157 0.0941176 0.501961 0.392157 
0.0941176 0.501961 0.392157 0.0941176 0.501961 0.392157 
0.0941176 0.501961 0.392157 0.0941176 0.501961 0.392157 
0.0941176 0.501961 0.392157 0.0941176 0.501961 0.392157 
0.0941176 0.501961 0.392157 0.0941176 0.501961 0.392157 
0.0941176 0.501961 0.392157 0.0941176 0.501961 0.392157 
0.0941176 0.501961 0.392157 0.0941176 0.501961 0.392157 
0.0941176 0.501961 0.392157 0.0941176 0.501961 0.392157 
0.0941176 0.501961 0.392157 0.0941176 0.501961 0.392157 
0.0941176 0.501961 0.392157 0.0941176 0.501961 0.392157 
0.0941176 0.501961 0.392157 0.0941176 0.501961 0.392157 
0.0941176 0.501961 0.392157 0.0941176 0.501961 0.392157 
0.0941176 0.501961 0.392157 0.0941176 0.501961 0.392157 
0.0941176 0.501961 0.392157 0.0941176 0.501961 0.392157 
0.0941176 0.501961 0.392157 0.0941176 0.501961 0.392157 
0.0941176 0.501961 0.392157 0.0941176 0.501961 0.392157 
0.0941176 0.501961 0.392157 0.0941176 0.501961 0.392157 
0.0941176 0.501961 0.392157 0.0941176 0.501961 0.392157 
0.0941176 0.501961 0.392157 0.0941176 0.501961 0.392157 
0.0941176 0.501961 0.392157 0.0941176 0.501961 0.392157 
0.0941176 0.501961 0.392157 0.0941176 0.501961 0.392157 
0.0941176 0.501961 0.392157 0.0941176 0.501961 0.392157 
0.0941176 0.501961 0.392157 0.0941176 0.501961 0.392157 
0.0941176 0.501961 0.392157 0.0941176 0.501961 0.392157 
0.0941176 0.501961 0.392157 0.0941176 0.501961 0.392157 
0.0941176 0.501961 0.392157 0.0941176 0.501961 0.392157 
0.0941176 0.501961 0.392157 0.0941176 0.501961 0.392157 
0.0941176 0.501961 0.392157 0.0941176 0.501961 0.392157 