# vtk DataFile Version 4.2
vtk output
ASCII
DATASET POLYDATA
POINTS 2532 float
252.28 112.7 79.4829 252.538 112.472 79.6839 252.84 112.578 79.9167 
250.589 113.209 79.3198 250.396 113.52 79.2647 251.883 112.992 79.35 
251.519 112.711 79.3664 252.746 113.102 79.6674 252.904 112.914 79.839 
250.077 114.001 79.2626 249.941 114.1 79.3415 250.394 113.871 79.2165 
250.18 113.71 79.2918 251.828 113.597 79.3761 252.35 113.657 79.5618 
250.003 114.209 79.3005 249.944 114.271 79.4069 250.656 114.224 79.3202 
250.068 114.387 79.4157 250.37 114.682 79.6321 250.906 112.162 79.8634 
250.914 111.789 80.2543 250.547 112.241 80.2403 251.434 111.867 79.8029 
250.425 112.687 79.8275 250.252 112.69 80.1227 252.991 112.323 80.29 
250.229 113.321 79.5296 250.026 113.383 79.8045 249.956 113.776 79.7813 
252.987 113.733 80.0062 251.298 114.588 79.5656 250.175 114.907 80.1347 
250.349 115.004 79.9358 250.515 115.075 79.9114 251.971 110.446 80.8726 
251.467 110.968 80.8524 251.904 111.07 80.3252 250.505 112.171 80.5956 
250.091 112.962 80.219 240.266 113.22 81.8744 240.165 113.176 81.8519 
240.163 113.269 81.8138 240.362 113.111 82.0946 238.993 113.994 81.5466 
238.925 113.685 81.5551 238.676 113.883 81.5552 240.263 113.349 81.9539 
239.769 113.923 81.7919 253.705 113.844 80.8984 238.263 114.196 81.7464 
238.061 114.308 81.9518 238.352 113.936 81.6572 239.347 114.351 81.6964 
239.567 114.243 81.7343 238.37 114.443 81.8853 238.783 114.545 81.8859 
250.75 115.289 80.1305 251.68 115.183 80.1892 252.032 110.306 81.0048 
252.005 110.247 81.104 252.111 110.286 81.1283 250.861 111.683 81.0682 
252.67 111.01 81.1851 239.478 112.621 82.0059 239.221 112.815 81.8683 
240.299 112.665 82.3475 250.321 112.622 80.9822 253.602 112.39 81.5804 
237.956 113.014 82.0821 238.548 113.165 81.7841 239.104 113.251 81.7006 
239.863 113.354 81.7851 237.395 113.364 82.4173 238.112 113.704 81.7899 
240.162 113.638 81.9916 240.612 113.516 82.4678 237.454 113.919 82.3572 
239.802 114.31 81.9857 249.976 114.712 81.0596 253.247 114.918 80.9305 
239.611 114.673 82.245 250.061 115.099 81.0736 250.24 115.513 81.2056 
250.652 115.823 81.094 250.457 115.8 81.3083 250.78 116.092 81.6545 
252.04 110.244 81.2032 251.936 110.33 81.1901 251.832 110.957 81.6756 
252.522 110.746 81.368 239.878 112.145 82.6413 250.69 112.198 81.4897 
252.765 111.127 81.8681 237.651 112.378 82.8434 237.417 112.644 82.7893 
253.825 112.531 82.2463 237.071 112.828 83.1028 240.949 112.786 82.8939 
240.977 113.127 82.8611 237.003 113.749 83.0563 241.235 113.274 83.3456 
237.292 114.056 82.663 250.205 114.622 81.8645 254.57 115.234 82.8371 
250.477 115.623 82.0367 251.547 116.263 81.547 250.828 116.13 82.1954 
252.069 116.498 82.1147 251.199 116.428 82.2938 248.849 104.342 85.3137 
248.817 104.322 85.2986 248.736 104.37 85.365 248.843 104.275 85.3695 
248.83 104.352 85.4384 251.004 106.009 83.5131 251.004 106.009 83.5131 
251.004 106.009 83.513 251.004 106.009 83.5131 251.004 106.009 83.5131 
252.004 107.013 83.0087 252.004 107.013 83.0087 252.004 107.013 83.0087 
252.004 107.013 83.0088 252.017 110.327 81.3052 252.004 107.013 83.0088 
253.02 111.338 82.4827 253.017 111.356 82.7388 252.819 111.322 82.547 
237.066 111.83 84.0194 237.745 112.011 83.2811 240.556 112.029 83.3576 
251.412 111.778 82.1344 252.373 111.267 82.2736 236.79 112.493 83.7359 
236.594 112.143 84.3519 240.933 112.318 83.3129 241.025 112.572 83.1379 
236.534 112.792 83.9185 236.683 113.21 83.6617 241.503 113.197 83.9635 
237.275 114.552 83.2026 241.35 113.771 83.8317 250.685 114.539 82.6656 
254.759 114.877 83.262 238.145 115.279 83.2971 254.318 115.615 82.7317 
254.702 115.282 83.2724 253.297 116.255 82.4034 251.005 116.198 82.6652 
251.489 116.524 82.2455 253.526 116.343 82.7987 251.67 116.562 82.6937 
248.68 104.259 85.359 248.401 104.208 85.3961 248.762 104.088 85.539 
247.147 104.533 85.6278 248.393 104.408 85.4534 248.872 104.232 85.572 
248.162 104.655 85.7539 248.619 104.472 85.6352 248.822 104.349 85.6653 
251.004 106.009 83.5132 251.004 106.009 83.5132 251.004 106.009 83.5132 
251.004 106.009 83.5132 252.004 107.013 83.0088 253.073 111.425 82.9025 
252.945 111.421 82.8521 253.154 111.54 83.0018 236.841 111.859 84.2562 
252.76 111.682 82.9511 236.419 112.014 84.9973 236.327 112.38 84.7206 
237.086 111.463 84.7211 241.361 112.319 84.1395 253.485 112.124 83.2561 
236.403 112.911 84.1515 241.622 112.742 84.4246 254.324 113.356 83.4558 
254.535 113.832 83.6659 236.357 113.183 84.3461 251.601 113.72 83.3887 
254.72 114.29 83.689 222.546 114.617 86.052 222.748 114.558 86.1722 
222.433 114.734 86.1746 237.63 115.275 84.0168 240.865 115.212 84.3767 
239.111 116.117 84.6933 238.935 116.219 85.1074 239.981 115.946 84.4866 
251.101 116.058 82.9415 254.254 116.132 83.4743 251.247 116.318 82.9238 
251.466 116.25 83.2215 252.74 116.623 82.9187 253.126 116.58 83.1348 
253.52 116.459 83.1437 251.575 116.462 83.0439 248.184 103.67 85.7638 
248.739 103.812 85.9016 245.691 104.106 85.8616 247.721 104.098 85.5331 
248.858 104.059 85.7875 244.007 104.642 86.2556 244.934 104.757 86.0578 
246.475 104.716 85.8355 245.509 105.153 86.1283 247.936 104.916 86.2039 
251.004 106.009 83.5132 245.805 105.64 86.4666 253.025 111.526 82.9966 
253.158 111.759 83.1426 253.658 112.456 83.5767 253.592 112.468 83.6931 
253.491 112.325 83.5746 252.269 112.621 83.3655 253.191 112.198 83.4443 
253.824 113.047 83.8804 222.83 113.064 86.3222 236.088 112.913 85.4215 
252.659 112.949 83.7122 252.439 113.46 83.8013 221.482 114.265 86.2361 
254.81 114.695 83.9144 222.389 115.007 86.4137 223.086 114.6 86.472 
241.278 115.07 84.8381 254.817 115.545 84.3952 238.391 116.195 85.9656 
251.842 116.13 83.6005 254.462 116.123 84.0255 254.812 115.954 84.4106 
254.793 116.138 84.459 254.934 116.136 84.6024 239.574 116.417 85.9238 
251.827 116.404 83.3845 252.269 116.211 83.8717 252.54 116.339 83.914 
254.228 116.234 84.2484 254.625 116.133 84.4783 254.894 116.172 84.6156 
252.666 116.479 83.721 248.327 103.171 86.3385 248.287 102.985 86.5078 
248.363 103.007 86.6528 245.223 102.923 86.4379 248.679 103.581 86.1144 
248.761 103.647 86.2417 248.84 103.926 86.2191 246.863 105.474 86.5002 
248.601 104.531 86.5151 244.025 106.565 87.0053 245.503 106.192 86.9893 
246.899 105.663 86.9035 239.95 110.721 85.3171 241.209 111.442 85.0886 
241.562 111.217 85.7881 253.47 112.536 83.731 222.452 111.991 86.7312 
222.114 112.353 86.525 223.464 112.389 86.8874 220.625 113.038 86.5089 
223.815 113.241 86.8522 235.999 112.085 86.4879 224.051 113.258 87.2661 
242.418 113.282 86.2206 253.975 114.132 84.4788 254.681 114.526 84.3981 
223.815 113.981 87.0053 236.508 114.62 86.3468 253.961 114.888 84.6705 
254.239 114.741 84.7321 254.791 114.783 84.2964 254.806 115.161 84.4887 
221.062 115.162 86.8951 222.98 114.916 86.6733 237.234 115.505 86.507 
242.254 114.59 86.9287 253.22 115.498 84.4192 254.336 115.011 84.775 
254.527 115.169 84.7776 254.764 115.44 84.6284 241.355 115.539 86.0117 
252.622 116.097 84.0804 254.677 115.839 84.6296 254.978 116.165 84.6905 
246.658 101.744 87.3806 247.177 101.518 87.9553 248.487 103.069 87.1374 
241.189 104.218 87.3819 248.097 104.994 87.1885 244.389 107.521 87.9226 
222.296 110.233 87.6176 222.723 110.133 87.8075 241.324 110.141 86.4725 
223.51 110.937 87.8263 236.551 110.897 87.1077 223.805 112.425 87.1412 
224.043 112.228 87.593 236.08 111.578 87.1534 217.429 113.143 88.2022 
236.005 113.39 86.5426 254.271 114.447 84.62 217.743 113.388 87.9644 
218.365 114.134 87.8507 254.497 114.839 84.7159 220.44 115.358 87.4467 
236.76 115.026 86.87 254.688 115.153 84.6921 220.989 115.974 88.2799 
241.128 115.831 86.3067 254.981 116.144 84.7191 221.545 115.976 88.123 
222.482 115.801 87.8881 239.232 116.545 87.1398 239.816 116.559 87.3543 
247.947 101.928 88.4573 248.759 103.996 87.5303 248.678 104.356 87.4577 
240.826 107.353 87.5142 241.699 106.71 87.3317 245.662 106.73 87.8619 
241.653 108.08 87.3519 242.674 107.639 87.4317 243.587 108.251 87.9399 
241.359 109.442 86.9569 240.464 108.974 87.1304 242.591 108.998 87.5614 
239.04 109.55 86.9538 242.364 110.33 87.198 242.627 111.391 87.1502 
224.044 111.503 88.0437 235.918 111.908 87.7207 216.956 112.534 88.5414 
216.79 112.396 88.758 216.789 112.553 88.6599 242.943 112.731 88.0174 
216.839 112.653 88.6481 217.038 112.891 88.6981 217.982 114.018 88.1759 
217.793 114.072 88.6824 224.146 114.042 88.4799 236.346 114.372 88.3021 
236.7 114.951 87.8183 242.131 115.063 87.7009 242.39 114.676 88.1052 
220.851 116.054 88.6763 239.391 116.561 87.8895 239.759 116.68 87.8183 
239.773 116.658 88.0508 239.944 116.649 87.846 240.3 116.409 88.0262 
239.862 116.705 87.9498 245.987 99.7143 89.6919 246.535 99.9361 89.8248 
247.791 101.462 89.2959 237.369 102.199 89.7586 248.369 102.513 88.9325 
236.933 102.514 89.9418 248.678 103.589 88.1182 238.996 105.254 88.4418 
237.908 105.829 89.2703 238.628 107.455 88.4485 240.011 107.649 87.7066 
245.138 107.88 89.2279 223.958 109.13 89.3262 239.292 108.758 87.5151 
237.031 109.532 88.5206 216.617 110.383 89.8156 243.251 111.196 88.4374 
217.06 111.344 88.9366 224.53 111.836 89.1093 216.783 112.548 88.7804 
216.471 111.654 89.6238 216.717 112.151 89.2365 224.307 113.558 89.1186 
237.17 115.267 89.2662 219.268 115.407 89.1682 220.574 116.005 88.9177 
220.584 115.967 89.2573 238.15 115.979 89.2687 221.297 116.06 89.1528 
222.387 115.836 88.8646 239.884 116.452 88.5067 239.958 116.624 88.0784 
240.363 116.276 88.6691 247.021 100.272 89.98 235.399 101.954 90.9383 
231.17 102.942 91.8224 231.26 102.799 91.7989 231.483 102.966 91.8834 
235.721 103.162 90.9013 248.422 103.077 89.731 248.271 104.073 89.8704 
223.201 106.98 90.1304 223.641 106.817 90.4928 237.302 106.874 89.8995 
223.972 107.551 90.2536 237.201 107.662 89.78 246.238 106.797 89.7949 
218.561 108.298 89.8959 236.845 108.691 89.707 216.63 109.739 90.3438 
224.659 109.917 89.8621 216.328 110.848 90.2521 224.689 110.556 89.7109 
236.133 110.215 89.9105 216.296 111.334 90.2815 217.137 113.479 89.6019 
[...]
POINT_DATA 2532
COLOR_SCALARS scalars 3
0.0941176 0.501961 0.392157 0.0941176 0.501961 0.392157 0.0941176 0.501961 0.392157 
0.0941176 0.501961 0.392157 0.0941176 0.501961 0.392157 
0.0941176 0.501961 0.392157 0.0941176 0.501961 0.392157 
0.0941176 0.501961 0.392157 0.0941176 0.501961 0.392157 
0.0941176 0.501961 0.392157 0.0941176 0.501961 0.392157 
0.0941176 0.501961 0.392157 0.0941176 0.501961 0.392157 
0.0941176 0.501961 0.392157 0.0941176 0.501961 0.392157 
0.0941176 0.501961 0.392157 0.0941176 0.501961 0.392157 
0.0941176 0.501961 0.392157 0.0941176 0.501961 0.392157 
0.0941176 0.501961 0.392157 0.0941176 0.501961 0.392157 
0.0941176 0.501961 0.392157 0.0941176 0.501961 0.392157 
0.0941176 0.501961 0.392157 0.0941176 0.501961 0.392157 
0.0941176 0.501961 0.392157 0.0941176 0.501961 0.392157 
0.0941176 0.501961 0.392157 0.0941176 0.501961 0.392157 
0.0941176 0.501961 0.392157 0.0941176 0.501961 0.392157 
0.0941176 0.501961 0.392157 0.0941176 0.501961 0.392157 
0.0941176 0.501961 0.392157 0.0941176 0.501961 0.392157 
0.0941176 0.501961 0.392157 0.0941176 0.501961 0.392157 
0.0941176 0.501961 0.392157 0.0941176 0.501961 0.392157 
0.0941176 0.501961 0.392157 0.0941176 0.501961 0.392157 
0.0941176 0.501961 0.392157 0.0941176 0.501961 0.392157 
0.0941176 0.501961 0.392157 0.0941176 0.501961 0.392157 
0.0941176 0.501961 0.392157 0.0941176 0.501961 0.392157 
0.0941176 0.501961 0.392157 0.0941176 0.501961 0.392157 
0.0941176 0.501961 0.392157 0.0941176 0.501961 0.392157 
0.0941176 0.501961 0.392157 0.0941176 0.501961 0.392157 
0.0941176 0.501961 0.392157 0.0941176 0.501961 0.392157 
0.0941176 0.501961 0.392157 0.0941176 0.501961 0.392157 
0.0941176 0.501961 0.392157 0.0941176 0.501961 0.392157 
0.0941176 0.501961 0.392157 0.0941176 0.501961 0.392157 
0.0941176 0.501961 0.392157 0.0941176 0.501961 0.392157 
0.0941176 0.501961 0.392157 0.0941176 0.501961 0.392157 
0.0941176 0.501961 0.392157 0.0941176 0.501961 0.392157 
0.0941176 0.501961 0.392157 0.0941176 0.501961 0.392157 
0.0941176 0.501961 0.392157 0.0941176 0.501961 0.392157 
0.0941176 0.501961 0.392157 0.0941176 0.501961 0.392157 
0.0941176 0.501961 0.392157 0.0941176 0.501961 0.392157 
0.0941176 0.501961 0.392157 0.0941176 0.501961 0.392157 
0.0941176 0.501961 0.392157 0.0941176 0.501961 0.392157 
0.0941176 0.501961 0.392157 0.0941176 0.501961 0.392157 
0.0941176 0.501961 0.392157 0.0941176 0.501961 0.392157 
0.0941176 0.501961 0.392157 0.0941176 0.501961 0.392157 
0.0941176 0.501961 0.392157 0.0941176 0.501961 0.392157 
0.0941176 0.501961 0.392157 0.0941176 0.501961 0.392157 
0.0941176 0.501961 0.392157 0.0941176 0.501961 0.392157 
0.0941176 0.501961 0.392157 0.0941176 0.501961 0.392157 
0.0941176 0.501961 0.392157 0.0941176 0.501961 0.392157 
0.0941176 0.501961 0.392157 0.0941176 0.501961 0.392157 
0.0941176 0.501961 0.392157 0.0941176 0.501961 0.392157 
0.0941176 0.501961 0.392157 0.0941176 0.501961 0.392157 
0.0941176 0.501961 0.392157 0.0941176 0.501961 0.392157 
0.0941176 0.501961 0.392157 0.0941176 0.501961 0.392157 
0.0941176 0.501961 0.392157 0.0941176 0.501961 0.392157 
0.0941176 0.501961 0.392157 0.0941176 0.501961 0.392157 
0.0941176 0.501961 0.392157 0.0941176 0.501961 0.392157 
0.0941176 0.501961 0.392157 0.0941176 0.501961 0.392157 
0.0941176 0.501961 0.392157 0.0941176 0.501961 0.392157 
0.0941176 0.501961 0.392157 0.0941176 0.501961 0.392157 
0.0941176 0.501961 0.392157 0.0941176 0.501961 0.392157 
0.0941176 0.501961 0.392157 0.0941176 0.501961 0.392157 
0.0941176 0.501961 0.392157 0.0941176 0.501961 0.392157 
0.0941176 0.501961 0.392157 0.0941176 0.501961 0.392157 
0.0941176 0.501961 0.392157 0.0941176 0.501961 0.392157 
0.0941176 0.501961 0.392157 0.0941176 0.501961 0.392157 
0.0941176 0.501961 0.392157 0.0941176 0.501961 0.392157 
0.0941176 0.501961 0.392157 0.0941176 0.501961 0.392157 
0.0941176 0.501961 0.392157 0.0941176 0.501961 0.392157 
0.0941176 0.501961 0.392157 0.0941176 0.501961 0.392157 
0.0941176 0.501961 0.392157 0.0941176 0.501961 0.392157 
0.0941176 0.501961 0.392157 0.0941176 0.501961 0.392157 
0.0941176 0.501961 0.392157 0.0941176 0.501961 0.392157 
0.0941176 0.501961 0.392157 0.0941176 0.501961 0.392157 
0.0941176 0.501961 0.392157 0.0941176 0.501961 0.392157 
0.0941176 0.501961 0.392157 0.0941176 0.501961 0.392157 
0.0941176 0.501961 0.392157 0.0941176 0.501961 0.392157 
0.0941176 0.501961 0.392157 0.0941176 0.501961 0.392157 
0.0941176 0.501961 0.392157 0.0941176 0.501961 0.392157 
0.0941176 0.501961 0.392157 0.0941176 0.501961 0.392157 
0.0941176 0.501961 0.392157 0.0941176 0.501961 0.392157 
0.0941176 0.501961 0.392157 0.0941176 0.501961 0.392157 
0.0941176 0.501961 0.392157 0.0941176 0.501961 0.392157 
0.0941176 0.501961 0.392157 0.0941176 0.501961 0.392157 
0.0941176 0.501961 0.392157 0.0941176 0.501961 0.392157 
0.0941176 0.501961 0.392157 0.0941176 0.501961 0.392157 
0.0941176 0.501961 0.392157 0.0941176 0.501961 0.392157 
0.0941176 0.501961 0.392157 0.0941176 0.501961 0.392157 
0.0941176 0.501961 0.392157 0.0941176 0.501961 0.392157 
0.0941176 0.501961 0.392157 0.0941176 0.501961 0.392157 
0.0941176 0.501961 0.392157 0.0941176 0.501961 0.392157 
0.0941176 0.501961 0.392157 0.0941176 0.501961 0.392157 
0.0941176 0.501961 0.392157 0.0941176 0.501961 0.392157 
0.0941176 0.501961 0.392157 0.0941176 0.501961 0.392157 
0.0941176 0.501961 0.392157 0.0941176 0.501961 0.392157 
0.0941176 0.501961 0.392157 0.0941176 0.501961 0.392157 
0.0941176 0.501961 0.392157 0.0941176 0.501961 0.392157 
0.0941176 0.501961 0.392157 0.0941176 0.501961 0.392157 
0.0941176 0.501961 0.392157 0.0941176 0.501961 0.392157 
0.0941176 0.501961 0.392157 0.0941176 0.501961 0.392157 
0.0941176 0.501961 0.392157 0.0941176 0.501961 0.392157 
0.0941176 0.501961 0.392157 0.0941176 0.501961 0.392157 
0.0941176 0.501961 0.392157 0.0941176 0.501961 0.392157 
0.0941176 0.501961 0.392157 0.0941176 0.501961 0.392157 
0.0941176 0.501961 0.392157 0.0941176 0.501961 0.392157 
0.0941176 0.501961 0.392157 0.0941176 0.501961 0.392157 
0.0941176 0.501961 0.392157 0.0941176 0.501961 0.392157 
0.0941176 0.501961 0.392157 0.0941176 0.501961 0.392157 
0.0941176 0.501961 0.392157 0.0941176 0.501961 0.392157 
0.0941176 0.501961 0.392157 0.0941176 0.501961 0.392157 
0.0941176 0.501961 0.392157 0.0941176 0.501961 0.392157 
0.0941176 0.501961 0.392157 0.0941176 0.501961 0.392157 
0.0941176 0.501961 0.392157 0.0941176 0.501961 0.392157 
0.0941176 0.501961 0.392157 0.0941176 0.501961 0.392157 
0.0941176 0.501961 0.392157 0.0941176 0.501961 0.392157 
0.0941176 0.501961 0.392157 0.0941176 0.501961 0.392157 
0.0941176 0.501961 0.392157 0.0941176 0.501961 0.392157 
0.0941176 0.501961 0.392157 0.0941176 0.501961 0.392157 
0.0941176 0.501961 0.392157 0.0941176 0.501961 0.392157 
0.0941176 0.501961 0.392157 0.0941176 0.501961 0.392157 
0.0941176 0.501961 0.392157 0.0941176 0.501961 0.392157 
0.0941176 0.501961 0.392157 0.0941176 0.501961 0.392157 
0.0941176 0.501961 0.392157 0.0941176 0.501961 0.392157 
0.0941176 0.501961 0.392157 0.0941176 0.501961 0.392157 
0.0941176 0.501961 0.392157 0.0941176 0.501961 0.392157 
0.0941176 0.501961 0.392157 0.0941176 0.501961 0.392157 
0.0941176 0.501961 0.392157 0.0941176 0.501961 0.392157 
0.0941176 0.501961 0.392157 0.0941176 0.501961 0.392157 
0.0941176 0.501961 0.392157 0.0941176 0.501961 0.392157 
0.0941176 0.501961 0.392157 0.0941176 0.501961 0.392157 
0.0941176 0.501961 0.392157 0.0941176 0.501961 0.392157 
0.0941176 0.501961 0.392157 0.0941176 0.501961 0.392157 
0.0941176 0.501961 0.392157 0.0941176 0.501961 0.392157 
0.0941176 0.501961 0.392157 0.0941176 0.501961 0.392157 
0.0941176 0.501961 0.392157 0.0941176 0.501961 0.392157 
0.0941176 0.501961 0.392157 0.0941176 0.501961 0.392157 
0.0941176 0.501961 0.392157 0.0941176 0.501961 0.392157 
0.0941176 0.501961 0.392157 0.0941176 0.501961 0.392157 
0.0941176 0.501961 0.392157 0.0941176 0.501961 0.392157 
0.0941176 0.501961 0.392157 0.0941176 0.501961 0.392157 
0.0941176 0.501961 0.392157 0.0941176 0.501961 0.392157 
0.0941176 0.501961 0.392157 0.0941176 0.501961 0.392157 
0.0941176 0.501961 0.392157 0.0941176 0.501961 0.392157 
0.0941176 0.501961 0.392157 0.0941176 0.501961 0.392157 
0.0941176 0.501961 0.392157 0.0941176 0.501961 0.392157 
0.0941176 0.501961 0.392157 0.0941176 0.501961 0.392157 
0.0941176 0.501961 0.392157 0.0941176 0.501961 0.392157 
0.0941176 0.501961 0.392157 0.0941176 0.501961 0.392157 
0.0941176 0.501961 0.392157 0.0941176 0.501961 0.392157 
0.0941176 0.501961 0.392157 0.0941176 0.501961 0.392157 
0.0941176 0.501961 0.392157 0.0941176 0.501961 0.392157 
0.0941176 0.501961 0.392157 0.0941176 0.501961 0.392157 
0.0941176 0.501961 0.392157 0.0941176 0.501961 0.392157 
0.0941176 0.501961 0.392157 0.0941176 0.501961 0.392157 
0.0941176 0.501961 0.392157 0.0941176 0.501961 0.392157 
0.0941176 0.501961 0.392157 0.0941176 0.501961 0.392157 
0.0941176 0.501961 0.392157 0.0941176 0.501961 0.392157 
0.0941176 0.501961 0.392157 0.0941176 0.501961 0.392157 
0.0941176 0.501961 0.392157 0.0941176 0.501961 0.392157 
0.0941176 0.501961 0.392157 0.0941176 0.501961 0.392157 
0.0941176 0.501961 0.392157 0.0941176 0.501961 0.392157 
0.0941176 0.501961 0.392157 0.0941176 0.501961 0.392157 
0.0941176 0.501961 0.392157 0.0941176 0.501961 0.392157 
0.0941176 0.501961 0.392157 0.0941176 0.501961 0.392157 
0.0941176 0.501961 0.392157 0.0941176 0.501961 0.392157 
0.0941176 0.501961 0.392157 0.0941176 0.501961 0.392157 
0.0941176 0.501961 0.392157 0.0941176 0.501961 0.392157 
0.0941176 0.501961 0.392157 0.0941176 0.501961 0.392157 
0.0941176 0.501961 0.392157 0.0941176 0.501961 0.392157 
0.0941176 0.501961 0.392157 0.0941176 0.501961 0.392157 
0.0941176 0.501961 0.392157 0.0941176 0.501961 0.392157 
0.0941176 0.501961 0.392157 0.0941176 0.501961 0.392157 
0.0941176 0.501961 0.392157 0.0941176 0.501961 0.392157 
0.0941176 0.501961 0.392157 0.0941176 0.501961 0.392157 
0.0941176 0.501961 0.392157 0.0941176 0.501961 0.392157 
0.0941176 0.501961 0.392157 0.0941176 0.501961 0.392157 
0.0941176 0.501961 0.392157 0.0941176 0.501961 0.392157 
0.0941176 0.501961 0.392157 0.0941176 0.501961 0.392157 
0.0941176 0.501961 0.392157 0.0941176 0.501961 0.392157 
0.0941176 0.501961 0.392157 0.0941176 0.501961 0.392157 
0.0941176 0.501961 0.392157 0.0941176 0.501961 0.392157 
0.0941176 0.501961 0.392157 0.0941176 0.501961 0.392157 
0.0941176 0.501961 0.392157 0.0941176 0.501961 0.392157 
0.0941176 0.501961 0.392157 0.0941176 0.501961 0.392157 
0.0941176 0.501961 0.392157 0.0941176 0.501961 0.392157 
0.0941176 0.501961 0.392157 0.0941176 0.501961 0.392157 
0.0941176 0.501961 0.392157 0.0941176 0.501961 0.392157 
0.0941176 0.501961 0.392157 0.0941176 0.501961 0.392157 
0.0941176 0.501961 0.392157 0.0941176 0.501961 0.392157 
0.0941176 0.501961 0.392157 0.0941176 0.501961 0.392157 
0.0941176 0.501961 0.392157 0.0941176 0.501961 0.392157 
0.0941176 0.501961 0.392157 0.0941176 0.501961 0.392157 
0.0941176 0.501961 0.392157 0.0941176 0.501961 0.392157 
0.0941176 0.501961 0.392157 0.0941176 0.501961 0.392157 
0.0941176 0.501961 0.392157 0.0941176 0.501961 0.392157 
0.0941176 0.501961 0.392157 0.0941176 0.501961 0.392157 
0.0941176 0.501961 0.392157 0.0941176 0.501961 0.392157 
0.0941176 0.501961 0.392157 0.0941176 0.501961 0.392157 
0.0941176 0.501961 0.392157 0.0941176 0.501961 0.392157 
0.0941176 0.501961 0.392157 0.0941176 0.501961 0.392157 
0.0941176 0.501961 0.392157 0.0941176 0.501961 0.392157 
0.0941176 0.501961 0.392157 0.0941176 0.501961 0.392157 
0.0941176 0.501961 0.392157 0.0941176 0.501961 0.392157 
0.0941176 0.501961 0.392157 0.0941176 0.501961 0.392157 
0.0941176 0.501961 0.392157 0.0941176 0.501961 0.392157 
0.0941176 0.501961 0.392157 0.0941176 0.501961 0.392157 
0.0941176 0.501961 0.392157 0.0941176 0.501961 0.392157 
0.0941176 0.501961 0.392157 0.0941176 0.501961 0.392157 
0.0941176 0.501961 0.392157 0.0941176 0.501961 0.392157 
0.0941176 0.501961 0.392157 0.0941176 0.501961 0.392157 
0.0941176 0.501961 0.392157 0.0941176 0.501961 0.392157 
0.0941176 0.501961 0.392157 0.0941176 0.501961 0.392157 
0.0941176 0.501961 0.392157 0.0941176 0.501961 0.392157 
0.0941176 0.501961 0.392157 0.0941176 0.501961 0.392157 
0.0941176 0.501961 0.392157 0.0941176 0.501961 0.392157 
0.0941176 0.501961 0.392157 0.0941176 0.501961 0.392157 
0.0941176 0.501961 0.392157 0.0941176 0.501961 0.392157 
0.0941176 0.501961 0.392157 0.0941176 0.501961 0.392157 
0.0941176 0.501961 0.392157 0.0941176 0.501961 0.392157 
0.0941176 0.501961 0.392157 0.0941176 0.501961 0.392157 
0.0941176 0.501961 0.392157 0.0941176 0.501961 0.392157 
0.0941176 0.501961 0.392157 0.0941176 0.501961 0.392157 
0.0941176 0.501961 0.392157 0.0941176 0.501961 0.392157 
0.0941176 0.501961 0.392157 0.0941176 0.501961 0.392157 
0.0941176 0.501961 0.392157 0.0941176 0.501961 0.392157 
0.0941176 0.501961 0.392157 0.0941176 0.501961 0.392157 
0.0941176 0.501961 0.392157 0.0941176 0.501961 0.392157 
0.0941176 0.501961 0.392157 0.0941176 0.501961 0.392157 
0.0941176 0.501961 0.392157 0.0941176 0.501961 0.392157 
0.0941176 0.501961 0.392157 0.0941176 0.501961 0.392157 
0.0941176 0.501961 0.392157 0.0941176 0.501961 0.392157 
0.0941176 0.501961 0.392157 0.0941176 0.501961 0.392157 
0.0941176 0.501961 0.392157 0.0941176 0.501961 0.392157 
0.0941176 0.501961 0.392157 0.0941176 0.501961 0.392157 
0.0941176 0.501961 0.392157 0.0941176 0.501961 0.392157 
0.0941176 0.501961 0.392157 0.0941176 0.501961 0.392157 
0.0941176 0.501961 0.392157 0.0941176 0.501961 0.392157 
0.0941176 0.501961 0.392157 0.0941176 0.501961 0.392157 
0.0941176 0.501961 0.392157 0.0941176 0.501961 0.392157 
0.0941176 0.501961 0.392157 0.0941176 0.501961 0.392157 
0.0941176 0.501961 0.392157 0.0941176 0.501961 0.392157 
0.0941176 0.501961 0.392157 0.0941176 0.501961 0.392157 
0.0941176 0.501961 0.392157 0.0941176 0.501961 0.392157 
0.0941176 0.501961 0.392157 0.0941176 0.501961 0.392157 
0.0941176 0.501961 0.392157 0.0941176 0.501961 0.392157 
0.0941176 0.501961 0.392157 0.0941176 0.501961 0.392157 
0.0941176 0.501961 0.392157 0.0941176 0.501961 0.392157 
0.0941176 0.501961 0.392157 0.0941176 0.501961 0.392157 
0.0941176 0.501961 0.392157 0.0941176 0.501961 0.392157 
0.0941176 0.501961 0.392157 0.0941176 0.501961 0.392157 
0.0941176 0.501961 0.392157 0.0941176 0.501961 0.392157 
0.0941176 0.501961 0.392157 0.0941176 0.501961 0.392157 
0.0941176 0.501961 0.392157 0.0941176 0.501961 0.392157 
0.0941176 0.501961 0.392157 0.0941176 0.501961 0.392157 
0.0941176 0.501961 0.392157 0.0941176 0.501961 0.392157 
0.0941176 0.501961 0.392157 0.0941176 0.501961 0.392157 
0.0941176 0.501961 0.392157 0.0941176 0.501961 0.392157 
0.0941176 0.501961 0.392157 0.0941176 0.501961 0.392157 
0.0941176 0.501961 0.392157 0.0941176 0.501961 0.392157 
0.0941176 0.501961 0.392157 0.0941176 0.501961 0.392157 
0.0941176 0.501961 0.392157 0.0941176 0.501961 0.392157 
0.0941176 0.501961 0.392157 0.0941176 0.501961 0.392157 
0.0941176 0.501961 0.392157 0.0941176 0.501961 0.392157 
0.0941176 0.501961 0.392157 0.0941176 0.501961 0.392157 
0.0941176 0.501961 0.392157 0.0941176 0.501961 0.392157 
0.0941176 0.501961 0.392157 0.0941176 0.501961 0.392157 
0.0941176 0.501961 0.392157 0.0941176 0.501961 0.392157 
0.0941176 0.501961 0.392157 0.0941176 0.501961 0.392157 
0.0941176 0.501961 0.392157 0.0941176 0.501961 0.392157 
0.0941176 0.501961 0.392157 0.0941176 0.501961 0.392157 
0.0941176 0.501961 0.392157 0.0941176 0.501961 0.392157 
0.0941176 0.501961 0.392157 0.0941176 0.501961 0.392157 
0.0941176 0.501961 0.392157 0.0941176 0.501961 0.392157 
0.0941176 0.501961 0.392157 0.0941176 0.501961 0.392157 
0.0941176 0.501961 0.392157 0.0941176 0.501961 0.392157 
0.0941176 0.501961 0.392157 0.0941176 0.501961 0.392157 
0.0941176 0.501961 0.392157 0.0941176 0.501961 0.392157 
0.0941176 0.501961 0.392157 0.0941176 0.501961 0.392157 
0.0941176 0.501961 0.392157 0.0941176 0.501961 0.392157 
0.0941176 0.501961 0.392157 0.0941176 0.501961 0.392157 
0.0941176 0.501961 0.392157 0.0941176 0.501961 0.392157 
0.0941176 0.501961 0.392157 0.0941176 0.501961 0.392157 
0.0941176 0.501961 0.392157 0.0941176 0.501961 0.392157 
0.0941176 0.501961 0.392157 0.0941176 0.501961 0.392157 
0.0941176 0.501961 0.392157 0.0941176 0.501961 0.392157 
0.0941176 0.501961 0.392157 0.0941176 0.501961 0.392157 
0.0941176 0.501961 0.392157 0.0941176 0.501961 0.392157 
0.0941176 0.501961 0.392157 0.0941176 0.501961 0.392157 
0.0941176 0.501961 0.392157 0.0941176 0.501961 0.392157 
0.0941176 0.501961 0.392157 0.0941176 0.501961 0.392157 
0.0941176 0.501961 0.392157 0.0941176 0.501961 0.392157 
0.0941176 0.501961 0.392157 0.0941176 0.501961 0.392157 
0.0941176 0.501961 0.392157 0.0941176 0.501961 0.392157 
0.0941176 0.501961 0.392157 0.0941176 0.501961 0.392157 
0.0941176 0.501961 0.392157 0.0941176 0.501961 0.392157 
0.0941176 0.501961 0.392157 0.0941176 0.501961 0.392157 
0.0941176 0.501961 0.392157 0.0941176 0.501961 0.392157 
0.0941176 0.501961 0.392157 0.0941176 0.501961 0.392157 
0.0941176 0.501961 0.392157 0.0941176 0.501961 0.392157 
0.0941176 0.501961 0.392157 0.0941176 0.501961 0.392157 
0.0941176 0.501961 0.392157 0.0941176 0.501961 0.392157 
0.0941176 0.501961 0.392157 0.0941176 0.501961 0.392157 
0.0941176 0.501961 0.392157 0.0941176 0.501961 0.392157 
0.0941176 0.501961 0.392157 0.0941176 0.501961 0.392157 
0.0941176 0.501961 0.392157 0.0941176 0.501961 0.392157 
0.0941176 0.501961 0.392157 0.0941176 0.501961 0.392157 
0.0941176 0.501961 0.392157 0.0941176 0.501961 0.392157 
0.0941176 0.501961 0.392157 0.0941176 0.501961 0.392157 
0.0941176 0.501961 0.392157 0.0941176 0.501961 0.392157 
0.0941176 0.501961 0.392157 0.0941176 0.501961 0.392157 
0.0941176 0.501961 0.392157 0.0941176 0.501961 0.392157 
0.0941176 0.501961 0.392157 0.0941176 0.501961 0.392157 
0.0941176 0.501961 0.392157 0.0941176 0.501961 0.392157 
0.0941176 0.501961 0.392157 0.0941176 0.501961 0.392157 
0.0941176 0.501961 0.392157 0.0941176 0.501961 0.392157 
0.0941176 0.501961 0.392157 0.0941176 0.501961 0.392157 
0.0941176 0.501961 0.392157 0.0941176 0.501961 0.392157 
0.0941176 0.501961 0.392157 0.0941176 0.501961 0.392157 
0.0941176 0.501961 0.392157 0.0941176 0.501961 0.392157 
0.0941176 0.501961 0.392157 0.0941176 0.501961 0.392157 
0.0941176 0.501961 0.392157 0.0941176 0.501961 0.392157 
0.0941176 0.501961 0.392157 0.0941176 0.501961 0.392157 
0.0941176 0.501961 0.392157 0.0941176 0.501961 0.392157 
0.0941176 0.501961 0.392157 0.0941176 0.501961 0.392157 
0.0941176 0.501961 0.392157 0.0941176 0.501961 0.392157 
0.0941176 0.501961 0.392157 0.0941176 0.501961 0.392157 
0.0941176 0.501961 0.392157 0.0941176 0.501961 0.392157 
0.0941176 0.501961 0.392157 0.0941176 0.501961 0.392157 
0.0941176 0.501961 0.392157 0.0941176 0.501961 0.392157 
0.0941176 0.501961 0.392157 0.0941176 0.501961 0.392157 
0.0941176 0.501961 0.392157 0.0941176 0.501961 0.392157 
0.0941176 0.501961 0.392157 0.0941176 0.501961 0.392157 
0.0941176 0.501961 0.392157 0.0941176 0.501961 0.392157 
0.0941176 0.501961 0.392157 0.0941176 0.501961 0.392157 
0.0941176 0.501961 0.392157 0.0941176 0.501961 0.392157 
0.0941176 0.501961 0.392157 0.0941176 0.501961 0.392157 
0.0941176 0.501961 0.392157 0.0941176 0.501961 0.392157 
0.0941176 0.501961 0.392157 0.0941176 0.501961 0.392157 
0.0941176 0.501961 0.392157 0.0941176 0.501961 0.392157 
0.0941176 0.501961 0.392157 0.0941176 0.501961 0.392157 
0.0941176 0.501961 0.392157 0.0941176 0.501961 0.392157 
0.0941176 0.501961 0.392157 0.0941176 0.501961 0.392157 
0.0941176 0.501961 0.392157 0.0941176 0.501961 0.392157 
0.0941176 0.501961 0.392157 0.0941176 0.501961 0.392157 
0.0941176 0.501961 0.392157 0.0941176 0.501961 0.392157 
0.0941176 0.501961 0.392157 0.0941176 0.501961 0.392157 
0.0941176 0.501961 0.392157 0.0941176 0.501961 0.392157 
0.0941176 0.501961 0.392157 0.0941176 0.501961 0.392157 
0.0941176 0.501961 0.392157 0.0941176 0.501961 0.392157 
0.0941176 0.501961 0.392157 0.0941176 0.501961 0.392157 
0.0941176 0.501961 0.392157 0.0941176 0.501961 0.392157 