# vtk DataFile Version 4.2
vtk output
ASCII
DATASET POLYDATA
POINTS 482 float
266.851 78.7622 106.03 266.85 78.6696 106.037 266.66 78.7848 106.093 
267.019 78.6818 106.071 265.383 79.4262 106.212 265.368 79.3336 106.208 
265.189 79.426 106.301 265.6 79.3603 106.233 266.875 78.8838 106.119 
265.422 79.5332 106.317 274 75.0087 105.017 274 75.0087 105.017 
274 75.0088 105.017 274 75.0088 105.017 274 75.0088 105.017 
268.979 77.1248 106.604 266.867 78.4248 106.147 266.26 78.3244 106.232 
267.429 78.23 106.232 265.344 79.0751 106.294 264.567 79.0655 106.453 
266.175 78.7113 106.197 267.453 78.5231 106.211 267.21 78.7893 106.161 
264.037 79.4735 106.649 263.772 79.3514 106.695 263.581 79.5503 106.881 
264.627 79.4047 106.484 266.348 79.2157 106.316 272.174 76.1023 107.402 
272.138 75.8609 107.503 274 75.0087 105.018 270.833 76.0227 107.199 
272.722 76.1628 107.684 272.912 76.3914 107.751 272.606 76.6512 107.478 
272.801 76.5188 107.577 266.078 78.0677 106.359 268.715 77.7478 106.543 
270.226 77.3232 106.879 271.711 77.2376 107.274 263.455 79.1172 106.865 
262.692 79.1471 107.155 267.534 78.7997 106.305 261.841 79.4337 107.519 
271.996 75.4421 107.874 272.18 75.5274 108.035 269.962 75.5136 107.559 
273.065 76.3653 108.151 272.66 76.8988 107.566 272.942 76.7592 107.725 
273.222 76.7975 107.944 273.316 76.7465 108.072 269.859 77.8965 106.888 
273.135 77.014 108.041 273.314 76.8813 108.117 261.548 79.1569 107.713 
262.091 78.5975 107.643 268.523 78.8827 106.818 270.021 78.4453 107.202 
259.982 79.6077 108.462 259.58 79.7455 108.704 261.252 80.1188 108.204 
270.895 74.6036 108.97 270.819 74.7824 108.562 271.356 74.7776 109.015 
272.345 75.5423 108.687 267.475 75.8778 107.681 273.356 76.8282 108.265 
263.347 77.6868 107.6 273.302 77.0398 108.438 259.102 79.3545 108.935 
258.744 79.5547 109.235 259.435 79.1083 108.777 259.198 79.9769 109.105 
270.362 74.3057 109.518 271.326 74.6477 109.624 272.272 75.4214 109.581 
273.328 76.8551 108.595 273.335 77.2943 109.382 272.94 78.0428 108.841 
273.711 78.1862 110.139 257.991 78.9649 109.8 273.019 78.7847 109.426 
273.736 78.6128 110.3 257.457 79.4206 110.133 257.538 79.1175 110.076 
270.295 79.992 108.632 258.858 80.4424 109.701 266.365 81.0716 108.734 
260.614 81.3098 109.846 270.473 74.0653 110.056 270.566 74.1066 110.037 
269.648 74.0444 110.13 270.733 74.2791 110.006 266.211 74.9582 109.342 
273.886 78.8379 110.752 272.84 79.813 110.082 270.018 74.0249 110.814 
257.508 77.4759 111.144 255.704 78.9932 112.141 256.686 78.0943 111.336 
273.969 78.8686 111.273 255.915 79.255 111.926 261.365 82.3231 111.525 
255.518 78.2933 112.559 273.864 78.2697 112.051 273.997 80.3352 112.405 
258.54 81.6613 112.147 270.381 81.9969 111.296 273.68 80.7246 111.988 
273.128 81.5103 112.223 266.802 73.1685 112.742 265.642 73.1384 113.358 
255.49 77.5139 113.123 272.862 76.8963 113.09 255.184 78.025 113.107 
255.101 77.8555 113.395 255.045 78.0033 113.288 255.257 77.7406 113.192 
255.069 78.1067 113.269 255.22 78.3672 113.3 274.118 79.9119 113.186 
274.244 80.5531 113.337 257.716 81.4367 113.694 261.598 82.9912 113.37 
272.235 82.2673 112.708 273.967 81.7879 113.529 273.711 82.0078 113.619 
265.962 72.9607 113.843 265.676 72.9856 113.951 266.134 72.9901 113.765 
266.534 73.1283 113.559 262.032 73.5332 113.966 268.542 73.8055 113.655 
257.457 75.9421 113.252 255.285 77.513 113.561 255.215 77.4561 113.96 
272.56 77.0401 114.12 255.056 78.0332 113.413 255.127 77.8409 113.847 
274.343 80.7621 113.79 274.368 81.0991 113.897 274.306 81.4321 113.984 
260.191 82.704 114.553 273.978 81.8938 113.787 274.047 81.8452 114.013 
274.179 81.68 114.09 264.321 72.7833 115.375 265.676 73.0154 114.578 
259.962 73.7741 115.184 267.534 73.857 115.21 255.737 76.5354 114.591 
255.193 78.3029 114.654 274.08 80.6098 114.613 274.294 81.2388 114.26 
273.553 81.9895 114.816 274.06 81.4093 114.64 273.272 82.2858 114.479 
263.826 83.7634 114.74 272.603 82.6591 114.925 271.458 83.1093 114.849 
269.333 83.8437 115.664 263.842 72.7852 115.318 263.743 72.7671 115.826 
262.722 72.8922 115.557 256.913 75.4592 115.929 255.629 76.6118 114.893 
256.118 76.084 115.351 255.286 77.406 115.039 255.245 77.7698 115.155 
272.239 77.8695 115.637 273.485 79.5189 115.22 273.461 81.8067 115.193 
273.726 81.4194 115.137 260.106 82.5633 115.996 270.279 83.3168 116.377 
263.712 83.8743 115.841 266.585 84.2337 115.619 268.695 83.9305 116.715 
261.945 72.9378 116.591 263.108 72.7888 115.917 263.177 72.8254 116.394 
264.646 72.918 116.13 260.413 73.3712 116.529 265.448 73.4035 116.612 
256.629 75.8433 116.476 273.018 79.5051 115.942 256.407 79.4395 116.648 
272.804 80.0295 116.37 272.935 80.6343 116.328 257.192 80.3205 116.735 
272.592 81.1665 116.568 258.784 81.4815 116.972 270.103 83.0306 117.233 
262.869 83.4967 116.869 264.847 84.1504 116.921 267.726 84.1629 116.833 
264.104 73.0356 116.848 259.697 73.7418 117.572 256.723 76.0682 116.957 
256.123 76.9558 116.632 256.009 77.6103 116.655 256.329 78.0409 117.061 
256.752 79.0104 117.319 271.496 79.06 117.356 272.13 80.1286 117.111 
258.319 80.736 117.516 271.623 81.1267 117.572 271.749 80.8419 117.526 
271.55 81.4722 117.427 261.3 82.6501 117.458 261.102 73.2783 117.599 
260.768 73.5013 117.867 262.346 73.6186 118.277 259.21 73.9825 117.706 
263.824 73.6555 117.959 258.637 74.5581 117.909 265.632 74.3911 117.863 
265.226 74.609 118.302 258.518 80.423 117.958 271.195 80.9038 117.97 
270.63 80.935 118.452 259.505 81.302 117.958 270.091 81.3745 118.654 
261.185 82.3639 117.956 268.737 83.1053 118.259 265.266 83.9519 118.173 
260.813 73.8583 118.349 260.022 74.2636 118.48 262.456 74.1728 118.746 
260.881 75.316 119.424 264.889 76.3064 119.593 259.795 78.065 119.556 
269.468 79.487 119.142 269.671 80.3953 119.172 260.755 80.8232 119.143 
269.295 80.9856 119.36 261.539 81.943 118.711 263.477 83.0567 118.669 
265.085 83.366 119.026 262.453 75.245 119.524 260.982 76.864 119.905 
263.898 78.965 120.47 267.456 81.746 119.948 265.403 82.5085 119.794 
266.713 79.9642 120.407 265.059 80.8563 120.444 266.894 81.2567 120.375 
267.069 81.4756 120.261 264.833 82.1227 119.979 266.83 81.4662 120.343 
266.789 81.5253 334.762 266.422 78.8556 334.874 266.028 80.0467 334.565 
268.304 80.2561 335.206 267.414 81.1783 334.911 268.035 81.2738 335.153 
264.051 81.9423 335.094 261.488 74.7338 335.824 261.125 76.6856 335.104 
265.412 76.9489 335.426 259.991 79.0457 335.473 262.145 78.7352 334.771 
269.333 79.2521 335.994 270.382 79.9253 336.459 269.456 80.9556 335.891 
268.782 81.8932 335.883 265.315 83.526 336.21 262.313 73.2284 337.094 
259.096 74.3445 337.117 263.979 73.4332 337.224 259.504 74.8194 336.389 
258.616 75.5694 336.56 265.947 74.5966 337.208 258.366 76.388 336.426 
266.015 75.4388 336.56 257.617 77.3552 336.736 270.163 78.9272 336.58 
258.371 79.3321 336.501 261.623 82.5099 337.096 263.331 83.5074 337.341 
266.683 83.6492 336.44 267.707 83.3644 336.409 264.497 84.0546 337.405 
264.894 83.9427 336.838 260.767 73.3654 337.344 261.646 73.0423 337.639 
263.17 73.0567 337.404 259.009 74.184 337.469 257.911 75.1788 337.617 
258.803 74.219 337.862 256.916 76.156 337.985 257.247 76.4184 337.393 
258.882 80.713 337.046 272.761 80.704 338.231 261 82.7101 338.223 
262.681 83.3177 337.675 266.466 84.0169 336.992 268.023 83.8161 337.259 
263.827 72.9372 337.861 261.389 73.0651 338.503 256.356 76.2589 338.857 
268.762 75.8036 338.217 256.218 78.0213 338.252 256.224 78.7213 338.348 
272.533 79.0794 338.465 272.852 79.4697 338.543 273.431 80.2275 338.928 
258.11 80.7246 337.839 273.307 80.5189 338.785 262.023 72.89 338.523 
263.204 72.7413 338.851 258.889 74.1677 338.945 259.618 73.8262 339.227 
266.869 74.0259 338.781 256.525 75.8786 339.591 255.636 76.9623 339.59 
255.544 77.3101 339.535 255.433 77.7593 339.631 256.063 79.3118 338.982 
256.299 79.634 338.887 273.58 79.984 339.244 257.718 81.1351 339.261 
273.772 81.4522 339.843 261.828 83.2328 339.552 265.454 84.351 338.651 
267.541 84.2444 338.075 263.604 72.7398 339.237 265.498 72.9645 339.987 
260.733 73.6141 340.107 255.523 76.9663 340.305 255.703 76.7299 340.433 
255.339 77.3685 340.484 255.293 77.9788 340.025 255.284 78.3178 340.243 
256.712 80.4732 339.743 274.308 80.9507 340.425 274.43 80.924 340.787 
273.88 81.6785 340.28 270.971 83.1839 339.305 266.939 84.3025 339.353 
268.2 84.1873 338.656 265.636 72.8812 340.413 265.681 72.8762 340.581 
265.017 72.9455 340.622 266.448 73.0947 341.102 257.484 75.4708 340.705 
255.087 78.1097 341.577 256.601 80.5374 341.33 274.409 80.5162 341.019 
274.153 81.6086 340.57 274.294 81.4744 340.729 274.415 81.2238 340.939 
274.306 81.4647 341.018 272.351 82.6704 340.308 268.761 83.9671 339.807 
266.737 73.0745 341.854 254.981 78.1526 341.87 255.072 78.0767 341.982 
254.986 78.1888 341.988 255.015 78.2597 341.924 255.199 78.5806 342.009 
274.417 80.5091 341.507 274.36 81.2408 341.314 261.445 82.8959 341.555 
273.653 81.9852 340.977 273.909 81.7909 341.228 267.585 83.4282 341.713 
265.044 73.3446 342.179 268.916 73.6518 342.634 273.338 77.3699 341.973 
255.106 78.2882 342.16 255.225 78.1537 342.315 273.825 77.9334 342.89 
255.466 78.4945 342.71 255.444 79.1183 342.277 274.123 80.5784 342.54 
273.923 80.9414 342.623 267.133 73.4722 343.205 270.173 74.0459 343.944 
257.253 77.1841 343.364 256.252 78.0248 343.34 274.026 78.4364 343.04 
274.01 78.5982 343.611 255.537 78.9196 342.922 256.158 78.5999 343.567 
255.573 79.1809 342.814 256.804 80.2971 343.619 270.347 74.0057 344.398 
270.384 74.0082 344.548 270.473 74.0956 344.563 269.196 74.0273 344.81 
269.974 74.0416 344.631 272.219 75.4012 344.033 263.509 75.6714 345.289 
273.226 76.6464 343.845 273.542 77.3479 344.894 255.759 79.1703 343.222 
256.087 79.1291 343.632 256.518 79.5515 344.006 262.089 81.7773 344.823 
273.37 77.3922 346.078 273.695 78.527 345.057 256.984 79.1377 344.618 
273.531 78.728 345.293 256.911 79.4359 344.55 258.953 80.6776 345.357 
271.549 74.8206 345.867 271.96 75.163 346.145 273.164 76.6349 346.435 
273.377 77.1514 346.589 273.328 77.0343 346.801 261.672 77.5053 346.461 
[...]
POINT_DATA 482
COLOR_SCALARS scalars 3
0.0941176 0.501961 0.392157 0.0941176 0.501961 0.392157 0.0941176 0.501961 0.392157 
0.0941176 0.501961 0.392157 0.0941176 0.501961 0.392157 
0.0941176 0.501961 0.392157 0.0941176 0.501961 0.392157 
0.0941176 0.501961 0.392157 0.0941176 0.501961 0.392157 
0.0941176 0.501961 0.392157 0.0941176 0.501961 0.392157 
0.0941176 0.501961 0.392157 0.0941176 0.501961 0.392157 
0.0941176 0.501961 0.392157 0.0941176 0.501961 0.392157 
0.0941176 0.501961 0.392157 0.0941176 0.501961 0.392157 
0.0941176 0.501961 0.392157 0.0941176 0.501961 0.392157 
0.0941176 0.501961 0.392157 0.0941176 0.501961 0.392157 
0.0941176 0.501961 0.392157 0.0941176 0.501961 0.392157 
0.0941176 0.501961 0.392157 0.0941176 0.501961 0.392157 
0.0941176 0.501961 0.392157 0.0941176 0.501961 0.392157 
0.0941176 0.501961 0.392157 0.0941176 0.501961 0.392157 
0.0941176 0.501961 0.392157 0.0941176 0.501961 0.392157 
0.0941176 0.501961 0.392157 0.0941176 0.501961 0.392157 
0.0941176 0.501961 0.392157 0.0941176 0.501961 0.392157 
0.0941176 0.501961 0.392157 0.0941176 0.501961 0.392157 
0.0941176 0.501961 0.392157 0.0941176 0.501961 0.392157 
0.0941176 0.501961 0.392157 0.0941176 0.501961 0.392157 
0.0941176 0.501961 0.392157 0.0941176 0.501961 0.392157 
0.0941176 0.501961 0.392157 0.0941176 0.501961 0.392157 
0.0941176 0.501961 0.392157 0.0941176 0.501961 0.392157 
0.0941176 0.501961 0.392157 0.0941176 0.501961 0.392157 
0.0941176 0.501961 0.392157 0.0941176 0.501961 0.392157 
0.0941176 0.501961 0.392157 0.0941176 0.501961 0.392157 
0.0941176 0.501961 0.392157 0.0941176 0.501961 0.392157 
0.0941176 0.501961 0.392157 0.0941176 0.501961 0.392157 
0.0941176 0.501961 0.392157 0.0941176 0.501961 0.392157 
0.0941176 0.501961 0.392157 0.0941176 0.501961 0.392157 
0.0941176 0.501961 0.392157 0.0941176 0.501961 0.392157 
0.0941176 0.501961 0.392157 0.0941176 0.501961 0.392157 
0.0941176 0.501961 0.392157 0.0941176 0.501961 0.392157 
0.0941176 0.501961 0.392157 0.0941176 0.501961 0.392157 
0.0941176 0.501961 0.392157 0.0941176 0.501961 0.392157 
0.0941176 0.501961 0.392157 0.0941176 0.501961 0.392157 
0.0941176 0.501961 0.392157 0.0941176 0.501961 0.392157 
0.0941176 0.501961 0.392157 0.0941176 0.501961 0.392157 
0.0941176 0.501961 0.392157 0.0941176 0.501961 0.392157 
0.0941176 0.501961 0.392157 0.0941176 0.501961 0.392157 
0.0941176 0.501961 0.392157 0.0941176 0.501961 0.392157 
0.0941176 0.501961 0.392157 0.0941176 0.501961 0.392157 
0.0941176 0.501961 0.392157 0.0941176 0.501961 0.392157 
0.0941176 0.501961 0.392157 0.0941176 0.501961 0.392157 
0.0941176 0.501961 0.392157 0.0941176 0.501961 0.392157 
0.0941176 0.501961 0.392157 0.0941176 0.501961 0.392157 
0.0941176 0.501961 0.392157 0.0941176 0.501961 0.392157 
0.0941176 0.501961 0.392157 0.0941176 0.501961 0.392157 
0.0941176 0.501961 0.392157 0.0941176 0.501961 0.392157 
0.0941176 0.501961 0.392157 0.0941176 0.501961 0.392157 
0.0941176 0.501961 0.392157 0.0941176 0.501961 0.392157 
0.0941176 0.501961 0.392157 0.0941176 0.501961 0.392157 
0.0941176 0.501961 0.392157 0.0941176 0.501961 0.392157 
0.0941176 0.501961 0.392157 0.0941176 0.501961 0.392157 
0.0941176 0.501961 0.392157 0.0941176 0.501961 0.392157 
0.0941176 0.501961 0.392157 0.0941176 0.501961 0.392157 
0.0941176 0.501961 0.392157 0.0941176 0.501961 0.392157 
0.0941176 0.501961 0.392157 0.0941176 0.501961 0.392157 
0.0941176 0.501961 0.392157 0.0941176 0.501961 0.392157 
0.0941176 0.501961 0.392157 0.0941176 0.501961 0.392157 
0.0941176 0.501961 0.392157 0.0941176 0.501961 0.392157 
0.0941176 0.501961 0.392157 0.0941176 0.501961 0.392157 
0.0941176 0.501961 0.392157 0.0941176 0.501961 0.392157 
0.0941176 0.501961 0.392157 0.0941176 0.501961 0.392157 
0.0941176 0.501961 0.392157 0.0941176 0.501961 0.392157 
0.0941176 0.501961 0.392157 0.0941176 0.501961 0.392157 
0.0941176 0.501961 0.392157 0.0941176 0.501961 0.392157 
0.0941176 0.501961 0.392157 0.0941176 0.501961 0.392157 
0.0941176 0.501961 0.392157 0.0941176 0.501961 0.392157 
0.0941176 0.501961 0.392157 0.0941176 0.501961 0.392157 
0.0941176 0.501961 0.392157 0.0941176 0.501961 0.392157 
0.0941176 0.501961 0.392157 0.0941176 0.501961 0.392157 
0.0941176 0.501961 0.392157 0.0941176 0.501961 0.392157 
0.0941176 0.501961 0.392157 0.0941176 0.501961 0.392157 
0.0941176 0.501961 0.392157 0.0941176 0.501961 0.392157 
0.0941176 0.501961 0.392157 0.0941176 0.501961 0.392157 
0.0941176 0.501961 0.392157 0.0941176 0.501961 0.392157 
0.0941176 0.501961 0.392157 0.0941176 0.501961 0.392157 
0.0941176 0.501961 0.392157 0.0941176 0.501961 0.392157 
0.0941176 0.501961 0.392157 0.0941176 0.501961 0.392157 
0.0941176 0.501961 0.392157 0.0941176 0.501961 0.392157 
0.0941176 0.501961 0.392157 0.0941176 0.501961 0.392157 
0.0941176 0.501961 0.392157 0.0941176 0.501961 0.392157 
0.0941176 0.501961 0.392157 0.0941176 0.501961 0.392157 
0.0941176 0.501961 0.392157 0.0941176 0.501961 0.392157 
0.0941176 0.501961 0.392157 0.0941176 0.501961 0.392157 
0.0941176 0.501961 0.392157 0.0941176 0.501961 0.392157 
0.0941176 0.501961 0.392157 0.0941176 0.501961 0.392157 
0.0941176 0.501961 0.392157 0.0941176 0.501961 0.392157 
0.0941176 0.501961 0.392157 0.0941176 0.501961 0.392157 
0.0941176 0.501961 0.392157 0.0941176 0.501961 0.392157 
0.0941176 0.501961 0.392157 0.0941176 0.501961 0.392157 
0.0941176 0.501961 0.392157 0.0941176 0.501961 0.392157 
0.0941176 0.501961 0.392157 0.0941176 0.501961 0.392157 
0.0941176 0.501961 0.392157 0.0941176 0.501961 0.392157 
0.0941176 0.501961 0.392157 0.0941176 0.501961 0.392157 
0.0941176 0.501961 0.392157 0.0941176 0.501961 0.392157 
0.0941176 0.501961 0.392157 0.0941176 0.501961 0.392157 
0.0941176 0.501961 0.392157 0.0941176 0.501961 0.392157 
0.0941176 0.501961 0.392157 0.0941176 0.501961 0.392157 
0.0941176 0.501961 0.392157 0.0941176 0.501961 0.392157 
0.0941176 0.501961 0.392157 0.0941176 0.501961 0.392157 
0.0941176 0.501961 0.392157 0.0941176 0.501961 0.392157 
0.0941176 0.501961 0.392157 0.0941176 0.501961 0.392157 
0.0941176 0.501961 0.392157 0.0941176 0.501961 0.392157 
0.0941176 0.501961 0.392157 0.0941176 0.501961 0.392157 
0.0941176 0.501961 0.392157 0.0941176 0.501961 0.392157 
0.0941176 0.501961 0.392157 0.0941176 0.501961 0.392157 
0.0941176 0.501961 0.392157 0.0941176 0.501961 0.392157 
0.0941176 0.501961 0.392157 0.0941176 0.501961 0.392157 
0.0941176 0.501961 0.392157 0.0941176 0.501961 0.392157 
0.0941176 0.501961 0.392157 0.0941176 0.501961 0.392157 
0.0941176 0.501961 0.392157 0.0941176 0.501961 0.392157 
0.0941176 0.501961 0.392157 0.0941176 0.501961 0.392157 
0.0941176 0.501961 0.392157 0.0941176 0.501961 0.392157 
0.0941176 0.501961 0.392157 0.0941176 0.501961 0.392157 
0.0941176 0.501961 0.392157 0.0941176 0.501961 0.392157 
0.0941176 0.501961 0.392157 0.0941176 0.501961 0.392157 
0.0941176 0.501961 0.392157 0.0941176 0.501961 0.392157 
0.0941176 0.501961 0.392157 0.0941176 0.501961 0.392157 
0.0941176 0.501961 0.392157 0.0941176 0.501961 0.392157 
0.0941176 0.501961 0.392157 0.0941176 0.501961 0.392157 
0.0941176 0.501961 0.392157 0.0941176 0.501961 0.392157 
0.0941176 0.501961 0.392157 0.0941176 0.501961 0.392157 
0.0941176 0.501961 0.392157 0.0941176 0.501961 0.392157 
0.0941176 0.501961 0.392157 0.0941176 0.501961 0.392157 
0.0941176 0.501961 0.392157 0.0941176 0.501961 0.392157 
0.0941176 0.501961 0.392157 0.0941176 0.501961 0.392157 
0.0941176 0.501961 0.392157 0.0941176 0.501961 0.392157 
0.0941176 0.501961 0.392157 0.0941176 0.501961 0.392157 
0.0941176 0.501961 0.392157 0.0941176 0.501961 0.392157 
0.0941176 0.501961 0.392157 0.0941176 0.501961 0.392157 
0.0941176 0.501961 0.392157 0.0941176 0.501961 0.392157 
0.0941176 0.501961 0.392157 0.0941176 0.501961 0.392157 
0.0941176 0.501961 0.392157 0.0941176 0.501961 0.392157 
0.0941176 0.501961 0.392157 0.0941176 0.501961 0.392157 
0.0941176 0.501961 0.392157 0.0941176 0.501961 0.392157 
0.0941176 0.501961 0.392157 0.0941176 0.501961 0.392157 
0.0941176 0.501961 0.392157 0.0941176 0.501961 0.392157 
0.0941176 0.501961 0.392157 0.0941176 0.501961 0.392157 
0.0941176 0.501961 0.392157 0.0941176 0.501961 0.392157 
0.0941176 0.501961 0.392157 0.0941176 0.501961 0.392157 
0.0941176 0.501961 0.392157 0.0941176 0.501961 0.392157 
0.0941176 0.501961 0.392157 0.0941176 0.501961 0.392157 
0.0941176 0.501961 0.392157 0.0941176 0.501961 0.392157 
0.0941176 0.501961 0.392157 0.0941176 0.501961 0.392157 
0.0941176 0.501961 0.392157 0.0941176 0.501961 0.392157 
0.0941176 0.501961 0.392157 0.0941176 0.501961 0.392157 
0.0941176 0.501961 0.392157 0.0941176 0.501961 0.392157 
0.0941176 0.501961 0.392157 0.0941176 0.501961 0.392157 
0.0941176 0.501961 0.392157 0.0941176 0.501961 0.392157 
0.0941176 0.501961 0.392157 0.0941176 0.501961 0.392157 
0.0941176 0.501961 0.392157 0.0941176 0.501961 0.392157 
0.0941176 0.501961 0.392157 0.0941176 0.501961 0.392157 
0.0941176 0.501961 0.392157 0.0941176 0.501961 0.392157 
0.0941176 0.501961 0.392157 0.0941176 0.501961 0.392157 
0.0941176 0.501961 0.392157 0.0941176 0.501961 0.392157 
0.0941176 0.501961 0.392157 0.0941176 0.501961 0.392157 
0.0941176 0.501961 0.392157 0.0941176 0.501961 0.392157 
0.0941176 0.501961 0.392157 0.0941176 0.501961 0.392157 
0.0941176 0.501961 0.392157 0.0941176 0.501961 0.392157 
0.0941176 0.501961 0.392157 0.0941176 0.501961 0.392157 
0.0941176 0.501961 0.392157 0.0941176 0.501961 0.392157 
0.0941176 0.501961 0.392157 0.0941176 0.501961 0.392157 
0.0941176 0.501961 0.392157 0.0941176 0.501961 0.392157 
0.0941176 0.501961 0.392157 0.0941176 0.501961 0.392157 
0.0941176 0.501961 0.392157 0.0941176 0.501961 0.392157 
0.0941176 0.501961 0.392157 0.0941176 0.501961 0.392157 
0.0941176 0.501961 0.392157 0.0941176 0.501961 0.392157 
0.0941176 0.501961 0.392157 0.0941176 0.501961 0.392157 
0.0941176 0.501961 0.392157 0.0941176 0.501961 0.392157 
0.0941176 0.501961 0.392157 0.0941176 0.501961 0.392157 
0.0941176 0.501961 0.392157 0.0941176 0.501961 0.392157 
0.0941176 0.501961 0.392157 0.0941176 0.501961 0.392157 
0.0941176 0.501961 0.392157 0.0941176 0.501961 0.392157 
0.0941176 0.501961 0.392157 0.0941176 0.501961 0.392157 
0.0941176 0.501961 0.392157 0.0941176 0.501961 0.392157 
0.0941176 0.501961 0.392157 0.0941176 0.501961 0.392157 
0.0941176 0.501961 0.392157 0.0941176 0.501961 0.392157 
0.0941176 0.501961 0.392157 0.0941176 0.501961 0.392157 
0.0941176 0.501961 0.392157 0.0941176 0.501961 0.392157 
0.0941176 0.501961 0.392157 0.0941176 0.501961 0.392157 
0.0941176 0.501961 0.392157 0.0941176 0.501961 0.392157 
0.0941176 0.501961 0.392157 0.0941176 0.501961 0.392157 
0.0941176 0.501961 0.392157 0.0941176 0.501961 0.392157 
0.0941176 0.501961 0.392157 0.0941176 0.501961 0.392157 
0.0941176 0.501961 0.392157 0.0941176 0.501961 0.392157 
0.0941176 0.501961 0.392157 0.0941176 0.501961 0.392157 
0.0941176 0.501961 0.392157 0.0941176 0.501961 0.392157 
0.0941176 0.501961 0.392157 0.0941176 0.501961 0.392157 
0.0941176 0.501961 0.392157 0.0941176 0.501961 0.392157 
0.0941176 0.501961 0.392157 0.0941176 0.501961 0.392157 
0.0941176 0.501961 0.392157 0.0941176 0.501961 0.392157 
0.0941176 0.501961 0.392157 0.0941176 0.501961 0.392157 
0.0941176 0.501961 0.392157 0.0941176 0.501961 0.392157 
0.0941176 0.501961 0.392157 0.0941176 0.501961 0.392157 
0.0941176 0.501961 0.392157 0.0941176 0.501961 0.392157 
0.0941176 0.501961 0.392157 0.0941176 0.501961 0.392157 
0.0941176 0.501961 0.392157 0.0941176 0.501961 0.392157 
0.0941176 0.501961 0.392157 0.0941176 0.501961 0.392157 
0.0941176 0.501961 0.392157 0.0941176 0.501961 0.392157 
0.0941176 0.501961 0.392157 0.0941176 0.501961 0.392157 
0.0941176 0.501961 0.392157 0.0941176 0.501961 0.392157 
0.0941176 0.501961 0.392157 0.0941176 0.501961 0.392157 
0.0941176 0.501961 0.392157 0.0941176 0.501961 0.392157 
0.0941176 0.501961 0.392157 0.0941176 0.501961 0.392157 
0.0941176 0.501961 0.392157 0.0941176 0.501961 0.392157 
0.0941176 0.501961 0.392157 0.0941176 0.501961 0.392157 
0.0941176 0.501961 0.392157 0.0941176 0.501961 0.392157 
0.0941176 0.501961 0.392157 0.0941176 0.501961 0.392157 
0.0941176 0.501961 0.392157 0.0941176 0.501961 0.392157 
0.0941176 0.501961 0.392157 0.0941176 0.501961 0.392157 
0.0941176 0.501961 0.392157 0.0941176 0.501961 0.392157 
0.0941176 0.501961 0.392157 0.0941176 0.501961 0.392157 
0.0941176 0.501961 0.392157 0.0941176 0.501961 0.392157 
0.0941176 0.501961 0.392157 0.0941176 0.501961 0.392157 
0.0941176 0.501961 0.392157 0.0941176 0.501961 0.392157 
0.0941176 0.501961 0.392157 0.0941176 0.501961 0.392157 
0.0941176 0.501961 0.392157 0.0941176 0.501961 0.392157 
0.0941176 0.501961 0.392157 0.0941176 0.501961 0.392157 
0.0941176 0.501961 0.392157 0.0941176 0.501961 0.392157 
0.0941176 0.501961 0.392157 0.0941176 0.501961 0.392157 
0.0941176 0.501961 0.392157 0.0941176 0.501961 0.392157 
0.0941176 0.501961 0.392157 0.0941176 0.501961 0.392157 
0.0941176 0.501961 0.392157 0.0941176 0.501961 0.392157 
0.0941176 0.501961 0.392157 0.0941176 0.501961 0.392157 
0.0941176 0.501961 0.392157 0.0941176 0.501961 0.392157 
0.0941176 0.501961 0.392157 0.0941176 0.501961 0.392157 
0.0941176 0.501961 0.392157 0.0941176 0.501961 0.392157 
0.0941176 0.501961 0.392157 0.0941176 0.501961 0.392157 
0.0941176 0.501961 0.392157 0.0941176 0.501961 0.392157 
0.0941176 0.501961 0.392157 0.0941176 0.501961 0.392157 
0.0941176 0.501961 0.392157 0.0941176 0.501961 0.392157 
0.0941176 0.501961 0.392157 0.0941176 0.501961 0.392157 
0.0941176 0.501961 0.392157 0.0941176 0.501961 0.392157 
0.0941176 0.501961 0.392157 0.0941176 0.501961 0.392157 
0.0941176 0.501961 0.392157 0.0941176 0.501961 0.392157 
0.0941176 0.501961 0.392157 0.0941176 0.501961 0.392157 
0.0941176 0.501961 0.392157 0.0941176 0.501961 0.392157 
0.0941176 0.501961 0.392157 0.0941176 0.501961 0.392157 
0.0941176 0.501961 0.392157 
NORMALS Normals float
0.0308191 0.262674 -0.964392 -0.102763 -0.243848 -0.964354 -0.265397 0.112592 -0.957542 
0.277313 0.0295556 -0.960325 -0.0948762 0.409003 -0.907587 -0.19022 -0.112686 -0.975253 
-0.396589 0.252712 -0.882527 0.224333 0.296082 -0.928445 0.137746 0.555446 -0.820065 
-0.0733531 0.701704 -0.708682 0 -0.176557 -0.98429 0 -0.997331 -0.0730187 
-0.838894 -0.543202 -0.0344886 0.838894 -0.543202 -0.0344886 0 0.6 -0.8 
0.0244087 -0.234245 -0.971871 -0.0455077 -0.30749 -0.950462 -0.123149 -0.384673 -0.914801 
0.266718 -0.281181 -0.921845 -0.163376 -0.126542 -0.978415 -0.287052 -0.268632 -0.919477 
-0.195839 -0.0339413 -0.980048 0.414771 -0.046956 -0.908714 0.312059 0.532156 -0.787039 
-0.262492 0.422076 -0.867727 -0.362577 0.154911 -0.918989 -0.343234 0.467658 -0.814546 
-0.256033 0.207328 -0.944173 0.0793196 0.478314 -0.874599 0.211901 -0.112237 -0.970825 
0.40967 -0.549412 -0.728228 0 -0.335627 0.941995 0.114682 -0.502315 -0.857046 
0.659488 -0.587835 -0.468536 0.759149 -0.346779 -0.550851 0.307484 0.158889 -0.938194 
0.566759 -0.201918 -0.798758 -0.223761 -0.425785 -0.87672 0.128083 -0.0949398 -0.987209 
0.271035 0.0808938 -0.959164 0.319108 0.222712 -0.921178 -0.420159 -0.184529 -0.88849 
-0.371588 -0.274074 -0.887021 0.4538 0.365192 -0.812835 -0.304969 0.384433 -0.871324 
0.378328 -0.816829 -0.435498 0.606493 -0.73494 -0.303363 -0.0413165 -0.686858 -0.725617 
0.788235 -0.615312 -0.00871154 0.460949 0.419492 -0.782018 0.64178 0.0807684 -0.762624 
0.701814 0.191328 -0.686186 0.855059 -0.270306 -0.442502 0.298532 0.236827 -0.924549 
0.632019 0.585254 -0.507966 0.839679 0.388736 -0.37924 -0.466736 -0.0546428 -0.882707 
-0.448156 -0.526235 -0.722657 0.290689 0.600185 -0.74517 0.358804 0.443477 -0.821333 
-0.363681 0.382988 -0.84915 -0.40852 0.463742 -0.786165 -0.269172 0.588088 -0.762692 
0.290828 -0.908182 -0.301039 0.0885387 -0.851332 -0.517103 0.476309 -0.851006 -0.221175 
0.691084 -0.720159 -0.0614237 -0.190434 -0.702289 -0.685949 0.994718 -0.0978958 -0.0308465 
-0.372726 -0.562177 -0.738263 0.867979 0.473011 -0.151243 -0.598997 -0.0101053 -0.800687 
-0.571374 -0.192589 -0.797772 -0.509239 -0.413542 -0.754758 -0.431547 0.527841 -0.73154 
0.176504 -0.889823 -0.420787 0.473923 -0.87334 -0.112579 0.760655 -0.646723 0.0561568 
0.955217 -0.262231 0.137094 0.990562 -0.129946 -0.0436058 0.824296 0.317571 -0.468706 
0.949328 -0.0740961 -0.305427 -0.453691 -0.306208 -0.836899 0.708591 0.392222 -0.586566 
0.81448 0.300816 -0.496117 -0.624684 0.239811 -0.743143 -0.657112 -0.188941 -0.72973 
0.368432 0.643444 -0.670998 -0.442216 0.672404 -0.593564 0.0951997 0.87119 -0.481628 
-0.143577 0.823495 -0.548855 0.192581 -0.964857 -0.178781 0.554898 -0.828082 -0.0798007 
-0.0520669 -0.93824 -0.342045 0.613707 -0.787068 0.0623548 -0.318586 -0.762526 -0.563078 
0.90519 0.19358 -0.378361 0.57762 0.578808 -0.575618 0.415986 -0.890119 0.186129 
-0.449712 -0.572994 -0.685155 -0.856274 0.0691093 -0.511878 -0.62 -0.499219 -0.605293 
0.986112 0.0169051 -0.165221 -0.77676 0.538372 -0.326801 -0.215227 0.925881 -0.310519 
-0.819711 -0.147022 -0.553586 0.936062 -0.350347 0.0323147 0.929446 0.248962 -0.272303 
-0.439146 0.844131 -0.30756 0.17145 0.862278 -0.47653 0.825336 0.43247 -0.363029 
0.561193 0.662318 -0.496385 0.0976177 -0.985441 -0.139201 -0.102433 -0.934942 -0.339691 
-0.619435 -0.61721 -0.485131 0.693396 -0.662599 0.283131 -0.772723 -0.144566 -0.618062 
-0.88237 -0.434908 -0.179659 -0.949226 -0.160434 -0.270611 -0.742731 -0.486646 -0.459919 
-0.895728 0.336158 -0.290979 -0.894562 0.431301 -0.117213 0.960186 -0.256402 0.110909 
0.981936 -0.153646 -0.110432 -0.568638 0.822555 0.00740142 -0.261891 0.958615 -0.111668 
0.139328 0.954018 -0.265402 0.714024 0.557542 -0.423458 0.377147 0.898466 -0.224765 
-0.080837 -0.953473 -0.290438 -0.113393 -0.950983 -0.287703 0.0758991 -0.958688 -0.274147 
0.274943 -0.958698 0.0728247 -0.204111 -0.917369 -0.341721 0.492701 -0.832929 0.251942 
-0.470865 -0.787517 -0.397621 -0.783356 -0.58645 -0.205985 -0.890562 -0.448755 -0.0742889 
0.733185 -0.584419 0.347699 -0.974738 0.153082 0.162638 -0.993621 -0.0869693 0.0717949 
0.955587 -0.126408 -0.266222 0.996221 0.0301793 -0.0814425 0.894016 0.32194 -0.311592 
-0.350722 0.931537 -0.0960878 0.703133 0.6915 -0.165626 0.614531 0.770396 0.169827 
0.83676 0.521876 0.165762 0.162423 -0.983014 -0.0854553 0.247262 -0.955344 0.161801 
-0.446337 -0.875628 -0.18455 0.587044 -0.682066 0.43608 -0.67004 -0.692699 -0.266861 
-0.943804 0.316011 0.0968006 0.901872 -0.214442 0.375022 0.859707 0.130276 0.493895 
0.648585 0.645974 0.40256 0.783393 0.411868 0.465467 0.425252 0.90499 -0.0123661 
-0.186435 0.956129 -0.225963 0.517402 0.7851 0.34046 0.170651 0.96357 -0.205939 
0.295659 0.95405 -0.0487332 -0.0891883 -0.967724 -0.235704 -0.01242 -0.999884 -0.00886241 
-0.181183 -0.972826 -0.144162 -0.522676 -0.852187 0.0242389 -0.852995 -0.521176 0.0278334 
-0.786515 -0.592582 0.173901 -0.937329 -0.29803 0.180537 -0.944664 0.0312695 0.326545 
0.658576 -0.481528 0.578281 0.81649 -0.22076 0.533488 0.6254 0.567581 0.535468 
0.795103 0.246583 0.554083 -0.395042 0.897967 0.193898 0.377991 0.908474 0.178322 
-0.33684 0.939916 -0.0556456 0.0588107 0.985889 -0.156729 0.292833 0.933223 0.208192 
-0.170218 -0.983075 0.067738 -0.152955 -0.988228 -0.00301735 -0.0772533 -0.982356 0.170319 
0.277252 -0.946915 0.162735 -0.338787 -0.940831 -0.00775863 0.389867 -0.87438 0.288901 
-0.655424 -0.677914 0.332944 0.727572 -0.322147 0.60569 -0.826026 0.345999 0.444934 
0.703026 -0.181088 0.687722 0.764692 0.0456023 0.64278 -0.673636 0.646242 0.358588 
0.674769 0.26434 0.689065 -0.510658 0.756483 0.408609 0.446445 0.751082 0.486378 
-0.367018 0.922578 0.118943 -0.205117 0.973539 0.100747 0.178224 0.905824 0.384342 
0.164913 -0.888914 0.427359 -0.373961 -0.877472 0.300325 -0.670237 -0.444441 0.594352 
-0.808501 -0.286902 0.513822 -0.85972 -0.0351019 0.509559 -0.698651 -0.00672825 0.715431 
-0.613521 0.260088 0.745618 0.621826 -0.284087 0.729813 0.711419 -0.171635 0.681487 
-0.543028 0.593703 0.593833 0.691029 0.316583 0.649811 0.709121 0.0862937 0.699786 
0.618995 0.511346 0.596129 -0.368641 0.844363 0.388786 -0.14591 -0.88159 0.448897 