# vtk DataFile Version 4.2
vtk output
ASCII
DATASET POLYDATA
POINTS 1423 float
214.098 57.9631 109.93 213.883 57.7652 110.065 213.894 57.9562 109.843 
213.971 58.116 109.801 213.818 58.0549 109.791 213.729 58.2423 109.831 
214.161 58.173 109.899 214.002 58.3809 109.882 213.609 57.9609 109.931 
213.192 57.9119 110.095 212.681 58.5066 110.086 212.246 58.3397 110.306 
213.236 58.3073 109.966 212.664 59.1217 110.159 212.954 59.2579 110.156 
213.535 59.6224 110.42 224.585 52.9324 112.187 224.558 52.8358 112.271 
224.536 53.034 112.327 224.676 52.8618 112.189 224.678 53.0007 112.188 
214.195 56.8277 111.461 214.88 57.0928 111.555 212.941 57.7261 110.318 
212.577 57.7421 110.465 213.438 57.1415 110.921 211.803 58.6703 110.503 
211.183 58.8709 110.874 210.91 58.5826 111.095 215.223 58.4665 111.348 
210.903 59.5181 111.185 214.92 59.4602 111.251 212.016 60.4342 111.194 
225.395 51.9881 112.503 224.733 52.6012 112.354 224.396 52.7594 112.565 
224.944 52.0609 112.582 225.801 52.6408 112.301 224.945 52.9482 112.214 
224.765 53.2265 112.286 224.562 53.4006 112.592 224.886 53.5786 112.43 
225.232 53.8428 112.455 213.726 56.8534 111.288 215.08 57.1354 111.924 
215.267 57.5456 111.817 210.409 58.2637 111.658 210.88 58.205 111.309 
210.474 58.6728 111.486 215.287 59.0238 111.553 213.09 61.3913 111.996 
227.827 50.335 113.276 224.258 52.4541 112.828 224.179 52.6964 112.898 
214.272 56.1968 112.749 214.135 56.2603 112.474 214.538 56.3302 112.772 
214.845 56.6589 112.602 214.961 56.8606 112.181 225.553 55.023 113.004 
226.224 55.0387 112.858 210.793 57.6428 111.976 211.984 56.9917 112.109 
210.03 58.0445 112.352 209.812 58.3875 112.427 215.86 58.7849 112.815 
215.616 60.7572 112.832 224.848 51.4424 113.117 224.588 51.4837 113.291 
229.695 50.6672 113.668 224.11 52.0714 113.489 224.071 52.7453 113.183 
213.995 56.1498 112.736 213.752 56.1277 112.903 214.632 56.3967 113.122 
213.314 56.2303 113.017 224.94 55.2622 113.801 227.567 55.6998 113.346 
209.994 57.887 112.845 225.326 56.0579 114.058 209.031 58.6323 113.513 
208.889 58.5616 113.836 208.826 58.7018 113.767 225.797 56.5619 114.005 
226.762 57.0563 113.948 227.165 56.7393 113.745 208.877 58.8168 113.664 
209.053 59.102 113.521 226.379 57.1126 114.069 210.134 60.7949 112.923 
216.229 60.4054 113.499 215.512 61.4528 113.317 214.837 62.3521 113.853 
224.45 51.4132 113.596 223.998 52.0272 114.079 230.7 52.0753 113.995 
213.75 56.0981 113.495 214.04 56.1383 113.547 214.335 56.2257 113.39 
209.47 57.9993 114.003 208.796 58.6943 113.98 227.646 57.4484 114.212 
216.645 59.5375 114.299 227.558 57.9378 114.512 216.739 60.0519 114.324 
216.471 61.1842 114.223 231.435 47.9261 115.668 226.43 49.3235 115.467 
224.694 50.5922 114.708 233.088 51.2275 115.146 231.275 52.4135 114.321 
224.193 54.5431 115.462 224.432 55.1443 114.945 208.966 59.8695 114.483 
226.957 59.1693 115.491 228.938 58.848 115.434 216.947 60.9681 114.791 
227.418 59.7706 115.88 216.32 62.2017 114.832 236.135 46.517 116.808 
231.091 47.3437 116.53 236.781 46.839 116.926 225.925 49.4559 116.067 
226.46 49.1571 116.01 224.519 50.6841 114.983 223.86 52.5752 115.453 
209.945 57.7521 115.432 211.135 57.3162 115.741 215.334 57.4322 115.394 
215.141 57.401 115.922 224.701 57.1779 116.315 216.346 58.2511 116.147 
225.088 57.5384 115.798 225.321 58.2144 116.042 217.388 59.3246 116.2 
230.129 59.2778 116.472 218.311 61.7238 116.525 210.501 62.7919 116.007 
228.453 60.5757 117.039 215.094 63.6003 115.757 229.311 47.7746 117.203 
230.184 47.5 116.917 225.382 49.8297 116.094 225.096 50.1788 116.331 
226.01 49.4089 116.558 235.878 50.8645 116.647 224.012 52.0063 115.938 
234.919 54.4991 117.041 224.35 55.7148 116.528 213.887 57.1185 116.267 
214.619 57.2403 116.125 214.436 57.4236 116.935 233.051 57.8701 117.633 
208.977 59.3263 116.67 219.042 60.8299 117.267 229.687 60.0422 117.114 
230.596 59.9218 117.91 218.99 62.5565 117.402 227.848 60.8426 117.484 
211.405 64.0005 117.263 231.586 46.6719 117.771 228.781 48.0088 117.591 
226.967 48.832 116.886 226.666 49.0888 117.08 225.638 49.9189 117.049 
225.281 50.1601 116.793 226.127 49.4822 117.007 224.402 51.2037 116.213 
224.439 54.3909 117.495 224.427 57.2416 117.347 224.433 58.0981 117.619 
217.215 58.6211 117.981 218.02 59.1144 117.792 233.141 58.3136 118.423 
209.394 59.1185 118.394 219.473 60.449 117.806 232.222 59.1047 118.58 
208.625 60.843 117.956 219.769 61.6648 117.813 225.184 60.0324 117.73 
230.157 60.2366 118.446 226.243 60.5572 117.55 228.379 60.8524 117.88 
226.362 60.8057 118.081 227.104 60.9545 118.261 218.763 63.795 118.169 
219.16 63.6828 118.553 217.567 64.6458 118.627 217.72 64.6662 118.776 
231.082 46.898 118.693 229.456 47.9275 118.407 228.071 48.6991 118.22 
225.608 50.6479 117.701 226.883 50.2792 118.686 224.892 51.8101 117.475 
237.816 54.3378 119.24 224.371 56.8103 117.817 216.208 58.2326 118.843 
224.177 57.8156 118.727 234.554 57.2 118.811 219.055 59.6047 118.191 
223.638 58.9678 119.018 232.804 58.7174 118.804 208.725 59.9521 119.488 
219.802 60.1591 118.254 220.283 60.4861 118.406 223.495 59.9345 118.895 
232.016 59.3034 118.859 231.812 59.4083 119.041 221.416 61.5084 118.977 
221.868 61.0763 119.104 224.598 59.8269 118.085 230.577 59.8921 119.262 
221.866 61.723 119.402 224.233 60.8386 119.091 227.094 60.9822 118.78 
227.518 60.9235 118.986 228.157 60.8663 118.67 208.738 62.4512 118.66 
221.292 62.4564 119.319 225.199 60.8639 118.969 212.02 65.1755 119.117 
213.032 65.2173 118.868 214.022 65.4387 119.365 216.194 65.0595 119.432 
242.131 41.6003 120.711 243.439 41.6426 120.828 240.442 41.5462 120.845 
232.303 45.7865 119.822 230.321 47.9164 119.698 229.459 48.6226 119.502 
240.468 50.7335 119.576 226.855 52.0608 119.62 239.041 53.3276 119.633 
224.884 55.5373 118.921 237.885 55.1498 120.109 224.45 57.1622 119.067 
225.467 56.6126 120.1 224.15 57.9609 119.485 236.618 56.3473 120.238 
210.921 58.7634 120.583 210.253 58.8358 119.79 211.945 58.4975 120.255 
220.469 59.9376 118.895 219.941 59.4303 119.358 221.508 59.8943 119.265 
221.094 59.5488 119.61 222.42 59.653 119.413 222.007 59.4699 119.695 
223.014 59.3643 119.364 223.114 58.9952 119.832 233.454 58.2968 119.583 
233.056 58.552 119.812 208.538 60.1104 120.47 221.97 60.3774 119.118 
222.879 59.8423 119.171 208.113 61.1581 119.788 208.025 60.9587 120.246 
222.71 60.7317 119.198 228.599 60.547 119.383 222.627 61.3024 119.528 
226.795 60.8872 119.341 221.581 62.302 119.959 222.504 61.6815 120.139 
223.895 61.1458 119.71 208.577 63.846 119.892 217.315 64.7407 120.129 
214.533 65.4997 120.122 244.128 40.4918 121.725 245.229 40.8973 121.717 
245.708 41.778 121.596 232.829 44.5625 121.494 231.619 46.6468 120.842 
231.014 47.9584 121.226 230.042 49.7626 121.115 229.456 50.5002 120.901 
239.53 53.771 120.499 239.752 54.36 121.527 238.69 55.2457 121.701 
225.02 57.9744 120.47 226.728 57.676 121.035 234.273 57.6567 121.182 
219.845 59.2132 120.224 222.41 59.3167 120.734 223.886 58.8264 120.531 
232.774 58.6072 120.175 208.137 60.6276 120.502 224.251 59.2621 120.939 
225.263 59.0311 120.923 229.437 59.494 120.59 224.379 60.9089 120.618 
207.861 63.0082 120.43 207.481 63.0519 121.139 221.629 62.1333 121.154 
223.363 61.2968 120.686 207.517 63.6646 121.231 207.803 65.0194 121.5 
208.122 65.2914 121.382 209.198 65.8491 121.341 210.026 65.8763 121.18 
211.475 65.8797 121.515 236.459 41.8986 121.754 232.018 45.6792 121.984 
231.114 48.2862 121.978 243.576 50.8232 122.07 238.973 55.1147 121.96 
228.88 57.0086 121.84 209.076 59.686 122.571 220.816 59.3333 120.841 
227.904 58.8547 121.104 231.973 58.1677 121.679 223.628 59.8959 121.279 
224.917 59.6763 120.99 227.051 59.485 120.848 229.501 58.8087 121.242 
207.078 62.3197 122.029 206.997 62.148 122.401 223.248 60.953 121.46 
215.652 65.0005 121.617 207.361 65.3926 122.325 214.486 65.3756 121.519 
207.846 66.259 122.496 208.353 66.1505 122.007 208.029 66.4222 122.479 
208.274 66.3785 122.266 208.644 66.3286 122.304 208.137 66.434 122.355 
232.4 43.7028 123.185 231.712 43.9513 123.958 231.584 44.816 123.767 
231.062 49.9844 123.031 244.682 51.2859 123.703 240.441 54.1854 122.824 
232.716 57.724 122.196 217.006 59.1383 122.305 220.786 59.6104 121.872 
231.368 57.819 122.137 207.454 61.2996 122.79 207.086 61.8499 122.639 
222.164 60.9592 122.209 221.274 61.5005 122.651 221.706 61.2169 122.481 
206.647 63.9626 123.358 207.002 64.705 122.597 207.569 66.232 122.83 
207.38 66.2899 123.183 207.58 66.4609 123.022 207.499 66.4756 123.18 
207.938 66.4342 122.875 208.194 66.4399 122.445 207.565 66.5378 123.082 
251.388 38.9298 124.448 249.348 41.5337 123.342 233.58 41.9993 123.769 
231.244 43.3455 124.784 231.573 45.4202 123.549 231.455 46.6359 123.588 
239.813 54.5565 123.527 236.433 56.0218 123.71 231.126 55.7136 123.339 
231.206 56.783 122.858 232.11 57.3828 122.635 208.526 60.2474 123.883 
209.532 59.6409 123.694 210.895 59.3583 123.523 231.451 57.4014 122.502 
221.302 60.2924 122.494 206.946 62.2858 124.012 220.868 61.4589 122.935 
221.175 61.2442 122.856 213.799 64.5771 124.011 211.193 65.7072 123.786 
210.767 65.6214 124.415 207.082 66.0619 123.543 207.025 66.1907 123.933 
206.819 66.0832 124.302 207.477 66.359 123.506 207.213 66.2807 124.034 
207.607 66.5094 123.128 206.999 66.2243 124.163 251.413 44.69 125.128 
249.084 48.1651 125.217 247.127 50.2933 125.892 243.616 52.338 124.788 
231.973 54.2802 124.711 239.568 54.3103 125.101 208.842 60.0666 124.246 
209.067 59.9775 124.37 207.76 61.0867 124.348 217.227 60.0729 123.717 
220.411 60.6785 123.179 218.436 60.4395 123.775 219.772 61.1328 123.546 
219.988 60.8819 123.445 221.105 61.0523 122.931 206.563 63.7552 124.36 
217.391 62.0791 124.242 206.342 64.9713 124.939 206.3 65.2947 124.872 
206.38 65.3953 124.548 206.341 65.5672 124.807 206.521 65.7901 124.552 
206.395 65.7361 124.907 206.506 65.8678 124.813 206.768 65.983 124.732 
207.075 66.1882 124.352 253.323 35.6714 126.49 250.604 36.008 126.21 
252.647 35.7817 126.349 231.264 48.6166 125.428 248.929 49.0365 126.185 
[...]
POINT_DATA 1423
COLOR_SCALARS scalars 3
0.0941176 0.501961 0.392157 0.0941176 0.501961 0.392157 0.0941176 0.501961 0.392157 
0.0941176 0.501961 0.392157 0.0941176 0.501961 0.392157 
0.0941176 0.501961 0.392157 0.0941176 0.501961 0.392157 
0.0941176 0.501961 0.392157 0.0941176 0.501961 0.392157 
0.0941176 0.501961 0.392157 0.0941176 0.501961 0.392157 
0.0941176 0.501961 0.392157 0.0941176 0.501961 0.392157 
0.0941176 0.501961 0.392157 0.0941176 0.501961 0.392157 
0.0941176 0.501961 0.392157 0.0941176 0.501961 0.392157 
0.0941176 0.501961 0.392157 0.0941176 0.501961 0.392157 
0.0941176 0.501961 0.392157 0.0941176 0.501961 0.392157 
0.0941176 0.501961 0.392157 0.0941176 0.501961 0.392157 
0.0941176 0.501961 0.392157 0.0941176 0.501961 0.392157 
0.0941176 0.501961 0.392157 0.0941176 0.501961 0.392157 
0.0941176 0.501961 0.392157 0.0941176 0.501961 0.392157 
0.0941176 0.501961 0.392157 0.0941176 0.501961 0.392157 
0.0941176 0.501961 0.392157 0.0941176 0.501961 0.392157 
0.0941176 0.501961 0.392157 0.0941176 0.501961 0.392157 
0.0941176 0.501961 0.392157 0.0941176 0.501961 0.392157 
0.0941176 0.501961 0.392157 0.0941176 0.501961 0.392157 
0.0941176 0.501961 0.392157 0.0941176 0.501961 0.392157 
0.0941176 0.501961 0.392157 0.0941176 0.501961 0.392157 
0.0941176 0.501961 0.392157 0.0941176 0.501961 0.392157 
0.0941176 0.501961 0.392157 0.0941176 0.501961 0.392157 
0.0941176 0.501961 0.392157 0.0941176 0.501961 0.392157 
0.0941176 0.501961 0.392157 0.0941176 0.501961 0.392157 
0.0941176 0.501961 0.392157 0.0941176 0.501961 0.392157 
0.0941176 0.501961 0.392157 0.0941176 0.501961 0.392157 
0.0941176 0.501961 0.392157 0.0941176 0.501961 0.392157 
0.0941176 0.501961 0.392157 0.0941176 0.501961 0.392157 
0.0941176 0.501961 0.392157 0.0941176 0.501961 0.392157 
0.0941176 0.501961 0.392157 0.0941176 0.501961 0.392157 
0.0941176 0.501961 0.392157 0.0941176 0.501961 0.392157 
0.0941176 0.501961 0.392157 0.0941176 0.501961 0.392157 
0.0941176 0.501961 0.392157 0.0941176 0.501961 0.392157 
0.0941176 0.501961 0.392157 0.0941176 0.501961 0.392157 
0.0941176 0.501961 0.392157 0.0941176 0.501961 0.392157 
0.0941176 0.501961 0.392157 0.0941176 0.501961 0.392157 
0.0941176 0.501961 0.392157 0.0941176 0.501961 0.392157 
0.0941176 0.501961 0.392157 0.0941176 0.501961 0.392157 
0.0941176 0.501961 0.392157 0.0941176 0.501961 0.392157 
0.0941176 0.501961 0.392157 0.0941176 0.501961 0.392157 
0.0941176 0.501961 0.392157 0.0941176 0.501961 0.392157 
0.0941176 0.501961 0.392157 0.0941176 0.501961 0.392157 
0.0941176 0.501961 0.392157 0.0941176 0.501961 0.392157 
0.0941176 0.501961 0.392157 0.0941176 0.501961 0.392157 
0.0941176 0.501961 0.392157 0.0941176 0.501961 0.392157 
0.0941176 0.501961 0.392157 0.0941176 0.501961 0.392157 
0.0941176 0.501961 0.392157 0.0941176 0.501961 0.392157 
0.0941176 0.501961 0.392157 0.0941176 0.501961 0.392157 
0.0941176 0.501961 0.392157 0.0941176 0.501961 0.392157 
0.0941176 0.501961 0.392157 0.0941176 0.501961 0.392157 
0.0941176 0.501961 0.392157 0.0941176 0.501961 0.392157 
0.0941176 0.501961 0.392157 0.0941176 0.501961 0.392157 
0.0941176 0.501961 0.392157 0.0941176 0.501961 0.392157 
0.0941176 0.501961 0.392157 0.0941176 0.501961 0.392157 
0.0941176 0.501961 0.392157 0.0941176 0.501961 0.392157 
0.0941176 0.501961 0.392157 0.0941176 0.501961 0.392157 
0.0941176 0.501961 0.392157 0.0941176 0.501961 0.392157 
0.0941176 0.501961 0.392157 0.0941176 0.501961 0.392157 
0.0941176 0.501961 0.392157 0.0941176 0.501961 0.392157 
0.0941176 0.501961 0.392157 0.0941176 0.501961 0.392157 
0.0941176 0.501961 0.392157 0.0941176 0.501961 0.392157 
0.0941176 0.501961 0.392157 0.0941176 0.501961 0.392157 
0.0941176 0.501961 0.392157 0.0941176 0.501961 0.392157 
0.0941176 0.501961 0.392157 0.0941176 0.501961 0.392157 
0.0941176 0.501961 0.392157 0.0941176 0.501961 0.392157 
0.0941176 0.501961 0.392157 0.0941176 0.501961 0.392157 
0.0941176 0.501961 0.392157 0.0941176 0.501961 0.392157 
0.0941176 0.501961 0.392157 0.0941176 0.501961 0.392157 
0.0941176 0.501961 0.392157 0.0941176 0.501961 0.392157 
0.0941176 0.501961 0.392157 0.0941176 0.501961 0.392157 
0.0941176 0.501961 0.392157 0.0941176 0.501961 0.392157 
0.0941176 0.501961 0.392157 0.0941176 0.501961 0.392157 
0.0941176 0.501961 0.392157 0.0941176 0.501961 0.392157 
0.0941176 0.501961 0.392157 0.0941176 0.501961 0.392157 
0.0941176 0.501961 0.392157 0.0941176 0.501961 0.392157 
0.0941176 0.501961 0.392157 0.0941176 0.501961 0.392157 
0.0941176 0.501961 0.392157 0.0941176 0.501961 0.392157 
0.0941176 0.501961 0.392157 0.0941176 0.501961 0.392157 
0.0941176 0.501961 0.392157 0.0941176 0.501961 0.392157 
0.0941176 0.501961 0.392157 0.0941176 0.501961 0.392157 
0.0941176 0.501961 0.392157 0.0941176 0.501961 0.392157 
0.0941176 0.501961 0.392157 0.0941176 0.501961 0.392157 
0.0941176 0.501961 0.392157 0.0941176 0.501961 0.392157 
0.0941176 0.501961 0.392157 0.0941176 0.501961 0.392157 
0.0941176 0.501961 0.392157 0.0941176 0.501961 0.392157 
0.0941176 0.501961 0.392157 0.0941176 0.501961 0.392157 
0.0941176 0.501961 0.392157 0.0941176 0.501961 0.392157 
0.0941176 0.501961 0.392157 0.0941176 0.501961 0.392157 
0.0941176 0.501961 0.392157 0.0941176 0.501961 0.392157 
0.0941176 0.501961 0.392157 0.0941176 0.501961 0.392157 
0.0941176 0.501961 0.392157 0.0941176 0.501961 0.392157 
0.0941176 0.501961 0.392157 0.0941176 0.501961 0.392157 
0.0941176 0.501961 0.392157 0.0941176 0.501961 0.392157 
0.0941176 0.501961 0.392157 0.0941176 0.501961 0.392157 
0.0941176 0.501961 0.392157 0.0941176 0.501961 0.392157 
0.0941176 0.501961 0.392157 0.0941176 0.501961 0.392157 
0.0941176 0.501961 0.392157 0.0941176 0.501961 0.392157 
0.0941176 0.501961 0.392157 0.0941176 0.501961 0.392157 
0.0941176 0.501961 0.392157 0.0941176 0.501961 0.392157 
0.0941176 0.501961 0.392157 0.0941176 0.501961 0.392157 
0.0941176 0.501961 0.392157 0.0941176 0.501961 0.392157 
0.0941176 0.501961 0.392157 0.0941176 0.501961 0.392157 
0.0941176 0.501961 0.392157 0.0941176 0.501961 0.392157 
0.0941176 0.501961 0.392157 0.0941176 0.501961 0.392157 
0.0941176 0.501961 0.392157 0.0941176 0.501961 0.392157 
0.0941176 0.501961 0.392157 0.0941176 0.501961 0.392157 
0.0941176 0.501961 0.392157 0.0941176 0.501961 0.392157 
0.0941176 0.501961 0.392157 0.0941176 0.501961 0.392157 
0.0941176 0.501961 0.392157 0.0941176 0.501961 0.392157 
0.0941176 0.501961 0.392157 0.0941176 0.501961 0.392157 
0.0941176 0.501961 0.392157 0.0941176 0.501961 0.392157 
0.0941176 0.501961 0.392157 0.0941176 0.501961 0.392157 
0.0941176 0.501961 0.392157 0.0941176 0.501961 0.392157 
0.0941176 0.501961 0.392157 0.0941176 0.501961 0.392157 
0.0941176 0.501961 0.392157 0.0941176 0.501961 0.392157 
0.0941176 0.501961 0.392157 0.0941176 0.501961 0.392157 
0.0941176 0.501961 0.392157 0.0941176 0.501961 0.392157 
0.0941176 0.501961 0.392157 0.0941176 0.501961 0.392157 
0.0941176 0.501961 0.392157 0.0941176 0.501961 0.392157 
0.0941176 0.501961 0.392157 0.0941176 0.501961 0.392157 
0.0941176 0.501961 0.392157 0.0941176 0.501961 0.392157 
0.0941176 0.501961 0.392157 0.0941176 0.501961 0.392157 
0.0941176 0.501961 0.392157 0.0941176 0.501961 0.392157 
0.0941176 0.501961 0.392157 0.0941176 0.501961 0.392157 
0.0941176 0.501961 0.392157 0.0941176 0.501961 0.392157 
0.0941176 0.501961 0.392157 0.0941176 0.501961 0.392157 
0.0941176 0.501961 0.392157 0.0941176 0.501961 0.392157 
0.0941176 0.501961 0.392157 0.0941176 0.501961 0.392157 
0.0941176 0.501961 0.392157 0.0941176 0.501961 0.392157 
0.0941176 0.501961 0.392157 0.0941176 0.501961 0.392157 
0.0941176 0.501961 0.392157 0.0941176 0.501961 0.392157 
0.0941176 0.501961 0.392157 0.0941176 0.501961 0.392157 
0.0941176 0.501961 0.392157 0.0941176 0.501961 0.392157 
0.0941176 0.501961 0.392157 0.0941176 0.501961 0.392157 
0.0941176 0.501961 0.392157 0.0941176 0.501961 0.392157 
0.0941176 0.501961 0.392157 0.0941176 0.501961 0.392157 
0.0941176 0.501961 0.392157 0.0941176 0.501961 0.392157 
0.0941176 0.501961 0.392157 0.0941176 0.501961 0.392157 
0.0941176 0.501961 0.392157 0.0941176 0.501961 0.392157 
0.0941176 0.501961 0.392157 0.0941176 0.501961 0.392157 
0.0941176 0.501961 0.392157 0.0941176 0.501961 0.392157 
0.0941176 0.501961 0.392157 0.0941176 0.501961 0.392157 
0.0941176 0.501961 0.392157 0.0941176 0.501961 0.392157 
0.0941176 0.501961 0.392157 0.0941176 0.501961 0.392157 
0.0941176 0.501961 0.392157 0.0941176 0.501961 0.392157 
0.0941176 0.501961 0.392157 0.0941176 0.501961 0.392157 
0.0941176 0.501961 0.392157 0.0941176 0.501961 0.392157 
0.0941176 0.501961 0.392157 0.0941176 0.501961 0.392157 
0.0941176 0.501961 0.392157 0.0941176 0.501961 0.392157 
0.0941176 0.501961 0.392157 0.0941176 0.501961 0.392157 
0.0941176 0.501961 0.392157 0.0941176 0.501961 0.392157 
0.0941176 0.501961 0.392157 0.0941176 0.501961 0.392157 
0.0941176 0.501961 0.392157 0.0941176 0.501961 0.392157 
0.0941176 0.501961 0.392157 0.0941176 0.501961 0.392157 
0.0941176 0.501961 0.392157 0.0941176 0.501961 0.392157 
0.0941176 0.501961 0.392157 0.0941176 0.501961 0.392157 
0.0941176 0.501961 0.392157 0.0941176 0.501961 0.392157 
0.0941176 0.501961 0.392157 0.0941176 0.501961 0.392157 
0.0941176 0.501961 0.392157 0.0941176 0.501961 0.392157 
0.0941176 0.501961 0.392157 0.0941176 0.501961 0.392157 
0.0941176 0.501961 0.392157 0.0941176 0.501961 0.392157 
0.0941176 0.501961 0.392157 0.0941176 0.501961 0.392157 
0.0941176 0.501961 0.392157 0.0941176 0.501961 0.392157 
0.0941176 0.501961 0.392157 0.0941176 0.501961 0.392157 
0.0941176 0.501961 0.392157 0.0941176 0.501961 0.392157 
0.0941176 0.501961 0.392157 0.0941176 0.501961 0.392157 
0.0941176 0.501961 0.392157 0.0941176 0.501961 0.392157 
0.0941176 0.501961 0.392157 0.0941176 0.501961 0.392157 
0.0941176 0.501961 0.392157 0.0941176 0.501961 0.392157 
0.0941176 0.501961 0.392157 0.0941176 0.501961 0.392157 
0.0941176 0.501961 0.392157 0.0941176 0.501961 0.392157 
0.0941176 0.501961 0.392157 0.0941176 0.501961 0.392157 
0.0941176 0.501961 0.392157 0.0941176 0.501961 0.392157 
0.0941176 0.501961 0.392157 0.0941176 0.501961 0.392157 
0.0941176 0.501961 0.392157 0.0941176 0.501961 0.392157 
0.0941176 0.501961 0.392157 0.0941176 0.501961 0.392157 
0.0941176 0.501961 0.392157 0.0941176 0.501961 0.392157 
0.0941176 0.501961 0.392157 0.0941176 0.501961 0.392157 
0.0941176 0.501961 0.392157 0.0941176 0.501961 0.392157 
0.0941176 0.501961 0.392157 0.0941176 0.501961 0.392157 
0.0941176 0.501961 0.392157 0.0941176 0.501961 0.392157 
0.0941176 0.501961 0.392157 0.0941176 0.501961 0.392157 
0.0941176 0.501961 0.392157 0.0941176 0.501961 0.392157 
0.0941176 0.501961 0.392157 0.0941176 0.501961 0.392157 
0.0941176 0.501961 0.392157 0.0941176 0.501961 0.392157 
0.0941176 0.501961 0.392157 0.0941176 0.501961 0.392157 
0.0941176 0.501961 0.392157 0.0941176 0.501961 0.392157 
0.0941176 0.501961 0.392157 0.0941176 0.501961 0.392157 
0.0941176 0.501961 0.392157 0.0941176 0.501961 0.392157 
0.0941176 0.501961 0.392157 0.0941176 0.501961 0.392157 
0.0941176 0.501961 0.392157 0.0941176 0.501961 0.392157 
0.0941176 0.501961 0.392157 0.0941176 0.501961 0.392157 
0.0941176 0.501961 0.392157 0.0941176 0.501961 0.392157 
0.0941176 0.501961 0.392157 0.0941176 0.501961 0.392157 
0.0941176 0.501961 0.392157 0.0941176 0.501961 0.392157 
0.0941176 0.501961 0.392157 0.0941176 0.501961 0.392157 
0.0941176 0.501961 0.392157 0.0941176 0.501961 0.392157 
0.0941176 0.501961 0.392157 0.0941176 0.501961 0.392157 
0.0941176 0.501961 0.392157 0.0941176 0.501961 0.392157 
0.0941176 0.501961 0.392157 0.0941176 0.501961 0.392157 
0.0941176 0.501961 0.392157 0.0941176 0.501961 0.392157 
0.0941176 0.501961 0.392157 0.0941176 0.501961 0.392157 
0.0941176 0.501961 0.392157 0.0941176 0.501961 0.392157 
0.0941176 0.501961 0.392157 0.0941176 0.501961 0.392157 
0.0941176 0.501961 0.392157 0.0941176 0.501961 0.392157 
0.0941176 0.501961 0.392157 0.0941176 0.501961 0.392157 
0.0941176 0.501961 0.392157 0.0941176 0.501961 0.392157 
0.0941176 0.501961 0.392157 0.0941176 0.501961 0.392157 
0.0941176 0.501961 0.392157 0.0941176 0.501961 0.392157 
0.0941176 0.501961 0.392157 0.0941176 0.501961 0.392157 
0.0941176 0.501961 0.392157 0.0941176 0.501961 0.392157 
0.0941176 0.501961 0.392157 0.0941176 0.501961 0.392157 
0.0941176 0.501961 0.392157 0.0941176 0.501961 0.392157 
0.0941176 0.501961 0.392157 0.0941176 0.501961 0.392157 
0.0941176 0.501961 0.392157 0.0941176 0.501961 0.392157 
0.0941176 0.501961 0.392157 0.0941176 0.501961 0.392157 
0.0941176 0.501961 0.392157 0.0941176 0.501961 0.392157 
0.0941176 0.501961 0.392157 0.0941176 0.501961 0.392157 
0.0941176 0.501961 0.392157 0.0941176 0.501961 0.392157 
0.0941176 0.501961 0.392157 0.0941176 0.501961 0.392157 
0.0941176 0.501961 0.392157 0.0941176 0.501961 0.392157 
0.0941176 0.501961 0.392157 0.0941176 0.501961 0.392157 
0.0941176 0.501961 0.392157 0.0941176 0.501961 0.392157 
0.0941176 0.501961 0.392157 0.0941176 0.501961 0.392157 
0.0941176 0.501961 0.392157 0.0941176 0.501961 0.392157 
0.0941176 0.501961 0.392157 0.0941176 0.501961 0.392157 
0.0941176 0.501961 0.392157 0.0941176 0.501961 0.392157 
0.0941176 0.501961 0.392157 0.0941176 0.501961 0.392157 
0.0941176 0.501961 0.392157 0.0941176 0.501961 0.392157 
0.0941176 0.501961 0.392157 0.0941176 0.501961 0.392157 
0.0941176 0.501961 0.392157 0.0941176 0.501961 0.392157 
0.0941176 0.501961 0.392157 0.0941176 0.501961 0.392157 
0.0941176 0.501961 0.392157 0.0941176 0.501961 0.392157 
0.0941176 0.501961 0.392157 0.0941176 0.501961 0.392157 
0.0941176 0.501961 0.392157 0.0941176 0.501961 0.392157 
0.0941176 0.501961 0.392157 0.0941176 0.501961 0.392157 
0.0941176 0.501961 0.392157 0.0941176 0.501961 0.392157 
0.0941176 0.501961 0.392157 0.0941176 0.501961 0.392157 
0.0941176 0.501961 0.392157 0.0941176 0.501961 0.392157 
0.0941176 0.501961 0.392157 0.0941176 0.501961 0.392157 
0.0941176 0.501961 0.392157 0.0941176 0.501961 0.392157 
0.0941176 0.501961 0.392157 0.0941176 0.501961 0.392157 
0.0941176 0.501961 0.392157 0.0941176 0.501961 0.392157 
0.0941176 0.501961 0.392157 0.0941176 0.501961 0.392157 
0.0941176 0.501961 0.392157 0.0941176 0.501961 0.392157 
0.0941176 0.501961 0.392157 0.0941176 0.501961 0.392157 
0.0941176 0.501961 0.392157 0.0941176 0.501961 0.392157 
0.0941176 0.501961 0.392157 0.0941176 0.501961 0.392157 
0.0941176 0.501961 0.392157 0.0941176 0.501961 0.392157 
0.0941176 0.501961 0.392157 0.0941176 0.501961 0.392157 
0.0941176 0.501961 0.392157 0.0941176 0.501961 0.392157 
0.0941176 0.501961 0.392157 0.0941176 0.501961 0.392157 
0.0941176 0.501961 0.392157 0.0941176 0.501961 0.392157 
0.0941176 0.501961 0.392157 0.0941176 0.501961 0.392157 
0.0941176 0.501961 0.392157 0.0941176 0.501961 0.392157 
0.0941176 0.501961 0.392157 0.0941176 0.501961 0.392157 
0.0941176 0.501961 0.392157 0.0941176 0.501961 0.392157 
0.0941176 0.501961 0.392157 0.0941176 0.501961 0.392157 
0.0941176 0.501961 0.392157 0.0941176 0.501961 0.392157 
0.0941176 0.501961 0.392157 0.0941176 0.501961 0.392157 
0.0941176 0.501961 0.392157 0.0941176 0.501961 0.392157 
0.0941176 0.501961 0.392157 0.0941176 0.501961 0.392157 
0.0941176 0.501961 0.392157 0.0941176 0.501961 0.392157 
0.0941176 0.501961 0.392157 0.0941176 0.501961 0.392157 
0.0941176 0.501961 0.392157 0.0941176 0.501961 0.392157 
0.0941176 0.501961 0.392157 0.0941176 0.501961 0.392157 
0.0941176 0.501961 0.392157 0.0941176 0.501961 0.392157 
0.0941176 0.501961 0.392157 0.0941176 0.501961 0.392157 
0.0941176 0.501961 0.392157 0.0941176 0.501961 0.392157 
0.0941176 0.501961 0.392157 0.0941176 0.501961 0.392157 
0.0941176 0.501961 0.392157 0.0941176 0.501961 0.392157 
0.0941176 0.501961 0.392157 0.0941176 0.501961 0.392157 
0.0941176 0.501961 0.392157 0.0941176 0.501961 0.392157 
0.0941176 0.501961 0.392157 0.0941176 0.501961 0.392157 
0.0941176 0.501961 0.392157 0.0941176 0.501961 0.392157 
0.0941176 0.501961 0.392157 0.0941176 0.501961 0.392157 
0.0941176 0.501961 0.392157 0.0941176 0.501961 0.392157 
0.0941176 0.501961 0.392157 0.0941176 0.501961 0.392157 
0.0941176 0.501961 0.392157 0.0941176 0.501961 0.392157 
0.0941176 0.501961 0.392157 0.0941176 0.501961 0.392157 
0.0941176 0.501961 0.392157 0.0941176 0.501961 0.392157 
0.0941176 0.501961 0.392157 0.0941176 0.501961 0.392157 
0.0941176 0.501961 0.392157 0.0941176 0.501961 0.392157 
0.0941176 0.501961 0.392157 0.0941176 0.501961 0.392157 
0.0941176 0.501961 0.392157 0.0941176 0.501961 0.392157 
0.0941176 0.501961 0.392157 0.0941176 0.501961 0.392157 
0.0941176 0.501961 0.392157 0.0941176 0.501961 0.392157 
0.0941176 0.501961 0.392157 0.0941176 0.501961 0.392157 
0.0941176 0.501961 0.392157 0.0941176 0.501961 0.392157 
0.0941176 0.501961 0.392157 0.0941176 0.501961 0.392157 
0.0941176 0.501961 0.392157 0.0941176 0.501961 0.392157 
0.0941176 0.501961 0.392157 0.0941176 0.501961 0.392157 
0.0941176 0.501961 0.392157 0.0941176 0.501961 0.392157 
0.0941176 0.501961 0.392157 0.0941176 0.501961 0.392157 
0.0941176 0.501961 0.392157 0.0941176 0.501961 0.392157 
0.0941176 0.501961 0.392157 0.0941176 0.501961 0.392157 
0.0941176 0.501961 0.392157 0.0941176 0.501961 0.392157 
0.0941176 0.501961 0.392157 0.0941176 0.501961 0.392157 
0.0941176 0.501961 0.392157 0.0941176 0.501961 0.392157 
0.0941176 0.501961 0.392157 0.0941176 0.501961 0.392157 
0.0941176 0.501961 0.392157 0.0941176 0.501961 0.392157 
0.0941176 0.501961 0.392157 0.0941176 0.501961 0.392157 
0.0941176 0.501961 0.392157 0.0941176 0.501961 0.392157 
0.0941176 0.501961 0.392157 0.0941176 0.501961 0.392157 
0.0941176 0.501961 0.392157 0.0941176 0.501961 0.392157 
0.0941176 0.501961 0.392157 0.0941176 0.501961 0.392157 
0.0941176 0.501961 0.392157 0.0941176 0.501961 0.392157 
0.0941176 0.501961 0.392157 0.0941176 0.501961 0.392157 
0.0941176 0.501961 0.392157 0.0941176 0.501961 0.392157 
0.0941176 0.501961 0.392157 0.0941176 0.501961 0.392157 
0.0941176 0.501961 0.392157 0.0941176 0.501961 0.392157 
0.0941176 0.501961 0.392157 0.0941176 0.501961 0.392157 
0.0941176 0.501961 0.392157 0.0941176 0.501961 0.392157 
0.0941176 0.501961 0.392157 0.0941176 0.501961 0.392157 
0.0941176 0.501961 0.392157 0.0941176 0.501961 0.392157 
0.0941176 0.501961 0.392157 0.0941176 0.501961 0.392157 
0.0941176 0.501961 0.392157 0.0941176 0.501961 0.392157 
0.0941176 0.501961 0.392157 0.0941176 0.501961 0.392157 
0.0941176 0.501961 0.392157 0.0941176 0.501961 0.392157 
0.0941176 0.501961 0.392157 0.0941176 0.501961 0.392157 
0.0941176 0.501961 0.392157 0.0941176 0.501961 0.392157 
0.0941176 0.501961 0.392157 0.0941176 0.501961 0.392157 
0.0941176 0.501961 0.392157 0.0941176 0.501961 0.392157 
0.0941176 0.501961 0.392157 0.0941176 0.501961 0.392157 
0.0941176 0.501961 0.392157 0.0941176 0.501961 0.392157 
0.0941176 0.501961 0.392157 0.0941176 0.501961 0.392157 
0.0941176 0.501961 0.392157 0.0941176 0.501961 0.392157 
0.0941176 0.501961 0.392157 0.0941176 0.501961 0.392157 
0.0941176 0.501961 0.392157 0.0941176 0.501961 0.392157 
0.0941176 0.501961 0.392157 0.0941176 0.501961 0.392157 
0.0941176 0.501961 0.392157 0.0941176 0.501961 0.392157 
0.0941176 0.501961 0.392157 0.0941176 0.501961 0.392157 
0.0941176 0.501961 0.392157 0.0941176 0.501961 0.392157 
0.0941176 0.501961 0.392157 0.0941176 0.501961 0.392157 
0.0941176 0.501961 0.392157 0.0941176 0.501961 0.392157 
0.0941176 0.501961 0.392157 0.0941176 0.501961 0.392157 
0.0941176 0.501961 0.392157 0.0941176 0.501961 0.392157 
0.0941176 0.501961 0.392157 0.0941176 0.501961 0.392157 
0.0941176 0.501961 0.392157 0.0941176 0.501961 0.392157 
0.0941176 0.501961 0.392157 0.0941176 0.501961 0.392157 
0.0941176 0.501961 0.392157 0.0941176 0.501961 0.392157 
0.0941176 0.501961 0.392157 0.0941176 0.501961 0.392157 
0.0941176 0.501961 0.392157 0.0941176 0.501961 0.392157 
0.0941176 0.501961 0.392157 0.0941176 0.501961 0.392157 
0.0941176 0.501961 0.392157 0.0941176 0.501961 0.392157 
0.0941176 0.501961 0.392157 0.0941176 0.501961 0.392157 
0.0941176 0.501961 0.392157 0.0941176 0.501961 0.392157 
0.0941176 0.501961 0.392157 0.0941176 0.501961 0.392157 