# vtk DataFile Version 4.2
vtk output
ASCII
DATASET POLYDATA
POINTS 627 float
196.266 98.5024 122.377 197.152 98.508 122.637 196.952 98.2481 122.717 
194.45 98.8705 122.367 196.053 98.8452 122.236 191.245 100.494 122.514 
191.036 100.629 122.548 195.961 99.8523 122.064 195.782 100.044 122.101 
196.036 100.014 122.073 191.31 100.668 122.505 195.768 97.8856 122.85 
192.231 99.6858 122.58 195.848 99.4679 122.152 190.334 100.321 122.917 
190.12 100.897 122.861 191.149 99.8154 122.828 190.167 101.349 122.854 
191.637 100.942 122.522 193.572 100.757 122.347 197.173 97.2326 124.013 
189.536 100.691 123.147 188.926 100.356 123.549 199.781 99.5729 123.799 
187.902 100.663 123.883 203.414 101.476 124.363 185.952 102.204 123.909 
185.665 102.108 124.047 188.15 102.09 123.428 203.279 101.886 124.189 
183.84 103.043 124.212 183.813 103.064 124.231 183.935 103.055 124.214 
183.96 102.994 124.239 184.147 103.016 124.238 201.259 102.486 123.699 
183.878 103.1 124.259 184.121 103.153 124.279 185.889 103.046 123.885 
196.414 96.3089 124.949 193.831 97.1708 123.979 192.115 97.9701 123.73 
189.005 98.9865 124.565 188.228 99.72 124.275 185.484 101.943 124.286 
185.489 101.47 124.793 203.855 101.072 124.786 184.237 102.852 124.397 
184.243 102.715 124.689 184.112 102.921 124.582 184.591 102.351 124.715 
184.026 103.219 124.51 184.732 103.059 124.214 205.282 103.123 124.613 
205.694 103.449 124.721 184.07 103.686 124.584 184.077 103.547 124.515 
184.315 103.491 124.411 184.558 104.053 124.644 202.389 99.4974 125.402 
184.954 101.88 124.899 184.717 102.097 125.195 185.687 100.894 125.442 
184.381 102.572 125.041 184.118 103.249 124.979 209.951 102.722 126.122 
210.903 103.295 126.317 210.27 103.783 125.983 184.401 104.301 125.096 
202.969 104.9 124.687 206.499 105.11 125.318 208.475 104.498 125.578 
184.612 104.732 125.158 184.573 104.773 125.356 198.602 105.729 124.755 
184.768 105.015 125.346 185.188 105.433 125.516 196.372 95.5599 126.481 
187.045 99.2617 125.786 186.241 99.9217 126.069 210.051 102.415 126.348 
210.557 102.59 126.474 212.378 103.587 126.932 212.817 103.765 127.101 
213.283 103.646 127.368 213.145 103.907 127.294 211.208 104.67 126.612 
205.809 105.823 125.59 209.333 105.208 126.178 185.14 105.583 126.013 
186.23 106.291 125.77 189.634 107.289 125.751 199.584 107.306 125.831 
201.386 106.71 125.557 185.494 106.019 126.078 186.585 106.777 126.098 
194.896 95.3218 126.697 194.421 95.2885 126.875 186.574 99.3054 126.962 
202.471 98.7458 126.573 202.788 98.647 127.05 208.391 101.009 127.25 
209.627 101.669 127.029 210.991 102.364 126.911 212.282 102.651 127.427 
213.598 103.352 127.682 214.317 103.742 127.956 214.18 103.5 127.953 
214.549 103.577 128.19 214.067 103.98 127.951 214.577 103.734 128.075 
214.61 103.785 128.106 210.516 105.357 126.826 212.45 104.972 127.906 
187.255 107.107 126.113 206.855 106.568 126.487 209.196 106.06 126.852 
210.496 105.971 127.68 185.985 106.693 126.906 207.208 107.003 127.125 
186.422 107.222 126.969 188.693 108.457 126.837 205.635 107.824 127.644 
206.686 107.497 127.685 208.899 106.856 127.966 187.761 108.487 127.251 
200.924 108.762 127.226 188.763 97.3381 127.45 185.775 100.766 127.58 
204.537 99.2123 127.611 212.495 102.357 127.885 213.63 102.947 128.021 
214.601 103.421 128.342 214.461 103.35 128.24 214.57 103.316 128.434 
214.624 103.727 128.17 214.544 103.707 128.361 214.55 103.463 128.543 
185.518 104.337 128.078 213.358 104.562 128.255 213.037 104.769 128.392 
214.222 103.95 128.493 185.793 105.705 128.047 211.992 105.324 128.371 
185.969 106.59 127.503 205.438 108.205 128.201 208.064 107.284 128.369 
187.239 108.657 128.242 197.713 109.692 127.62 187.528 108.971 128.176 
188.044 109.548 128.403 194.937 94.393 128.999 187.582 98.2083 128.676 
186.382 99.5379 127.728 210.469 101.32 128.822 211.328 101.645 128.463 
213.253 102.433 128.443 213.472 102.454 128.711 214.032 102.95 128.365 
214.376 103.136 128.465 214.526 103.245 128.605 214.414 103.691 128.636 
214.262 103.522 128.965 214.412 103.251 128.845 212.285 105.112 129.257 
213.749 104.094 129.001 186.467 106.856 128.605 208.356 107.236 129.54 
206.264 108.078 129.164 202.497 109.497 129.405 202.773 109.444 129.953 
188.569 110.207 128.697 199.015 110.349 128.859 198.775 110.679 129.426 
188.789 111.044 129.604 195.899 93.8537 130.69 191.418 95.2047 129.502 
189.614 96.382 129.046 186.656 99.599 128.773 203.573 98.1229 129.316 
210.163 101.229 129.501 213.735 102.593 128.846 214.398 103.1 128.734 
214.27 103.049 128.955 213.98 103.766 129.145 213.788 103.514 129.472 
212.139 105.042 129.703 213.095 104.191 129.658 211.269 105.518 129.968 
187.553 108.777 129.595 188.531 110.966 129.974 189.742 111.886 129.865 
189.603 112.039 130.589 191.033 112.787 130.129 195.147 93.7179 131.089 
196.371 93.7561 131.517 192.716 94.3728 130.632 190.789 95.4129 130.229 
190.389 95.6755 130.442 188.96 96.9245 129.831 213.563 102.627 129.524 
213.793 102.856 129.446 213.371 103.761 129.756 213.223 103.414 129.986 
212.402 104.187 130.363 210.474 105.49 131.029 208.391 106.812 131.125 
202.738 109.322 131.345 198.977 110.857 131.15 189.03 111.385 130.418 
197.161 111.522 131.092 190.252 112.784 130.753 192.785 113.022 130.486 
190.31 113.063 131.177 193.241 113.092 131.125 190.884 113.513 131.38 
191.309 113.52 131.382 190.018 96.1319 131.425 189.051 97.1233 130.857 
188.683 97.8537 131.032 188.059 100.477 131.375 213.274 102.518 129.684 
213.382 102.748 129.769 212.336 103.806 130.619 211.422 104.301 131.146 
189.21 108.775 132.24 189.258 110.315 131.838 189.539 110.611 132.104 
189.768 111.969 131.742 189.888 112.322 131.695 190.114 112.522 131.861 
190.025 112.63 131.564 190.707 113.578 131.542 190.835 113.613 131.591 
191.09 113.544 131.631 190.74 113.611 131.635 196.565 93.9029 132.721 
191.962 94.6334 131.868 202.775 97.113 132.395 206.444 99.849 132.412 
208.983 102.011 132.515 208.854 102.414 132.962 210.357 102.951 131.947 
210.234 104.028 132.227 211.867 103.58 131.004 209.563 104.652 132.62 
208.82 105.437 132.734 190.037 110.807 132.546 197.381 111.08 133.179 
190.891 111.98 132.779 190.816 112.944 132.142 191.24 112.96 132.351 
191.699 113.019 132.385 193.18 94.0428 132.959 194.891 93.8885 133.443 
191.954 94.8567 132.817 190.762 96.0332 132.671 198.342 94.8104 133.511 
209.844 103.789 132.587 196.659 111.03 133.931 192.825 112.673 132.747 
193.011 94.229 133.61 193.393 94.4704 134.109 193.107 94.3122 133.876 
192.885 94.4741 133.778 193.658 94.737 134.574 192.085 96.379 134.571 
204.633 107.034 134.785 193.031 94.2651 133.775 191.895 102.276 135.611 
205.888 104.843 135.68 192.254 109.035 135.063 193.201 109.885 135.216 
195.103 110.688 135.001 196.187 110.205 135.478 200.258 97.653 137.082 
204.996 104.981 136.482 205.113 104.701 136.45 204.548 105.34 136.662 
198.676 108.869 136.761 194.777 109.853 135.796 197.679 97.8561 137.885 
203.604 105.289 137.593 195.245 108.012 137.41 196.431 109.461 136.416 
196.501 99.5792 138.767 199.764 98.8582 138.84 203.135 104.777 138.352 
196.464 106.242 139.001 200.752 106.857 138.575 196.405 106.967 138.636 
198.961 107.679 138.375 197.504 99.0241 138.881 198.606 99.3432 139.38 
200.122 99.6936 139.556 196.792 100.282 139.251 196.104 101.536 139.196 
201.221 101.456 140.016 202.097 102.479 139.537 197.158 106.238 139.369 
199.471 106.86 139.28 198.225 99.9581 139.74 200.512 100.591 140.046 
198.318 101.078 140.341 200.881 101.625 140.469 198.042 105.1 140.347 
200.555 105.184 140.488 198.441 106.375 139.724 199.708 106.174 139.993 
199.514 100.931 140.668 200.032 101.264 140.755 199.351 101.129 140.729 
198.976 102.769 140.983 199.118 104.379 141.033 200.791 104.082 140.957 
199.155 104.746 140.943 200.303 104.916 140.79 199.394 106.026 140.184 
199.698 105.351 140.682 199.427 101.66 140.898 200.872 103.151 141.107 
200.379 103.378 141.27 200.946 103.699 141.042 200.243 104.386 141.013 
200.749 103.727 141.178 200.649 103.239 141.247 200.631 103.531 141.264 
200.846 103.099 313.935 200.757 102.823 313.956 201.007 103.402 314.021 
201.22 103.31 314.147 199.905 100.99 314.322 199.839 100.654 314.472 
200.041 100.705 314.492 199.197 101.076 314.354 200.525 101.634 314.28 
199.344 102.935 313.984 200.719 102.384 314.11 199.092 104.537 314.111 
200.979 104.346 314.467 199.283 100.238 314.763 198.964 99.7345 315.177 
199.468 99.8758 315.013 200.324 100.641 314.691 198.24 103.36 314.293 
198.259 104.573 314.427 198.207 105.503 314.868 199.172 106.025 314.958 
197.236 99.9681 315.658 199.989 99.7484 315.277 202.024 102.227 315.399 
201.939 102.692 315.152 201.909 104.569 315.315 201.111 105.492 315.216 
198.808 107.139 316.008 197.789 98.8835 316.155 199.033 98.6965 316.102 
199.344 98.5056 316.362 196.272 100.524 315.953 197.579 108.082 317.116 
196.464 98.7493 316.749 200.149 98.4552 316.791 201.793 99.726 316.866 
204.479 104.61 317.928 201.434 106.796 316.838 199.811 107.446 316.68 
195.185 108.321 317.932 197.748 108.572 317.649 194.864 97.3929 318.245 
203.76 105.431 317.623 203.3 106.509 318.17 193.759 107.366 318.255 
198.06 108.802 318.022 195.646 109.503 318.789 194.349 95.3013 319.742 
198.996 96.3411 318.991 205.862 104.839 319.225 193.683 110.37 320.072 
193.123 94.1524 321.375 193.032 94.1729 321.441 193.332 94.1646 321.337 
193.067 94.3574 321.27 193.661 94.7777 320.468 193.336 95.1136 320.398 
191.836 97.5167 320.197 205.299 101.719 319.416 193.213 94.0002 321.932 
192.875 94.2579 321.664 193.748 94.4316 320.933 194.979 93.9282 321.466 
192.416 94.5293 322.105 192.011 95.0661 321.769 193.02 94.7918 320.926 
195.27 94.0456 321.21 195.36 94.3643 320.742 201.94 96.8941 320.966 
209.051 103.153 321.846 209.349 103.611 321.967 209.614 104.331 322.248 
196.1 110.995 320.78 196.237 93.7963 322.122 192.862 94.1272 322.669 
198.317 94.5379 322.13 190.617 96.0342 322.763 201.904 96.6026 322.567 
189.594 99.3442 322.031 208.413 101.91 322.088 209.866 103.845 322.359 
207.878 106.125 322.051 190.518 110.916 322.079 191.241 112.235 322.23 
[...]
POINT_DATA 627
COLOR_SCALARS scalars 3
0.0941176 0.501961 0.392157 0.0941176 0.501961 0.392157 0.0941176 0.501961 0.392157 
0.0941176 0.501961 0.392157 0.0941176 0.501961 0.392157 
0.0941176 0.501961 0.392157 0.0941176 0.501961 0.392157 
0.0941176 0.501961 0.392157 0.0941176 0.501961 0.392157 
0.0941176 0.501961 0.392157 0.0941176 0.501961 0.392157 
0.0941176 0.501961 0.392157 0.0941176 0.501961 0.392157 
0.0941176 0.501961 0.392157 0.0941176 0.501961 0.392157 
0.0941176 0.501961 0.392157 0.0941176 0.501961 0.392157 
0.0941176 0.501961 0.392157 0.0941176 0.501961 0.392157 
0.0941176 0.501961 0.392157 0.0941176 0.501961 0.392157 
0.0941176 0.501961 0.392157 0.0941176 0.501961 0.392157 
0.0941176 0.501961 0.392157 0.0941176 0.501961 0.392157 
0.0941176 0.501961 0.392157 0.0941176 0.501961 0.392157 
0.0941176 0.501961 0.392157 0.0941176 0.501961 0.392157 
0.0941176 0.501961 0.392157 0.0941176 0.501961 0.392157 
0.0941176 0.501961 0.392157 0.0941176 0.501961 0.392157 
0.0941176 0.501961 0.392157 0.0941176 0.501961 0.392157 
0.0941176 0.501961 0.392157 0.0941176 0.501961 0.392157 
0.0941176 0.501961 0.392157 0.0941176 0.501961 0.392157 
0.0941176 0.501961 0.392157 0.0941176 0.501961 0.392157 
0.0941176 0.501961 0.392157 0.0941176 0.501961 0.392157 
0.0941176 0.501961 0.392157 0.0941176 0.501961 0.392157 
0.0941176 0.501961 0.392157 0.0941176 0.501961 0.392157 
0.0941176 0.501961 0.392157 0.0941176 0.501961 0.392157 
0.0941176 0.501961 0.392157 0.0941176 0.501961 0.392157 
0.0941176 0.501961 0.392157 0.0941176 0.501961 0.392157 
0.0941176 0.501961 0.392157 0.0941176 0.501961 0.392157 
0.0941176 0.501961 0.392157 0.0941176 0.501961 0.392157 
0.0941176 0.501961 0.392157 0.0941176 0.501961 0.392157 
0.0941176 0.501961 0.392157 0.0941176 0.501961 0.392157 
0.0941176 0.501961 0.392157 0.0941176 0.501961 0.392157 
0.0941176 0.501961 0.392157 0.0941176 0.501961 0.392157 
0.0941176 0.501961 0.392157 0.0941176 0.501961 0.392157 
0.0941176 0.501961 0.392157 0.0941176 0.501961 0.392157 
0.0941176 0.501961 0.392157 0.0941176 0.501961 0.392157 
0.0941176 0.501961 0.392157 0.0941176 0.501961 0.392157 
0.0941176 0.501961 0.392157 0.0941176 0.501961 0.392157 
0.0941176 0.501961 0.392157 0.0941176 0.501961 0.392157 
0.0941176 0.501961 0.392157 0.0941176 0.501961 0.392157 
0.0941176 0.501961 0.392157 0.0941176 0.501961 0.392157 
0.0941176 0.501961 0.392157 0.0941176 0.501961 0.392157 
0.0941176 0.501961 0.392157 0.0941176 0.501961 0.392157 
0.0941176 0.501961 0.392157 0.0941176 0.501961 0.392157 
0.0941176 0.501961 0.392157 0.0941176 0.501961 0.392157 
0.0941176 0.501961 0.392157 0.0941176 0.501961 0.392157 
0.0941176 0.501961 0.392157 0.0941176 0.501961 0.392157 
0.0941176 0.501961 0.392157 0.0941176 0.501961 0.392157 
0.0941176 0.501961 0.392157 0.0941176 0.501961 0.392157 
0.0941176 0.501961 0.392157 0.0941176 0.501961 0.392157 
0.0941176 0.501961 0.392157 0.0941176 0.501961 0.392157 
0.0941176 0.501961 0.392157 0.0941176 0.501961 0.392157 
0.0941176 0.501961 0.392157 0.0941176 0.501961 0.392157 
0.0941176 0.501961 0.392157 0.0941176 0.501961 0.392157 
0.0941176 0.501961 0.392157 0.0941176 0.501961 0.392157 
0.0941176 0.501961 0.392157 0.0941176 0.501961 0.392157 
0.0941176 0.501961 0.392157 0.0941176 0.501961 0.392157 
0.0941176 0.501961 0.392157 0.0941176 0.501961 0.392157 
0.0941176 0.501961 0.392157 0.0941176 0.501961 0.392157 
0.0941176 0.501961 0.392157 0.0941176 0.501961 0.392157 
0.0941176 0.501961 0.392157 0.0941176 0.501961 0.392157 
0.0941176 0.501961 0.392157 0.0941176 0.501961 0.392157 
0.0941176 0.501961 0.392157 0.0941176 0.501961 0.392157 
0.0941176 0.501961 0.392157 0.0941176 0.501961 0.392157 
0.0941176 0.501961 0.392157 0.0941176 0.501961 0.392157 
0.0941176 0.501961 0.392157 0.0941176 0.501961 0.392157 
0.0941176 0.501961 0.392157 0.0941176 0.501961 0.392157 
0.0941176 0.501961 0.392157 0.0941176 0.501961 0.392157 
0.0941176 0.501961 0.392157 0.0941176 0.501961 0.392157 
0.0941176 0.501961 0.392157 0.0941176 0.501961 0.392157 
0.0941176 0.501961 0.392157 0.0941176 0.501961 0.392157 
0.0941176 0.501961 0.392157 0.0941176 0.501961 0.392157 
0.0941176 0.501961 0.392157 0.0941176 0.501961 0.392157 
0.0941176 0.501961 0.392157 0.0941176 0.501961 0.392157 
0.0941176 0.501961 0.392157 0.0941176 0.501961 0.392157 
0.0941176 0.501961 0.392157 0.0941176 0.501961 0.392157 
0.0941176 0.501961 0.392157 0.0941176 0.501961 0.392157 
0.0941176 0.501961 0.392157 0.0941176 0.501961 0.392157 
0.0941176 0.501961 0.392157 0.0941176 0.501961 0.392157 
0.0941176 0.501961 0.392157 0.0941176 0.501961 0.392157 
0.0941176 0.501961 0.392157 0.0941176 0.501961 0.392157 
0.0941176 0.501961 0.392157 0.0941176 0.501961 0.392157 
0.0941176 0.501961 0.392157 0.0941176 0.501961 0.392157 
0.0941176 0.501961 0.392157 0.0941176 0.501961 0.392157 
0.0941176 0.501961 0.392157 0.0941176 0.501961 0.392157 
0.0941176 0.501961 0.392157 0.0941176 0.501961 0.392157 
0.0941176 0.501961 0.392157 0.0941176 0.501961 0.392157 
0.0941176 0.501961 0.392157 0.0941176 0.501961 0.392157 
0.0941176 0.501961 0.392157 0.0941176 0.501961 0.392157 
0.0941176 0.501961 0.392157 0.0941176 0.501961 0.392157 
0.0941176 0.501961 0.392157 0.0941176 0.501961 0.392157 
0.0941176 0.501961 0.392157 0.0941176 0.501961 0.392157 
0.0941176 0.501961 0.392157 0.0941176 0.501961 0.392157 
0.0941176 0.501961 0.392157 0.0941176 0.501961 0.392157 
0.0941176 0.501961 0.392157 0.0941176 0.501961 0.392157 
0.0941176 0.501961 0.392157 0.0941176 0.501961 0.392157 
0.0941176 0.501961 0.392157 0.0941176 0.501961 0.392157 
0.0941176 0.501961 0.392157 0.0941176 0.501961 0.392157 
0.0941176 0.501961 0.392157 0.0941176 0.501961 0.392157 
0.0941176 0.501961 0.392157 0.0941176 0.501961 0.392157 
0.0941176 0.501961 0.392157 0.0941176 0.501961 0.392157 
0.0941176 0.501961 0.392157 0.0941176 0.501961 0.392157 
0.0941176 0.501961 0.392157 0.0941176 0.501961 0.392157 
0.0941176 0.501961 0.392157 0.0941176 0.501961 0.392157 
0.0941176 0.501961 0.392157 0.0941176 0.501961 0.392157 
0.0941176 0.501961 0.392157 0.0941176 0.501961 0.392157 
0.0941176 0.501961 0.392157 0.0941176 0.501961 0.392157 
0.0941176 0.501961 0.392157 0.0941176 0.501961 0.392157 
0.0941176 0.501961 0.392157 0.0941176 0.501961 0.392157 
0.0941176 0.501961 0.392157 0.0941176 0.501961 0.392157 
0.0941176 0.501961 0.392157 0.0941176 0.501961 0.392157 
0.0941176 0.501961 0.392157 0.0941176 0.501961 0.392157 
0.0941176 0.501961 0.392157 0.0941176 0.501961 0.392157 
0.0941176 0.501961 0.392157 0.0941176 0.501961 0.392157 
0.0941176 0.501961 0.392157 0.0941176 0.501961 0.392157 
0.0941176 0.501961 0.392157 0.0941176 0.501961 0.392157 
0.0941176 0.501961 0.392157 0.0941176 0.501961 0.392157 
0.0941176 0.501961 0.392157 0.0941176 0.501961 0.392157 
0.0941176 0.501961 0.392157 0.0941176 0.501961 0.392157 
0.0941176 0.501961 0.392157 0.0941176 0.501961 0.392157 
0.0941176 0.501961 0.392157 0.0941176 0.501961 0.392157 
0.0941176 0.501961 0.392157 0.0941176 0.501961 0.392157 
0.0941176 0.501961 0.392157 0.0941176 0.501961 0.392157 
0.0941176 0.501961 0.392157 0.0941176 0.501961 0.392157 
0.0941176 0.501961 0.392157 0.0941176 0.501961 0.392157 
0.0941176 0.501961 0.392157 0.0941176 0.501961 0.392157 
0.0941176 0.501961 0.392157 0.0941176 0.501961 0.392157 
0.0941176 0.501961 0.392157 0.0941176 0.501961 0.392157 
0.0941176 0.501961 0.392157 0.0941176 0.501961 0.392157 
0.0941176 0.501961 0.392157 0.0941176 0.501961 0.392157 
0.0941176 0.501961 0.392157 0.0941176 0.501961 0.392157 
0.0941176 0.501961 0.392157 0.0941176 0.501961 0.392157 
0.0941176 0.501961 0.392157 0.0941176 0.501961 0.392157 
0.0941176 0.501961 0.392157 0.0941176 0.501961 0.392157 
0.0941176 0.501961 0.392157 0.0941176 0.501961 0.392157 
0.0941176 0.501961 0.392157 0.0941176 0.501961 0.392157 
0.0941176 0.501961 0.392157 0.0941176 0.501961 0.392157 
0.0941176 0.501961 0.392157 0.0941176 0.501961 0.392157 
0.0941176 0.501961 0.392157 0.0941176 0.501961 0.392157 
0.0941176 0.501961 0.392157 0.0941176 0.501961 0.392157 
0.0941176 0.501961 0.392157 0.0941176 0.501961 0.392157 
0.0941176 0.501961 0.392157 0.0941176 0.501961 0.392157 
0.0941176 0.501961 0.392157 0.0941176 0.501961 0.392157 
0.0941176 0.501961 0.392157 0.0941176 0.501961 0.392157 
0.0941176 0.501961 0.392157 0.0941176 0.501961 0.392157 
0.0941176 0.501961 0.392157 0.0941176 0.501961 0.392157 
0.0941176 0.501961 0.392157 0.0941176 0.501961 0.392157 
0.0941176 0.501961 0.392157 0.0941176 0.501961 0.392157 
0.0941176 0.501961 0.392157 0.0941176 0.501961 0.392157 
0.0941176 0.501961 0.392157 0.0941176 0.501961 0.392157 
0.0941176 0.501961 0.392157 0.0941176 0.501961 0.392157 
0.0941176 0.501961 0.392157 0.0941176 0.501961 0.392157 
0.0941176 0.501961 0.392157 0.0941176 0.501961 0.392157 
0.0941176 0.501961 0.392157 0.0941176 0.501961 0.392157 
0.0941176 0.501961 0.392157 0.0941176 0.501961 0.392157 
0.0941176 0.501961 0.392157 0.0941176 0.501961 0.392157 
0.0941176 0.501961 0.392157 0.0941176 0.501961 0.392157 
0.0941176 0.501961 0.392157 0.0941176 0.501961 0.392157 
0.0941176 0.501961 0.392157 0.0941176 0.501961 0.392157 
0.0941176 0.501961 0.392157 0.0941176 0.501961 0.392157 
0.0941176 0.501961 0.392157 0.0941176 0.501961 0.392157 
0.0941176 0.501961 0.392157 0.0941176 0.501961 0.392157 
0.0941176 0.501961 0.392157 0.0941176 0.501961 0.392157 
0.0941176 0.501961 0.392157 0.0941176 0.501961 0.392157 
0.0941176 0.501961 0.392157 0.0941176 0.501961 0.392157 
0.0941176 0.501961 0.392157 0.0941176 0.501961 0.392157 
0.0941176 0.501961 0.392157 0.0941176 0.501961 0.392157 
0.0941176 0.501961 0.392157 0.0941176 0.501961 0.392157 
0.0941176 0.501961 0.392157 0.0941176 0.501961 0.392157 
0.0941176 0.501961 0.392157 0.0941176 0.501961 0.392157 
0.0941176 0.501961 0.392157 0.0941176 0.501961 0.392157 
0.0941176 0.501961 0.392157 0.0941176 0.501961 0.392157 
0.0941176 0.501961 0.392157 0.0941176 0.501961 0.392157 
0.0941176 0.501961 0.392157 0.0941176 0.501961 0.392157 
0.0941176 0.501961 0.392157 0.0941176 0.501961 0.392157 
0.0941176 0.501961 0.392157 0.0941176 0.501961 0.392157 
0.0941176 0.501961 0.392157 0.0941176 0.501961 0.392157 
0.0941176 0.501961 0.392157 0.0941176 0.501961 0.392157 
0.0941176 0.501961 0.392157 0.0941176 0.501961 0.392157 
0.0941176 0.501961 0.392157 0.0941176 0.501961 0.392157 
0.0941176 0.501961 0.392157 0.0941176 0.501961 0.392157 
0.0941176 0.501961 0.392157 0.0941176 0.501961 0.392157 
0.0941176 0.501961 0.392157 0.0941176 0.501961 0.392157 
0.0941176 0.501961 0.392157 0.0941176 0.501961 0.392157 
0.0941176 0.501961 0.392157 0.0941176 0.501961 0.392157 
0.0941176 0.501961 0.392157 0.0941176 0.501961 0.392157 
0.0941176 0.501961 0.392157 0.0941176 0.501961 0.392157 
0.0941176 0.501961 0.392157 0.0941176 0.501961 0.392157 
0.0941176 0.501961 0.392157 0.0941176 0.501961 0.392157 
0.0941176 0.501961 0.392157 0.0941176 0.501961 0.392157 
0.0941176 0.501961 0.392157 0.0941176 0.501961 0.392157 
0.0941176 0.501961 0.392157 0.0941176 0.501961 0.392157 
0.0941176 0.501961 0.392157 0.0941176 0.501961 0.392157 
0.0941176 0.501961 0.392157 0.0941176 0.501961 0.392157 
0.0941176 0.501961 0.392157 0.0941176 0.501961 0.392157 
0.0941176 0.501961 0.392157 0.0941176 0.501961 0.392157 
0.0941176 0.501961 0.392157 0.0941176 0.501961 0.392157 
0.0941176 0.501961 0.392157 0.0941176 0.501961 0.392157 
0.0941176 0.501961 0.392157 0.0941176 0.501961 0.392157 
0.0941176 0.501961 0.392157 0.0941176 0.501961 0.392157 
0.0941176 0.501961 0.392157 0.0941176 0.501961 0.392157 
0.0941176 0.501961 0.392157 0.0941176 0.501961 0.392157 
0.0941176 0.501961 0.392157 0.0941176 0.501961 0.392157 
0.0941176 0.501961 0.392157 0.0941176 0.501961 0.392157 
0.0941176 0.501961 0.392157 0.0941176 0.501961 0.392157 
0.0941176 0.501961 0.392157 0.0941176 0.501961 0.392157 
0.0941176 0.501961 0.392157 0.0941176 0.501961 0.392157 
0.0941176 0.501961 0.392157 0.0941176 0.501961 0.392157 
0.0941176 0.501961 0.392157 0.0941176 0.501961 0.392157 
0.0941176 0.501961 0.392157 0.0941176 0.501961 0.392157 
0.0941176 0.501961 0.392157 0.0941176 0.501961 0.392157 
0.0941176 0.501961 0.392157 0.0941176 0.501961 0.392157 
0.0941176 0.501961 0.392157 0.0941176 0.501961 0.392157 
0.0941176 0.501961 0.392157 0.0941176 0.501961 0.392157 
0.0941176 0.501961 0.392157 0.0941176 0.501961 0.392157 
0.0941176 0.501961 0.392157 0.0941176 0.501961 0.392157 
0.0941176 0.501961 0.392157 0.0941176 0.501961 0.392157 
0.0941176 0.501961 0.392157 0.0941176 0.501961 0.392157 
0.0941176 0.501961 0.392157 0.0941176 0.501961 0.392157 
0.0941176 0.501961 0.392157 0.0941176 0.501961 0.392157 
0.0941176 0.501961 0.392157 0.0941176 0.501961 0.392157 
0.0941176 0.501961 0.392157 0.0941176 0.501961 0.392157 
0.0941176 0.501961 0.392157 0.0941176 0.501961 0.392157 
0.0941176 0.501961 0.392157 0.0941176 0.501961 0.392157 
0.0941176 0.501961 0.392157 0.0941176 0.501961 0.392157 
0.0941176 0.501961 0.392157 0.0941176 0.501961 0.392157 
0.0941176 0.501961 0.392157 0.0941176 0.501961 0.392157 
0.0941176 0.501961 0.392157 0.0941176 0.501961 0.392157 
0.0941176 0.501961 0.392157 0.0941176 0.501961 0.392157 
0.0941176 0.501961 0.392157 0.0941176 0.501961 0.392157 
0.0941176 0.501961 0.392157 0.0941176 0.501961 0.392157 
0.0941176 0.501961 0.392157 0.0941176 0.501961 0.392157 
0.0941176 0.501961 0.392157 0.0941176 0.501961 0.392157 
0.0941176 0.501961 0.392157 0.0941176 0.501961 0.392157 
0.0941176 0.501961 0.392157 0.0941176 0.501961 0.392157 
0.0941176 0.501961 0.392157 0.0941176 0.501961 0.392157 
0.0941176 0.501961 0.392157 0.0941176 0.501961 0.392157 
0.0941176 0.501961 0.392157 0.0941176 0.501961 0.392157 
0.0941176 0.501961 0.392157 0.0941176 0.501961 0.392157 
0.0941176 0.501961 0.392157 0.0941176 0.501961 0.392157 
0.0941176 0.501961 0.392157 0.0941176 0.501961 0.392157 
0.0941176 0.501961 0.392157 0.0941176 0.501961 0.392157 
0.0941176 0.501961 0.392157 0.0941176 0.501961 0.392157 
0.0941176 0.501961 0.392157 0.0941176 0.501961 0.392157 
0.0941176 0.501961 0.392157 0.0941176 0.501961 0.392157 
0.0941176 0.501961 0.392157 0.0941176 0.501961 0.392157 
0.0941176 0.501961 0.392157 0.0941176 0.501961 0.392157 
0.0941176 0.501961 0.392157 0.0941176 0.501961 0.392157 
0.0941176 0.501961 0.392157 0.0941176 0.501961 0.392157 
0.0941176 0.501961 0.392157 0.0941176 0.501961 0.392157 
0.0941176 0.501961 0.392157 0.0941176 0.501961 0.392157 
0.0941176 0.501961 0.392157 0.0941176 0.501961 0.392157 
0.0941176 0.501961 0.392157 0.0941176 0.501961 0.392157 
0.0941176 0.501961 0.392157 0.0941176 0.501961 0.392157 
0.0941176 0.501961 0.392157 0.0941176 0.501961 0.392157 
0.0941176 0.501961 0.392157 0.0941176 0.501961 0.392157 
0.0941176 0.501961 0.392157 0.0941176 0.501961 0.392157 
0.0941176 0.501961 0.392157 0.0941176 0.501961 0.392157 
0.0941176 0.501961 0.392157 0.0941176 0.501961 0.392157 
0.0941176 0.501961 0.392157 0.0941176 0.501961 0.392157 
0.0941176 0.501961 0.392157 0.0941176 0.501961 0.392157 
0.0941176 0.501961 0.392157 0.0941176 0.501961 0.392157 
0.0941176 0.501961 0.392157 0.0941176 0.501961 0.392157 
0.0941176 0.501961 0.392157 0.0941176 0.501961 0.392157 
0.0941176 0.501961 0.392157 0.0941176 0.501961 0.392157 
0.0941176 0.501961 0.392157 0.0941176 0.501961 0.392157 
0.0941176 0.501961 0.392157 0.0941176 0.501961 0.392157 
0.0941176 0.501961 0.392157 0.0941176 0.501961 0.392157 
0.0941176 0.501961 0.392157 0.0941176 0.501961 0.392157 
0.0941176 0.501961 0.392157 0.0941176 0.501961 0.392157 
0.0941176 0.501961 0.392157 0.0941176 0.501961 0.392157 
0.0941176 0.501961 0.392157 0.0941176 0.501961 0.392157 
0.0941176 0.501961 0.392157 0.0941176 0.501961 0.392157 
0.0941176 0.501961 0.392157 0.0941176 0.501961 0.392157 
0.0941176 0.501961 0.392157 0.0941176 0.501961 0.392157 
0.0941176 0.501961 0.392157 0.0941176 0.501961 0.392157 
0.0941176 0.501961 0.392157 0.0941176 0.501961 0.392157 
0.0941176 0.501961 0.392157 0.0941176 0.501961 0.392157 
0.0941176 0.501961 0.392157 0.0941176 0.501961 0.392157 
0.0941176 0.501961 0.392157 0.0941176 0.501961 0.392157 
0.0941176 0.501961 0.392157 0.0941176 0.501961 0.392157 
0.0941176 0.501961 0.392157 0.0941176 0.501961 0.392157 
0.0941176 0.501961 0.392157 0.0941176 0.501961 0.392157 
0.0941176 0.501961 0.392157 0.0941176 0.501961 0.392157 
0.0941176 0.501961 0.392157 0.0941176 0.501961 0.392157 
0.0941176 0.501961 0.392157 0.0941176 0.501961 0.392157 
0.0941176 0.501961 0.392157 0.0941176 0.501961 0.392157 
0.0941176 0.501961 0.392157 0.0941176 0.501961 0.392157 
0.0941176 0.501961 0.392157 0.0941176 0.501961 0.392157 
0.0941176 0.501961 0.392157 0.0941176 0.501961 0.392157 
0.0941176 0.501961 0.392157 0.0941176 0.501961 0.392157 
0.0941176 0.501961 0.392157 0.0941176 0.501961 0.392157 
0.0941176 0.501961 0.392157 0.0941176 0.501961 0.392157 
0.0941176 0.501961 0.392157 0.0941176 0.501961 0.392157 
0.0941176 0.501961 0.392157 0.0941176 0.501961 0.392157 
0.0941176 0.501961 0.392157 0.0941176 0.501961 0.392157 
0.0941176 0.501961 0.392157 0.0941176 0.501961 0.392157 
0.0941176 0.501961 0.392157 0.0941176 0.501961 0.392157 
0.0941176 0.501961 0.392157 0.0941176 0.501961 0.392157 
0.0941176 0.501961 0.392157 0.0941176 0.501961 0.392157 
0.0941176 0.501961 0.392157 0.0941176 0.501961 0.392157 
0.0941176 0.501961 0.392157 0.0941176 0.501961 0.392157 
0.0941176 0.501961 0.392157 0.0941176 0.501961 0.392157 
0.0941176 0.501961 0.392157 0.0941176 0.501961 0.392157 
0.0941176 0.501961 0.392157 0.0941176 0.501961 0.392157 
0.0941176 0.501961 0.392157 0.0941176 0.501961 0.392157 
0.0941176 0.501961 0.392157 0.0941176 0.501961 0.392157 
0.0941176 0.501961 0.392157 0.0941176 0.501961 0.392157 
0.0941176 0.501961 0.392157 0.0941176 0.501961 0.392157 
0.0941176 0.501961 0.392157 0.0941176 0.501961 0.392157 
0.0941176 0.501961 0.392157 0.0941176 0.501961 0.392157 
0.0941176 0.501961 0.392157 0.0941176 0.501961 0.392157 
0.0941176 0.501961 0.392157 0.0941176 0.501961 0.392157 
0.0941176 0.501961 0.392157 0.0941176 0.501961 0.392157 

NORMALS Normals float
0.0881276 -0.459783 -0.883648 0.393094 -0.336554 -0.855692 0.279528 -0.584859 -0.761448 
-0.150312 -0.404931 -0.901907 0.160258 -0.23662 -0.958295 0.121774 -0.27856 -0.952667 
-0.275877 -0.0543599 -0.959655 0.161721 -0.149188 -0.975494 -0.110993 0.193858 -0.974731 
0.284771 0.00573956 -0.958579 0.249775 -0.129853 -0.959557 -0.0740659 -0.699808 -0.71048 
-0.234847 -0.421596 -0.875845 0.0769 -0.14787 -0.986013 -0.308767 -0.303235 -0.901505 
-0.223695 -0.0784704 -0.971495 -0.0645502 -0.404155 -0.91241 -0.234942 0.0284539 -0.971593 
-0.0208473 0.108437 -0.993885 -0.0641898 0.248309 -0.966552 0.447552 -0.709803 -0.543946 
-0.344983 -0.350513 -0.870705 -0.324308 -0.431354 -0.841878 0.400256 -0.491394 -0.773516 
-0.47433 -0.477547 -0.739568 0.410766 -0.398518 -0.820033 -0.226033 -0.441539 -0.868305 
-0.383363 -0.393908 -0.835386 -0.333316 -0.349054 -0.875821 0.355047 -0.188685 -0.915609 
-0.210685 0.0512051 -0.976212 -0.487185 -0.806004 0.336168 0.025586 0.207654 -0.977868 
-0.167772 -0.791254 -0.588021 0.055653 -0.256728 -0.96488 0.174592 0.21113 -0.961739 
-0.161062 0.798138 -0.580546 -0.16177 0.575399 -0.801714 -0.256472 0.12332 -0.958652 
0.0444788 -0.894994 -0.443855 -0.254043 -0.813763 -0.522735 -0.35009 -0.816877 -0.45842 
-0.374901 -0.645824 -0.665103 -0.364515 -0.602578 -0.70995 -0.329029 -0.641137 -0.693314 
-0.486829 -0.770881 -0.41078 0.437636 -0.54858 -0.712415 -0.4892 -0.767716 -0.413879 
-0.771562 -0.626711 -0.109203 -0.908135 -0.418324 -0.0171684 -0.630807 -0.629126 -0.454184 
-0.931934 0.252481 -0.260291 -0.169391 -0.0249444 -0.985233 0.230125 0.0346757 -0.972543 
0.275543 -0.0635399 -0.959187 -0.855953 0.401174 -0.326196 -0.56969 0.230388 -0.788907 
-0.207321 0.397574 -0.893842 -0.320599 0.536376 -0.780716 0.385294 -0.666268 -0.638464 
-0.647798 -0.702462 -0.294796 -0.79273 -0.605267 0.0723282 -0.585082 -0.70588 -0.399266 
-0.839545 -0.485493 0.243846 -0.920112 -0.149517 0.361993 0.263828 -0.472174 -0.841098 
0.426707 -0.211008 -0.87943 0.301093 -0.0734692 -0.95076 -0.885656 0.442464 -0.140851 