# vtk DataFile Version 4.2
vtk output
ASCII
DATASET POLYDATA
POINTS 1134 float
216.569 126.369 70.5439 216.922 126.686 70.5187 215.539 126.97 70.0947 
217.023 126.957 70.4966 214.888 128.312 69.9219 212.735 129.31 69.9248 
214.195 128.945 69.903 215.85 129.331 70.3735 211.762 130.287 70.3792 
212.529 130.373 70.1997 211.996 131.059 70.692 213.53 131.01 70.6649 
212.465 127.393 70.2126 216.759 128.94 70.6751 215.757 129.738 70.5346 
211.397 130.118 70.6303 211.67 131.067 70.8645 216.177 123.223 72.2569 
217.321 126.238 71.0722 210.607 126.512 71.3048 218.293 127.792 72.213 
216.134 130.805 71.6444 211.959 132.18 71.9117 216.023 122.537 72.8469 
216.295 122.926 72.5242 216.345 123.04 72.4189 216.395 122.981 72.511 
211.273 124.158 71.9071 216.424 123.093 72.4868 208.891 126.74 72.4512 
218.263 126.553 72.7694 208.932 127.393 72.4241 208.558 128.515 73.0377 
218.438 128.51 72.6198 215.449 131.434 71.7513 210.793 131.74 72.6273 
212.891 132.343 71.858 216.427 122.929 72.7151 216.976 123.334 73.2315 
206.733 126.427 74.3294 219.069 129.14 74.0756 211.236 132.511 73.5012 
213.631 133.138 73.2697 213.38 120.074 73.9502 219.304 128.569 74.6157 
218.185 130.532 73.8561 217.17 131.611 73.7149 215.253 132.812 73.5052 
213.225 133.687 74.6036 212.623 117.995 75.3503 213.206 117.743 75.677 
213.845 117.896 75.9177 214.013 118.955 75.1283 206.398 127.918 75.6852 
219.336 127.715 75.0599 219.368 129.474 75.5065 218.731 130.543 75.0223 
219.067 130.061 75.1496 211.374 133.007 74.892 213.458 133.949 75.2194 
210.577 117.535 75.7543 215.205 118.873 76.3523 205.239 122.682 75.6086 
205.348 126.853 76.1507 207.799 129.801 75.7896 219.502 129.537 75.9285 
219.525 129.508 76.1685 219.377 129.772 76.0366 215.58 133.393 75.1765 
212.483 133.794 75.7095 211.621 115.006 77.2004 212.395 114.988 77.3969 
212.801 115.592 77.1311 214.805 117.608 77.1061 216.312 120.076 77.1048 
203.827 121.087 76.9191 202.606 123.196 77.4635 202.135 123.419 78.0023 
219.277 128.54 76.7808 206.504 128.885 77.1847 219.542 129.259 76.2231 
219.416 129.664 76.3469 207.984 130.275 76.86 218.568 130.756 76.2816 
210.11 132.154 76.5645 217.221 132.291 76.0977 215.15 133.721 75.8617 
212.916 133.965 76.7493 213.289 134.073 77.1284 213.559 134.18 77.0127 
213.87 134.132 77.0766 210.745 113.444 78.3018 204.46 118.16 77.8478 
217.346 122.127 77.7112 218.737 126.425 77.8295 218.786 129.839 77.2168 
216.854 131.776 77.7287 217.988 131.259 76.6478 214.898 133.639 77.0372 
214.459 133.737 77.4578 213.386 133.921 77.4753 213.918 134.031 77.3625 
214.127 133.865 77.5171 213.621 134.083 77.2936 211.335 111.824 79.6988 
208.899 112.865 79.058 217.133 121.585 78.8494 217.822 123.551 78.4804 
201.724 124.101 79.047 218.4 125.143 78.1566 203.944 126.859 78.5002 
218.765 127.954 78.0341 205.076 128.14 79.2176 218.28 128.294 78.6313 
218.329 129.336 78.1416 216.334 130.393 79.0783 208.576 130.609 79.015 
215.778 132.28 78.129 213.909 133.163 78.2528 214.979 132.97 77.9976 
213.812 133.56 77.9181 210.921 110.858 80.4555 212.171 111.235 80.8211 
216.076 118.628 79.3211 217.728 124.532 79.4658 201.391 124.289 79.9159 
217.804 127.101 79.347 213.022 131.08 79.9264 212.533 110.955 81.5446 
213.755 112.902 81.0242 198.034 119.775 81.9105 216.769 122.837 80.7556 
202.617 126.137 80.9926 210.051 108.555 82.4242 210.656 108.538 82.6905 
211.709 109.726 82.1876 212.951 111.365 81.6148 213.604 111.887 82.3935 
199.103 122.265 81.9343 203.551 126.981 81.7966 208.358 129.415 81.3858 
209.718 107.676 83.1286 206.183 108.717 83.0261 212.05 109.342 83.0962 
203.779 110.334 82.9612 215.573 120.548 82.8691 215.026 122.545 82.7846 
216.084 122.426 81.7634 199.082 122.957 83.256 205.849 128.163 82.4385 
199.406 123.441 83.8823 207.642 127.504 83.4971 206.969 127.948 83.0947 
206.387 128.038 82.8856 213.04 109.673 84.8817 214.645 115.709 84.9344 
214.946 116.505 84.302 198.517 122.909 85.3304 199.653 123.688 85.2481 
203.224 126.24 83.9388 205.591 126.661 84.4158 208.49 104.157 86.2537 
206.761 104.986 85.7829 214.486 115.616 85.452 214.41 115.607 85.6209 
213.952 116.874 85.6342 199.604 123.509 86.1386 208.983 103.693 87.0485 
209.498 103.873 87.2155 207.78 104.187 86.2671 212.617 108.125 87.0549 
214.264 115.662 85.7771 192.564 116.606 87.8449 195.984 121.186 87.2225 
204.289 122.663 87.3133 203.747 124.464 86.2777 207.486 102.37 88.1722 
210.505 104.086 88.2766 211.048 105.206 87.4987 213.019 109.372 87.8411 
213.431 111.765 87.3708 213.791 114.646 86.4925 191.917 115.399 88.295 
192.866 118.03 88.4216 193.694 119.17 88.4222 205.543 120.038 88.2504 
199.738 123.14 87.3442 207.353 101.147 89.3643 208.332 101.885 88.8852 
204.983 101.752 89.0843 209.256 102.245 89.0682 211.82 105.731 89.0816 
212.806 109.266 88.8855 212.714 110.442 89.1429 213.124 111.893 88.0285 
194.06 119.744 88.823 195.016 120.621 89.0341 195.499 120.984 88.7244 
197.192 121.942 88.5096 206.49 100.012 90.3331 208.063 100.506 90.1772 
208.602 100.477 90.6099 212.49 110.064 89.8415 212.598 110.275 89.6295 
212.545 110.241 89.7761 212.411 111.625 89.1147 190.499 111.229 90.3063 
211.664 112.32 89.469 210.472 112.597 90.1669 197.247 121.721 89.087 
205.661 99.039 91.2647 212.134 110.421 90.13 189.125 112.783 91.2742 
193.27 119.479 90.6869 195.344 120.53 90.7673 198.032 120.858 90.486 
195.826 120.745 90.6238 198.227 121.402 89.8092 203.899 99.2899 91.5646 
211.594 108.886 91.6578 206.649 112.665 92.3712 189.079 114.196 91.4996 
190.847 117.535 91.5866 197.669 119.783 91.7861 194.138 119.895 91.5827 
194.592 119.973 91.8072 196.318 120.54 91.2101 206.925 97.2327 93.3848 
208.794 98.6322 93.2566 210.316 101.169 92.8977 211.655 104.813 92.7442 
211.688 105.395 92.8832 211.428 106.934 92.9847 210.441 109.154 92.6988 
208.987 110.431 92.8006 189.02 115.907 92.4875 191.214 118.478 92.8083 
193.346 119.3 92.9533 195.29 119.507 92.844 194.856 119.738 92.4242 
206.427 96.2798 94.299 207.498 96.4836 94.6599 211.04 102.474 93.536 
211.066 106.722 93.9989 185.921 113.214 94.3422 187.011 114.573 93.9034 
188.369 116.568 93.8404 191.147 118.682 94.2913 205.264 95.614 95.0875 
210.884 101.606 95.1286 211.265 103.063 94.7112 211.297 105.045 94.7378 
184.841 110.832 94.9519 187.416 116.557 94.9725 190.321 118.495 95.2814 
192.097 118.793 94.7437 207.098 95.1887 95.9558 182.891 109.787 96.3756 
182.003 110.15 96.828 188.425 117.639 95.3953 189.784 118.336 96.3912 
190.375 118.531 95.9161 190.363 118.477 96.1944 190.842 118.595 95.6709 
191.321 118.564 95.6982 206.184 93.6305 97.7149 208.808 96.1489 97.1476 
210.999 101.855 96.5592 181.282 110.252 97.3856 189.51 118.254 97.013 
190.714 118.332 96.4257 189.612 118.231 97.1694 206.912 93.1936 98.7196 
210.887 102.707 97.6351 210.404 104.152 97.8084 187.896 117.563 97.8079 
189.475 117.623 98.1866 205.04 92.628 99.0973 210.171 98.2757 98.3567 
210.729 100.956 99.3114 209.991 103.554 99.1035 178.464 110.196 99.8829 
179.124 111.646 99.8263 186.724 116.844 98.3652 208.266 93.1883 100.201 
210.475 98.6444 99.9101 210.62 100.959 99.9436 179.77 107.537 99.8556 
178.736 109.393 99.7 201.551 107.517 101.119 177.746 108.6 100.98 
176.501 109.361 101.945 180.129 113.407 100.914 209.27 101.957 102.418 
177.518 106.871 102.102 175.872 108.116 102.637 177.073 111.235 102.077 
181.934 114.591 102.114 188.195 114.459 102.14 184.936 115.3 101.717 
209.913 93.9324 102.951 209.957 100.829 102.77 178.482 104.878 103.078 
177.754 105.693 102.852 174.884 107.984 103.534 174.674 108.242 103.689 
183.919 114.762 103.364 184.167 114.832 103.182 209 88.0087 104.017 
209 88.0087 104.017 209 88.0088 104.017 209 88.0088 104.017 
209 88.0088 104.017 174.035 109.1 104.377 179.836 114.153 104.039 
181.579 114.542 103.829 183.894 114.502 103.976 209 88.0087 104.018 
207.759 88.6687 105.809 173.487 109.331 105.088 175.703 112.127 105.191 
207.195 87.9061 106.618 207.506 87.9601 106.922 172.037 107.119 106.417 
172.168 107.881 106.201 173.438 109.873 105.564 179.159 114.147 105.863 
180.304 114.227 106.159 206.626 87.7054 106.774 205.007 87.6563 107.011 
209.497 89.9003 106.899 210.591 97.7409 107.088 209.114 99.2993 107.097 
210.024 98.4645 107.028 172.261 105.725 106.972 171.538 106.346 107.214 
170.594 107.482 107.815 170.687 107.004 107.742 170.95 108.027 107.629 
171.27 108.701 107.666 181.607 113.766 107.103 180.384 113.986 107.116 
207.404 87.3214 108.295 210.732 92.1268 107.747 211.268 94.9297 107.866 
211.193 95.5862 108.454 177.743 113.839 108.172 178.406 114.006 107.503 
205.951 86.7753 109.044 207.093 87.1773 108.895 202.293 87.5657 108.984 
208.824 88.5918 108.973 211.33 94.1559 109.257 210.7 96.6437 108.738 
210.368 96.8787 109.275 209.448 97.6718 109.466 169.299 106.779 109.304 
169.183 106.803 109.414 169.208 106.885 109.399 169.367 107.081 109.423 
171.633 109.982 109.152 172.879 111.044 108.597 177.168 113.703 109.107 
177.402 113.849 108.953 178.738 113.823 108.261 177.497 113.879 108.884 
206.29 86.52 109.988 206.091 86.5323 110.021 206.611 86.8309 110.092 
211.278 93.6828 109.828 187.752 93.9945 109.42 171.336 103.963 110.021 
195.393 103.949 110.231 169.688 105.947 110.115 169.429 106.346 109.696 
169.436 106.326 110.039 169.336 106.504 109.902 169.206 106.848 109.492 
169.293 106.763 109.763 169.373 107.11 109.851 174.934 112.748 110.25 
176.332 113.363 110.107 205.036 86.5045 110.276 205.015 86.4664 110.464 
206.268 86.5406 110.079 206.222 86.6671 110.294 202.532 87.2294 110.994 
210.73 95.4632 110.884 180.22 97.1008 110.703 173.341 101.579 110.766 
170.877 104.452 111.35 169.915 105.65 110.412 169.39 106.577 110.121 
177.707 112.871 111.102 175.684 113.099 110.44 176.855 113.078 111.002 
205.567 86.8095 110.99 200.777 87.6543 111.461 201.624 87.5409 111.887 
207.272 87.6271 111.152 199.714 88.01 112.385 208.819 89.2663 111.477 
210.697 92.2791 111.66 210.372 95.2915 111.941 173.221 101.358 111.804 
172.356 102.43 111.458 171.894 103.02 111.696 170.741 104.969 111.842 
172.084 110.603 111.268 175.919 112.913 111.493 199.564 88.0154 112.707 
[...]
POINT_DATA 1134
COLOR_SCALARS scalars 3
0.0941176 0.501961 0.392157 0.0941176 0.501961 0.392157 0.0941176 0.501961 0.392157 
0.0941176 0.501961 0.392157 0.0941176 0.501961 0.392157 
0.0941176 0.501961 0.392157 0.0941176 0.501961 0.392157 
0.0941176 0.501961 0.392157 0.0941176 0.501961 0.392157 
0.0941176 0.501961 0.392157 0.0941176 0.501961 0.392157 
0.0941176 0.501961 0.392157 0.0941176 0.501961 0.392157 
0.0941176 0.501961 0.392157 0.0941176 0.501961 0.392157 
0.0941176 0.501961 0.392157 0.0941176 0.501961 0.392157 
0.0941176 0.501961 0.392157 0.0941176 0.501961 0.392157 
0.0941176 0.501961 0.392157 0.0941176 0.501961 0.392157 
0.0941176 0.501961 0.392157 0.0941176 0.501961 0.392157 
0.0941176 0.501961 0.392157 0.0941176 0.501961 0.392157 
0.0941176 0.501961 0.392157 0.0941176 0.501961 0.392157 
0.0941176 0.501961 0.392157 0.0941176 0.501961 0.392157 
0.0941176 0.501961 0.392157 0.0941176 0.501961 0.392157 
0.0941176 0.501961 0.392157 0.0941176 0.501961 0.392157 
0.0941176 0.501961 0.392157 0.0941176 0.501961 0.392157 
0.0941176 0.501961 0.392157 0.0941176 0.501961 0.392157 
0.0941176 0.501961 0.392157 0.0941176 0.501961 0.392157 
0.0941176 0.501961 0.392157 0.0941176 0.501961 0.392157 
0.0941176 0.501961 0.392157 0.0941176 0.501961 0.392157 
0.0941176 0.501961 0.392157 0.0941176 0.501961 0.392157 
0.0941176 0.501961 0.392157 0.0941176 0.501961 0.392157 
0.0941176 0.501961 0.392157 0.0941176 0.501961 0.392157 
0.0941176 0.501961 0.392157 0.0941176 0.501961 0.392157 
0.0941176 0.501961 0.392157 0.0941176 0.501961 0.392157 
0.0941176 0.501961 0.392157 0.0941176 0.501961 0.392157 
0.0941176 0.501961 0.392157 0.0941176 0.501961 0.392157 
0.0941176 0.501961 0.392157 0.0941176 0.501961 0.392157 
0.0941176 0.501961 0.392157 0.0941176 0.501961 0.392157 
0.0941176 0.501961 0.392157 0.0941176 0.501961 0.392157 
0.0941176 0.501961 0.392157 0.0941176 0.501961 0.392157 
0.0941176 0.501961 0.392157 0.0941176 0.501961 0.392157 
0.0941176 0.501961 0.392157 0.0941176 0.501961 0.392157 
0.0941176 0.501961 0.392157 0.0941176 0.501961 0.392157 
0.0941176 0.501961 0.392157 0.0941176 0.501961 0.392157 
0.0941176 0.501961 0.392157 0.0941176 0.501961 0.392157 
0.0941176 0.501961 0.392157 0.0941176 0.501961 0.392157 
0.0941176 0.501961 0.392157 0.0941176 0.501961 0.392157 
0.0941176 0.501961 0.392157 0.0941176 0.501961 0.392157 
0.0941176 0.501961 0.392157 0.0941176 0.501961 0.392157 
0.0941176 0.501961 0.392157 0.0941176 0.501961 0.392157 
0.0941176 0.501961 0.392157 0.0941176 0.501961 0.392157 
0.0941176 0.501961 0.392157 0.0941176 0.501961 0.392157 
0.0941176 0.501961 0.392157 0.0941176 0.501961 0.392157 
0.0941176 0.501961 0.392157 0.0941176 0.501961 0.392157 
0.0941176 0.501961 0.392157 0.0941176 0.501961 0.392157 
0.0941176 0.501961 0.392157 0.0941176 0.501961 0.392157 
0.0941176 0.501961 0.392157 0.0941176 0.501961 0.392157 
0.0941176 0.501961 0.392157 0.0941176 0.501961 0.392157 
0.0941176 0.501961 0.392157 0.0941176 0.501961 0.392157 
0.0941176 0.501961 0.392157 0.0941176 0.501961 0.392157 
0.0941176 0.501961 0.392157 0.0941176 0.501961 0.392157 
0.0941176 0.501961 0.392157 0.0941176 0.501961 0.392157 
0.0941176 0.501961 0.392157 0.0941176 0.501961 0.392157 
0.0941176 0.501961 0.392157 0.0941176 0.501961 0.392157 
0.0941176 0.501961 0.392157 0.0941176 0.501961 0.392157 
0.0941176 0.501961 0.392157 0.0941176 0.501961 0.392157 
0.0941176 0.501961 0.392157 0.0941176 0.501961 0.392157 
0.0941176 0.501961 0.392157 0.0941176 0.501961 0.392157 
0.0941176 0.501961 0.392157 0.0941176 0.501961 0.392157 
0.0941176 0.501961 0.392157 0.0941176 0.501961 0.392157 
0.0941176 0.501961 0.392157 0.0941176 0.501961 0.392157 
0.0941176 0.501961 0.392157 0.0941176 0.501961 0.392157 
0.0941176 0.501961 0.392157 0.0941176 0.501961 0.392157 
0.0941176 0.501961 0.392157 0.0941176 0.501961 0.392157 
0.0941176 0.501961 0.392157 0.0941176 0.501961 0.392157 
0.0941176 0.501961 0.392157 0.0941176 0.501961 0.392157 
0.0941176 0.501961 0.392157 0.0941176 0.501961 0.392157 
0.0941176 0.501961 0.392157 0.0941176 0.501961 0.392157 
0.0941176 0.501961 0.392157 0.0941176 0.501961 0.392157 
0.0941176 0.501961 0.392157 0.0941176 0.501961 0.392157 
0.0941176 0.501961 0.392157 0.0941176 0.501961 0.392157 
0.0941176 0.501961 0.392157 0.0941176 0.501961 0.392157 
0.0941176 0.501961 0.392157 0.0941176 0.501961 0.392157 
0.0941176 0.501961 0.392157 0.0941176 0.501961 0.392157 
0.0941176 0.501961 0.392157 0.0941176 0.501961 0.392157 
0.0941176 0.501961 0.392157 0.0941176 0.501961 0.392157 
0.0941176 0.501961 0.392157 0.0941176 0.501961 0.392157 
0.0941176 0.501961 0.392157 0.0941176 0.501961 0.392157 
0.0941176 0.501961 0.392157 0.0941176 0.501961 0.392157 
0.0941176 0.501961 0.392157 0.0941176 0.501961 0.392157 
0.0941176 0.501961 0.392157 0.0941176 0.501961 0.392157 
0.0941176 0.501961 0.392157 0.0941176 0.501961 0.392157 
0.0941176 0.501961 0.392157 0.0941176 0.501961 0.392157 
0.0941176 0.501961 0.392157 0.0941176 0.501961 0.392157 
0.0941176 0.501961 0.392157 0.0941176 0.501961 0.392157 
0.0941176 0.501961 0.392157 0.0941176 0.501961 0.392157 
0.0941176 0.501961 0.392157 0.0941176 0.501961 0.392157 
0.0941176 0.501961 0.392157 0.0941176 0.501961 0.392157 
0.0941176 0.501961 0.392157 0.0941176 0.501961 0.392157 
0.0941176 0.501961 0.392157 0.0941176 0.501961 0.392157 
0.0941176 0.501961 0.392157 0.0941176 0.501961 0.392157 
0.0941176 0.501961 0.392157 0.0941176 0.501961 0.392157 
0.0941176 0.501961 0.392157 0.0941176 0.501961 0.392157 
0.0941176 0.501961 0.392157 0.0941176 0.501961 0.392157 
0.0941176 0.501961 0.392157 0.0941176 0.501961 0.392157 
0.0941176 0.501961 0.392157 0.0941176 0.501961 0.392157 
0.0941176 0.501961 0.392157 0.0941176 0.501961 0.392157 
0.0941176 0.501961 0.392157 0.0941176 0.501961 0.392157 
0.0941176 0.501961 0.392157 0.0941176 0.501961 0.392157 
0.0941176 0.501961 0.392157 0.0941176 0.501961 0.392157 
0.0941176 0.501961 0.392157 0.0941176 0.501961 0.392157 
0.0941176 0.501961 0.392157 0.0941176 0.501961 0.392157 
0.0941176 0.501961 0.392157 0.0941176 0.501961 0.392157 
0.0941176 0.501961 0.392157 0.0941176 0.501961 0.392157 
0.0941176 0.501961 0.392157 0.0941176 0.501961 0.392157 
0.0941176 0.501961 0.392157 0.0941176 0.501961 0.392157 
0.0941176 0.501961 0.392157 0.0941176 0.501961 0.392157 
0.0941176 0.501961 0.392157 0.0941176 0.501961 0.392157 
0.0941176 0.501961 0.392157 0.0941176 0.501961 0.392157 
0.0941176 0.501961 0.392157 0.0941176 0.501961 0.392157 
0.0941176 0.501961 0.392157 0.0941176 0.501961 0.392157 
0.0941176 0.501961 0.392157 0.0941176 0.501961 0.392157 
0.0941176 0.501961 0.392157 0.0941176 0.501961 0.392157 
0.0941176 0.501961 0.392157 0.0941176 0.501961 0.392157 
0.0941176 0.501961 0.392157 0.0941176 0.501961 0.392157 
0.0941176 0.501961 0.392157 0.0941176 0.501961 0.392157 
0.0941176 0.501961 0.392157 0.0941176 0.501961 0.392157 
0.0941176 0.501961 0.392157 0.0941176 0.501961 0.392157 
0.0941176 0.501961 0.392157 0.0941176 0.501961 0.392157 
0.0941176 0.501961 0.392157 0.0941176 0.501961 0.392157 
0.0941176 0.501961 0.392157 0.0941176 0.501961 0.392157 
0.0941176 0.501961 0.392157 0.0941176 0.501961 0.392157 
0.0941176 0.501961 0.392157 0.0941176 0.501961 0.392157 
0.0941176 0.501961 0.392157 0.0941176 0.501961 0.392157 
0.0941176 0.501961 0.392157 0.0941176 0.501961 0.392157 
0.0941176 0.501961 0.392157 0.0941176 0.501961 0.392157 
0.0941176 0.501961 0.392157 0.0941176 0.501961 0.392157 
0.0941176 0.501961 0.392157 0.0941176 0.501961 0.392157 
0.0941176 0.501961 0.392157 0.0941176 0.501961 0.392157 
0.0941176 0.501961 0.392157 0.0941176 0.501961 0.392157 
0.0941176 0.501961 0.392157 0.0941176 0.501961 0.392157 
0.0941176 0.501961 0.392157 0.0941176 0.501961 0.392157 
0.0941176 0.501961 0.392157 0.0941176 0.501961 0.392157 
0.0941176 0.501961 0.392157 0.0941176 0.501961 0.392157 
0.0941176 0.501961 0.392157 0.0941176 0.501961 0.392157 
0.0941176 0.501961 0.392157 0.0941176 0.501961 0.392157 
0.0941176 0.501961 0.392157 0.0941176 0.501961 0.392157 
0.0941176 0.501961 0.392157 0.0941176 0.501961 0.392157 
0.0941176 0.501961 0.392157 0.0941176 0.501961 0.392157 
0.0941176 0.501961 0.392157 0.0941176 0.501961 0.392157 
0.0941176 0.501961 0.392157 0.0941176 0.501961 0.392157 
0.0941176 0.501961 0.392157 0.0941176 0.501961 0.392157 
0.0941176 0.501961 0.392157 0.0941176 0.501961 0.392157 
0.0941176 0.501961 0.392157 0.0941176 0.501961 0.392157 
0.0941176 0.501961 0.392157 0.0941176 0.501961 0.392157 
0.0941176 0.501961 0.392157 0.0941176 0.501961 0.392157 
0.0941176 0.501961 0.392157 0.0941176 0.501961 0.392157 
0.0941176 0.501961 0.392157 0.0941176 0.501961 0.392157 
0.0941176 0.501961 0.392157 0.0941176 0.501961 0.392157 
0.0941176 0.501961 0.392157 0.0941176 0.501961 0.392157 
0.0941176 0.501961 0.392157 0.0941176 0.501961 0.392157 
0.0941176 0.501961 0.392157 0.0941176 0.501961 0.392157 
0.0941176 0.501961 0.392157 0.0941176 0.501961 0.392157 
0.0941176 0.501961 0.392157 0.0941176 0.501961 0.392157 
0.0941176 0.501961 0.392157 0.0941176 0.501961 0.392157 
0.0941176 0.501961 0.392157 0.0941176 0.501961 0.392157 
0.0941176 0.501961 0.392157 0.0941176 0.501961 0.392157 
0.0941176 0.501961 0.392157 0.0941176 0.501961 0.392157 
0.0941176 0.501961 0.392157 0.0941176 0.501961 0.392157 
0.0941176 0.501961 0.392157 0.0941176 0.501961 0.392157 
0.0941176 0.501961 0.392157 0.0941176 0.501961 0.392157 
0.0941176 0.501961 0.392157 0.0941176 0.501961 0.392157 
0.0941176 0.501961 0.392157 0.0941176 0.501961 0.392157 
0.0941176 0.501961 0.392157 0.0941176 0.501961 0.392157 
0.0941176 0.501961 0.392157 0.0941176 0.501961 0.392157 
0.0941176 0.501961 0.392157 0.0941176 0.501961 0.392157 
0.0941176 0.501961 0.392157 0.0941176 0.501961 0.392157 
0.0941176 0.501961 0.392157 0.0941176 0.501961 0.392157 
0.0941176 0.501961 0.392157 0.0941176 0.501961 0.392157 
0.0941176 0.501961 0.392157 0.0941176 0.501961 0.392157 
0.0941176 0.501961 0.392157 0.0941176 0.501961 0.392157 
0.0941176 0.501961 0.392157 0.0941176 0.501961 0.392157 
0.0941176 0.501961 0.392157 0.0941176 0.501961 0.392157 
0.0941176 0.501961 0.392157 0.0941176 0.501961 0.392157 
0.0941176 0.501961 0.392157 0.0941176 0.501961 0.392157 
0.0941176 0.501961 0.392157 0.0941176 0.501961 0.392157 
0.0941176 0.501961 0.392157 0.0941176 0.501961 0.392157 
0.0941176 0.501961 0.392157 0.0941176 0.501961 0.392157 
0.0941176 0.501961 0.392157 0.0941176 0.501961 0.392157 
0.0941176 0.501961 0.392157 0.0941176 0.501961 0.392157 
0.0941176 0.501961 0.392157 0.0941176 0.501961 0.392157 
0.0941176 0.501961 0.392157 0.0941176 0.501961 0.392157 
0.0941176 0.501961 0.392157 0.0941176 0.501961 0.392157 
0.0941176 0.501961 0.392157 0.0941176 0.501961 0.392157 
0.0941176 0.501961 0.392157 0.0941176 0.501961 0.392157 
0.0941176 0.501961 0.392157 0.0941176 0.501961 0.392157 
0.0941176 0.501961 0.392157 0.0941176 0.501961 0.392157 
0.0941176 0.501961 0.392157 0.0941176 0.501961 0.392157 
0.0941176 0.501961 0.392157 0.0941176 0.501961 0.392157 
0.0941176 0.501961 0.392157 0.0941176 0.501961 0.392157 
0.0941176 0.501961 0.392157 0.0941176 0.501961 0.392157 
0.0941176 0.501961 0.392157 0.0941176 0.501961 0.392157 
0.0941176 0.501961 0.392157 0.0941176 0.501961 0.392157 
0.0941176 0.501961 0.392157 0.0941176 0.501961 0.392157 
0.0941176 0.501961 0.392157 0.0941176 0.501961 0.392157 
0.0941176 0.501961 0.392157 0.0941176 0.501961 0.392157 
0.0941176 0.501961 0.392157 0.0941176 0.501961 0.392157 
0.0941176 0.501961 0.392157 0.0941176 0.501961 0.392157 
0.0941176 0.501961 0.392157 0.0941176 0.501961 0.392157 
0.0941176 0.501961 0.392157 0.0941176 0.501961 0.392157 
0.0941176 0.501961 0.392157 0.0941176 0.501961 0.392157 
0.0941176 0.501961 0.392157 0.0941176 0.501961 0.392157 
0.0941176 0.501961 0.392157 0.0941176 0.501961 0.392157 
0.0941176 0.501961 0.392157 0.0941176 0.501961 0.392157 
0.0941176 0.501961 0.392157 0.0941176 0.501961 0.392157 
0.0941176 0.501961 0.392157 0.0941176 0.501961 0.392157 
0.0941176 0.501961 0.392157 0.0941176 0.501961 0.392157 
0.0941176 0.501961 0.392157 0.0941176 0.501961 0.392157 
0.0941176 0.501961 0.392157 0.0941176 0.501961 0.392157 
0.0941176 0.501961 0.392157 0.0941176 0.501961 0.392157 
0.0941176 0.501961 0.392157 0.0941176 0.501961 0.392157 
0.0941176 0.501961 0.392157 0.0941176 0.501961 0.392157 
0.0941176 0.501961 0.392157 0.0941176 0.501961 0.392157 
0.0941176 0.501961 0.392157 0.0941176 0.501961 0.392157 
0.0941176 0.501961 0.392157 0.0941176 0.501961 0.392157 
0.0941176 0.501961 0.392157 0.0941176 0.501961 0.392157 
0.0941176 0.501961 0.392157 0.0941176 0.501961 0.392157 
0.0941176 0.501961 0.392157 0.0941176 0.501961 0.392157 
0.0941176 0.501961 0.392157 0.0941176 0.501961 0.392157 
0.0941176 0.501961 0.392157 0.0941176 0.501961 0.392157 
0.0941176 0.501961 0.392157 0.0941176 0.501961 0.392157 
0.0941176 0.501961 0.392157 0.0941176 0.501961 0.392157 
0.0941176 0.501961 0.392157 0.0941176 0.501961 0.392157 
0.0941176 0.501961 0.392157 0.0941176 0.501961 0.392157 
0.0941176 0.501961 0.392157 0.0941176 0.501961 0.392157 
0.0941176 0.501961 0.392157 0.0941176 0.501961 0.392157 
0.0941176 0.501961 0.392157 0.0941176 0.501961 0.392157 
0.0941176 0.501961 0.392157 0.0941176 0.501961 0.392157 
0.0941176 0.501961 0.392157 0.0941176 0.501961 0.392157 
0.0941176 0.501961 0.392157 0.0941176 0.501961 0.392157 
0.0941176 0.501961 0.392157 0.0941176 0.501961 0.392157 
0.0941176 0.501961 0.392157 0.0941176 0.501961 0.392157 
0.0941176 0.501961 0.392157 0.0941176 0.501961 0.392157 
0.0941176 0.501961 0.392157 0.0941176 0.501961 0.392157 
0.0941176 0.501961 0.392157 0.0941176 0.501961 0.392157 
0.0941176 0.501961 0.392157 0.0941176 0.501961 0.392157 
0.0941176 0.501961 0.392157 0.0941176 0.501961 0.392157 
0.0941176 0.501961 0.392157 0.0941176 0.501961 0.392157 
0.0941176 0.501961 0.392157 0.0941176 0.501961 0.392157 
0.0941176 0.501961 0.392157 0.0941176 0.501961 0.392157 
0.0941176 0.501961 0.392157 0.0941176 0.501961 0.392157 
0.0941176 0.501961 0.392157 0.0941176 0.501961 0.392157 
0.0941176 0.501961 0.392157 0.0941176 0.501961 0.392157 
0.0941176 0.501961 0.392157 0.0941176 0.501961 0.392157 
0.0941176 0.501961 0.392157 0.0941176 0.501961 0.392157 
0.0941176 0.501961 0.392157 0.0941176 0.501961 0.392157 
0.0941176 0.501961 0.392157 0.0941176 0.501961 0.392157 
0.0941176 0.501961 0.392157 0.0941176 0.501961 0.392157 
0.0941176 0.501961 0.392157 0.0941176 0.501961 0.392157 
0.0941176 0.501961 0.392157 0.0941176 0.501961 0.392157 
0.0941176 0.501961 0.392157 0.0941176 0.501961 0.392157 
0.0941176 0.501961 0.392157 0.0941176 0.501961 0.392157 
0.0941176 0.501961 0.392157 0.0941176 0.501961 0.392157 
0.0941176 0.501961 0.392157 0.0941176 0.501961 0.392157 
0.0941176 0.501961 0.392157 0.0941176 0.501961 0.392157 
0.0941176 0.501961 0.392157 0.0941176 0.501961 0.392157 
0.0941176 0.501961 0.392157 0.0941176 0.501961 0.392157 
0.0941176 0.501961 0.392157 0.0941176 0.501961 0.392157 
0.0941176 0.501961 0.392157 0.0941176 0.501961 0.392157 
0.0941176 0.501961 0.392157 0.0941176 0.501961 0.392157 
0.0941176 0.501961 0.392157 0.0941176 0.501961 0.392157 
0.0941176 0.501961 0.392157 0.0941176 0.501961 0.392157 
0.0941176 0.501961 0.392157 0.0941176 0.501961 0.392157 
0.0941176 0.501961 0.392157 0.0941176 0.501961 0.392157 
0.0941176 0.501961 0.392157 0.0941176 0.501961 0.392157 
0.0941176 0.501961 0.392157 0.0941176 0.501961 0.392157 
0.0941176 0.501961 0.392157 0.0941176 0.501961 0.392157 
0.0941176 0.501961 0.392157 0.0941176 0.501961 0.392157 
0.0941176 0.501961 0.392157 0.0941176 0.501961 0.392157 
0.0941176 0.501961 0.392157 0.0941176 0.501961 0.392157 
0.0941176 0.501961 0.392157 0.0941176 0.501961 0.392157 
0.0941176 0.501961 0.392157 0.0941176 0.501961 0.392157 
0.0941176 0.501961 0.392157 0.0941176 0.501961 0.392157 
0.0941176 0.501961 0.392157 0.0941176 0.501961 0.392157 
0.0941176 0.501961 0.392157 0.0941176 0.501961 0.392157 
0.0941176 0.501961 0.392157 0.0941176 0.501961 0.392157 
0.0941176 0.501961 0.392157 0.0941176 0.501961 0.392157 
0.0941176 0.501961 0.392157 0.0941176 0.501961 0.392157 
0.0941176 0.501961 0.392157 0.0941176 0.501961 0.392157 
0.0941176 0.501961 0.392157 0.0941176 0.501961 0.392157 
0.0941176 0.501961 0.392157 0.0941176 0.501961 0.392157 
0.0941176 0.501961 0.392157 0.0941176 0.501961 0.392157 
0.0941176 0.501961 0.392157 0.0941176 0.501961 0.392157 
0.0941176 0.501961 0.392157 0.0941176 0.501961 0.392157 
0.0941176 0.501961 0.392157 0.0941176 0.501961 0.392157 
0.0941176 0.501961 0.392157 0.0941176 0.501961 0.392157 
0.0941176 0.501961 0.392157 0.0941176 0.501961 0.392157 
0.0941176 0.501961 0.392157 0.0941176 0.501961 0.392157 
0.0941176 0.501961 0.392157 0.0941176 0.501961 0.392157 
0.0941176 0.501961 0.392157 0.0941176 0.501961 0.392157 
0.0941176 0.501961 0.392157 0.0941176 0.501961 0.392157 
0.0941176 0.501961 0.392157 0.0941176 0.501961 0.392157 
0.0941176 0.501961 0.392157 0.0941176 0.501961 0.392157 
0.0941176 0.501961 0.392157 0.0941176 0.501961 0.392157 
0.0941176 0.501961 0.392157 0.0941176 0.501961 0.392157 
0.0941176 0.501961 0.392157 0.0941176 0.501961 0.392157 
0.0941176 0.501961 0.392157 0.0941176 0.501961 0.392157 
0.0941176 0.501961 0.392157 0.0941176 0.501961 0.392157 
0.0941176 0.501961 0.392157 0.0941176 0.501961 0.392157 
0.0941176 0.501961 0.392157 0.0941176 0.501961 0.392157 
0.0941176 0.501961 0.392157 0.0941176 0.501961 0.392157 
0.0941176 0.501961 0.392157 0.0941176 0.501961 0.392157 
0.0941176 0.501961 0.392157 0.0941176 0.501961 0.392157 
0.0941176 0.501961 0.392157 0.0941176 0.501961 0.392157 
0.0941176 0.501961 0.392157 0.0941176 0.501961 0.392157 
0.0941176 0.501961 0.392157 0.0941176 0.501961 0.392157 
0.0941176 0.501961 0.392157 0.0941176 0.501961 0.392157 
0.0941176 0.501961 0.392157 0.0941176 0.501961 0.392157 
0.0941176 0.501961 0.392157 0.0941176 0.501961 0.392157 
0.0941176 0.501961 0.392157 0.0941176 0.501961 0.392157 
0.0941176 0.501961 0.392157 0.0941176 0.501961 0.392157 
0.0941176 0.501961 0.392157 0.0941176 0.501961 0.392157 
0.0941176 0.501961 0.392157 0.0941176 0.501961 0.392157 
0.0941176 0.501961 0.392157 0.0941176 0.501961 0.392157 
0.0941176 0.501961 0.392157 0.0941176 0.501961 0.392157 
0.0941176 0.501961 0.392157 0.0941176 0.501961 0.392157 
0.0941176 0.501961 0.392157 0.0941176 0.501961 0.392157 
0.0941176 0.501961 0.392157 0.0941176 0.501961 0.392157 
0.0941176 0.501961 0.392157 0.0941176 0.501961 0.392157 
0.0941176 0.501961 0.392157 0.0941176 0.501961 0.392157 
0.0941176 0.501961 0.392157 0.0941176 0.501961 0.392157 
0.0941176 0.501961 0.392157 0.0941176 0.501961 0.392157 
0.0941176 0.501961 0.392157 0.0941176 0.501961 0.392157 
0.0941176 0.501961 0.392157 0.0941176 0.501961 0.392157 
0.0941176 0.501961 0.392157 0.0941176 0.501961 0.392157 
0.0941176 0.501961 0.392157 0.0941176 0.501961 0.392157 
0.0941176 0.501961 0.392157 0.0941176 0.501961 0.392157 
0.0941176 0.501961 0.392157 0.0941176 0.501961 0.392157 
0.0941176 0.501961 0.392157 0.0941176 0.501961 0.392157 
0.0941176 0.501961 0.392157 0.0941176 0.501961 0.392157 
0.0941176 0.501961 0.392157 0.0941176 0.501961 0.392157 
0.0941176 0.501961 0.392157 0.0941176 0.501961 0.392157 
0.0941176 0.501961 0.392157 0.0941176 0.501961 0.392157 
0.0941176 0.501961 0.392157 0.0941176 0.501961 0.392157 
0.0941176 0.501961 0.392157 0.0941176 0.501961 0.392157 
0.0941176 0.501961 0.392157 0.0941176 0.501961 0.392157 
0.0941176 0.501961 0.392157 0.0941176 0.501961 0.392157 
0.0941176 0.501961 0.392157 0.0941176 0.501961 0.392157 
0.0941176 0.501961 0.392157 0.0941176 0.501961 0.392157 
0.0941176 0.501961 0.392157 0.0941176 0.501961 0.392157 
0.0941176 0.501961 0.392157 0.0941176 0.501961 0.392157 
0.0941176 0.501961 0.392157 0.0941176 0.501961 0.392157 
0.0941176 0.501961 0.392157 0.0941176 0.501961 0.392157 
0.0941176 0.501961 0.392157 0.0941176 0.501961 0.392157 
0.0941176 0.501961 0.392157 0.0941176 0.501961 0.392157 
0.0941176 0.501961 0.392157 0.0941176 0.501961 0.392157 
0.0941176 0.501961 0.392157 0.0941176 0.501961 0.392157 