# vtk DataFile Version 4.2
vtk output
ASCII
DATASET POLYDATA
POINTS 1127 float
278.892 122.609 52.5053 279.259 122.437 52.7881 278.781 123.378 52.4529 
279.068 123.217 52.5979 277.054 124.778 52.3552 279.284 123.361 52.8601 
277.943 121.555 52.5208 278.496 122.391 52.4366 279.653 122.43 53.2111 
274.506 124.285 52.4178 273.531 125.077 52.5383 271.439 126.629 52.977 
273.815 127.111 53.2019 279.216 118.834 53.7425 276.436 120.269 52.9476 
280.071 123.11 53.8684 277.028 125.872 52.9401 264.538 126.791 54.6754 
263.331 127.323 55.2588 265.245 127.278 54.7277 274.527 127.93 53.9384 
263.925 127.691 55.3316 264.836 127.81 55.1704 280.962 114.391 55.6542 
280.262 116.458 55.0837 265.032 124.567 54.4455 260.155 126.489 56.0491 
259.783 126.069 56.0946 259.324 126.357 56.5606 260.167 126.915 56.2955 
260.509 127.278 56.4757 261.212 127.408 56.2225 282.753 110.294 57.468 
260.538 123.74 55.9932 258.59 125.451 56.8702 258.667 125.631 56.7481 
258.803 125.784 56.7109 258.876 126.07 57.0007 259.237 125.902 56.4328 
277.064 128.268 55.0856 278.435 127.943 55.4957 262.494 128.138 56.511 
266.45 129.205 56.4634 282.159 110.55 57.2686 282.829 111.071 57.6528 
281.856 115.503 56.6917 258.983 122.177 57.1805 257.706 123.089 57.8807 
258.674 124.339 56.9509 258.608 125.646 56.925 258.298 125.191 57.4512 
260.764 127.887 57.4915 262.153 128.619 57.8759 264.689 129.294 57.4557 
285.718 105.378 59.3683 284.815 106.152 58.9049 283.314 107.199 58.3428 
281.519 107.646 58.0164 257.782 122.081 57.9909 257.147 122.833 58.3583 
258.847 126.827 58.7166 281.783 127.023 58.7591 279.339 129.913 58.0701 
286.435 103.746 60.0128 285.001 104.132 59.5753 286.444 104.863 59.9288 
284.205 106.315 58.8165 284.715 107.163 58.9761 278.174 107.9 58.4913 
258.886 117.5 58.8933 259.162 118.7 58.334 255.838 121.797 59.8647 
257.044 122.911 58.5492 273.487 131.197 58.6026 278.616 130.901 58.7246 
274.696 131.831 59.5827 287.169 102.365 60.7933 283.989 113.606 59.7702 
255.056 117.446 60.2762 254.115 118.101 60.6308 253.9 119.284 60.811 
253.609 119.531 61.1277 257.941 125.927 60.1602 280.783 130.014 59.7698 
275.658 132.251 60.3242 288.835 100.528 61.7385 284.108 102.224 60.6538 
288.579 102.172 61.5661 258.689 113.391 60.8701 252.318 118.071 61.8578 
262.471 129.014 60.655 281.822 128.606 60.7774 274.825 132.346 60.8983 
279.814 131.203 60.7214 276.103 132.55 61.4013 292.061 97.5113 63.3142 
286.47 99.9083 61.7161 287.969 100.001 61.6536 283.89 101.206 61.3592 
288.784 103.496 61.9224 284.021 116.517 61.4221 251.16 116.892 63.0118 
256.176 124.053 61.9966 282.656 125.337 61.5204 260.545 127.891 61.9631 
281.555 129.136 61.6012 281.299 129.52 61.5897 270.186 131.272 61.5376 
280.193 130.844 61.0689 273.372 132.109 61.5692 278.968 131.856 61.1243 
279.168 131.69 61.2858 274.54 132.368 61.9721 276.246 132.579 61.7586 
276.245 132.49 62.0326 278.275 132.197 61.3663 276.584 132.556 61.8691 
277.962 132.3 61.643 293.173 95.062 64.1788 291.918 96.6471 63.4307 
283.147 121.956 62.5274 280.295 130.249 62.1733 270.993 131.274 62.7516 
273.732 132.172 62.1468 277.432 132.022 62.3933 278.094 131.941 62.1792 
279.119 131.515 61.7743 274.118 132.218 62.4585 274.415 132.345 62.4137 
277.31 132.359 62.0138 274.5 132.325 62.5464 294.987 93.7156 64.9936 
292.927 97.9399 63.8891 269.331 103.924 63.6823 250.854 113.434 63.933 
281.08 127.87 63.2879 264.144 128.86 63.995 275.531 130.789 63.8295 
274.645 131.585 63.3024 271.553 131.299 63.0316 273.248 131.578 63.1228 
274.138 131.944 62.9082 292.504 92.4782 65.3311 282.76 97.6732 64.1065 
294.011 97.9527 64.8572 256.042 107.598 65.0759 251.931 109.738 65.1088 
253.925 109.796 64.289 251.118 110.34 65.1715 251.447 111.343 64.4141 
284.369 117.258 64.0534 250.476 118.193 65.129 283.732 119.089 64.2838 
252.484 121.051 64.6393 282.774 122.15 64.0101 282.623 121.863 64.5217 
262.897 127.974 64.9753 276.927 128.61 64.6713 270.087 130.442 63.98 
271.954 130.519 64.152 268.452 130.166 63.9552 271.704 131.025 63.5285 
299.792 89.5584 67.3143 299.691 89.8353 67.3171 298.467 91.4095 66.7448 
258.795 105.388 65.8744 254.172 107.367 66.1636 253.013 108.27 65.8911 
248.786 111.492 66.7841 287.627 111.029 65.6583 284.281 117.412 64.7558 
284.126 117.554 65.2423 283.826 118.087 65.3712 283.121 119.962 65.0248 
282.238 121.694 65.0794 267.027 129.297 64.8381 298.03 89.222 66.9938 
267.15 100.711 66.6191 261.407 102.886 67.112 256.574 105.264 67.4192 
257.451 105.15 66.8643 254.065 106.597 67.4132 249.032 109.853 67.5678 
248.602 110.078 67.8553 248.365 110.328 68.0186 248.979 115.195 66.4471 
284.045 117.002 66.0272 283.567 117.572 66.2452 283.371 118.387 65.8363 
282.373 119.526 66.1748 253.757 123.071 66.9917 263.4 127.275 66.359 
268.108 128.283 66.0421 267.277 128.92 65.3589 303.128 87.8421 69.192 
291.594 89.7088 67.5384 300.707 90.4396 68.1495 267.426 99.6206 67.4941 
295.258 99.7214 67.7214 253.414 106.647 68.349 248.468 110.054 68.1523 
248.542 109.896 68.4731 248.96 109.474 68.469 247.939 112.208 68.2199 
248.214 113.256 67.5567 250.226 119.252 67.9081 255.614 124.528 67.8539 
266.525 125.154 68.0811 258.776 125.587 67.6818 263.429 126.747 66.9806 
262.581 126.551 67.0989 307.821 82.3447 70.557 307.855 82.2149 70.5855 
308.016 82.3707 70.6905 305.698 85.3416 70.1779 297.393 86.1196 68.7303 
300.982 91.1349 68.6713 277.15 93.6225 69.0028 271.912 96.0143 69.1047 
297.21 97.1111 68.2707 264.875 99.893 69.0075 264.27 100.108 69.3379 
265.389 99.4612 69.5341 266.59 99.0871 68.7741 261.059 102.016 69.3656 
254.589 105.912 69.1321 254.895 105.805 69.4782 250.666 108.12 68.9186 
291.374 106.041 68.7898 251.265 107.898 69.5679 247.748 111.6 69.3787 
253.289 122.681 68.9093 256.566 124.747 68.7408 262.243 125.505 68.1865 
307.856 81.9187 70.7107 308.361 81.7185 70.9499 308.428 82.1374 70.9488 
271.302 95.7817 70.0161 266.835 98.4708 70.138 261.272 101.92 70.1083 
247.498 112.304 70.4145 247.73 115.208 69.7632 257.751 124.373 69.5318 
311.673 78.5459 72.7567 308.781 82.8331 71.3007 307.158 84.5474 70.7706 
289.012 86.6005 71.0078 278.724 91.0695 71.0625 302.738 90.9663 70.5648 
301.387 93.505 70.9353 270.584 95.9331 70.6609 271.443 95.3787 71.1186 
266.227 98.9119 70.7841 265.252 99.6731 71.0894 264.694 99.8833 70.6374 
261.395 102.116 70.854 287.502 108.26 71.0717 247.539 112.192 71.1867 
247.371 112.361 71.1277 247.212 114.198 71.2042 248.509 117.852 71.2512 
255.411 123.254 70.4184 312.477 77.5044 73.4135 312.194 77.4568 73.3186 
310.197 78.0983 72.6562 312.417 78.2518 73.2137 280.771 89.4305 72.0945 
302.919 91.4383 71.2331 270.61 95.8636 71.2991 251.143 109.167 71.7633 
248.93 111.337 72.3567 247.391 112.725 71.6923 247.123 113.702 72.3599 
247.035 114.265 72.5871 247.742 116.619 71.3849 255.909 121.447 71.9836 
311.4 76.7291 73.5516 308.134 77.6466 73.0513 288.62 84.9016 73.1157 
279.458 89.8929 72.8897 277.938 90.7656 73.5316 276.56 91.7954 72.9818 
302.921 92.6038 72.6756 301.248 94.8048 72.8054 299.218 96.9576 72.0474 
247.346 113.578 73.0993 247.083 114.348 73.2382 248.303 117.832 72.4525 
257.161 120.006 72.695 253.474 121.251 71.9053 313.015 75.7066 74.6458 
286.895 85.219 74.0961 282.588 87.8489 73.602 284.125 86.8963 74.1696 
308.263 86.9066 73.7823 303.748 91.7843 73.1785 300.831 95.2171 73.3395 
297.975 97.739 73.6785 297.682 98.2946 73.0908 294.272 100.161 74.0023 
259.947 104.908 73.3342 253.383 109.593 73.9135 247.215 113.956 73.3136 
247.411 114.164 73.9842 247.111 114.842 73.7655 247.038 115.493 73.1728 
247.292 116.274 73.1685 248.018 117.396 73.4113 254.979 117.764 74.294 
248.995 118.323 73.0559 250.963 119.074 73.4562 314.282 74.6395 75.957 
314.692 74.9498 76.1602 314.491 74.6486 76.1446 314.735 74.7234 76.4619 
313.75 79.2074 74.7201 288.862 83.7124 75.063 311.588 83.5417 74.9033 
287.059 84.7875 75.432 288.663 84.1112 74.43 285.222 85.9203 75.2672 
285.138 85.9611 75.6866 282.138 88.1044 74.7098 282.203 88.2134 75.2436 
280.036 89.5995 74.7318 277.405 91.5713 74.4808 277.651 91.8706 75.2508 
305.09 90.7486 74.6256 302.75 93.2005 74.2158 301.31 94.5942 74.0523 
302.782 93.1368 74.5264 299.653 95.4692 75.0047 300.585 95.2403 74.0424 
298.53 96.2368 75.0314 299.725 96.0848 73.8228 247.576 114.247 74.2535 
247.052 115.835 74.6563 247.165 116.246 74.4253 251.715 116.995 75.0015 
247.552 116.776 74.2759 247.89 117.119 74.2537 249.952 118.645 73.4763 
313.881 73.9809 76.6293 313.68 74.0925 76.2852 314.499 74.4303 76.4229 
314.316 74.1775 76.6634 307.036 75.4514 75.8549 292.881 81.1339 75.8471 
291.4 81.887 75.9833 288.138 83.9672 76.342 283.299 87.7892 76.1815 
306.416 89.5344 75.5111 302.217 93.0413 75.6601 301.177 93.8055 75.6671 
302.588 93.1983 74.8305 303.032 92.8087 74.6978 298.433 95.212 76.0773 
300.447 94.1595 75.8568 274.219 96.0385 76.1513 269.667 99.8608 75.873 
266.56 101.926 75.3258 262.869 105.906 75.9875 263.499 110.714 76.0422 
255.013 110.687 75.6049 259.97 113.092 75.6425 247.484 115.418 74.9276 
254.348 114.432 75.7317 246.989 115.933 74.905 247.112 115.873 74.9432 
246.998 115.978 74.9689 247.352 115.702 74.9961 251.154 115.984 75.3747 
246.994 116.002 74.9011 247.077 116.147 74.8171 247.261 116.538 74.6229 
247.183 116.392 74.7769 247.374 116.634 74.6887 247.657 116.701 74.7359 
248.061 117.054 74.4926 248.155 116.724 74.8823 249.59 117.284 74.7645 
247.252 116.538 74.7719 314.46 74.1709 77.0088 314.379 74.088 77.4201 
314.894 74.7334 77.4737 315.118 75.3004 77.4583 300.704 76.8932 77.0766 
315.35 77.232 76.9912 294.587 80.0536 76.3084 290.854 81.971 77.0515 
308.962 87.2037 76.0294 306.766 89.0837 76.4075 302.066 91.8872 77.1817 
287.212 98.8787 77.3522 270.615 100.471 76.8751 276.398 103.862 76.9852 
265.135 104.71 76.3685 264.634 105.415 76.4521 260.325 110.323 76.3931 
260.163 110.945 76.2998 254.873 112.332 75.999 252.779 113.857 75.7448 
247.092 116.057 74.9757 247.396 116.006 75.0498 247.253 116.263 74.95 
247.358 116.503 74.856 313.091 73.3776 77.7486 312.785 73.4012 77.6767 
313.315 73.4112 77.6841 313.49 73.4842 77.7095 311.219 73.414 78.4464 
[...]
POINT_DATA 1127
COLOR_SCALARS scalars 3
0.0941176 0.501961 0.392157 0.0941176 0.501961 0.392157 0.0941176 0.501961 0.392157 
0.0941176 0.501961 0.392157 0.0941176 0.501961 0.392157 
0.0941176 0.501961 0.392157 0.0941176 0.501961 0.392157 
0.0941176 0.501961 0.392157 0.0941176 0.501961 0.392157 
0.0941176 0.501961 0.392157 0.0941176 0.501961 0.392157 
0.0941176 0.501961 0.392157 0.0941176 0.501961 0.392157 
0.0941176 0.501961 0.392157 0.0941176 0.501961 0.392157 
0.0941176 0.501961 0.392157 0.0941176 0.501961 0.392157 
0.0941176 0.501961 0.392157 0.0941176 0.501961 0.392157 
0.0941176 0.501961 0.392157 0.0941176 0.501961 0.392157 
0.0941176 0.501961 0.392157 0.0941176 0.501961 0.392157 
0.0941176 0.501961 0.392157 0.0941176 0.501961 0.392157 
0.0941176 0.501961 0.392157 0.0941176 0.501961 0.392157 
0.0941176 0.501961 0.392157 0.0941176 0.501961 0.392157 
0.0941176 0.501961 0.392157 0.0941176 0.501961 0.392157 
0.0941176 0.501961 0.392157 0.0941176 0.501961 0.392157 
0.0941176 0.501961 0.392157 0.0941176 0.501961 0.392157 
0.0941176 0.501961 0.392157 0.0941176 0.501961 0.392157 
0.0941176 0.501961 0.392157 0.0941176 0.501961 0.392157 
0.0941176 0.501961 0.392157 0.0941176 0.501961 0.392157 
0.0941176 0.501961 0.392157 0.0941176 0.501961 0.392157 
0.0941176 0.501961 0.392157 0.0941176 0.501961 0.392157 
0.0941176 0.501961 0.392157 0.0941176 0.501961 0.392157 
0.0941176 0.501961 0.392157 0.0941176 0.501961 0.392157 
0.0941176 0.501961 0.392157 0.0941176 0.501961 0.392157 
0.0941176 0.501961 0.392157 0.0941176 0.501961 0.392157 
0.0941176 0.501961 0.392157 0.0941176 0.501961 0.392157 
0.0941176 0.501961 0.392157 0.0941176 0.501961 0.392157 
0.0941176 0.501961 0.392157 0.0941176 0.501961 0.392157 
0.0941176 0.501961 0.392157 0.0941176 0.501961 0.392157 
0.0941176 0.501961 0.392157 0.0941176 0.501961 0.392157 
0.0941176 0.501961 0.392157 0.0941176 0.501961 0.392157 
0.0941176 0.501961 0.392157 0.0941176 0.501961 0.392157 
0.0941176 0.501961 0.392157 0.0941176 0.501961 0.392157 
0.0941176 0.501961 0.392157 0.0941176 0.501961 0.392157 
0.0941176 0.501961 0.392157 0.0941176 0.501961 0.392157 
0.0941176 0.501961 0.392157 0.0941176 0.501961 0.392157 
0.0941176 0.501961 0.392157 0.0941176 0.501961 0.392157 
0.0941176 0.501961 0.392157 0.0941176 0.501961 0.392157 
0.0941176 0.501961 0.392157 0.0941176 0.501961 0.392157 
0.0941176 0.501961 0.392157 0.0941176 0.501961 0.392157 
0.0941176 0.501961 0.392157 0.0941176 0.501961 0.392157 
0.0941176 0.501961 0.392157 0.0941176 0.501961 0.392157 
0.0941176 0.501961 0.392157 0.0941176 0.501961 0.392157 
0.0941176 0.501961 0.392157 0.0941176 0.501961 0.392157 
0.0941176 0.501961 0.392157 0.0941176 0.501961 0.392157 
0.0941176 0.501961 0.392157 0.0941176 0.501961 0.392157 
0.0941176 0.501961 0.392157 0.0941176 0.501961 0.392157 
0.0941176 0.501961 0.392157 0.0941176 0.501961 0.392157 
0.0941176 0.501961 0.392157 0.0941176 0.501961 0.392157 
0.0941176 0.501961 0.392157 0.0941176 0.501961 0.392157 
0.0941176 0.501961 0.392157 0.0941176 0.501961 0.392157 
0.0941176 0.501961 0.392157 0.0941176 0.501961 0.392157 
0.0941176 0.501961 0.392157 0.0941176 0.501961 0.392157 
0.0941176 0.501961 0.392157 0.0941176 0.501961 0.392157 
0.0941176 0.501961 0.392157 0.0941176 0.501961 0.392157 
0.0941176 0.501961 0.392157 0.0941176 0.501961 0.392157 
0.0941176 0.501961 0.392157 0.0941176 0.501961 0.392157 
0.0941176 0.501961 0.392157 0.0941176 0.501961 0.392157 
0.0941176 0.501961 0.392157 0.0941176 0.501961 0.392157 
0.0941176 0.501961 0.392157 0.0941176 0.501961 0.392157 
0.0941176 0.501961 0.392157 0.0941176 0.501961 0.392157 
0.0941176 0.501961 0.392157 0.0941176 0.501961 0.392157 
0.0941176 0.501961 0.392157 0.0941176 0.501961 0.392157 
0.0941176 0.501961 0.392157 0.0941176 0.501961 0.392157 
0.0941176 0.501961 0.392157 0.0941176 0.501961 0.392157 
0.0941176 0.501961 0.392157 0.0941176 0.501961 0.392157 
0.0941176 0.501961 0.392157 0.0941176 0.501961 0.392157 
0.0941176 0.501961 0.392157 0.0941176 0.501961 0.392157 
0.0941176 0.501961 0.392157 0.0941176 0.501961 0.392157 
0.0941176 0.501961 0.392157 0.0941176 0.501961 0.392157 
0.0941176 0.501961 0.392157 0.0941176 0.501961 0.392157 
0.0941176 0.501961 0.392157 0.0941176 0.501961 0.392157 
0.0941176 0.501961 0.392157 0.0941176 0.501961 0.392157 
0.0941176 0.501961 0.392157 0.0941176 0.501961 0.392157 
0.0941176 0.501961 0.392157 0.0941176 0.501961 0.392157 
0.0941176 0.501961 0.392157 0.0941176 0.501961 0.392157 
0.0941176 0.501961 0.392157 0.0941176 0.501961 0.392157 
0.0941176 0.501961 0.392157 0.0941176 0.501961 0.392157 
0.0941176 0.501961 0.392157 0.0941176 0.501961 0.392157 
0.0941176 0.501961 0.392157 0.0941176 0.501961 0.392157 
0.0941176 0.501961 0.392157 0.0941176 0.501961 0.392157 
0.0941176 0.501961 0.392157 0.0941176 0.501961 0.392157 
0.0941176 0.501961 0.392157 0.0941176 0.501961 0.392157 
0.0941176 0.501961 0.392157 0.0941176 0.501961 0.392157 
0.0941176 0.501961 0.392157 0.0941176 0.501961 0.392157 
0.0941176 0.501961 0.392157 0.0941176 0.501961 0.392157 
0.0941176 0.501961 0.392157 0.0941176 0.501961 0.392157 
0.0941176 0.501961 0.392157 0.0941176 0.501961 0.392157 
0.0941176 0.501961 0.392157 0.0941176 0.501961 0.392157 
0.0941176 0.501961 0.392157 0.0941176 0.501961 0.392157 
0.0941176 0.501961 0.392157 0.0941176 0.501961 0.392157 
0.0941176 0.501961 0.392157 0.0941176 0.501961 0.392157 
0.0941176 0.501961 0.392157 0.0941176 0.501961 0.392157 
0.0941176 0.501961 0.392157 0.0941176 0.501961 0.392157 
0.0941176 0.501961 0.392157 0.0941176 0.501961 0.392157 
0.0941176 0.501961 0.392157 0.0941176 0.501961 0.392157 
0.0941176 0.501961 0.392157 0.0941176 0.501961 0.392157 
0.0941176 0.501961 0.392157 0.0941176 0.501961 0.392157 
0.0941176 0.501961 0.392157 0.0941176 0.501961 0.392157 
0.0941176 0.501961 0.392157 0.0941176 0.501961 0.392157 
0.0941176 0.501961 0.392157 0.0941176 0.501961 0.392157 
0.0941176 0.501961 0.392157 0.0941176 0.501961 0.392157 
0.0941176 0.501961 0.392157 0.0941176 0.501961 0.392157 
0.0941176 0.501961 0.392157 0.0941176 0.501961 0.392157 
0.0941176 0.501961 0.392157 0.0941176 0.501961 0.392157 
0.0941176 0.501961 0.392157 0.0941176 0.501961 0.392157 
0.0941176 0.501961 0.392157 0.0941176 0.501961 0.392157 
0.0941176 0.501961 0.392157 0.0941176 0.501961 0.392157 
0.0941176 0.501961 0.392157 0.0941176 0.501961 0.392157 
0.0941176 0.501961 0.392157 0.0941176 0.501961 0.392157 
0.0941176 0.501961 0.392157 0.0941176 0.501961 0.392157 
0.0941176 0.501961 0.392157 0.0941176 0.501961 0.392157 
0.0941176 0.501961 0.392157 0.0941176 0.501961 0.392157 
0.0941176 0.501961 0.392157 0.0941176 0.501961 0.392157 
0.0941176 0.501961 0.392157 0.0941176 0.501961 0.392157 
0.0941176 0.501961 0.392157 0.0941176 0.501961 0.392157 
0.0941176 0.501961 0.392157 0.0941176 0.501961 0.392157 
0.0941176 0.501961 0.392157 0.0941176 0.501961 0.392157 
0.0941176 0.501961 0.392157 0.0941176 0.501961 0.392157 
0.0941176 0.501961 0.392157 0.0941176 0.501961 0.392157 
0.0941176 0.501961 0.392157 0.0941176 0.501961 0.392157 
0.0941176 0.501961 0.392157 0.0941176 0.501961 0.392157 
0.0941176 0.501961 0.392157 0.0941176 0.501961 0.392157 
0.0941176 0.501961 0.392157 0.0941176 0.501961 0.392157 
0.0941176 0.501961 0.392157 0.0941176 0.501961 0.392157 
0.0941176 0.501961 0.392157 0.0941176 0.501961 0.392157 
0.0941176 0.501961 0.392157 0.0941176 0.501961 0.392157 
0.0941176 0.501961 0.392157 0.0941176 0.501961 0.392157 
0.0941176 0.501961 0.392157 0.0941176 0.501961 0.392157 
0.0941176 0.501961 0.392157 0.0941176 0.501961 0.392157 
0.0941176 0.501961 0.392157 0.0941176 0.501961 0.392157 
0.0941176 0.501961 0.392157 0.0941176 0.501961 0.392157 
0.0941176 0.501961 0.392157 0.0941176 0.501961 0.392157 
0.0941176 0.501961 0.392157 0.0941176 0.501961 0.392157 
0.0941176 0.501961 0.392157 0.0941176 0.501961 0.392157 
0.0941176 0.501961 0.392157 0.0941176 0.501961 0.392157 
0.0941176 0.501961 0.392157 0.0941176 0.501961 0.392157 
0.0941176 0.501961 0.392157 0.0941176 0.501961 0.392157 
0.0941176 0.501961 0.392157 0.0941176 0.501961 0.392157 
0.0941176 0.501961 0.392157 0.0941176 0.501961 0.392157 
0.0941176 0.501961 0.392157 0.0941176 0.501961 0.392157 
0.0941176 0.501961 0.392157 0.0941176 0.501961 0.392157 
0.0941176 0.501961 0.392157 0.0941176 0.501961 0.392157 
0.0941176 0.501961 0.392157 0.0941176 0.501961 0.392157 
0.0941176 0.501961 0.392157 0.0941176 0.501961 0.392157 
0.0941176 0.501961 0.392157 0.0941176 0.501961 0.392157 
0.0941176 0.501961 0.392157 0.0941176 0.501961 0.392157 
0.0941176 0.501961 0.392157 0.0941176 0.501961 0.392157 
0.0941176 0.501961 0.392157 0.0941176 0.501961 0.392157 
0.0941176 0.501961 0.392157 0.0941176 0.501961 0.392157 
0.0941176 0.501961 0.392157 0.0941176 0.501961 0.392157 
0.0941176 0.501961 0.392157 0.0941176 0.501961 0.392157 
0.0941176 0.501961 0.392157 0.0941176 0.501961 0.392157 
0.0941176 0.501961 0.392157 0.0941176 0.501961 0.392157 
0.0941176 0.501961 0.392157 0.0941176 0.501961 0.392157 
0.0941176 0.501961 0.392157 0.0941176 0.501961 0.392157 
0.0941176 0.501961 0.392157 0.0941176 0.501961 0.392157 
0.0941176 0.501961 0.392157 0.0941176 0.501961 0.392157 
0.0941176 0.501961 0.392157 0.0941176 0.501961 0.392157 
0.0941176 0.501961 0.392157 0.0941176 0.501961 0.392157 
0.0941176 0.501961 0.392157 0.0941176 0.501961 0.392157 
0.0941176 0.501961 0.392157 0.0941176 0.501961 0.392157 
0.0941176 0.501961 0.392157 0.0941176 0.501961 0.392157 
0.0941176 0.501961 0.392157 0.0941176 0.501961 0.392157 
0.0941176 0.501961 0.392157 0.0941176 0.501961 0.392157 
0.0941176 0.501961 0.392157 0.0941176 0.501961 0.392157 
0.0941176 0.501961 0.392157 0.0941176 0.501961 0.392157 
0.0941176 0.501961 0.392157 0.0941176 0.501961 0.392157 
0.0941176 0.501961 0.392157 0.0941176 0.501961 0.392157 
0.0941176 0.501961 0.392157 0.0941176 0.501961 0.392157 
0.0941176 0.501961 0.392157 0.0941176 0.501961 0.392157 
0.0941176 0.501961 0.392157 0.0941176 0.501961 0.392157 
0.0941176 0.501961 0.392157 0.0941176 0.501961 0.392157 
0.0941176 0.501961 0.392157 0.0941176 0.501961 0.392157 
0.0941176 0.501961 0.392157 0.0941176 0.501961 0.392157 
0.0941176 0.501961 0.392157 0.0941176 0.501961 0.392157 
0.0941176 0.501961 0.392157 0.0941176 0.501961 0.392157 
0.0941176 0.501961 0.392157 0.0941176 0.501961 0.392157 
0.0941176 0.501961 0.392157 0.0941176 0.501961 0.392157 
0.0941176 0.501961 0.392157 0.0941176 0.501961 0.392157 
0.0941176 0.501961 0.392157 0.0941176 0.501961 0.392157 
0.0941176 0.501961 0.392157 0.0941176 0.501961 0.392157 
0.0941176 0.501961 0.392157 0.0941176 0.501961 0.392157 
0.0941176 0.501961 0.392157 0.0941176 0.501961 0.392157 
0.0941176 0.501961 0.392157 0.0941176 0.501961 0.392157 
0.0941176 0.501961 0.392157 0.0941176 0.501961 0.392157 
0.0941176 0.501961 0.392157 0.0941176 0.501961 0.392157 
0.0941176 0.501961 0.392157 0.0941176 0.501961 0.392157 
0.0941176 0.501961 0.392157 0.0941176 0.501961 0.392157 
0.0941176 0.501961 0.392157 0.0941176 0.501961 0.392157 
0.0941176 0.501961 0.392157 0.0941176 0.501961 0.392157 
0.0941176 0.501961 0.392157 0.0941176 0.501961 0.392157 
0.0941176 0.501961 0.392157 0.0941176 0.501961 0.392157 
0.0941176 0.501961 0.392157 0.0941176 0.501961 0.392157 
0.0941176 0.501961 0.392157 0.0941176 0.501961 0.392157 
0.0941176 0.501961 0.392157 0.0941176 0.501961 0.392157 
0.0941176 0.501961 0.392157 0.0941176 0.501961 0.392157 
0.0941176 0.501961 0.392157 0.0941176 0.501961 0.392157 
0.0941176 0.501961 0.392157 0.0941176 0.501961 0.392157 
0.0941176 0.501961 0.392157 0.0941176 0.501961 0.392157 
0.0941176 0.501961 0.392157 0.0941176 0.501961 0.392157 
0.0941176 0.501961 0.392157 0.0941176 0.501961 0.392157 
0.0941176 0.501961 0.392157 0.0941176 0.501961 0.392157 
0.0941176 0.501961 0.392157 0.0941176 0.501961 0.392157 
0.0941176 0.501961 0.392157 0.0941176 0.501961 0.392157 
0.0941176 0.501961 0.392157 0.0941176 0.501961 0.392157 
0.0941176 0.501961 0.392157 0.0941176 0.501961 0.392157 
0.0941176 0.501961 0.392157 0.0941176 0.501961 0.392157 
0.0941176 0.501961 0.392157 0.0941176 0.501961 0.392157 
0.0941176 0.501961 0.392157 0.0941176 0.501961 0.392157 
0.0941176 0.501961 0.392157 0.0941176 0.501961 0.392157 
0.0941176 0.501961 0.392157 0.0941176 0.501961 0.392157 
0.0941176 0.501961 0.392157 0.0941176 0.501961 0.392157 
0.0941176 0.501961 0.392157 0.0941176 0.501961 0.392157 
0.0941176 0.501961 0.392157 0.0941176 0.501961 0.392157 
0.0941176 0.501961 0.392157 0.0941176 0.501961 0.392157 
0.0941176 0.501961 0.392157 0.0941176 0.501961 0.392157 
0.0941176 0.501961 0.392157 0.0941176 0.501961 0.392157 
0.0941176 0.501961 0.392157 0.0941176 0.501961 0.392157 
0.0941176 0.501961 0.392157 0.0941176 0.501961 0.392157 
0.0941176 0.501961 0.392157 0.0941176 0.501961 0.392157 
0.0941176 0.501961 0.392157 0.0941176 0.501961 0.392157 
0.0941176 0.501961 0.392157 0.0941176 0.501961 0.392157 
0.0941176 0.501961 0.392157 0.0941176 0.501961 0.392157 
0.0941176 0.501961 0.392157 0.0941176 0.501961 0.392157 
0.0941176 0.501961 0.392157 0.0941176 0.501961 0.392157 
0.0941176 0.501961 0.392157 0.0941176 0.501961 0.392157 
0.0941176 0.501961 0.392157 0.0941176 0.501961 0.392157 
0.0941176 0.501961 0.392157 0.0941176 0.501961 0.392157 
0.0941176 0.501961 0.392157 0.0941176 0.501961 0.392157 
0.0941176 0.501961 0.392157 0.0941176 0.501961 0.392157 
0.0941176 0.501961 0.392157 0.0941176 0.501961 0.392157 
0.0941176 0.501961 0.392157 0.0941176 0.501961 0.392157 
0.0941176 0.501961 0.392157 0.0941176 0.501961 0.392157 
0.0941176 0.501961 0.392157 0.0941176 0.501961 0.392157 
0.0941176 0.501961 0.392157 0.0941176 0.501961 0.392157 
0.0941176 0.501961 0.392157 0.0941176 0.501961 0.392157 
0.0941176 0.501961 0.392157 0.0941176 0.501961 0.392157 
0.0941176 0.501961 0.392157 0.0941176 0.501961 0.392157 
0.0941176 0.501961 0.392157 0.0941176 0.501961 0.392157 
0.0941176 0.501961 0.392157 0.0941176 0.501961 0.392157 
0.0941176 0.501961 0.392157 0.0941176 0.501961 0.392157 
0.0941176 0.501961 0.392157 0.0941176 0.501961 0.392157 
0.0941176 0.501961 0.392157 0.0941176 0.501961 0.392157 
0.0941176 0.501961 0.392157 0.0941176 0.501961 0.392157 
0.0941176 0.501961 0.392157 0.0941176 0.501961 0.392157 
0.0941176 0.501961 0.392157 0.0941176 0.501961 0.392157 
0.0941176 0.501961 0.392157 0.0941176 0.501961 0.392157 
0.0941176 0.501961 0.392157 0.0941176 0.501961 0.392157 
0.0941176 0.501961 0.392157 0.0941176 0.501961 0.392157 
0.0941176 0.501961 0.392157 0.0941176 0.501961 0.392157 
0.0941176 0.501961 0.392157 0.0941176 0.501961 0.392157 
0.0941176 0.501961 0.392157 0.0941176 0.501961 0.392157 
0.0941176 0.501961 0.392157 0.0941176 0.501961 0.392157 
0.0941176 0.501961 0.392157 0.0941176 0.501961 0.392157 
0.0941176 0.501961 0.392157 0.0941176 0.501961 0.392157 
0.0941176 0.501961 0.392157 0.0941176 0.501961 0.392157 
0.0941176 0.501961 0.392157 0.0941176 0.501961 0.392157 
0.0941176 0.501961 0.392157 0.0941176 0.501961 0.392157 
0.0941176 0.501961 0.392157 0.0941176 0.501961 0.392157 
0.0941176 0.501961 0.392157 0.0941176 0.501961 0.392157 
0.0941176 0.501961 0.392157 0.0941176 0.501961 0.392157 
0.0941176 0.501961 0.392157 0.0941176 0.501961 0.392157 
0.0941176 0.501961 0.392157 0.0941176 0.501961 0.392157 
0.0941176 0.501961 0.392157 0.0941176 0.501961 0.392157 
0.0941176 0.501961 0.392157 0.0941176 0.501961 0.392157 
0.0941176 0.501961 0.392157 0.0941176 0.501961 0.392157 
0.0941176 0.501961 0.392157 0.0941176 0.501961 0.392157 
0.0941176 0.501961 0.392157 0.0941176 0.501961 0.392157 
0.0941176 0.501961 0.392157 0.0941176 0.501961 0.392157 
0.0941176 0.501961 0.392157 0.0941176 0.501961 0.392157 
0.0941176 0.501961 0.392157 0.0941176 0.501961 0.392157 
0.0941176 0.501961 0.392157 0.0941176 0.501961 0.392157 
0.0941176 0.501961 0.392157 0.0941176 0.501961 0.392157 
0.0941176 0.501961 0.392157 0.0941176 0.501961 0.392157 
0.0941176 0.501961 0.392157 0.0941176 0.501961 0.392157 
0.0941176 0.501961 0.392157 0.0941176 0.501961 0.392157 
0.0941176 0.501961 0.392157 0.0941176 0.501961 0.392157 
0.0941176 0.501961 0.392157 0.0941176 0.501961 0.392157 
0.0941176 0.501961 0.392157 0.0941176 0.501961 0.392157 
0.0941176 0.501961 0.392157 0.0941176 0.501961 0.392157 
0.0941176 0.501961 0.392157 0.0941176 0.501961 0.392157 
0.0941176 0.501961 0.392157 0.0941176 0.501961 0.392157 
0.0941176 0.501961 0.392157 0.0941176 0.501961 0.392157 
0.0941176 0.501961 0.392157 0.0941176 0.501961 0.392157 
0.0941176 0.501961 0.392157 0.0941176 0.501961 0.392157 
0.0941176 0.501961 0.392157 0.0941176 0.501961 0.392157 
0.0941176 0.501961 0.392157 0.0941176 0.501961 0.392157 
0.0941176 0.501961 0.392157 0.0941176 0.501961 0.392157 
0.0941176 0.501961 0.392157 0.0941176 0.501961 0.392157 
0.0941176 0.501961 0.392157 0.0941176 0.501961 0.392157 
0.0941176 0.501961 0.392157 0.0941176 0.501961 0.392157 
0.0941176 0.501961 0.392157 0.0941176 0.501961 0.392157 
0.0941176 0.501961 0.392157 0.0941176 0.501961 0.392157 
0.0941176 0.501961 0.392157 0.0941176 0.501961 0.392157 
0.0941176 0.501961 0.392157 0.0941176 0.501961 0.392157 
0.0941176 0.501961 0.392157 0.0941176 0.501961 0.392157 
0.0941176 0.501961 0.392157 0.0941176 0.501961 0.392157 
0.0941176 0.501961 0.392157 0.0941176 0.501961 0.392157 
0.0941176 0.501961 0.392157 0.0941176 0.501961 0.392157 
0.0941176 0.501961 0.392157 0.0941176 0.501961 0.392157 
0.0941176 0.501961 0.392157 0.0941176 0.501961 0.392157 
0.0941176 0.501961 0.392157 0.0941176 0.501961 0.392157 
0.0941176 0.501961 0.392157 0.0941176 0.501961 0.392157 
0.0941176 0.501961 0.392157 0.0941176 0.501961 0.392157 
0.0941176 0.501961 0.392157 0.0941176 0.501961 0.392157 
0.0941176 0.501961 0.392157 0.0941176 0.501961 0.392157 
0.0941176 0.501961 0.392157 0.0941176 0.501961 0.392157 
0.0941176 0.501961 0.392157 0.0941176 0.501961 0.392157 
0.0941176 0.501961 0.392157 0.0941176 0.501961 0.392157 
0.0941176 0.501961 0.392157 0.0941176 0.501961 0.392157 
0.0941176 0.501961 0.392157 0.0941176 0.501961 0.392157 
0.0941176 0.501961 0.392157 0.0941176 0.501961 0.392157 
0.0941176 0.501961 0.392157 0.0941176 0.501961 0.392157 
0.0941176 0.501961 0.392157 0.0941176 0.501961 0.392157 
0.0941176 0.501961 0.392157 0.0941176 0.501961 0.392157 
0.0941176 0.501961 0.392157 0.0941176 0.501961 0.392157 
0.0941176 0.501961 0.392157 0.0941176 0.501961 0.392157 
0.0941176 0.501961 0.392157 0.0941176 0.501961 0.392157 
0.0941176 0.501961 0.392157 0.0941176 0.501961 0.392157 
0.0941176 0.501961 0.392157 0.0941176 0.501961 0.392157 
0.0941176 0.501961 0.392157 0.0941176 0.501961 0.392157 
0.0941176 0.501961 0.392157 0.0941176 0.501961 0.392157 
0.0941176 0.501961 0.392157 0.0941176 0.501961 0.392157 
0.0941176 0.501961 0.392157 0.0941176 0.501961 0.392157 
0.0941176 0.501961 0.392157 0.0941176 0.501961 0.392157 
0.0941176 0.501961 0.392157 0.0941176 0.501961 0.392157 
0.0941176 0.501961 0.392157 0.0941176 0.501961 0.392157 
0.0941176 0.501961 0.392157 0.0941176 0.501961 0.392157 
0.0941176 0.501961 0.392157 0.0941176 0.501961 0.392157 
0.0941176 0.501961 0.392157 0.0941176 0.501961 0.392157 
0.0941176 0.501961 0.392157 0.0941176 0.501961 0.392157 
0.0941176 0.501961 0.392157 0.0941176 0.501961 0.392157 
0.0941176 0.501961 0.392157 0.0941176 0.501961 0.392157 
0.0941176 0.501961 0.392157 0.0941176 0.501961 0.392157 
0.0941176 0.501961 0.392157 0.0941176 0.501961 0.392157 
0.0941176 0.501961 0.392157 0.0941176 0.501961 0.392157 
0.0941176 0.501961 0.392157 0.0941176 0.501961 0.392157 
0.0941176 0.501961 0.392157 0.0941176 0.501961 0.392157 
0.0941176 0.501961 0.392157 0.0941176 0.501961 0.392157 
0.0941176 0.501961 0.392157 0.0941176 0.501961 0.392157 
0.0941176 0.501961 0.392157 0.0941176 0.501961 0.392157 
0.0941176 0.501961 0.392157 0.0941176 0.501961 0.392157 
0.0941176 0.501961 0.392157 0.0941176 0.501961 0.392157 
0.0941176 0.501961 0.392157 0.0941176 0.501961 0.392157 
0.0941176 0.501961 0.392157 0.0941176 0.501961 0.392157 
0.0941176 0.501961 0.392157 0.0941176 0.501961 0.392157 
0.0941176 0.501961 0.392157 0.0941176 0.501961 0.392157 