# vtk DataFile Version 4.2
vtk output
ASCII
DATASET POLYDATA
POINTS 1017 float
246.464 165.887 62.0412 245.154 166.481 61.5544 247.256 165.964 62.4836 
246.626 167.111 61.8402 243.529 168.108 61.4032 247.681 167.618 62.3748 
247.905 167.852 62.6278 243.233 169.688 61.7085 245.439 169.178 61.767 
247.417 168.558 62.4187 242.248 170.369 61.9723 247.699 168.718 62.7667 
242.031 171.04 62.4747 245.781 170.101 62.4635 245.294 163.076 62.9085 
240.546 166.224 61.7697 248.105 168.057 63.0462 238.694 169.233 62.108 
244.012 171.025 62.5819 237.796 171.516 63.0148 240.737 171.727 63.2452 
242.78 171.597 63.2021 239.429 172.061 63.4213 242.207 158.529 64.1596 
242.007 160.486 63.0739 241.755 161.934 62.5106 245.401 162.761 63.2236 
247.325 164.939 63.4251 248.132 166.763 63.3613 248.113 167.069 63.062 
233.423 170.101 63.2251 236.747 170.305 62.6482 232.765 171.767 63.8754 
244.551 171.28 63.3133 234.773 172.209 63.7845 236.752 172.497 64.0749 
234.41 173.031 64.4855 239.942 155.148 64.8721 240.996 156.444 64.7407 
240.327 157.162 64.1102 242.603 158.572 64.3818 242.866 158.353 64.8504 
244.457 160.653 64.439 245.397 161.97 64.1509 246.069 162.564 64.4016 
246.494 163.163 64.216 231.001 166.342 64.0855 230.834 167.151 64.1684 
248.309 168.476 64.1644 230.16 170.085 64.8488 231.526 169.876 63.8935 
231.95 169.535 63.6641 247.433 170.028 64.4511 231.426 171.403 64.3154 
232.113 171.96 64.2422 240.093 172.51 64.2352 240.741 172.605 64.6955 
243.954 171.794 64.2069 230.855 172.746 65.3903 230.588 172.896 65.7631 
237.58 172.893 64.6991 239.303 152.038 66.0666 241.252 155.503 65.5449 
243.181 158.126 65.5547 232.655 159.279 64.411 228.805 162.298 65.6017 
229.961 163.08 64.778 229.557 165.481 64.9692 248.361 166.815 64.6562 
229.316 167.344 65.3153 248.43 168.135 64.6689 248.12 169.186 64.9524 
246.633 170.775 64.6103 246.949 170.645 65.0082 229.039 171.855 66.6349 
229.186 172.317 66.7647 229.563 172.608 66.5092 235.206 173.434 65.074 
231.331 173.567 66.377 236.447 150.223 66.3454 237.829 150.076 66.7314 
235.527 150.899 66.0518 241.631 155.304 66.1806 230.469 157.78 65.4333 
228.285 160.498 66.1613 228.747 160.57 65.7843 228.125 163.042 66.3201 
247.63 164.391 65.8257 248.223 166.059 66.1907 228.485 167.064 66.396 
228.677 170.734 67.0451 244.671 171.892 65.6103 229.028 172.46 67.3575 
229.3 172.929 67.6868 233.127 148.977 67.0487 238.147 148.933 67.6698 
229.248 152.865 67.0907 228.749 155.831 66.7236 227.789 157.854 67.1367 
243.182 157.213 66.9844 227.18 158.826 67.681 227.221 159.537 67.4072 
227.404 160.366 67.252 227.414 161.488 67.3733 248.034 169.4 66.3688 
228.457 171.442 68.0866 242.136 172.77 67.1552 229.674 173.345 68.1757 
230.966 173.87 67.765 227.115 159.319 67.7044 227.049 159.774 68.0277 
248.338 167.851 66.9099 247.963 169.388 66.9628 245.248 171.796 67.1402 
228.741 172.377 68.6526 229.57 173.376 69.0012 231.603 174.134 68.4547 
233.272 174.278 68.2208 239.803 149.443 69.2752 247.994 167.377 68.3783 
241.148 173.113 68.5753 230.071 173.728 69.6449 234.398 141.447 70.0613 
224.982 147.136 70.2471 223.976 148.488 71.0947 226.145 153.821 69.7479 
246.777 170.25 68.8961 228.24 171.505 70.1733 245.824 171.013 69.2209 
241.227 173.057 69.1525 238.796 173.66 69.7544 235.106 138.718 71.6205 
230.237 140.205 70.3893 224.22 144.148 71.4149 225.334 144.807 70.5332 
223.34 147.009 71.6818 223.538 147.259 71.4094 224.498 151.105 71.4089 
244.591 159.891 71.2986 246.858 169.567 69.6821 241.357 172.942 69.7319 
242.316 172.458 70.2385 238.573 173.662 70.616 241.252 172.796 70.3811 
231.988 134.588 73.0194 231.203 135.106 72.4929 228.336 137.968 71.4828 
237.079 138.311 72.8647 224.825 140.176 72.0366 223.788 141.413 72.447 
223.202 147.104 72.0046 239.358 146.466 71.0939 241.39 151.494 71.8145 
241.818 152.762 72.1214 244.879 161.44 71.8747 246.479 164.714 70.7566 
245.966 167.326 71.4851 243.113 171.7 70.8952 229.822 173.46 72.2088 
231.382 133.675 73.6236 229.224 133.707 73.3717 231.844 133.764 73.8338 
229.271 134.681 72.7044 233.619 135.293 73.3841 224.682 138.099 72.7136 
239.725 140.043 73.5559 239.836 143.76 72.6033 242.039 153.556 73.3285 
244.736 167.718 72.3902 242.409 169.964 72.9361 229.137 172.857 72.7219 
238.788 173.359 71.7343 231.072 173.819 72.829 237.867 173.495 72.0968 
229.776 132.849 74.2015 229.43 132.958 74.1527 230.248 132.888 74.1932 
228.877 133 74.4607 232.026 133.694 74.1899 225.865 134.069 74.2977 
235.173 135.661 74.567 222.428 136.658 74.6038 236.546 136.875 74.0082 
222.621 141.604 73.8148 222.682 142.66 73.6462 222.529 144.39 73.9648 
222.604 146.197 74.1264 240.534 146.545 72.8696 241.514 151.319 73.2973 
243.431 158.328 73.3697 243.722 162.108 73.613 226.923 165.509 73.8589 
242.748 164.552 74.1223 233.285 173.826 73.3178 225.066 133.332 75.5055 
228.033 133.01 74.9947 230.558 132.932 75.1906 222.101 135.317 75.4441 
242.406 141.323 75.6626 242.051 154.451 74.4988 236.878 172.397 74.2865 
229.787 172.717 74.9346 223.025 133.407 76.5106 222.814 133.489 76.599 
229.308 132.856 75.4428 222.916 133.944 75.9215 223.894 133.358 76.4232 
221.483 134.194 76.8034 221.242 134.553 76.7396 233.399 134.271 75.6171 
238.856 137.374 75.6177 243.898 142.4 76.9457 242.334 145.62 75.5763 
222.804 148.38 75.1976 241.495 148.715 74.809 241.261 159.124 76.007 
233.855 172.962 74.8185 230.176 172.824 75.2719 230.725 172.949 75.2911 
223.012 133.36 76.6743 220.735 134.247 77.737 220.429 134.542 77.9764 
220.885 134.001 78.0548 223.051 133.329 77.0863 233.202 134.195 76.5665 
243.633 141.352 77.1332 221.621 143.065 76.3331 244.158 144.645 77.3244 
241.52 150.214 76.21 241.22 152.288 76.4994 223.743 153.351 76.9678 
237.452 163.266 77.2113 227.636 167.544 76.5411 232.642 171.016 76.7879 
229.739 171.73 76.3423 229.964 172.153 76.2118 231.067 172.443 76.1446 
231.931 172.906 75.4105 233.442 172.662 75.3113 221.611 133.494 78.2259 
222.135 133.313 78.042 220.409 134.473 78.2743 220.626 134.21 78.3763 
229.716 133.214 76.9545 220.405 134.544 78.6418 232.546 134.073 77.3626 
243.305 140.38 78.0531 244.773 142.975 78.0121 244.953 144.48 78.4813 
244.58 145.146 78.3136 244.766 144.913 78.4267 240.985 154.946 76.7294 
225.357 162.045 78.7237 226.325 164.667 77.5387 231.649 169.801 77.5026 
230.257 171.416 76.8835 230.377 171.056 77.0885 229.974 171.48 76.7302 
230.669 171.939 76.5857 231.123 171.99 76.5157 221.383 133.75 78.789 
223.196 133.318 78.5878 220.251 134.942 78.9935 219.771 136.241 79.2964 
238.1 136.258 78.8932 219.964 139.094 78.2491 243.574 140.596 78.4174 
244.714 142.307 78.7003 245.177 143.247 78.8276 245.206 143.442 79.0779 
245.186 143.924 79.0474 245.123 144.347 78.7296 245.155 144.255 78.8899 
244.638 145.145 78.5177 245.006 144.539 78.8301 243.592 146.251 78.2958 
243.685 146.142 78.5255 242.63 147.361 77.8451 239.727 153.929 78.1297 
225.186 161.167 79.3333 226.411 164.572 78.2196 228.166 167.059 78.0298 
229.619 168.7 77.8307 229.737 169.901 77.302 229.807 170.641 77.0532 
222.155 133.859 79.7061 220.037 135.719 79.9478 231.967 134.648 79.7001 
244.593 142.129 79.2566 245.133 143.072 79.0665 245.122 143.64 79.3691 
244.832 144.129 79.6346 244.963 143.821 79.6059 243.775 145.216 79.8801 
243.547 145.737 79.5795 239.095 150.922 79.7556 224.609 158.575 79.8253 
224.853 159.478 79.9432 225.379 161.204 80.0304 225.728 162.158 79.9766 
225.818 163.194 79.1081 228.882 164.971 79.578 227.161 165.018 78.9345 
228.634 165.614 79.2668 228.626 166.404 78.7886 228.167 166.015 78.9311 
228.684 167.307 78.2858 220.369 135.684 80.8783 219.458 137.495 80.8852 
242.494 139.798 80.2607 243.367 140.736 80.1061 244.105 141.947 80.0939 
243.032 144.296 80.8955 225.087 159.478 80.6772 229.714 160.275 81.1581 
226.279 162.883 80.1929 227.94 165.624 79.0816 221.144 135.471 81.8058 
242.788 142.099 81.408 222.144 149.307 81.1107 234.143 150.59 82.3892 
223.17 152.563 81.4181 224.173 155.565 81.7377 224.291 156.309 81.4362 
225.147 158.549 81.3721 225.767 160.249 81.2941 227.368 160.258 81.769 
226.409 162.127 80.778 223.503 134.714 82.2819 238.137 136.461 82.5915 
219.309 138.546 82.8125 218.839 139.749 83.5709 241.187 140.013 82.2415 
218.795 141.99 83.2275 222.114 149.86 82.4701 222.722 151.193 82.9457 
223.524 153.238 82.2388 224.417 155.494 82.3284 225.314 157.518 82.1292 
226.271 159.683 81.9303 226.016 159.823 81.7466 226.648 160.944 81.4858 
238.397 136.696 82.9483 219.767 138.487 84.3496 219.06 139.432 84.3433 
218.706 140.287 83.9992 239.629 141.082 83.5596 220.131 146.651 84.0051 
224.656 155.158 82.8279 225.659 157.004 82.663 226.529 157.834 82.589 
221.686 136.909 84.6304 233.548 136.578 84.5507 238.778 137.728 84.1441 
232.109 136.998 85.2769 218.956 139.787 84.6923 238.411 139.132 84.8135 
218.747 140.379 84.805 219.446 139.467 85.4108 218.511 141.278 85.417 
218.542 143.035 84.9969 220.309 147.275 84.6168 223.475 151.821 83.9629 
226.412 152.759 84.5866 224.593 153.111 84.0111 225.212 153.565 84.1112 
225.62 155.085 83.4445 226.132 155.661 83.342 225.8 156.402 82.9884 
225.256 135.593 84.8807 227.448 136.236 85.9556 236.755 136.701 84.8617 
236.118 136.751 84.838 237.046 136.634 84.5654 238.02 137.219 84.6048 
238.516 137.899 84.5724 234.132 137.125 85.3158 237.466 138.722 85.3352 
219.051 140.285 85.8862 218.452 141.319 85.8216 218.599 141.207 86.062 
218.441 141.365 85.9511 233.874 142.181 85.9772 220.39 147.536 85.6129 
221.31 148.851 85.1268 239 135.009 87.0174 239 135.009 87.0175 
239 135.009 87.0175 239 135.009 87.0175 226.635 136.364 86.4146 
236.929 136.825 85.1306 239 135.009 87.0175 226.495 136.618 86.7584 
227.754 136.68 86.7243 235.343 137.457 85.5454 236.297 137.398 85.3936 
237.663 137.816 85.1417 238.106 137.606 84.8023 234.089 137.582 85.7164 
235.33 138.399 85.9739 231.657 141.091 87.077 219.442 145.902 86.3773 
223.302 149.623 86.3069 239 133.009 88.0174 239 133.009 88.0175 
239 133.009 88.0175 239 133.009 88.0175 238 134.009 88.0174 
238 134.009 88.0175 238 134.009 88.0175 239 133.009 88.0175 
238 134.009 88.0175 238 134.009 88.0175 239 135.009 87.0175 
[...]
POINT_DATA 1017
COLOR_SCALARS scalars 3
0.0941176 0.501961 0.392157 0.0941176 0.501961 0.392157 0.0941176 0.501961 0.392157 
0.0941176 0.501961 0.392157 0.0941176 0.501961 0.392157 
0.0941176 0.501961 0.392157 0.0941176 0.501961 0.392157 
0.0941176 0.501961 0.392157 0.0941176 0.501961 0.392157 
0.0941176 0.501961 0.392157 0.0941176 0.501961 0.392157 
0.0941176 0.501961 0.392157 0.0941176 0.501961 0.392157 
0.0941176 0.501961 0.392157 0.0941176 0.501961 0.392157 
0.0941176 0.501961 0.392157 0.0941176 0.501961 0.392157 
0.0941176 0.501961 0.392157 0.0941176 0.501961 0.392157 
0.0941176 0.501961 0.392157 0.0941176 0.501961 0.392157 
0.0941176 0.501961 0.392157 0.0941176 0.501961 0.392157 
0.0941176 0.501961 0.392157 0.0941176 0.501961 0.392157 
0.0941176 0.501961 0.392157 0.0941176 0.501961 0.392157 
0.0941176 0.501961 0.392157 0.0941176 0.501961 0.392157 
0.0941176 0.501961 0.392157 0.0941176 0.501961 0.392157 
0.0941176 0.501961 0.392157 0.0941176 0.501961 0.392157 
0.0941176 0.501961 0.392157 0.0941176 0.501961 0.392157 
0.0941176 0.501961 0.392157 0.0941176 0.501961 0.392157 
0.0941176 0.501961 0.392157 0.0941176 0.501961 0.392157 
0.0941176 0.501961 0.392157 0.0941176 0.501961 0.392157 
0.0941176 0.501961 0.392157 0.0941176 0.501961 0.392157 
0.0941176 0.501961 0.392157 0.0941176 0.501961 0.392157 
0.0941176 0.501961 0.392157 0.0941176 0.501961 0.392157 
0.0941176 0.501961 0.392157 0.0941176 0.501961 0.392157 
0.0941176 0.501961 0.392157 0.0941176 0.501961 0.392157 
0.0941176 0.501961 0.392157 0.0941176 0.501961 0.392157 
0.0941176 0.501961 0.392157 0.0941176 0.501961 0.392157 
0.0941176 0.501961 0.392157 0.0941176 0.501961 0.392157 
0.0941176 0.501961 0.392157 0.0941176 0.501961 0.392157 
0.0941176 0.501961 0.392157 0.0941176 0.501961 0.392157 
0.0941176 0.501961 0.392157 0.0941176 0.501961 0.392157 
0.0941176 0.501961 0.392157 0.0941176 0.501961 0.392157 
0.0941176 0.501961 0.392157 0.0941176 0.501961 0.392157 
0.0941176 0.501961 0.392157 0.0941176 0.501961 0.392157 
0.0941176 0.501961 0.392157 0.0941176 0.501961 0.392157 
0.0941176 0.501961 0.392157 0.0941176 0.501961 0.392157 
0.0941176 0.501961 0.392157 0.0941176 0.501961 0.392157 
0.0941176 0.501961 0.392157 0.0941176 0.501961 0.392157 
0.0941176 0.501961 0.392157 0.0941176 0.501961 0.392157 
0.0941176 0.501961 0.392157 0.0941176 0.501961 0.392157 
0.0941176 0.501961 0.392157 0.0941176 0.501961 0.392157 
0.0941176 0.501961 0.392157 0.0941176 0.501961 0.392157 
0.0941176 0.501961 0.392157 0.0941176 0.501961 0.392157 
0.0941176 0.501961 0.392157 0.0941176 0.501961 0.392157 
0.0941176 0.501961 0.392157 0.0941176 0.501961 0.392157 
0.0941176 0.501961 0.392157 0.0941176 0.501961 0.392157 
0.0941176 0.501961 0.392157 0.0941176 0.501961 0.392157 
0.0941176 0.501961 0.392157 0.0941176 0.501961 0.392157 
0.0941176 0.501961 0.392157 0.0941176 0.501961 0.392157 
0.0941176 0.501961 0.392157 0.0941176 0.501961 0.392157 
0.0941176 0.501961 0.392157 0.0941176 0.501961 0.392157 
0.0941176 0.501961 0.392157 0.0941176 0.501961 0.392157 
0.0941176 0.501961 0.392157 0.0941176 0.501961 0.392157 
0.0941176 0.501961 0.392157 0.0941176 0.501961 0.392157 
0.0941176 0.501961 0.392157 0.0941176 0.501961 0.392157 
0.0941176 0.501961 0.392157 0.0941176 0.501961 0.392157 
0.0941176 0.501961 0.392157 0.0941176 0.501961 0.392157 
0.0941176 0.501961 0.392157 0.0941176 0.501961 0.392157 
0.0941176 0.501961 0.392157 0.0941176 0.501961 0.392157 
0.0941176 0.501961 0.392157 0.0941176 0.501961 0.392157 
0.0941176 0.501961 0.392157 0.0941176 0.501961 0.392157 
0.0941176 0.501961 0.392157 0.0941176 0.501961 0.392157 
0.0941176 0.501961 0.392157 0.0941176 0.501961 0.392157 
0.0941176 0.501961 0.392157 0.0941176 0.501961 0.392157 
0.0941176 0.501961 0.392157 0.0941176 0.501961 0.392157 
0.0941176 0.501961 0.392157 0.0941176 0.501961 0.392157 
0.0941176 0.501961 0.392157 0.0941176 0.501961 0.392157 
0.0941176 0.501961 0.392157 0.0941176 0.501961 0.392157 
0.0941176 0.501961 0.392157 0.0941176 0.501961 0.392157 
0.0941176 0.501961 0.392157 0.0941176 0.501961 0.392157 
0.0941176 0.501961 0.392157 0.0941176 0.501961 0.392157 
0.0941176 0.501961 0.392157 0.0941176 0.501961 0.392157 
0.0941176 0.501961 0.392157 0.0941176 0.501961 0.392157 
0.0941176 0.501961 0.392157 0.0941176 0.501961 0.392157 
0.0941176 0.501961 0.392157 0.0941176 0.501961 0.392157 
0.0941176 0.501961 0.392157 0.0941176 0.501961 0.392157 
0.0941176 0.501961 0.392157 0.0941176 0.501961 0.392157 
0.0941176 0.501961 0.392157 0.0941176 0.501961 0.392157 
0.0941176 0.501961 0.392157 0.0941176 0.501961 0.392157 
0.0941176 0.501961 0.392157 0.0941176 0.501961 0.392157 
0.0941176 0.501961 0.392157 0.0941176 0.501961 0.392157 
0.0941176 0.501961 0.392157 0.0941176 0.501961 0.392157 
0.0941176 0.501961 0.392157 0.0941176 0.501961 0.392157 
0.0941176 0.501961 0.392157 0.0941176 0.501961 0.392157 
0.0941176 0.501961 0.392157 0.0941176 0.501961 0.392157 
0.0941176 0.501961 0.392157 0.0941176 0.501961 0.392157 
0.0941176 0.501961 0.392157 0.0941176 0.501961 0.392157 
0.0941176 0.501961 0.392157 0.0941176 0.501961 0.392157 
0.0941176 0.501961 0.392157 0.0941176 0.501961 0.392157 
0.0941176 0.501961 0.392157 0.0941176 0.501961 0.392157 
0.0941176 0.501961 0.392157 0.0941176 0.501961 0.392157 
0.0941176 0.501961 0.392157 0.0941176 0.501961 0.392157 
0.0941176 0.501961 0.392157 0.0941176 0.501961 0.392157 
0.0941176 0.501961 0.392157 0.0941176 0.501961 0.392157 
0.0941176 0.501961 0.392157 0.0941176 0.501961 0.392157 
0.0941176 0.501961 0.392157 0.0941176 0.501961 0.392157 
0.0941176 0.501961 0.392157 0.0941176 0.501961 0.392157 
0.0941176 0.501961 0.392157 0.0941176 0.501961 0.392157 
0.0941176 0.501961 0.392157 0.0941176 0.501961 0.392157 
0.0941176 0.501961 0.392157 0.0941176 0.501961 0.392157 
0.0941176 0.501961 0.392157 0.0941176 0.501961 0.392157 
0.0941176 0.501961 0.392157 0.0941176 0.501961 0.392157 
0.0941176 0.501961 0.392157 0.0941176 0.501961 0.392157 
0.0941176 0.501961 0.392157 0.0941176 0.501961 0.392157 
0.0941176 0.501961 0.392157 0.0941176 0.501961 0.392157 
0.0941176 0.501961 0.392157 0.0941176 0.501961 0.392157 
0.0941176 0.501961 0.392157 0.0941176 0.501961 0.392157 
0.0941176 0.501961 0.392157 0.0941176 0.501961 0.392157 
0.0941176 0.501961 0.392157 0.0941176 0.501961 0.392157 
0.0941176 0.501961 0.392157 0.0941176 0.501961 0.392157 
0.0941176 0.501961 0.392157 0.0941176 0.501961 0.392157 
0.0941176 0.501961 0.392157 0.0941176 0.501961 0.392157 
0.0941176 0.501961 0.392157 0.0941176 0.501961 0.392157 
0.0941176 0.501961 0.392157 0.0941176 0.501961 0.392157 
0.0941176 0.501961 0.392157 0.0941176 0.501961 0.392157 
0.0941176 0.501961 0.392157 0.0941176 0.501961 0.392157 
0.0941176 0.501961 0.392157 0.0941176 0.501961 0.392157 
0.0941176 0.501961 0.392157 0.0941176 0.501961 0.392157 
0.0941176 0.501961 0.392157 0.0941176 0.501961 0.392157 
0.0941176 0.501961 0.392157 0.0941176 0.501961 0.392157 
0.0941176 0.501961 0.392157 0.0941176 0.501961 0.392157 
0.0941176 0.501961 0.392157 0.0941176 0.501961 0.392157 
0.0941176 0.501961 0.392157 0.0941176 0.501961 0.392157 
0.0941176 0.501961 0.392157 0.0941176 0.501961 0.392157 
0.0941176 0.501961 0.392157 0.0941176 0.501961 0.392157 
0.0941176 0.501961 0.392157 0.0941176 0.501961 0.392157 
0.0941176 0.501961 0.392157 0.0941176 0.501961 0.392157 
0.0941176 0.501961 0.392157 0.0941176 0.501961 0.392157 
0.0941176 0.501961 0.392157 0.0941176 0.501961 0.392157 
0.0941176 0.501961 0.392157 0.0941176 0.501961 0.392157 
0.0941176 0.501961 0.392157 0.0941176 0.501961 0.392157 
0.0941176 0.501961 0.392157 0.0941176 0.501961 0.392157 
0.0941176 0.501961 0.392157 0.0941176 0.501961 0.392157 
0.0941176 0.501961 0.392157 0.0941176 0.501961 0.392157 
0.0941176 0.501961 0.392157 0.0941176 0.501961 0.392157 
0.0941176 0.501961 0.392157 0.0941176 0.501961 0.392157 
0.0941176 0.501961 0.392157 0.0941176 0.501961 0.392157 
0.0941176 0.501961 0.392157 0.0941176 0.501961 0.392157 
0.0941176 0.501961 0.392157 0.0941176 0.501961 0.392157 
0.0941176 0.501961 0.392157 0.0941176 0.501961 0.392157 
0.0941176 0.501961 0.392157 0.0941176 0.501961 0.392157 
0.0941176 0.501961 0.392157 0.0941176 0.501961 0.392157 
0.0941176 0.501961 0.392157 0.0941176 0.501961 0.392157 
0.0941176 0.501961 0.392157 0.0941176 0.501961 0.392157 
0.0941176 0.501961 0.392157 0.0941176 0.501961 0.392157 
0.0941176 0.501961 0.392157 0.0941176 0.501961 0.392157 
0.0941176 0.501961 0.392157 0.0941176 0.501961 0.392157 
0.0941176 0.501961 0.392157 0.0941176 0.501961 0.392157 
0.0941176 0.501961 0.392157 0.0941176 0.501961 0.392157 
0.0941176 0.501961 0.392157 0.0941176 0.501961 0.392157 
0.0941176 0.501961 0.392157 0.0941176 0.501961 0.392157 
0.0941176 0.501961 0.392157 0.0941176 0.501961 0.392157 
0.0941176 0.501961 0.392157 0.0941176 0.501961 0.392157 
0.0941176 0.501961 0.392157 0.0941176 0.501961 0.392157 
0.0941176 0.501961 0.392157 0.0941176 0.501961 0.392157 
0.0941176 0.501961 0.392157 0.0941176 0.501961 0.392157 
0.0941176 0.501961 0.392157 0.0941176 0.501961 0.392157 
0.0941176 0.501961 0.392157 0.0941176 0.501961 0.392157 
0.0941176 0.501961 0.392157 0.0941176 0.501961 0.392157 
0.0941176 0.501961 0.392157 0.0941176 0.501961 0.392157 
0.0941176 0.501961 0.392157 0.0941176 0.501961 0.392157 
0.0941176 0.501961 0.392157 0.0941176 0.501961 0.392157 
0.0941176 0.501961 0.392157 0.0941176 0.501961 0.392157 
0.0941176 0.501961 0.392157 0.0941176 0.501961 0.392157 
0.0941176 0.501961 0.392157 0.0941176 0.501961 0.392157 
0.0941176 0.501961 0.392157 0.0941176 0.501961 0.392157 
0.0941176 0.501961 0.392157 0.0941176 0.501961 0.392157 
0.0941176 0.501961 0.392157 0.0941176 0.501961 0.392157 
0.0941176 0.501961 0.392157 0.0941176 0.501961 0.392157 
0.0941176 0.501961 0.392157 0.0941176 0.501961 0.392157 
0.0941176 0.501961 0.392157 0.0941176 0.501961 0.392157 
0.0941176 0.501961 0.392157 0.0941176 0.501961 0.392157 
0.0941176 0.501961 0.392157 0.0941176 0.501961 0.392157 
0.0941176 0.501961 0.392157 0.0941176 0.501961 0.392157 
0.0941176 0.501961 0.392157 0.0941176 0.501961 0.392157 
0.0941176 0.501961 0.392157 0.0941176 0.501961 0.392157 
0.0941176 0.501961 0.392157 0.0941176 0.501961 0.392157 
0.0941176 0.501961 0.392157 0.0941176 0.501961 0.392157 
0.0941176 0.501961 0.392157 0.0941176 0.501961 0.392157 
0.0941176 0.501961 0.392157 0.0941176 0.501961 0.392157 
0.0941176 0.501961 0.392157 0.0941176 0.501961 0.392157 
0.0941176 0.501961 0.392157 0.0941176 0.501961 0.392157 
0.0941176 0.501961 0.392157 0.0941176 0.501961 0.392157 
0.0941176 0.501961 0.392157 0.0941176 0.501961 0.392157 
0.0941176 0.501961 0.392157 0.0941176 0.501961 0.392157 
0.0941176 0.501961 0.392157 0.0941176 0.501961 0.392157 
0.0941176 0.501961 0.392157 0.0941176 0.501961 0.392157 
0.0941176 0.501961 0.392157 0.0941176 0.501961 0.392157 
0.0941176 0.501961 0.392157 0.0941176 0.501961 0.392157 
0.0941176 0.501961 0.392157 0.0941176 0.501961 0.392157 
0.0941176 0.501961 0.392157 0.0941176 0.501961 0.392157 
0.0941176 0.501961 0.392157 0.0941176 0.501961 0.392157 
0.0941176 0.501961 0.392157 0.0941176 0.501961 0.392157 
0.0941176 0.501961 0.392157 0.0941176 0.501961 0.392157 
0.0941176 0.501961 0.392157 0.0941176 0.501961 0.392157 
0.0941176 0.501961 0.392157 0.0941176 0.501961 0.392157 
0.0941176 0.501961 0.392157 0.0941176 0.501961 0.392157 
0.0941176 0.501961 0.392157 0.0941176 0.501961 0.392157 
0.0941176 0.501961 0.392157 0.0941176 0.501961 0.392157 
0.0941176 0.501961 0.392157 0.0941176 0.501961 0.392157 
0.0941176 0.501961 0.392157 0.0941176 0.501961 0.392157 
0.0941176 0.501961 0.392157 0.0941176 0.501961 0.392157 
0.0941176 0.501961 0.392157 0.0941176 0.501961 0.392157 
0.0941176 0.501961 0.392157 0.0941176 0.501961 0.392157 
0.0941176 0.501961 0.392157 0.0941176 0.501961 0.392157 
0.0941176 0.501961 0.392157 0.0941176 0.501961 0.392157 
0.0941176 0.501961 0.392157 0.0941176 0.501961 0.392157 
0.0941176 0.501961 0.392157 0.0941176 0.501961 0.392157 
0.0941176 0.501961 0.392157 0.0941176 0.501961 0.392157 
0.0941176 0.501961 0.392157 0.0941176 0.501961 0.392157 
0.0941176 0.501961 0.392157 0.0941176 0.501961 0.392157 
0.0941176 0.501961 0.392157 0.0941176 0.501961 0.392157 
0.0941176 0.501961 0.392157 0.0941176 0.501961 0.392157 
0.0941176 0.501961 0.392157 0.0941176 0.501961 0.392157 
0.0941176 0.501961 0.392157 0.0941176 0.501961 0.392157 
0.0941176 0.501961 0.392157 0.0941176 0.501961 0.392157 
0.0941176 0.501961 0.392157 0.0941176 0.501961 0.392157 
0.0941176 0.501961 0.392157 0.0941176 0.501961 0.392157 
0.0941176 0.501961 0.392157 0.0941176 0.501961 0.392157 
0.0941176 0.501961 0.392157 0.0941176 0.501961 0.392157 
0.0941176 0.501961 0.392157 0.0941176 0.501961 0.392157 
0.0941176 0.501961 0.392157 0.0941176 0.501961 0.392157 
0.0941176 0.501961 0.392157 0.0941176 0.501961 0.392157 
0.0941176 0.501961 0.392157 0.0941176 0.501961 0.392157 
0.0941176 0.501961 0.392157 0.0941176 0.501961 0.392157 
0.0941176 0.501961 0.392157 0.0941176 0.501961 0.392157 
0.0941176 0.501961 0.392157 0.0941176 0.501961 0.392157 
0.0941176 0.501961 0.392157 0.0941176 0.501961 0.392157 
0.0941176 0.501961 0.392157 0.0941176 0.501961 0.392157 
0.0941176 0.501961 0.392157 0.0941176 0.501961 0.392157 
0.0941176 0.501961 0.392157 0.0941176 0.501961 0.392157 
0.0941176 0.501961 0.392157 0.0941176 0.501961 0.392157 
0.0941176 0.501961 0.392157 0.0941176 0.501961 0.392157 
0.0941176 0.501961 0.392157 0.0941176 0.501961 0.392157 
0.0941176 0.501961 0.392157 0.0941176 0.501961 0.392157 
0.0941176 0.501961 0.392157 0.0941176 0.501961 0.392157 
0.0941176 0.501961 0.392157 0.0941176 0.501961 0.392157 
0.0941176 0.501961 0.392157 0.0941176 0.501961 0.392157 
0.0941176 0.501961 0.392157 0.0941176 0.501961 0.392157 
0.0941176 0.501961 0.392157 0.0941176 0.501961 0.392157 
0.0941176 0.501961 0.392157 0.0941176 0.501961 0.392157 
0.0941176 0.501961 0.392157 0.0941176 0.501961 0.392157 
0.0941176 0.501961 0.392157 0.0941176 0.501961 0.392157 
0.0941176 0.501961 0.392157 0.0941176 0.501961 0.392157 
0.0941176 0.501961 0.392157 0.0941176 0.501961 0.392157 
0.0941176 0.501961 0.392157 0.0941176 0.501961 0.392157 
0.0941176 0.501961 0.392157 0.0941176 0.501961 0.392157 
0.0941176 0.501961 0.392157 0.0941176 0.501961 0.392157 
0.0941176 0.501961 0.392157 0.0941176 0.501961 0.392157 
0.0941176 0.501961 0.392157 0.0941176 0.501961 0.392157 
0.0941176 0.501961 0.392157 0.0941176 0.501961 0.392157 
0.0941176 0.501961 0.392157 0.0941176 0.501961 0.392157 
0.0941176 0.501961 0.392157 0.0941176 0.501961 0.392157 
0.0941176 0.501961 0.392157 0.0941176 0.501961 0.392157 
0.0941176 0.501961 0.392157 0.0941176 0.501961 0.392157 
0.0941176 0.501961 0.392157 0.0941176 0.501961 0.392157 
0.0941176 0.501961 0.392157 0.0941176 0.501961 0.392157 
0.0941176 0.501961 0.392157 0.0941176 0.501961 0.392157 
0.0941176 0.501961 0.392157 0.0941176 0.501961 0.392157 
0.0941176 0.501961 0.392157 0.0941176 0.501961 0.392157 
0.0941176 0.501961 0.392157 0.0941176 0.501961 0.392157 
0.0941176 0.501961 0.392157 0.0941176 0.501961 0.392157 
0.0941176 0.501961 0.392157 0.0941176 0.501961 0.392157 
0.0941176 0.501961 0.392157 0.0941176 0.501961 0.392157 
0.0941176 0.501961 0.392157 0.0941176 0.501961 0.392157 
0.0941176 0.501961 0.392157 0.0941176 0.501961 0.392157 
0.0941176 0.501961 0.392157 0.0941176 0.501961 0.392157 
0.0941176 0.501961 0.392157 0.0941176 0.501961 0.392157 
0.0941176 0.501961 0.392157 0.0941176 0.501961 0.392157 
0.0941176 0.501961 0.392157 0.0941176 0.501961 0.392157 
0.0941176 0.501961 0.392157 0.0941176 0.501961 0.392157 
0.0941176 0.501961 0.392157 0.0941176 0.501961 0.392157 
0.0941176 0.501961 0.392157 0.0941176 0.501961 0.392157 
0.0941176 0.501961 0.392157 0.0941176 0.501961 0.392157 
0.0941176 0.501961 0.392157 0.0941176 0.501961 0.392157 
0.0941176 0.501961 0.392157 0.0941176 0.501961 0.392157 
0.0941176 0.501961 0.392157 0.0941176 0.501961 0.392157 
0.0941176 0.501961 0.392157 0.0941176 0.501961 0.392157 
0.0941176 0.501961 0.392157 0.0941176 0.501961 0.392157 
0.0941176 0.501961 0.392157 0.0941176 0.501961 0.392157 
0.0941176 0.501961 0.392157 0.0941176 0.501961 0.392157 
0.0941176 0.501961 0.392157 0.0941176 0.501961 0.392157 
0.0941176 0.501961 0.392157 0.0941176 0.501961 0.392157 
0.0941176 0.501961 0.392157 0.0941176 0.501961 0.392157 
0.0941176 0.501961 0.392157 0.0941176 0.501961 0.392157 
0.0941176 0.501961 0.392157 0.0941176 0.501961 0.392157 
0.0941176 0.501961 0.392157 0.0941176 0.501961 0.392157 
0.0941176 0.501961 0.392157 0.0941176 0.501961 0.392157 
0.0941176 0.501961 0.392157 0.0941176 0.501961 0.392157 
0.0941176 0.501961 0.392157 0.0941176 0.501961 0.392157 
0.0941176 0.501961 0.392157 0.0941176 0.501961 0.392157 
0.0941176 0.501961 0.392157 0.0941176 0.501961 0.392157 
0.0941176 0.501961 0.392157 0.0941176 0.501961 0.392157 
0.0941176 0.501961 0.392157 0.0941176 0.501961 0.392157 
0.0941176 0.501961 0.392157 0.0941176 0.501961 0.392157 
0.0941176 0.501961 0.392157 0.0941176 0.501961 0.392157 
0.0941176 0.501961 0.392157 0.0941176 0.501961 0.392157 
0.0941176 0.501961 0.392157 0.0941176 0.501961 0.392157 
0.0941176 0.501961 0.392157 0.0941176 0.501961 0.392157 
0.0941176 0.501961 0.392157 0.0941176 0.501961 0.392157 
0.0941176 0.501961 0.392157 0.0941176 0.501961 0.392157 
0.0941176 0.501961 0.392157 0.0941176 0.501961 0.392157 
0.0941176 0.501961 0.392157 0.0941176 0.501961 0.392157 
0.0941176 0.501961 0.392157 0.0941176 0.501961 0.392157 
0.0941176 0.501961 0.392157 0.0941176 0.501961 0.392157 
0.0941176 0.501961 0.392157 0.0941176 0.501961 0.392157 
0.0941176 0.501961 0.392157 0.0941176 0.501961 0.392157 
0.0941176 0.501961 0.392157 0.0941176 0.501961 0.392157 
0.0941176 0.501961 0.392157 0.0941176 0.501961 0.392157 
0.0941176 0.501961 0.392157 0.0941176 0.501961 0.392157 
0.0941176 0.501961 0.392157 0.0941176 0.501961 0.392157 
0.0941176 0.501961 0.392157 0.0941176 0.501961 0.392157 
0.0941176 0.501961 0.392157 0.0941176 0.501961 0.392157 
0.0941176 0.501961 0.392157 0.0941176 0.501961 0.392157 
0.0941176 0.501961 0.392157 0.0941176 0.501961 0.392157 
0.0941176 0.501961 0.392157 0.0941176 0.501961 0.392157 
0.0941176 0.501961 0.392157 0.0941176 0.501961 0.392157 
0.0941176 0.501961 0.392157 0.0941176 0.501961 0.392157 
0.0941176 0.501961 0.392157 0.0941176 0.501961 0.392157 
0.0941176 0.501961 0.392157 0.0941176 0.501961 0.392157 
0.0941176 0.501961 0.392157 0.0941176 0.501961 0.392157 
0.0941176 0.501961 0.392157 0.0941176 0.501961 0.392157 
0.0941176 0.501961 0.392157 0.0941176 0.501961 0.392157 
0.0941176 0.501961 0.392157 0.0941176 0.501961 0.392157 
0.0941176 0.501961 0.392157 0.0941176 0.501961 0.392157 
0.0941176 0.501961 0.392157 0.0941176 0.501961 0.392157 
0.0941176 0.501961 0.392157 0.0941176 0.501961 0.392157 
0.0941176 0.501961 0.392157 0.0941176 0.501961 0.392157 
0.0941176 0.501961 0.392157 0.0941176 0.501961 0.392157 
0.0941176 0.501961 0.392157 0.0941176 0.501961 0.392157 
0.0941176 0.501961 0.392157 0.0941176 0.501961 0.392157 
0.0941176 0.501961 0.392157 0.0941176 0.501961 0.392157 
0.0941176 0.501961 0.392157 0.0941176 0.501961 0.392157 
0.0941176 0.501961 0.392157 0.0941176 0.501961 0.392157 
0.0941176 0.501961 0.392157 0.0941176 0.501961 0.392157 
0.0941176 0.501961 0.392157 0.0941176 0.501961 0.392157 
0.0941176 0.501961 0.392157 0.0941176 0.501961 0.392157 
0.0941176 0.501961 0.392157 0.0941176 0.501961 0.392157 
0.0941176 0.501961 0.392157 0.0941176 0.501961 0.392157 
0.0941176 0.501961 0.392157 0.0941176 0.501961 0.392157 
0.0941176 0.501961 0.392157 0.0941176 0.501961 0.392157 
0.0941176 0.501961 0.392157 0.0941176 0.501961 0.392157 
0.0941176 0.501961 0.392157 0.0941176 0.501961 0.392157 
0.0941176 0.501961 0.392157 0.0941176 0.501961 0.392157 
0.0941176 0.501961 0.392157 0.0941176 0.501961 0.392157 
0.0941176 0.501961 0.392157 0.0941176 0.501961 0.392157 
0.0941176 0.501961 0.392157 0.0941176 0.501961 0.392157 
0.0941176 0.501961 0.392157 0.0941176 0.501961 0.392157 
0.0941176 0.501961 0.392157 0.0941176 0.501961 0.392157 