# vtk DataFile Version 4.2
vtk output
ASCII
DATASET POLYDATA
POINTS 805 float
226.467 165.619 66.4776 226.172 168.065 65.912 226.674 168.073 66.0949 
227.031 167.242 66.4886 225.454 169.247 65.7571 226.972 168.492 66.2653 
227.274 168.137 66.6014 225.93 169.808 65.824 226.453 169.542 65.9702 
225.298 170.835 65.9219 226.813 170.033 66.2341 226.212 170.92 66.0568 
226.687 170.835 66.2932 226.303 171.504 66.3051 227.042 170.981 66.6191 
225.742 172.241 66.5127 225.469 172.46 66.7156 226.568 171.928 66.677 
226.368 172.301 66.8282 226.139 163.762 67.1064 225.099 165.226 66.2672 
227.057 165.695 67.1351 227.544 169.198 67.1216 224.106 171.384 66.2887 
227.285 170.774 66.8919 224.201 172.538 66.9847 223.841 172.766 67.3347 
226.03 172.767 67.3363 225.334 157.516 68.3949 225.15 157.273 68.3893 
225.101 157.706 68.2203 225.095 159.836 67.7188 225.203 162.164 67.1744 
223.707 165.727 66.2656 222.83 166.699 66.3345 227.781 168.577 67.7124 
221.447 172.807 68.092 226.785 172.387 67.5954 224.649 173.308 68.1031 
224.594 155.582 68.9699 224.428 155.915 68.7138 224.99 155.643 69.2332 
224.085 156.054 68.5773 224.716 158.359 68.0007 226.489 161.879 68.2827 
227.222 172 68.0555 226.356 172.952 68.4086 223.556 153.096 70.2047 
223.074 153.091 70.0303 222.556 153.44 69.696 224.61 154.059 70.1905 
222.908 155.474 68.7521 225.404 155.788 69.6533 220.847 155.778 68.9755 
226.258 159.134 69.0815 226.781 161.652 68.8608 226.987 161.853 69.3133 
227.874 166.503 68.8255 228.077 168.127 69.158 216.476 170.123 68.9895 
216.623 171.797 69.5082 227.656 171.684 69.3025 217.487 172.828 69.8886 
226.822 172.742 69.0747 224.242 173.82 69.4864 225.699 173.464 69.2688 
221.694 151.268 70.8166 221.213 151.927 70.3764 222.357 151.635 70.8141 
223.431 152.613 70.6334 220.39 152.813 70.0227 226.465 157.682 70.3782 
226.735 160.471 69.4435 227.167 162.065 70.0186 214.698 172.473 70.8416 
215.424 172.815 70.832 218.058 173.799 71.1184 219.778 173.987 70.7907 
226.242 173.334 69.9559 220.165 148.677 71.4666 220.795 148.111 71.8186 
219.723 148.927 71.3635 220.878 149.527 71.3448 221.333 149.153 71.6888 
220.645 150.117 71.0834 222.096 149.539 72.05 227.611 164.317 71.2005 
212.286 165.244 70.648 228.145 170.047 70.969 226.252 173.436 70.8333 
220.765 143.315 73.0958 220.63 143.718 72.9055 221.08 143.218 73.3752 
221.302 143.812 73.3772 220.495 145.431 72.5182 221.092 144.95 72.9184 
219.863 146.415 72.127 218.263 149.137 71.4409 222.259 148.522 72.8001 
223.795 151.76 72.2937 224.683 153.257 71.887 225.595 155.081 71.5287 
227.595 172.086 71.4157 227.332 172.555 71.63 227.592 172.157 72.3671 
209.995 172.966 73.3749 222.159 174.495 72.2029 220.444 141.745 73.6958 
220.644 141.343 74.1489 219.964 142.143 73.3642 220.797 142.132 73.6495 
221.024 141.983 73.9531 220.303 142.596 73.2018 217.817 145.859 72.3857 
223.083 149.961 72.955 208.174 169.855 72.6636 208.441 172.203 73.4232 
208.484 172.669 73.7797 208.847 173.068 74.0682 219.618 140.593 74.365 
219.174 140.37 74.4649 219.932 140.382 74.6872 220.295 140.517 74.8625 
220.771 141.061 74.7766 220.888 141.339 74.3734 221.036 141.487 74.4786 
222.084 145.051 74.3921 206.763 172.856 75.0479 209.715 173.897 75.0309 
225.999 173.911 73.8181 219.195 138.88 75.7822 218.983 138.864 75.7607 
218.482 138.772 75.7987 218.122 139.116 75.454 219.689 139.444 75.7661 
217.31 139.745 75.1225 219.941 140.023 75.1883 220.838 140.905 75.3706 
221.136 141.557 74.7857 225.366 155.341 74.6896 227.677 167.171 74.6386 
204.361 172.007 75.8506 206.262 173.218 76.0664 209.727 174.253 75.9399 
226.444 173.738 74.8175 218.046 137.494 76.9913 217.693 137.447 76.9014 
217.564 137.992 76.4057 216.988 137.924 76.4573 218.265 138.288 76.2951 
218.65 138.099 76.8952 216.546 138.119 76.4187 218.978 138.64 76.2226 
214.872 139.622 76.1262 222.883 146.743 76.2025 223.203 148.25 75.2352 
227.729 171.208 75.3393 206.224 173.506 76.7399 208.649 174.003 75.7659 
209.269 174.22 75.9658 226.53 173.812 75.4712 226.503 173.847 75.7568 
226.789 173.548 75.5825 226.669 173.757 75.7056 217.462 136.733 77.5407 
217.419 136.577 77.6274 217.312 136.614 77.5703 217.497 136.656 77.7565 
217.148 136.617 77.687 217.561 137.05 77.2918 217.777 136.98 77.7135 
216.443 137.04 77.671 218.023 137.328 77.3121 218.494 137.715 77.5391 
215.569 137.634 78.0378 216.69 137.614 76.8011 214.636 138.402 77.5516 
219.256 138.657 76.946 212.545 140.443 77.0904 225.379 157.373 76.5244 
201.176 168.816 76.5836 200.736 170.024 77.2621 227.61 169.666 76.0828 
203.07 172.641 77.7049 203.475 172.829 77.4704 203.464 172.944 77.7269 
226.814 173.367 76.3069 203.568 172.965 77.5764 211.191 174.482 77.3104 
225.732 174.023 76.2392 217.352 136.555 77.6942 217.121 136.59 77.9157 
216.94 136.658 77.8356 217.323 136.604 77.8868 217.561 136.85 78.1415 
216.291 137.174 78.424 218.4 137.577 78.0395 213.556 138.975 78.0653 
221 141.613 77.9069 227.255 171.624 76.8163 199.657 171.078 78.8175 
201.896 172.35 78.449 226.89 172.899 76.8597 206.581 173.989 78.6777 
220.34 174.421 77.3707 226.075 173.785 77.0355 226.298 173.681 77.0143 
216.954 136.674 78.0366 217.19 136.702 78.1786 216.839 136.844 78.3226 
217.099 136.86 78.5131 217.358 136.88 78.4697 218.42 137.706 78.4497 
218.188 137.765 78.9776 209.665 140.883 79.7381 208.788 141.65 79.2557 
206.468 143.107 79.5563 196.91 167.101 79.2041 226.586 169.537 78.209 
226.558 171.12 78.1064 197.97 170.754 79.8883 201.275 172.401 79.4221 
226.21 172.724 77.7889 225.464 173.401 77.733 221.479 174.183 78.2183 
221.975 173.99 78.2882 226.431 173.441 77.1497 221.368 174.177 78.3552 
224.384 173.554 78.3083 217.24 137.031 78.7601 207.267 142.125 80.4557 
202.006 146.593 80.0526 222.772 147.831 79.3224 225.304 172.359 78.7233 
223.52 172.812 79.334 219.099 173.964 79.021 216.736 137.752 80.0996 
215.412 138.202 80.5565 212.14 139.988 81.5456 202.77 144.383 81.6066 
203.787 143.764 81.8511 224.382 160.104 80.9848 195.306 168.503 80.8717 
195.547 169.343 81.1783 195.784 170.331 82.0485 196.952 171.098 81.8742 
201.132 172.686 81.1509 204.764 173.805 80.5611 217.073 137.998 80.3915 
217.27 138.349 80.7504 217.661 138.813 80.9886 218.334 140.287 81.897 
203.86 143.665 82.4059 201.528 145.137 81.9017 201.373 145.059 82.3861 
200.278 146.238 81.7814 193.476 167.683 82.1193 193.602 168.46 82.4583 
193.425 169.13 83.2949 201.903 172.976 81.8564 217.94 173.147 80.8816 
208.014 174.011 82.2885 213.506 139.709 82.1767 218.647 142.029 83.1392 
204.162 143.552 82.7728 201.607 144.848 82.8107 198.27 146.344 83.6464 
198.079 146.49 83.6323 196.089 148.14 83.5442 223.086 162.223 82.7702 
221.36 164.679 83.2765 191.931 167.747 83.6617 198.329 171.946 83.0179 
202.485 173.113 82.6371 217.973 172.134 81.9397 216.414 139.713 82.8593 
216.664 140.16 83.3053 214.402 139.805 82.8561 217.197 140.516 83.3289 
205.078 143.511 83.9955 198.221 146.355 83.8185 200.53 145.401 84.2281 
198.516 146.234 84.23 223.362 155.738 83.2492 195.94 171.01 84.3421 
214.664 171.122 83.9526 216.218 170.703 83.5493 215.188 140.062 83.4768 
191.47 150.126 85.6018 192.503 150.162 84.6991 189.322 167.166 86.0549 
190.449 168.229 86.1851 192.832 169.536 85.1978 198.58 171.93 85.4998 
212.243 172.398 83.9778 206.05 173.351 84.5757 210.092 173.032 84.0769 
208.187 173.297 84.3182 201.815 145.237 85.7283 196.088 147.286 86.3676 
192.372 149.07 86.1794 193.85 148.215 86.3376 222.092 154.547 85.0306 
188.241 155.18 85.7437 208.893 172.836 84.7855 206.831 173.065 85.1196 
215.611 142.097 86.1462 210.759 142.779 86.3117 192.938 148.525 87.056 
188.586 151.309 86.7935 220.903 153.258 86.111 220.58 155.083 86.2941 
219.956 155.953 86.5211 187.012 160.446 86.2829 186.52 164.786 87.9352 
187.405 165.228 86.8982 187.208 165.995 87.8942 187.501 166.454 88.0982 
206.47 172.306 86.1381 213.119 142.753 87.1657 217.067 144.142 87.6505 
193.901 148.191 87.6827 187.911 150.585 88.4664 194.299 148.203 88.4089 
219.341 150.467 87.4097 185.884 154.366 88.3989 185.618 156.858 88.347 
185.571 162.828 88.8195 206.433 169.853 87.8871 194.97 170.457 87.9294 
204.907 171.606 87.2311 202.238 146.625 89.2106 217.695 147.023 88.579 
186.516 151.632 89.2738 186.342 152.309 88.7213 185.314 156.079 89.059 
185.428 156.788 88.9549 185.424 162.157 89.3862 185.379 162.72 89.196 
185.367 162.72 89.3959 185.346 162.861 89.2716 185.416 162.979 89.1735 
185.605 163.447 89.2756 187.2 166.407 89.1337 188.924 167.662 89.6355 
204.273 169.896 88.7392 213.072 143.991 88.9022 215.525 144.109 88.7164 
216.464 144.543 88.5511 210.025 144.876 89.535 190.036 149.426 89.8049 
199.164 147.84 90.2802 186.458 151.737 89.5419 186.746 151.711 90.4989 
186.153 152.53 90.0671 185.811 153.659 89.5806 185.418 156.149 89.5635 
185.404 158.264 89.7029 185.404 162.979 89.3736 185.506 162.83 89.8127 
186.148 164.851 90.2814 214.354 144.367 89.2456 215.997 146.109 89.7995 
210.528 145.466 90.3928 215.661 146.415 90.0991 214.981 147.729 90.6329 
215.02 148.446 90.5745 212.81 150.413 91.2294 186.51 152.288 90.8237 
186.116 153.146 90.7132 186.283 153.393 91.2407 210.836 153.512 91.2837 
185.488 159.545 90.4586 186.036 163.524 91.1628 186.215 164.245 91.1294 
202.299 166.554 91.2883 192.408 169.112 90.9265 198.267 170.351 90.252 
214.884 145.732 90.1094 211.537 146.056 90.9859 210.387 146.356 91.217 
211.685 148.801 91.8665 188.581 150.698 91.6183 187.339 151.658 91.4685 
191.387 150.041 92.6391 186.809 165.095 91.5142 197.57 169.745 91.409 
212.281 147.343 91.4998 206.945 147.723 92.1807 189.97 150.358 92.3157 
187.124 152.752 92.1916 206.807 152.62 93.212 207.532 148.688 92.6899 
206.378 150.179 93.2558 205.953 150.981 93.5187 188.776 166.081 93.4526 
196.894 168.684 92.7257 207.498 148.078 92.5292 204.933 149.576 93.2915 
189.573 152.299 94.9015 188.939 153.328 95.0729 191.213 167.348 94.1496 
191.803 167.494 94.189 190.065 151.961 94.9953 191.463 151.651 95.5955 
194.226 151.273 95.8946 195.103 151.022 95.5767 193.996 167.027 94.8272 
192.436 167.263 94.6725 195.048 151.82 96.5499 197.47 154.89 97.0356 
[...]
POINT_DATA 805
COLOR_SCALARS scalars 3
0.0941176 0.501961 0.392157 0.0941176 0.501961 0.392157 0.0941176 0.501961 0.392157 
0.0941176 0.501961 0.392157 0.0941176 0.501961 0.392157 
0.0941176 0.501961 0.392157 0.0941176 0.501961 0.392157 
0.0941176 0.501961 0.392157 0.0941176 0.501961 0.392157 
0.0941176 0.501961 0.392157 0.0941176 0.501961 0.392157 
0.0941176 0.501961 0.392157 0.0941176 0.501961 0.392157 
0.0941176 0.501961 0.392157 0.0941176 0.501961 0.392157 
0.0941176 0.501961 0.392157 0.0941176 0.501961 0.392157 
0.0941176 0.501961 0.392157 0.0941176 0.501961 0.392157 
0.0941176 0.501961 0.392157 0.0941176 0.501961 0.392157 
0.0941176 0.501961 0.392157 0.0941176 0.501961 0.392157 
0.0941176 0.501961 0.392157 0.0941176 0.501961 0.392157 
0.0941176 0.501961 0.392157 0.0941176 0.501961 0.392157 
0.0941176 0.501961 0.392157 0.0941176 0.501961 0.392157 
0.0941176 0.501961 0.392157 0.0941176 0.501961 0.392157 
0.0941176 0.501961 0.392157 0.0941176 0.501961 0.392157 
0.0941176 0.501961 0.392157 0.0941176 0.501961 0.392157 
0.0941176 0.501961 0.392157 0.0941176 0.501961 0.392157 
0.0941176 0.501961 0.392157 0.0941176 0.501961 0.392157 
0.0941176 0.501961 0.392157 0.0941176 0.501961 0.392157 
0.0941176 0.501961 0.392157 0.0941176 0.501961 0.392157 
0.0941176 0.501961 0.392157 0.0941176 0.501961 0.392157 
0.0941176 0.501961 0.392157 0.0941176 0.501961 0.392157 
0.0941176 0.501961 0.392157 0.0941176 0.501961 0.392157 
0.0941176 0.501961 0.392157 0.0941176 0.501961 0.392157 
0.0941176 0.501961 0.392157 0.0941176 0.501961 0.392157 
0.0941176 0.501961 0.392157 0.0941176 0.501961 0.392157 
0.0941176 0.501961 0.392157 0.0941176 0.501961 0.392157 
0.0941176 0.501961 0.392157 0.0941176 0.501961 0.392157 
0.0941176 0.501961 0.392157 0.0941176 0.501961 0.392157 
0.0941176 0.501961 0.392157 0.0941176 0.501961 0.392157 
0.0941176 0.501961 0.392157 0.0941176 0.501961 0.392157 
0.0941176 0.501961 0.392157 0.0941176 0.501961 0.392157 
0.0941176 0.501961 0.392157 0.0941176 0.501961 0.392157 
0.0941176 0.501961 0.392157 0.0941176 0.501961 0.392157 
0.0941176 0.501961 0.392157 0.0941176 0.501961 0.392157 
0.0941176 0.501961 0.392157 0.0941176 0.501961 0.392157 
0.0941176 0.501961 0.392157 0.0941176 0.501961 0.392157 
0.0941176 0.501961 0.392157 0.0941176 0.501961 0.392157 
0.0941176 0.501961 0.392157 0.0941176 0.501961 0.392157 
0.0941176 0.501961 0.392157 0.0941176 0.501961 0.392157 
0.0941176 0.501961 0.392157 0.0941176 0.501961 0.392157 
0.0941176 0.501961 0.392157 0.0941176 0.501961 0.392157 
0.0941176 0.501961 0.392157 0.0941176 0.501961 0.392157 
0.0941176 0.501961 0.392157 0.0941176 0.501961 0.392157 
0.0941176 0.501961 0.392157 0.0941176 0.501961 0.392157 
0.0941176 0.501961 0.392157 0.0941176 0.501961 0.392157 
0.0941176 0.501961 0.392157 0.0941176 0.501961 0.392157 
0.0941176 0.501961 0.392157 0.0941176 0.501961 0.392157 
0.0941176 0.501961 0.392157 0.0941176 0.501961 0.392157 
0.0941176 0.501961 0.392157 0.0941176 0.501961 0.392157 
0.0941176 0.501961 0.392157 0.0941176 0.501961 0.392157 
0.0941176 0.501961 0.392157 0.0941176 0.501961 0.392157 
0.0941176 0.501961 0.392157 0.0941176 0.501961 0.392157 
0.0941176 0.501961 0.392157 0.0941176 0.501961 0.392157 
0.0941176 0.501961 0.392157 0.0941176 0.501961 0.392157 
0.0941176 0.501961 0.392157 0.0941176 0.501961 0.392157 
0.0941176 0.501961 0.392157 0.0941176 0.501961 0.392157 
0.0941176 0.501961 0.392157 0.0941176 0.501961 0.392157 
0.0941176 0.501961 0.392157 0.0941176 0.501961 0.392157 
0.0941176 0.501961 0.392157 0.0941176 0.501961 0.392157 
0.0941176 0.501961 0.392157 0.0941176 0.501961 0.392157 
0.0941176 0.501961 0.392157 0.0941176 0.501961 0.392157 
0.0941176 0.501961 0.392157 0.0941176 0.501961 0.392157 
0.0941176 0.501961 0.392157 0.0941176 0.501961 0.392157 
0.0941176 0.501961 0.392157 0.0941176 0.501961 0.392157 
0.0941176 0.501961 0.392157 0.0941176 0.501961 0.392157 
0.0941176 0.501961 0.392157 0.0941176 0.501961 0.392157 
0.0941176 0.501961 0.392157 0.0941176 0.501961 0.392157 
0.0941176 0.501961 0.392157 0.0941176 0.501961 0.392157 
0.0941176 0.501961 0.392157 0.0941176 0.501961 0.392157 
0.0941176 0.501961 0.392157 0.0941176 0.501961 0.392157 
0.0941176 0.501961 0.392157 0.0941176 0.501961 0.392157 
0.0941176 0.501961 0.392157 0.0941176 0.501961 0.392157 
0.0941176 0.501961 0.392157 0.0941176 0.501961 0.392157 
0.0941176 0.501961 0.392157 0.0941176 0.501961 0.392157 
0.0941176 0.501961 0.392157 0.0941176 0.501961 0.392157 
0.0941176 0.501961 0.392157 0.0941176 0.501961 0.392157 
0.0941176 0.501961 0.392157 0.0941176 0.501961 0.392157 
0.0941176 0.501961 0.392157 0.0941176 0.501961 0.392157 
0.0941176 0.501961 0.392157 0.0941176 0.501961 0.392157 
0.0941176 0.501961 0.392157 0.0941176 0.501961 0.392157 
0.0941176 0.501961 0.392157 0.0941176 0.501961 0.392157 
0.0941176 0.501961 0.392157 0.0941176 0.501961 0.392157 
0.0941176 0.501961 0.392157 0.0941176 0.501961 0.392157 
0.0941176 0.501961 0.392157 0.0941176 0.501961 0.392157 
0.0941176 0.501961 0.392157 0.0941176 0.501961 0.392157 
0.0941176 0.501961 0.392157 0.0941176 0.501961 0.392157 
0.0941176 0.501961 0.392157 0.0941176 0.501961 0.392157 
0.0941176 0.501961 0.392157 0.0941176 0.501961 0.392157 
0.0941176 0.501961 0.392157 0.0941176 0.501961 0.392157 
0.0941176 0.501961 0.392157 0.0941176 0.501961 0.392157 
0.0941176 0.501961 0.392157 0.0941176 0.501961 0.392157 
0.0941176 0.501961 0.392157 0.0941176 0.501961 0.392157 
0.0941176 0.501961 0.392157 0.0941176 0.501961 0.392157 
0.0941176 0.501961 0.392157 0.0941176 0.501961 0.392157 
0.0941176 0.501961 0.392157 0.0941176 0.501961 0.392157 
0.0941176 0.501961 0.392157 0.0941176 0.501961 0.392157 
0.0941176 0.501961 0.392157 0.0941176 0.501961 0.392157 
0.0941176 0.501961 0.392157 0.0941176 0.501961 0.392157 
0.0941176 0.501961 0.392157 0.0941176 0.501961 0.392157 
0.0941176 0.501961 0.392157 0.0941176 0.501961 0.392157 
0.0941176 0.501961 0.392157 0.0941176 0.501961 0.392157 
0.0941176 0.501961 0.392157 0.0941176 0.501961 0.392157 
0.0941176 0.501961 0.392157 0.0941176 0.501961 0.392157 
0.0941176 0.501961 0.392157 0.0941176 0.501961 0.392157 
0.0941176 0.501961 0.392157 0.0941176 0.501961 0.392157 
0.0941176 0.501961 0.392157 0.0941176 0.501961 0.392157 
0.0941176 0.501961 0.392157 0.0941176 0.501961 0.392157 
0.0941176 0.501961 0.392157 0.0941176 0.501961 0.392157 
0.0941176 0.501961 0.392157 0.0941176 0.501961 0.392157 
0.0941176 0.501961 0.392157 0.0941176 0.501961 0.392157 
0.0941176 0.501961 0.392157 0.0941176 0.501961 0.392157 
0.0941176 0.501961 0.392157 0.0941176 0.501961 0.392157 
0.0941176 0.501961 0.392157 0.0941176 0.501961 0.392157 
0.0941176 0.501961 0.392157 0.0941176 0.501961 0.392157 
0.0941176 0.501961 0.392157 0.0941176 0.501961 0.392157 
0.0941176 0.501961 0.392157 0.0941176 0.501961 0.392157 
0.0941176 0.501961 0.392157 0.0941176 0.501961 0.392157 
0.0941176 0.501961 0.392157 0.0941176 0.501961 0.392157 
0.0941176 0.501961 0.392157 0.0941176 0.501961 0.392157 
0.0941176 0.501961 0.392157 0.0941176 0.501961 0.392157 
0.0941176 0.501961 0.392157 0.0941176 0.501961 0.392157 
0.0941176 0.501961 0.392157 0.0941176 0.501961 0.392157 
0.0941176 0.501961 0.392157 0.0941176 0.501961 0.392157 
0.0941176 0.501961 0.392157 0.0941176 0.501961 0.392157 
0.0941176 0.501961 0.392157 0.0941176 0.501961 0.392157 
0.0941176 0.501961 0.392157 0.0941176 0.501961 0.392157 
0.0941176 0.501961 0.392157 0.0941176 0.501961 0.392157 
0.0941176 0.501961 0.392157 0.0941176 0.501961 0.392157 
0.0941176 0.501961 0.392157 0.0941176 0.501961 0.392157 
0.0941176 0.501961 0.392157 0.0941176 0.501961 0.392157 
0.0941176 0.501961 0.392157 0.0941176 0.501961 0.392157 
0.0941176 0.501961 0.392157 0.0941176 0.501961 0.392157 
0.0941176 0.501961 0.392157 0.0941176 0.501961 0.392157 
0.0941176 0.501961 0.392157 0.0941176 0.501961 0.392157 
0.0941176 0.501961 0.392157 0.0941176 0.501961 0.392157 
0.0941176 0.501961 0.392157 0.0941176 0.501961 0.392157 
0.0941176 0.501961 0.392157 0.0941176 0.501961 0.392157 
0.0941176 0.501961 0.392157 0.0941176 0.501961 0.392157 
0.0941176 0.501961 0.392157 0.0941176 0.501961 0.392157 
0.0941176 0.501961 0.392157 0.0941176 0.501961 0.392157 
0.0941176 0.501961 0.392157 0.0941176 0.501961 0.392157 
0.0941176 0.501961 0.392157 0.0941176 0.501961 0.392157 
0.0941176 0.501961 0.392157 0.0941176 0.501961 0.392157 
0.0941176 0.501961 0.392157 0.0941176 0.501961 0.392157 
0.0941176 0.501961 0.392157 0.0941176 0.501961 0.392157 
0.0941176 0.501961 0.392157 0.0941176 0.501961 0.392157 
0.0941176 0.501961 0.392157 0.0941176 0.501961 0.392157 
0.0941176 0.501961 0.392157 0.0941176 0.501961 0.392157 
0.0941176 0.501961 0.392157 0.0941176 0.501961 0.392157 
0.0941176 0.501961 0.392157 0.0941176 0.501961 0.392157 
0.0941176 0.501961 0.392157 0.0941176 0.501961 0.392157 
0.0941176 0.501961 0.392157 0.0941176 0.501961 0.392157 
0.0941176 0.501961 0.392157 0.0941176 0.501961 0.392157 
0.0941176 0.501961 0.392157 0.0941176 0.501961 0.392157 
0.0941176 0.501961 0.392157 0.0941176 0.501961 0.392157 
0.0941176 0.501961 0.392157 0.0941176 0.501961 0.392157 
0.0941176 0.501961 0.392157 0.0941176 0.501961 0.392157 
0.0941176 0.501961 0.392157 0.0941176 0.501961 0.392157 
0.0941176 0.501961 0.392157 0.0941176 0.501961 0.392157 
0.0941176 0.501961 0.392157 0.0941176 0.501961 0.392157 
0.0941176 0.501961 0.392157 0.0941176 0.501961 0.392157 
0.0941176 0.501961 0.392157 0.0941176 0.501961 0.392157 
0.0941176 0.501961 0.392157 0.0941176 0.501961 0.392157 
0.0941176 0.501961 0.392157 0.0941176 0.501961 0.392157 
0.0941176 0.501961 0.392157 0.0941176 0.501961 0.392157 
0.0941176 0.501961 0.392157 0.0941176 0.501961 0.392157 
0.0941176 0.501961 0.392157 0.0941176 0.501961 0.392157 
0.0941176 0.501961 0.392157 0.0941176 0.501961 0.392157 
0.0941176 0.501961 0.392157 0.0941176 0.501961 0.392157 
0.0941176 0.501961 0.392157 0.0941176 0.501961 0.392157 
0.0941176 0.501961 0.392157 0.0941176 0.501961 0.392157 
0.0941176 0.501961 0.392157 0.0941176 0.501961 0.392157 
0.0941176 0.501961 0.392157 0.0941176 0.501961 0.392157 
0.0941176 0.501961 0.392157 0.0941176 0.501961 0.392157 
0.0941176 0.501961 0.392157 0.0941176 0.501961 0.392157 
0.0941176 0.501961 0.392157 0.0941176 0.501961 0.392157 
0.0941176 0.501961 0.392157 0.0941176 0.501961 0.392157 
0.0941176 0.501961 0.392157 0.0941176 0.501961 0.392157 
0.0941176 0.501961 0.392157 0.0941176 0.501961 0.392157 
0.0941176 0.501961 0.392157 0.0941176 0.501961 0.392157 
0.0941176 0.501961 0.392157 0.0941176 0.501961 0.392157 
0.0941176 0.501961 0.392157 0.0941176 0.501961 0.392157 
0.0941176 0.501961 0.392157 0.0941176 0.501961 0.392157 
0.0941176 0.501961 0.392157 0.0941176 0.501961 0.392157 
0.0941176 0.501961 0.392157 0.0941176 0.501961 0.392157 
0.0941176 0.501961 0.392157 0.0941176 0.501961 0.392157 
0.0941176 0.501961 0.392157 0.0941176 0.501961 0.392157 
0.0941176 0.501961 0.392157 0.0941176 0.501961 0.392157 
0.0941176 0.501961 0.392157 0.0941176 0.501961 0.392157 
0.0941176 0.501961 0.392157 0.0941176 0.501961 0.392157 
0.0941176 0.501961 0.392157 0.0941176 0.501961 0.392157 
0.0941176 0.501961 0.392157 0.0941176 0.501961 0.392157 
0.0941176 0.501961 0.392157 0.0941176 0.501961 0.392157 
0.0941176 0.501961 0.392157 0.0941176 0.501961 0.392157 
0.0941176 0.501961 0.392157 0.0941176 0.501961 0.392157 
0.0941176 0.501961 0.392157 0.0941176 0.501961 0.392157 
0.0941176 0.501961 0.392157 0.0941176 0.501961 0.392157 
0.0941176 0.501961 0.392157 0.0941176 0.501961 0.392157 
0.0941176 0.501961 0.392157 0.0941176 0.501961 0.392157 
0.0941176 0.501961 0.392157 0.0941176 0.501961 0.392157 
0.0941176 0.501961 0.392157 0.0941176 0.501961 0.392157 
0.0941176 0.501961 0.392157 0.0941176 0.501961 0.392157 
0.0941176 0.501961 0.392157 0.0941176 0.501961 0.392157 
0.0941176 0.501961 0.392157 0.0941176 0.501961 0.392157 
0.0941176 0.501961 0.392157 0.0941176 0.501961 0.392157 
0.0941176 0.501961 0.392157 0.0941176 0.501961 0.392157 
0.0941176 0.501961 0.392157 0.0941176 0.501961 0.392157 
0.0941176 0.501961 0.392157 0.0941176 0.501961 0.392157 
0.0941176 0.501961 0.392157 0.0941176 0.501961 0.392157 
0.0941176 0.501961 0.392157 0.0941176 0.501961 0.392157 
0.0941176 0.501961 0.392157 0.0941176 0.501961 0.392157 
0.0941176 0.501961 0.392157 0.0941176 0.501961 0.392157 
0.0941176 0.501961 0.392157 0.0941176 0.501961 0.392157 
0.0941176 0.501961 0.392157 0.0941176 0.501961 0.392157 
0.0941176 0.501961 0.392157 0.0941176 0.501961 0.392157 
0.0941176 0.501961 0.392157 0.0941176 0.501961 0.392157 
0.0941176 0.501961 0.392157 0.0941176 0.501961 0.392157 
0.0941176 0.501961 0.392157 0.0941176 0.501961 0.392157 
0.0941176 0.501961 0.392157 0.0941176 0.501961 0.392157 
0.0941176 0.501961 0.392157 0.0941176 0.501961 0.392157 
0.0941176 0.501961 0.392157 0.0941176 0.501961 0.392157 
0.0941176 0.501961 0.392157 0.0941176 0.501961 0.392157 
0.0941176 0.501961 0.392157 0.0941176 0.501961 0.392157 
0.0941176 0.501961 0.392157 0.0941176 0.501961 0.392157 
0.0941176 0.501961 0.392157 0.0941176 0.501961 0.392157 
0.0941176 0.501961 0.392157 0.0941176 0.501961 0.392157 
0.0941176 0.501961 0.392157 0.0941176 0.501961 0.392157 
0.0941176 0.501961 0.392157 0.0941176 0.501961 0.392157 
0.0941176 0.501961 0.392157 0.0941176 0.501961 0.392157 
0.0941176 0.501961 0.392157 0.0941176 0.501961 0.392157 
0.0941176 0.501961 0.392157 0.0941176 0.501961 0.392157 
0.0941176 0.501961 0.392157 0.0941176 0.501961 0.392157 
0.0941176 0.501961 0.392157 0.0941176 0.501961 0.392157 
0.0941176 0.501961 0.392157 0.0941176 0.501961 0.392157 
0.0941176 0.501961 0.392157 0.0941176 0.501961 0.392157 
0.0941176 0.501961 0.392157 0.0941176 0.501961 0.392157 
0.0941176 0.501961 0.392157 0.0941176 0.501961 0.392157 
0.0941176 0.501961 0.392157 0.0941176 0.501961 0.392157 
0.0941176 0.501961 0.392157 0.0941176 0.501961 0.392157 
0.0941176 0.501961 0.392157 0.0941176 0.501961 0.392157 
0.0941176 0.501961 0.392157 0.0941176 0.501961 0.392157 
0.0941176 0.501961 0.392157 0.0941176 0.501961 0.392157 
0.0941176 0.501961 0.392157 0.0941176 0.501961 0.392157 
0.0941176 0.501961 0.392157 0.0941176 0.501961 0.392157 
0.0941176 0.501961 0.392157 0.0941176 0.501961 0.392157 
0.0941176 0.501961 0.392157 0.0941176 0.501961 0.392157 
0.0941176 0.501961 0.392157 0.0941176 0.501961 0.392157 
0.0941176 0.501961 0.392157 0.0941176 0.501961 0.392157 
0.0941176 0.501961 0.392157 0.0941176 0.501961 0.392157 
0.0941176 0.501961 0.392157 0.0941176 0.501961 0.392157 
0.0941176 0.501961 0.392157 0.0941176 0.501961 0.392157 
0.0941176 0.501961 0.392157 0.0941176 0.501961 0.392157 
0.0941176 0.501961 0.392157 0.0941176 0.501961 0.392157 
0.0941176 0.501961 0.392157 0.0941176 0.501961 0.392157 
0.0941176 0.501961 0.392157 0.0941176 0.501961 0.392157 
0.0941176 0.501961 0.392157 0.0941176 0.501961 0.392157 
0.0941176 0.501961 0.392157 0.0941176 0.501961 0.392157 
0.0941176 0.501961 0.392157 0.0941176 0.501961 0.392157 
0.0941176 0.501961 0.392157 0.0941176 0.501961 0.392157 
0.0941176 0.501961 0.392157 0.0941176 0.501961 0.392157 
0.0941176 0.501961 0.392157 0.0941176 0.501961 0.392157 
0.0941176 0.501961 0.392157 0.0941176 0.501961 0.392157 
0.0941176 0.501961 0.392157 0.0941176 0.501961 0.392157 
0.0941176 0.501961 0.392157 0.0941176 0.501961 0.392157 
0.0941176 0.501961 0.392157 0.0941176 0.501961 0.392157 
0.0941176 0.501961 0.392157 0.0941176 0.501961 0.392157 
0.0941176 0.501961 0.392157 0.0941176 0.501961 0.392157 
0.0941176 0.501961 0.392157 0.0941176 0.501961 0.392157 
0.0941176 0.501961 0.392157 0.0941176 0.501961 0.392157 
0.0941176 0.501961 0.392157 0.0941176 0.501961 0.392157 
0.0941176 0.501961 0.392157 0.0941176 0.501961 0.392157 
0.0941176 0.501961 0.392157 0.0941176 0.501961 0.392157 
0.0941176 0.501961 0.392157 0.0941176 0.501961 0.392157 
0.0941176 0.501961 0.392157 0.0941176 0.501961 0.392157 
0.0941176 0.501961 0.392157 0.0941176 0.501961 0.392157 
0.0941176 0.501961 0.392157 0.0941176 0.501961 0.392157 
0.0941176 0.501961 0.392157 0.0941176 0.501961 0.392157 
0.0941176 0.501961 0.392157 0.0941176 0.501961 0.392157 
0.0941176 0.501961 0.392157 0.0941176 0.501961 0.392157 
0.0941176 0.501961 0.392157 0.0941176 0.501961 0.392157 
0.0941176 0.501961 0.392157 0.0941176 0.501961 0.392157 
0.0941176 0.501961 0.392157 0.0941176 0.501961 0.392157 
0.0941176 0.501961 0.392157 0.0941176 0.501961 0.392157 
0.0941176 0.501961 0.392157 0.0941176 0.501961 0.392157 
0.0941176 0.501961 0.392157 0.0941176 0.501961 0.392157 
0.0941176 0.501961 0.392157 0.0941176 0.501961 0.392157 
0.0941176 0.501961 0.392157 0.0941176 0.501961 0.392157 
0.0941176 0.501961 0.392157 0.0941176 0.501961 0.392157 
0.0941176 0.501961 0.392157 0.0941176 0.501961 0.392157 
0.0941176 0.501961 0.392157 0.0941176 0.501961 0.392157 
0.0941176 0.501961 0.392157 0.0941176 0.501961 0.392157 
0.0941176 0.501961 0.392157 0.0941176 0.501961 0.392157 
0.0941176 0.501961 0.392157 0.0941176 0.501961 0.392157 
0.0941176 0.501961 0.392157 0.0941176 0.501961 0.392157 
0.0941176 0.501961 0.392157 0.0941176 0.501961 0.392157 
0.0941176 0.501961 0.392157 0.0941176 0.501961 0.392157 
0.0941176 0.501961 0.392157 0.0941176 0.501961 0.392157 
0.0941176 0.501961 0.392157 0.0941176 0.501961 0.392157 
0.0941176 0.501961 0.392157 0.0941176 0.501961 0.392157 
0.0941176 0.501961 0.392157 0.0941176 0.501961 0.392157 
0.0941176 0.501961 0.392157 0.0941176 0.501961 0.392157 
0.0941176 0.501961 0.392157 0.0941176 0.501961 0.392157 
0.0941176 0.501961 0.392157 0.0941176 0.501961 0.392157 
0.0941176 0.501961 0.392157 0.0941176 0.501961 0.392157 
0.0941176 0.501961 0.392157 0.0941176 0.501961 0.392157 
0.0941176 0.501961 0.392157 0.0941176 0.501961 0.392157 
0.0941176 0.501961 0.392157 0.0941176 0.501961 0.392157 
0.0941176 0.501961 0.392157 0.0941176 0.501961 0.392157 
0.0941176 0.501961 0.392157 0.0941176 0.501961 0.392157 
0.0941176 0.501961 0.392157 0.0941176 0.501961 0.392157 
0.0941176 0.501961 0.392157 0.0941176 0.501961 0.392157 
0.0941176 0.501961 0.392157 0.0941176 0.501961 0.392157 
0.0941176 0.501961 0.392157 0.0941176 0.501961 0.392157 
0.0941176 0.501961 0.392157 0.0941176 0.501961 0.392157 
0.0941176 0.501961 0.392157 0.0941176 0.501961 0.392157 
0.0941176 0.501961 0.392157 0.0941176 0.501961 0.392157 
0.0941176 0.501961 0.392157 0.0941176 0.501961 0.392157 
0.0941176 0.501961 0.392157 0.0941176 0.501961 0.392157 
0.0941176 0.501961 0.392157 0.0941176 0.501961 0.392157 
0.0941176 0.501961 0.392157 0.0941176 0.501961 0.392157 
0.0941176 0.501961 0.392157 0.0941176 0.501961 0.392157 
0.0941176 0.501961 0.392157 0.0941176 0.501961 0.392157 
0.0941176 0.501961 0.392157 0.0941176 0.501961 0.392157 
0.0941176 0.501961 0.392157 0.0941176 0.501961 0.392157 
0.0941176 0.501961 0.392157 0.0941176 0.501961 0.392157 
0.0941176 0.501961 0.392157 0.0941176 0.501961 0.392157 
0.0941176 0.501961 0.392157 0.0941176 0.501961 0.392157 
0.0941176 0.501961 0.392157 0.0941176 0.501961 0.392157 
0.0941176 0.501961 0.392157 0.0941176 0.501961 0.392157 
0.0941176 0.501961 0.392157 0.0941176 0.501961 0.392157 
0.0941176 0.501961 0.392157 0.0941176 0.501961 0.392157 
0.0941176 0.501961 0.392157 0.0941176 0.501961 0.392157 
0.0941176 0.501961 0.392157 0.0941176 0.501961 0.392157 
0.0941176 0.501961 0.392157 0.0941176 0.501961 0.392157 
0.0941176 0.501961 0.392157 0.0941176 0.501961 0.392157 
0.0941176 0.501961 0.392157 0.0941176 0.501961 0.392157 
0.0941176 0.501961 0.392157 0.0941176 0.501961 0.392157 
0.0941176 0.501961 0.392157 0.0941176 0.501961 0.392157 
0.0941176 0.501961 0.392157 0.0941176 0.501961 0.392157 
0.0941176 0.501961 0.392157 0.0941176 0.501961 0.392157 
0.0941176 0.501961 0.392157 0.0941176 0.501961 0.392157 
0.0941176 0.501961 0.392157 0.0941176 0.501961 0.392157 
0.0941176 0.501961 0.392157 0.0941176 0.501961 0.392157 
0.0941176 0.501961 0.392157 0.0941176 0.501961 0.392157 
0.0941176 0.501961 0.392157 0.0941176 0.501961 0.392157 
0.0941176 0.501961 0.392157 0.0941176 0.501961 0.392157 
0.0941176 0.501961 0.392157 0.0941176 0.501961 0.392157 