# vtk DataFile Version 4.2
vtk output
ASCII
DATASET POLYDATA
POINTS 1719 float
282.312 146.853 58.7706 283.664 147.546 59.4345 281.175 148.329 58.4469 
281.276 150.303 58.7308 281.746 151.34 59.3897 275.853 154.235 58.9629 
274.686 155.452 59.2758 274.465 155.466 59.26 277.145 154.35 59.403 
283.467 141.801 60.5133 283.026 145.852 59.2585 284.078 146.893 59.8842 
284.037 147.46 59.66 284.003 147.727 59.6347 284.119 147.611 59.6958 
274.511 149.442 58.7565 283.907 148.218 59.7597 284.141 147.741 59.8006 
283.529 149.94 59.9812 277.744 154.341 59.6532 273.918 155.419 59.2745 
269.869 156.817 59.2885 271.582 156.285 59.3619 274.504 156.076 59.7994 
274.789 155.994 59.6787 274.98 155.761 59.5816 269.493 157.44 59.4339 
274.884 155.93 59.6356 269.225 158.856 60.0978 269.833 158.714 60.2724 
268.909 159.231 60.2769 261.308 161.703 59.6006 260.535 162.459 59.8045 
261.6 163.244 60.4557 280.407 140.479 59.9441 281.606 141.227 59.8506 
282.214 141.325 59.9869 280.089 141.923 59.5915 284.311 142.628 61.0054 
284.175 147.474 59.8265 284.359 147.615 60.2534 278.376 154.61 60.3968 
265.659 156.598 59.1861 274.998 155.959 59.8073 269.042 159.613 60.7786 
255.308 163.046 60.0746 256.347 163.978 60.219 255.255 164.842 60.411 
255.679 165.208 60.5926 253.282 166.198 60.9055 253.818 166.786 61.2981 
255.976 166.175 61.3383 283.095 136.073 61.8615 282.413 137.092 61.2403 
284.816 145.675 61.0259 254.5 159.363 60.3488 271.162 158.724 61.1365 
272.299 158.357 61.6285 254.044 160.885 60.2372 269.013 160.074 61.4917 
249.822 162.053 61.1399 260.326 164.538 61.5254 250.452 165.918 61.6204 
251.194 166.683 61.7577 254.042 167.034 61.5566 254.436 167.099 61.7749 
250.269 167.408 62.9152 251.14 167.318 62.276 282.38 132.625 62.6532 
282.869 132.956 62.796 284.962 145.246 61.353 276.834 156.069 61.6923 
250.812 158.622 61.1451 248.478 160.603 61.6936 247.817 161.41 62.1682 
247.092 161.874 62.9163 265.305 162.609 62.4492 247.573 162.841 62.8661 
248.739 165.02 62.5586 249.519 166.94 63.0392 249.807 167.114 62.8804 
251.834 167.898 62.7904 250.918 167.877 63.2384 283.746 132.67 63.7412 
285.142 142.068 62.6322 253.815 147.746 62.7488 285.483 148.916 63.0804 
283.961 151.537 62.8985 244.426 155.391 63.6041 245.634 156.84 62.9176 
244.252 157.827 64.2253 245.501 159.894 63.9584 249.085 166.658 63.6132 
254.644 167.626 62.9392 250.176 168.019 64.5126 251.508 168.024 63.112 
252.137 168.351 63.76 281.4 128.365 63.8296 285.091 138.261 64.1692 
244.234 153.617 63.7751 275.725 157.212 63.4905 243.992 157.779 64.5646 
259.446 165.859 63.7424 250.707 168.458 65.0761 282.346 123.459 65.6839 
282.755 124.564 65.4996 279.406 125.49 64.8507 283.204 124.427 65.7478 
283.577 124.585 65.9935 283.092 125.942 65.3654 246.378 147.122 64.3038 
242.377 154.522 65.8772 265.448 163.007 64.5284 249.572 167.884 65.5266 
249.747 168.16 65.9239 282.079 121.778 66.2066 285.682 138.68 66.0371 
285.734 140.551 65.5905 285.613 147.827 65.6816 243.981 158.71 66.3138 
269.287 160.896 66.0782 262.089 164.775 66.1011 263.519 164.087 65.7388 
248.96 167.238 66.063 284.005 117.942 67.6446 284.528 118.691 67.7136 
284.993 130.124 66.7838 285.766 137.503 67.0846 285.78 138.462 67.2561 
238.471 144.911 67.6203 238.192 145.517 67.9445 239.042 145.72 67.2642 
238.421 145.874 67.8034 238.494 146.247 67.9516 239.491 146.97 67.185 
285.153 149.111 66.2939 284.741 150.408 66.1568 284.468 151.196 65.5816 
283.368 152.218 66.0559 279.88 154.669 66.1447 277.474 156.18 66.4439 
269.187 160.911 66.5514 265.851 162.791 66.4622 249.74 168.337 67.1227 
253.198 168.643 66.7353 250.024 168.552 67.5132 287.014 114.274 69.2307 
286.787 114.158 69.1564 287.107 113.952 69.2877 285.621 116.033 68.6505 
287.079 114.712 69.3596 285.874 118.796 68.6692 284.99 125.298 67.6345 
285.544 130.867 68.1725 285.671 139.851 67.7039 237.357 143.877 68.698 
237.69 144.502 68.3208 237.44 144.33 68.5337 237.475 144.493 68.5161 
237.53 144.69 68.6103 238.021 145.783 68.4612 240.274 150.054 67.8951 
283.402 151.371 66.9785 269.247 160.782 66.9182 261.442 164.998 66.9742 
255.843 167.515 67.4621 253.763 168.299 67.7696 249.913 168.453 68.0385 
251.016 168.926 67.4012 251.284 168.91 67.7154 288.871 111.646 70.2969 
287.493 112.98 69.6127 288.826 111.905 70.3211 286.217 114.519 69.0413 
287.673 114.873 69.8038 247.939 131.87 68.8298 285.568 138.083 68.8432 
285.412 140.318 68.5215 236.619 141.107 69.23 236.197 141.684 69.4553 
284.651 144.593 68.655 237.396 144.372 68.6597 237.363 144.374 69.0057 
238.879 147.456 69.055 282.327 149.24 68.7107 271.207 158.73 68.3092 
245.617 161.168 69.2088 268.11 160.789 68.0974 260.344 165.067 68.1328 
254.188 167.977 68.2157 249.643 168.165 68.3288 250.429 168.614 68.5893 
285.248 111.312 69.869 287.039 111.488 69.8816 286.751 118.372 69.5842 
285.877 126.153 69.6271 285.803 131.215 69.5911 236.98 138.153 69.9582 
236.601 137.539 70.5349 236.438 138.493 70.6206 236.282 139.628 70.0147 
236.212 139.656 70.2089 236.179 139.805 70.0754 236.221 139.96 69.9588 
236.235 140.443 69.8816 236.221 141.778 69.8118 236.268 141.638 70.0216 
284.799 143.197 68.804 283.725 144.172 69.4818 277.37 151.011 69.8501 
267.279 158.889 69.935 269.532 159.086 68.9512 248.468 165.532 69.6628 
253.123 168.269 68.5443 253.43 167.978 68.8508 249.947 168.048 69.1995 
250.028 168.291 68.9756 250.711 168.529 68.8954 293.001 106.549 72.289 
292.941 106.812 72.334 286.049 127.278 70.4247 285.759 132.484 70.2167 
285.594 132.948 70.8522 238.335 134.042 70.4192 235.488 135.318 72.0757 
285.351 135.451 70.4743 235.662 136.144 71.8218 235.862 136.507 71.6093 
235.695 136.393 71.9498 236.454 138.902 71.2296 284.724 140.266 69.8396 
281.109 144.051 70.7823 238.145 145.478 70.4228 255.322 164.418 70.777 
247.788 163.674 70.4067 257.417 164.259 70.2536 251.626 166.035 70.728 
248.895 165.922 69.956 250.833 166.728 70.3837 252.415 166.862 70.225 
254.452 166.245 70.0832 249.009 166.429 69.6973 250.394 166.884 70.2335 
253.484 166.994 69.8684 249.839 167.309 69.7307 250.187 168.209 69.2135 
250.528 168.243 69.2699 291.319 105.507 72.1289 290.176 113.664 72.0106 
235.004 133.679 72.4885 235.613 133.737 71.9759 235.08 134.952 72.6569 
235.253 135.537 72.8563 235.684 136.426 72.2223 235.725 136.433 72.8127 
237.98 139.184 73.2478 237.11 141.854 71.0878 245.224 159.199 72.1005 
251.491 163.318 71.7402 249.031 163.783 71.2633 249.227 165.662 70.3812 
289.97 115.294 72.6477 288.061 119.416 72.3189 234.016 133.259 73.5325 
234.65 134.713 73.4308 234.893 135.186 73.5896 236.326 136.942 73.8119 
242.503 154.81 72.9568 255.912 154.954 73.4846 248.09 163.1 71.2239 
296.381 99.4355 74.1497 297.993 99.721 74.4117 299.568 99.5709 75.069 
296.9 103.523 74.1473 277.204 108.013 73.5497 265.378 113.255 73.6181 
286.168 126.39 73.7486 232.718 129.016 74.1388 231.959 129.97 74.292 
233.369 129.988 73.7108 231.784 130.811 74.4061 284.136 131.711 73.9048 
233.458 133.364 74.244 235.451 135.904 74.5041 239.554 139.483 74.5564 
247.84 158.173 73.8755 245.885 159.258 72.8459 301.893 95.306 75.9348 
302.744 96.1787 76.2402 295.381 98.0379 74.8201 295.14 107.117 74.1978 
292.401 112.554 74.5033 235.452 125.081 75.2046 233.77 126.287 75.0077 
228.745 130.067 75.5563 227.123 130.571 76.0848 226.979 130.365 76.1687 
228.437 130.783 75.6825 227.043 130.951 76.1925 226.549 131.144 76.4883 
227.973 131.19 75.9352 229.492 131.32 75.5074 231.17 132.198 75.2306 
233.597 134.195 75.1125 234.771 135.285 75.3525 241.307 140.784 75.4747 
242.011 142.168 75.6852 241.25 150.601 74.3626 242.39 153.116 74.8771 
243.845 155.492 74.4499 246.703 157.655 74.0478 246.099 159.08 73.1203 
246.503 159.007 73.3002 302.629 97.0026 76.3898 301.27 99.2639 76.2538 
267.382 109.064 75.7034 262.936 110.826 75.9694 260.408 112.279 75.7603 
293.286 111.913 75.6793 291.504 115.226 75.5907 249.121 117.093 76.0777 
250.166 117.258 75.4353 249.823 116.859 75.9859 248.476 118.05 75.4275 
235.248 124.273 76.3612 233.359 125.564 75.9173 230.292 127.525 75.9487 
230.814 126.895 76.2395 225.641 130.74 76.919 225.463 131.06 77.0404 
228.972 131.83 75.9435 226.266 131.564 76.8673 241.17 139.877 76.0453 
243.265 142.473 76.7494 242.674 153.099 75.3432 243.778 154.63 75.2039 
306.85 90.9435 77.8019 306.9 90.4304 77.8632 307.813 90.6547 78.1049 
305.571 90.7167 77.6728 305.578 93.9938 77.6773 301.568 99.6068 76.7466 
274.618 103.981 76.9394 266.482 108.301 76.778 266.302 107.943 77.3249 
263.695 109.274 77.4348 265.551 108.843 76.7057 261.693 110.274 77.5063 
294.93 109.941 76.8723 258.444 111.958 77.5125 259.283 112.211 76.4027 
256.85 113.064 77.0262 249.913 116.141 77.0544 249.863 115.987 77.5527 
248.875 116.492 77.6901 241.867 120.154 77.7373 239.564 121.528 77.6096 
237.721 122.563 77.5321 235.637 123.813 77.0127 230.949 126.065 77.8862 
227.592 128.512 77.6868 225.206 130.475 77.8761 224.988 130.671 77.7192 
224.44 131.186 77.7176 224.9 130.856 77.5454 224.597 131.377 77.7583 
225.397 131.744 77.5413 229.476 132.947 76.686 244.46 153.056 76.4017 
304.973 89.6085 78.07 308.649 90.8588 78.5781 304.871 96.4753 78.4445 
303.531 98.0954 77.9958 283.234 99.6703 77.2454 273.595 103.553 77.8245 
265.754 107.79 78.2614 265.215 108.024 78.6227 266.542 107.481 77.8966 
264.514 108.438 78.6777 261.132 110.27 78.7492 262.574 109.496 78.7596 
294.366 110.689 77.4032 292.502 113.367 77.1742 249.528 116.127 77.8027 
291.01 115.658 77.1645 289.549 117.915 76.5562 286.918 120.966 77.1368 
236.31 123.41 78.5543 227.708 128.359 78.1068 224.958 130.703 78.0046 
224.44 131.26 77.7718 224.474 131.334 77.9603 224.567 131.162 78.0732 
224.565 131.502 77.9944 225.149 131.789 77.8614 232.551 134.468 77.2022 
239.591 137.761 78.1191 246.268 143.838 78.4039 250.728 145.478 78.2216 
245.442 149.368 77.5824 243.499 151.703 76.7763 243.664 151.294 76.9708 
310.892 86.2606 79.6862 312.274 86.7708 80.1049 309.597 90.0088 78.9651 
305.664 95.7073 78.7624 304.67 97.1441 78.9604 302.518 99.5882 78.1114 
301.566 100.871 78.0189 273.554 102.783 78.9995 301.184 101.471 78.3102 
[...]
POINT_DATA 1719
COLOR_SCALARS scalars 3
0.0941176 0.501961 0.392157 0.0941176 0.501961 0.392157 0.0941176 0.501961 0.392157 
0.0941176 0.501961 0.392157 0.0941176 0.501961 0.392157 
0.0941176 0.501961 0.392157 0.0941176 0.501961 0.392157 
0.0941176 0.501961 0.392157 0.0941176 0.501961 0.392157 
0.0941176 0.501961 0.392157 0.0941176 0.501961 0.392157 
0.0941176 0.501961 0.392157 0.0941176 0.501961 0.392157 
0.0941176 0.501961 0.392157 0.0941176 0.501961 0.392157 
0.0941176 0.501961 0.392157 0.0941176 0.501961 0.392157 
0.0941176 0.501961 0.392157 0.0941176 0.501961 0.392157 
0.0941176 0.501961 0.392157 0.0941176 0.501961 0.392157 
0.0941176 0.501961 0.392157 0.0941176 0.501961 0.392157 
0.0941176 0.501961 0.392157 0.0941176 0.501961 0.392157 
0.0941176 0.501961 0.392157 0.0941176 0.501961 0.392157 
0.0941176 0.501961 0.392157 0.0941176 0.501961 0.392157 
0.0941176 0.501961 0.392157 0.0941176 0.501961 0.392157 
0.0941176 0.501961 0.392157 0.0941176 0.501961 0.392157 
0.0941176 0.501961 0.392157 0.0941176 0.501961 0.392157 
0.0941176 0.501961 0.392157 0.0941176 0.501961 0.392157 
0.0941176 0.501961 0.392157 0.0941176 0.501961 0.392157 
0.0941176 0.501961 0.392157 0.0941176 0.501961 0.392157 
0.0941176 0.501961 0.392157 0.0941176 0.501961 0.392157 
0.0941176 0.501961 0.392157 0.0941176 0.501961 0.392157 
0.0941176 0.501961 0.392157 0.0941176 0.501961 0.392157 
0.0941176 0.501961 0.392157 0.0941176 0.501961 0.392157 
0.0941176 0.501961 0.392157 0.0941176 0.501961 0.392157 
0.0941176 0.501961 0.392157 0.0941176 0.501961 0.392157 
0.0941176 0.501961 0.392157 0.0941176 0.501961 0.392157 
0.0941176 0.501961 0.392157 0.0941176 0.501961 0.392157 
0.0941176 0.501961 0.392157 0.0941176 0.501961 0.392157 
0.0941176 0.501961 0.392157 0.0941176 0.501961 0.392157 
0.0941176 0.501961 0.392157 0.0941176 0.501961 0.392157 
0.0941176 0.501961 0.392157 0.0941176 0.501961 0.392157 
0.0941176 0.501961 0.392157 0.0941176 0.501961 0.392157 
0.0941176 0.501961 0.392157 0.0941176 0.501961 0.392157 
0.0941176 0.501961 0.392157 0.0941176 0.501961 0.392157 
0.0941176 0.501961 0.392157 0.0941176 0.501961 0.392157 
0.0941176 0.501961 0.392157 0.0941176 0.501961 0.392157 
0.0941176 0.501961 0.392157 0.0941176 0.501961 0.392157 
0.0941176 0.501961 0.392157 0.0941176 0.501961 0.392157 
0.0941176 0.501961 0.392157 0.0941176 0.501961 0.392157 
0.0941176 0.501961 0.392157 0.0941176 0.501961 0.392157 
0.0941176 0.501961 0.392157 0.0941176 0.501961 0.392157 
0.0941176 0.501961 0.392157 0.0941176 0.501961 0.392157 
0.0941176 0.501961 0.392157 0.0941176 0.501961 0.392157 
0.0941176 0.501961 0.392157 0.0941176 0.501961 0.392157 
0.0941176 0.501961 0.392157 0.0941176 0.501961 0.392157 
0.0941176 0.501961 0.392157 0.0941176 0.501961 0.392157 
0.0941176 0.501961 0.392157 0.0941176 0.501961 0.392157 
0.0941176 0.501961 0.392157 0.0941176 0.501961 0.392157 
0.0941176 0.501961 0.392157 0.0941176 0.501961 0.392157 
0.0941176 0.501961 0.392157 0.0941176 0.501961 0.392157 
0.0941176 0.501961 0.392157 0.0941176 0.501961 0.392157 
0.0941176 0.501961 0.392157 0.0941176 0.501961 0.392157 
0.0941176 0.501961 0.392157 0.0941176 0.501961 0.392157 
0.0941176 0.501961 0.392157 0.0941176 0.501961 0.392157 
0.0941176 0.501961 0.392157 0.0941176 0.501961 0.392157 
0.0941176 0.501961 0.392157 0.0941176 0.501961 0.392157 
0.0941176 0.501961 0.392157 0.0941176 0.501961 0.392157 
0.0941176 0.501961 0.392157 0.0941176 0.501961 0.392157 
0.0941176 0.501961 0.392157 0.0941176 0.501961 0.392157 
0.0941176 0.501961 0.392157 0.0941176 0.501961 0.392157 
0.0941176 0.501961 0.392157 0.0941176 0.501961 0.392157 
0.0941176 0.501961 0.392157 0.0941176 0.501961 0.392157 
0.0941176 0.501961 0.392157 0.0941176 0.501961 0.392157 
0.0941176 0.501961 0.392157 0.0941176 0.501961 0.392157 
0.0941176 0.501961 0.392157 0.0941176 0.501961 0.392157 
0.0941176 0.501961 0.392157 0.0941176 0.501961 0.392157 
0.0941176 0.501961 0.392157 0.0941176 0.501961 0.392157 
0.0941176 0.501961 0.392157 0.0941176 0.501961 0.392157 
0.0941176 0.501961 0.392157 0.0941176 0.501961 0.392157 
0.0941176 0.501961 0.392157 0.0941176 0.501961 0.392157 
0.0941176 0.501961 0.392157 0.0941176 0.501961 0.392157 
0.0941176 0.501961 0.392157 0.0941176 0.501961 0.392157 
0.0941176 0.501961 0.392157 0.0941176 0.501961 0.392157 
0.0941176 0.501961 0.392157 0.0941176 0.501961 0.392157 
0.0941176 0.501961 0.392157 0.0941176 0.501961 0.392157 
0.0941176 0.501961 0.392157 0.0941176 0.501961 0.392157 
0.0941176 0.501961 0.392157 0.0941176 0.501961 0.392157 
0.0941176 0.501961 0.392157 0.0941176 0.501961 0.392157 
0.0941176 0.501961 0.392157 0.0941176 0.501961 0.392157 
0.0941176 0.501961 0.392157 0.0941176 0.501961 0.392157 
0.0941176 0.501961 0.392157 0.0941176 0.501961 0.392157 
0.0941176 0.501961 0.392157 0.0941176 0.501961 0.392157 
0.0941176 0.501961 0.392157 0.0941176 0.501961 0.392157 
0.0941176 0.501961 0.392157 0.0941176 0.501961 0.392157 
0.0941176 0.501961 0.392157 0.0941176 0.501961 0.392157 
0.0941176 0.501961 0.392157 0.0941176 0.501961 0.392157 
0.0941176 0.501961 0.392157 0.0941176 0.501961 0.392157 
0.0941176 0.501961 0.392157 0.0941176 0.501961 0.392157 
0.0941176 0.501961 0.392157 0.0941176 0.501961 0.392157 
0.0941176 0.501961 0.392157 0.0941176 0.501961 0.392157 
0.0941176 0.501961 0.392157 0.0941176 0.501961 0.392157 
0.0941176 0.501961 0.392157 0.0941176 0.501961 0.392157 
0.0941176 0.501961 0.392157 0.0941176 0.501961 0.392157 
0.0941176 0.501961 0.392157 0.0941176 0.501961 0.392157 
0.0941176 0.501961 0.392157 0.0941176 0.501961 0.392157 
0.0941176 0.501961 0.392157 0.0941176 0.501961 0.392157 
0.0941176 0.501961 0.392157 0.0941176 0.501961 0.392157 
0.0941176 0.501961 0.392157 0.0941176 0.501961 0.392157 
0.0941176 0.501961 0.392157 0.0941176 0.501961 0.392157 
0.0941176 0.501961 0.392157 0.0941176 0.501961 0.392157 
0.0941176 0.501961 0.392157 0.0941176 0.501961 0.392157 
0.0941176 0.501961 0.392157 0.0941176 0.501961 0.392157 
0.0941176 0.501961 0.392157 0.0941176 0.501961 0.392157 
0.0941176 0.501961 0.392157 0.0941176 0.501961 0.392157 
0.0941176 0.501961 0.392157 0.0941176 0.501961 0.392157 
0.0941176 0.501961 0.392157 0.0941176 0.501961 0.392157 
0.0941176 0.501961 0.392157 0.0941176 0.501961 0.392157 
0.0941176 0.501961 0.392157 0.0941176 0.501961 0.392157 
0.0941176 0.501961 0.392157 0.0941176 0.501961 0.392157 
0.0941176 0.501961 0.392157 0.0941176 0.501961 0.392157 
0.0941176 0.501961 0.392157 0.0941176 0.501961 0.392157 
0.0941176 0.501961 0.392157 0.0941176 0.501961 0.392157 
0.0941176 0.501961 0.392157 0.0941176 0.501961 0.392157 
0.0941176 0.501961 0.392157 0.0941176 0.501961 0.392157 
0.0941176 0.501961 0.392157 0.0941176 0.501961 0.392157 
0.0941176 0.501961 0.392157 0.0941176 0.501961 0.392157 
0.0941176 0.501961 0.392157 0.0941176 0.501961 0.392157 
0.0941176 0.501961 0.392157 0.0941176 0.501961 0.392157 
0.0941176 0.501961 0.392157 0.0941176 0.501961 0.392157 
0.0941176 0.501961 0.392157 0.0941176 0.501961 0.392157 
0.0941176 0.501961 0.392157 0.0941176 0.501961 0.392157 
0.0941176 0.501961 0.392157 0.0941176 0.501961 0.392157 
0.0941176 0.501961 0.392157 0.0941176 0.501961 0.392157 
0.0941176 0.501961 0.392157 0.0941176 0.501961 0.392157 
0.0941176 0.501961 0.392157 0.0941176 0.501961 0.392157 
0.0941176 0.501961 0.392157 0.0941176 0.501961 0.392157 
0.0941176 0.501961 0.392157 0.0941176 0.501961 0.392157 
0.0941176 0.501961 0.392157 0.0941176 0.501961 0.392157 
0.0941176 0.501961 0.392157 0.0941176 0.501961 0.392157 
0.0941176 0.501961 0.392157 0.0941176 0.501961 0.392157 
0.0941176 0.501961 0.392157 0.0941176 0.501961 0.392157 
0.0941176 0.501961 0.392157 0.0941176 0.501961 0.392157 
0.0941176 0.501961 0.392157 0.0941176 0.501961 0.392157 
0.0941176 0.501961 0.392157 0.0941176 0.501961 0.392157 
0.0941176 0.501961 0.392157 0.0941176 0.501961 0.392157 
0.0941176 0.501961 0.392157 0.0941176 0.501961 0.392157 
0.0941176 0.501961 0.392157 0.0941176 0.501961 0.392157 
0.0941176 0.501961 0.392157 0.0941176 0.501961 0.392157 
0.0941176 0.501961 0.392157 0.0941176 0.501961 0.392157 
0.0941176 0.501961 0.392157 0.0941176 0.501961 0.392157 
0.0941176 0.501961 0.392157 0.0941176 0.501961 0.392157 
0.0941176 0.501961 0.392157 0.0941176 0.501961 0.392157 
0.0941176 0.501961 0.392157 0.0941176 0.501961 0.392157 
0.0941176 0.501961 0.392157 0.0941176 0.501961 0.392157 
0.0941176 0.501961 0.392157 0.0941176 0.501961 0.392157 
0.0941176 0.501961 0.392157 0.0941176 0.501961 0.392157 
0.0941176 0.501961 0.392157 0.0941176 0.501961 0.392157 
0.0941176 0.501961 0.392157 0.0941176 0.501961 0.392157 
0.0941176 0.501961 0.392157 0.0941176 0.501961 0.392157 
0.0941176 0.501961 0.392157 0.0941176 0.501961 0.392157 
0.0941176 0.501961 0.392157 0.0941176 0.501961 0.392157 
0.0941176 0.501961 0.392157 0.0941176 0.501961 0.392157 
0.0941176 0.501961 0.392157 0.0941176 0.501961 0.392157 
0.0941176 0.501961 0.392157 0.0941176 0.501961 0.392157 
0.0941176 0.501961 0.392157 0.0941176 0.501961 0.392157 
0.0941176 0.501961 0.392157 0.0941176 0.501961 0.392157 
0.0941176 0.501961 0.392157 0.0941176 0.501961 0.392157 
0.0941176 0.501961 0.392157 0.0941176 0.501961 0.392157 
0.0941176 0.501961 0.392157 0.0941176 0.501961 0.392157 
0.0941176 0.501961 0.392157 0.0941176 0.501961 0.392157 
0.0941176 0.501961 0.392157 0.0941176 0.501961 0.392157 
0.0941176 0.501961 0.392157 0.0941176 0.501961 0.392157 
0.0941176 0.501961 0.392157 0.0941176 0.501961 0.392157 
0.0941176 0.501961 0.392157 0.0941176 0.501961 0.392157 
0.0941176 0.501961 0.392157 0.0941176 0.501961 0.392157 
0.0941176 0.501961 0.392157 0.0941176 0.501961 0.392157 
0.0941176 0.501961 0.392157 0.0941176 0.501961 0.392157 
0.0941176 0.501961 0.392157 0.0941176 0.501961 0.392157 
0.0941176 0.501961 0.392157 0.0941176 0.501961 0.392157 
0.0941176 0.501961 0.392157 0.0941176 0.501961 0.392157 
0.0941176 0.501961 0.392157 0.0941176 0.501961 0.392157 
0.0941176 0.501961 0.392157 0.0941176 0.501961 0.392157 
0.0941176 0.501961 0.392157 0.0941176 0.501961 0.392157 
0.0941176 0.501961 0.392157 0.0941176 0.501961 0.392157 
0.0941176 0.501961 0.392157 0.0941176 0.501961 0.392157 
0.0941176 0.501961 0.392157 0.0941176 0.501961 0.392157 
0.0941176 0.501961 0.392157 0.0941176 0.501961 0.392157 
0.0941176 0.501961 0.392157 0.0941176 0.501961 0.392157 
0.0941176 0.501961 0.392157 0.0941176 0.501961 0.392157 
0.0941176 0.501961 0.392157 0.0941176 0.501961 0.392157 
0.0941176 0.501961 0.392157 0.0941176 0.501961 0.392157 
0.0941176 0.501961 0.392157 0.0941176 0.501961 0.392157 
0.0941176 0.501961 0.392157 0.0941176 0.501961 0.392157 
0.0941176 0.501961 0.392157 0.0941176 0.501961 0.392157 
0.0941176 0.501961 0.392157 0.0941176 0.501961 0.392157 
0.0941176 0.501961 0.392157 0.0941176 0.501961 0.392157 
0.0941176 0.501961 0.392157 0.0941176 0.501961 0.392157 
0.0941176 0.501961 0.392157 0.0941176 0.501961 0.392157 
0.0941176 0.501961 0.392157 0.0941176 0.501961 0.392157 
0.0941176 0.501961 0.392157 0.0941176 0.501961 0.392157 
0.0941176 0.501961 0.392157 0.0941176 0.501961 0.392157 
0.0941176 0.501961 0.392157 0.0941176 0.501961 0.392157 
0.0941176 0.501961 0.392157 0.0941176 0.501961 0.392157 
0.0941176 0.501961 0.392157 0.0941176 0.501961 0.392157 
0.0941176 0.501961 0.392157 0.0941176 0.501961 0.392157 
0.0941176 0.501961 0.392157 0.0941176 0.501961 0.392157 
0.0941176 0.501961 0.392157 0.0941176 0.501961 0.392157 
0.0941176 0.501961 0.392157 0.0941176 0.501961 0.392157 
0.0941176 0.501961 0.392157 0.0941176 0.501961 0.392157 
0.0941176 0.501961 0.392157 0.0941176 0.501961 0.392157 
0.0941176 0.501961 0.392157 0.0941176 0.501961 0.392157 
0.0941176 0.501961 0.392157 0.0941176 0.501961 0.392157 
0.0941176 0.501961 0.392157 0.0941176 0.501961 0.392157 
0.0941176 0.501961 0.392157 0.0941176 0.501961 0.392157 
0.0941176 0.501961 0.392157 0.0941176 0.501961 0.392157 
0.0941176 0.501961 0.392157 0.0941176 0.501961 0.392157 
0.0941176 0.501961 0.392157 0.0941176 0.501961 0.392157 
0.0941176 0.501961 0.392157 0.0941176 0.501961 0.392157 
0.0941176 0.501961 0.392157 0.0941176 0.501961 0.392157 
0.0941176 0.501961 0.392157 0.0941176 0.501961 0.392157 
0.0941176 0.501961 0.392157 0.0941176 0.501961 0.392157 
0.0941176 0.501961 0.392157 0.0941176 0.501961 0.392157 
0.0941176 0.501961 0.392157 0.0941176 0.501961 0.392157 
0.0941176 0.501961 0.392157 0.0941176 0.501961 0.392157 
0.0941176 0.501961 0.392157 0.0941176 0.501961 0.392157 
0.0941176 0.501961 0.392157 0.0941176 0.501961 0.392157 
0.0941176 0.501961 0.392157 0.0941176 0.501961 0.392157 
0.0941176 0.501961 0.392157 0.0941176 0.501961 0.392157 
0.0941176 0.501961 0.392157 0.0941176 0.501961 0.392157 
0.0941176 0.501961 0.392157 0.0941176 0.501961 0.392157 
0.0941176 0.501961 0.392157 0.0941176 0.501961 0.392157 
0.0941176 0.501961 0.392157 0.0941176 0.501961 0.392157 
0.0941176 0.501961 0.392157 0.0941176 0.501961 0.392157 
0.0941176 0.501961 0.392157 0.0941176 0.501961 0.392157 
0.0941176 0.501961 0.392157 0.0941176 0.501961 0.392157 
0.0941176 0.501961 0.392157 0.0941176 0.501961 0.392157 
0.0941176 0.501961 0.392157 0.0941176 0.501961 0.392157 
0.0941176 0.501961 0.392157 0.0941176 0.501961 0.392157 
0.0941176 0.501961 0.392157 0.0941176 0.501961 0.392157 
0.0941176 0.501961 0.392157 0.0941176 0.501961 0.392157 
0.0941176 0.501961 0.392157 0.0941176 0.501961 0.392157 
0.0941176 0.501961 0.392157 0.0941176 0.501961 0.392157 
0.0941176 0.501961 0.392157 0.0941176 0.501961 0.392157 
0.0941176 0.501961 0.392157 0.0941176 0.501961 0.392157 
0.0941176 0.501961 0.392157 0.0941176 0.501961 0.392157 
0.0941176 0.501961 0.392157 0.0941176 0.501961 0.392157 
0.0941176 0.501961 0.392157 0.0941176 0.501961 0.392157 
0.0941176 0.501961 0.392157 0.0941176 0.501961 0.392157 
0.0941176 0.501961 0.392157 0.0941176 0.501961 0.392157 
0.0941176 0.501961 0.392157 0.0941176 0.501961 0.392157 
0.0941176 0.501961 0.392157 0.0941176 0.501961 0.392157 
0.0941176 0.501961 0.392157 0.0941176 0.501961 0.392157 
0.0941176 0.501961 0.392157 0.0941176 0.501961 0.392157 
0.0941176 0.501961 0.392157 0.0941176 0.501961 0.392157 
0.0941176 0.501961 0.392157 0.0941176 0.501961 0.392157 
0.0941176 0.501961 0.392157 0.0941176 0.501961 0.392157 
0.0941176 0.501961 0.392157 0.0941176 0.501961 0.392157 
0.0941176 0.501961 0.392157 0.0941176 0.501961 0.392157 
0.0941176 0.501961 0.392157 0.0941176 0.501961 0.392157 
0.0941176 0.501961 0.392157 0.0941176 0.501961 0.392157 
0.0941176 0.501961 0.392157 0.0941176 0.501961 0.392157 
0.0941176 0.501961 0.392157 0.0941176 0.501961 0.392157 
0.0941176 0.501961 0.392157 0.0941176 0.501961 0.392157 
0.0941176 0.501961 0.392157 0.0941176 0.501961 0.392157 
0.0941176 0.501961 0.392157 0.0941176 0.501961 0.392157 
0.0941176 0.501961 0.392157 0.0941176 0.501961 0.392157 
0.0941176 0.501961 0.392157 0.0941176 0.501961 0.392157 
0.0941176 0.501961 0.392157 0.0941176 0.501961 0.392157 
0.0941176 0.501961 0.392157 0.0941176 0.501961 0.392157 
0.0941176 0.501961 0.392157 0.0941176 0.501961 0.392157 
0.0941176 0.501961 0.392157 0.0941176 0.501961 0.392157 
0.0941176 0.501961 0.392157 0.0941176 0.501961 0.392157 
0.0941176 0.501961 0.392157 0.0941176 0.501961 0.392157 
0.0941176 0.501961 0.392157 0.0941176 0.501961 0.392157 
0.0941176 0.501961 0.392157 0.0941176 0.501961 0.392157 
0.0941176 0.501961 0.392157 0.0941176 0.501961 0.392157 
0.0941176 0.501961 0.392157 0.0941176 0.501961 0.392157 
0.0941176 0.501961 0.392157 0.0941176 0.501961 0.392157 
0.0941176 0.501961 0.392157 0.0941176 0.501961 0.392157 
0.0941176 0.501961 0.392157 0.0941176 0.501961 0.392157 
0.0941176 0.501961 0.392157 0.0941176 0.501961 0.392157 
0.0941176 0.501961 0.392157 0.0941176 0.501961 0.392157 
0.0941176 0.501961 0.392157 0.0941176 0.501961 0.392157 
0.0941176 0.501961 0.392157 0.0941176 0.501961 0.392157 
0.0941176 0.501961 0.392157 0.0941176 0.501961 0.392157 
0.0941176 0.501961 0.392157 0.0941176 0.501961 0.392157 
0.0941176 0.501961 0.392157 0.0941176 0.501961 0.392157 
0.0941176 0.501961 0.392157 0.0941176 0.501961 0.392157 
0.0941176 0.501961 0.392157 0.0941176 0.501961 0.392157 
0.0941176 0.501961 0.392157 0.0941176 0.501961 0.392157 
0.0941176 0.501961 0.392157 0.0941176 0.501961 0.392157 
0.0941176 0.501961 0.392157 0.0941176 0.501961 0.392157 
0.0941176 0.501961 0.392157 0.0941176 0.501961 0.392157 
0.0941176 0.501961 0.392157 0.0941176 0.501961 0.392157 
0.0941176 0.501961 0.392157 0.0941176 0.501961 0.392157 
0.0941176 0.501961 0.392157 0.0941176 0.501961 0.392157 
0.0941176 0.501961 0.392157 0.0941176 0.501961 0.392157 
0.0941176 0.501961 0.392157 0.0941176 0.501961 0.392157 
0.0941176 0.501961 0.392157 0.0941176 0.501961 0.392157 
0.0941176 0.501961 0.392157 0.0941176 0.501961 0.392157 
0.0941176 0.501961 0.392157 0.0941176 0.501961 0.392157 
0.0941176 0.501961 0.392157 0.0941176 0.501961 0.392157 
0.0941176 0.501961 0.392157 0.0941176 0.501961 0.392157 
0.0941176 0.501961 0.392157 0.0941176 0.501961 0.392157 
0.0941176 0.501961 0.392157 0.0941176 0.501961 0.392157 
0.0941176 0.501961 0.392157 0.0941176 0.501961 0.392157 
0.0941176 0.501961 0.392157 0.0941176 0.501961 0.392157 
0.0941176 0.501961 0.392157 0.0941176 0.501961 0.392157 
0.0941176 0.501961 0.392157 0.0941176 0.501961 0.392157 
0.0941176 0.501961 0.392157 0.0941176 0.501961 0.392157 
0.0941176 0.501961 0.392157 0.0941176 0.501961 0.392157 
0.0941176 0.501961 0.392157 0.0941176 0.501961 0.392157 
0.0941176 0.501961 0.392157 0.0941176 0.501961 0.392157 
0.0941176 0.501961 0.392157 0.0941176 0.501961 0.392157 
0.0941176 0.501961 0.392157 0.0941176 0.501961 0.392157 
0.0941176 0.501961 0.392157 0.0941176 0.501961 0.392157 
0.0941176 0.501961 0.392157 0.0941176 0.501961 0.392157 
0.0941176 0.501961 0.392157 0.0941176 0.501961 0.392157 
0.0941176 0.501961 0.392157 0.0941176 0.501961 0.392157 
0.0941176 0.501961 0.392157 0.0941176 0.501961 0.392157 
0.0941176 0.501961 0.392157 0.0941176 0.501961 0.392157 
0.0941176 0.501961 0.392157 0.0941176 0.501961 0.392157 
0.0941176 0.501961 0.392157 0.0941176 0.501961 0.392157 
0.0941176 0.501961 0.392157 0.0941176 0.501961 0.392157 
0.0941176 0.501961 0.392157 0.0941176 0.501961 0.392157 
0.0941176 0.501961 0.392157 0.0941176 0.501961 0.392157 
0.0941176 0.501961 0.392157 0.0941176 0.501961 0.392157 
0.0941176 0.501961 0.392157 0.0941176 0.501961 0.392157 
0.0941176 0.501961 0.392157 0.0941176 0.501961 0.392157 
0.0941176 0.501961 0.392157 0.0941176 0.501961 0.392157 
0.0941176 0.501961 0.392157 0.0941176 0.501961 0.392157 
0.0941176 0.501961 0.392157 0.0941176 0.501961 0.392157 
0.0941176 0.501961 0.392157 0.0941176 0.501961 0.392157 
0.0941176 0.501961 0.392157 0.0941176 0.501961 0.392157 
0.0941176 0.501961 0.392157 0.0941176 0.501961 0.392157 
0.0941176 0.501961 0.392157 0.0941176 0.501961 0.392157 
0.0941176 0.501961 0.392157 0.0941176 0.501961 0.392157 
0.0941176 0.501961 0.392157 0.0941176 0.501961 0.392157 
0.0941176 0.501961 0.392157 0.0941176 0.501961 0.392157 
0.0941176 0.501961 0.392157 0.0941176 0.501961 0.392157 
0.0941176 0.501961 0.392157 0.0941176 0.501961 0.392157 
0.0941176 0.501961 0.392157 0.0941176 0.501961 0.392157 
0.0941176 0.501961 0.392157 0.0941176 0.501961 0.392157 
0.0941176 0.501961 0.392157 0.0941176 0.501961 0.392157 
0.0941176 0.501961 0.392157 0.0941176 0.501961 0.392157 
0.0941176 0.501961 0.392157 0.0941176 0.501961 0.392157 
0.0941176 0.501961 0.392157 0.0941176 0.501961 0.392157 
0.0941176 0.501961 0.392157 0.0941176 0.501961 0.392157 
0.0941176 0.501961 0.392157 0.0941176 0.501961 0.392157 
0.0941176 0.501961 0.392157 0.0941176 0.501961 0.392157 
0.0941176 0.501961 0.392157 0.0941176 0.501961 0.392157 
0.0941176 0.501961 0.392157 0.0941176 0.501961 0.392157 
0.0941176 0.501961 0.392157 0.0941176 0.501961 0.392157 
0.0941176 0.501961 0.392157 0.0941176 0.501961 0.392157 
0.0941176 0.501961 0.392157 0.0941176 0.501961 0.392157 
0.0941176 0.501961 0.392157 0.0941176 0.501961 0.392157 
0.0941176 0.501961 0.392157 0.0941176 0.501961 0.392157 
0.0941176 0.501961 0.392157 0.0941176 0.501961 0.392157 