# vtk DataFile Version 4.2
vtk output
ASCII
DATASET POLYDATA
POINTS 439 float
336.631 142.84 36.0856 336.175 144.066 35.4696 338.34 142.902 35.6396 
333.555 145.091 36.3485 334.583 144.957 35.7209 336.593 144.533 35.2172 
338.083 144.308 35.1508 340.062 145.678 35.1595 334.289 148.397 35.7993 
335.778 148.381 35.2785 340.768 139.868 37.4268 342.28 139.463 37.4585 
340.938 141.101 36.5404 342.848 139.749 37.5456 340.002 141.91 36.156 
342.068 141.296 36.6441 343.064 140.356 37.4179 341.263 142.386 36.1082 
343.139 141.548 37.138 333.844 144.063 36.9029 341.915 143.102 36.1411 
343.288 143.486 36.8765 343.724 142.934 37.4616 333.153 146.125 36.509 
344.043 145.808 36.9447 337.378 149.076 35.1787 333.943 150.012 36.325 
335.449 150.034 35.6349 342.19 149.512 35.7009 344.564 149.552 36.7092 
333.259 150.967 37.03 333.755 151.75 36.7411 334.38 151.742 36.367 
333.786 153.318 37.0515 342.556 138.744 38.1252 342.491 138.57 38.3469 
342.334 138.692 38.1618 342.673 138.6 38.4027 342.661 139.002 37.9401 
340.635 139.493 38.0034 342.976 139.259 38.0014 343.629 140.646 37.9889 
335.25 142.659 37.2165 344.482 144.265 38.2141 344.445 145.012 37.7317 
332.728 146.7 37.1199 345.633 149.153 38.0789 343.628 151.949 36.7307 
345.953 151.489 37.7811 332.83 153.098 37.9495 345.819 151.769 37.9043 
345.933 151.583 37.8089 342.948 153.751 37.5179 335.781 156.329 37.2864 
339.962 155.771 37.8765 341.495 155.124 38.0182 333.822 157.094 38.2369 
338.016 156.737 37.9658 334.168 157.494 38.2343 333.875 157.935 38.7461 
334.093 158.199 38.9464 334.689 158.082 38.5658 334.443 158.243 38.8044 
343.348 139.383 38.3481 343.514 139.764 38.2674 343.721 140.071 38.5675 
335.534 142.12 37.991 344.125 141.663 38.7122 332.52 148.654 37.6339 
345.94 149.423 38.8378 346.16 150.989 38.4519 345.807 152.171 38.5737 
346.029 151.855 38.7552 343.747 153.989 38.3288 333.954 158.331 39.5087 
343.099 138.617 39.1204 341.831 138.511 39.0682 343.329 138.827 39.0734 
343.463 139.158 38.8673 340.044 139.44 38.8064 343.71 139.512 39.2435 
332.607 144.781 39.4097 345.29 146.386 39.4251 331.982 150.8 38.8033 
346.2 150.483 38.9753 346.168 151.518 38.9389 343.517 154.553 39.2045 
333.592 158.097 39.4848 333.965 158.451 40.2232 335.413 158.648 39.9115 
343.304 138.683 39.4385 341.934 138.431 39.579 344.815 143.643 40.7699 
332.049 146.149 39.8431 345.828 148.679 40.0822 346.13 150.735 39.9611 
344.043 154.385 40.498 342.506 138.303 40.3134 342.761 138.328 40.5521 
333.677 143.322 41.3009 341.171 156.386 41.4096 336.57 158.548 40.817 
333.952 158.442 41.7705 334.893 158.783 41.018 343.232 138.609 41.2119 
343.563 138.948 41.342 342.506 138.44 41.5846 343.39 154.882 41.6924 
343.836 154.394 42.1771 332.531 156.683 41.8554 334.405 158.642 42.1505 
331.736 145.969 42.9681 345.652 150.595 41.953 344.731 153.371 42.2152 
332.059 155.522 42.8678 333.121 157.63 42.3151 336.451 158.528 42.4504 
335.271 158.653 42.996 343.343 138.914 42.4593 343.028 138.722 42.452 
342.709 138.859 43.1339 340.776 139.189 43.2335 343.914 140.283 43.0878 
344.149 141.731 43.4688 334.404 143.135 43.9304 331.301 147.34 43.7293 
344.581 148.821 43.9997 331.167 150.736 44.116 331.284 151.583 44.24 
344.931 152.555 42.9535 331.69 153.929 43.7023 332.424 156.144 43.4329 
341.959 155.556 43.1484 333.417 157.555 43.4772 334.331 158.253 43.7202 
335.11 158.451 43.6916 334.454 158.482 43.3365 343.157 138.955 42.917 
342.203 138.99 43.6849 341.171 139.288 44.0442 343.865 144.926 44.7482 
331.693 152.441 44.9126 331.941 153.301 44.8904 343.573 153.515 44.1008 
342.069 154.78 44.2914 332.888 156.431 44.168 339.409 156.159 44.5941 
334.234 157.858 44.2379 334.668 158.444 43.6311 343.145 139.609 44.1374 
343.341 140.06 44.3259 343.189 143.236 45.5718 333.579 144.361 45.6341 
331.526 146.949 44.9355 331.441 149.086 45.3501 343.655 148.304 45.1693 
344.4 150.405 44.3593 332.306 153.441 45.3502 342.6 153.605 44.8775 
333.267 156.755 44.3586 340.535 155.236 44.8264 334.13 157.323 44.6741 
334.434 157.707 44.6345 336.213 157.49 44.7589 342.473 139.534 44.7686 
341.875 139.936 45.6127 342.749 141.032 45.752 339.437 141.128 46.0866 
338.76 141.349 45.8149 333.16 144.704 45.7114 333.503 144.637 46.0276 
340.671 144.923 46.9212 341.29 144.706 46.7604 342.356 144.993 46.2315 
338.87 146.009 47.1198 342.433 146.551 46.0927 332.011 150.993 45.929 
332.812 152.278 46.2219 341.481 151.432 46.1071 334.027 153.393 46.3612 
341.791 152.817 45.6534 334.443 154.95 45.97 333.574 155.869 45.2061 
335.814 155.506 45.9382 334.983 157.112 45.1343 334.696 157.787 44.7043 
341.813 140.232 46.0051 341.059 140.447 46.1444 341.225 141.883 46.8515 
340.112 142.241 46.9533 337.194 143.616 46.6966 341.64 143.136 46.7341 
342.221 142.951 46.4412 334.085 144.875 46.6187 334.938 145.17 46.9919 
339.142 144.132 47.0761 332.416 145.88 46.2729 332.723 145.722 46.4506 
335.189 145.842 47.1787 334.382 146.067 47.1846 332.27 146.593 46.4649 
333.288 147.209 47.1145 332.712 147.981 46.9315 341.435 141.098 46.5786 
341.915 140.86 46.3508 339.359 141.811 46.6472 338.926 142.265 46.725 
333.097 145.903 46.7423 332.662 146.578 46.7396 332.351 148.01 46.7256 
341.681 140.347 408.621 341.326 140.252 408.696 342.066 140.207 408.772 
342.21 139.957 409.034 340.909 140.36 408.738 340.563 140.772 408.544 
341.581 140.879 408.386 342.009 140.577 408.604 339.125 141.556 408.576 
340.371 141.403 408.282 341.121 141.318 408.23 341.566 141.333 408.27 
342.292 140.783 408.723 338.638 142.232 408.398 336.368 143.537 408.367 
336.243 143.369 408.594 338.831 142.71 408.178 333.997 144.585 408.527 
334.687 145.008 408.027 336.425 143.796 408.252 333.104 145.11 408.562 
332.252 146.17 408.448 332.211 146.48 408.381 332.912 145.983 408.133 
332.519 145.828 408.398 332.374 146.692 408.222 333.397 146.798 407.83 
332.42 147.145 408.214 332.114 147.601 408.571 342.036 139.66 409.328 
342.745 140.163 409.393 339.844 140.676 409.049 335.62 143.324 409.042 
336.969 142.898 408.758 334.169 144.104 409.034 333.56 144.615 408.759 
332.436 145.576 408.677 337.861 145.114 407.835 332.224 145.906 408.695 
333.765 148.149 407.835 332.495 148.425 408.392 332.015 151.3 409.548 
333.261 151.049 408.503 332.569 151.532 409.049 342.728 139.368 410.072 
340.702 139.817 409.706 343.061 140.332 409.739 333.199 144.443 409.47 
332.05 145.959 409.147 343.021 145.96 409.524 334.766 152.338 408.345 
333.876 153.049 408.743 343.818 151.262 410.124 336.848 153.8 408.57 
343.835 152.833 410.646 332.732 155.02 410.166 341.683 154.447 410.067 
334.78 156.18 409.618 336.333 156.009 409.4 334.107 157.403 410.681 
334.487 157.574 410.606 334.888 157.46 410.384 336.15 157.375 410.274 
335.866 157.668 410.509 343.095 139.374 410.511 342.821 138.942 410.814 
343.211 139.017 411.123 340.154 139.983 410.02 337.88 141.204 410.462 
332.564 144.856 410.193 331.308 148.981 410.348 331.961 153.945 410.716 
343.614 153.797 411.214 332.394 155.394 410.933 339.309 156.317 410.6 
334.079 158.014 411.657 343.072 138.747 411.296 343.056 138.597 411.626 
342.886 138.652 411.37 342.015 138.87 411.014 343.648 139.565 411.578 
344.065 141.664 411.585 331.971 145.506 411.244 331.468 146.88 410.51 
331.17 150.102 411.169 345.284 151.937 412.321 333.241 157.065 411.442 
337.712 157.67 411.464 334.75 158.503 411.977 335.907 158.298 411.625 
334.524 158.547 412.255 343.358 138.774 412.183 334.388 142.982 411.629 
331.572 153.822 411.88 333.778 158.157 412.671 334.06 158.434 413.045 
343.436 138.829 412.882 345.423 148.813 413.141 345.603 150.823 412.853 
345.56 152.261 413.718 344.456 153.922 413.307 334.451 158.68 413.466 
342.829 138.393 413.126 342.523 138.346 413.449 342.059 138.435 413.464 
343.797 139.426 413.692 331.236 151.441 413.352 345.347 152.995 414.5 
344.487 154.015 414.109 342.237 155.728 413.494 334.893 158.813 413.886 
335.369 158.824 414.33 342.756 138.378 413.702 341.913 138.461 414.375 
344.457 142.397 414.691 346.099 151.454 415.358 346.13 151.558 415.791 
343.902 154.477 415.149 333.335 157.696 414.791 337.676 158.068 414.77 
341.986 138.533 415.543 343.453 139.098 415.173 338.254 140.405 415.805 
332.544 144.703 415.729 331.752 148.542 415.93 345.777 148.645 415.127 
346.045 150.236 415.948 346.161 150.815 415.899 345.909 152.153 416.33 
332.252 155.062 415.217 334.112 158.522 415.84 334.798 158.768 415.343 
342.941 138.875 416.138 342.091 138.641 416.096 343.179 139.267 416.191 
333.244 143.884 416.304 334.265 142.967 416.544 332.793 144.397 416.151 
344.61 144.809 416.67 345.101 146.373 416.249 345.56 148.018 416.099 
332.32 148.934 417.234 346.074 151.251 416.756 345.999 151.784 416.895 
332.825 154.899 416.459 333.634 157.261 416.676 333.624 157.885 416.079 
336.156 158.327 415.971 333.811 158.113 416.275 334.715 158.664 415.934 
335.029 158.511 416.279 334.35 158.574 416.105 342.707 138.77 416.302 
342.458 138.666 416.204 342.894 139.959 417.154 343.606 140.556 416.537 
337.042 141.525 417.231 335.243 142.537 417.326 333.156 144.522 417.489 
344.874 146.444 417.055 345.365 147.948 416.817 345.694 150.121 417.187 
345.968 151.36 417.162 346.021 151.639 417.188 346.032 151.743 417.159 
346.001 151.698 417.252 345.562 152.451 416.814 345.897 151.806 417.213 
333.051 153.958 417.135 343.071 154.48 416.676 343.286 154.109 416.975 
333.695 156.1 417.13 337.675 157.247 416.699 333.965 157.861 416.816 
333.962 158.114 416.584 334.177 158.29 416.606 334.855 158.319 416.642 
342.487 138.87 416.581 342.563 139.152 416.837 340.829 140.066 417.687 
342.199 139.862 417.562 342.533 139.999 417.491 342.781 140.48 417.533 
338.036 141.631 418.146 343.497 141.216 417.119 332.837 145.8 417.985 
344.014 145.121 417.869 332.666 146.369 417.963 332.87 147.542 418.215 
344.693 147.268 417.763 333.061 148.348 418.33 344.535 150.09 418.294 
342.98 150.991 418.815 344.626 150.88 418.155 345.667 151.033 417.5 
345.841 151.558 417.358 344.135 152.238 417.95 345.485 151.876 417.423 
334.442 154.714 418.108 335.712 155.438 418.239 343.124 153.655 417.481 
334.202 156.492 417.427 334.78 156.185 417.772 336.896 155.703 418.116 
[...]
POINT_DATA 439
COLOR_SCALARS scalars 3
0.0823529 0.690196 0.701961 0.0823529 0.690196 0.701961 0.0823529 0.690196 0.701961 
0.0823529 0.690196 0.701961 0.0823529 0.690196 0.701961 
0.0823529 0.690196 0.701961 0.0823529 0.690196 0.701961 
0.0823529 0.690196 0.701961 0.0823529 0.690196 0.701961 
0.0823529 0.690196 0.701961 0.0823529 0.690196 0.701961 
0.0823529 0.690196 0.701961 0.0823529 0.690196 0.701961 
0.0823529 0.690196 0.701961 0.0823529 0.690196 0.701961 
0.0823529 0.690196 0.701961 0.0823529 0.690196 0.701961 
0.0823529 0.690196 0.701961 0.0823529 0.690196 0.701961 
0.0823529 0.690196 0.701961 0.0823529 0.690196 0.701961 
0.0823529 0.690196 0.701961 0.0823529 0.690196 0.701961 
0.0823529 0.690196 0.701961 0.0823529 0.690196 0.701961 
0.0823529 0.690196 0.701961 0.0823529 0.690196 0.701961 
0.0823529 0.690196 0.701961 0.0823529 0.690196 0.701961 
0.0823529 0.690196 0.701961 0.0823529 0.690196 0.701961 
0.0823529 0.690196 0.701961 0.0823529 0.690196 0.701961 
0.0823529 0.690196 0.701961 0.0823529 0.690196 0.701961 
0.0823529 0.690196 0.701961 0.0823529 0.690196 0.701961 
0.0823529 0.690196 0.701961 0.0823529 0.690196 0.701961 
0.0823529 0.690196 0.701961 0.0823529 0.690196 0.701961 
0.0823529 0.690196 0.701961 0.0823529 0.690196 0.701961 
0.0823529 0.690196 0.701961 0.0823529 0.690196 0.701961 
0.0823529 0.690196 0.701961 0.0823529 0.690196 0.701961 
0.0823529 0.690196 0.701961 0.0823529 0.690196 0.701961 
0.0823529 0.690196 0.701961 0.0823529 0.690196 0.701961 
0.0823529 0.690196 0.701961 0.0823529 0.690196 0.701961 
0.0823529 0.690196 0.701961 0.0823529 0.690196 0.701961 
0.0823529 0.690196 0.701961 0.0823529 0.690196 0.701961 
0.0823529 0.690196 0.701961 0.0823529 0.690196 0.701961 
0.0823529 0.690196 0.701961 0.0823529 0.690196 0.701961 
0.0823529 0.690196 0.701961 0.0823529 0.690196 0.701961 
0.0823529 0.690196 0.701961 0.0823529 0.690196 0.701961 
0.0823529 0.690196 0.701961 0.0823529 0.690196 0.701961 
0.0823529 0.690196 0.701961 0.0823529 0.690196 0.701961 
0.0823529 0.690196 0.701961 0.0823529 0.690196 0.701961 
0.0823529 0.690196 0.701961 0.0823529 0.690196 0.701961 
0.0823529 0.690196 0.701961 0.0823529 0.690196 0.701961 
0.0823529 0.690196 0.701961 0.0823529 0.690196 0.701961 
0.0823529 0.690196 0.701961 0.0823529 0.690196 0.701961 
0.0823529 0.690196 0.701961 0.0823529 0.690196 0.701961 
0.0823529 0.690196 0.701961 0.0823529 0.690196 0.701961 
0.0823529 0.690196 0.701961 0.0823529 0.690196 0.701961 
0.0823529 0.690196 0.701961 0.0823529 0.690196 0.701961 
0.0823529 0.690196 0.701961 0.0823529 0.690196 0.701961 
0.0823529 0.690196 0.701961 0.0823529 0.690196 0.701961 
0.0823529 0.690196 0.701961 0.0823529 0.690196 0.701961 
0.0823529 0.690196 0.701961 0.0823529 0.690196 0.701961 
0.0823529 0.690196 0.701961 0.0823529 0.690196 0.701961 
0.0823529 0.690196 0.701961 0.0823529 0.690196 0.701961 
0.0823529 0.690196 0.701961 0.0823529 0.690196 0.701961 
0.0823529 0.690196 0.701961 0.0823529 0.690196 0.701961 
0.0823529 0.690196 0.701961 0.0823529 0.690196 0.701961 
0.0823529 0.690196 0.701961 0.0823529 0.690196 0.701961 
0.0823529 0.690196 0.701961 0.0823529 0.690196 0.701961 
0.0823529 0.690196 0.701961 0.0823529 0.690196 0.701961 
0.0823529 0.690196 0.701961 0.0823529 0.690196 0.701961 
0.0823529 0.690196 0.701961 0.0823529 0.690196 0.701961 
0.0823529 0.690196 0.701961 0.0823529 0.690196 0.701961 
0.0823529 0.690196 0.701961 0.0823529 0.690196 0.701961 
0.0823529 0.690196 0.701961 0.0823529 0.690196 0.701961 
0.0823529 0.690196 0.701961 0.0823529 0.690196 0.701961 
0.0823529 0.690196 0.701961 0.0823529 0.690196 0.701961 
0.0823529 0.690196 0.701961 0.0823529 0.690196 0.701961 
0.0823529 0.690196 0.701961 0.0823529 0.690196 0.701961 
0.0823529 0.690196 0.701961 0.0823529 0.690196 0.701961 
0.0823529 0.690196 0.701961 0.0823529 0.690196 0.701961 
0.0823529 0.690196 0.701961 0.0823529 0.690196 0.701961 
0.0823529 0.690196 0.701961 0.0823529 0.690196 0.701961 
0.0823529 0.690196 0.701961 0.0823529 0.690196 0.701961 
0.0823529 0.690196 0.701961 0.0823529 0.690196 0.701961 
0.0823529 0.690196 0.701961 0.0823529 0.690196 0.701961 
0.0823529 0.690196 0.701961 0.0823529 0.690196 0.701961 
0.0823529 0.690196 0.701961 0.0823529 0.690196 0.701961 
0.0823529 0.690196 0.701961 0.0823529 0.690196 0.701961 
0.0823529 0.690196 0.701961 0.0823529 0.690196 0.701961 
0.0823529 0.690196 0.701961 0.0823529 0.690196 0.701961 
0.0823529 0.690196 0.701961 0.0823529 0.690196 0.701961 
0.0823529 0.690196 0.701961 0.0823529 0.690196 0.701961 
0.0823529 0.690196 0.701961 0.0823529 0.690196 0.701961 
0.0823529 0.690196 0.701961 0.0823529 0.690196 0.701961 
0.0823529 0.690196 0.701961 0.0823529 0.690196 0.701961 
0.0823529 0.690196 0.701961 0.0823529 0.690196 0.701961 
0.0823529 0.690196 0.701961 0.0823529 0.690196 0.701961 
0.0823529 0.690196 0.701961 0.0823529 0.690196 0.701961 
0.0823529 0.690196 0.701961 0.0823529 0.690196 0.701961 
0.0823529 0.690196 0.701961 0.0823529 0.690196 0.701961 
0.0823529 0.690196 0.701961 0.0823529 0.690196 0.701961 
0.0823529 0.690196 0.701961 0.0823529 0.690196 0.701961 
0.0823529 0.690196 0.701961 0.0823529 0.690196 0.701961 
0.0823529 0.690196 0.701961 0.0823529 0.690196 0.701961 
0.0823529 0.690196 0.701961 0.0823529 0.690196 0.701961 
0.0823529 0.690196 0.701961 0.0823529 0.690196 0.701961 
0.0823529 0.690196 0.701961 0.0823529 0.690196 0.701961 
0.0823529 0.690196 0.701961 0.0823529 0.690196 0.701961 
0.0823529 0.690196 0.701961 0.0823529 0.690196 0.701961 
0.0823529 0.690196 0.701961 0.0823529 0.690196 0.701961 
0.0823529 0.690196 0.701961 0.0823529 0.690196 0.701961 
0.0823529 0.690196 0.701961 0.0823529 0.690196 0.701961 
0.0823529 0.690196 0.701961 0.0823529 0.690196 0.701961 
0.0823529 0.690196 0.701961 0.0823529 0.690196 0.701961 
0.0823529 0.690196 0.701961 0.0823529 0.690196 0.701961 
0.0823529 0.690196 0.701961 0.0823529 0.690196 0.701961 
0.0823529 0.690196 0.701961 0.0823529 0.690196 0.701961 
0.0823529 0.690196 0.701961 0.0823529 0.690196 0.701961 
0.0823529 0.690196 0.701961 0.0823529 0.690196 0.701961 
0.0823529 0.690196 0.701961 0.0823529 0.690196 0.701961 
0.0823529 0.690196 0.701961 0.0823529 0.690196 0.701961 
0.0823529 0.690196 0.701961 0.0823529 0.690196 0.701961 
0.0823529 0.690196 0.701961 0.0823529 0.690196 0.701961 
0.0823529 0.690196 0.701961 0.0823529 0.690196 0.701961 
0.0823529 0.690196 0.701961 0.0823529 0.690196 0.701961 
0.0823529 0.690196 0.701961 0.0823529 0.690196 0.701961 
0.0823529 0.690196 0.701961 0.0823529 0.690196 0.701961 
0.0823529 0.690196 0.701961 0.0823529 0.690196 0.701961 
0.0823529 0.690196 0.701961 0.0823529 0.690196 0.701961 
0.0823529 0.690196 0.701961 0.0823529 0.690196 0.701961 
0.0823529 0.690196 0.701961 0.0823529 0.690196 0.701961 
0.0823529 0.690196 0.701961 0.0823529 0.690196 0.701961 
0.0823529 0.690196 0.701961 0.0823529 0.690196 0.701961 
0.0823529 0.690196 0.701961 0.0823529 0.690196 0.701961 
0.0823529 0.690196 0.701961 0.0823529 0.690196 0.701961 
0.0823529 0.690196 0.701961 0.0823529 0.690196 0.701961 
0.0823529 0.690196 0.701961 0.0823529 0.690196 0.701961 
0.0823529 0.690196 0.701961 0.0823529 0.690196 0.701961 
0.0823529 0.690196 0.701961 0.0823529 0.690196 0.701961 
0.0823529 0.690196 0.701961 0.0823529 0.690196 0.701961 
0.0823529 0.690196 0.701961 0.0823529 0.690196 0.701961 
0.0823529 0.690196 0.701961 0.0823529 0.690196 0.701961 
0.0823529 0.690196 0.701961 0.0823529 0.690196 0.701961 
0.0823529 0.690196 0.701961 0.0823529 0.690196 0.701961 
0.0823529 0.690196 0.701961 0.0823529 0.690196 0.701961 
0.0823529 0.690196 0.701961 0.0823529 0.690196 0.701961 
0.0823529 0.690196 0.701961 0.0823529 0.690196 0.701961 
0.0823529 0.690196 0.701961 0.0823529 0.690196 0.701961 
0.0823529 0.690196 0.701961 0.0823529 0.690196 0.701961 
0.0823529 0.690196 0.701961 0.0823529 0.690196 0.701961 
0.0823529 0.690196 0.701961 0.0823529 0.690196 0.701961 
0.0823529 0.690196 0.701961 0.0823529 0.690196 0.701961 
0.0823529 0.690196 0.701961 0.0823529 0.690196 0.701961 
0.0823529 0.690196 0.701961 0.0823529 0.690196 0.701961 
0.0823529 0.690196 0.701961 0.0823529 0.690196 0.701961 
0.0823529 0.690196 0.701961 0.0823529 0.690196 0.701961 
0.0823529 0.690196 0.701961 0.0823529 0.690196 0.701961 
0.0823529 0.690196 0.701961 0.0823529 0.690196 0.701961 
0.0823529 0.690196 0.701961 0.0823529 0.690196 0.701961 
0.0823529 0.690196 0.701961 0.0823529 0.690196 0.701961 
0.0823529 0.690196 0.701961 0.0823529 0.690196 0.701961 
0.0823529 0.690196 0.701961 0.0823529 0.690196 0.701961 
0.0823529 0.690196 0.701961 0.0823529 0.690196 0.701961 
0.0823529 0.690196 0.701961 0.0823529 0.690196 0.701961 
0.0823529 0.690196 0.701961 0.0823529 0.690196 0.701961 
0.0823529 0.690196 0.701961 0.0823529 0.690196 0.701961 
0.0823529 0.690196 0.701961 0.0823529 0.690196 0.701961 
0.0823529 0.690196 0.701961 0.0823529 0.690196 0.701961 
0.0823529 0.690196 0.701961 0.0823529 0.690196 0.701961 
0.0823529 0.690196 0.701961 0.0823529 0.690196 0.701961 
0.0823529 0.690196 0.701961 0.0823529 0.690196 0.701961 
0.0823529 0.690196 0.701961 0.0823529 0.690196 0.701961 
0.0823529 0.690196 0.701961 0.0823529 0.690196 0.701961 
0.0823529 0.690196 0.701961 0.0823529 0.690196 0.701961 
0.0823529 0.690196 0.701961 0.0823529 0.690196 0.701961 
0.0823529 0.690196 0.701961 0.0823529 0.690196 0.701961 
0.0823529 0.690196 0.701961 0.0823529 0.690196 0.701961 
0.0823529 0.690196 0.701961 0.0823529 0.690196 0.701961 
0.0823529 0.690196 0.701961 0.0823529 0.690196 0.701961 
0.0823529 0.690196 0.701961 0.0823529 0.690196 0.701961 
0.0823529 0.690196 0.701961 0.0823529 0.690196 0.701961 
0.0823529 0.690196 0.701961 0.0823529 0.690196 0.701961 
0.0823529 0.690196 0.701961 0.0823529 0.690196 0.701961 
0.0823529 0.690196 0.701961 0.0823529 0.690196 0.701961 
0.0823529 0.690196 0.701961 0.0823529 0.690196 0.701961 
0.0823529 0.690196 0.701961 0.0823529 0.690196 0.701961 
0.0823529 0.690196 0.701961 0.0823529 0.690196 0.701961 
0.0823529 0.690196 0.701961 0.0823529 0.690196 0.701961 
0.0823529 0.690196 0.701961 0.0823529 0.690196 0.701961 
0.0823529 0.690196 0.701961 0.0823529 0.690196 0.701961 
0.0823529 0.690196 0.701961 0.0823529 0.690196 0.701961 
0.0823529 0.690196 0.701961 0.0823529 0.690196 0.701961 
0.0823529 0.690196 0.701961 0.0823529 0.690196 0.701961 
0.0823529 0.690196 0.701961 0.0823529 0.690196 0.701961 
0.0823529 0.690196 0.701961 0.0823529 0.690196 0.701961 
0.0823529 0.690196 0.701961 0.0823529 0.690196 0.701961 
0.0823529 0.690196 0.701961 0.0823529 0.690196 0.701961 
0.0823529 0.690196 0.701961 0.0823529 0.690196 0.701961 
0.0823529 0.690196 0.701961 0.0823529 0.690196 0.701961 
0.0823529 0.690196 0.701961 0.0823529 0.690196 0.701961 
0.0823529 0.690196 0.701961 0.0823529 0.690196 0.701961 
0.0823529 0.690196 0.701961 0.0823529 0.690196 0.701961 
0.0823529 0.690196 0.701961 0.0823529 0.690196 0.701961 
0.0823529 0.690196 0.701961 0.0823529 0.690196 0.701961 
0.0823529 0.690196 0.701961 0.0823529 0.690196 0.701961 
0.0823529 0.690196 0.701961 0.0823529 0.690196 0.701961 
0.0823529 0.690196 0.701961 0.0823529 0.690196 0.701961 
0.0823529 0.690196 0.701961 0.0823529 0.690196 0.701961 
0.0823529 0.690196 0.701961 0.0823529 0.690196 0.701961 
0.0823529 0.690196 0.701961 0.0823529 0.690196 0.701961 
0.0823529 0.690196 0.701961 0.0823529 0.690196 0.701961 
0.0823529 0.690196 0.701961 0.0823529 0.690196 0.701961 
0.0823529 0.690196 0.701961 0.0823529 0.690196 0.701961 
0.0823529 0.690196 0.701961 0.0823529 0.690196 0.701961 
0.0823529 0.690196 0.701961 0.0823529 0.690196 0.701961 
0.0823529 0.690196 0.701961 0.0823529 0.690196 0.701961 
0.0823529 0.690196 0.701961 0.0823529 0.690196 0.701961 
0.0823529 0.690196 0.701961 0.0823529 0.690196 0.701961 
0.0823529 0.690196 0.701961 0.0823529 0.690196 0.701961 
0.0823529 0.690196 0.701961 0.0823529 0.690196 0.701961 
0.0823529 0.690196 0.701961 0.0823529 0.690196 0.701961 
0.0823529 0.690196 0.701961 0.0823529 0.690196 0.701961 
0.0823529 0.690196 0.701961 0.0823529 0.690196 0.701961 
0.0823529 0.690196 0.701961 0.0823529 0.690196 0.701961 
0.0823529 0.690196 0.701961 0.0823529 0.690196 0.701961 
0.0823529 0.690196 0.701961 0.0823529 0.690196 0.701961 
0.0823529 0.690196 0.701961 0.0823529 0.690196 0.701961 
0.0823529 0.690196 0.701961 0.0823529 0.690196 0.701961 
0.0823529 0.690196 0.701961 0.0823529 0.690196 0.701961 
0.0823529 0.690196 0.701961 0.0823529 0.690196 0.701961 
0.0823529 0.690196 0.701961 0.0823529 0.690196 0.701961 
0.0823529 0.690196 0.701961 0.0823529 0.690196 0.701961 
0.0823529 0.690196 0.701961 0.0823529 0.690196 0.701961 

NORMALS Normals float
-0.274269 -0.6262 -0.729829 -0.341609 -0.490549 -0.801664 -0.0250344 -0.420694 -0.906857 
-0.699307 -0.279232 -0.658027 -0.412129 -0.28333 -0.865953 -0.121416 -0.114791 -0.985942 
-0.0424696 -0.269223 -0.962141 0.237133 -0.0990686 -0.966413 -0.446302 0.0988258 -0.889409 
-0.233823 0.163635 -0.95841 -0.269998 -0.651752 -0.708746 0.225553 -0.464262 -0.856497 
0.0266641 -0.601944 -0.798093 0.526772 -0.419744 -0.739138 0.0150185 -0.317157 -0.948254 
0.318738 -0.621745 -0.71543 0.622306 -0.280272 -0.730879 0.19718 -0.20019 -0.95971 
0.572371 -0.306787 -0.760442 -0.640648 -0.627759 -0.442143 0.350173 -0.152419 -0.924201 
0.609705 -0.167847 -0.774653 0.728077 -0.199149 -0.655929 -0.794423 -0.0964469 -0.599658 
0.614129 -0.216957 -0.758798 -0.0249046 0.27638 -0.960726 -0.627519 0.101877 -0.771907 
-0.27164 0.192416 -0.942968 0.181082 0.119048 -0.976236 0.540089 0.0119457 -0.841523 
-0.692121 0.0870697 -0.716511 -0.655463 0.191736 -0.730484 -0.406907 0.226769 -0.884874 
-0.397379 0.254461 -0.881669 0.242688 -0.722723 -0.647127 -0.00656688 -0.977412 -0.211239 
-0.175732 -0.770652 -0.612547 0.518071 -0.731379 -0.443495 0.366883 -0.599344 -0.711466 
-0.455067 -0.747771 -0.483479 0.601236 -0.530271 -0.597769 0.932987 -0.0680574 -0.353416 
-0.479457 -0.686364 -0.546832 0.890721 -0.211805 -0.402188 0.849099 -0.218818 -0.480781 
-0.924607 -0.110325 -0.364597 0.848822 -0.272649 -0.452951 0.334436 0.372582 -0.865642 
0.59975 0.127941 -0.789893 -0.802261 0.214902 -0.556951 0.357423 0.501568 -0.787831 
0.781827 0.43673 -0.444987 0.284085 0.566896 -0.773256 -0.0634395 0.4008 -0.913967 
0.347156 0.749744 -0.563353 0.405453 0.833982 -0.374276 -0.653636 0.320588 -0.685553 
0.210426 0.645546 -0.73416 -0.235171 0.495055 -0.83643 -0.647171 0.517947 -0.559375 
-0.411936 0.819556 -0.398291 -0.0545497 0.714701 -0.6973 -0.0771335 0.884304 -0.460497 
0.813941 -0.446615 -0.371531 0.780914 -0.349281 -0.517858 0.956465 -0.164248 -0.241241 
-0.523757 -0.803668 -0.282482 0.939225 -0.17865 -0.293157 -0.900039 -0.000797612 -0.435808 
0.937234 -0.294511 -0.186696 0.983385 0.056496 -0.172517 0.720191 0.69306 -0.0314909 
0.888252 0.45239 0.0796951 0.563401 0.678925 -0.470787 -0.422212 0.894958 -0.144179 
0.331023 -0.914473 -0.232728 -0.223012 -0.950646 -0.215726 0.684436 -0.626106 -0.37355 
0.75042 -0.543887 -0.375576 -0.485527 -0.86132 -0.149637 0.970149 -0.224428 -0.0918845 
-0.906558 -0.363153 -0.215109 0.926357 -0.329509 -0.182446 -0.890317 0.0912433 -0.446105 
0.985894 -0.133422 -0.101051 0.899953 0.382936 0.208433 0.457559 0.832561 -0.31222 
-0.70057 0.676358 -0.227468 -0.483215 0.870322 -0.0950925 0.0979853 0.957577 -0.271008 
0.630113 -0.77606 -0.0262512 -0.102329 -0.983777 -0.147346 0.97201 -0.211576 -0.102134 
-0.945707 -0.293193 -0.140272 0.96707 -0.241503 0.0803191 0.99171 0.0190181 0.127081 
0.594678 0.796979 -0.105748 -0.129566 -0.991338 -0.0214797 0.349838 -0.928543 -0.124184 
-0.721122 -0.691699 0.0391887 0.492011 0.870432 -0.0164913 0.361078 0.921448 -0.143376 
-0.58888 0.808195 -0.00632972 -0.0987961 0.994821 -0.0238969 0.539276 -0.840029 0.0594298 
0.907743 -0.419304 -0.013668 0.0230569 -0.9901 0.138454 0.598958 0.795715 0.0899297 
0.669112 0.701085 0.246511 -0.918736 0.369927 -0.13812 -0.398371 0.90932 0.120158 
-0.886121 -0.462697 0.0264649 0.950168 0.0452812 0.308434 0.76379 0.608387 0.215616 
-0.928004 0.37056 -0.0386503 -0.729672 0.672958 0.121269 0.230359 0.960581 0.155624 
0.01842 0.986491 0.162774 0.643405 -0.742168 0.18766 0.284798 -0.935518 0.209034 
0.241842 -0.897412 0.369005 -0.401823 -0.88646 0.229623 0.899735 -0.374441 0.224209 
0.95123 -0.15559 0.266369 -0.601851 -0.780072 0.171067 -0.992496 -0.120239 -0.0222228 
0.895388 -0.109471 0.431621 -0.997998 0.045818 0.0436003 -0.973762 0.162057 0.159766 
0.877575 0.256301 0.405181 -0.955843 0.268917 0.118525 -0.839693 0.482504 0.249211 
0.451449 0.852718 0.262805 -0.736669 0.624958 0.258353 -0.672504 0.681843 0.287799 
0.168231 0.906435 0.387394 -0.304291 0.926461 0.221535 0.581302 -0.722081 0.375083 
0.0297179 -0.941482 0.335751 -0.249876 -0.884896 0.393091 0.842254 -0.0241135 0.538541 
-0.83835 0.229347 0.494539 -0.845977 0.27867 0.454605 0.668 0.414714 0.617891 
0.534122 0.654044 0.535668 -0.760828 0.493342 0.421609 0.301672 0.619727 0.724522 
-0.596448 0.674744 0.434707 -0.241301 0.870597 0.428759 0.665306 -0.604637 0.437928 
0.783269 -0.396601 0.478745 0.73835 -0.00995733 0.674344 -0.520973 -0.77975 0.347243 
-0.867967 -0.485788 0.10317 -0.931382 -0.0482169 0.360837 0.662253 0.00586028 0.749258 
0.734383 0.117692 0.668453 -0.679978 0.351455 0.643513 0.498257 0.414487 0.761538 
-0.637134 0.504249 0.582918 0.364251 0.607469 0.705905 -0.672916 0.45968 0.57955 
-0.446085 0.549747 0.706248 0.203433 0.668385 0.715456 0.257359 -0.818208 0.514103 
0.241446 -0.810593 0.533519 0.707552 -0.262261 0.656193 -0.275652 -0.696337 0.662669 
-0.446365 -0.726201 0.522867 -0.70277 -0.623119 0.343275 -0.515703 -0.605801 0.605851 
0.256336 0.0892706 0.962457 0.282374 0.0647778 0.957115 0.53639 0.0948553 0.838623 
0.00584164 -0.010979 0.999923 0.537714 0.0266508 0.842706 -0.775854 0.147274 0.613482 
-0.494333 0.187035 0.848912 0.189235 0.118788 0.97472 -0.222014 0.219039 0.950122 
0.402999 0.310539 0.860905 -0.211161 0.291416 0.932999 -0.406077 0.420168 0.811517 
0.033175 0.368362 0.92909 -0.177259 0.421148 0.889502 -0.168836 0.733 0.658943 
0.286638 -0.634476 0.717829 -0.255461 -0.73168 0.631968 0.162942 -0.181274 0.96984 
-0.0935639 -0.3588 0.928713 -0.251183 -0.462556 0.850264 0.39164 0.0907635 0.915631 
0.547424 0.0431156 0.835744 -0.347363 -0.461533 0.816288 -0.138432 -0.268039 0.953411 
-0.00757216 -0.0600569 0.998166 -0.74948 -0.364255 0.55281 -0.522649 -0.489732 0.697855 
-0.0245746 -0.0323527 0.999174 -0.159244 -0.218264 0.962809 -0.725943 -0.141449 0.673051 
-0.282899 -0.0682674 0.956717 -0.181946 0.154599 0.971079 0.0292943 -0.423317 0.905508 
0.505087 -0.377463 0.77615 -0.280382 -0.553088 0.784525 -0.340797 -0.322919 0.882939 
-0.398055 -0.292995 0.869313 -0.50638 -0.201308 0.838483 -0.644054 -0.0231329 0.76463 
0.0331525 -0.423594 -0.905246 -0.125278 -0.685041 -0.717651 0.242778 -0.573206 -0.78262 
0.552069 -0.484076 -0.678889 -0.185604 -0.508107 -0.841058 -0.352723 -0.641499 -0.681224 
0.146788 -0.300765 -0.942334 0.462491 -0.266136 -0.845738 -0.381265 -0.547748 -0.74472 
-0.185504 -0.415625 -0.890418 -0.029253 -0.249233 -0.968002 0.338441 -0.0301305 -0.940505 
0.601908 -0.15197 -0.783972 -0.38873 -0.467286 -0.794061 -0.258069 -0.452047 -0.853846 
-0.51217 -0.558008 -0.652924 -0.0462513 -0.137317 -0.989447 -0.304447 -0.600791 -0.739163 
-0.218907 -0.409111 -0.885837 -0.359021 -0.425327 -0.830783 -0.442924 -0.604845 -0.661801 
-0.640981 -0.291125 -0.710204 -0.861393 -0.123204 -0.492771 -0.331371 -0.39012 -0.859069 
-0.534103 -0.475008 -0.699358 -0.624217 -0.081161 -0.777024 -0.252132 0.0248586 -0.967373 
-0.429564 0.228057 -0.873765 -0.676163 0.165544 -0.717913 0.121025 -0.810859 -0.572591 
0.654839 -0.454991 -0.603464 -0.410271 -0.690969 -0.59518 -0.41139 -0.644664 -0.644334 
-0.261292 -0.605718 -0.751553 -0.36958 -0.754734 -0.542022 -0.400788 -0.598848 -0.693361 
-0.617577 -0.602045 -0.506103 0.0192298 -0.113364 -0.993367 -0.831826 -0.364254 -0.418789 
-0.145404 0.131576 -0.980584 -0.599773 0.140905 -0.787666 -0.795402 0.185948 -0.576853 
-0.346735 0.162411 -0.923795 -0.545617 0.230729 -0.805647 0.346245 -0.764914 -0.543159 