# vtk DataFile Version 4.2
vtk output
ASCII
DATASET POLYDATA
POINTS 501 float
345.432 141.48 36.9884 345.5 141.688 36.9813 345.45 141.912 37.2234 
345.826 142.086 36.8414 345.868 142.816 36.9896 346.8 142.591 36.5125 
346.346 143.648 36.8176 347.324 143.704 36.4857 345.856 144.317 37.3768 
347.432 145.186 36.7555 346.348 145.796 37.4303 346.225 146.144 37.7772 
346.739 145.856 37.2051 347.126 146.633 37.3667 348.582 136.066 37.5357 
348.327 135.539 37.8828 348.905 135.718 37.6513 346.185 136.716 38.0447 
347.123 137.881 37.1866 348.557 137.607 37.0478 345.089 139.193 37.7988 
350.707 138.425 36.9249 345.233 139.908 37.5368 345.834 140.433 37.087 
345.368 141.427 37.1301 345.04 140.079 37.6742 345.207 140.8 37.5428 
345.142 142.733 38.0818 347.401 143.14 36.458 345.61 144.993 37.9836 
348.818 145.856 36.8077 347.519 149.118 38.4501 348.498 148.913 37.9656 
348.166 149.719 38.5521 349.169 149.55 38.4257 349.104 134.073 38.5703 
350.652 133.828 38.2882 347.435 134.91 38.7559 352.056 134.459 38.02 
353.342 135.038 38.0152 344.842 139.158 38.1362 344.81 139.601 38.104 
353.72 140.88 37.3835 353.463 144.625 37.7691 345.818 146.892 39.0399 
355.226 145.058 39.0266 352.52 147.002 38.3506 346.797 149.113 39.2472 
353.267 147.142 39.0767 347.748 150.237 39.2719 348.262 150.34 39.096 
348.528 150.385 39.1494 348.333 150.511 39.3562 352.237 130.263 39.7458 
351.977 129.824 40.1042 352.712 131.62 39.1099 356.141 134.076 38.8353 
346.41 135.24 39.538 344.823 138.25 38.6368 344.759 138.757 38.5629 
357.522 139.752 38.5838 354.924 146.127 39.8498 346.067 147.768 39.2996 
347.106 149.654 39.3155 350.075 150.046 39.8309 348.269 150.636 39.7691 
352.705 128.679 40.5845 352.942 128.721 40.5554 351.474 129.798 40.4811 
353.792 129.206 40.4238 354.365 129.42 40.5152 348.162 132.809 40.7126 
357.873 133.3 39.8333 346.821 134.51 40.1174 358.775 134.249 39.83 
360.058 140.341 39.9749 344.546 142.945 40.4841 344.904 144.912 39.9395 
353.807 147.342 40.0573 351.769 149.091 40.3765 347.288 150.409 40.2682 
348.637 150.702 40.1264 352.736 127.1 41.6819 352.706 127.307 41.544 
352.977 126.978 41.8071 353.221 127.525 41.481 353.095 127.05 41.9397 
353.369 127.246 42.1014 352.707 128.247 40.9535 353.781 127.989 41.5104 
353.735 127.634 41.9953 354.598 128.405 42.1314 356.615 130.491 41.4976 
349.407 131.168 41.3726 357.952 132.3 40.6421 359.745 132.984 41.644 
359.201 132.404 41.8798 360.235 133.165 42.0034 359.803 134.249 40.5056 
361.432 134.043 42.3581 361.872 134.518 42.5057 345.795 135.558 40.8585 
362.433 136.029 41.9216 362.675 135.971 42.3465 362.482 136.741 41.7214 
361.894 138.494 41.0011 360.892 141.123 41.3727 359.014 143.382 41.6654 
345.889 148.804 40.7619 349.601 150.557 40.9426 347.052 150.568 41.4422 
352.719 126.998 41.8565 352.878 126.94 41.9104 352.76 126.948 42.0031 
352.264 127.578 41.7245 352.872 126.996 42.1912 353.127 127.054 42.1945 
353.045 127.037 42.3412 351.628 128.139 41.9581 354.073 127.898 42.447 
359.601 132.449 42.6877 347.908 132.625 42.2157 361.653 134.166 42.7099 
361.592 134.1 43.0938 345.306 136.331 41.8449 362.529 135.532 42.6168 
362.895 136.149 42.8433 363.141 136.704 42.822 363.302 137.027 43.0457 
354.683 147.131 41.9963 353.579 148.004 41.8835 346.503 150.341 41.9936 
349.993 150.43 42.1396 352.596 127.085 42.0946 352.568 127.183 42.5526 
351.784 127.843 42.2274 351.79 127.802 42.7206 355.226 129.024 43.7573 
356.384 129.846 43.1375 360.338 133.018 43.3121 347.559 133.022 43.2419 
363.403 137.673 43.3691 362.692 139.519 42.7144 358.035 144.597 43.2494 
346.094 150.086 42.4013 346.605 150.67 42.8255 347.833 150.929 42.7089 
352.49 127.295 42.9841 352.199 127.469 42.8842 352.602 127.331 43.1803 
351.855 127.858 43.4569 353.155 127.654 43.6643 358.67 131.774 43.837 
361.375 134.079 43.8529 363.238 136.902 44.0188 363.367 137.67 43.7985 
363.274 138.062 44.0671 362.681 139.875 43.8518 344.748 147.092 44.148 
355.792 146.231 43.9854 345.778 150.17 43.6708 346.266 150.564 43.251 
346.055 150.563 43.8617 348.908 150.662 43.5472 346.579 150.854 43.6868 
347.083 150.945 43.7596 347.602 150.916 43.542 350.851 128.839 44.2526 
360.957 134.133 44.9701 362.48 136.326 45.0899 362.974 137.367 44.8395 
344.329 140.724 44.1972 362.057 140.763 44.6479 344.543 144.504 45.0165 
344.709 146.531 44.6757 354.974 146.513 45.1848 344.969 147.966 44.8061 
345.324 149.324 43.9383 345.916 150.559 44.4081 346.297 150.887 44.1359 
346.475 150.97 44.2342 346.79 150.933 44.2814 346.309 150.957 44.3995 
350.871 128.932 44.8878 347.943 133.226 45.9879 362.265 137.237 46.1582 
362.778 138.896 45.2363 344.699 142.197 45.6978 358.703 143.848 45.7432 
345.267 147.84 45.543 345.09 148.238 45.0397 345.247 148.623 45.0956 
345.56 149.899 44.4363 348.084 150.313 44.8905 348.576 149.617 45.7798 
345.841 150.306 44.8419 345.905 150.525 44.7049 346.079 150.73 44.6571 
346.454 150.942 44.5307 346.643 150.826 44.6963 346.247 150.891 44.5828 
351.638 128.493 45.2004 352.705 128.782 46.3173 345.284 137.648 46.2501 
345.063 142.642 46.2836 345.286 145.282 46.2438 346.652 146.236 46.9437 
355.969 145.218 46.268 345.534 148.292 45.6381 347.54 147.325 46.9289 
346.423 148.8 45.9443 348.331 148.957 46.3281 348.718 149.361 46.1939 
348.758 149.524 46.0937 348.861 149.504 46.0912 349.136 149.398 46.015 
346.044 150.531 44.8836 346.247 150.44 45.0419 348.832 149.465 46.1823 
346.326 150.744 44.8056 352.108 129.224 47.0274 350.767 129.69 46.6733 
353.207 129.355 47.1 350.277 130.489 47.3217 356.851 132.108 47.6531 
348.134 134.5 47.3449 360.29 135.146 47.2757 345.788 137.891 46.8567 
361.66 137.757 47.2753 346.159 142.085 47.4077 361.401 140.386 47.439 
345.515 143.222 46.7258 347.158 141.888 47.9321 348.936 143.427 48.136 
346.608 144.572 47.2105 358.602 143.187 47.4058 345.891 145.441 46.7188 
355.279 145.099 46.9099 350.473 145.869 47.6743 350.921 130.404 47.904 
350.215 131.321 48.0142 360.311 136.978 48.535 345.563 140.844 47.1337 
348.336 140.393 48.2957 360.204 141.598 47.8785 359.194 141.679 48.6768 
358.252 143.277 47.5491 350.92 144.916 47.9717 354.923 144.003 47.8183 
352.999 144.993 47.7539 354.788 144.705 47.4328 351.246 130.644 48.3393 
353.737 131.252 48.9342 350.032 133.218 48.7693 351.728 134.236 49.6272 
360.049 138.125 48.9703 356.357 138.464 49.845 356.736 139.835 49.6274 
360.848 139.526 48.4452 360.003 141.024 48.596 358.556 141.383 49.0466 
359.25 141.512 48.9664 359.086 141.385 49.0438 358.093 142.565 48.2548 
359.268 141.405 49.0457 352.277 131.058 49.0247 352.684 130.788 49.004 
352.553 130.939 49.1515 352.94 131.673 49.2767 354.397 132.636 49.4168 
355.119 134.235 49.7018 356.921 135.928 49.6411 356.896 136.917 49.7754 
359.463 137.622 49.1603 357.804 138.731 49.6973 359.114 140.666 49.2402 
352.689 130.941 49.171 352.7 130.628 406.033 352.546 130.662 406.103 
351.85 129.886 406.951 352.25 129.949 406.73 352.689 130.205 406.496 
352.904 131.318 405.92 353.591 130.901 406.261 354.715 131.805 406.17 
354.841 131.308 406.557 353.644 132.381 405.671 350.893 133.169 405.798 
355.362 133.276 405.771 355.044 136.018 405.124 358.749 135.113 406.524 
357.871 137.789 405.453 360.235 137.633 406.327 357.76 140.247 405.48 
359.376 141.361 406.059 352.489 129.814 406.85 350.732 130.364 407.312 
350.11 131.567 406.935 353.152 135.53 405.185 361.031 139.104 406.796 
361.393 139.454 407.223 360.872 140.203 406.809 351.957 129 408.011 
351.546 129.182 408.012 352.155 128.77 408.294 351.106 129.405 408.138 
352.485 129.058 407.942 354.16 130.278 407.061 355.295 131.006 407.155 
347.34 135.914 407.739 347.337 137.852 407.128 345.665 139.347 407.76 
345.548 139.89 407.865 345.989 140.036 407.536 350.096 140.097 406.33 
361.203 140.525 407.459 361.244 140.938 407.908 360.539 141.601 407.684 
348.105 133.699 408.204 345.277 137.974 408.359 345.142 137.886 408.607 
344.891 140.06 408.821 346.685 141.542 407.258 345.416 144.686 408.69 
347.973 144.844 407.445 346.862 146.282 408.07 347.493 147.031 408.076 
348.605 147.509 408.099 348.292 148.657 408.613 348.778 148.902 408.655 
349.226 148.877 408.683 348.931 149.437 409.012 349.197 149.285 408.887 
349.543 149.283 409.121 349.066 149.389 408.912 351.916 128.125 409.699 
351.063 128.794 409.43 362.692 137.47 409.331 362.966 139.188 409.969 
344.689 141.294 409.394 358.648 143.76 409.036 346.441 146.238 408.277 
345.024 146.859 409.839 345.378 147.616 409.574 347.509 147.543 408.269 
345.081 148.142 410.14 345.3 148.622 410.055 345.711 149.01 409.838 
347.867 149.056 409.01 346.832 149.781 409.659 347.686 149.829 409.576 
348.827 149.714 409.528 349.122 149.459 409.063 345.793 150.246 410.522 
346.133 150.135 410.082 345.981 150.455 410.464 346.592 150.689 410.347 
346.42 150.765 410.517 352.308 127.795 410.29 352.158 127.632 410.882 
350.87 128.766 410.15 353.62 128.138 410.331 348.801 131.47 410.481 
344.612 138.829 409.795 362.607 140.051 409.975 344.809 146.931 410.35 
344.963 148.115 410.453 345.28 149.188 410.938 345.601 149.89 411.271 
347.927 150.646 410.43 346.378 150.742 411.159 346.71 150.861 410.649 
346.459 150.837 410.773 352.251 127.349 411.466 352.278 127.258 411.808 
352.931 127.648 410.794 363.418 138.202 410.991 345.234 149.106 411.44 
349.229 150.498 411.185 346.285 150.504 411.876 347.329 150.974 411.709 
352.507 127.074 412.245 349.657 130.219 411.698 359.182 132.196 411.188 
359.37 132.281 411.59 347.024 133.735 411.927 363.043 136.474 411.042 
363.469 137.528 411.157 363.5 137.838 411.765 362.443 140.141 412.08 
361.853 141.04 411.389 344.221 142.731 412.449 345.254 148.709 412.464 
346.774 150.589 413.047 352.521 126.963 412.561 352.563 126.976 412.755 
352.38 127.112 412.56 353.165 127.169 412.304 361.309 133.973 411.82 
363.326 137.051 411.837 363.427 137.47 412.026 363.425 137.8 412.14 
362.576 139.575 412.7 349.533 150.601 412.774 352.653 127.069 412.953 
352.806 126.93 412.701 352.746 126.963 412.832 353.442 127.357 412.475 
352.173 128.28 413.51 350.587 129.594 413.237 358.711 131.999 412.913 
361.091 133.714 412.154 362.001 134.751 412.146 361.938 134.842 412.576 
[...]
POINT_DATA 501
COLOR_SCALARS scalars 3
0.0823529 0.690196 0.701961 0.0823529 0.690196 0.701961 0.0823529 0.690196 0.701961 
0.0823529 0.690196 0.701961 0.0823529 0.690196 0.701961 
0.0823529 0.690196 0.701961 0.0823529 0.690196 0.701961 
0.0823529 0.690196 0.701961 0.0823529 0.690196 0.701961 
0.0823529 0.690196 0.701961 0.0823529 0.690196 0.701961 
0.0823529 0.690196 0.701961 0.0823529 0.690196 0.701961 
0.0823529 0.690196 0.701961 0.0823529 0.690196 0.701961 
0.0823529 0.690196 0.701961 0.0823529 0.690196 0.701961 
0.0823529 0.690196 0.701961 0.0823529 0.690196 0.701961 
0.0823529 0.690196 0.701961 0.0823529 0.690196 0.701961 
0.0823529 0.690196 0.701961 0.0823529 0.690196 0.701961 
0.0823529 0.690196 0.701961 0.0823529 0.690196 0.701961 
0.0823529 0.690196 0.701961 0.0823529 0.690196 0.701961 
0.0823529 0.690196 0.701961 0.0823529 0.690196 0.701961 
0.0823529 0.690196 0.701961 0.0823529 0.690196 0.701961 
0.0823529 0.690196 0.701961 0.0823529 0.690196 0.701961 
0.0823529 0.690196 0.701961 0.0823529 0.690196 0.701961 
0.0823529 0.690196 0.701961 0.0823529 0.690196 0.701961 
0.0823529 0.690196 0.701961 0.0823529 0.690196 0.701961 
0.0823529 0.690196 0.701961 0.0823529 0.690196 0.701961 
0.0823529 0.690196 0.701961 0.0823529 0.690196 0.701961 
0.0823529 0.690196 0.701961 0.0823529 0.690196 0.701961 
0.0823529 0.690196 0.701961 0.0823529 0.690196 0.701961 
0.0823529 0.690196 0.701961 0.0823529 0.690196 0.701961 
0.0823529 0.690196 0.701961 0.0823529 0.690196 0.701961 
0.0823529 0.690196 0.701961 0.0823529 0.690196 0.701961 
0.0823529 0.690196 0.701961 0.0823529 0.690196 0.701961 
0.0823529 0.690196 0.701961 0.0823529 0.690196 0.701961 
0.0823529 0.690196 0.701961 0.0823529 0.690196 0.701961 
0.0823529 0.690196 0.701961 0.0823529 0.690196 0.701961 
0.0823529 0.690196 0.701961 0.0823529 0.690196 0.701961 
0.0823529 0.690196 0.701961 0.0823529 0.690196 0.701961 
0.0823529 0.690196 0.701961 0.0823529 0.690196 0.701961 
0.0823529 0.690196 0.701961 0.0823529 0.690196 0.701961 
0.0823529 0.690196 0.701961 0.0823529 0.690196 0.701961 
0.0823529 0.690196 0.701961 0.0823529 0.690196 0.701961 
0.0823529 0.690196 0.701961 0.0823529 0.690196 0.701961 
0.0823529 0.690196 0.701961 0.0823529 0.690196 0.701961 
0.0823529 0.690196 0.701961 0.0823529 0.690196 0.701961 
0.0823529 0.690196 0.701961 0.0823529 0.690196 0.701961 
0.0823529 0.690196 0.701961 0.0823529 0.690196 0.701961 
0.0823529 0.690196 0.701961 0.0823529 0.690196 0.701961 
0.0823529 0.690196 0.701961 0.0823529 0.690196 0.701961 
0.0823529 0.690196 0.701961 0.0823529 0.690196 0.701961 
0.0823529 0.690196 0.701961 0.0823529 0.690196 0.701961 
0.0823529 0.690196 0.701961 0.0823529 0.690196 0.701961 
0.0823529 0.690196 0.701961 0.0823529 0.690196 0.701961 
0.0823529 0.690196 0.701961 0.0823529 0.690196 0.701961 
0.0823529 0.690196 0.701961 0.0823529 0.690196 0.701961 
0.0823529 0.690196 0.701961 0.0823529 0.690196 0.701961 
0.0823529 0.690196 0.701961 0.0823529 0.690196 0.701961 
0.0823529 0.690196 0.701961 0.0823529 0.690196 0.701961 
0.0823529 0.690196 0.701961 0.0823529 0.690196 0.701961 
0.0823529 0.690196 0.701961 0.0823529 0.690196 0.701961 
0.0823529 0.690196 0.701961 0.0823529 0.690196 0.701961 
0.0823529 0.690196 0.701961 0.0823529 0.690196 0.701961 
0.0823529 0.690196 0.701961 0.0823529 0.690196 0.701961 
0.0823529 0.690196 0.701961 0.0823529 0.690196 0.701961 
0.0823529 0.690196 0.701961 0.0823529 0.690196 0.701961 
0.0823529 0.690196 0.701961 0.0823529 0.690196 0.701961 
0.0823529 0.690196 0.701961 0.0823529 0.690196 0.701961 
0.0823529 0.690196 0.701961 0.0823529 0.690196 0.701961 
0.0823529 0.690196 0.701961 0.0823529 0.690196 0.701961 
0.0823529 0.690196 0.701961 0.0823529 0.690196 0.701961 
0.0823529 0.690196 0.701961 0.0823529 0.690196 0.701961 
0.0823529 0.690196 0.701961 0.0823529 0.690196 0.701961 
0.0823529 0.690196 0.701961 0.0823529 0.690196 0.701961 
0.0823529 0.690196 0.701961 0.0823529 0.690196 0.701961 
0.0823529 0.690196 0.701961 0.0823529 0.690196 0.701961 
0.0823529 0.690196 0.701961 0.0823529 0.690196 0.701961 
0.0823529 0.690196 0.701961 0.0823529 0.690196 0.701961 
0.0823529 0.690196 0.701961 0.0823529 0.690196 0.701961 
0.0823529 0.690196 0.701961 0.0823529 0.690196 0.701961 
0.0823529 0.690196 0.701961 0.0823529 0.690196 0.701961 
0.0823529 0.690196 0.701961 0.0823529 0.690196 0.701961 
0.0823529 0.690196 0.701961 0.0823529 0.690196 0.701961 
0.0823529 0.690196 0.701961 0.0823529 0.690196 0.701961 
0.0823529 0.690196 0.701961 0.0823529 0.690196 0.701961 
0.0823529 0.690196 0.701961 0.0823529 0.690196 0.701961 
0.0823529 0.690196 0.701961 0.0823529 0.690196 0.701961 
0.0823529 0.690196 0.701961 0.0823529 0.690196 0.701961 
0.0823529 0.690196 0.701961 0.0823529 0.690196 0.701961 
0.0823529 0.690196 0.701961 0.0823529 0.690196 0.701961 
0.0823529 0.690196 0.701961 0.0823529 0.690196 0.701961 
0.0823529 0.690196 0.701961 0.0823529 0.690196 0.701961 
0.0823529 0.690196 0.701961 0.0823529 0.690196 0.701961 
0.0823529 0.690196 0.701961 0.0823529 0.690196 0.701961 
0.0823529 0.690196 0.701961 0.0823529 0.690196 0.701961 
0.0823529 0.690196 0.701961 0.0823529 0.690196 0.701961 
0.0823529 0.690196 0.701961 0.0823529 0.690196 0.701961 
0.0823529 0.690196 0.701961 0.0823529 0.690196 0.701961 
0.0823529 0.690196 0.701961 0.0823529 0.690196 0.701961 
0.0823529 0.690196 0.701961 0.0823529 0.690196 0.701961 
0.0823529 0.690196 0.701961 0.0823529 0.690196 0.701961 
0.0823529 0.690196 0.701961 0.0823529 0.690196 0.701961 
0.0823529 0.690196 0.701961 0.0823529 0.690196 0.701961 
0.0823529 0.690196 0.701961 0.0823529 0.690196 0.701961 
0.0823529 0.690196 0.701961 0.0823529 0.690196 0.701961 
0.0823529 0.690196 0.701961 0.0823529 0.690196 0.701961 
0.0823529 0.690196 0.701961 0.0823529 0.690196 0.701961 
0.0823529 0.690196 0.701961 0.0823529 0.690196 0.701961 
0.0823529 0.690196 0.701961 0.0823529 0.690196 0.701961 
0.0823529 0.690196 0.701961 0.0823529 0.690196 0.701961 
0.0823529 0.690196 0.701961 0.0823529 0.690196 0.701961 
0.0823529 0.690196 0.701961 0.0823529 0.690196 0.701961 
0.0823529 0.690196 0.701961 0.0823529 0.690196 0.701961 
0.0823529 0.690196 0.701961 0.0823529 0.690196 0.701961 
0.0823529 0.690196 0.701961 0.0823529 0.690196 0.701961 
0.0823529 0.690196 0.701961 0.0823529 0.690196 0.701961 
0.0823529 0.690196 0.701961 0.0823529 0.690196 0.701961 
0.0823529 0.690196 0.701961 0.0823529 0.690196 0.701961 
0.0823529 0.690196 0.701961 0.0823529 0.690196 0.701961 
0.0823529 0.690196 0.701961 0.0823529 0.690196 0.701961 
0.0823529 0.690196 0.701961 0.0823529 0.690196 0.701961 
0.0823529 0.690196 0.701961 0.0823529 0.690196 0.701961 
0.0823529 0.690196 0.701961 0.0823529 0.690196 0.701961 
0.0823529 0.690196 0.701961 0.0823529 0.690196 0.701961 
0.0823529 0.690196 0.701961 0.0823529 0.690196 0.701961 
0.0823529 0.690196 0.701961 0.0823529 0.690196 0.701961 
0.0823529 0.690196 0.701961 0.0823529 0.690196 0.701961 
0.0823529 0.690196 0.701961 0.0823529 0.690196 0.701961 
0.0823529 0.690196 0.701961 0.0823529 0.690196 0.701961 
0.0823529 0.690196 0.701961 0.0823529 0.690196 0.701961 
0.0823529 0.690196 0.701961 0.0823529 0.690196 0.701961 
0.0823529 0.690196 0.701961 0.0823529 0.690196 0.701961 
0.0823529 0.690196 0.701961 0.0823529 0.690196 0.701961 
0.0823529 0.690196 0.701961 0.0823529 0.690196 0.701961 
0.0823529 0.690196 0.701961 0.0823529 0.690196 0.701961 
0.0823529 0.690196 0.701961 0.0823529 0.690196 0.701961 
0.0823529 0.690196 0.701961 0.0823529 0.690196 0.701961 
0.0823529 0.690196 0.701961 0.0823529 0.690196 0.701961 
0.0823529 0.690196 0.701961 0.0823529 0.690196 0.701961 
0.0823529 0.690196 0.701961 0.0823529 0.690196 0.701961 
0.0823529 0.690196 0.701961 0.0823529 0.690196 0.701961 
0.0823529 0.690196 0.701961 0.0823529 0.690196 0.701961 
0.0823529 0.690196 0.701961 0.0823529 0.690196 0.701961 
0.0823529 0.690196 0.701961 0.0823529 0.690196 0.701961 
0.0823529 0.690196 0.701961 0.0823529 0.690196 0.701961 
0.0823529 0.690196 0.701961 0.0823529 0.690196 0.701961 
0.0823529 0.690196 0.701961 0.0823529 0.690196 0.701961 
0.0823529 0.690196 0.701961 0.0823529 0.690196 0.701961 
0.0823529 0.690196 0.701961 0.0823529 0.690196 0.701961 
0.0823529 0.690196 0.701961 0.0823529 0.690196 0.701961 
0.0823529 0.690196 0.701961 0.0823529 0.690196 0.701961 
0.0823529 0.690196 0.701961 0.0823529 0.690196 0.701961 
0.0823529 0.690196 0.701961 0.0823529 0.690196 0.701961 
0.0823529 0.690196 0.701961 0.0823529 0.690196 0.701961 
0.0823529 0.690196 0.701961 0.0823529 0.690196 0.701961 
0.0823529 0.690196 0.701961 0.0823529 0.690196 0.701961 
0.0823529 0.690196 0.701961 0.0823529 0.690196 0.701961 
0.0823529 0.690196 0.701961 0.0823529 0.690196 0.701961 
0.0823529 0.690196 0.701961 0.0823529 0.690196 0.701961 
0.0823529 0.690196 0.701961 0.0823529 0.690196 0.701961 
0.0823529 0.690196 0.701961 0.0823529 0.690196 0.701961 
0.0823529 0.690196 0.701961 0.0823529 0.690196 0.701961 
0.0823529 0.690196 0.701961 0.0823529 0.690196 0.701961 
0.0823529 0.690196 0.701961 0.0823529 0.690196 0.701961 
0.0823529 0.690196 0.701961 0.0823529 0.690196 0.701961 
0.0823529 0.690196 0.701961 0.0823529 0.690196 0.701961 
0.0823529 0.690196 0.701961 0.0823529 0.690196 0.701961 
0.0823529 0.690196 0.701961 0.0823529 0.690196 0.701961 
0.0823529 0.690196 0.701961 0.0823529 0.690196 0.701961 
0.0823529 0.690196 0.701961 0.0823529 0.690196 0.701961 
0.0823529 0.690196 0.701961 0.0823529 0.690196 0.701961 
0.0823529 0.690196 0.701961 0.0823529 0.690196 0.701961 
0.0823529 0.690196 0.701961 0.0823529 0.690196 0.701961 
0.0823529 0.690196 0.701961 0.0823529 0.690196 0.701961 
0.0823529 0.690196 0.701961 0.0823529 0.690196 0.701961 
0.0823529 0.690196 0.701961 0.0823529 0.690196 0.701961 
0.0823529 0.690196 0.701961 0.0823529 0.690196 0.701961 
0.0823529 0.690196 0.701961 0.0823529 0.690196 0.701961 
0.0823529 0.690196 0.701961 0.0823529 0.690196 0.701961 
0.0823529 0.690196 0.701961 0.0823529 0.690196 0.701961 
0.0823529 0.690196 0.701961 0.0823529 0.690196 0.701961 
0.0823529 0.690196 0.701961 0.0823529 0.690196 0.701961 
0.0823529 0.690196 0.701961 0.0823529 0.690196 0.701961 
0.0823529 0.690196 0.701961 0.0823529 0.690196 0.701961 
0.0823529 0.690196 0.701961 0.0823529 0.690196 0.701961 
0.0823529 0.690196 0.701961 0.0823529 0.690196 0.701961 
0.0823529 0.690196 0.701961 0.0823529 0.690196 0.701961 
0.0823529 0.690196 0.701961 0.0823529 0.690196 0.701961 
0.0823529 0.690196 0.701961 0.0823529 0.690196 0.701961 
0.0823529 0.690196 0.701961 0.0823529 0.690196 0.701961 
0.0823529 0.690196 0.701961 0.0823529 0.690196 0.701961 
0.0823529 0.690196 0.701961 0.0823529 0.690196 0.701961 
0.0823529 0.690196 0.701961 0.0823529 0.690196 0.701961 
0.0823529 0.690196 0.701961 0.0823529 0.690196 0.701961 
0.0823529 0.690196 0.701961 0.0823529 0.690196 0.701961 
0.0823529 0.690196 0.701961 0.0823529 0.690196 0.701961 
0.0823529 0.690196 0.701961 0.0823529 0.690196 0.701961 
0.0823529 0.690196 0.701961 0.0823529 0.690196 0.701961 
0.0823529 0.690196 0.701961 0.0823529 0.690196 0.701961 
0.0823529 0.690196 0.701961 0.0823529 0.690196 0.701961 
0.0823529 0.690196 0.701961 0.0823529 0.690196 0.701961 
0.0823529 0.690196 0.701961 0.0823529 0.690196 0.701961 
0.0823529 0.690196 0.701961 0.0823529 0.690196 0.701961 
0.0823529 0.690196 0.701961 0.0823529 0.690196 0.701961 
0.0823529 0.690196 0.701961 0.0823529 0.690196 0.701961 
0.0823529 0.690196 0.701961 0.0823529 0.690196 0.701961 
0.0823529 0.690196 0.701961 0.0823529 0.690196 0.701961 
0.0823529 0.690196 0.701961 0.0823529 0.690196 0.701961 
0.0823529 0.690196 0.701961 0.0823529 0.690196 0.701961 
0.0823529 0.690196 0.701961 0.0823529 0.690196 0.701961 
0.0823529 0.690196 0.701961 0.0823529 0.690196 0.701961 
0.0823529 0.690196 0.701961 0.0823529 0.690196 0.701961 
0.0823529 0.690196 0.701961 0.0823529 0.690196 0.701961 
0.0823529 0.690196 0.701961 0.0823529 0.690196 0.701961 
0.0823529 0.690196 0.701961 0.0823529 0.690196 0.701961 
0.0823529 0.690196 0.701961 0.0823529 0.690196 0.701961 
0.0823529 0.690196 0.701961 0.0823529 0.690196 0.701961 
0.0823529 0.690196 0.701961 0.0823529 0.690196 0.701961 
0.0823529 0.690196 0.701961 0.0823529 0.690196 0.701961 
0.0823529 0.690196 0.701961 0.0823529 0.690196 0.701961 
0.0823529 0.690196 0.701961 0.0823529 0.690196 0.701961 
0.0823529 0.690196 0.701961 0.0823529 0.690196 0.701961 
0.0823529 0.690196 0.701961 0.0823529 0.690196 0.701961 
0.0823529 0.690196 0.701961 0.0823529 0.690196 0.701961 
0.0823529 0.690196 0.701961 0.0823529 0.690196 0.701961 
0.0823529 0.690196 0.701961 0.0823529 0.690196 0.701961 
0.0823529 0.690196 0.701961 0.0823529 0.690196 0.701961 
0.0823529 0.690196 0.701961 0.0823529 0.690196 0.701961 
0.0823529 0.690196 0.701961 0.0823529 0.690196 0.701961 
0.0823529 0.690196 0.701961 0.0823529 0.690196 0.701961 
0.0823529 0.690196 0.701961 0.0823529 0.690196 0.701961 
0.0823529 0.690196 0.701961 0.0823529 0.690196 0.701961 
0.0823529 0.690196 0.701961 0.0823529 0.690196 0.701961 
0.0823529 0.690196 0.701961 0.0823529 0.690196 0.701961 
0.0823529 0.690196 0.701961 0.0823529 0.690196 0.701961 
0.0823529 0.690196 0.701961 0.0823529 0.690196 0.701961 
0.0823529 0.690196 0.701961 0.0823529 0.690196 0.701961 
0.0823529 0.690196 0.701961 0.0823529 0.690196 0.701961 
0.0823529 0.690196 0.701961 0.0823529 0.690196 0.701961 
0.0823529 0.690196 0.701961 0.0823529 0.690196 0.701961 
0.0823529 0.690196 0.701961 0.0823529 0.690196 0.701961 
0.0823529 0.690196 0.701961 0.0823529 0.690196 0.701961 
0.0823529 0.690196 0.701961 0.0823529 0.690196 0.701961 
0.0823529 0.690196 0.701961 0.0823529 0.690196 0.701961 
0.0823529 0.690196 0.701961 0.0823529 0.690196 0.701961 
0.0823529 0.690196 0.701961 0.0823529 0.690196 0.701961 
0.0823529 0.690196 0.701961 0.0823529 0.690196 0.701961 
0.0823529 0.690196 0.701961 0.0823529 0.690196 0.701961 
0.0823529 0.690196 0.701961 0.0823529 0.690196 0.701961 
0.0823529 0.690196 0.701961 0.0823529 0.690196 0.701961 
0.0823529 0.690196 0.701961 0.0823529 0.690196 0.701961 
0.0823529 0.690196 0.701961 0.0823529 0.690196 0.701961 
0.0823529 0.690196 0.701961 0.0823529 0.690196 0.701961 
0.0823529 0.690196 0.701961 0.0823529 0.690196 0.701961 
0.0823529 0.690196 0.701961 0.0823529 0.690196 0.701961 
0.0823529 0.690196 0.701961 0.0823529 0.690196 0.701961 
0.0823529 0.690196 0.701961 0.0823529 0.690196 0.701961 

NORMALS Normals float
-0.647702 -0.025033 -0.761482 -0.797011 0.27902 -0.535651 -0.896498 0.18284 -0.403559 
-0.566671 0.188657 -0.802055 -0.576904 0.1637 -0.80024 -0.222421 -0.00508939 -0.974938 
-0.42737 0.223448 -0.876029 -0.196634 0.14312 -0.969975 -0.657015 0.242213 -0.713907 
-0.299639 0.218913 -0.928598 -0.709135 0.256406 -0.656798 -0.715513 0.375437 -0.589142 
-0.261615 0.313998 -0.912668 -0.386175 0.387951 -0.836877 -0.282107 -0.372595 -0.884075 
-0.277557 -0.544968 -0.791184 -0.102617 -0.497609 -0.86131 -0.484165 -0.462031 -0.743042 
-0.244357 -0.210107 -0.946649 -0.0830032 -0.268068 -0.959818 -0.662739 -0.247751 -0.70668 
0.117963 -0.083091 -0.989536 -0.632175 -0.118058 -0.765779 -0.299336 -0.205838 -0.931681 
-0.93565 0.164716 -0.312135 -0.776447 -0.0396198 -0.628936 -0.866805 0.0298737 -0.497752 
-0.899437 0.120762 -0.420035 -0.0303273 -0.0134533 -0.999449 -0.878585 0.253729 -0.404612 
0.0582382 0.281205 -0.957879 -0.533491 0.473969 -0.700529 0.025564 0.380561 -0.924402 
-0.337106 0.588058 -0.735219 0.207301 0.641095 -0.738934 -0.268083 -0.476164 -0.837496 
0.0125063 -0.53942 -0.841944 -0.457448 -0.630481 -0.627084 0.0504612 -0.423309 -0.904579 
0.219087 -0.437407 -0.872167 -0.922313 -0.158503 -0.352442 -0.896425 -0.0329138 -0.441971 
0.33875 0.139277 -0.930511 0.328865 0.198028 -0.923381 -0.91078 0.21088 -0.354977 
0.559708 0.425986 -0.710818 0.397451 0.60111 -0.693325 -0.717765 0.499813 -0.484768 
0.490604 0.653517 -0.576388 -0.438197 0.754405 -0.48873 -0.136689 0.747004 -0.650616 
0.184166 0.823589 -0.536455 0.00323767 0.92291 -0.385003 -0.295452 -0.389644 -0.872287 
-0.334942 -0.468306 -0.817621 -0.0418906 -0.475121 -0.878923 0.270607 -0.323342 -0.906764 
-0.770829 -0.514413 -0.375768 -0.87335 -0.353078 -0.335553 -0.963876 -0.166686 -0.207746 
0.417219 -0.0733194 -0.905843 0.653009 0.687454 -0.317783 -0.84314 0.347997 -0.409894 
-0.652759 0.540988 -0.530319 0.453523 0.822838 -0.342424 -0.217251 0.949272 -0.227341 
-0.247289 -0.573782 -0.780783 0.0536667 -0.570467 -0.819566 -0.536575 -0.496382 -0.682416 
0.289221 -0.642068 -0.71 0.424781 -0.679678 -0.597996 -0.74765 -0.592541 -0.299858 
0.358878 -0.495468 -0.791024 -0.763358 -0.635033 -0.118392 0.463539 -0.324585 -0.824485 
0.574055 0.349217 -0.740614 -0.981045 0.0618224 -0.183656 -0.942381 0.256473 -0.214801 
0.521154 0.788177 -0.327376 0.545575 0.817891 -0.182764 -0.574135 0.777908 -0.255398 
0.0576235 0.987831 -0.14446 -0.363252 -0.673217 -0.644071 -0.318562 -0.569651 -0.757639 
0.284563 -0.81434 -0.50584 0.40122 -0.570178 -0.716882 0.474142 -0.880389 0.0102126 
0.6672 -0.738987 -0.0935015 -0.0168727 -0.58236 -0.812756 0.523336 -0.65353 -0.546826 
0.711371 -0.63955 -0.291423 0.67801 -0.734992 -0.00939244 0.594777 -0.765488 -0.245497 
-0.660572 -0.570062 -0.488543 0.491152 -0.594312 -0.636839 0.554669 -0.68301 -0.475226 
0.543213 -0.723797 -0.425484 0.62152 -0.645051 -0.444547 0.556283 -0.438213 -0.706059 
0.6415 -0.647207 -0.411825 0.709393 -0.464041 -0.530498 -0.837454 -0.535344 -0.109899 
0.673141 -0.35 -0.651445 0.856045 -0.317298 -0.408054 0.775089 -0.130633 -0.6182 
0.704131 0.0841717 -0.705064 0.730594 0.571756 -0.373266 0.659081 0.633879 -0.404734 
-0.832812 0.462863 -0.303614 0.357994 0.928223 -0.101208 -0.564105 0.764161 -0.3128 
-0.54159 -0.763291 -0.352231 0.116757 -0.991882 -0.0503711 -0.338261 -0.936729 0.0901029 
-0.684608 -0.67498 -0.275163 0.00989975 -0.9776 0.210241 0.444157 -0.893979 0.0593769 
0.253104 -0.923699 0.287609 -0.811664 -0.535903 -0.232398 0.726503 -0.687024 0.0138582 
0.565746 -0.822835 -0.0536154 -0.786187 -0.617543 -0.0234592 0.893222 -0.449496 0.0103762 
0.78857 -0.61404 0.0333579 -0.912805 -0.408317 0.00797089 0.846352 -0.532278 -0.0192272 
0.901629 -0.378359 -0.209546 0.903942 -0.336971 -0.263325 0.951398 -0.146274 -0.271011 
0.64263 0.763743 -0.0610161 0.594653 0.802196 -0.0535618 -0.570121 0.738375 -0.360229 
0.427998 0.901363 0.0660448 -0.641482 -0.76115 0.0956691 -0.426212 -0.889213 0.166264 
-0.719379 -0.680097 -0.141288 -0.760257 -0.649614 0.00327381 0.575746 -0.797425 0.180637 
0.635641 -0.771754 -0.0188866 0.592464 -0.794438 0.133619 -0.853801 -0.520512 -0.0095701 
0.955177 0.192357 -0.225023 0.846649 0.445483 -0.291086 0.69182 0.721979 -0.0114612 
-0.786674 0.510296 -0.347479 -0.427045 0.86596 -0.260281 -0.058913 0.995769 -0.0705248 
-0.417242 -0.864809 0.279312 -0.599661 -0.79012 0.126956 -0.24275 -0.88181 0.404331 
-0.653753 -0.737031 0.171444 0.322105 -0.854885 0.406718 0.589898 -0.781062 0.204846 
0.87016 -0.409501 0.274098 0.932835 -0.310971 0.181981 0.982334 -0.00396034 0.187094 
0.950638 0.183565 0.250183 0.910833 0.41276 0.0035311 -0.975443 0.217796 -0.0327906 
0.631584 0.775171 0.0145384 -0.806967 0.544959 -0.227649 -0.650674 0.701031 -0.291855 
-0.713201 0.671261 -0.201876 0.306281 0.920942 0.240953 -0.301975 0.927567 -0.220068 
0.149793 0.985111 0.0843752 0.0624892 0.993448 0.095686 -0.68504 -0.723876 0.0819927 
0.674717 -0.637451 0.372039 0.77441 -0.47813 0.414345 0.895358 -0.122443 0.428183 
-0.998368 -0.0196142 0.0536325 0.789565 0.609749 0.0692391 -0.956855 0.0778248 0.279949 
-0.969419 0.133917 0.205653 0.50663 0.816101 0.278039 -0.962875 0.248739 0.104881 
-0.970975 0.239142 0.00431653 -0.83089 0.554918 -0.0410915 -0.480601 0.836366 -0.263657 
-0.0712658 0.992738 -0.0969144 0.22471 0.966235 0.126079 -0.50198 0.864525 -0.0247513 
-0.646787 -0.721648 0.24676 -0.791236 -0.516057 0.32807 0.854954 -0.151635 0.496044 
0.93195 0.25773 0.255039 -0.913335 0.0883409 0.397512 0.581097 0.769102 0.266099 
-0.835398 0.170005 0.522693 -0.878601 0.266322 0.396401 -0.865527 0.411408 0.285669 