# vtk DataFile Version 4.2
vtk output
ASCII
DATASET POLYDATA
POINTS 623 float
310.013 160.062 52.1366 309.99 160.727 51.9609 310.012 161.593 51.8159 
311.211 162.264 52.5358 311.032 163.069 52.1362 311.241 165.01 52.034 
311.115 165.797 51.9174 311.694 165.406 52.3041 311.881 165.939 52.4284 
311.01 166.484 51.9491 311.803 166.329 52.317 310.307 167.11 51.97 
311.407 166.955 52.2043 311.819 166.817 52.3696 310.857 167.651 52.3553 
308.696 153.69 53.2717 308.684 153.892 53.0694 308.927 153.789 53.3921 
308.471 154.008 52.9624 308.357 154.434 52.7979 309.115 154.338 53.1591 
309.14 154.102 53.4005 308.791 155.026 52.7496 308.077 155.709 52.3772 
309.324 155.748 52.8466 307.653 155.963 52.2815 309.932 156.515 53.1521 
309.204 158.901 52.0074 310.293 159.008 52.8657 308.043 161.069 51.5884 
309.418 160.799 51.7494 311.147 161.219 53.2554 311.909 164.667 53.0382 
312.028 166.568 52.6914 312.022 166.956 52.5321 311.948 167.109 52.4997 
312.031 167.122 52.5758 311.407 167.822 52.8403 309.083 168.501 52.8309 
310.71 168.238 52.9457 306.879 153.569 53.3998 306.511 153.222 53.9124 
308.069 153.556 53.2827 308.375 153.499 53.4521 309.321 154.315 53.797 
306.19 155.243 52.562 309.906 156.144 53.3524 311.575 162.574 53.4344 
312.048 167.029 52.6757 312.015 167.087 53.0008 301.072 168.875 53.0908 
311.141 168.101 52.9724 311.373 168.031 53.1644 309.91 168.887 53.736 
308.585 169.243 53.6173 302.551 153.039 54.8503 302.263 153.117 54.8885 
307.026 153.033 54.3105 307.694 153.177 54.1536 308.342 153.396 53.9548 
299.854 153.967 54.5813 298.444 155.516 53.9427 310.117 156.435 54.3914 
310.622 158.626 54.1245 311.459 161.941 54.5819 312.112 166.755 53.7336 
311.799 167.505 54.0269 308.89 169.459 54.1519 299.378 171.934 54.7723 
302.503 152.952 55.0279 305.59 152.637 55.2284 306.881 152.871 54.9265 
308.082 153.277 54.6875 296.523 153.778 55.0962 302.508 152.81 55.4824 
291.992 154.763 55.1582 297.156 154.272 54.7066 291.352 155.026 55.1719 
309.815 155.691 55.1031 311.263 161.327 55.0864 311.965 166.481 54.9999 
311.156 168.339 54.3802 308.923 169.616 54.6088 299.788 172.279 55.1906 
300.345 172.364 55.5123 287.395 173.235 55.4418 287.664 173.649 55.6153 
298.369 172.898 55.518 299.771 172.65 55.7124 289.416 173.929 55.6526 
293.647 173.412 55.3978 294.255 173.51 55.5228 293.97 173.635 55.5635 
289.192 174.453 55.9503 296.022 152.573 56.6512 301.432 152.598 56.0361 
305.834 152.591 55.5444 308.127 153.348 55.3276 308.394 153.601 55.6238 
290.381 154.132 55.7534 288.689 155.302 55.6146 286.587 158.988 55.5765 
284.096 161.138 57.2836 284.906 163.078 55.9593 311.43 167.824 55.4846 
283.975 170.106 56.0908 285.282 169.834 55.3873 283.395 171.109 56.6163 
303.764 171.591 55.5815 283.281 173.946 57.3908 283.456 174.341 57.4727 
287.809 174.157 56.0244 294.342 174.154 56.5813 294.158 173.776 55.8107 
297.738 173.514 56.3439 283.81 174.552 57.4034 283.651 174.66 57.6715 
291.031 174.702 56.7905 284.803 174.994 57.4945 285.525 175.04 57.3239 
286.078 152.607 57.8897 285.624 152.86 58.0156 287.282 152.254 57.6614 
287.698 151.89 58.0816 289.312 152.153 57.5274 286.359 152.876 57.4312 
287.296 153.063 56.9468 285.963 154.065 57.0103 285.773 154.833 56.8925 
285.128 155.761 57.2068 284.765 155.956 57.6551 283.999 160.281 57.8909 
282.879 166.332 57.834 311.673 166.015 56.4599 282.626 171.259 57.6636 
282.602 172.829 58.1022 296.964 173.992 57.2578 283.332 174.458 57.8383 
284.213 175.146 58.2221 284.717 175.258 58.0422 285.478 152.752 58.4011 
285.584 152.524 58.8276 286.834 151.853 58.8393 284.331 157.061 58.3837 
311.354 166.84 57.2076 309.504 169.553 57.4625 282.398 172.591 58.6021 
298.49 173.754 57.6477 283.144 174.47 58.7755 284.029 175.123 58.7407 
285.272 175.518 58.4968 284.927 153.442 59.4149 307.893 154.594 58.5209 
308.874 156.437 58.5399 283.828 159.082 59.5015 283.356 161.946 58.8557 
311 165.039 58.2939 311.117 167.117 57.7064 282.262 170.25 58.9336 
310.253 168.49 58.1659 282.307 172.215 58.9844 284.511 175.358 59.3682 
286.066 152.125 60.5593 285.613 152.453 59.9527 287.294 151.545 60.1621 
308.766 157.345 59.2627 283.464 161.125 60.2555 295.931 174.539 59.9896 
290.842 175.494 60.1598 285.737 175.71 59.6468 285.105 153.188 60.6081 
296.16 152.32 60.9315 306.432 154.008 59.6952 284.095 158.49 61.7189 
308.735 163.833 60.9605 309.911 167.403 59.8257 282.35 169.786 60.9952 
301.14 172.934 60.4752 283.81 174.607 61.6267 285.661 152.643 61.521 
288.869 151.334 61.3329 290.118 151.361 61.8296 290.031 151.342 61.9679 
290.647 151.527 61.937 284.901 153.931 61.31 300.6 153.121 61.0923 
306.241 154.649 60.5213 284.584 155.352 61.5979 306.588 156.06 61.075 
306.488 161.122 62.0466 283.431 162.938 62.0684 282.967 164.591 61.3626 
307.905 166.871 61.5351 301.572 172.302 61.8541 284.301 174.82 62.3359 
288.174 175.569 62.2031 289.831 175.489 62.0369 286.72 152.151 62.7513 
286.324 152.363 62.546 288.464 151.531 62.508 289.942 151.384 62.0889 
290.121 151.584 62.509 295.866 152.815 62.4472 302.288 155.077 62.5943 
303.978 156.25 62.4609 305.313 155.786 61.7096 304.639 167.892 63.0093 
304.656 170.297 62.2044 287.469 152.044 63.3238 287.317 152.292 63.6394 
284.642 160.143 63.8242 283.167 166.566 63.0238 302.896 169.197 63.614 
302.8 171.051 62.7304 300.852 171.745 63.1833 288.472 175.104 63.6051 
290.23 175.007 63.4479 286.936 152.5 63.5986 286.597 152.985 63.7286 
294.798 153.412 63.8057 285.58 159.722 64.9041 284.052 165.98 64.363 
299.065 169.965 64.8173 283.209 171.35 64.3329 299.113 170.536 64.6681 
283.407 172.134 64.803 297.773 172.575 63.8537 283.863 173.853 64.6336 
284.023 174.093 64.4713 285.608 174.663 64.4171 288.987 174.735 64.2162 
287.488 153.254 64.6502 286.963 153.36 64.3644 295.405 154.414 64.4392 
286.491 155.581 64.9187 294.579 155.011 64.952 283.623 169.888 64.7383 
283.776 170.31 65.0641 293.087 169.899 65.989 283.43 171.184 64.83 
296.528 170.423 65.2488 292.398 171.756 65.8493 297.204 171.143 64.8839 
297.771 171.887 64.3572 283.78 173.397 65.0208 293.244 172.849 65.2108 
284.429 174.088 65.0763 287.663 174.365 64.8703 288.547 174.324 64.8206 
287.808 154.222 65.2535 289.893 153.7 65.2534 288.398 154.716 65.5644 
286.759 159.004 65.571 288.199 159.182 66.026 288.799 158.804 66.1014 
286.224 160.989 65.4695 285.229 165.92 65.3905 285.986 165.973 65.8121 
285.131 167.098 65.4904 287.348 167.337 66.2869 284.091 170.639 65.424 
284.651 170.53 65.7298 283.605 171.44 65.1114 283.979 171.431 65.4507 
285.001 172.049 65.9911 284.25 172.732 65.6446 284.209 173.288 65.4978 
285.024 173.642 65.7759 286.667 173.412 65.7567 291.835 172.832 65.495 
284.417 173.695 65.5117 285.201 173.844 65.6712 284.472 173.921 65.3772 
284.633 173.844 65.5449 284.647 170.646 389.149 284.301 172.081 389.524 
284.709 172.566 389.356 284.854 173.689 389.864 285.572 173.708 389.501 
285.724 174.022 389.838 288.018 153.254 390.196 289.809 152.719 390.475 
287.453 154.525 389.859 291.982 154.176 389.852 288.656 155.192 389.323 
290.055 154.897 389.293 286.199 156.446 390.155 290.754 157.638 388.955 
286.02 159.108 389.894 288.86 158.579 388.925 286.257 161.198 389.557 
286.828 162.108 389.223 285.308 163.068 390.01 287.376 167.05 388.758 
285.528 169.289 389.086 283.8 170.488 389.895 285.65 171.424 388.897 
287.162 170.992 388.735 285.705 172.213 388.956 283.823 172.691 390.265 
286.341 172.764 389.031 287.091 172.651 388.997 291.473 172.271 389.137 
285.663 173.395 389.3 286.26 173.362 389.27 287.835 173.242 389.266 
292.839 173.033 389.701 284.085 173.565 390.545 286.851 173.853 389.638 
291.256 173.523 389.727 292.92 173.554 390.075 285.141 174.27 390.578 
291.335 152.762 390.601 294.119 153.99 390.537 294.708 153.473 391.142 
296.508 153.778 391.29 286.137 154.493 390.786 295.528 154.632 390.438 
296.323 154.642 390.609 285.704 155.949 390.666 285.548 155.435 391.003 
292.576 157.466 389.162 285.578 158.924 390.279 284.899 162.049 390.588 
284.629 163.766 390.414 283.504 168.664 390.452 283.33 168.215 390.828 
295.69 170.566 389.556 299.097 170.066 390.158 283.43 171.292 390.449 
299.161 170.617 390.296 299.513 170.952 390.517 297.028 171.765 390.214 
298.845 171.676 390.71 283.385 172.655 391.085 293.246 173.903 390.547 
297.57 172.833 391.085 285.739 174.675 391.108 287.428 174.733 390.843 
291.905 174.345 390.715 287.28 152.153 391.538 287.432 151.918 391.822 
286.524 152.996 391.389 289.228 151.893 391.715 292.319 152.602 391.273 
292.477 152.298 391.874 295.426 153.103 391.824 300.493 154.282 391.929 
285.748 154.163 391.322 285.29 155.087 391.6 285.284 158.424 390.728 
284.378 162.034 391.236 283.881 164.125 391.369 302.359 167.435 391.001 
303.006 170.59 391.854 283.248 172.074 391.067 300.254 171.59 391.201 
301.656 171.546 391.938 283.284 173.039 392.198 298.206 172.887 391.443 
300.35 172.099 391.714 283.973 173.879 391.538 285.034 174.797 392.093 
291.009 174.83 391.425 288.339 151.465 392.561 290.872 151.793 392.374 
299.361 153.306 392.743 302.285 153.908 392.931 302.948 154.157 392.941 
301.585 155.002 391.92 302.976 155.326 392.292 304.832 170.099 392.672 
299.772 172.911 392.525 289.105 175.27 392.316 286.34 152.337 392.723 
287.673 151.559 393.115 288.314 151.358 393.273 290.178 151.323 393.293 
290.017 151.355 393.243 290.31 151.346 393.388 285.911 152.732 392.602 
285.954 152.526 393.048 294.991 152.282 393.359 298.154 152.764 393.425 
301.167 153.198 393.507 303.611 156.716 392.157 306.393 158.375 393.222 
283.911 160.984 392.633 306.874 164.157 392.857 307.964 167.02 393.458 
307.286 168.004 393.323 307.881 168.358 393.823 307.867 168.954 394.226 
303.487 171.455 393.177 286.344 152.083 394.196 288.843 151.289 393.536 
285.43 153.077 393.713 306.878 154.164 394.779 307.13 154.287 394.991 
307.146 155.067 394.542 308.783 164.033 394.06 309.327 165.754 394.325 
306.132 170.323 394.235 299.038 173.72 394.244 284.181 175.023 394.371 
284.876 175.424 394.617 285.745 152.571 394.408 291.181 151.466 394.859 
306.21 153.571 395.096 306.718 153.728 395.25 284.601 154.664 394.624 
[...]
POINT_DATA 623
COLOR_SCALARS scalars 3
0.0823529 0.690196 0.701961 0.0823529 0.690196 0.701961 0.0823529 0.690196 0.701961 
0.0823529 0.690196 0.701961 0.0823529 0.690196 0.701961 
0.0823529 0.690196 0.701961 0.0823529 0.690196 0.701961 
0.0823529 0.690196 0.701961 0.0823529 0.690196 0.701961 
0.0823529 0.690196 0.701961 0.0823529 0.690196 0.701961 
0.0823529 0.690196 0.701961 0.0823529 0.690196 0.701961 
0.0823529 0.690196 0.701961 0.0823529 0.690196 0.701961 
0.0823529 0.690196 0.701961 0.0823529 0.690196 0.701961 
0.0823529 0.690196 0.701961 0.0823529 0.690196 0.701961 
0.0823529 0.690196 0.701961 0.0823529 0.690196 0.701961 
0.0823529 0.690196 0.701961 0.0823529 0.690196 0.701961 
0.0823529 0.690196 0.701961 0.0823529 0.690196 0.701961 
0.0823529 0.690196 0.701961 0.0823529 0.690196 0.701961 
0.0823529 0.690196 0.701961 0.0823529 0.690196 0.701961 
0.0823529 0.690196 0.701961 0.0823529 0.690196 0.701961 
0.0823529 0.690196 0.701961 0.0823529 0.690196 0.701961 
0.0823529 0.690196 0.701961 0.0823529 0.690196 0.701961 
0.0823529 0.690196 0.701961 0.0823529 0.690196 0.701961 
0.0823529 0.690196 0.701961 0.0823529 0.690196 0.701961 
0.0823529 0.690196 0.701961 0.0823529 0.690196 0.701961 
0.0823529 0.690196 0.701961 0.0823529 0.690196 0.701961 
0.0823529 0.690196 0.701961 0.0823529 0.690196 0.701961 
0.0823529 0.690196 0.701961 0.0823529 0.690196 0.701961 
0.0823529 0.690196 0.701961 0.0823529 0.690196 0.701961 
0.0823529 0.690196 0.701961 0.0823529 0.690196 0.701961 
0.0823529 0.690196 0.701961 0.0823529 0.690196 0.701961 
0.0823529 0.690196 0.701961 0.0823529 0.690196 0.701961 
0.0823529 0.690196 0.701961 0.0823529 0.690196 0.701961 
0.0823529 0.690196 0.701961 0.0823529 0.690196 0.701961 
0.0823529 0.690196 0.701961 0.0823529 0.690196 0.701961 
0.0823529 0.690196 0.701961 0.0823529 0.690196 0.701961 
0.0823529 0.690196 0.701961 0.0823529 0.690196 0.701961 
0.0823529 0.690196 0.701961 0.0823529 0.690196 0.701961 
0.0823529 0.690196 0.701961 0.0823529 0.690196 0.701961 
0.0823529 0.690196 0.701961 0.0823529 0.690196 0.701961 
0.0823529 0.690196 0.701961 0.0823529 0.690196 0.701961 
0.0823529 0.690196 0.701961 0.0823529 0.690196 0.701961 
0.0823529 0.690196 0.701961 0.0823529 0.690196 0.701961 
0.0823529 0.690196 0.701961 0.0823529 0.690196 0.701961 
0.0823529 0.690196 0.701961 0.0823529 0.690196 0.701961 
0.0823529 0.690196 0.701961 0.0823529 0.690196 0.701961 
0.0823529 0.690196 0.701961 0.0823529 0.690196 0.701961 
0.0823529 0.690196 0.701961 0.0823529 0.690196 0.701961 
0.0823529 0.690196 0.701961 0.0823529 0.690196 0.701961 
0.0823529 0.690196 0.701961 0.0823529 0.690196 0.701961 
0.0823529 0.690196 0.701961 0.0823529 0.690196 0.701961 
0.0823529 0.690196 0.701961 0.0823529 0.690196 0.701961 
0.0823529 0.690196 0.701961 0.0823529 0.690196 0.701961 
0.0823529 0.690196 0.701961 0.0823529 0.690196 0.701961 
0.0823529 0.690196 0.701961 0.0823529 0.690196 0.701961 
0.0823529 0.690196 0.701961 0.0823529 0.690196 0.701961 
0.0823529 0.690196 0.701961 0.0823529 0.690196 0.701961 
0.0823529 0.690196 0.701961 0.0823529 0.690196 0.701961 
0.0823529 0.690196 0.701961 0.0823529 0.690196 0.701961 
0.0823529 0.690196 0.701961 0.0823529 0.690196 0.701961 
0.0823529 0.690196 0.701961 0.0823529 0.690196 0.701961 
0.0823529 0.690196 0.701961 0.0823529 0.690196 0.701961 
0.0823529 0.690196 0.701961 0.0823529 0.690196 0.701961 
0.0823529 0.690196 0.701961 0.0823529 0.690196 0.701961 
0.0823529 0.690196 0.701961 0.0823529 0.690196 0.701961 
0.0823529 0.690196 0.701961 0.0823529 0.690196 0.701961 
0.0823529 0.690196 0.701961 0.0823529 0.690196 0.701961 
0.0823529 0.690196 0.701961 0.0823529 0.690196 0.701961 
0.0823529 0.690196 0.701961 0.0823529 0.690196 0.701961 
0.0823529 0.690196 0.701961 0.0823529 0.690196 0.701961 
0.0823529 0.690196 0.701961 0.0823529 0.690196 0.701961 
0.0823529 0.690196 0.701961 0.0823529 0.690196 0.701961 
0.0823529 0.690196 0.701961 0.0823529 0.690196 0.701961 
0.0823529 0.690196 0.701961 0.0823529 0.690196 0.701961 
0.0823529 0.690196 0.701961 0.0823529 0.690196 0.701961 
0.0823529 0.690196 0.701961 0.0823529 0.690196 0.701961 
0.0823529 0.690196 0.701961 0.0823529 0.690196 0.701961 
0.0823529 0.690196 0.701961 0.0823529 0.690196 0.701961 
0.0823529 0.690196 0.701961 0.0823529 0.690196 0.701961 
0.0823529 0.690196 0.701961 0.0823529 0.690196 0.701961 
0.0823529 0.690196 0.701961 0.0823529 0.690196 0.701961 
0.0823529 0.690196 0.701961 0.0823529 0.690196 0.701961 
0.0823529 0.690196 0.701961 0.0823529 0.690196 0.701961 
0.0823529 0.690196 0.701961 0.0823529 0.690196 0.701961 
0.0823529 0.690196 0.701961 0.0823529 0.690196 0.701961 
0.0823529 0.690196 0.701961 0.0823529 0.690196 0.701961 
0.0823529 0.690196 0.701961 0.0823529 0.690196 0.701961 
0.0823529 0.690196 0.701961 0.0823529 0.690196 0.701961 
0.0823529 0.690196 0.701961 0.0823529 0.690196 0.701961 
0.0823529 0.690196 0.701961 0.0823529 0.690196 0.701961 
0.0823529 0.690196 0.701961 0.0823529 0.690196 0.701961 
0.0823529 0.690196 0.701961 0.0823529 0.690196 0.701961 
0.0823529 0.690196 0.701961 0.0823529 0.690196 0.701961 
0.0823529 0.690196 0.701961 0.0823529 0.690196 0.701961 
0.0823529 0.690196 0.701961 0.0823529 0.690196 0.701961 
0.0823529 0.690196 0.701961 0.0823529 0.690196 0.701961 
0.0823529 0.690196 0.701961 0.0823529 0.690196 0.701961 
0.0823529 0.690196 0.701961 0.0823529 0.690196 0.701961 
0.0823529 0.690196 0.701961 0.0823529 0.690196 0.701961 
0.0823529 0.690196 0.701961 0.0823529 0.690196 0.701961 
0.0823529 0.690196 0.701961 0.0823529 0.690196 0.701961 
0.0823529 0.690196 0.701961 0.0823529 0.690196 0.701961 
0.0823529 0.690196 0.701961 0.0823529 0.690196 0.701961 
0.0823529 0.690196 0.701961 0.0823529 0.690196 0.701961 
0.0823529 0.690196 0.701961 0.0823529 0.690196 0.701961 
0.0823529 0.690196 0.701961 0.0823529 0.690196 0.701961 
0.0823529 0.690196 0.701961 0.0823529 0.690196 0.701961 
0.0823529 0.690196 0.701961 0.0823529 0.690196 0.701961 
0.0823529 0.690196 0.701961 0.0823529 0.690196 0.701961 
0.0823529 0.690196 0.701961 0.0823529 0.690196 0.701961 
0.0823529 0.690196 0.701961 0.0823529 0.690196 0.701961 
0.0823529 0.690196 0.701961 0.0823529 0.690196 0.701961 
0.0823529 0.690196 0.701961 0.0823529 0.690196 0.701961 
0.0823529 0.690196 0.701961 0.0823529 0.690196 0.701961 
0.0823529 0.690196 0.701961 0.0823529 0.690196 0.701961 
0.0823529 0.690196 0.701961 0.0823529 0.690196 0.701961 
0.0823529 0.690196 0.701961 0.0823529 0.690196 0.701961 
0.0823529 0.690196 0.701961 0.0823529 0.690196 0.701961 
0.0823529 0.690196 0.701961 0.0823529 0.690196 0.701961 
0.0823529 0.690196 0.701961 0.0823529 0.690196 0.701961 
0.0823529 0.690196 0.701961 0.0823529 0.690196 0.701961 
0.0823529 0.690196 0.701961 0.0823529 0.690196 0.701961 
0.0823529 0.690196 0.701961 0.0823529 0.690196 0.701961 
0.0823529 0.690196 0.701961 0.0823529 0.690196 0.701961 
0.0823529 0.690196 0.701961 0.0823529 0.690196 0.701961 
0.0823529 0.690196 0.701961 0.0823529 0.690196 0.701961 
0.0823529 0.690196 0.701961 0.0823529 0.690196 0.701961 
0.0823529 0.690196 0.701961 0.0823529 0.690196 0.701961 
0.0823529 0.690196 0.701961 0.0823529 0.690196 0.701961 
0.0823529 0.690196 0.701961 0.0823529 0.690196 0.701961 
0.0823529 0.690196 0.701961 0.0823529 0.690196 0.701961 
0.0823529 0.690196 0.701961 0.0823529 0.690196 0.701961 
0.0823529 0.690196 0.701961 0.0823529 0.690196 0.701961 
0.0823529 0.690196 0.701961 0.0823529 0.690196 0.701961 
0.0823529 0.690196 0.701961 0.0823529 0.690196 0.701961 
0.0823529 0.690196 0.701961 0.0823529 0.690196 0.701961 
0.0823529 0.690196 0.701961 0.0823529 0.690196 0.701961 
0.0823529 0.690196 0.701961 0.0823529 0.690196 0.701961 
0.0823529 0.690196 0.701961 0.0823529 0.690196 0.701961 
0.0823529 0.690196 0.701961 0.0823529 0.690196 0.701961 
0.0823529 0.690196 0.701961 0.0823529 0.690196 0.701961 
0.0823529 0.690196 0.701961 0.0823529 0.690196 0.701961 
0.0823529 0.690196 0.701961 0.0823529 0.690196 0.701961 
0.0823529 0.690196 0.701961 0.0823529 0.690196 0.701961 
0.0823529 0.690196 0.701961 0.0823529 0.690196 0.701961 
0.0823529 0.690196 0.701961 0.0823529 0.690196 0.701961 
0.0823529 0.690196 0.701961 0.0823529 0.690196 0.701961 
0.0823529 0.690196 0.701961 0.0823529 0.690196 0.701961 
0.0823529 0.690196 0.701961 0.0823529 0.690196 0.701961 
0.0823529 0.690196 0.701961 0.0823529 0.690196 0.701961 
0.0823529 0.690196 0.701961 0.0823529 0.690196 0.701961 
0.0823529 0.690196 0.701961 0.0823529 0.690196 0.701961 
0.0823529 0.690196 0.701961 0.0823529 0.690196 0.701961 
0.0823529 0.690196 0.701961 0.0823529 0.690196 0.701961 
0.0823529 0.690196 0.701961 0.0823529 0.690196 0.701961 
0.0823529 0.690196 0.701961 0.0823529 0.690196 0.701961 
0.0823529 0.690196 0.701961 0.0823529 0.690196 0.701961 
0.0823529 0.690196 0.701961 0.0823529 0.690196 0.701961 
0.0823529 0.690196 0.701961 0.0823529 0.690196 0.701961 
0.0823529 0.690196 0.701961 0.0823529 0.690196 0.701961 
0.0823529 0.690196 0.701961 0.0823529 0.690196 0.701961 
0.0823529 0.690196 0.701961 0.0823529 0.690196 0.701961 
0.0823529 0.690196 0.701961 0.0823529 0.690196 0.701961 
0.0823529 0.690196 0.701961 0.0823529 0.690196 0.701961 
0.0823529 0.690196 0.701961 0.0823529 0.690196 0.701961 
0.0823529 0.690196 0.701961 0.0823529 0.690196 0.701961 
0.0823529 0.690196 0.701961 0.0823529 0.690196 0.701961 
0.0823529 0.690196 0.701961 0.0823529 0.690196 0.701961 
0.0823529 0.690196 0.701961 0.0823529 0.690196 0.701961 
0.0823529 0.690196 0.701961 0.0823529 0.690196 0.701961 
0.0823529 0.690196 0.701961 0.0823529 0.690196 0.701961 
0.0823529 0.690196 0.701961 0.0823529 0.690196 0.701961 
0.0823529 0.690196 0.701961 0.0823529 0.690196 0.701961 
0.0823529 0.690196 0.701961 0.0823529 0.690196 0.701961 
0.0823529 0.690196 0.701961 0.0823529 0.690196 0.701961 
0.0823529 0.690196 0.701961 0.0823529 0.690196 0.701961 
0.0823529 0.690196 0.701961 0.0823529 0.690196 0.701961 
0.0823529 0.690196 0.701961 0.0823529 0.690196 0.701961 
0.0823529 0.690196 0.701961 0.0823529 0.690196 0.701961 
0.0823529 0.690196 0.701961 0.0823529 0.690196 0.701961 
0.0823529 0.690196 0.701961 0.0823529 0.690196 0.701961 
0.0823529 0.690196 0.701961 0.0823529 0.690196 0.701961 
0.0823529 0.690196 0.701961 0.0823529 0.690196 0.701961 
0.0823529 0.690196 0.701961 0.0823529 0.690196 0.701961 
0.0823529 0.690196 0.701961 0.0823529 0.690196 0.701961 
0.0823529 0.690196 0.701961 0.0823529 0.690196 0.701961 
0.0823529 0.690196 0.701961 0.0823529 0.690196 0.701961 
0.0823529 0.690196 0.701961 0.0823529 0.690196 0.701961 
0.0823529 0.690196 0.701961 0.0823529 0.690196 0.701961 
0.0823529 0.690196 0.701961 0.0823529 0.690196 0.701961 
0.0823529 0.690196 0.701961 0.0823529 0.690196 0.701961 
0.0823529 0.690196 0.701961 0.0823529 0.690196 0.701961 
0.0823529 0.690196 0.701961 0.0823529 0.690196 0.701961 
0.0823529 0.690196 0.701961 0.0823529 0.690196 0.701961 
0.0823529 0.690196 0.701961 0.0823529 0.690196 0.701961 
0.0823529 0.690196 0.701961 0.0823529 0.690196 0.701961 
0.0823529 0.690196 0.701961 0.0823529 0.690196 0.701961 
0.0823529 0.690196 0.701961 0.0823529 0.690196 0.701961 
0.0823529 0.690196 0.701961 0.0823529 0.690196 0.701961 
0.0823529 0.690196 0.701961 0.0823529 0.690196 0.701961 
0.0823529 0.690196 0.701961 0.0823529 0.690196 0.701961 
0.0823529 0.690196 0.701961 0.0823529 0.690196 0.701961 
0.0823529 0.690196 0.701961 0.0823529 0.690196 0.701961 
0.0823529 0.690196 0.701961 0.0823529 0.690196 0.701961 
0.0823529 0.690196 0.701961 0.0823529 0.690196 0.701961 
0.0823529 0.690196 0.701961 0.0823529 0.690196 0.701961 
0.0823529 0.690196 0.701961 0.0823529 0.690196 0.701961 
0.0823529 0.690196 0.701961 0.0823529 0.690196 0.701961 
0.0823529 0.690196 0.701961 0.0823529 0.690196 0.701961 
0.0823529 0.690196 0.701961 0.0823529 0.690196 0.701961 
0.0823529 0.690196 0.701961 0.0823529 0.690196 0.701961 
0.0823529 0.690196 0.701961 0.0823529 0.690196 0.701961 
0.0823529 0.690196 0.701961 0.0823529 0.690196 0.701961 
0.0823529 0.690196 0.701961 0.0823529 0.690196 0.701961 
0.0823529 0.690196 0.701961 0.0823529 0.690196 0.701961 
0.0823529 0.690196 0.701961 0.0823529 0.690196 0.701961 
0.0823529 0.690196 0.701961 0.0823529 0.690196 0.701961 
0.0823529 0.690196 0.701961 0.0823529 0.690196 0.701961 
0.0823529 0.690196 0.701961 0.0823529 0.690196 0.701961 
0.0823529 0.690196 0.701961 0.0823529 0.690196 0.701961 
0.0823529 0.690196 0.701961 0.0823529 0.690196 0.701961 
0.0823529 0.690196 0.701961 0.0823529 0.690196 0.701961 
0.0823529 0.690196 0.701961 0.0823529 0.690196 0.701961 
0.0823529 0.690196 0.701961 0.0823529 0.690196 0.701961 
0.0823529 0.690196 0.701961 0.0823529 0.690196 0.701961 
0.0823529 0.690196 0.701961 0.0823529 0.690196 0.701961 
0.0823529 0.690196 0.701961 0.0823529 0.690196 0.701961 
0.0823529 0.690196 0.701961 0.0823529 0.690196 0.701961 
0.0823529 0.690196 0.701961 0.0823529 0.690196 0.701961 
0.0823529 0.690196 0.701961 0.0823529 0.690196 0.701961 
0.0823529 0.690196 0.701961 0.0823529 0.690196 0.701961 
0.0823529 0.690196 0.701961 0.0823529 0.690196 0.701961 
0.0823529 0.690196 0.701961 0.0823529 0.690196 0.701961 
0.0823529 0.690196 0.701961 0.0823529 0.690196 0.701961 
0.0823529 0.690196 0.701961 0.0823529 0.690196 0.701961 
0.0823529 0.690196 0.701961 0.0823529 0.690196 0.701961 
0.0823529 0.690196 0.701961 0.0823529 0.690196 0.701961 
0.0823529 0.690196 0.701961 0.0823529 0.690196 0.701961 
0.0823529 0.690196 0.701961 0.0823529 0.690196 0.701961 
0.0823529 0.690196 0.701961 0.0823529 0.690196 0.701961 
0.0823529 0.690196 0.701961 0.0823529 0.690196 0.701961 
0.0823529 0.690196 0.701961 0.0823529 0.690196 0.701961 
0.0823529 0.690196 0.701961 0.0823529 0.690196 0.701961 
0.0823529 0.690196 0.701961 0.0823529 0.690196 0.701961 
0.0823529 0.690196 0.701961 0.0823529 0.690196 0.701961 
0.0823529 0.690196 0.701961 0.0823529 0.690196 0.701961 
0.0823529 0.690196 0.701961 0.0823529 0.690196 0.701961 
0.0823529 0.690196 0.701961 0.0823529 0.690196 0.701961 
0.0823529 0.690196 0.701961 0.0823529 0.690196 0.701961 
0.0823529 0.690196 0.701961 0.0823529 0.690196 0.701961 
0.0823529 0.690196 0.701961 0.0823529 0.690196 0.701961 
0.0823529 0.690196 0.701961 0.0823529 0.690196 0.701961 
0.0823529 0.690196 0.701961 0.0823529 0.690196 0.701961 
0.0823529 0.690196 0.701961 0.0823529 0.690196 0.701961 
0.0823529 0.690196 0.701961 0.0823529 0.690196 0.701961 
0.0823529 0.690196 0.701961 0.0823529 0.690196 0.701961 
0.0823529 0.690196 0.701961 0.0823529 0.690196 0.701961 
0.0823529 0.690196 0.701961 0.0823529 0.690196 0.701961 
0.0823529 0.690196 0.701961 0.0823529 0.690196 0.701961 
0.0823529 0.690196 0.701961 0.0823529 0.690196 0.701961 
0.0823529 0.690196 0.701961 0.0823529 0.690196 0.701961 
0.0823529 0.690196 0.701961 0.0823529 0.690196 0.701961 
0.0823529 0.690196 0.701961 0.0823529 0.690196 0.701961 
0.0823529 0.690196 0.701961 0.0823529 0.690196 0.701961 
0.0823529 0.690196 0.701961 0.0823529 0.690196 0.701961 
0.0823529 0.690196 0.701961 0.0823529 0.690196 0.701961 
0.0823529 0.690196 0.701961 0.0823529 0.690196 0.701961 
0.0823529 0.690196 0.701961 0.0823529 0.690196 0.701961 
0.0823529 0.690196 0.701961 0.0823529 0.690196 0.701961 
0.0823529 0.690196 0.701961 0.0823529 0.690196 0.701961 
0.0823529 0.690196 0.701961 0.0823529 0.690196 0.701961 
0.0823529 0.690196 0.701961 0.0823529 0.690196 0.701961 
0.0823529 0.690196 0.701961 0.0823529 0.690196 0.701961 
0.0823529 0.690196 0.701961 0.0823529 0.690196 0.701961 
0.0823529 0.690196 0.701961 0.0823529 0.690196 0.701961 
0.0823529 0.690196 0.701961 0.0823529 0.690196 0.701961 
0.0823529 0.690196 0.701961 0.0823529 0.690196 0.701961 
0.0823529 0.690196 0.701961 0.0823529 0.690196 0.701961 
0.0823529 0.690196 0.701961 0.0823529 0.690196 0.701961 
0.0823529 0.690196 0.701961 0.0823529 0.690196 0.701961 
0.0823529 0.690196 0.701961 0.0823529 0.690196 0.701961 
0.0823529 0.690196 0.701961 0.0823529 0.690196 0.701961 
0.0823529 0.690196 0.701961 0.0823529 0.690196 0.701961 
0.0823529 0.690196 0.701961 0.0823529 0.690196 0.701961 
0.0823529 0.690196 0.701961 0.0823529 0.690196 0.701961 
0.0823529 0.690196 0.701961 0.0823529 0.690196 0.701961 
0.0823529 0.690196 0.701961 0.0823529 0.690196 0.701961 
0.0823529 0.690196 0.701961 0.0823529 0.690196 0.701961 
0.0823529 0.690196 0.701961 0.0823529 0.690196 0.701961 
0.0823529 0.690196 0.701961 0.0823529 0.690196 0.701961 
0.0823529 0.690196 0.701961 0.0823529 0.690196 0.701961 
0.0823529 0.690196 0.701961 0.0823529 0.690196 0.701961 
0.0823529 0.690196 0.701961 0.0823529 0.690196 0.701961 
0.0823529 0.690196 0.701961 0.0823529 0.690196 0.701961 
0.0823529 0.690196 0.701961 0.0823529 0.690196 0.701961 
0.0823529 0.690196 0.701961 0.0823529 0.690196 0.701961 
0.0823529 0.690196 0.701961 0.0823529 0.690196 0.701961 
0.0823529 0.690196 0.701961 0.0823529 0.690196 0.701961 
0.0823529 0.690196 0.701961 0.0823529 0.690196 0.701961 
0.0823529 0.690196 0.701961 0.0823529 0.690196 0.701961 
0.0823529 0.690196 0.701961 0.0823529 0.690196 0.701961 
0.0823529 0.690196 0.701961 0.0823529 0.690196 0.701961 
0.0823529 0.690196 0.701961 0.0823529 0.690196 0.701961 
0.0823529 0.690196 0.701961 0.0823529 0.690196 0.701961 
0.0823529 0.690196 0.701961 0.0823529 0.690196 0.701961 
0.0823529 0.690196 0.701961 0.0823529 0.690196 0.701961 
0.0823529 0.690196 0.701961 0.0823529 0.690196 0.701961 
0.0823529 0.690196 0.701961 0.0823529 0.690196 0.701961 
0.0823529 0.690196 0.701961 0.0823529 0.690196 0.701961 
0.0823529 0.690196 0.701961 0.0823529 0.690196 0.701961 
0.0823529 0.690196 0.701961 0.0823529 0.690196 0.701961 
0.0823529 0.690196 0.701961 0.0823529 0.690196 0.701961 
0.0823529 0.690196 0.701961 0.0823529 0.690196 0.701961 
0.0823529 0.690196 0.701961 0.0823529 0.690196 0.701961 
0.0823529 0.690196 0.701961 0.0823529 0.690196 0.701961 
0.0823529 0.690196 0.701961 0.0823529 0.690196 0.701961 

NORMALS Normals float
0.442437 -0.25515 -0.859737 0.62984 -0.215494 -0.746233 0.365302 -0.108357 -0.924561 
0.825959 -0.265011 -0.497555 0.672944 -0.145488 -0.725245 0.501243 -0.102136 -0.859257 
0.319843 -0.00725956 -0.947443 0.716982 -0.195111 -0.66923 0.749586 -0.0716506 -0.658018 
0.276459 0.197154 -0.940585 0.610807 0.0416085 -0.790685 0.00677839 0.231069 -0.972914 
0.371089 0.315979 -0.873184 0.612835 0.0352736 -0.789423 0.219392 0.600177 -0.769191 
0.303617 -0.798826 -0.519321 0.465593 -0.507473 -0.725048 0.678578 -0.713 -0.176531 
0.129226 -0.459782 -0.878579 0.0701576 -0.353361 -0.932852 0.638428 -0.310387 -0.704323 
0.794598 -0.447386 -0.410439 0.26874 -0.270574 -0.924429 0.187524 -0.192453 -0.963222 
0.475702 -0.182335 -0.860501 0.132094 -0.107858 -0.985352 0.871487 -0.223596 -0.43648 
0.352288 -0.223316 -0.908858 0.814534 -0.217911 -0.537632 0.0212464 -0.0973476 -0.995024 
0.196029 -0.218779 -0.955881 0.916544 -0.274031 -0.291298 0.955894 -0.169192 -0.240087 
0.956624 -0.0518678 -0.286671 0.837559 -0.010497 -0.546247 0.493187 0.350559 -0.796163 
0.842144 0.424476 -0.332587 0.463944 0.648346 -0.603659 0.147337 0.716621 -0.681723 
0.213058 0.86288 -0.458306 -0.113805 -0.645574 -0.755171 0.0116634 -0.901931 -0.431724 
0.00782319 -0.787475 -0.616297 0.186429 -0.928527 -0.321065 0.890741 -0.450092 -0.0632258 
-0.0688132 -0.311677 -0.947693 0.896725 -0.320958 -0.304747 0.944316 -0.287457 -0.160113 
0.998462 0.0360474 -0.0421155 0.956808 0.284647 0.0591068 -0.0608121 0.402616 -0.913347 
0.392329 0.800801 -0.452545 0.662669 0.734321 -0.147118 0.32638 0.869994 -0.369575 
0.12279 0.803988 -0.58183 -0.046394 -0.842048 -0.537403 -0.290162 -0.778853 -0.556052 
0.112761 -0.963919 -0.241133 0.143384 -0.941989 -0.303476 0.339108 -0.931501 -0.131576 
-0.149786 -0.70745 -0.690708 -0.206369 -0.240654 -0.948418 0.965312 -0.241432 -0.0994186 
0.963548 -0.254458 0.0826203 0.974199 -0.222905 0.035355 0.978705 0.204933 0.0118125 
0.876697 0.472669 0.0893618 0.210912 0.873869 -0.438029 0.0731462 0.656135 -0.75109 
-0.0772265 -0.924982 -0.372081 -0.0262769 -0.965617 -0.258638 0.181113 -0.983434 0.0074645 