# vtk DataFile Version 4.2
vtk output
ASCII
DATASET POLYDATA
POINTS 587 float
281.964 260.084 172.937 281.539 260.261 172.987 285.201 260.182 173.052 
285.094 259.838 173.115 284.373 260.603 172.976 285.517 260.356 173.144 
277.672 260.036 173.772 280.699 259.319 173.45 281.128 258.831 173.675 
285.396 258.997 173.61 286.746 259.235 173.876 287.319 259.642 174.005 
287.44 259.441 174.229 276.241 260.426 173.932 276.092 260.8 173.819 
277.733 260.717 173.499 275.528 261.421 173.899 278.262 261.144 173.363 
282.297 261.048 172.989 287.067 260.508 173.817 287.419 260.351 174.147 
275.614 262.024 173.849 276.499 261.786 173.595 279.777 261.604 173.258 
287.107 260.876 173.914 283.978 262.162 173.511 286.461 261.515 173.973 
278.837 258.17 174.802 280.332 257.985 174.664 283.432 258.338 173.934 
284.792 258.098 174.352 286.215 258.406 174.385 287.206 258.872 174.575 
287.458 259.204 174.505 287.563 259.586 174.499 287.508 260.514 174.498 
273.798 262.285 174.573 287.25 260.95 174.091 274.141 262.558 174.415 
285.735 262.394 174.218 287.214 261.12 174.313 275.443 263.41 174.203 
277.683 263.474 173.987 279.116 263.953 174.355 279.651 257.355 176.038 
280.926 257.593 175.179 285.006 257.643 175.336 285.95 258.072 174.775 
286.282 258.038 175.166 286.682 258.241 175.096 286.909 258.417 175.232 
287.237 258.849 175.102 287.404 259.027 174.736 273.697 259.911 175.539 
287.582 259.765 174.875 272.274 261.819 175.541 279.652 264.366 174.858 
284.062 263.711 175.106 286.076 262.954 175.326 285.458 257.666 175.786 
286.066 257.903 175.657 275.55 258.418 176.104 287.368 260.254 175.888 
271.786 260.379 176.587 286.66 262.517 175.596 286.699 262.433 175.798 
271.029 265.214 176.11 284.331 263.771 175.575 271.559 265.585 175.986 
279.5 265.094 175.99 281.811 264.446 176.024 283.711 263.98 175.946 
285.101 263.5 176.148 271.776 266.162 176.095 275.55 266.342 175.961 
279.444 256.938 177.601 285.243 257.609 176.384 286.805 258.666 176.211 
275.29 257.831 177.691 287.053 259.228 176.312 272.397 259.429 177.041 
286.965 260.707 176.818 286.085 262.674 176.709 270.389 264.715 176.327 
283.263 264.06 176.541 283.683 263.812 176.995 272.14 266.82 176.27 
275.596 267.395 176.888 277.684 266.319 177.44 270.571 268.639 177.279 
276.509 267.489 177.827 285.733 257.983 176.85 286.389 258.406 176.641 
286.841 259.497 176.878 285.659 262.475 177.522 280.543 264.804 177.63 
281.141 264.339 178.116 283.632 263.533 177.612 278.931 265.522 177.894 
267.793 267.025 177.77 276.432 267.909 178.418 271.984 270.449 177.934 
272.409 270.857 178.147 274.942 269.98 178.576 275.211 270.466 179.126 
277.357 257.054 179.545 285.271 258.366 178.217 275.096 257.492 179.475 
267.216 261.549 178.941 285.18 261.546 178.626 281.463 263.955 178.527 
278.217 265.742 179.142 277.117 267.175 179.138 276.239 269.082 179.797 
275.439 271.66 180.077 273.679 272.727 179.525 278.988 256.949 179.974 
283.71 257.543 178.71 285.143 259.652 179.223 279.237 264.092 180.253 
277.841 265.895 179.9 268.643 273.076 179.893 275.829 271.851 180.655 
276.29 257.207 180.328 283.968 258.531 179.945 271.667 258.311 180.659 
284.113 258.979 180.144 283.964 259.188 180.361 261.346 267.318 181.443 
277.014 266.947 181.278 276.074 271.698 181.02 274.13 274.122 180.848 
274.187 274.921 181.913 275.589 257.486 181.688 279.558 257.254 181.264 
283.377 258.269 180.281 271.538 258.222 182.266 266.399 259.592 182.528 
282.88 259.011 181.267 265.14 260.122 182.148 282.395 259.512 181.597 
281.36 260.907 181.594 261.714 263.324 182.006 260.723 266.126 181.997 
275.04 274.343 182.278 274.06 275.204 182.294 273.235 275.962 182.658 
278.93 257.513 182.082 280.941 257.626 181.416 271.347 258.311 182.803 
282.517 258.716 181.398 280.609 259.86 182.537 277.512 263.099 183.206 
259.733 264.34 183.696 259.948 265.65 182.898 276.195 272.619 182.809 
275.426 273.997 183.071 273.683 275.951 183.948 267.119 277.646 183.37 
271.324 277.03 182.803 279.309 257.692 182.279 280.67 257.975 182.038 
279.396 258.066 182.619 280.68 258.34 182.404 281.289 258.533 182.123 
280.746 258.631 182.519 270.363 258.75 183.84 279.862 259.077 182.943 
280.873 259.02 182.492 261.753 261.645 183.81 277.691 261.648 183.668 
277.262 261.438 184.059 276.484 266.463 184.097 258.328 271.152 184.395 
274.087 275.498 184.351 272.213 277.301 184.184 268.43 278.647 184.103 
268.832 278.753 184.219 269.064 278.889 184.534 269.993 278.462 184.092 
270.532 278.372 184.305 270.999 258.628 183.792 264.028 260.038 184.791 
262.615 260.749 184.771 276.624 260.721 184.512 260.009 262.879 185.24 
276.418 262.512 184.647 259.35 263.834 184.968 276.399 263.455 184.599 
276.089 263.677 185.044 257.518 266.468 185.707 260.339 275.739 185.107 
262.691 277.683 185.179 271.102 278.181 184.772 269.375 278.949 184.916 
270.007 278.732 184.892 268.875 279.155 185.252 264.867 259.929 185.221 
269.62 259.479 185.094 275.48 259.626 184.595 276.212 259.454 184.291 
262.966 260.696 185.74 267.176 259.994 185.824 275.634 260.236 184.87 
260.603 262.313 186.197 275.534 262.766 185.593 258.222 264.909 185.973 
258.737 275.278 185.944 260.755 277.122 185.907 263.218 278.571 185.871 
262.711 278.584 186.216 269.187 278.997 185.742 270.147 278.534 185.813 
264.379 279.135 186.481 266.134 279.317 186.085 266.492 279.363 186.222 
262.007 261.611 187.005 269.703 260.779 186.809 273.729 261.868 186.586 
257.979 264.934 187.182 255.717 269.67 187.714 255.711 270.935 187.738 
256.317 273.121 187.238 260.794 278.137 187.107 268.614 278.533 187.061 
261.869 278.695 187.228 262.796 278.838 186.675 266.711 279.275 186.541 
263.323 279.181 187.338 263.788 279.212 187.319 260.762 262.47 187.592 
274.019 262.504 186.779 256.234 267.755 187.961 255.644 269.214 188.561 
275.593 269.566 187.307 275.511 270.924 187.113 255.49 271.767 188.598 
257.056 275.859 188.161 259.154 277.629 187.743 258.875 277.651 188.152 
260.15 278.231 187.914 259.751 278.145 188.348 267.203 278.332 188.029 
261.224 278.694 188.057 262.298 278.928 188.173 263.82 279.019 188.047 
261.889 261.976 187.805 263.164 261.839 188.054 260.502 262.792 187.95 
263.589 262.377 188.787 274.824 266.869 188.151 274.494 272.152 188 
272.101 274.353 188.803 257.594 276.848 188.713 257.817 277.2 189.079 
257.508 277.054 189.486 264.541 278.443 188.872 258.935 277.839 189.049 
259.646 278.093 188.89 261.202 278.479 188.896 259.982 263.883 189.457 
256.517 267.186 189.395 274.549 268.76 188.974 255.577 269.478 190.109 
273.698 271.124 189.487 256.832 276.402 189.938 257.484 277.009 189.881 
257.893 277.204 190.018 261.054 277.866 190.026 273.601 269.011 189.954 
271.49 271.752 190.796 255.377 272.967 190.842 267.1 275.072 191.008 
256.418 275.552 191.127 257.685 276.7 190.888 262.361 277.378 190.577 
258.86 266.051 191.341 262.283 266.005 191.867 256.697 268.05 191.329 
273.055 268.118 190.212 266.72 273.696 192.068 256.599 275.564 191.637 
259.451 267.271 192.692 259.822 267.565 192.968 265.373 269.239 193.012 
255.47 271.536 191.824 267.643 271.592 192.465 256.51 274.896 192.414 
256.723 269.718 193.06 258.844 268.769 193.623 255.858 273.18 192.828 
256.154 273.624 193.065 262.261 273.475 193.853 256.84 274.227 193.331 
260.466 274.03 193.907 258.949 269.81 194.316 256.006 271.904 193.278 
259.244 270.327 194.575 261.693 270.8 194.425 256.038 272.401 193.426 
263.083 271.638 194.136 263.775 271.935 193.832 256.192 272.55 193.64 
262.548 272.24 194.234 257.337 273.336 194.126 258.698 273.297 194.434 
257.786 270.262 194.243 256.803 271.249 194.077 257.072 271.451 194.33 
257.331 272.37 194.464 259.23 272.244 194.845 257.603 271.991 194.612 
260.046 271.844 194.907 257.863 270.931 260.274 259.534 271.186 260.125 
257.391 271.434 260.423 257.02 271.4 260.676 258.896 271.946 260.13 
257.403 270.236 260.779 258.588 270.133 260.464 256.831 270.87 260.971 
262.419 271.332 260.722 257.004 272.568 260.89 256.045 270.892 261.929 
265.129 271.762 261.684 255.839 272.244 262.345 263.133 273.053 261.24 
256.427 273.094 261.727 257.42 273.624 261.194 259.531 273.944 260.938 
260.521 274.372 261.304 259.727 267.405 262.096 262.885 268.284 261.804 
258.472 275.236 262.16 255.668 269.555 263.43 271.396 269.322 263.792 
271.87 270.579 264.011 255.369 271.756 263.504 255.692 273.878 264.161 
256.805 275.099 263.111 257.414 275.406 262.868 260.282 276.211 262.973 
258.693 265.409 264.379 259.987 265.092 264.122 257.674 265.944 264.689 
256.038 268.444 264.109 274.198 268.335 265.575 255.25 271.111 264.102 
272.202 270.905 264.247 269.968 271.919 263.571 255.943 274.7 265.065 
256.48 275.457 264.301 256.336 275.396 264.964 256.907 275.856 264.083 
258.591 264.547 265.977 257.664 265.43 265.85 256.888 266.48 265.288 
266.115 265.686 263.917 272.132 265.644 265.183 274.104 265.843 266.18 
256.251 267.619 264.948 272.975 266.091 265.298 274.269 269.461 265.744 
255.19 271.977 265.026 271.796 271.854 264.396 256.543 275.737 265.762 
261.691 277.574 264.576 257.715 277.042 265.219 258.134 277.241 265.086 
261.783 262.364 266.629 263.073 262.534 266.037 256.602 266.671 266.221 
272.162 273.953 266.002 256.567 275.61 266.396 257.639 277.013 265.611 
257.841 277.107 266.069 258.67 277.685 265.94 259.297 277.852 265.591 
261.777 278.285 265.637 259.068 277.862 265.921 268.072 262.233 266.657 
274.061 263.57 267.357 275.581 269.348 267.669 267.396 277.875 266.512 
259.573 278.016 266.728 265.186 278.635 266.585 261.959 278.843 266.646 
260.132 262.706 268.216 271.587 261.384 267.85 256.432 267.444 267.733 
255.667 270.1 267.365 256.213 273.737 267.667 257.381 276.106 267.217 
259.24 277.635 267.406 261.706 278.892 267.3 264.81 279.083 267.348 
262.838 279.246 267.471 263.359 279.291 267.713 262.514 260.915 269.353 
274.738 260.189 269.728 276.157 260.83 270.228 261.148 261.823 269.147 
259.592 263.25 269.38 255.829 271.993 267.737 256.828 273.326 268.621 
258.53 275.619 268.708 271.545 277.583 269.029 263.188 278.743 268.84 
263.705 278.938 268.797 264.135 279.124 268.474 265.259 279.189 268.776 
[...]
POINT_DATA 587
COLOR_SCALARS scalars 3
0.94902 0.282353 0.231373 0.94902 0.282353 0.231373 0.94902 0.282353 0.231373 
0.94902 0.282353 0.231373 0.94902 0.282353 0.231373 
0.94902 0.282353 0.231373 0.94902 0.282353 0.231373 
0.94902 0.282353 0.231373 0.94902 0.282353 0.231373 
0.94902 0.282353 0.231373 0.94902 0.282353 0.231373 
0.94902 0.282353 0.231373 0.94902 0.282353 0.231373 
0.94902 0.282353 0.231373 0.94902 0.282353 0.231373 
0.94902 0.282353 0.231373 0.94902 0.282353 0.231373 
0.94902 0.282353 0.231373 0.94902 0.282353 0.231373 
0.94902 0.282353 0.231373 0.94902 0.282353 0.231373 
0.94902 0.282353 0.231373 0.94902 0.282353 0.231373 
0.94902 0.282353 0.231373 0.94902 0.282353 0.231373 
0.94902 0.282353 0.231373 0.94902 0.282353 0.231373 
0.94902 0.282353 0.231373 0.94902 0.282353 0.231373 
0.94902 0.282353 0.231373 0.94902 0.282353 0.231373 
0.94902 0.282353 0.231373 0.94902 0.282353 0.231373 
0.94902 0.282353 0.231373 0.94902 0.282353 0.231373 
0.94902 0.282353 0.231373 0.94902 0.282353 0.231373 
0.94902 0.282353 0.231373 0.94902 0.282353 0.231373 
0.94902 0.282353 0.231373 0.94902 0.282353 0.231373 
0.94902 0.282353 0.231373 0.94902 0.282353 0.231373 
0.94902 0.282353 0.231373 0.94902 0.282353 0.231373 
0.94902 0.282353 0.231373 0.94902 0.282353 0.231373 
0.94902 0.282353 0.231373 0.94902 0.282353 0.231373 
0.94902 0.282353 0.231373 0.94902 0.282353 0.231373 
0.94902 0.282353 0.231373 0.94902 0.282353 0.231373 
0.94902 0.282353 0.231373 0.94902 0.282353 0.231373 
0.94902 0.282353 0.231373 0.94902 0.282353 0.231373 
0.94902 0.282353 0.231373 0.94902 0.282353 0.231373 
0.94902 0.282353 0.231373 0.94902 0.282353 0.231373 
0.94902 0.282353 0.231373 0.94902 0.282353 0.231373 
0.94902 0.282353 0.231373 0.94902 0.282353 0.231373 
0.94902 0.282353 0.231373 0.94902 0.282353 0.231373 
0.94902 0.282353 0.231373 0.94902 0.282353 0.231373 
0.94902 0.282353 0.231373 0.94902 0.282353 0.231373 
0.94902 0.282353 0.231373 0.94902 0.282353 0.231373 
0.94902 0.282353 0.231373 0.94902 0.282353 0.231373 
0.94902 0.282353 0.231373 0.94902 0.282353 0.231373 
0.94902 0.282353 0.231373 0.94902 0.282353 0.231373 
0.94902 0.282353 0.231373 0.94902 0.282353 0.231373 
0.94902 0.282353 0.231373 0.94902 0.282353 0.231373 
0.94902 0.282353 0.231373 0.94902 0.282353 0.231373 
0.94902 0.282353 0.231373 0.94902 0.282353 0.231373 
0.94902 0.282353 0.231373 0.94902 0.282353 0.231373 
0.94902 0.282353 0.231373 0.94902 0.282353 0.231373 
0.94902 0.282353 0.231373 0.94902 0.282353 0.231373 
0.94902 0.282353 0.231373 0.94902 0.282353 0.231373 
0.94902 0.282353 0.231373 0.94902 0.282353 0.231373 
0.94902 0.282353 0.231373 0.94902 0.282353 0.231373 
0.94902 0.282353 0.231373 0.94902 0.282353 0.231373 
0.94902 0.282353 0.231373 0.94902 0.282353 0.231373 
0.94902 0.282353 0.231373 0.94902 0.282353 0.231373 
0.94902 0.282353 0.231373 0.94902 0.282353 0.231373 
0.94902 0.282353 0.231373 0.94902 0.282353 0.231373 
0.94902 0.282353 0.231373 0.94902 0.282353 0.231373 
0.94902 0.282353 0.231373 0.94902 0.282353 0.231373 
0.94902 0.282353 0.231373 0.94902 0.282353 0.231373 
0.94902 0.282353 0.231373 0.94902 0.282353 0.231373 
0.94902 0.282353 0.231373 0.94902 0.282353 0.231373 
0.94902 0.282353 0.231373 0.94902 0.282353 0.231373 
0.94902 0.282353 0.231373 0.94902 0.282353 0.231373 
0.94902 0.282353 0.231373 0.94902 0.282353 0.231373 
0.94902 0.282353 0.231373 0.94902 0.282353 0.231373 
0.94902 0.282353 0.231373 0.94902 0.282353 0.231373 
0.94902 0.282353 0.231373 0.94902 0.282353 0.231373 
0.94902 0.282353 0.231373 0.94902 0.282353 0.231373 
0.94902 0.282353 0.231373 0.94902 0.282353 0.231373 
0.94902 0.282353 0.231373 0.94902 0.282353 0.231373 
0.94902 0.282353 0.231373 0.94902 0.282353 0.231373 
0.94902 0.282353 0.231373 0.94902 0.282353 0.231373 
0.94902 0.282353 0.231373 0.94902 0.282353 0.231373 
0.94902 0.282353 0.231373 0.94902 0.282353 0.231373 
0.94902 0.282353 0.231373 0.94902 0.282353 0.231373 
0.94902 0.282353 0.231373 0.94902 0.282353 0.231373 
0.94902 0.282353 0.231373 0.94902 0.282353 0.231373 
0.94902 0.282353 0.231373 0.94902 0.282353 0.231373 
0.94902 0.282353 0.231373 0.94902 0.282353 0.231373 
0.94902 0.282353 0.231373 0.94902 0.282353 0.231373 
0.94902 0.282353 0.231373 0.94902 0.282353 0.231373 
0.94902 0.282353 0.231373 0.94902 0.282353 0.231373 
0.94902 0.282353 0.231373 0.94902 0.282353 0.231373 
0.94902 0.282353 0.231373 0.94902 0.282353 0.231373 
0.94902 0.282353 0.231373 0.94902 0.282353 0.231373 
0.94902 0.282353 0.231373 0.94902 0.282353 0.231373 
0.94902 0.282353 0.231373 0.94902 0.282353 0.231373 
0.94902 0.282353 0.231373 0.94902 0.282353 0.231373 
0.94902 0.282353 0.231373 0.94902 0.282353 0.231373 
0.94902 0.282353 0.231373 0.94902 0.282353 0.231373 
0.94902 0.282353 0.231373 0.94902 0.282353 0.231373 
0.94902 0.282353 0.231373 0.94902 0.282353 0.231373 
0.94902 0.282353 0.231373 0.94902 0.282353 0.231373 
0.94902 0.282353 0.231373 0.94902 0.282353 0.231373 
0.94902 0.282353 0.231373 0.94902 0.282353 0.231373 
0.94902 0.282353 0.231373 0.94902 0.282353 0.231373 
0.94902 0.282353 0.231373 0.94902 0.282353 0.231373 
0.94902 0.282353 0.231373 0.94902 0.282353 0.231373 
0.94902 0.282353 0.231373 0.94902 0.282353 0.231373 
0.94902 0.282353 0.231373 0.94902 0.282353 0.231373 
0.94902 0.282353 0.231373 0.94902 0.282353 0.231373 
0.94902 0.282353 0.231373 0.94902 0.282353 0.231373 
0.94902 0.282353 0.231373 0.94902 0.282353 0.231373 
0.94902 0.282353 0.231373 0.94902 0.282353 0.231373 
0.94902 0.282353 0.231373 0.94902 0.282353 0.231373 
0.94902 0.282353 0.231373 0.94902 0.282353 0.231373 
0.94902 0.282353 0.231373 0.94902 0.282353 0.231373 
0.94902 0.282353 0.231373 0.94902 0.282353 0.231373 
0.94902 0.282353 0.231373 0.94902 0.282353 0.231373 
0.94902 0.282353 0.231373 0.94902 0.282353 0.231373 
0.94902 0.282353 0.231373 0.94902 0.282353 0.231373 
0.94902 0.282353 0.231373 0.94902 0.282353 0.231373 
0.94902 0.282353 0.231373 0.94902 0.282353 0.231373 
0.94902 0.282353 0.231373 0.94902 0.282353 0.231373 
0.94902 0.282353 0.231373 0.94902 0.282353 0.231373 
0.94902 0.282353 0.231373 0.94902 0.282353 0.231373 
0.94902 0.282353 0.231373 0.94902 0.282353 0.231373 
0.94902 0.282353 0.231373 0.94902 0.282353 0.231373 
0.94902 0.282353 0.231373 0.94902 0.282353 0.231373 
0.94902 0.282353 0.231373 0.94902 0.282353 0.231373 
0.94902 0.282353 0.231373 0.94902 0.282353 0.231373 
0.94902 0.282353 0.231373 0.94902 0.282353 0.231373 
0.94902 0.282353 0.231373 0.94902 0.282353 0.231373 
0.94902 0.282353 0.231373 0.94902 0.282353 0.231373 
0.94902 0.282353 0.231373 0.94902 0.282353 0.231373 
0.94902 0.282353 0.231373 0.94902 0.282353 0.231373 
0.94902 0.282353 0.231373 0.94902 0.282353 0.231373 
0.94902 0.282353 0.231373 0.94902 0.282353 0.231373 
0.94902 0.282353 0.231373 0.94902 0.282353 0.231373 
0.94902 0.282353 0.231373 0.94902 0.282353 0.231373 
0.94902 0.282353 0.231373 0.94902 0.282353 0.231373 
0.94902 0.282353 0.231373 0.94902 0.282353 0.231373 
0.94902 0.282353 0.231373 0.94902 0.282353 0.231373 
0.94902 0.282353 0.231373 0.94902 0.282353 0.231373 
0.94902 0.282353 0.231373 0.94902 0.282353 0.231373 
0.94902 0.282353 0.231373 0.94902 0.282353 0.231373 
0.94902 0.282353 0.231373 0.94902 0.282353 0.231373 
0.94902 0.282353 0.231373 0.94902 0.282353 0.231373 
0.94902 0.282353 0.231373 0.94902 0.282353 0.231373 
0.94902 0.282353 0.231373 0.94902 0.282353 0.231373 
0.94902 0.282353 0.231373 0.94902 0.282353 0.231373 
0.94902 0.282353 0.231373 0.94902 0.282353 0.231373 
0.94902 0.282353 0.231373 0.94902 0.282353 0.231373 
0.94902 0.282353 0.231373 0.94902 0.282353 0.231373 
0.94902 0.282353 0.231373 0.94902 0.282353 0.231373 
0.94902 0.282353 0.231373 0.94902 0.282353 0.231373 
0.94902 0.282353 0.231373 0.94902 0.282353 0.231373 
0.94902 0.282353 0.231373 0.94902 0.282353 0.231373 
0.94902 0.282353 0.231373 0.94902 0.282353 0.231373 
0.94902 0.282353 0.231373 0.94902 0.282353 0.231373 
0.94902 0.282353 0.231373 0.94902 0.282353 0.231373 
0.94902 0.282353 0.231373 0.94902 0.282353 0.231373 
0.94902 0.282353 0.231373 0.94902 0.282353 0.231373 
0.94902 0.282353 0.231373 0.94902 0.282353 0.231373 
0.94902 0.282353 0.231373 0.94902 0.282353 0.231373 
0.94902 0.282353 0.231373 0.94902 0.282353 0.231373 
0.94902 0.282353 0.231373 0.94902 0.282353 0.231373 
0.94902 0.282353 0.231373 0.94902 0.282353 0.231373 
0.94902 0.282353 0.231373 0.94902 0.282353 0.231373 
0.94902 0.282353 0.231373 0.94902 0.282353 0.231373 
0.94902 0.282353 0.231373 0.94902 0.282353 0.231373 
0.94902 0.282353 0.231373 0.94902 0.282353 0.231373 
0.94902 0.282353 0.231373 0.94902 0.282353 0.231373 
0.94902 0.282353 0.231373 0.94902 0.282353 0.231373 
0.94902 0.282353 0.231373 0.94902 0.282353 0.231373 
0.94902 0.282353 0.231373 0.94902 0.282353 0.231373 
0.94902 0.282353 0.231373 0.94902 0.282353 0.231373 
0.94902 0.282353 0.231373 0.94902 0.282353 0.231373 
0.94902 0.282353 0.231373 0.94902 0.282353 0.231373 
0.94902 0.282353 0.231373 0.94902 0.282353 0.231373 
0.94902 0.282353 0.231373 0.94902 0.282353 0.231373 
0.94902 0.282353 0.231373 0.94902 0.282353 0.231373 
0.94902 0.282353 0.231373 0.94902 0.282353 0.231373 
0.94902 0.282353 0.231373 0.94902 0.282353 0.231373 
0.94902 0.282353 0.231373 0.94902 0.282353 0.231373 
0.94902 0.282353 0.231373 0.94902 0.282353 0.231373 
0.94902 0.282353 0.231373 0.94902 0.282353 0.231373 
0.94902 0.282353 0.231373 0.94902 0.282353 0.231373 
0.94902 0.282353 0.231373 0.94902 0.282353 0.231373 
0.94902 0.282353 0.231373 0.94902 0.282353 0.231373 
0.94902 0.282353 0.231373 0.94902 0.282353 0.231373 
0.94902 0.282353 0.231373 0.94902 0.282353 0.231373 
0.94902 0.282353 0.231373 0.94902 0.282353 0.231373 
0.94902 0.282353 0.231373 0.94902 0.282353 0.231373 
0.94902 0.282353 0.231373 0.94902 0.282353 0.231373 
0.94902 0.282353 0.231373 0.94902 0.282353 0.231373 
0.94902 0.282353 0.231373 0.94902 0.282353 0.231373 
0.94902 0.282353 0.231373 0.94902 0.282353 0.231373 
0.94902 0.282353 0.231373 0.94902 0.282353 0.231373 
0.94902 0.282353 0.231373 0.94902 0.282353 0.231373 
0.94902 0.282353 0.231373 0.94902 0.282353 0.231373 
0.94902 0.282353 0.231373 0.94902 0.282353 0.231373 
0.94902 0.282353 0.231373 0.94902 0.282353 0.231373 
0.94902 0.282353 0.231373 0.94902 0.282353 0.231373 
0.94902 0.282353 0.231373 0.94902 0.282353 0.231373 
0.94902 0.282353 0.231373 0.94902 0.282353 0.231373 
0.94902 0.282353 0.231373 0.94902 0.282353 0.231373 
0.94902 0.282353 0.231373 0.94902 0.282353 0.231373 
0.94902 0.282353 0.231373 0.94902 0.282353 0.231373 
0.94902 0.282353 0.231373 0.94902 0.282353 0.231373 
0.94902 0.282353 0.231373 0.94902 0.282353 0.231373 
0.94902 0.282353 0.231373 0.94902 0.282353 0.231373 
0.94902 0.282353 0.231373 0.94902 0.282353 0.231373 
0.94902 0.282353 0.231373 0.94902 0.282353 0.231373 
0.94902 0.282353 0.231373 0.94902 0.282353 0.231373 
0.94902 0.282353 0.231373 0.94902 0.282353 0.231373 
0.94902 0.282353 0.231373 0.94902 0.282353 0.231373 
0.94902 0.282353 0.231373 0.94902 0.282353 0.231373 
0.94902 0.282353 0.231373 0.94902 0.282353 0.231373 
0.94902 0.282353 0.231373 0.94902 0.282353 0.231373 
0.94902 0.282353 0.231373 0.94902 0.282353 0.231373 
0.94902 0.282353 0.231373 0.94902 0.282353 0.231373 
0.94902 0.282353 0.231373 0.94902 0.282353 0.231373 
0.94902 0.282353 0.231373 0.94902 0.282353 0.231373 
0.94902 0.282353 0.231373 0.94902 0.282353 0.231373 
0.94902 0.282353 0.231373 0.94902 0.282353 0.231373 
0.94902 0.282353 0.231373 0.94902 0.282353 0.231373 
0.94902 0.282353 0.231373 0.94902 0.282353 0.231373 
0.94902 0.282353 0.231373 0.94902 0.282353 0.231373 
0.94902 0.282353 0.231373 0.94902 0.282353 0.231373 
0.94902 0.282353 0.231373 0.94902 0.282353 0.231373 
0.94902 0.282353 0.231373 0.94902 0.282353 0.231373 
0.94902 0.282353 0.231373 0.94902 0.282353 0.231373 
0.94902 0.282353 0.231373 0.94902 0.282353 0.231373 
0.94902 0.282353 0.231373 0.94902 0.282353 0.231373 
0.94902 0.282353 0.231373 0.94902 0.282353 0.231373 
0.94902 0.282353 0.231373 0.94902 0.282353 0.231373 
0.94902 0.282353 0.231373 0.94902 0.282353 0.231373 
0.94902 0.282353 0.231373 0.94902 0.282353 0.231373 
0.94902 0.282353 0.231373 0.94902 0.282353 0.231373 
0.94902 0.282353 0.231373 0.94902 0.282353 0.231373 
0.94902 0.282353 0.231373 0.94902 0.282353 0.231373 
0.94902 0.282353 0.231373 0.94902 0.282353 0.231373 
0.94902 0.282353 0.231373 0.94902 0.282353 0.231373 
0.94902 0.282353 0.231373 0.94902 0.282353 0.231373 
0.94902 0.282353 0.231373 0.94902 0.282353 0.231373 
0.94902 0.282353 0.231373 0.94902 0.282353 0.231373 
0.94902 0.282353 0.231373 0.94902 0.282353 0.231373 
0.94902 0.282353 0.231373 0.94902 0.282353 0.231373 
0.94902 0.282353 0.231373 0.94902 0.282353 0.231373 
0.94902 0.282353 0.231373 0.94902 0.282353 0.231373 
0.94902 0.282353 0.231373 0.94902 0.282353 0.231373 
0.94902 0.282353 0.231373 0.94902 0.282353 0.231373 
0.94902 0.282353 0.231373 0.94902 0.282353 0.231373 
0.94902 0.282353 0.231373 0.94902 0.282353 0.231373 
0.94902 0.282353 0.231373 0.94902 0.282353 0.231373 
0.94902 0.282353 0.231373 0.94902 0.282353 0.231373 
0.94902 0.282353 0.231373 0.94902 0.282353 0.231373 
0.94902 0.282353 0.231373 0.94902 0.282353 0.231373 
0.94902 0.282353 0.231373 0.94902 0.282353 0.231373 
0.94902 0.282353 0.231373 0.94902 0.282353 0.231373 
0.94902 0.282353 0.231373 0.94902 0.282353 0.231373 
0.94902 0.282353 0.231373 0.94902 0.282353 0.231373 
0.94902 0.282353 0.231373 0.94902 0.282353 0.231373 
0.94902 0.282353 0.231373 0.94902 0.282353 0.231373 
0.94902 0.282353 0.231373 0.94902 0.282353 0.231373 
0.94902 0.282353 0.231373 0.94902 0.282353 0.231373 
0.94902 0.282353 0.231373 0.94902 0.282353 0.231373 
0.94902 0.282353 0.231373 0.94902 0.282353 0.231373 
0.94902 0.282353 0.231373 0.94902 0.282353 0.231373 
0.94902 0.282353 0.231373 0.94902 0.282353 0.231373 
0.94902 0.282353 0.231373 0.94902 0.282353 0.231373 
0.94902 0.282353 0.231373 0.94902 0.282353 0.231373 
0.94902 0.282353 0.231373 0.94902 0.282353 0.231373 
0.94902 0.282353 0.231373 0.94902 0.282353 0.231373 
0.94902 0.282353 0.231373 0.94902 0.282353 0.231373 
0.94902 0.282353 0.231373 0.94902 0.282353 0.231373 
0.94902 0.282353 0.231373 0.94902 0.282353 0.231373 
0.94902 0.282353 0.231373 0.94902 0.282353 0.231373 
0.94902 0.282353 0.231373 0.94902 0.282353 0.231373 
0.94902 0.282353 0.231373 0.94902 0.282353 0.231373 
0.94902 0.282353 0.231373 0.94902 0.282353 0.231373 
0.94902 0.282353 0.231373 0.94902 0.282353 0.231373 
0.94902 0.282353 0.231373 0.94902 0.282353 0.231373 
0.94902 0.282353 0.231373 0.94902 0.282353 0.231373 
0.94902 0.282353 0.231373 0.94902 0.282353 0.231373 
0.94902 0.282353 0.231373 0.94902 0.282353 0.231373 
0.94902 0.282353 0.231373 0.94902 0.282353 0.231373 
0.94902 0.282353 0.231373 0.94902 0.282353 0.231373 
0.94902 0.282353 0.231373 0.94902 0.282353 0.231373 
0.94902 0.282353 0.231373 0.94902 0.282353 0.231373 
0.94902 0.282353 0.231373 0.94902 0.282353 0.231373 
0.94902 0.282353 0.231373 0.94902 0.282353 0.231373 
0.94902 0.282353 0.231373 0.94902 0.282353 0.231373 
0.94902 0.282353 0.231373 0.94902 0.282353 0.231373 
0.94902 0.282353 0.231373 0.94902 0.282353 0.231373 
0.94902 0.282353 0.231373 0.94902 0.282353 0.231373 
0.94902 0.282353 0.231373 0.94902 0.282353 0.231373 
0.94902 0.282353 0.231373 0.94902 0.282353 0.231373 
0.94902 0.282353 0.231373 0.94902 0.282353 0.231373 
0.94902 0.282353 0.231373 0.94902 0.282353 0.231373 
0.94902 0.282353 0.231373 0.94902 0.282353 0.231373 
0.94902 0.282353 0.231373 0.94902 0.282353 0.231373 
0.94902 0.282353 0.231373 0.94902 0.282353 0.231373 
0.94902 0.282353 0.231373 0.94902 0.282353 0.231373 

NORMALS Normals float
0.00299931 -0.172775 -0.984957 -0.0594023 -0.00704063 -0.998209 0.160813 0.147037 -0.975971 
0.190786 -0.414516 -0.889819 0.0888395 0.200585 -0.97564 0.300971 0.0742684 -0.950737 
-0.179107 -0.425716 -0.886954 -0.176923 -0.379845 -0.907973 -0.107184 -0.58705 -0.802424 
0.169535 -0.610236 -0.773867 0.373969 -0.366525 -0.851943 0.668296 -0.334176 -0.66461 
0.724979 -0.396905 -0.562913 -0.238607 -0.474708 -0.847183 -0.269402 -0.235053 -0.933902 
-0.153266 -0.273257 -0.949653 -0.468251 -0.11775 -0.875715 -0.0820418 -0.06325 -0.99462 
-0.00554811 0.307898 -0.951403 0.502483 0.0887735 -0.860017 0.857551 0.0812137 -0.507947 
-0.323548 0.0557071 -0.944571 -0.163031 -0.0587481 -0.98487 0.00347456 0.190614 -0.981659 
0.501193 0.320543 -0.803777 0.154716 0.4323 -0.888358 0.368119 0.541267 -0.755988 
-0.253424 -0.787943 -0.561179 -0.159095 -0.729127 -0.665629 0.0419938 -0.752834 -0.656869 
0.0400401 -0.790379 -0.611308 0.382686 -0.663221 -0.643187 0.613444 -0.685543 -0.392068 
0.712359 -0.56131 -0.421278 0.974986 -0.104098 -0.196384 0.972763 0.188595 -0.134771 
-0.405657 -0.148139 -0.901941 0.770028 0.373846 -0.517007 -0.366877 0.0588578 -0.928406 
0.362282 0.664655 -0.653441 0.799857 0.556683 -0.22435 -0.133291 0.432944 -0.891512 
-0.00539359 0.468651 -0.883367 0.0556033 0.628015 -0.776212 -0.185313 -0.906435 -0.37952 
0.00422867 -0.897775 -0.440435 0.152714 -0.957667 -0.244032 0.232723 -0.868537 -0.437587 
0.322832 -0.92142 -0.21625 0.56534 -0.814783 -0.128529 0.702708 -0.709688 0.0504414 
0.830781 -0.553552 0.0581591 0.890974 -0.45405 0.00200186 -0.451106 -0.467174 -0.760429 
0.97021 -0.171015 0.171597 -0.559341 -0.16055 -0.813241 0.100885 0.806871 -0.582049 
0.21453 0.799513 -0.561031 0.556661 0.805063 -0.204944 0.394666 -0.91781 0.0431672 
0.378451 -0.924849 -0.0378027 -0.348672 -0.760983 -0.547114 0.963766 0.185968 0.191235 
-0.543716 -0.423795 -0.724411 0.829807 0.556723 -0.0384703 0.799537 0.557569 0.223288 
-0.282088 0.0123317 -0.959309 0.368768 0.923849 -0.102535 -0.0524449 0.0156896 -0.998501 
0.313034 0.89882 -0.306811 0.304457 0.946134 -0.110166 0.254042 0.967092 -0.014017 
0.461739 0.876452 0.136487 -0.259325 0.284151 -0.923043 0.168249 0.649328 -0.741664 
-0.000776602 -0.986763 -0.162166 0.326722 -0.929052 0.173539 0.781226 -0.554908 0.285942 
-0.24725 -0.920589 -0.302298 0.882645 -0.274883 0.381282 -0.428129 -0.771304 -0.470952 
0.854298 0.172341 0.49038 0.660156 0.663529 0.352028 -0.455572 -0.0950169 -0.885114 
0.225727 0.951834 0.207506 0.314224 0.915954 0.249583 -0.0368312 0.383176 -0.922941 
0.341205 0.592307 -0.729898 0.524573 0.797473 -0.298094 -0.118231 0.341129 -0.932552 
0.682697 0.62249 -0.382663 0.509691 -0.82481 0.244753 0.658268 -0.667314 0.34839 
0.806569 -0.199379 0.556502 0.553241 0.612488 0.564609 0.361512 0.851447 0.379932 
0.271029 0.915473 0.297411 0.351868 0.801222 0.483975 0.494188 0.857534 0.142875 
-0.405022 0.296363 -0.864943 0.804881 0.529943 -0.267072 -0.130074 0.481933 -0.866499 
0.182432 0.467706 -0.864852 0.527289 0.569612 -0.630482 0.618513 0.446832 -0.646361 
-0.0686487 -0.995515 -0.065095 0.606793 -0.631774 0.482352 -0.274169 -0.952662 -0.131401 
-0.518381 -0.47527 -0.710914 0.673386 0.262579 0.691089 0.343286 0.741887 0.575984 
0.715254 0.674921 0.181364 0.776722 0.629823 0.0050788 0.898612 0.316039 -0.304329 
0.697941 0.354716 -0.622138 0.206652 0.616047 -0.760119 0.00133734 -0.999203 0.0399009 
0.241167 -0.916799 0.318304 0.738678 -0.0972063 0.667012 0.599864 0.638153 0.482622 
0.790293 0.532918 0.302384 -0.126226 0.536412 -0.834463 0.720344 0.469279 -0.510765 
-0.150466 -0.988463 -0.0173341 0.5945 -0.587816 0.548674 -0.413561 -0.904403 -0.104991 
0.647417 -0.383115 0.658843 0.641688 -0.0992792 0.760513 -0.638715 0.00125049 -0.769442 
0.95113 0.299911 0.0735148 0.877756 0.250451 -0.408434 0.348721 0.690467 -0.633757 
0.551894 0.74273 -0.379163 -0.103253 -0.970007 0.220059 0.167905 -0.917525 0.360495 
0.333848 -0.715489 0.613694 -0.00610637 -0.99049 0.137452 -0.284654 -0.955483 -0.0776193 
0.473163 -0.611489 0.634191 -0.438453 -0.819552 -0.368909 0.543561 0.120327 0.8307 
0.51551 0.458623 0.723819 -0.579393 -0.43056 -0.692042 -0.659589 -0.158345 -0.734758 
0.740876 0.624484 -0.24723 0.528268 0.777962 -0.340159 0.428362 0.734869 -0.525808 
0.0107868 -0.870741 0.491624 0.430067 -0.807807 0.4031 -0.741752 -0.661397 -0.111166 