# vtk DataFile Version 4.2
vtk output
ASCII
DATASET POLYDATA
POINTS 566 float
261.775 177.894 61.9708 262.934 178.054 61.8572 263.317 178.18 61.9 
262.244 178.525 61.9644 263.375 178.499 61.9875 262.584 178.918 62.1331 
266.709 175.498 63.247 266.319 175.909 62.8879 263.067 176.305 62.4129 
263.823 176.189 62.5034 265.271 176.613 62.4719 266.933 176.583 62.774 
267.55 176.011 63.1231 267.894 176.148 63.2052 265.77 177.152 62.4654 
268.167 176.504 63.296 268.321 176.991 63.3572 267.799 177.544 63.1083 
268.175 177.362 63.2884 260.676 178.64 62.2984 264.806 179.27 62.7425 
259.107 180.108 63.0209 268.552 175.818 63.8604 268.195 176.078 63.4022 
268.156 177.88 63.4367 257.126 179.825 63.341 265.236 179.459 63.0412 
266.004 179.282 63.2181 257.883 180.583 63.5039 261.374 180.427 63.1668 
264.306 180.155 63.4669 259.67 181.182 63.7915 257.972 167.971 65.5481 
257.884 167.931 65.6638 257.839 168.043 65.5651 258.112 167.98 65.5315 
258.123 167.869 65.6467 258.3 167.929 65.604 257.927 168.246 65.4952 
266.417 174.651 64.0294 267.985 174.828 64.509 258.09 174.783 63.6087 
253.772 178.535 63.9771 269.054 178.357 64.3391 251.725 179.789 64.6221 
268.23 179.28 64.4426 266.098 180.169 64.2926 252.446 181.339 64.7038 
257.773 181.208 63.9689 260.057 181.441 64.1134 261.421 181.423 64.4087 
265.224 180.629 64.6756 253.467 181.877 64.7593 258.838 167.801 65.9135 
258.694 167.841 65.8171 258.961 167.88 65.992 257.745 167.949 65.8251 
257.603 168.187 65.6737 258.584 168.077 65.6584 258.419 167.833 65.8052 
259.103 168.119 66.0359 257.397 168.804 65.4911 257.014 168.517 65.9174 
258.325 168.439 65.4827 259.11 168.563 65.7955 259.205 168.419 65.9644 
254.328 169.848 66.3326 253.816 170.337 66.1161 258.937 169.083 65.5608 
252.857 172.256 65.3196 262.35 173.202 64.799 265.527 173.508 65.5047 
267.999 174.666 64.8945 269.84 176.492 65.5482 269.827 177.266 65.3055 
269.938 177.917 65.8255 268.423 179.373 64.8071 268.755 179.25 65.0616 
266.96 180.274 65.1899 268.432 179.555 65.3432 261.676 181.59 64.8241 
262.924 181.388 65.3701 257.825 182.406 65.1841 251.398 182.805 65.9836 
252.421 183.426 66.3101 258.878 167.798 66.0355 258.69 167.772 65.9723 
259.017 167.96 66.2098 257.737 167.921 66.0685 258.027 167.832 66.1878 
256.002 168.828 66.3981 259.372 168.489 66.2804 259.384 169.382 65.7696 
259.735 169.046 66.4233 252.291 170.723 66.943 259.976 169.92 66.0583 
260.661 170.356 66.5389 250.906 172.379 66.277 260.208 171.452 65.3318 
266.165 173.522 66.2004 268.549 174.811 65.809 270.051 177.885 66.377 
249.21 180.044 66.257 268.906 179.385 66 259.575 182.538 65.82 
261.427 181.992 66.0242 250.136 182.946 67.0578 252.432 183.88 66.8953 
258.11 167.905 66.4939 260.044 169.344 66.8878 251.538 171.015 67.28 
261 170.443 67.0279 248.422 173.179 67.6259 262.723 171.921 66.917 
248.893 173.689 66.9211 248.712 175.632 66.4976 269.747 176.059 66.2529 
269.972 176.517 66.5486 270.052 178.168 67.1161 269.382 179.073 66.5695 
249.312 181.366 66.6095 266.914 180.478 66.6352 249.015 182.114 67.5085 
260.02 182.593 66.6324 249.164 182.538 67.8 256.529 183.617 66.834 
251.581 184.009 67.5736 254.573 184.329 67.6278 258.539 168.163 67.0464 
259.405 168.667 67.1332 256.074 168.825 67.1968 256.466 168.794 67.4221 
259.828 169.109 67.1668 253.959 169.772 67.6442 251.534 170.879 67.7007 
251.85 170.722 67.9448 260.749 170.138 67.4553 260.993 170.365 67.3128 
261.133 170.55 67.6473 247.952 173.29 68.0417 247.467 173.379 68.5656 
263.332 172.227 67.3639 263.973 172.631 67.6464 246.604 174.311 68.6968 
266.207 173.516 67.0326 266.791 173.841 67.3114 247.494 174.353 67.7354 
268.008 174.42 66.6974 269.374 175.635 67.0782 269.906 176.571 67.1131 
246.703 177.583 68.2707 270.086 178.193 67.6592 270.058 178.409 67.8353 
269.343 179.201 67.274 269.963 178.66 67.7477 266.516 180.236 67.9037 
268.206 179.739 67.7019 262.446 181.515 67.822 260.32 182.499 67.5609 
249.463 183.033 68.6037 256.964 183.67 67.7273 259.098 168.507 67.3106 
254.069 169.983 68.1862 260.186 169.869 67.8568 251.911 170.825 68.3469 
249.995 172.017 68.956 251.319 171.195 68.541 262.602 171.93 68.0444 
246.875 173.509 69.3558 245.736 174.891 69.5182 268.474 174.955 67.4739 
245.742 175.541 69.4457 268.936 175.268 67.3098 269.224 175.692 67.5104 
269.877 177.658 68.0323 269.963 178.519 68.0262 269.844 178.745 68.0177 
267.063 179.812 68.3476 268.695 179.369 68.1323 256.836 183.717 68.4627 
257.345 183.407 68.9417 251.698 184.467 69.2542 258.92 169.327 68.0586 
257.41 170.286 68.8305 253.152 170.833 68.9557 254.28 171.176 69.3346 
260.544 170.57 68.2587 250.053 172.311 69.3802 251.402 171.526 69.0361 
253.898 172.113 69.7501 259.02 171.468 69.2227 259.874 171.415 69.029 
247.781 173.171 69.6382 247.298 173.284 69.4832 248.588 172.954 69.571 
261.648 172.257 68.9251 263.42 172.667 68.334 245.825 174.201 69.7999 
245.638 174.51 69.8154 245.495 174.633 70.126 267.17 174.561 68.0941 
268.007 175.326 68.2496 266.283 175.758 69.2775 268.729 176.053 68.2744 
269.266 176.098 67.8279 245.884 176.8 69.8086 262.172 177.193 70.0774 
266.001 177.163 69.6461 269.304 177.854 68.7569 269.459 178.491 68.625 
269.386 178.804 68.4833 263.196 180.129 69.2544 267.483 179.345 68.7469 
268.911 178.993 68.5706 261.508 181.319 68.8925 248.803 182.406 69.2442 
248.914 182.293 69.724 250.595 183.911 69.6841 250.962 184.206 69.5174 
251.038 184.201 69.8275 255.164 184.171 69.4707 252.703 184.567 69.5751 
255.314 170.146 68.8415 249.692 172.855 69.7539 250.654 172.497 69.6644 
245.755 174.24 70.3392 245.582 174.353 70.2448 250.524 173.829 70.3571 
245.481 174.587 70.364 245.481 175.017 70.0759 245.698 175.907 70.1804 
246.037 177.34 69.7756 268.281 177.814 69.1963 246.22 177.707 69.8819 
267.289 178.393 69.3312 268.728 178.281 69.0234 269.226 178.223 68.8249 
256.371 179.301 70.9406 261.412 179.384 70 266.998 178.954 69.1545 
247.347 180.033 69.7776 261.102 180.005 69.9271 248.698 181.679 70.0911 
260.33 181.155 69.7649 257.733 182.518 70.0244 249.923 182.818 70.4615 
250.03 183.226 70.1935 250.282 183.285 70.4576 255.889 183.675 69.9544 
251.325 184.267 70.0437 251.46 184.147 70.3707 245.572 174.429 70.4514 
245.516 174.67 70.5207 245.614 174.922 70.5804 245.893 175.42 70.5901 
248.374 178.903 70.8982 248.355 179.831 70.6578 252.648 180.531 71.4311 
251.614 181.416 71.3694 255.322 181.38 71.1815 249.708 182.209 70.6255 
254.921 181.966 71.2083 255.724 182.025 71.0406 256.558 182.552 70.5999 
250.616 183.474 70.5688 250.879 183.406 70.7641 255.655 183.422 70.3633 
253.828 184.092 70.4027 254.962 183.49 70.5715 252.433 184.347 70.5792 
252.676 184.331 70.5638 253.158 184.26 70.4064 252.555 184.292 70.692 
245.617 174.54 70.579 245.62 174.716 70.6256 250.883 182.997 70.9338 
251.499 182.891 71.1244 252.128 183.375 71.0746 253.465 183.129 71.1199 
253.004 187.013 73.0087 253.004 187.013 73.0087 253.004 187.013 73.0087 
253.004 187.013 73.0088 253.004 187.013 73.0088 253.004 187.013 73.0088 
253 187.009 382.017 253 187.009 382.017 253 187.009 382.017 
253 187.009 382.017 253 187.009 382.017 245.788 174.272 384.537 
245.799 174.172 384.7 245.67 174.351 384.577 246.01 174.167 384.612 
245.753 174.443 384.486 245.674 174.664 384.567 250.275 182.257 384.12 
250.292 182.578 384.226 255.329 182.529 383.936 254.952 182.034 383.779 
250.837 183.444 384.495 251.273 183.266 384.203 252.074 183.249 383.97 
254.266 183.264 384.008 255.271 183.068 384.14 256.689 182.795 384.549 
251.921 184.147 384.792 255.664 183.424 384.499 253 187.009 382.018 
253.173 184.223 384.336 247.854 173.564 384.836 247.882 173.195 385.223 
245.822 174.143 384.981 245.627 174.37 384.741 246.503 174.212 384.583 
246.228 173.953 384.914 245.543 174.65 384.776 245.614 175.151 384.727 
248.337 174.977 384.181 245.67 175.686 384.742 246.405 175.97 384.328 
245.844 176.1 384.696 248.472 176.298 383.905 246.572 178.354 385.172 
246.968 178.868 384.869 247.178 179.283 384.858 247.443 179.201 384.626 
251.922 179.756 383.587 254.824 180.683 383.728 249.908 181.484 384.096 
257.274 181.398 384.245 249.518 182.681 385.069 258.13 182.15 384.795 
250.041 183.007 384.722 250.261 183.387 384.888 257.743 182.677 385.037 
251.76 184.316 385.212 254.97 184.015 384.772 253.345 184.279 384.461 
255.544 169.82 386.255 253.614 171.013 385.727 250.004 172.04 385.962 
247.313 173.331 385.332 254.288 172.112 385.201 245.816 174.246 385.306 
246.21 173.916 385.361 245.547 175.301 385.233 245.687 175.96 384.888 
246.035 177.272 385.283 246.216 177.661 385.175 265.258 177.215 385.267 
268.493 177.814 385.816 268.941 178.275 385.997 269.802 178.215 386.464 
268.76 178.691 386.077 269.701 178.577 386.479 267.898 179.236 386.314 
269.093 178.896 386.321 248.071 181.353 385.512 261.252 181.326 385.821 
256.497 183.563 385.15 257.71 183.207 385.738 251.373 184.261 385.414 
251.21 184.269 385.734 255.735 184.072 385.675 258.776 168.444 387.379 
259.096 168.515 387.367 256.821 169.308 386.725 259.316 168.712 387.307 
255.407 169.368 386.867 257.77 170.21 386.148 260.027 169.416 387.462 
253.409 170.346 386.463 260.903 170.757 386.81 249.264 172.276 386.051 
250.544 171.546 386.42 251.294 171.253 386.363 261.902 171.643 386.699 
262.017 171.398 387.121 247.97 172.871 386.313 248.575 172.554 386.161 
258.315 172.361 385.362 262.019 172.414 386.157 245.593 174.596 385.237 
245.804 174.473 385.542 245.505 174.915 385.178 268.574 175.122 386.954 
267.673 175.376 386.289 245.775 175.957 385.648 267.505 175.959 385.931 
269.499 175.859 387.104 269.709 176.155 387.164 245.99 177.038 385.505 
269.888 177.342 386.886 270.142 178.22 386.884 246.868 179.2 385.94 
269.702 178.802 386.609 269.582 178.933 386.717 269.857 178.708 386.888 
270.105 178.429 386.967 269.136 179.098 386.678 248.548 182.093 386.005 
248.511 182.054 386.448 249.422 182.965 386.271 250.769 184.077 386.288 
256.373 183.932 386.215 253 184.629 386.163 259.268 168.512 387.509 
259.303 168.449 387.823 257.71 168.44 387.49 254.543 169.448 387.369 
251.827 170.795 386.81 261.022 170.38 387.831 249.899 171.79 387.067 
[...]
POINT_DATA 566
COLOR_SCALARS scalars 3
0.0666667 0.678431 0.513725 0.0666667 0.678431 0.513725 0.0666667 0.678431 0.513725 
0.0666667 0.678431 0.513725 0.0666667 0.678431 0.513725 
0.0666667 0.678431 0.513725 0.0666667 0.678431 0.513725 
0.0666667 0.678431 0.513725 0.0666667 0.678431 0.513725 
0.0666667 0.678431 0.513725 0.0666667 0.678431 0.513725 
0.0666667 0.678431 0.513725 0.0666667 0.678431 0.513725 
0.0666667 0.678431 0.513725 0.0666667 0.678431 0.513725 
0.0666667 0.678431 0.513725 0.0666667 0.678431 0.513725 
0.0666667 0.678431 0.513725 0.0666667 0.678431 0.513725 
0.0666667 0.678431 0.513725 0.0666667 0.678431 0.513725 
0.0666667 0.678431 0.513725 0.0666667 0.678431 0.513725 
0.0666667 0.678431 0.513725 0.0666667 0.678431 0.513725 
0.0666667 0.678431 0.513725 0.0666667 0.678431 0.513725 
0.0666667 0.678431 0.513725 0.0666667 0.678431 0.513725 
0.0666667 0.678431 0.513725 0.0666667 0.678431 0.513725 
0.0666667 0.678431 0.513725 0.0666667 0.678431 0.513725 
0.0666667 0.678431 0.513725 0.0666667 0.678431 0.513725 
0.0666667 0.678431 0.513725 0.0666667 0.678431 0.513725 
0.0666667 0.678431 0.513725 0.0666667 0.678431 0.513725 
0.0666667 0.678431 0.513725 0.0666667 0.678431 0.513725 
0.0666667 0.678431 0.513725 0.0666667 0.678431 0.513725 
0.0666667 0.678431 0.513725 0.0666667 0.678431 0.513725 
0.0666667 0.678431 0.513725 0.0666667 0.678431 0.513725 
0.0666667 0.678431 0.513725 0.0666667 0.678431 0.513725 
0.0666667 0.678431 0.513725 0.0666667 0.678431 0.513725 
0.0666667 0.678431 0.513725 0.0666667 0.678431 0.513725 
0.0666667 0.678431 0.513725 0.0666667 0.678431 0.513725 
0.0666667 0.678431 0.513725 0.0666667 0.678431 0.513725 
0.0666667 0.678431 0.513725 0.0666667 0.678431 0.513725 
0.0666667 0.678431 0.513725 0.0666667 0.678431 0.513725 
0.0666667 0.678431 0.513725 0.0666667 0.678431 0.513725 
0.0666667 0.678431 0.513725 0.0666667 0.678431 0.513725 
0.0666667 0.678431 0.513725 0.0666667 0.678431 0.513725 
0.0666667 0.678431 0.513725 0.0666667 0.678431 0.513725 
0.0666667 0.678431 0.513725 0.0666667 0.678431 0.513725 
0.0666667 0.678431 0.513725 0.0666667 0.678431 0.513725 
0.0666667 0.678431 0.513725 0.0666667 0.678431 0.513725 
0.0666667 0.678431 0.513725 0.0666667 0.678431 0.513725 
0.0666667 0.678431 0.513725 0.0666667 0.678431 0.513725 
0.0666667 0.678431 0.513725 0.0666667 0.678431 0.513725 
0.0666667 0.678431 0.513725 0.0666667 0.678431 0.513725 
0.0666667 0.678431 0.513725 0.0666667 0.678431 0.513725 
0.0666667 0.678431 0.513725 0.0666667 0.678431 0.513725 
0.0666667 0.678431 0.513725 0.0666667 0.678431 0.513725 
0.0666667 0.678431 0.513725 0.0666667 0.678431 0.513725 
0.0666667 0.678431 0.513725 0.0666667 0.678431 0.513725 
0.0666667 0.678431 0.513725 0.0666667 0.678431 0.513725 
0.0666667 0.678431 0.513725 0.0666667 0.678431 0.513725 
0.0666667 0.678431 0.513725 0.0666667 0.678431 0.513725 
0.0666667 0.678431 0.513725 0.0666667 0.678431 0.513725 
0.0666667 0.678431 0.513725 0.0666667 0.678431 0.513725 
0.0666667 0.678431 0.513725 0.0666667 0.678431 0.513725 
0.0666667 0.678431 0.513725 0.0666667 0.678431 0.513725 
0.0666667 0.678431 0.513725 0.0666667 0.678431 0.513725 
0.0666667 0.678431 0.513725 0.0666667 0.678431 0.513725 
0.0666667 0.678431 0.513725 0.0666667 0.678431 0.513725 
0.0666667 0.678431 0.513725 0.0666667 0.678431 0.513725 
0.0666667 0.678431 0.513725 0.0666667 0.678431 0.513725 
0.0666667 0.678431 0.513725 0.0666667 0.678431 0.513725 
0.0666667 0.678431 0.513725 0.0666667 0.678431 0.513725 
0.0666667 0.678431 0.513725 0.0666667 0.678431 0.513725 
0.0666667 0.678431 0.513725 0.0666667 0.678431 0.513725 
0.0666667 0.678431 0.513725 0.0666667 0.678431 0.513725 
0.0666667 0.678431 0.513725 0.0666667 0.678431 0.513725 
0.0666667 0.678431 0.513725 0.0666667 0.678431 0.513725 
0.0666667 0.678431 0.513725 0.0666667 0.678431 0.513725 
0.0666667 0.678431 0.513725 0.0666667 0.678431 0.513725 
0.0666667 0.678431 0.513725 0.0666667 0.678431 0.513725 
0.0666667 0.678431 0.513725 0.0666667 0.678431 0.513725 
0.0666667 0.678431 0.513725 0.0666667 0.678431 0.513725 
0.0666667 0.678431 0.513725 0.0666667 0.678431 0.513725 
0.0666667 0.678431 0.513725 0.0666667 0.678431 0.513725 
0.0666667 0.678431 0.513725 0.0666667 0.678431 0.513725 
0.0666667 0.678431 0.513725 0.0666667 0.678431 0.513725 
0.0666667 0.678431 0.513725 0.0666667 0.678431 0.513725 
0.0666667 0.678431 0.513725 0.0666667 0.678431 0.513725 
0.0666667 0.678431 0.513725 0.0666667 0.678431 0.513725 
0.0666667 0.678431 0.513725 0.0666667 0.678431 0.513725 
0.0666667 0.678431 0.513725 0.0666667 0.678431 0.513725 
0.0666667 0.678431 0.513725 0.0666667 0.678431 0.513725 
0.0666667 0.678431 0.513725 0.0666667 0.678431 0.513725 
0.0666667 0.678431 0.513725 0.0666667 0.678431 0.513725 
0.0666667 0.678431 0.513725 0.0666667 0.678431 0.513725 
0.0666667 0.678431 0.513725 0.0666667 0.678431 0.513725 
0.0666667 0.678431 0.513725 0.0666667 0.678431 0.513725 
0.0666667 0.678431 0.513725 0.0666667 0.678431 0.513725 
0.0666667 0.678431 0.513725 0.0666667 0.678431 0.513725 
0.0666667 0.678431 0.513725 0.0666667 0.678431 0.513725 
0.0666667 0.678431 0.513725 0.0666667 0.678431 0.513725 
0.0666667 0.678431 0.513725 0.0666667 0.678431 0.513725 
0.0666667 0.678431 0.513725 0.0666667 0.678431 0.513725 
0.0666667 0.678431 0.513725 0.0666667 0.678431 0.513725 
0.0666667 0.678431 0.513725 0.0666667 0.678431 0.513725 
0.0666667 0.678431 0.513725 0.0666667 0.678431 0.513725 
0.0666667 0.678431 0.513725 0.0666667 0.678431 0.513725 
0.0666667 0.678431 0.513725 0.0666667 0.678431 0.513725 
0.0666667 0.678431 0.513725 0.0666667 0.678431 0.513725 
0.0666667 0.678431 0.513725 0.0666667 0.678431 0.513725 
0.0666667 0.678431 0.513725 0.0666667 0.678431 0.513725 
0.0666667 0.678431 0.513725 0.0666667 0.678431 0.513725 
0.0666667 0.678431 0.513725 0.0666667 0.678431 0.513725 
0.0666667 0.678431 0.513725 0.0666667 0.678431 0.513725 
0.0666667 0.678431 0.513725 0.0666667 0.678431 0.513725 
0.0666667 0.678431 0.513725 0.0666667 0.678431 0.513725 
0.0666667 0.678431 0.513725 0.0666667 0.678431 0.513725 
0.0666667 0.678431 0.513725 0.0666667 0.678431 0.513725 
0.0666667 0.678431 0.513725 0.0666667 0.678431 0.513725 
0.0666667 0.678431 0.513725 0.0666667 0.678431 0.513725 
0.0666667 0.678431 0.513725 0.0666667 0.678431 0.513725 
0.0666667 0.678431 0.513725 0.0666667 0.678431 0.513725 
0.0666667 0.678431 0.513725 0.0666667 0.678431 0.513725 
0.0666667 0.678431 0.513725 0.0666667 0.678431 0.513725 
0.0666667 0.678431 0.513725 0.0666667 0.678431 0.513725 
0.0666667 0.678431 0.513725 0.0666667 0.678431 0.513725 
0.0666667 0.678431 0.513725 0.0666667 0.678431 0.513725 
0.0666667 0.678431 0.513725 0.0666667 0.678431 0.513725 
0.0666667 0.678431 0.513725 0.0666667 0.678431 0.513725 
0.0666667 0.678431 0.513725 0.0666667 0.678431 0.513725 
0.0666667 0.678431 0.513725 0.0666667 0.678431 0.513725 
0.0666667 0.678431 0.513725 0.0666667 0.678431 0.513725 
0.0666667 0.678431 0.513725 0.0666667 0.678431 0.513725 
0.0666667 0.678431 0.513725 0.0666667 0.678431 0.513725 
0.0666667 0.678431 0.513725 0.0666667 0.678431 0.513725 
0.0666667 0.678431 0.513725 0.0666667 0.678431 0.513725 
0.0666667 0.678431 0.513725 0.0666667 0.678431 0.513725 
0.0666667 0.678431 0.513725 0.0666667 0.678431 0.513725 
0.0666667 0.678431 0.513725 0.0666667 0.678431 0.513725 
0.0666667 0.678431 0.513725 0.0666667 0.678431 0.513725 
0.0666667 0.678431 0.513725 0.0666667 0.678431 0.513725 
0.0666667 0.678431 0.513725 0.0666667 0.678431 0.513725 
0.0666667 0.678431 0.513725 0.0666667 0.678431 0.513725 
0.0666667 0.678431 0.513725 0.0666667 0.678431 0.513725 
0.0666667 0.678431 0.513725 0.0666667 0.678431 0.513725 
0.0666667 0.678431 0.513725 0.0666667 0.678431 0.513725 
0.0666667 0.678431 0.513725 0.0666667 0.678431 0.513725 
0.0666667 0.678431 0.513725 0.0666667 0.678431 0.513725 
0.0666667 0.678431 0.513725 0.0666667 0.678431 0.513725 
0.0666667 0.678431 0.513725 0.0666667 0.678431 0.513725 
0.0666667 0.678431 0.513725 0.0666667 0.678431 0.513725 
0.0666667 0.678431 0.513725 0.0666667 0.678431 0.513725 
0.0666667 0.678431 0.513725 0.0666667 0.678431 0.513725 
0.0666667 0.678431 0.513725 0.0666667 0.678431 0.513725 
0.0666667 0.678431 0.513725 0.0666667 0.678431 0.513725 
0.0666667 0.678431 0.513725 0.0666667 0.678431 0.513725 
0.0666667 0.678431 0.513725 0.0666667 0.678431 0.513725 
0.0666667 0.678431 0.513725 0.0666667 0.678431 0.513725 
0.0666667 0.678431 0.513725 0.0666667 0.678431 0.513725 
0.0666667 0.678431 0.513725 0.0666667 0.678431 0.513725 
0.0666667 0.678431 0.513725 0.0666667 0.678431 0.513725 
0.0666667 0.678431 0.513725 0.0666667 0.678431 0.513725 
0.0666667 0.678431 0.513725 0.0666667 0.678431 0.513725 
0.0666667 0.678431 0.513725 0.0666667 0.678431 0.513725 
0.0666667 0.678431 0.513725 0.0666667 0.678431 0.513725 
0.0666667 0.678431 0.513725 0.0666667 0.678431 0.513725 
0.0666667 0.678431 0.513725 0.0666667 0.678431 0.513725 
0.0666667 0.678431 0.513725 0.0666667 0.678431 0.513725 
0.0666667 0.678431 0.513725 0.0666667 0.678431 0.513725 
0.0666667 0.678431 0.513725 0.0666667 0.678431 0.513725 
0.0666667 0.678431 0.513725 0.0666667 0.678431 0.513725 
0.0666667 0.678431 0.513725 0.0666667 0.678431 0.513725 
0.0666667 0.678431 0.513725 0.0666667 0.678431 0.513725 
0.0666667 0.678431 0.513725 0.0666667 0.678431 0.513725 
0.0666667 0.678431 0.513725 0.0666667 0.678431 0.513725 
0.0666667 0.678431 0.513725 0.0666667 0.678431 0.513725 
0.0666667 0.678431 0.513725 0.0666667 0.678431 0.513725 
0.0666667 0.678431 0.513725 0.0666667 0.678431 0.513725 
0.0666667 0.678431 0.513725 0.0666667 0.678431 0.513725 
0.0666667 0.678431 0.513725 0.0666667 0.678431 0.513725 
0.0666667 0.678431 0.513725 0.0666667 0.678431 0.513725 
0.0666667 0.678431 0.513725 0.0666667 0.678431 0.513725 
0.0666667 0.678431 0.513725 0.0666667 0.678431 0.513725 
0.0666667 0.678431 0.513725 0.0666667 0.678431 0.513725 
0.0666667 0.678431 0.513725 0.0666667 0.678431 0.513725 
0.0666667 0.678431 0.513725 0.0666667 0.678431 0.513725 
0.0666667 0.678431 0.513725 0.0666667 0.678431 0.513725 
0.0666667 0.678431 0.513725 0.0666667 0.678431 0.513725 
0.0666667 0.678431 0.513725 0.0666667 0.678431 0.513725 
0.0666667 0.678431 0.513725 0.0666667 0.678431 0.513725 
0.0666667 0.678431 0.513725 0.0666667 0.678431 0.513725 
0.0666667 0.678431 0.513725 0.0666667 0.678431 0.513725 
0.0666667 0.678431 0.513725 0.0666667 0.678431 0.513725 
0.0666667 0.678431 0.513725 0.0666667 0.678431 0.513725 
0.0666667 0.678431 0.513725 0.0666667 0.678431 0.513725 
0.0666667 0.678431 0.513725 0.0666667 0.678431 0.513725 
0.0666667 0.678431 0.513725 0.0666667 0.678431 0.513725 
0.0666667 0.678431 0.513725 0.0666667 0.678431 0.513725 
0.0666667 0.678431 0.513725 0.0666667 0.678431 0.513725 
0.0666667 0.678431 0.513725 0.0666667 0.678431 0.513725 
0.0666667 0.678431 0.513725 0.0666667 0.678431 0.513725 
0.0666667 0.678431 0.513725 0.0666667 0.678431 0.513725 
0.0666667 0.678431 0.513725 0.0666667 0.678431 0.513725 
0.0666667 0.678431 0.513725 0.0666667 0.678431 0.513725 
0.0666667 0.678431 0.513725 0.0666667 0.678431 0.513725 
0.0666667 0.678431 0.513725 0.0666667 0.678431 0.513725 
0.0666667 0.678431 0.513725 0.0666667 0.678431 0.513725 
0.0666667 0.678431 0.513725 0.0666667 0.678431 0.513725 
0.0666667 0.678431 0.513725 0.0666667 0.678431 0.513725 
0.0666667 0.678431 0.513725 0.0666667 0.678431 0.513725 
0.0666667 0.678431 0.513725 0.0666667 0.678431 0.513725 
0.0666667 0.678431 0.513725 0.0666667 0.678431 0.513725 
0.0666667 0.678431 0.513725 0.0666667 0.678431 0.513725 
0.0666667 0.678431 0.513725 0.0666667 0.678431 0.513725 
0.0666667 0.678431 0.513725 0.0666667 0.678431 0.513725 
0.0666667 0.678431 0.513725 0.0666667 0.678431 0.513725 
0.0666667 0.678431 0.513725 0.0666667 0.678431 0.513725 
0.0666667 0.678431 0.513725 0.0666667 0.678431 0.513725 
0.0666667 0.678431 0.513725 0.0666667 0.678431 0.513725 
0.0666667 0.678431 0.513725 0.0666667 0.678431 0.513725 
0.0666667 0.678431 0.513725 0.0666667 0.678431 0.513725 
0.0666667 0.678431 0.513725 0.0666667 0.678431 0.513725 
0.0666667 0.678431 0.513725 0.0666667 0.678431 0.513725 
0.0666667 0.678431 0.513725 0.0666667 0.678431 0.513725 
0.0666667 0.678431 0.513725 0.0666667 0.678431 0.513725 
0.0666667 0.678431 0.513725 0.0666667 0.678431 0.513725 
0.0666667 0.678431 0.513725 0.0666667 0.678431 0.513725 
0.0666667 0.678431 0.513725 0.0666667 0.678431 0.513725 
0.0666667 0.678431 0.513725 0.0666667 0.678431 0.513725 
0.0666667 0.678431 0.513725 0.0666667 0.678431 0.513725 
0.0666667 0.678431 0.513725 0.0666667 0.678431 0.513725 
0.0666667 0.678431 0.513725 0.0666667 0.678431 0.513725 
0.0666667 0.678431 0.513725 0.0666667 0.678431 0.513725 
0.0666667 0.678431 0.513725 0.0666667 0.678431 0.513725 
0.0666667 0.678431 0.513725 0.0666667 0.678431 0.513725 
0.0666667 0.678431 0.513725 0.0666667 0.678431 0.513725 
0.0666667 0.678431 0.513725 0.0666667 0.678431 0.513725 
0.0666667 0.678431 0.513725 0.0666667 0.678431 0.513725 
0.0666667 0.678431 0.513725 0.0666667 0.678431 0.513725 
0.0666667 0.678431 0.513725 0.0666667 0.678431 0.513725 
0.0666667 0.678431 0.513725 0.0666667 0.678431 0.513725 
0.0666667 0.678431 0.513725 0.0666667 0.678431 0.513725 
0.0666667 0.678431 0.513725 0.0666667 0.678431 0.513725 
0.0666667 0.678431 0.513725 0.0666667 0.678431 0.513725 
0.0666667 0.678431 0.513725 0.0666667 0.678431 0.513725 
0.0666667 0.678431 0.513725 0.0666667 0.678431 0.513725 
0.0666667 0.678431 0.513725 0.0666667 0.678431 0.513725 
0.0666667 0.678431 0.513725 0.0666667 0.678431 0.513725 
0.0666667 0.678431 0.513725 0.0666667 0.678431 0.513725 
0.0666667 0.678431 0.513725 0.0666667 0.678431 0.513725 
0.0666667 0.678431 0.513725 0.0666667 0.678431 0.513725 
0.0666667 0.678431 0.513725 0.0666667 0.678431 0.513725 
0.0666667 0.678431 0.513725 0.0666667 0.678431 0.513725 
0.0666667 0.678431 0.513725 0.0666667 0.678431 0.513725 
0.0666667 0.678431 0.513725 0.0666667 0.678431 0.513725 
0.0666667 0.678431 0.513725 0.0666667 0.678431 0.513725 
0.0666667 0.678431 0.513725 0.0666667 0.678431 0.513725 
0.0666667 0.678431 0.513725 0.0666667 0.678431 0.513725 
0.0666667 0.678431 0.513725 0.0666667 0.678431 0.513725 
0.0666667 0.678431 0.513725 0.0666667 0.678431 0.513725 
0.0666667 0.678431 0.513725 0.0666667 0.678431 0.513725 
0.0666667 0.678431 0.513725 0.0666667 0.678431 0.513725 
0.0666667 0.678431 0.513725 0.0666667 0.678431 0.513725 
0.0666667 0.678431 0.513725 0.0666667 0.678431 0.513725 
0.0666667 0.678431 0.513725 0.0666667 0.678431 0.513725 
0.0666667 0.678431 0.513725 0.0666667 0.678431 0.513725 
0.0666667 0.678431 0.513725 0.0666667 0.678431 0.513725 
0.0666667 0.678431 0.513725 0.0666667 0.678431 0.513725 
0.0666667 0.678431 0.513725 0.0666667 0.678431 0.513725 
0.0666667 0.678431 0.513725 0.0666667 0.678431 0.513725 
0.0666667 0.678431 0.513725 0.0666667 0.678431 0.513725 
0.0666667 0.678431 0.513725 0.0666667 0.678431 0.513725 
0.0666667 0.678431 0.513725 0.0666667 0.678431 0.513725 
0.0666667 0.678431 0.513725 0.0666667 0.678431 0.513725 
0.0666667 0.678431 0.513725 0.0666667 0.678431 0.513725 
0.0666667 0.678431 0.513725 0.0666667 0.678431 0.513725 
0.0666667 0.678431 0.513725 0.0666667 0.678431 0.513725 
0.0666667 0.678431 0.513725 0.0666667 0.678431 0.513725 
0.0666667 0.678431 0.513725 0.0666667 0.678431 0.513725 
0.0666667 0.678431 0.513725 0.0666667 0.678431 0.513725 
0.0666667 0.678431 0.513725 0.0666667 0.678431 0.513725 
0.0666667 0.678431 0.513725 0.0666667 0.678431 0.513725 
0.0666667 0.678431 0.513725 0.0666667 0.678431 0.513725 
0.0666667 0.678431 0.513725 0.0666667 0.678431 0.513725 
0.0666667 0.678431 0.513725 0.0666667 0.678431 0.513725 
0.0666667 0.678431 0.513725 0.0666667 0.678431 0.513725 
0.0666667 0.678431 0.513725 0.0666667 0.678431 0.513725 
0.0666667 0.678431 0.513725 0.0666667 0.678431 0.513725 
0.0666667 0.678431 0.513725 0.0666667 0.678431 0.513725 
0.0666667 0.678431 0.513725 0.0666667 0.678431 0.513725 
0.0666667 0.678431 0.513725 0.0666667 0.678431 0.513725 
0.0666667 0.678431 0.513725 0.0666667 0.678431 0.513725 
0.0666667 0.678431 0.513725 0.0666667 0.678431 0.513725 
0.0666667 0.678431 0.513725 0.0666667 0.678431 0.513725 
0.0666667 0.678431 0.513725 
NORMALS Normals float
-0.17345 -0.0839019 -0.981262 0.00261854 -0.0110236 -0.999936 0.219412 0.0175776 -0.975474 
-0.0941595 0.263514 -0.960049 0.134417 0.329227 -0.934634 0.021324 0.501176 -0.865082 
0.191792 -0.570205 -0.7988 0.120565 -0.481393 -0.868173 0.070765 -0.443197 -0.893627 
0.0699836 -0.371801 -0.925671 0.0904212 -0.369462 -0.924836 0.264728 -0.126227 -0.956026 
0.326323 -0.336992 -0.883148 0.385066 -0.397673 -0.832815 0.195916 -0.0326143 -0.980078 
0.501955 -0.0706713 -0.862002 0.661216 0.0273987 -0.749695 0.37424 0.176182 -0.910442 
0.591053 0.154939 -0.791613 -0.210392 0.234341 -0.949115 0.25904 0.547356 -0.795801 
-0.0200058 0.503698 -0.863648 0.756354 -0.318644 -0.57131 0.467557 -0.477423 -0.743948 
0.541692 0.351991 -0.76333 -0.277651 0.251313 -0.927228 0.223759 0.724796 -0.651615 
0.331456 0.519898 -0.787301 -0.0431189 0.485584 -0.873126 0.139256 0.709299 -0.691015 
0.19584 0.73732 -0.646534 0.0879032 0.698086 -0.710598 -0.230083 -0.572823 -0.786725 
-0.448959 -0.78296 -0.430592 -0.470386 -0.441474 -0.764092 0.0985258 -0.390248 -0.915423 
-0.0707712 -0.903282 -0.42317 0.262176 -0.647179 -0.715837 -0.204252 -0.17936 -0.962347 
0.236221 -0.751882 -0.615527 0.527797 -0.710188 -0.4659 -0.125069 -0.257544 -0.958138 
-0.226264 0.104733 -0.968419 0.740601 0.336273 -0.581748 -0.434494 0.0461566 -0.899491 
0.3891 0.702416 -0.595997 0.317419 0.776568 -0.544231 -0.250311 0.385612 -0.888058 
-0.0383455 0.578052 -0.815099 0.146885 0.769052 -0.622081 0.162715 0.862723 -0.478783 
0.227411 0.87442 -0.428573 -0.129033 0.445731 -0.885818 0.497444 -0.626451 -0.60009 
0.153148 -0.728859 -0.667316 0.765634 -0.592231 -0.251132 -0.481829 -0.833949 -0.269016 
-0.552215 -0.492356 -0.672788 0.359597 -0.36484 -0.858826 0.218162 -0.736258 -0.64057 
0.791346 -0.419089 -0.445123 -0.282476 -0.332241 -0.899902 -0.50659 -0.652558 -0.563502 
0.223777 -0.214314 -0.950786 0.64201 -0.264232 -0.719725 0.814846 -0.250691 -0.522667 
-0.362308 -0.671914 -0.64596 -0.375109 -0.553556 -0.743552 0.486019 -0.227911 -0.843707 
-0.32684 -0.392133 -0.859888 0.21947 -0.69706 -0.682598 0.276016 -0.91512 -0.29389 
0.428646 -0.873642 -0.230246 0.928285 -0.262151 -0.263749 0.883503 -0.0031103 -0.468415 
0.934332 0.261405 -0.242261 0.492488 0.766874 -0.411533 0.669228 0.675583 -0.309388 
0.368245 0.883001 -0.29104 0.432239 0.865209 -0.254133 0.268461 0.852021 -0.449432 
0.307081 0.914091 -0.264836 0.114223 0.749148 -0.65248 -0.415938 0.518835 -0.746864 
-0.105718 0.73823 -0.666213 0.414985 -0.901918 0.119715 0.0745405 -0.991263 -0.108819 
0.727012 -0.668625 0.156183 -0.419972 -0.906436 -0.0446998 -0.198283 -0.97611 0.0888445 
-0.41309 -0.901222 -0.130983 0.880439 -0.391786 -0.267078 0.61581 -0.217739 -0.757211 
0.798876 -0.546095 -0.252146 -0.474119 -0.801678 -0.364038 0.636072 -0.329993 -0.697508 
0.737301 -0.5024 -0.451643 -0.45155 -0.385359 -0.804736 0.475881 -0.450651 -0.755282 
0.305154 -0.945205 -0.116052 0.66114 -0.737764 -0.136371 0.919443 0.355074 -0.168956 
-0.690786 0.247666 -0.67932 0.624552 0.768617 -0.138426 0.0760891 0.938493 -0.33681 
0.242689 0.942755 -0.228726 -0.549601 0.670936 -0.497779 -0.134986 0.850507 -0.508347 
-0.215431 -0.921759 0.322412 0.7449 -0.662048 0.0825646 -0.490614 -0.723912 -0.485025 
0.672512 -0.663374 -0.328118 -0.573295 -0.540163 -0.616081 0.535743 -0.82406 -0.184132 
-0.585698 -0.39947 -0.705252 -0.57792 -0.128674 -0.805885 0.802485 -0.591412 -0.0790548 
0.957528 -0.287928 0.0153947 0.990711 0.121925 -0.0602225 0.670364 0.728684 -0.140114 
-0.638372 0.367762 -0.67619 0.356096 0.927381 0.114718 -0.80561 0.412259 -0.425482 
0.151666 0.988426 0.00329309 -0.721889 0.631232 -0.283588 0.19033 0.95008 -0.247231 
-0.373985 0.853228 -0.363506 0.0502241 0.955053 -0.29215 0.18978 -0.872543 0.45017 