# vtk DataFile Version 4.2
vtk output
ASCII
DATASET POLYDATA
POINTS 872 float
250.41 181.144 61.4336 250.051 181.145 61.3398 250.376 181.377 61.3111 
250.623 181.195 61.5334 250.605 181.378 61.4383 250.733 181.368 61.6205 
250.524 181.61 61.3757 250.678 181.635 61.581 250.534 181.865 61.5173 
243.183 179.514 62.0012 245.875 179.682 61.6715 245.981 179.407 61.9361 
246.383 179.361 62.1494 244.879 180.134 61.4387 249.013 180.432 61.6642 
248.524 180.108 61.8647 243.242 180.993 61.4008 247.241 180.686 61.2558 
249.63 180.55 61.8201 250.342 180.838 61.9236 250.679 181.172 61.6867 
250.749 181.306 61.8188 249.338 182.896 61.442 245.983 184.375 61.4815 
248.526 183.553 61.4466 249.724 183.55 62.0703 250.119 183.254 62.2671 
248.976 184.17 62.0093 249.392 184.015 62.2204 243.615 179.122 62.3937 
246.118 179.189 62.4973 240.317 179.927 62.5968 238.933 179.605 62.898 
249.989 180.634 62.0986 239.73 181.219 62.1606 243.254 182.151 61.3396 
250.438 182.949 62.553 242.737 184.368 61.9142 249.825 183.792 62.5072 
242.37 185.222 62.3868 248.987 184.462 62.3723 244.168 185.457 62.3286 
246.306 185.577 62.5468 245.396 185.679 62.5559 234.694 175.993 64.0825 
234.596 176.108 63.9857 234.858 176.049 64.1622 234.219 176.15 64.0359 
235.295 176.624 63.85 235.646 176.701 64.0229 236.123 177.024 64.133 
236.056 177.765 63.3739 237.247 177.937 63.9055 237.785 178.59 63.443 
237.986 178.4 63.9118 244.15 178.979 62.9153 239.04 178.966 63.7438 
241.735 179.304 63.2617 245.311 179.074 63.1488 246.89 179.362 62.9983 
248.055 179.727 62.7386 234.211 181.689 62.9508 235.767 183.645 63.1028 
250.414 183.108 63.0465 249.845 183.941 63.0225 235.99 185.14 63.9403 
248.868 184.692 62.7435 248.486 184.937 62.92 249.458 184.289 63.3208 
238.065 185.285 63.972 243.3 185.721 62.6342 246.057 185.842 62.9639 
241.169 185.943 63.8761 242.485 185.985 63.2049 243.054 186.224 63.4665 
243.601 186.241 63.4187 234.656 175.934 64.2329 230.856 175.953 65.1362 
230.609 176.438 64.6775 232.188 176.305 64.3627 232.717 175.954 64.6459 
234.006 175.913 64.4349 231.076 176.827 64.2741 237.632 178.126 64.2163 
237.596 178.152 64.6286 239.013 178.93 64.5264 241.325 179.356 64.1443 
249.469 180.628 63.2879 249.903 181.015 63.4152 250.515 181.549 63.1083 
250.549 182.242 63.3317 250.325 183.149 63.4666 249.547 184.152 63.6712 
250.087 183.371 63.7866 247.854 185.196 63.4342 233.553 185.483 64.2841 
236.073 185.555 64.5417 235.386 185.705 64.5203 237.503 185.445 64.5917 
239.717 185.662 64.2963 245.939 185.903 63.2448 245.5 185.962 63.5611 
246.544 185.655 63.6468 234.458 185.76 64.484 242.385 186.236 63.9073 
244.841 186.087 63.4515 234.452 175.906 64.3956 228.474 176.31 65.5189 
228.032 175.896 66.1202 229.375 176.232 65.2941 229.98 175.796 65.6573 
233.033 175.743 65.0858 227.219 177.056 65.4133 229.867 176.71 64.7344 
226.175 177.955 65.4425 227.801 177.645 64.9759 236.373 177.307 64.8985 
226.042 178.765 65.3571 228.43 178.299 64.6007 238.185 178.69 64.9958 
240.618 179.481 64.7612 246.622 179.643 64.0067 246.31 179.792 64.3465 
249.117 181.026 64.2116 249.564 181.374 64.1076 227.8 183.962 65.4628 
250.003 182.898 64.1581 250.002 183.168 64.07 228.6 184.938 65.5517 
249.015 184.052 64.2603 228.925 185.481 65.7201 238.241 185.308 65.2024 
240.085 185.59 64.7452 241.5 185.73 64.8507 241.633 185.528 65.0659 
229.367 185.791 65.6565 232.322 185.738 64.7052 235.523 185.836 65.1644 
236.645 185.52 65.2101 241.561 185.893 64.588 244.684 185.915 64.4035 
230.474 186.634 65.8794 234.25 186.057 64.8764 243.209 186.24 64.0963 
231.427 186.987 65.945 231.44 186.744 65.6699 232.545 186.854 65.8536 
226.188 176.209 66.3616 226.947 175.577 66.9729 231.951 175.593 65.8824 
233.371 175.762 65.4068 234.026 175.967 65.39 225.318 178.952 65.6832 
242.318 179.752 64.8874 244.728 179.788 64.6856 241.518 180.154 65.3895 
225.994 180.889 65.4952 241.277 180.543 65.6976 248.1 181.141 64.911 
249.183 182.191 64.7022 225.386 182.67 66.8064 248.618 182.966 64.9722 
249.127 183.463 64.5474 239.855 184.935 65.4939 240.893 184.614 65.6549 
246.55 184.259 65.3363 236.553 185.372 65.7169 236.824 185.097 65.9517 
241.231 185.139 65.3415 244.583 185.676 64.7266 244.077 185.411 65.0713 
228.632 185.939 66.8325 229.16 185.929 66.0385 234.404 186.171 65.9278 
243.071 185.812 64.7878 230.852 186.925 66.3934 231.235 187.036 66.1514 
233.124 186.75 65.9346 231.644 187.067 66.1514 222.543 176.212 67.9518 
228.292 175.384 67.1777 230.018 175.423 66.8242 231.615 175.57 66.5126 
233.331 175.87 65.9726 223.028 176.66 67.4082 222.111 177.447 67.7686 
222.126 178.079 67.8502 222.429 178.948 68.0817 237.396 179.237 66.0878 
223.421 179.618 67.2271 224.028 179.632 66.5999 244.072 180.76 65.6033 
246.98 180.868 65.0963 241.428 181.187 65.9626 242.869 181.185 65.9321 
223.909 181.012 67.6043 238.925 182.071 66.3911 240.071 182.028 66.2079 
242.024 182.721 66.1453 243.625 182.38 66.2725 245.701 183.01 66.0535 
224.967 182.869 68.0727 243.619 182.922 66.261 225.942 183.852 67.4867 
235.162 185.108 66.7718 242.887 184.245 65.7827 226.708 184.612 67.5562 
228.966 186.149 66.9337 229.123 186.174 67.1894 229.51 186.391 66.8612 
232.964 186.471 66.8989 231.279 186.948 66.6893 232.364 186.883 66.5281 
220.092 175.688 69.6337 221.956 175.466 69.1503 225.407 175.349 68.2923 
232.042 175.83 67.0467 233.391 177.142 67.6907 233.207 176.637 67.4217 
219.955 176.913 69.0914 222.758 179.489 68.2069 245.362 182.32 66.1452 
244.202 183.12 66.2641 227.241 184.952 68.0335 229.099 185.919 67.6314 
230.369 186.446 67.4488 231.671 186.597 67.2875 230.617 186.653 67.2165 
218.696 175.971 70.0406 218.014 176.105 70.3149 220.764 175.358 69.9071 
222.424 175.299 69.4913 226.869 175.34 68.5624 228.615 175.444 68.2554 
231.752 176.413 68.1456 232.735 176.246 67.286 217.932 177.191 70.2133 
217.629 177.298 70.4856 220.677 177.974 69.554 221.269 178.259 69.2677 
222.326 179.093 69.0537 223.563 180.714 68.6565 223.929 181.087 68.8541 
225.025 182.929 68.787 225.247 183.235 68.6465 226.343 184.323 68.2712 
227.14 184.681 68.422 230.507 186.084 67.8149 217.131 175.817 71.4816 
216.91 176.109 71.2194 217.721 175.9 70.7053 217.74 175.618 71.2218 
221.303 175.189 70.3235 222.977 175.273 69.9242 229.249 175.707 68.6292 
230.405 176.24 68.8109 216.686 176.403 71.2913 230.154 176.465 69.1466 
216.842 176.738 70.9976 216.514 176.77 71.4409 230.313 177.669 69.686 
216.429 177.12 71.6521 217.187 177.135 70.7866 220.42 178.106 70.2505 
221.104 178.25 70.3394 216.639 177.384 71.5291 217.578 177.628 70.8995 
222.32 178.967 69.5011 223.28 179.999 69.2124 224.691 181.812 69.29 
225.018 182.075 69.4093 230.882 182.699 69.4441 225.221 183.086 68.8973 
228.887 184.252 69.1277 228.268 184.391 68.9974 216.96 175.76 72.0921 
223.565 175.44 70.3673 226.453 175.746 69.7399 227.847 176.328 69.9197 
228.026 176.933 70.2496 216.299 176.809 71.9249 216.266 177.152 72.0837 
221.173 178.198 71.3483 221.932 178.341 70.8411 222.694 178.879 70.2117 
222.902 178.255 71.1761 216.632 177.734 72.4276 224.517 180.571 69.8871 
225.537 182.133 69.6199 227.09 181.669 70.1392 226.973 183.918 69.089 
221.61 175.232 71.4522 222.295 175.35 71.1848 225.48 176.351 70.7114 
227.08 176.077 69.9644 224.337 176.557 71.349 226.512 176.712 70.6259 
222.839 177.515 71.9202 224.566 177.58 71.3305 216.208 177.196 72.4717 
216.333 177.401 72.3306 221.933 177.913 72.0446 226.698 177.983 70.9263 
227.4 177.811 70.7321 226.639 179.393 70.8194 216.456 176.105 72.8105 
223.083 176.086 71.7753 222.548 176.065 72.301 216.273 176.376 72.9393 
222.917 176.723 72.2184 222.272 176.638 73.168 223.72 176.565 71.6494 
216.188 177.054 72.8048 222.314 177.235 72.7044 222.044 177.103 73.6161 
216.648 178.007 73.698 216.907 178.275 74.0992 216.55 176.124 73.9088 
217.073 175.676 74.3569 216.406 176.579 74.2389 222.002 176.619 74.1082 
221.82 177.479 73.9922 216.482 177.745 74.4122 216.595 177.967 74.1097 
220.874 178.402 74.0326 221.753 176.152 74.6836 216.436 176.996 75.6209 
221.96 177.262 75.1582 221.361 178.2 74.8172 216.916 178.332 75.3484 
218.171 179.053 75.3514 219.192 179.174 75.0126 217.19 175.742 76.4626 
216.545 176.564 76.1283 216.478 177.486 76.7319 216.727 178.096 75.8388 
220.846 178.761 75.2687 217.601 178.885 76.3194 220.09 179.14 75.4355 
218.615 179.307 76.6011 221.695 178.489 76.422 217.957 179.108 77.6925 
220.401 179.212 76.0753 219.866 179.415 76.8885 221.022 175.404 77.4988 
222.458 177.376 77.3513 221.849 178.876 77.5995 219.083 179.386 77.9377 
221.484 179.254 77.6346 221.37 179.367 77.6305 220.569 175.371 78.0243 
221.051 175.344 78.0089 221.085 175.398 78.2153 221.239 175.4 78.0202 
221.495 175.648 78.081 222.295 176.377 78.4752 221.193 175.359 78.1458 
222.529 176.96 78.1736 222.457 176.733 78.5553 222.63 177.99 78.4502 
222.637 177.743 78.6552 222.546 178.387 78.4905 221.428 179.26 78.1405 
221.41 179.358 77.7837 221.96 179.202 78.6241 222.26 179.081 78.7629 
222.429 178.912 78.9458 222.11 179.193 78.9445 222.314 179.095 79.0135 
225.004 182.013 79.0087 225.004 182.013 79.0087 225.004 182.013 79.0087 
225.004 182.013 79.0088 225.004 182.013 79.0088 221.272 175.456 78.2257 
221.186 175.671 78.5239 221.774 175.957 78.5528 221.979 176.276 78.8833 
222.281 176.508 78.785 216.166 177.202 79.8626 222.278 177.039 79.1886 
222.457 177.271 79.0524 216.401 178 80.3947 218.367 178.934 79.6478 
219.34 179.212 79.089 221.056 179.153 78.9835 222.357 178.972 79.1389 
221.953 179.171 79.1164 222.184 179.089 79.1634 225.004 182.013 79.0088 
220.501 176.219 79.5085 221.239 176.581 79.5117 221.871 177.565 79.581 
216.142 177.761 80.9271 216.241 177.964 80.8221 216.218 177.917 80.9767 
216.324 178.029 80.7966 216.544 178.081 80.7999 221.364 178.301 79.7706 
221.868 178.124 79.6063 216.248 177.996 80.908 218.718 178.901 79.8096 
222.202 178.842 79.3006 217.217 176.301 80.8274 218.157 176.543 80.8284 
218.248 176.951 81.0028 218.202 177.857 80.8981 216.027 177.563 81.2168 
216.285 177.772 81.1554 216.302 177.981 80.95 216.785 178.149 80.8513 
[...]
POINT_DATA 872
COLOR_SCALARS scalars 3
0.0666667 0.678431 0.513725 0.0666667 0.678431 0.513725 0.0666667 0.678431 0.513725 
0.0666667 0.678431 0.513725 0.0666667 0.678431 0.513725 
0.0666667 0.678431 0.513725 0.0666667 0.678431 0.513725 
0.0666667 0.678431 0.513725 0.0666667 0.678431 0.513725 
0.0666667 0.678431 0.513725 0.0666667 0.678431 0.513725 
0.0666667 0.678431 0.513725 0.0666667 0.678431 0.513725 
0.0666667 0.678431 0.513725 0.0666667 0.678431 0.513725 
0.0666667 0.678431 0.513725 0.0666667 0.678431 0.513725 
0.0666667 0.678431 0.513725 0.0666667 0.678431 0.513725 
0.0666667 0.678431 0.513725 0.0666667 0.678431 0.513725 
0.0666667 0.678431 0.513725 0.0666667 0.678431 0.513725 
0.0666667 0.678431 0.513725 0.0666667 0.678431 0.513725 
0.0666667 0.678431 0.513725 0.0666667 0.678431 0.513725 
0.0666667 0.678431 0.513725 0.0666667 0.678431 0.513725 
0.0666667 0.678431 0.513725 0.0666667 0.678431 0.513725 
0.0666667 0.678431 0.513725 0.0666667 0.678431 0.513725 
0.0666667 0.678431 0.513725 0.0666667 0.678431 0.513725 
0.0666667 0.678431 0.513725 0.0666667 0.678431 0.513725 
0.0666667 0.678431 0.513725 0.0666667 0.678431 0.513725 
0.0666667 0.678431 0.513725 0.0666667 0.678431 0.513725 
0.0666667 0.678431 0.513725 0.0666667 0.678431 0.513725 
0.0666667 0.678431 0.513725 0.0666667 0.678431 0.513725 
0.0666667 0.678431 0.513725 0.0666667 0.678431 0.513725 
0.0666667 0.678431 0.513725 0.0666667 0.678431 0.513725 
0.0666667 0.678431 0.513725 0.0666667 0.678431 0.513725 
0.0666667 0.678431 0.513725 0.0666667 0.678431 0.513725 
0.0666667 0.678431 0.513725 0.0666667 0.678431 0.513725 
0.0666667 0.678431 0.513725 0.0666667 0.678431 0.513725 
0.0666667 0.678431 0.513725 0.0666667 0.678431 0.513725 
0.0666667 0.678431 0.513725 0.0666667 0.678431 0.513725 
0.0666667 0.678431 0.513725 0.0666667 0.678431 0.513725 
0.0666667 0.678431 0.513725 0.0666667 0.678431 0.513725 
0.0666667 0.678431 0.513725 0.0666667 0.678431 0.513725 
0.0666667 0.678431 0.513725 0.0666667 0.678431 0.513725 
0.0666667 0.678431 0.513725 0.0666667 0.678431 0.513725 
0.0666667 0.678431 0.513725 0.0666667 0.678431 0.513725 
0.0666667 0.678431 0.513725 0.0666667 0.678431 0.513725 
0.0666667 0.678431 0.513725 0.0666667 0.678431 0.513725 
0.0666667 0.678431 0.513725 0.0666667 0.678431 0.513725 
0.0666667 0.678431 0.513725 0.0666667 0.678431 0.513725 
0.0666667 0.678431 0.513725 0.0666667 0.678431 0.513725 
0.0666667 0.678431 0.513725 0.0666667 0.678431 0.513725 
0.0666667 0.678431 0.513725 0.0666667 0.678431 0.513725 
0.0666667 0.678431 0.513725 0.0666667 0.678431 0.513725 
0.0666667 0.678431 0.513725 0.0666667 0.678431 0.513725 
0.0666667 0.678431 0.513725 0.0666667 0.678431 0.513725 
0.0666667 0.678431 0.513725 0.0666667 0.678431 0.513725 
0.0666667 0.678431 0.513725 0.0666667 0.678431 0.513725 
0.0666667 0.678431 0.513725 0.0666667 0.678431 0.513725 
0.0666667 0.678431 0.513725 0.0666667 0.678431 0.513725 
0.0666667 0.678431 0.513725 0.0666667 0.678431 0.513725 
0.0666667 0.678431 0.513725 0.0666667 0.678431 0.513725 
0.0666667 0.678431 0.513725 0.0666667 0.678431 0.513725 
0.0666667 0.678431 0.513725 0.0666667 0.678431 0.513725 
0.0666667 0.678431 0.513725 0.0666667 0.678431 0.513725 
0.0666667 0.678431 0.513725 0.0666667 0.678431 0.513725 
0.0666667 0.678431 0.513725 0.0666667 0.678431 0.513725 
0.0666667 0.678431 0.513725 0.0666667 0.678431 0.513725 
0.0666667 0.678431 0.513725 0.0666667 0.678431 0.513725 
0.0666667 0.678431 0.513725 0.0666667 0.678431 0.513725 
0.0666667 0.678431 0.513725 0.0666667 0.678431 0.513725 
0.0666667 0.678431 0.513725 0.0666667 0.678431 0.513725 
0.0666667 0.678431 0.513725 0.0666667 0.678431 0.513725 
0.0666667 0.678431 0.513725 0.0666667 0.678431 0.513725 
0.0666667 0.678431 0.513725 0.0666667 0.678431 0.513725 
0.0666667 0.678431 0.513725 0.0666667 0.678431 0.513725 
0.0666667 0.678431 0.513725 0.0666667 0.678431 0.513725 
0.0666667 0.678431 0.513725 0.0666667 0.678431 0.513725 
0.0666667 0.678431 0.513725 0.0666667 0.678431 0.513725 
0.0666667 0.678431 0.513725 0.0666667 0.678431 0.513725 
0.0666667 0.678431 0.513725 0.0666667 0.678431 0.513725 
0.0666667 0.678431 0.513725 0.0666667 0.678431 0.513725 
0.0666667 0.678431 0.513725 0.0666667 0.678431 0.513725 
0.0666667 0.678431 0.513725 0.0666667 0.678431 0.513725 
0.0666667 0.678431 0.513725 0.0666667 0.678431 0.513725 
0.0666667 0.678431 0.513725 0.0666667 0.678431 0.513725 
0.0666667 0.678431 0.513725 0.0666667 0.678431 0.513725 
0.0666667 0.678431 0.513725 0.0666667 0.678431 0.513725 
0.0666667 0.678431 0.513725 0.0666667 0.678431 0.513725 
0.0666667 0.678431 0.513725 0.0666667 0.678431 0.513725 
0.0666667 0.678431 0.513725 0.0666667 0.678431 0.513725 
0.0666667 0.678431 0.513725 0.0666667 0.678431 0.513725 
0.0666667 0.678431 0.513725 0.0666667 0.678431 0.513725 
0.0666667 0.678431 0.513725 0.0666667 0.678431 0.513725 
0.0666667 0.678431 0.513725 0.0666667 0.678431 0.513725 
0.0666667 0.678431 0.513725 0.0666667 0.678431 0.513725 
0.0666667 0.678431 0.513725 0.0666667 0.678431 0.513725 
0.0666667 0.678431 0.513725 0.0666667 0.678431 0.513725 
0.0666667 0.678431 0.513725 0.0666667 0.678431 0.513725 
0.0666667 0.678431 0.513725 0.0666667 0.678431 0.513725 
0.0666667 0.678431 0.513725 0.0666667 0.678431 0.513725 
0.0666667 0.678431 0.513725 0.0666667 0.678431 0.513725 
0.0666667 0.678431 0.513725 0.0666667 0.678431 0.513725 
0.0666667 0.678431 0.513725 0.0666667 0.678431 0.513725 
0.0666667 0.678431 0.513725 0.0666667 0.678431 0.513725 
0.0666667 0.678431 0.513725 0.0666667 0.678431 0.513725 
0.0666667 0.678431 0.513725 0.0666667 0.678431 0.513725 
0.0666667 0.678431 0.513725 0.0666667 0.678431 0.513725 
0.0666667 0.678431 0.513725 0.0666667 0.678431 0.513725 
0.0666667 0.678431 0.513725 0.0666667 0.678431 0.513725 
0.0666667 0.678431 0.513725 0.0666667 0.678431 0.513725 
0.0666667 0.678431 0.513725 0.0666667 0.678431 0.513725 
0.0666667 0.678431 0.513725 0.0666667 0.678431 0.513725 
0.0666667 0.678431 0.513725 0.0666667 0.678431 0.513725 
0.0666667 0.678431 0.513725 0.0666667 0.678431 0.513725 
0.0666667 0.678431 0.513725 0.0666667 0.678431 0.513725 
0.0666667 0.678431 0.513725 0.0666667 0.678431 0.513725 
0.0666667 0.678431 0.513725 0.0666667 0.678431 0.513725 
0.0666667 0.678431 0.513725 0.0666667 0.678431 0.513725 
0.0666667 0.678431 0.513725 0.0666667 0.678431 0.513725 
0.0666667 0.678431 0.513725 0.0666667 0.678431 0.513725 
0.0666667 0.678431 0.513725 0.0666667 0.678431 0.513725 
0.0666667 0.678431 0.513725 0.0666667 0.678431 0.513725 
0.0666667 0.678431 0.513725 0.0666667 0.678431 0.513725 
0.0666667 0.678431 0.513725 0.0666667 0.678431 0.513725 
0.0666667 0.678431 0.513725 0.0666667 0.678431 0.513725 
0.0666667 0.678431 0.513725 0.0666667 0.678431 0.513725 
0.0666667 0.678431 0.513725 0.0666667 0.678431 0.513725 
0.0666667 0.678431 0.513725 0.0666667 0.678431 0.513725 
0.0666667 0.678431 0.513725 0.0666667 0.678431 0.513725 
0.0666667 0.678431 0.513725 0.0666667 0.678431 0.513725 
0.0666667 0.678431 0.513725 0.0666667 0.678431 0.513725 
0.0666667 0.678431 0.513725 0.0666667 0.678431 0.513725 
0.0666667 0.678431 0.513725 0.0666667 0.678431 0.513725 
0.0666667 0.678431 0.513725 0.0666667 0.678431 0.513725 
0.0666667 0.678431 0.513725 0.0666667 0.678431 0.513725 
0.0666667 0.678431 0.513725 0.0666667 0.678431 0.513725 
0.0666667 0.678431 0.513725 0.0666667 0.678431 0.513725 
0.0666667 0.678431 0.513725 0.0666667 0.678431 0.513725 
0.0666667 0.678431 0.513725 0.0666667 0.678431 0.513725 
0.0666667 0.678431 0.513725 0.0666667 0.678431 0.513725 
0.0666667 0.678431 0.513725 0.0666667 0.678431 0.513725 
0.0666667 0.678431 0.513725 0.0666667 0.678431 0.513725 
0.0666667 0.678431 0.513725 0.0666667 0.678431 0.513725 
0.0666667 0.678431 0.513725 0.0666667 0.678431 0.513725 
0.0666667 0.678431 0.513725 0.0666667 0.678431 0.513725 
0.0666667 0.678431 0.513725 0.0666667 0.678431 0.513725 
0.0666667 0.678431 0.513725 0.0666667 0.678431 0.513725 
0.0666667 0.678431 0.513725 0.0666667 0.678431 0.513725 
0.0666667 0.678431 0.513725 0.0666667 0.678431 0.513725 
0.0666667 0.678431 0.513725 0.0666667 0.678431 0.513725 
0.0666667 0.678431 0.513725 0.0666667 0.678431 0.513725 
0.0666667 0.678431 0.513725 0.0666667 0.678431 0.513725 
0.0666667 0.678431 0.513725 0.0666667 0.678431 0.513725 
0.0666667 0.678431 0.513725 0.0666667 0.678431 0.513725 
0.0666667 0.678431 0.513725 0.0666667 0.678431 0.513725 
0.0666667 0.678431 0.513725 0.0666667 0.678431 0.513725 
0.0666667 0.678431 0.513725 0.0666667 0.678431 0.513725 
0.0666667 0.678431 0.513725 0.0666667 0.678431 0.513725 
0.0666667 0.678431 0.513725 0.0666667 0.678431 0.513725 
0.0666667 0.678431 0.513725 0.0666667 0.678431 0.513725 
0.0666667 0.678431 0.513725 0.0666667 0.678431 0.513725 
0.0666667 0.678431 0.513725 0.0666667 0.678431 0.513725 
0.0666667 0.678431 0.513725 0.0666667 0.678431 0.513725 
0.0666667 0.678431 0.513725 0.0666667 0.678431 0.513725 
0.0666667 0.678431 0.513725 0.0666667 0.678431 0.513725 
0.0666667 0.678431 0.513725 0.0666667 0.678431 0.513725 
0.0666667 0.678431 0.513725 0.0666667 0.678431 0.513725 
0.0666667 0.678431 0.513725 0.0666667 0.678431 0.513725 
0.0666667 0.678431 0.513725 0.0666667 0.678431 0.513725 
0.0666667 0.678431 0.513725 0.0666667 0.678431 0.513725 
0.0666667 0.678431 0.513725 0.0666667 0.678431 0.513725 
0.0666667 0.678431 0.513725 0.0666667 0.678431 0.513725 
0.0666667 0.678431 0.513725 0.0666667 0.678431 0.513725 
0.0666667 0.678431 0.513725 0.0666667 0.678431 0.513725 
0.0666667 0.678431 0.513725 0.0666667 0.678431 0.513725 
0.0666667 0.678431 0.513725 0.0666667 0.678431 0.513725 
0.0666667 0.678431 0.513725 0.0666667 0.678431 0.513725 
0.0666667 0.678431 0.513725 0.0666667 0.678431 0.513725 
0.0666667 0.678431 0.513725 0.0666667 0.678431 0.513725 
0.0666667 0.678431 0.513725 0.0666667 0.678431 0.513725 
0.0666667 0.678431 0.513725 0.0666667 0.678431 0.513725 
0.0666667 0.678431 0.513725 0.0666667 0.678431 0.513725 
0.0666667 0.678431 0.513725 0.0666667 0.678431 0.513725 
0.0666667 0.678431 0.513725 0.0666667 0.678431 0.513725 
0.0666667 0.678431 0.513725 0.0666667 0.678431 0.513725 
0.0666667 0.678431 0.513725 0.0666667 0.678431 0.513725 
0.0666667 0.678431 0.513725 0.0666667 0.678431 0.513725 
0.0666667 0.678431 0.513725 0.0666667 0.678431 0.513725 
0.0666667 0.678431 0.513725 0.0666667 0.678431 0.513725 
0.0666667 0.678431 0.513725 0.0666667 0.678431 0.513725 
0.0666667 0.678431 0.513725 0.0666667 0.678431 0.513725 
0.0666667 0.678431 0.513725 0.0666667 0.678431 0.513725 
0.0666667 0.678431 0.513725 0.0666667 0.678431 0.513725 
0.0666667 0.678431 0.513725 0.0666667 0.678431 0.513725 
0.0666667 0.678431 0.513725 0.0666667 0.678431 0.513725 
0.0666667 0.678431 0.513725 0.0666667 0.678431 0.513725 
0.0666667 0.678431 0.513725 0.0666667 0.678431 0.513725 
0.0666667 0.678431 0.513725 0.0666667 0.678431 0.513725 
0.0666667 0.678431 0.513725 0.0666667 0.678431 0.513725 
0.0666667 0.678431 0.513725 0.0666667 0.678431 0.513725 
0.0666667 0.678431 0.513725 0.0666667 0.678431 0.513725 
0.0666667 0.678431 0.513725 0.0666667 0.678431 0.513725 
0.0666667 0.678431 0.513725 0.0666667 0.678431 0.513725 
0.0666667 0.678431 0.513725 0.0666667 0.678431 0.513725 
0.0666667 0.678431 0.513725 0.0666667 0.678431 0.513725 
0.0666667 0.678431 0.513725 0.0666667 0.678431 0.513725 
0.0666667 0.678431 0.513725 0.0666667 0.678431 0.513725 
0.0666667 0.678431 0.513725 0.0666667 0.678431 0.513725 
0.0666667 0.678431 0.513725 0.0666667 0.678431 0.513725 
0.0666667 0.678431 0.513725 0.0666667 0.678431 0.513725 
0.0666667 0.678431 0.513725 0.0666667 0.678431 0.513725 
0.0666667 0.678431 0.513725 0.0666667 0.678431 0.513725 
0.0666667 0.678431 0.513725 0.0666667 0.678431 0.513725 
0.0666667 0.678431 0.513725 0.0666667 0.678431 0.513725 
0.0666667 0.678431 0.513725 0.0666667 0.678431 0.513725 
0.0666667 0.678431 0.513725 0.0666667 0.678431 0.513725 
0.0666667 0.678431 0.513725 0.0666667 0.678431 0.513725 
0.0666667 0.678431 0.513725 0.0666667 0.678431 0.513725 
0.0666667 0.678431 0.513725 0.0666667 0.678431 0.513725 
0.0666667 0.678431 0.513725 0.0666667 0.678431 0.513725 
0.0666667 0.678431 0.513725 0.0666667 0.678431 0.513725 
0.0666667 0.678431 0.513725 0.0666667 0.678431 0.513725 
0.0666667 0.678431 0.513725 0.0666667 0.678431 0.513725 
0.0666667 0.678431 0.513725 0.0666667 0.678431 0.513725 
0.0666667 0.678431 0.513725 0.0666667 0.678431 0.513725 
0.0666667 0.678431 0.513725 0.0666667 0.678431 0.513725 
0.0666667 0.678431 0.513725 0.0666667 0.678431 0.513725 
0.0666667 0.678431 0.513725 0.0666667 0.678431 0.513725 
0.0666667 0.678431 0.513725 0.0666667 0.678431 0.513725 
0.0666667 0.678431 0.513725 0.0666667 0.678431 0.513725 
0.0666667 0.678431 0.513725 0.0666667 0.678431 0.513725 
0.0666667 0.678431 0.513725 0.0666667 0.678431 0.513725 
0.0666667 0.678431 0.513725 0.0666667 0.678431 0.513725 
0.0666667 0.678431 0.513725 0.0666667 0.678431 0.513725 
0.0666667 0.678431 0.513725 0.0666667 0.678431 0.513725 
0.0666667 0.678431 0.513725 0.0666667 0.678431 0.513725 
0.0666667 0.678431 0.513725 0.0666667 0.678431 0.513725 
0.0666667 0.678431 0.513725 0.0666667 0.678431 0.513725 
0.0666667 0.678431 0.513725 0.0666667 0.678431 0.513725 
0.0666667 0.678431 0.513725 0.0666667 0.678431 0.513725 
0.0666667 0.678431 0.513725 0.0666667 0.678431 0.513725 
0.0666667 0.678431 0.513725 0.0666667 0.678431 0.513725 
0.0666667 0.678431 0.513725 0.0666667 0.678431 0.513725 
0.0666667 0.678431 0.513725 0.0666667 0.678431 0.513725 
0.0666667 0.678431 0.513725 0.0666667 0.678431 0.513725 
0.0666667 0.678431 0.513725 0.0666667 0.678431 0.513725 
0.0666667 0.678431 0.513725 0.0666667 0.678431 0.513725 
0.0666667 0.678431 0.513725 0.0666667 0.678431 0.513725 
0.0666667 0.678431 0.513725 0.0666667 0.678431 0.513725 
0.0666667 0.678431 0.513725 0.0666667 0.678431 0.513725 
0.0666667 0.678431 0.513725 0.0666667 0.678431 0.513725 
0.0666667 0.678431 0.513725 0.0666667 0.678431 0.513725 
0.0666667 0.678431 0.513725 0.0666667 0.678431 0.513725 
0.0666667 0.678431 0.513725 0.0666667 0.678431 0.513725 
0.0666667 0.678431 0.513725 0.0666667 0.678431 0.513725 
0.0666667 0.678431 0.513725 0.0666667 0.678431 0.513725 
0.0666667 0.678431 0.513725 0.0666667 0.678431 0.513725 
0.0666667 0.678431 0.513725 0.0666667 0.678431 0.513725 
0.0666667 0.678431 0.513725 0.0666667 0.678431 0.513725 
0.0666667 0.678431 0.513725 0.0666667 0.678431 0.513725 
0.0666667 0.678431 0.513725 0.0666667 0.678431 0.513725 
0.0666667 0.678431 0.513725 0.0666667 0.678431 0.513725 
0.0666667 0.678431 0.513725 0.0666667 0.678431 0.513725 
0.0666667 0.678431 0.513725 0.0666667 0.678431 0.513725 
0.0666667 0.678431 0.513725 0.0666667 0.678431 0.513725 
0.0666667 0.678431 0.513725 0.0666667 0.678431 0.513725 
0.0666667 0.678431 0.513725 0.0666667 0.678431 0.513725 
0.0666667 0.678431 0.513725 0.0666667 0.678431 0.513725 
0.0666667 0.678431 0.513725 0.0666667 0.678431 0.513725 
0.0666667 0.678431 0.513725 0.0666667 0.678431 0.513725 
0.0666667 0.678431 0.513725 0.0666667 0.678431 0.513725 
0.0666667 0.678431 0.513725 0.0666667 0.678431 0.513725 
0.0666667 0.678431 0.513725 0.0666667 0.678431 0.513725 
0.0666667 0.678431 0.513725 0.0666667 0.678431 0.513725 
0.0666667 0.678431 0.513725 0.0666667 0.678431 0.513725 
0.0666667 0.678431 0.513725 0.0666667 0.678431 0.513725 
0.0666667 0.678431 0.513725 0.0666667 0.678431 0.513725 
0.0666667 0.678431 0.513725 0.0666667 0.678431 0.513725 
0.0666667 0.678431 0.513725 0.0666667 0.678431 0.513725 
0.0666667 0.678431 0.513725 0.0666667 0.678431 0.513725 
0.0666667 0.678431 0.513725 0.0666667 0.678431 0.513725 
0.0666667 0.678431 0.513725 0.0666667 0.678431 0.513725 
0.0666667 0.678431 0.513725 0.0666667 0.678431 0.513725 
0.0666667 0.678431 0.513725 0.0666667 0.678431 0.513725 
0.0666667 0.678431 0.513725 0.0666667 0.678431 0.513725 
0.0666667 0.678431 0.513725 0.0666667 0.678431 0.513725 
0.0666667 0.678431 0.513725 0.0666667 0.678431 0.513725 
0.0666667 0.678431 0.513725 0.0666667 0.678431 0.513725 
0.0666667 0.678431 0.513725 0.0666667 0.678431 0.513725 
0.0666667 0.678431 0.513725 0.0666667 0.678431 0.513725 
0.0666667 0.678431 0.513725 0.0666667 0.678431 0.513725 
0.0666667 0.678431 0.513725 0.0666667 0.678431 0.513725 
0.0666667 0.678431 0.513725 0.0666667 0.678431 0.513725 
0.0666667 0.678431 0.513725 0.0666667 0.678431 0.513725 
0.0666667 0.678431 0.513725 0.0666667 0.678431 0.513725 
0.0666667 0.678431 0.513725 0.0666667 0.678431 0.513725 
0.0666667 0.678431 0.513725 0.0666667 0.678431 0.513725 
0.0666667 0.678431 0.513725 0.0666667 0.678431 0.513725 
0.0666667 0.678431 0.513725 0.0666667 0.678431 0.513725 
0.0666667 0.678431 0.513725 0.0666667 0.678431 0.513725 
0.0666667 0.678431 0.513725 0.0666667 0.678431 0.513725 
0.0666667 0.678431 0.513725 0.0666667 0.678431 0.513725 
0.0666667 0.678431 0.513725 0.0666667 0.678431 0.513725 
0.0666667 0.678431 0.513725 0.0666667 0.678431 0.513725 
0.0666667 0.678431 0.513725 0.0666667 0.678431 0.513725 
0.0666667 0.678431 0.513725 0.0666667 0.678431 0.513725 
0.0666667 0.678431 0.513725 0.0666667 0.678431 0.513725 
0.0666667 0.678431 0.513725 0.0666667 0.678431 0.513725 
0.0666667 0.678431 0.513725 0.0666667 0.678431 0.513725 
0.0666667 0.678431 0.513725 0.0666667 0.678431 0.513725 
0.0666667 0.678431 0.513725 0.0666667 0.678431 0.513725 
0.0666667 0.678431 0.513725 0.0666667 0.678431 0.513725 
0.0666667 0.678431 0.513725 0.0666667 0.678431 0.513725 
0.0666667 0.678431 0.513725 0.0666667 0.678431 0.513725 
0.0666667 0.678431 0.513725 0.0666667 0.678431 0.513725 
0.0666667 0.678431 0.513725 0.0666667 0.678431 0.513725 
0.0666667 0.678431 0.513725 0.0666667 0.678431 0.513725 
0.0666667 0.678431 0.513725 0.0666667 0.678431 0.513725 
0.0666667 0.678431 0.513725 0.0666667 0.678431 0.513725 
0.0666667 0.678431 0.513725 0.0666667 0.678431 0.513725 
0.0666667 0.678431 0.513725 0.0666667 0.678431 0.513725 
0.0666667 0.678431 0.513725 0.0666667 0.678431 0.513725 
0.0666667 0.678431 0.513725 0.0666667 0.678431 0.513725 
0.0666667 0.678431 0.513725 0.0666667 0.678431 0.513725 
0.0666667 0.678431 0.513725 0.0666667 0.678431 0.513725 
0.0666667 0.678431 0.513725 0.0666667 0.678431 0.513725 
0.0666667 0.678431 0.513725 0.0666667 0.678431 0.513725 
0.0666667 0.678431 0.513725 0.0666667 0.678431 0.513725 
0.0666667 0.678431 0.513725 0.0666667 0.678431 0.513725 
0.0666667 0.678431 0.513725 0.0666667 0.678431 0.513725 
0.0666667 0.678431 0.513725 0.0666667 0.678431 0.513725 
0.0666667 0.678431 0.513725 0.0666667 0.678431 0.513725 
0.0666667 0.678431 0.513725 0.0666667 0.678431 0.513725 
0.0666667 0.678431 0.513725 0.0666667 0.678431 0.513725 
0.0666667 0.678431 0.513725 0.0666667 0.678431 0.513725 
0.0666667 0.678431 0.513725 0.0666667 0.678431 0.513725 
0.0666667 0.678431 0.513725 0.0666667 0.678431 0.513725 
0.0666667 0.678431 0.513725 0.0666667 0.678431 0.513725 
0.0666667 0.678431 0.513725 0.0666667 0.678431 0.513725 
0.0666667 0.678431 0.513725 0.0666667 0.678431 0.513725 
0.0666667 0.678431 0.513725 0.0666667 0.678431 0.513725 
0.0666667 0.678431 0.513725 0.0666667 0.678431 0.513725 
0.0666667 0.678431 0.513725 0.0666667 0.678431 0.513725 
0.0666667 0.678431 0.513725 0.0666667 0.678431 0.513725 
0.0666667 0.678431 0.513725 0.0666667 0.678431 0.513725 
0.0666667 0.678431 0.513725 0.0666667 0.678431 0.513725 
0.0666667 0.678431 0.513725 0.0666667 0.678431 0.513725 
0.0666667 0.678431 0.513725 0.0666667 0.678431 0.513725 
0.0666667 0.678431 0.513725 0.0666667 0.678431 0.513725 
0.0666667 0.678431 0.513725 0.0666667 0.678431 0.513725 
0.0666667 0.678431 0.513725 0.0666667 0.678431 0.513725 
0.0666667 0.678431 0.513725 0.0666667 0.678431 0.513725 
0.0666667 0.678431 0.513725 0.0666667 0.678431 0.513725 
0.0666667 0.678431 0.513725 0.0666667 0.678431 0.513725 
0.0666667 0.678431 0.513725 0.0666667 0.678431 0.513725 
0.0666667 0.678431 0.513725 0.0666667 0.678431 0.513725 
0.0666667 0.678431 0.513725 0.0666667 0.678431 0.513725 
0.0666667 0.678431 0.513725 0.0666667 0.678431 0.513725 