# vtk DataFile Version 4.2
vtk output
ASCII
DATASET POLYDATA
POINTS 1569 float
255.868 179.649 60.1743 256.648 179.927 60.2734 256.895 180.001 60.3978 
256.848 180.238 60.3188 257.037 180.202 60.4706 256.417 180.647 60.1857 
257.029 180.5 60.4876 256.317 180.964 60.2486 256.901 180.906 60.5677 
256.624 181.212 60.5462 250.704 171.281 61.1883 251.315 171.809 61.2015 
249.163 173.697 60.5914 251.694 173.736 60.8711 252.193 176.923 60.4349 
253.572 176.259 61.1885 255.697 178.919 60.5234 251.217 178.806 60.798 
256.35 179.3 60.582 256.774 179.609 60.6312 255.621 179.93 60.1454 
252.69 181.339 61.1244 253.021 180.803 60.7205 257.176 180.706 60.7724 
252.984 182.152 61.1965 253.367 182.63 61.091 254.922 181.854 60.5551 
253.364 183.31 61.2781 254.135 183.629 61.2987 254.652 183.16 61.1261 
250.571 170.976 61.5279 250.357 171.062 61.4944 250.779 171.034 61.4939 
248.047 172.143 61.5526 247.852 171.777 62.1184 247.39 172.159 61.8577 
251.298 171.44 61.4876 251.377 171.647 61.359 251.505 171.692 61.6017 
245.359 173.256 61.7555 246.33 173.005 61.5948 242.913 173.544 62.5524 
245.258 173.902 61.4528 247.76 173.305 60.9993 245.709 174.403 61.21 
252.367 173.417 61.6113 246.296 175.042 61.0419 248.772 175.725 60.553 
242.342 176.362 61.9956 247.692 176.496 61.0215 248.541 177.331 61.172 
249.575 178.572 61.7778 256.902 179.693 60.7616 251.13 179.55 61.4283 
257.315 180.488 60.8528 257.324 180.402 60.9734 257.307 180.693 60.9606 
257.356 180.566 60.9913 252.636 181.955 61.5696 257.099 180.968 61.1829 
257.307 180.695 61.0641 252.577 183.748 61.9825 255.475 182.832 61.2344 
256.271 182.186 61.4849 252.403 185.111 61.93 254.157 184.283 61.6831 
250.77 186.388 62.274 252.839 185.76 61.8726 253.382 185.41 61.8788 
250.272 187.385 62.1655 251.482 187.02 61.9539 250.669 187.575 62.0426 
250.847 187.939 62.0456 253.412 186.719 62.4544 252.443 188.021 62.191 
252.8 187.787 62.3122 252.953 188.176 62.6145 250.677 170.939 61.6794 
250.865 171.008 61.7082 248.388 171.441 62.4609 241.167 173.621 63.4122 
240.638 174.02 63.1841 242.104 173.921 62.5448 238.895 174.999 63.4139 
241.145 174.615 62.4697 239.281 175.378 63.0522 241.519 174.99 62.1852 
238.998 175.914 63.119 241.277 175.59 62.2085 253.675 175.753 62.1428 
239.417 176.521 63.0606 239.495 177.106 63.2418 246.029 177.924 62.407 
255.211 177.886 61.5541 256.249 178.966 61.4555 239.914 177.55 63.3656 
248.604 178.315 62.09 251.498 180.068 62.1168 252.013 180.676 62.1607 
257.25 180.523 61.1554 252.557 181.974 62.1512 256.98 180.973 61.712 
256.883 181.355 61.6586 256.939 181.238 61.8179 252.584 182.963 62.3125 
256.297 182.177 61.7851 256.506 181.789 61.8762 252.323 183.791 62.5308 
251.388 185.093 62.6569 254.338 184.522 62.1264 254.768 183.933 62.009 
253.961 185.437 62.4913 246.537 188.549 62.9309 247.884 189.156 62.6876 
248.206 188.802 62.5795 250.803 188.513 62.2262 249.025 189.364 62.6316 
252.023 189.063 62.6326 253.229 188.381 63.1513 251.574 189.542 62.8724 
252.104 189.515 62.969 252.36 189.658 63.2423 250.048 171.036 62.7353 
251.275 171.342 62.1056 247.585 171.579 63.3424 252.06 172.508 62.6263 
242.573 173.016 63.6821 237.728 175.044 64.3665 238.575 174.764 63.8077 
239.187 174.035 64.2827 237.48 175.395 64.432 253.266 175.198 62.8733 
237.631 175.714 64.1137 238.091 176.735 63.7421 254.445 177.119 62.3232 
247.432 178.399 62.7809 256.227 179.399 61.9752 255.92 179.562 62.3408 
249.745 178.897 63.1608 250.904 179.428 62.7093 251.798 180.112 62.6213 
252.606 181.331 62.5832 256.453 180.352 62.2077 252.816 182.32 62.6857 
256.898 181.164 61.924 256.735 181.21 62.0741 252.594 183.197 62.7227 
252.335 183.808 63.0349 254.961 183.697 62.1725 251.753 184.433 63.5462 
251.171 184.901 63.214 254.152 184.971 62.8362 239.316 188.455 63.9582 
253.692 187.401 63.6188 240.981 189.098 63.7832 242.421 188.724 63.6608 
242.406 189.406 63.6692 247.841 189.619 62.9039 248.709 189.712 62.8807 
244.106 190.121 63.6363 244.429 190.417 63.7586 253.071 189.424 63.7196 
245.726 190.63 63.7559 247.28 190.495 63.5744 248.009 190.628 63.7569 
249.976 190.402 63.7779 251.677 190.129 63.7518 252.863 189.717 63.831 
250.421 171.131 62.9575 251.602 172.008 63.0725 237.152 175.499 64.9621 
253.197 175.402 63.2299 253.315 175.951 63.3233 237.226 176.29 64.5784 
253.791 178.357 63.3455 255.057 178.351 62.476 247.985 178.771 63.9406 
254.052 179.343 63.1966 254.872 179.409 62.8985 249.713 178.616 64.0237 
251.641 179.353 63.2848 252.498 180.351 62.9445 254.215 180.344 63.0995 
253.195 181.362 62.9471 253.258 182.297 62.9992 253.558 182.734 63.1574 
252.924 183.102 63.0714 254.158 182.482 63.1053 252.588 183.903 63.4896 
254.183 184.323 63.1372 251.148 184.742 64.4013 252.177 184.459 64.0895 
253.798 185.418 63.7066 237.442 187.376 64.7404 237.296 187.996 64.5733 
237.043 188.224 64.6148 244.83 187.585 63.6257 237.356 189.218 64.568 
238.445 189.602 64.3427 238.759 189.93 64.4183 239.975 189.741 64.1133 
242.06 189.791 63.8191 253.628 189.326 64.7706 240.007 190.266 64.3502 
241.068 190.927 64.803 241.395 190.681 64.4808 243.368 190.762 64.327 
244.449 190.771 64.1372 248.107 190.885 64.1921 248.757 190.956 64.7013 
249.994 171.338 63.6169 251.013 171.578 63.2947 250.836 171.764 63.7043 
246.948 171.81 64.1274 251.12 172.16 63.8737 251.907 172.973 63.5976 
243.05 172.747 64.9948 237.187 175.064 65.4948 238.065 174.204 65.8381 
252.366 174.535 63.8285 236.986 176.041 64.9892 252.356 176.404 64.1825 
237.145 176.978 64.8848 251.231 177.92 64.342 246.563 179.02 64.2995 
251.907 178.632 63.8014 248.012 178.789 64.8392 249.001 178.536 64.5417 
254.444 182.986 63.0622 253.006 184.174 63.8016 253.831 183.763 63.3797 
251.879 184.801 64.8217 252.646 184.738 64.4527 253.417 184.733 63.9788 
248.059 185.325 64.565 253.57 186.273 64.5825 234.494 188.957 66.0798 
235.148 189.692 65.842 234.989 190.143 66.1868 235.285 190.51 66.2256 
237.092 190.275 65.2501 239.697 190.532 64.6446 251.4 190.55 65.1094 
252.632 190.109 64.7724 237.671 190.746 65.4886 239.401 190.858 65.1337 
242.943 191.394 65.6054 244.472 191.457 65.9452 245.713 191.292 65.0846 
247.378 191.197 64.846 240.055 191.278 65.7415 241.081 191.185 65.2945 
250.243 171.647 63.9118 248.983 171.895 64.5652 249.396 172.24 64.878 
246.602 172.246 65.0954 249.828 172.491 64.9025 242.072 172.958 66.0068 
249.969 173.723 65.3921 236.26 175.611 66.6871 236.239 176.546 66.1804 
248.942 177.631 65.6782 248.785 178.233 65.2557 248.452 177.992 65.848 
238.76 179.78 65.3759 241.522 180.165 65.0814 245.294 179.98 65.3548 
247.318 179.139 65.8555 247.093 184.355 65.7855 249.363 184.591 65.907 
252.68 185.382 65.3377 233.944 189.275 66.7661 249.719 190.951 66.0617 
253.333 189.728 65.7225 235.027 190.754 66.8395 240.518 191.524 66.3278 
241.044 191.588 66.6049 235.348 190.996 67.0698 236.736 191.328 66.8908 
242.001 173.067 66.8084 244.352 172.92 66.2636 247.233 174.102 66.7511 
235.798 176.098 66.9159 248.001 175.944 66.7827 221.093 179.831 68.6848 
220.814 179.962 68.661 236.043 179.306 66.6423 247.839 178.271 66.2833 
247.202 178.916 66.8883 221.774 180.18 68.6302 243.145 180.7 65.4871 
246.559 180.148 66.3152 246.872 179.848 66.8403 221.203 180.807 68.4708 
221.64 180.74 68.47 240.357 181.277 65.6217 242.374 181.385 65.6865 
245.772 181.122 66.551 246.358 180.99 66.7094 246.629 180.768 66.9804 
221.193 181.169 68.5366 220.925 181.169 68.6425 222.014 180.863 68.5423 
221.926 181.112 68.5268 237.853 182.145 66.1711 241.178 182.015 65.7097 
244.614 181.671 66.3317 246.302 181.369 67.2726 246.518 181.977 67.1618 
246.537 181.772 67.0524 246.733 181.664 67.2742 221.508 181.677 68.7575 
221.522 181.451 68.6016 222.211 181.344 68.7054 240.954 182.867 65.6983 
243.012 182.471 65.9174 246.885 182.811 66.9417 246.239 182.55 66.9088 
221.86 181.715 68.7752 222.144 181.603 68.7774 241.944 183.583 65.6078 
245.213 183.606 66.0676 247.594 183.054 67.3224 247.8 183.589 66.8629 
248.926 184.111 66.9631 250.906 184.899 66.7664 233.329 188.029 67.5351 
233.888 189.31 67.043 253.483 189.52 66.0045 234.189 189.944 67.3315 
234.868 190.86 67.6085 246.356 173.056 66.278 245.185 174.142 67.6998 
234.55 176.348 68.2979 234.268 176.976 68.1745 234.7 177.406 67.6339 
246.936 176.709 67.7069 220.018 179.371 69.1847 219.843 179.573 69.1496 
220.002 179.833 68.9582 219.476 179.799 69.3965 220.356 179.798 68.7943 
246.939 178.616 67.6614 246.671 180.032 68.0211 219.994 180.662 69.0655 
219.652 180.72 69.41 246.645 180.531 67.4282 246.594 180.739 68.0279 
222.563 181.149 68.9288 245.978 181.771 67.1737 246.568 181.381 67.2728 
246.608 181.446 68.0072 220.347 181.308 69.3955 220.992 181.609 69.1912 
221.346 181.728 68.923 244.264 182.572 66.2422 246.544 181.936 67.4767 
222.023 181.93 69.0158 222.251 181.819 68.9995 244.791 191.386 68.0201 
242.475 173.403 67.9915 244.355 173.965 67.9912 234.059 175.876 69.3756 
234.783 175.355 69.6465 236.305 174.737 69.2149 219.991 179.228 69.4503 
220.276 179.235 69.2778 217.614 179.659 70.8107 246.595 180.112 68.779 
218.636 180.633 70.6505 219.074 180.555 69.9868 222.637 180.537 69.0346 
222.567 180.773 68.9155 246.707 180.918 68.604 220.134 181.486 70.2887 
223.143 181.522 69.522 221.703 182.005 69.2815 222.001 182.044 69.2518 
232.632 183.824 68.3314 231.841 184.715 68.845 250.109 184.451 68.5055 
231.542 185.544 69.2705 232.812 188.371 69.0555 252.597 188.237 69.0452 
234.871 190.652 69.3289 236.832 191.538 68.5766 236.998 174.453 69.6282 
232.151 176.098 70.4787 231.578 176.363 70.4917 231.219 176.897 70.2534 
231.311 178.151 69.6053 245.382 177.643 69.9364 216.019 178.964 71.5237 
215.254 178.632 71.7573 215.851 178.792 71.7087 217.869 179.408 70.7438 
215.75 178.998 71.6975 216.882 179.19 71.3858 216.684 179.353 71.3038 
223.279 180.355 69.624 216.407 179.337 71.5399 217.304 179.826 71.2384 
218.53 180.708 71.0556 222.208 182.18 70.1849 223.069 182.143 70.0687 
223.979 182.32 70.5232 248.018 182.749 69.0294 229.88 184.999 70.6724 
251.361 185.568 69.3665 230.647 185.975 70.7719 252.34 187.283 69.6765 
[...]
POINT_DATA 1569
COLOR_SCALARS scalars 3
0.0666667 0.678431 0.513725 0.0666667 0.678431 0.513725 0.0666667 0.678431 0.513725 
0.0666667 0.678431 0.513725 0.0666667 0.678431 0.513725 
0.0666667 0.678431 0.513725 0.0666667 0.678431 0.513725 
0.0666667 0.678431 0.513725 0.0666667 0.678431 0.513725 
0.0666667 0.678431 0.513725 0.0666667 0.678431 0.513725 
0.0666667 0.678431 0.513725 0.0666667 0.678431 0.513725 
0.0666667 0.678431 0.513725 0.0666667 0.678431 0.513725 
0.0666667 0.678431 0.513725 0.0666667 0.678431 0.513725 
0.0666667 0.678431 0.513725 0.0666667 0.678431 0.513725 
0.0666667 0.678431 0.513725 0.0666667 0.678431 0.513725 
0.0666667 0.678431 0.513725 0.0666667 0.678431 0.513725 
0.0666667 0.678431 0.513725 0.0666667 0.678431 0.513725 
0.0666667 0.678431 0.513725 0.0666667 0.678431 0.513725 
0.0666667 0.678431 0.513725 0.0666667 0.678431 0.513725 
0.0666667 0.678431 0.513725 0.0666667 0.678431 0.513725 
0.0666667 0.678431 0.513725 0.0666667 0.678431 0.513725 
0.0666667 0.678431 0.513725 0.0666667 0.678431 0.513725 
0.0666667 0.678431 0.513725 0.0666667 0.678431 0.513725 
0.0666667 0.678431 0.513725 0.0666667 0.678431 0.513725 
0.0666667 0.678431 0.513725 0.0666667 0.678431 0.513725 
0.0666667 0.678431 0.513725 0.0666667 0.678431 0.513725 
0.0666667 0.678431 0.513725 0.0666667 0.678431 0.513725 
0.0666667 0.678431 0.513725 0.0666667 0.678431 0.513725 
0.0666667 0.678431 0.513725 0.0666667 0.678431 0.513725 
0.0666667 0.678431 0.513725 0.0666667 0.678431 0.513725 
0.0666667 0.678431 0.513725 0.0666667 0.678431 0.513725 
0.0666667 0.678431 0.513725 0.0666667 0.678431 0.513725 
0.0666667 0.678431 0.513725 0.0666667 0.678431 0.513725 
0.0666667 0.678431 0.513725 0.0666667 0.678431 0.513725 
0.0666667 0.678431 0.513725 0.0666667 0.678431 0.513725 
0.0666667 0.678431 0.513725 0.0666667 0.678431 0.513725 
0.0666667 0.678431 0.513725 0.0666667 0.678431 0.513725 
0.0666667 0.678431 0.513725 0.0666667 0.678431 0.513725 
0.0666667 0.678431 0.513725 0.0666667 0.678431 0.513725 
0.0666667 0.678431 0.513725 0.0666667 0.678431 0.513725 
0.0666667 0.678431 0.513725 0.0666667 0.678431 0.513725 
0.0666667 0.678431 0.513725 0.0666667 0.678431 0.513725 
0.0666667 0.678431 0.513725 0.0666667 0.678431 0.513725 
0.0666667 0.678431 0.513725 0.0666667 0.678431 0.513725 
0.0666667 0.678431 0.513725 0.0666667 0.678431 0.513725 
0.0666667 0.678431 0.513725 0.0666667 0.678431 0.513725 
0.0666667 0.678431 0.513725 0.0666667 0.678431 0.513725 
0.0666667 0.678431 0.513725 0.0666667 0.678431 0.513725 
0.0666667 0.678431 0.513725 0.0666667 0.678431 0.513725 
0.0666667 0.678431 0.513725 0.0666667 0.678431 0.513725 
0.0666667 0.678431 0.513725 0.0666667 0.678431 0.513725 
0.0666667 0.678431 0.513725 0.0666667 0.678431 0.513725 
0.0666667 0.678431 0.513725 0.0666667 0.678431 0.513725 
0.0666667 0.678431 0.513725 0.0666667 0.678431 0.513725 
0.0666667 0.678431 0.513725 0.0666667 0.678431 0.513725 
0.0666667 0.678431 0.513725 0.0666667 0.678431 0.513725 
0.0666667 0.678431 0.513725 0.0666667 0.678431 0.513725 
0.0666667 0.678431 0.513725 0.0666667 0.678431 0.513725 
0.0666667 0.678431 0.513725 0.0666667 0.678431 0.513725 
0.0666667 0.678431 0.513725 0.0666667 0.678431 0.513725 
0.0666667 0.678431 0.513725 0.0666667 0.678431 0.513725 
0.0666667 0.678431 0.513725 0.0666667 0.678431 0.513725 
0.0666667 0.678431 0.513725 0.0666667 0.678431 0.513725 
0.0666667 0.678431 0.513725 0.0666667 0.678431 0.513725 
0.0666667 0.678431 0.513725 0.0666667 0.678431 0.513725 
0.0666667 0.678431 0.513725 0.0666667 0.678431 0.513725 
0.0666667 0.678431 0.513725 0.0666667 0.678431 0.513725 
0.0666667 0.678431 0.513725 0.0666667 0.678431 0.513725 
0.0666667 0.678431 0.513725 0.0666667 0.678431 0.513725 
0.0666667 0.678431 0.513725 0.0666667 0.678431 0.513725 
0.0666667 0.678431 0.513725 0.0666667 0.678431 0.513725 
0.0666667 0.678431 0.513725 0.0666667 0.678431 0.513725 
0.0666667 0.678431 0.513725 0.0666667 0.678431 0.513725 
0.0666667 0.678431 0.513725 0.0666667 0.678431 0.513725 
0.0666667 0.678431 0.513725 0.0666667 0.678431 0.513725 
0.0666667 0.678431 0.513725 0.0666667 0.678431 0.513725 
0.0666667 0.678431 0.513725 0.0666667 0.678431 0.513725 
0.0666667 0.678431 0.513725 0.0666667 0.678431 0.513725 
0.0666667 0.678431 0.513725 0.0666667 0.678431 0.513725 
0.0666667 0.678431 0.513725 0.0666667 0.678431 0.513725 
0.0666667 0.678431 0.513725 0.0666667 0.678431 0.513725 
0.0666667 0.678431 0.513725 0.0666667 0.678431 0.513725 
0.0666667 0.678431 0.513725 0.0666667 0.678431 0.513725 
0.0666667 0.678431 0.513725 0.0666667 0.678431 0.513725 
0.0666667 0.678431 0.513725 0.0666667 0.678431 0.513725 
0.0666667 0.678431 0.513725 0.0666667 0.678431 0.513725 
0.0666667 0.678431 0.513725 0.0666667 0.678431 0.513725 
0.0666667 0.678431 0.513725 0.0666667 0.678431 0.513725 
0.0666667 0.678431 0.513725 0.0666667 0.678431 0.513725 
0.0666667 0.678431 0.513725 0.0666667 0.678431 0.513725 
0.0666667 0.678431 0.513725 0.0666667 0.678431 0.513725 
0.0666667 0.678431 0.513725 0.0666667 0.678431 0.513725 
0.0666667 0.678431 0.513725 0.0666667 0.678431 0.513725 
0.0666667 0.678431 0.513725 0.0666667 0.678431 0.513725 
0.0666667 0.678431 0.513725 0.0666667 0.678431 0.513725 
0.0666667 0.678431 0.513725 0.0666667 0.678431 0.513725 
0.0666667 0.678431 0.513725 0.0666667 0.678431 0.513725 
0.0666667 0.678431 0.513725 0.0666667 0.678431 0.513725 
0.0666667 0.678431 0.513725 0.0666667 0.678431 0.513725 
0.0666667 0.678431 0.513725 0.0666667 0.678431 0.513725 
0.0666667 0.678431 0.513725 0.0666667 0.678431 0.513725 
0.0666667 0.678431 0.513725 0.0666667 0.678431 0.513725 
0.0666667 0.678431 0.513725 0.0666667 0.678431 0.513725 
0.0666667 0.678431 0.513725 0.0666667 0.678431 0.513725 
0.0666667 0.678431 0.513725 0.0666667 0.678431 0.513725 
0.0666667 0.678431 0.513725 0.0666667 0.678431 0.513725 
0.0666667 0.678431 0.513725 0.0666667 0.678431 0.513725 
0.0666667 0.678431 0.513725 0.0666667 0.678431 0.513725 
0.0666667 0.678431 0.513725 0.0666667 0.678431 0.513725 
0.0666667 0.678431 0.513725 0.0666667 0.678431 0.513725 
0.0666667 0.678431 0.513725 0.0666667 0.678431 0.513725 
0.0666667 0.678431 0.513725 0.0666667 0.678431 0.513725 
0.0666667 0.678431 0.513725 0.0666667 0.678431 0.513725 
0.0666667 0.678431 0.513725 0.0666667 0.678431 0.513725 
0.0666667 0.678431 0.513725 0.0666667 0.678431 0.513725 
0.0666667 0.678431 0.513725 0.0666667 0.678431 0.513725 
0.0666667 0.678431 0.513725 0.0666667 0.678431 0.513725 
0.0666667 0.678431 0.513725 0.0666667 0.678431 0.513725 
0.0666667 0.678431 0.513725 0.0666667 0.678431 0.513725 
0.0666667 0.678431 0.513725 0.0666667 0.678431 0.513725 
0.0666667 0.678431 0.513725 0.0666667 0.678431 0.513725 
0.0666667 0.678431 0.513725 0.0666667 0.678431 0.513725 
0.0666667 0.678431 0.513725 0.0666667 0.678431 0.513725 
0.0666667 0.678431 0.513725 0.0666667 0.678431 0.513725 
0.0666667 0.678431 0.513725 0.0666667 0.678431 0.513725 
0.0666667 0.678431 0.513725 0.0666667 0.678431 0.513725 
0.0666667 0.678431 0.513725 0.0666667 0.678431 0.513725 
0.0666667 0.678431 0.513725 0.0666667 0.678431 0.513725 
0.0666667 0.678431 0.513725 0.0666667 0.678431 0.513725 
0.0666667 0.678431 0.513725 0.0666667 0.678431 0.513725 
0.0666667 0.678431 0.513725 0.0666667 0.678431 0.513725 
0.0666667 0.678431 0.513725 0.0666667 0.678431 0.513725 
0.0666667 0.678431 0.513725 0.0666667 0.678431 0.513725 
0.0666667 0.678431 0.513725 0.0666667 0.678431 0.513725 
0.0666667 0.678431 0.513725 0.0666667 0.678431 0.513725 
0.0666667 0.678431 0.513725 0.0666667 0.678431 0.513725 
0.0666667 0.678431 0.513725 0.0666667 0.678431 0.513725 
0.0666667 0.678431 0.513725 0.0666667 0.678431 0.513725 
0.0666667 0.678431 0.513725 0.0666667 0.678431 0.513725 
0.0666667 0.678431 0.513725 0.0666667 0.678431 0.513725 
0.0666667 0.678431 0.513725 0.0666667 0.678431 0.513725 
0.0666667 0.678431 0.513725 0.0666667 0.678431 0.513725 
0.0666667 0.678431 0.513725 0.0666667 0.678431 0.513725 
0.0666667 0.678431 0.513725 0.0666667 0.678431 0.513725 
0.0666667 0.678431 0.513725 0.0666667 0.678431 0.513725 
0.0666667 0.678431 0.513725 0.0666667 0.678431 0.513725 
0.0666667 0.678431 0.513725 0.0666667 0.678431 0.513725 
0.0666667 0.678431 0.513725 0.0666667 0.678431 0.513725 
0.0666667 0.678431 0.513725 0.0666667 0.678431 0.513725 
0.0666667 0.678431 0.513725 0.0666667 0.678431 0.513725 
0.0666667 0.678431 0.513725 0.0666667 0.678431 0.513725 
0.0666667 0.678431 0.513725 0.0666667 0.678431 0.513725 
0.0666667 0.678431 0.513725 0.0666667 0.678431 0.513725 
0.0666667 0.678431 0.513725 0.0666667 0.678431 0.513725 
0.0666667 0.678431 0.513725 0.0666667 0.678431 0.513725 
0.0666667 0.678431 0.513725 0.0666667 0.678431 0.513725 
0.0666667 0.678431 0.513725 0.0666667 0.678431 0.513725 
0.0666667 0.678431 0.513725 0.0666667 0.678431 0.513725 
0.0666667 0.678431 0.513725 0.0666667 0.678431 0.513725 
0.0666667 0.678431 0.513725 0.0666667 0.678431 0.513725 
0.0666667 0.678431 0.513725 0.0666667 0.678431 0.513725 
0.0666667 0.678431 0.513725 0.0666667 0.678431 0.513725 
0.0666667 0.678431 0.513725 0.0666667 0.678431 0.513725 
0.0666667 0.678431 0.513725 0.0666667 0.678431 0.513725 
0.0666667 0.678431 0.513725 0.0666667 0.678431 0.513725 
0.0666667 0.678431 0.513725 0.0666667 0.678431 0.513725 
0.0666667 0.678431 0.513725 0.0666667 0.678431 0.513725 
0.0666667 0.678431 0.513725 0.0666667 0.678431 0.513725 
0.0666667 0.678431 0.513725 0.0666667 0.678431 0.513725 
0.0666667 0.678431 0.513725 0.0666667 0.678431 0.513725 
0.0666667 0.678431 0.513725 0.0666667 0.678431 0.513725 
0.0666667 0.678431 0.513725 0.0666667 0.678431 0.513725 
0.0666667 0.678431 0.513725 0.0666667 0.678431 0.513725 
0.0666667 0.678431 0.513725 0.0666667 0.678431 0.513725 
0.0666667 0.678431 0.513725 0.0666667 0.678431 0.513725 
0.0666667 0.678431 0.513725 0.0666667 0.678431 0.513725 
0.0666667 0.678431 0.513725 0.0666667 0.678431 0.513725 
0.0666667 0.678431 0.513725 0.0666667 0.678431 0.513725 
0.0666667 0.678431 0.513725 0.0666667 0.678431 0.513725 
0.0666667 0.678431 0.513725 0.0666667 0.678431 0.513725 
0.0666667 0.678431 0.513725 0.0666667 0.678431 0.513725 
0.0666667 0.678431 0.513725 0.0666667 0.678431 0.513725 
0.0666667 0.678431 0.513725 0.0666667 0.678431 0.513725 
0.0666667 0.678431 0.513725 0.0666667 0.678431 0.513725 
0.0666667 0.678431 0.513725 0.0666667 0.678431 0.513725 
0.0666667 0.678431 0.513725 0.0666667 0.678431 0.513725 
0.0666667 0.678431 0.513725 0.0666667 0.678431 0.513725 
0.0666667 0.678431 0.513725 0.0666667 0.678431 0.513725 
0.0666667 0.678431 0.513725 0.0666667 0.678431 0.513725 
0.0666667 0.678431 0.513725 0.0666667 0.678431 0.513725 
0.0666667 0.678431 0.513725 0.0666667 0.678431 0.513725 
0.0666667 0.678431 0.513725 0.0666667 0.678431 0.513725 
0.0666667 0.678431 0.513725 0.0666667 0.678431 0.513725 
0.0666667 0.678431 0.513725 0.0666667 0.678431 0.513725 
0.0666667 0.678431 0.513725 0.0666667 0.678431 0.513725 
0.0666667 0.678431 0.513725 0.0666667 0.678431 0.513725 
0.0666667 0.678431 0.513725 0.0666667 0.678431 0.513725 
0.0666667 0.678431 0.513725 0.0666667 0.678431 0.513725 
0.0666667 0.678431 0.513725 0.0666667 0.678431 0.513725 
0.0666667 0.678431 0.513725 0.0666667 0.678431 0.513725 
0.0666667 0.678431 0.513725 0.0666667 0.678431 0.513725 
0.0666667 0.678431 0.513725 0.0666667 0.678431 0.513725 
0.0666667 0.678431 0.513725 0.0666667 0.678431 0.513725 
0.0666667 0.678431 0.513725 0.0666667 0.678431 0.513725 
0.0666667 0.678431 0.513725 0.0666667 0.678431 0.513725 
0.0666667 0.678431 0.513725 0.0666667 0.678431 0.513725 
0.0666667 0.678431 0.513725 0.0666667 0.678431 0.513725 
0.0666667 0.678431 0.513725 0.0666667 0.678431 0.513725 
0.0666667 0.678431 0.513725 0.0666667 0.678431 0.513725 
0.0666667 0.678431 0.513725 0.0666667 0.678431 0.513725 
0.0666667 0.678431 0.513725 0.0666667 0.678431 0.513725 
0.0666667 0.678431 0.513725 0.0666667 0.678431 0.513725 
0.0666667 0.678431 0.513725 0.0666667 0.678431 0.513725 
0.0666667 0.678431 0.513725 0.0666667 0.678431 0.513725 
0.0666667 0.678431 0.513725 0.0666667 0.678431 0.513725 
0.0666667 0.678431 0.513725 0.0666667 0.678431 0.513725 
0.0666667 0.678431 0.513725 0.0666667 0.678431 0.513725 
0.0666667 0.678431 0.513725 0.0666667 0.678431 0.513725 
0.0666667 0.678431 0.513725 0.0666667 0.678431 0.513725 
0.0666667 0.678431 0.513725 0.0666667 0.678431 0.513725 
0.0666667 0.678431 0.513725 0.0666667 0.678431 0.513725 
0.0666667 0.678431 0.513725 0.0666667 0.678431 0.513725 
0.0666667 0.678431 0.513725 0.0666667 0.678431 0.513725 
0.0666667 0.678431 0.513725 0.0666667 0.678431 0.513725 
0.0666667 0.678431 0.513725 0.0666667 0.678431 0.513725 
0.0666667 0.678431 0.513725 0.0666667 0.678431 0.513725 
0.0666667 0.678431 0.513725 0.0666667 0.678431 0.513725 
0.0666667 0.678431 0.513725 0.0666667 0.678431 0.513725 
0.0666667 0.678431 0.513725 0.0666667 0.678431 0.513725 
0.0666667 0.678431 0.513725 0.0666667 0.678431 0.513725 
0.0666667 0.678431 0.513725 0.0666667 0.678431 0.513725 
0.0666667 0.678431 0.513725 0.0666667 0.678431 0.513725 
0.0666667 0.678431 0.513725 0.0666667 0.678431 0.513725 
0.0666667 0.678431 0.513725 0.0666667 0.678431 0.513725 
0.0666667 0.678431 0.513725 0.0666667 0.678431 0.513725 
0.0666667 0.678431 0.513725 0.0666667 0.678431 0.513725 
0.0666667 0.678431 0.513725 0.0666667 0.678431 0.513725 
0.0666667 0.678431 0.513725 0.0666667 0.678431 0.513725 
0.0666667 0.678431 0.513725 0.0666667 0.678431 0.513725 
0.0666667 0.678431 0.513725 0.0666667 0.678431 0.513725 
0.0666667 0.678431 0.513725 0.0666667 0.678431 0.513725 
0.0666667 0.678431 0.513725 0.0666667 0.678431 0.513725 
0.0666667 0.678431 0.513725 0.0666667 0.678431 0.513725 
0.0666667 0.678431 0.513725 0.0666667 0.678431 0.513725 
0.0666667 0.678431 0.513725 0.0666667 0.678431 0.513725 
0.0666667 0.678431 0.513725 0.0666667 0.678431 0.513725 
0.0666667 0.678431 0.513725 0.0666667 0.678431 0.513725 
0.0666667 0.678431 0.513725 0.0666667 0.678431 0.513725 
0.0666667 0.678431 0.513725 0.0666667 0.678431 0.513725 
0.0666667 0.678431 0.513725 0.0666667 0.678431 0.513725 
0.0666667 0.678431 0.513725 0.0666667 0.678431 0.513725 
0.0666667 0.678431 0.513725 0.0666667 0.678431 0.513725 
0.0666667 0.678431 0.513725 0.0666667 0.678431 0.513725 
0.0666667 0.678431 0.513725 0.0666667 0.678431 0.513725 
0.0666667 0.678431 0.513725 0.0666667 0.678431 0.513725 
0.0666667 0.678431 0.513725 0.0666667 0.678431 0.513725 
0.0666667 0.678431 0.513725 0.0666667 0.678431 0.513725 
0.0666667 0.678431 0.513725 0.0666667 0.678431 0.513725 
0.0666667 0.678431 0.513725 0.0666667 0.678431 0.513725 
0.0666667 0.678431 0.513725 0.0666667 0.678431 0.513725 
0.0666667 0.678431 0.513725 0.0666667 0.678431 0.513725 
0.0666667 0.678431 0.513725 0.0666667 0.678431 0.513725 
0.0666667 0.678431 0.513725 0.0666667 0.678431 0.513725 
0.0666667 0.678431 0.513725 0.0666667 0.678431 0.513725 
0.0666667 0.678431 0.513725 0.0666667 0.678431 0.513725 
0.0666667 0.678431 0.513725 0.0666667 0.678431 0.513725 
0.0666667 0.678431 0.513725 0.0666667 0.678431 0.513725 
0.0666667 0.678431 0.513725 0.0666667 0.678431 0.513725 
0.0666667 0.678431 0.513725 0.0666667 0.678431 0.513725 
0.0666667 0.678431 0.513725 0.0666667 0.678431 0.513725 
0.0666667 0.678431 0.513725 0.0666667 0.678431 0.513725 
0.0666667 0.678431 0.513725 0.0666667 0.678431 0.513725 
0.0666667 0.678431 0.513725 0.0666667 0.678431 0.513725 
0.0666667 0.678431 0.513725 0.0666667 0.678431 0.513725 
0.0666667 0.678431 0.513725 0.0666667 0.678431 0.513725 
0.0666667 0.678431 0.513725 0.0666667 0.678431 0.513725 
0.0666667 0.678431 0.513725 0.0666667 0.678431 0.513725 
0.0666667 0.678431 0.513725 0.0666667 0.678431 0.513725 
0.0666667 0.678431 0.513725 0.0666667 0.678431 0.513725 
0.0666667 0.678431 0.513725 0.0666667 0.678431 0.513725 
0.0666667 0.678431 0.513725 0.0666667 0.678431 0.513725 
0.0666667 0.678431 0.513725 0.0666667 0.678431 0.513725 
0.0666667 0.678431 0.513725 0.0666667 0.678431 0.513725 
0.0666667 0.678431 0.513725 0.0666667 0.678431 0.513725 
0.0666667 0.678431 0.513725 0.0666667 0.678431 0.513725 
0.0666667 0.678431 0.513725 0.0666667 0.678431 0.513725 
0.0666667 0.678431 0.513725 0.0666667 0.678431 0.513725 
0.0666667 0.678431 0.513725 0.0666667 0.678431 0.513725 
0.0666667 0.678431 0.513725 0.0666667 0.678431 0.513725 
0.0666667 0.678431 0.513725 0.0666667 0.678431 0.513725 
0.0666667 0.678431 0.513725 0.0666667 0.678431 0.513725 
0.0666667 0.678431 0.513725 0.0666667 0.678431 0.513725 
0.0666667 0.678431 0.513725 0.0666667 0.678431 0.513725 
0.0666667 0.678431 0.513725 0.0666667 0.678431 0.513725 
0.0666667 0.678431 0.513725 0.0666667 0.678431 0.513725 
0.0666667 0.678431 0.513725 0.0666667 0.678431 0.513725 
0.0666667 0.678431 0.513725 0.0666667 0.678431 0.513725 
0.0666667 0.678431 0.513725 0.0666667 0.678431 0.513725 
0.0666667 0.678431 0.513725 0.0666667 0.678431 0.513725 
0.0666667 0.678431 0.513725 0.0666667 0.678431 0.513725 
0.0666667 0.678431 0.513725 0.0666667 0.678431 0.513725 
0.0666667 0.678431 0.513725 0.0666667 0.678431 0.513725 
0.0666667 0.678431 0.513725 0.0666667 0.678431 0.513725 
0.0666667 0.678431 0.513725 0.0666667 0.678431 0.513725 
0.0666667 0.678431 0.513725 0.0666667 0.678431 0.513725 
0.0666667 0.678431 0.513725 0.0666667 0.678431 0.513725 
0.0666667 0.678431 0.513725 0.0666667 0.678431 0.513725 
0.0666667 0.678431 0.513725 0.0666667 0.678431 0.513725 
0.0666667 0.678431 0.513725 0.0666667 0.678431 0.513725 
0.0666667 0.678431 0.513725 0.0666667 0.678431 0.513725 
0.0666667 0.678431 0.513725 0.0666667 0.678431 0.513725 
0.0666667 0.678431 0.513725 0.0666667 0.678431 0.513725 
0.0666667 0.678431 0.513725 0.0666667 0.678431 0.513725 
0.0666667 0.678431 0.513725 0.0666667 0.678431 0.513725 
0.0666667 0.678431 0.513725 0.0666667 0.678431 0.513725 
0.0666667 0.678431 0.513725 0.0666667 0.678431 0.513725 
0.0666667 0.678431 0.513725 0.0666667 0.678431 0.513725 
0.0666667 0.678431 0.513725 0.0666667 0.678431 0.513725 
0.0666667 0.678431 0.513725 0.0666667 0.678431 0.513725 
0.0666667 0.678431 0.513725 0.0666667 0.678431 0.513725 
0.0666667 0.678431 0.513725 0.0666667 0.678431 0.513725 
0.0666667 0.678431 0.513725 0.0666667 0.678431 0.513725 
0.0666667 0.678431 0.513725 0.0666667 0.678431 0.513725 
0.0666667 0.678431 0.513725 0.0666667 0.678431 0.513725 
0.0666667 0.678431 0.513725 0.0666667 0.678431 0.513725 
0.0666667 0.678431 0.513725 0.0666667 0.678431 0.513725 
0.0666667 0.678431 0.513725 0.0666667 0.678431 0.513725 
0.0666667 0.678431 0.513725 0.0666667 0.678431 0.513725 
0.0666667 0.678431 0.513725 0.0666667 0.678431 0.513725 
0.0666667 0.678431 0.513725 0.0666667 0.678431 0.513725 
0.0666667 0.678431 0.513725 0.0666667 0.678431 0.513725 
0.0666667 0.678431 0.513725 0.0666667 0.678431 0.513725 
0.0666667 0.678431 0.513725 0.0666667 0.678431 0.513725 
0.0666667 0.678431 0.513725 0.0666667 0.678431 0.513725 
0.0666667 0.678431 0.513725 0.0666667 0.678431 0.513725 
0.0666667 0.678431 0.513725 0.0666667 0.678431 0.513725 
0.0666667 0.678431 0.513725 0.0666667 0.678431 0.513725 
0.0666667 0.678431 0.513725 0.0666667 0.678431 0.513725 
0.0666667 0.678431 0.513725 0.0666667 0.678431 0.513725 
0.0666667 0.678431 0.513725 0.0666667 0.678431 0.513725 
0.0666667 0.678431 0.513725 0.0666667 0.678431 0.513725 
0.0666667 0.678431 0.513725 0.0666667 0.678431 0.513725 
0.0666667 0.678431 0.513725 0.0666667 0.678431 0.513725 
0.0666667 0.678431 0.513725 0.0666667 0.678431 0.513725 
0.0666667 0.678431 0.513725 0.0666667 0.678431 0.513725 
0.0666667 0.678431 0.513725 0.0666667 0.678431 0.513725 
0.0666667 0.678431 0.513725 0.0666667 0.678431 0.513725 
0.0666667 0.678431 0.513725 0.0666667 0.678431 0.513725 
0.0666667 0.678431 0.513725 0.0666667 0.678431 0.513725 
0.0666667 0.678431 0.513725 0.0666667 0.678431 0.513725 
0.0666667 0.678431 0.513725 0.0666667 0.678431 0.513725 
0.0666667 0.678431 0.513725 0.0666667 0.678431 0.513725 
0.0666667 0.678431 0.513725 0.0666667 0.678431 0.513725 
0.0666667 0.678431 0.513725 0.0666667 0.678431 0.513725 