# vtk DataFile Version 4.2
vtk output
ASCII
DATASET POLYDATA
POINTS 1163 float
280.612 163.154 56.757 280.586 164.796 56.7589 281.583 164.22 57.407 
281.167 166.421 57.2133 280.406 170.311 56.9838 279.946 171.541 56.8527 
280.557 172.365 57.2841 282.68 153.185 58.1106 282.715 153.076 58.1677 
282.598 153.14 58.2385 282.782 153.1 58.1868 282.444 153.479 58.0658 
282.357 153.289 58.222 282.151 153.527 58.1635 282.693 153.368 58.0811 
282.793 153.217 58.16 282 153.999 58.0107 281.788 153.711 58.3543 
278.853 156.954 57.5591 282.822 155.247 58.169 279.647 157.814 57.1423 
281.021 157.153 57.3734 282.158 157.438 57.8267 282.73 156.999 58.2363 
276.31 159.099 57.3112 277.841 159.768 56.7979 279.973 159.164 56.9234 
280.359 160.763 56.8772 282.399 160.265 58.2361 277.288 162.211 56.4492 
279.38 164.303 56.4122 281.992 165.543 58.0451 276.86 170.804 56.2507 
279.267 171.055 56.5986 281.415 172.047 58.0437 280.144 180.085 57.4771 
276.639 181.656 56.8198 279.978 183.489 57.7217 282.762 153.063 58.2835 
283.411 152.686 59.2074 283.386 152.682 59.2493 283.425 152.723 59.2896 
282.762 153.044 58.5986 282.906 153.178 58.3937 279.737 154.693 59.0106 
280.483 154.756 58.2868 275.201 157.431 58.9846 273.281 158.985 58.8335 
273.028 159.777 58.3077 283.122 158.678 58.9241 273.184 161.034 57.527 
281.883 167.139 58.1103 281.747 172.116 58.4848 281.89 172.43 58.8 
270.979 178.967 56.8321 281.376 179.888 58.3777 281.604 180.275 58.6558 
281.811 182.606 59.0875 276.557 184.536 57.6713 277.175 185.864 58.3679 
280.007 185.638 58.6387 282.385 186.1 59.7478 282.316 186.239 59.7147 
282.455 186.28 59.7545 282.568 186.264 59.9212 282.444 186.355 59.8031 
283.386 152.705 59.3444 283.243 152.793 59.3131 283.416 152.817 59.4859 
282.886 152.936 59.104 283.212 153.077 58.9925 283.427 152.951 59.3553 
283.493 154.313 59.0777 274.97 157.279 59.3752 268.886 161.602 59.3769 
260.421 166.025 60.3111 257.823 168.355 59.7743 256.12 170.793 59.3178 
255.984 174.167 59.2855 255.464 174.973 59.8922 256.104 176.134 59.9143 
282.066 176.04 59.6729 259.231 180.198 59.8953 259.448 179.823 59.3438 
262.035 179.928 58.2188 281.754 179.083 58.9179 259.507 182.119 60.0859 
282.058 181.185 59.4603 260.276 183.709 59.5248 268.774 183.901 57.9168 
282.171 182.967 59.6495 282.389 184.935 59.9003 267.442 186.384 58.9054 
273.421 186.487 58.7654 276.71 186.415 58.7827 281.834 185.772 59.4969 
282.615 185.742 60.0647 282.803 186.173 60.1882 266.736 187.169 59.3668 
267.233 187.52 59.594 268.216 187.034 59.2114 274.029 187.239 59.4162 
280.59 186.723 59.6387 282.333 186.48 59.9855 282.751 186.431 60.1937 
282.73 186.625 60.3476 268.9 187.601 59.6093 271.447 187.714 59.5894 
273.888 187.799 59.9712 280.393 187.22 60.1911 282.588 186.801 60.5498 
282.882 186.694 60.6661 282.938 152.914 59.5825 283.276 152.904 59.7278 
283.492 153.153 59.8187 279.695 154.396 60.0159 283.957 155.73 60.1045 
275.399 156.865 60.0099 270.296 160.045 60.4184 283.926 159.425 60.7968 
266.533 162.216 60.6052 254.83 169.124 60.7522 253.44 169.981 60.8588 
253.469 170.111 60.78 253.43 170.4 60.8465 254.321 170.225 60.2809 
253.672 170.874 60.5649 254.151 170.863 60.2262 253.585 171.287 60.6768 
282.171 171.573 59.3111 254.023 173.541 61.006 254.447 174.173 60.6455 
255.091 175.584 61.2999 256.456 176.891 60.6223 258.766 179.326 60.4016 
259.214 180.429 60.4648 259.312 181.445 60.619 258.989 183.151 60.6676 
256.806 185.592 61.2268 256.56 185.474 61.5047 257.335 185.512 60.925 
258.658 185.373 60.3394 256.945 186.014 61.0811 257.321 186.119 60.825 
257.57 186.483 60.7262 282.797 184.868 60.4085 258.572 186.777 60.404 
258.93 187.148 60.4192 259.946 186.812 60.0918 282.952 186.295 60.4177 
260.57 187.805 60.3963 270.484 188.058 60.0319 274.057 188.112 60.4486 
267.171 188.59 60.8699 271.96 188.244 60.339 272.859 188.352 60.6707 
283.359 153.163 60.3239 281.421 153.573 60.9575 282.612 153.213 60.6949 
280.185 154.085 60.8653 278.518 155.023 60.9393 284.192 155.978 60.9642 
266.135 162.388 60.8043 260.099 165.712 61.5729 254.777 168.969 61.0541 
255.613 168.46 61.4274 256.329 168.121 61.2335 253.396 170.083 60.9119 
253.419 170.148 61.1369 254.208 169.393 61.4189 253.331 170.583 61.1975 
253.421 171.273 60.9218 253.412 171.419 61.2069 253.867 173.447 61.4135 
254.336 174.367 61.6102 255.836 176.329 61.3745 261.891 178.236 62.1528 
262.889 178.077 62.2524 258.84 178.779 61.0585 263.676 178.255 62.4353 
259.225 179.742 60.9535 259.384 181.292 61.2287 259.814 180.735 61.7678 
258.565 182.927 61.6039 256.766 184.758 61.7511 256.349 185.666 61.7819 
282.99 184.6 60.8027 256.268 186.274 61.8969 259.124 187.711 60.6818 
280.059 187.928 61.6053 282.439 187.272 61.72 256.214 188.61 62.6594 
256.619 188.671 62.413 257.977 188.786 61.9178 262.44 188.934 61.221 
269.028 188.789 61.3969 270.931 188.662 61.2376 260.397 189.285 61.9951 
263.773 189.268 61.6869 284.261 155.388 61.5649 273.159 158.165 61.6621 
268.415 160.909 62.5938 262.101 164.556 62.2863 253.792 170.056 61.8875 
253.472 170.254 61.5018 254.215 169.595 61.9174 253.363 170.601 61.5412 
253.699 172.823 61.8202 254.195 173.832 62.103 266.812 176.258 63.3693 
266.198 176.122 63.3188 267.178 175.934 63.6424 254.966 175.35 61.9286 
263.029 176.493 62.8386 267.69 176.316 63.5898 255.793 176.202 61.7555 
263.819 177.497 62.5314 266.472 177.108 63.0967 257.549 177.412 61.4044 
259.441 178.158 61.7485 267.012 177.464 63.2744 267.952 177.34 63.6617 
259.617 179.226 61.4663 260.485 178.827 61.927 264.587 178.654 62.8607 
266.119 178.232 63.1677 267.358 177.834 63.5028 260.184 179.773 61.8134 
259.075 182.12 61.9753 259.649 181.476 62.2705 283.192 183.828 61.5011 
256.308 185.007 62.3918 283.615 185.078 62.3672 255.699 187.023 62.9322 
283.539 186.046 62.3272 255.617 188.167 63.4553 273.366 188.828 62.884 
256.074 188.773 62.9664 255.847 188.719 63.4268 269.784 188.948 62.0298 
270.591 188.866 61.8682 256.185 189.123 63.2083 256.067 189.168 63.5417 
256.683 189.374 63.3469 256.291 189.317 63.2951 257.595 189.489 63.1355 
256.168 189.274 63.3348 284.347 153.6 63.8849 284.316 153.579 63.9031 
284.292 153.647 63.7815 284.334 153.655 63.9782 283.562 153.689 62.6113 
283.973 154.151 62.0497 284.505 157.209 62.758 263.449 163.756 63.3786 
261.467 165.04 63.6608 258.865 166.474 62.3808 257.442 167.478 62.6539 
255.262 168.853 62.2652 253.432 170.857 61.741 253.697 170.922 62.1586 
253.761 172.295 62.261 253.731 172.646 62.0843 265.873 175.841 63.4527 
268.315 176.01 64.1784 267.973 176.251 63.7649 257.58 176.308 62.5353 
268.826 176.951 64.4318 256.373 176.215 62.1936 267.382 178.366 63.7933 
268.605 178.129 64.3618 268.826 177.945 64.497 265.128 179.186 63.3838 
261.323 180.493 62.9513 267.156 179.203 64.3809 256.271 189.338 63.453 
260.046 189.848 63.3834 263.405 189.709 62.8429 284.271 153.602 63.9898 
284.247 153.736 64.1573 283.76 153.678 63.7284 284.148 153.935 63.4118 
284.314 153.977 64.0236 284.541 157.329 63.577 272.517 159.008 64.311 
284.202 159.985 63.8341 283.449 164.085 63.4344 260.766 165.659 64.1144 
283.321 164.701 63.7103 255.92 168.96 63.0514 254.542 170.347 62.8587 
254.287 172.753 62.7809 254.783 173.988 62.8945 267.526 175.19 64.5089 
254.914 174.37 62.8792 268.398 175.784 64.5083 268.774 175.938 64.8341 
282.909 175.347 63.6901 268.678 176.529 64.3227 269.27 177.087 64.9747 
268.946 178.391 64.9662 260.158 181.68 63.6141 283.802 186.724 64.1149 
283.587 187.001 63.979 283.82 186.863 64.5121 255.498 188.562 64.8959 
270.821 189.078 63.6937 281.42 188.051 64.1317 282.942 187.525 64.2284 
255.812 189.067 64.786 256.101 189.298 64.5084 264.355 189.773 63.7299 
257.347 189.783 64.6135 284.124 153.641 64.0203 283.159 153.791 64.4299 
284.023 153.774 64.3247 284.225 154.038 64.498 279.194 155.52 64.4072 
284.537 157.039 64.1794 284.394 158.442 64.3566 284.099 159.206 64.9797 
283.663 161.473 64.8424 283.543 163.061 64.2394 283.185 164.928 64.2789 
257.94 168.217 64.0087 258.729 168.267 64.7134 282.873 168.522 64.1551 
257.226 169.52 64.1426 254.467 171.494 63.0418 257.982 169.923 64.652 
254.964 171.953 63.3493 258.718 170.412 65.0784 256.316 172.222 63.9399 
258.778 171.199 65.0137 255.059 173.608 63.1775 268.104 175.163 64.9776 
269.532 176.736 65.3904 269.7 176.489 65.7408 266.913 179.938 65.3861 
256.132 184.573 65.1462 284.035 186.26 64.796 283.955 186.564 64.5171 
271.529 188.95 65.4412 274.062 188.778 65.2185 256.523 189.587 65.5652 
260.624 190.054 64.8517 283.998 154.002 64.898 284.217 154.393 65.0205 
284.299 156.377 64.9966 284.204 157.366 65.1762 272.924 159.364 65.5661 
271.517 159.923 65.2946 269.729 161.325 66.0712 271.835 160.074 65.8161 
267.471 162.069 65.3733 265.579 163.063 65.4188 260.638 167.061 66.0455 
259.999 169.035 66.0751 262.46 171.856 66.627 270.381 177.297 66.6294 
269.972 178.089 66.1879 270.039 178.469 66.566 268.405 179.712 66.2895 
255.368 185.377 65.9407 255.259 185.54 65.64 255.168 185.879 65.5424 
255.065 186.344 66.367 284.031 185.588 65.7376 283.998 186.515 65.6649 
279.247 188.328 66.0124 283.78 187.019 65.7548 282.655 187.627 65.6887 
283.551 154.014 65.2297 283.69 154.076 65.3443 283.897 154.107 65.315 
284.165 154.409 65.3938 284.098 154.221 65.3071 284.119 154.318 65.4764 
282.532 154.408 65.1995 284.121 154.823 65.4251 284.078 154.472 65.5298 
281.545 155.638 65.989 283.858 155.113 65.7101 279.679 156.508 66.0698 
283.41 157.017 66.0707 277.161 158.031 66.3724 283.052 157.39 66.2868 
283.928 157.739 65.5716 273.848 159.662 66.5521 269.441 161.598 66.2974 
269.81 161.592 66.5351 271.942 160.445 66.3063 267.778 162.22 65.9659 
283.12 161.204 65.837 265.774 163.226 66.0594 267.861 162.589 66.538 
281.969 162.764 66.6709 282.858 163.03 65.7858 282.532 164.031 65.951 
260.956 167.372 66.6848 282.151 168.692 66.0678 282.552 170.486 65.3634 
282.267 170.979 65.9128 282.145 172.948 66.2676 269.829 175.941 66.4268 
283.552 183.18 66.2952 256.804 184.065 66.5751 283.677 184.141 66.3172 
255.343 185.53 66.4321 255.599 185.198 66.9491 283.992 185.696 66.1823 
[...]
POINT_DATA 1163
COLOR_SCALARS scalars 3
0.0666667 0.678431 0.513725 0.0666667 0.678431 0.513725 0.0666667 0.678431 0.513725 
0.0666667 0.678431 0.513725 0.0666667 0.678431 0.513725 
0.0666667 0.678431 0.513725 0.0666667 0.678431 0.513725 
0.0666667 0.678431 0.513725 0.0666667 0.678431 0.513725 
0.0666667 0.678431 0.513725 0.0666667 0.678431 0.513725 
0.0666667 0.678431 0.513725 0.0666667 0.678431 0.513725 
0.0666667 0.678431 0.513725 0.0666667 0.678431 0.513725 
0.0666667 0.678431 0.513725 0.0666667 0.678431 0.513725 
0.0666667 0.678431 0.513725 0.0666667 0.678431 0.513725 
0.0666667 0.678431 0.513725 0.0666667 0.678431 0.513725 
0.0666667 0.678431 0.513725 0.0666667 0.678431 0.513725 
0.0666667 0.678431 0.513725 0.0666667 0.678431 0.513725 
0.0666667 0.678431 0.513725 0.0666667 0.678431 0.513725 
0.0666667 0.678431 0.513725 0.0666667 0.678431 0.513725 
0.0666667 0.678431 0.513725 0.0666667 0.678431 0.513725 
0.0666667 0.678431 0.513725 0.0666667 0.678431 0.513725 
0.0666667 0.678431 0.513725 0.0666667 0.678431 0.513725 
0.0666667 0.678431 0.513725 0.0666667 0.678431 0.513725 
0.0666667 0.678431 0.513725 0.0666667 0.678431 0.513725 
0.0666667 0.678431 0.513725 0.0666667 0.678431 0.513725 
0.0666667 0.678431 0.513725 0.0666667 0.678431 0.513725 
0.0666667 0.678431 0.513725 0.0666667 0.678431 0.513725 
0.0666667 0.678431 0.513725 0.0666667 0.678431 0.513725 
0.0666667 0.678431 0.513725 0.0666667 0.678431 0.513725 
0.0666667 0.678431 0.513725 0.0666667 0.678431 0.513725 
0.0666667 0.678431 0.513725 0.0666667 0.678431 0.513725 
0.0666667 0.678431 0.513725 0.0666667 0.678431 0.513725 
0.0666667 0.678431 0.513725 0.0666667 0.678431 0.513725 
0.0666667 0.678431 0.513725 0.0666667 0.678431 0.513725 
0.0666667 0.678431 0.513725 0.0666667 0.678431 0.513725 
0.0666667 0.678431 0.513725 0.0666667 0.678431 0.513725 
0.0666667 0.678431 0.513725 0.0666667 0.678431 0.513725 
0.0666667 0.678431 0.513725 0.0666667 0.678431 0.513725 
0.0666667 0.678431 0.513725 0.0666667 0.678431 0.513725 
0.0666667 0.678431 0.513725 0.0666667 0.678431 0.513725 
0.0666667 0.678431 0.513725 0.0666667 0.678431 0.513725 
0.0666667 0.678431 0.513725 0.0666667 0.678431 0.513725 
0.0666667 0.678431 0.513725 0.0666667 0.678431 0.513725 
0.0666667 0.678431 0.513725 0.0666667 0.678431 0.513725 
0.0666667 0.678431 0.513725 0.0666667 0.678431 0.513725 
0.0666667 0.678431 0.513725 0.0666667 0.678431 0.513725 
0.0666667 0.678431 0.513725 0.0666667 0.678431 0.513725 
0.0666667 0.678431 0.513725 0.0666667 0.678431 0.513725 
0.0666667 0.678431 0.513725 0.0666667 0.678431 0.513725 
0.0666667 0.678431 0.513725 0.0666667 0.678431 0.513725 
0.0666667 0.678431 0.513725 0.0666667 0.678431 0.513725 
0.0666667 0.678431 0.513725 0.0666667 0.678431 0.513725 
0.0666667 0.678431 0.513725 0.0666667 0.678431 0.513725 
0.0666667 0.678431 0.513725 0.0666667 0.678431 0.513725 
0.0666667 0.678431 0.513725 0.0666667 0.678431 0.513725 
0.0666667 0.678431 0.513725 0.0666667 0.678431 0.513725 
0.0666667 0.678431 0.513725 0.0666667 0.678431 0.513725 
0.0666667 0.678431 0.513725 0.0666667 0.678431 0.513725 
0.0666667 0.678431 0.513725 0.0666667 0.678431 0.513725 
0.0666667 0.678431 0.513725 0.0666667 0.678431 0.513725 
0.0666667 0.678431 0.513725 0.0666667 0.678431 0.513725 
0.0666667 0.678431 0.513725 0.0666667 0.678431 0.513725 
0.0666667 0.678431 0.513725 0.0666667 0.678431 0.513725 
0.0666667 0.678431 0.513725 0.0666667 0.678431 0.513725 
0.0666667 0.678431 0.513725 0.0666667 0.678431 0.513725 
0.0666667 0.678431 0.513725 0.0666667 0.678431 0.513725 
0.0666667 0.678431 0.513725 0.0666667 0.678431 0.513725 
0.0666667 0.678431 0.513725 0.0666667 0.678431 0.513725 
0.0666667 0.678431 0.513725 0.0666667 0.678431 0.513725 
0.0666667 0.678431 0.513725 0.0666667 0.678431 0.513725 
0.0666667 0.678431 0.513725 0.0666667 0.678431 0.513725 
0.0666667 0.678431 0.513725 0.0666667 0.678431 0.513725 
0.0666667 0.678431 0.513725 0.0666667 0.678431 0.513725 
0.0666667 0.678431 0.513725 0.0666667 0.678431 0.513725 
0.0666667 0.678431 0.513725 0.0666667 0.678431 0.513725 
0.0666667 0.678431 0.513725 0.0666667 0.678431 0.513725 
0.0666667 0.678431 0.513725 0.0666667 0.678431 0.513725 
0.0666667 0.678431 0.513725 0.0666667 0.678431 0.513725 
0.0666667 0.678431 0.513725 0.0666667 0.678431 0.513725 
0.0666667 0.678431 0.513725 0.0666667 0.678431 0.513725 
0.0666667 0.678431 0.513725 0.0666667 0.678431 0.513725 
0.0666667 0.678431 0.513725 0.0666667 0.678431 0.513725 
0.0666667 0.678431 0.513725 0.0666667 0.678431 0.513725 
0.0666667 0.678431 0.513725 0.0666667 0.678431 0.513725 
0.0666667 0.678431 0.513725 0.0666667 0.678431 0.513725 
0.0666667 0.678431 0.513725 0.0666667 0.678431 0.513725 
0.0666667 0.678431 0.513725 0.0666667 0.678431 0.513725 
0.0666667 0.678431 0.513725 0.0666667 0.678431 0.513725 
0.0666667 0.678431 0.513725 0.0666667 0.678431 0.513725 
0.0666667 0.678431 0.513725 0.0666667 0.678431 0.513725 
0.0666667 0.678431 0.513725 0.0666667 0.678431 0.513725 
0.0666667 0.678431 0.513725 0.0666667 0.678431 0.513725 
0.0666667 0.678431 0.513725 0.0666667 0.678431 0.513725 
0.0666667 0.678431 0.513725 0.0666667 0.678431 0.513725 
0.0666667 0.678431 0.513725 0.0666667 0.678431 0.513725 
0.0666667 0.678431 0.513725 0.0666667 0.678431 0.513725 
0.0666667 0.678431 0.513725 0.0666667 0.678431 0.513725 
0.0666667 0.678431 0.513725 0.0666667 0.678431 0.513725 
0.0666667 0.678431 0.513725 0.0666667 0.678431 0.513725 
0.0666667 0.678431 0.513725 0.0666667 0.678431 0.513725 
0.0666667 0.678431 0.513725 0.0666667 0.678431 0.513725 
0.0666667 0.678431 0.513725 0.0666667 0.678431 0.513725 
0.0666667 0.678431 0.513725 0.0666667 0.678431 0.513725 
0.0666667 0.678431 0.513725 0.0666667 0.678431 0.513725 
0.0666667 0.678431 0.513725 0.0666667 0.678431 0.513725 
0.0666667 0.678431 0.513725 0.0666667 0.678431 0.513725 
0.0666667 0.678431 0.513725 0.0666667 0.678431 0.513725 
0.0666667 0.678431 0.513725 0.0666667 0.678431 0.513725 
0.0666667 0.678431 0.513725 0.0666667 0.678431 0.513725 
0.0666667 0.678431 0.513725 0.0666667 0.678431 0.513725 
0.0666667 0.678431 0.513725 0.0666667 0.678431 0.513725 
0.0666667 0.678431 0.513725 0.0666667 0.678431 0.513725 
0.0666667 0.678431 0.513725 0.0666667 0.678431 0.513725 
0.0666667 0.678431 0.513725 0.0666667 0.678431 0.513725 
0.0666667 0.678431 0.513725 0.0666667 0.678431 0.513725 
0.0666667 0.678431 0.513725 0.0666667 0.678431 0.513725 
0.0666667 0.678431 0.513725 0.0666667 0.678431 0.513725 
0.0666667 0.678431 0.513725 0.0666667 0.678431 0.513725 
0.0666667 0.678431 0.513725 0.0666667 0.678431 0.513725 
0.0666667 0.678431 0.513725 0.0666667 0.678431 0.513725 
0.0666667 0.678431 0.513725 0.0666667 0.678431 0.513725 
0.0666667 0.678431 0.513725 0.0666667 0.678431 0.513725 
0.0666667 0.678431 0.513725 0.0666667 0.678431 0.513725 
0.0666667 0.678431 0.513725 0.0666667 0.678431 0.513725 
0.0666667 0.678431 0.513725 0.0666667 0.678431 0.513725 
0.0666667 0.678431 0.513725 0.0666667 0.678431 0.513725 
0.0666667 0.678431 0.513725 0.0666667 0.678431 0.513725 
0.0666667 0.678431 0.513725 0.0666667 0.678431 0.513725 
0.0666667 0.678431 0.513725 0.0666667 0.678431 0.513725 
0.0666667 0.678431 0.513725 0.0666667 0.678431 0.513725 
0.0666667 0.678431 0.513725 0.0666667 0.678431 0.513725 
0.0666667 0.678431 0.513725 0.0666667 0.678431 0.513725 
0.0666667 0.678431 0.513725 0.0666667 0.678431 0.513725 
0.0666667 0.678431 0.513725 0.0666667 0.678431 0.513725 
0.0666667 0.678431 0.513725 0.0666667 0.678431 0.513725 
0.0666667 0.678431 0.513725 0.0666667 0.678431 0.513725 
0.0666667 0.678431 0.513725 0.0666667 0.678431 0.513725 
0.0666667 0.678431 0.513725 0.0666667 0.678431 0.513725 
0.0666667 0.678431 0.513725 0.0666667 0.678431 0.513725 
0.0666667 0.678431 0.513725 0.0666667 0.678431 0.513725 
0.0666667 0.678431 0.513725 0.0666667 0.678431 0.513725 
0.0666667 0.678431 0.513725 0.0666667 0.678431 0.513725 
0.0666667 0.678431 0.513725 0.0666667 0.678431 0.513725 
0.0666667 0.678431 0.513725 0.0666667 0.678431 0.513725 
0.0666667 0.678431 0.513725 0.0666667 0.678431 0.513725 
0.0666667 0.678431 0.513725 0.0666667 0.678431 0.513725 
0.0666667 0.678431 0.513725 0.0666667 0.678431 0.513725 
0.0666667 0.678431 0.513725 0.0666667 0.678431 0.513725 
0.0666667 0.678431 0.513725 0.0666667 0.678431 0.513725 
0.0666667 0.678431 0.513725 0.0666667 0.678431 0.513725 
0.0666667 0.678431 0.513725 0.0666667 0.678431 0.513725 
0.0666667 0.678431 0.513725 0.0666667 0.678431 0.513725 
0.0666667 0.678431 0.513725 0.0666667 0.678431 0.513725 
0.0666667 0.678431 0.513725 0.0666667 0.678431 0.513725 
0.0666667 0.678431 0.513725 0.0666667 0.678431 0.513725 
0.0666667 0.678431 0.513725 0.0666667 0.678431 0.513725 
0.0666667 0.678431 0.513725 0.0666667 0.678431 0.513725 
0.0666667 0.678431 0.513725 0.0666667 0.678431 0.513725 
0.0666667 0.678431 0.513725 0.0666667 0.678431 0.513725 
0.0666667 0.678431 0.513725 0.0666667 0.678431 0.513725 
0.0666667 0.678431 0.513725 0.0666667 0.678431 0.513725 
0.0666667 0.678431 0.513725 0.0666667 0.678431 0.513725 
0.0666667 0.678431 0.513725 0.0666667 0.678431 0.513725 
0.0666667 0.678431 0.513725 0.0666667 0.678431 0.513725 
0.0666667 0.678431 0.513725 0.0666667 0.678431 0.513725 
0.0666667 0.678431 0.513725 0.0666667 0.678431 0.513725 
0.0666667 0.678431 0.513725 0.0666667 0.678431 0.513725 
0.0666667 0.678431 0.513725 0.0666667 0.678431 0.513725 
0.0666667 0.678431 0.513725 0.0666667 0.678431 0.513725 
0.0666667 0.678431 0.513725 0.0666667 0.678431 0.513725 
0.0666667 0.678431 0.513725 0.0666667 0.678431 0.513725 
0.0666667 0.678431 0.513725 0.0666667 0.678431 0.513725 
0.0666667 0.678431 0.513725 0.0666667 0.678431 0.513725 
0.0666667 0.678431 0.513725 0.0666667 0.678431 0.513725 
0.0666667 0.678431 0.513725 0.0666667 0.678431 0.513725 
0.0666667 0.678431 0.513725 0.0666667 0.678431 0.513725 
0.0666667 0.678431 0.513725 0.0666667 0.678431 0.513725 
0.0666667 0.678431 0.513725 0.0666667 0.678431 0.513725 
0.0666667 0.678431 0.513725 0.0666667 0.678431 0.513725 
0.0666667 0.678431 0.513725 0.0666667 0.678431 0.513725 
0.0666667 0.678431 0.513725 0.0666667 0.678431 0.513725 
0.0666667 0.678431 0.513725 0.0666667 0.678431 0.513725 
0.0666667 0.678431 0.513725 0.0666667 0.678431 0.513725 
0.0666667 0.678431 0.513725 0.0666667 0.678431 0.513725 
0.0666667 0.678431 0.513725 0.0666667 0.678431 0.513725 
0.0666667 0.678431 0.513725 0.0666667 0.678431 0.513725 
0.0666667 0.678431 0.513725 0.0666667 0.678431 0.513725 
0.0666667 0.678431 0.513725 0.0666667 0.678431 0.513725 
0.0666667 0.678431 0.513725 0.0666667 0.678431 0.513725 
0.0666667 0.678431 0.513725 0.0666667 0.678431 0.513725 
0.0666667 0.678431 0.513725 0.0666667 0.678431 0.513725 
0.0666667 0.678431 0.513725 0.0666667 0.678431 0.513725 
0.0666667 0.678431 0.513725 0.0666667 0.678431 0.513725 
0.0666667 0.678431 0.513725 0.0666667 0.678431 0.513725 
0.0666667 0.678431 0.513725 0.0666667 0.678431 0.513725 
0.0666667 0.678431 0.513725 0.0666667 0.678431 0.513725 
0.0666667 0.678431 0.513725 0.0666667 0.678431 0.513725 
0.0666667 0.678431 0.513725 0.0666667 0.678431 0.513725 
0.0666667 0.678431 0.513725 0.0666667 0.678431 0.513725 
0.0666667 0.678431 0.513725 0.0666667 0.678431 0.513725 
0.0666667 0.678431 0.513725 0.0666667 0.678431 0.513725 
0.0666667 0.678431 0.513725 0.0666667 0.678431 0.513725 
0.0666667 0.678431 0.513725 0.0666667 0.678431 0.513725 
0.0666667 0.678431 0.513725 0.0666667 0.678431 0.513725 
0.0666667 0.678431 0.513725 0.0666667 0.678431 0.513725 
0.0666667 0.678431 0.513725 0.0666667 0.678431 0.513725 
0.0666667 0.678431 0.513725 0.0666667 0.678431 0.513725 
0.0666667 0.678431 0.513725 0.0666667 0.678431 0.513725 
0.0666667 0.678431 0.513725 0.0666667 0.678431 0.513725 
0.0666667 0.678431 0.513725 0.0666667 0.678431 0.513725 
0.0666667 0.678431 0.513725 0.0666667 0.678431 0.513725 
0.0666667 0.678431 0.513725 0.0666667 0.678431 0.513725 
0.0666667 0.678431 0.513725 0.0666667 0.678431 0.513725 
0.0666667 0.678431 0.513725 0.0666667 0.678431 0.513725 
0.0666667 0.678431 0.513725 0.0666667 0.678431 0.513725 
0.0666667 0.678431 0.513725 0.0666667 0.678431 0.513725 
0.0666667 0.678431 0.513725 0.0666667 0.678431 0.513725 
0.0666667 0.678431 0.513725 0.0666667 0.678431 0.513725 
0.0666667 0.678431 0.513725 0.0666667 0.678431 0.513725 
0.0666667 0.678431 0.513725 0.0666667 0.678431 0.513725 
0.0666667 0.678431 0.513725 0.0666667 0.678431 0.513725 
0.0666667 0.678431 0.513725 0.0666667 0.678431 0.513725 
0.0666667 0.678431 0.513725 0.0666667 0.678431 0.513725 
0.0666667 0.678431 0.513725 0.0666667 0.678431 0.513725 
0.0666667 0.678431 0.513725 0.0666667 0.678431 0.513725 
0.0666667 0.678431 0.513725 0.0666667 0.678431 0.513725 
0.0666667 0.678431 0.513725 0.0666667 0.678431 0.513725 
0.0666667 0.678431 0.513725 0.0666667 0.678431 0.513725 
0.0666667 0.678431 0.513725 0.0666667 0.678431 0.513725 
0.0666667 0.678431 0.513725 0.0666667 0.678431 0.513725 
0.0666667 0.678431 0.513725 0.0666667 0.678431 0.513725 
0.0666667 0.678431 0.513725 0.0666667 0.678431 0.513725 
0.0666667 0.678431 0.513725 0.0666667 0.678431 0.513725 
0.0666667 0.678431 0.513725 0.0666667 0.678431 0.513725 
0.0666667 0.678431 0.513725 0.0666667 0.678431 0.513725 
0.0666667 0.678431 0.513725 0.0666667 0.678431 0.513725 
0.0666667 0.678431 0.513725 0.0666667 0.678431 0.513725 
0.0666667 0.678431 0.513725 0.0666667 0.678431 0.513725 
0.0666667 0.678431 0.513725 0.0666667 0.678431 0.513725 
0.0666667 0.678431 0.513725 0.0666667 0.678431 0.513725 
0.0666667 0.678431 0.513725 0.0666667 0.678431 0.513725 
0.0666667 0.678431 0.513725 0.0666667 0.678431 0.513725 
0.0666667 0.678431 0.513725 0.0666667 0.678431 0.513725 
0.0666667 0.678431 0.513725 0.0666667 0.678431 0.513725 
0.0666667 0.678431 0.513725 0.0666667 0.678431 0.513725 
0.0666667 0.678431 0.513725 0.0666667 0.678431 0.513725 
0.0666667 0.678431 0.513725 0.0666667 0.678431 0.513725 
0.0666667 0.678431 0.513725 0.0666667 0.678431 0.513725 
0.0666667 0.678431 0.513725 0.0666667 0.678431 0.513725 
0.0666667 0.678431 0.513725 0.0666667 0.678431 0.513725 
0.0666667 0.678431 0.513725 0.0666667 0.678431 0.513725 
0.0666667 0.678431 0.513725 0.0666667 0.678431 0.513725 
0.0666667 0.678431 0.513725 0.0666667 0.678431 0.513725 
0.0666667 0.678431 0.513725 0.0666667 0.678431 0.513725 
0.0666667 0.678431 0.513725 0.0666667 0.678431 0.513725 
0.0666667 0.678431 0.513725 0.0666667 0.678431 0.513725 
0.0666667 0.678431 0.513725 0.0666667 0.678431 0.513725 
0.0666667 0.678431 0.513725 0.0666667 0.678431 0.513725 
0.0666667 0.678431 0.513725 0.0666667 0.678431 0.513725 
0.0666667 0.678431 0.513725 0.0666667 0.678431 0.513725 
0.0666667 0.678431 0.513725 0.0666667 0.678431 0.513725 
0.0666667 0.678431 0.513725 0.0666667 0.678431 0.513725 
0.0666667 0.678431 0.513725 0.0666667 0.678431 0.513725 
0.0666667 0.678431 0.513725 0.0666667 0.678431 0.513725 
0.0666667 0.678431 0.513725 0.0666667 0.678431 0.513725 
0.0666667 0.678431 0.513725 0.0666667 0.678431 0.513725 
0.0666667 0.678431 0.513725 0.0666667 0.678431 0.513725 
0.0666667 0.678431 0.513725 0.0666667 0.678431 0.513725 
0.0666667 0.678431 0.513725 0.0666667 0.678431 0.513725 
0.0666667 0.678431 0.513725 0.0666667 0.678431 0.513725 
0.0666667 0.678431 0.513725 0.0666667 0.678431 0.513725 
0.0666667 0.678431 0.513725 0.0666667 0.678431 0.513725 
0.0666667 0.678431 0.513725 0.0666667 0.678431 0.513725 
0.0666667 0.678431 0.513725 0.0666667 0.678431 0.513725 
0.0666667 0.678431 0.513725 0.0666667 0.678431 0.513725 
0.0666667 0.678431 0.513725 0.0666667 0.678431 0.513725 
0.0666667 0.678431 0.513725 0.0666667 0.678431 0.513725 
0.0666667 0.678431 0.513725 0.0666667 0.678431 0.513725 
0.0666667 0.678431 0.513725 0.0666667 0.678431 0.513725 
0.0666667 0.678431 0.513725 0.0666667 0.678431 0.513725 
0.0666667 0.678431 0.513725 0.0666667 0.678431 0.513725 
0.0666667 0.678431 0.513725 0.0666667 0.678431 0.513725 
0.0666667 0.678431 0.513725 0.0666667 0.678431 0.513725 
0.0666667 0.678431 0.513725 0.0666667 0.678431 0.513725 
0.0666667 0.678431 0.513725 0.0666667 0.678431 0.513725 
0.0666667 0.678431 0.513725 0.0666667 0.678431 0.513725 
0.0666667 0.678431 0.513725 0.0666667 0.678431 0.513725 
0.0666667 0.678431 0.513725 0.0666667 0.678431 0.513725 
0.0666667 0.678431 0.513725 0.0666667 0.678431 0.513725 
0.0666667 0.678431 0.513725 0.0666667 0.678431 0.513725 
0.0666667 0.678431 0.513725 0.0666667 0.678431 0.513725 
0.0666667 0.678431 0.513725 0.0666667 0.678431 0.513725 
0.0666667 0.678431 0.513725 0.0666667 0.678431 0.513725 
0.0666667 0.678431 0.513725 0.0666667 0.678431 0.513725 
0.0666667 0.678431 0.513725 0.0666667 0.678431 0.513725 
0.0666667 0.678431 0.513725 0.0666667 0.678431 0.513725 
0.0666667 0.678431 0.513725 0.0666667 0.678431 0.513725 
0.0666667 0.678431 0.513725 0.0666667 0.678431 0.513725 
0.0666667 0.678431 0.513725 0.0666667 0.678431 0.513725 
0.0666667 0.678431 0.513725 0.0666667 0.678431 0.513725 
0.0666667 0.678431 0.513725 0.0666667 0.678431 0.513725 
0.0666667 0.678431 0.513725 0.0666667 0.678431 0.513725 
0.0666667 0.678431 0.513725 0.0666667 0.678431 0.513725 
0.0666667 0.678431 0.513725 0.0666667 0.678431 0.513725 
0.0666667 0.678431 0.513725 0.0666667 0.678431 0.513725 
0.0666667 0.678431 0.513725 0.0666667 0.678431 0.513725 
0.0666667 0.678431 0.513725 0.0666667 0.678431 0.513725 
0.0666667 0.678431 0.513725 0.0666667 0.678431 0.513725 
0.0666667 0.678431 0.513725 0.0666667 0.678431 0.513725 
0.0666667 0.678431 0.513725 0.0666667 0.678431 0.513725 
0.0666667 0.678431 0.513725 0.0666667 0.678431 0.513725 
0.0666667 0.678431 0.513725 0.0666667 0.678431 0.513725 
0.0666667 0.678431 0.513725 0.0666667 0.678431 0.513725 
0.0666667 0.678431 0.513725 0.0666667 0.678431 0.513725 
0.0666667 0.678431 0.513725 0.0666667 0.678431 0.513725 
0.0666667 0.678431 0.513725 0.0666667 0.678431 0.513725 
0.0666667 0.678431 0.513725 0.0666667 0.678431 0.513725 
0.0666667 0.678431 0.513725 0.0666667 0.678431 0.513725 
0.0666667 0.678431 0.513725 0.0666667 0.678431 0.513725 
0.0666667 0.678431 0.513725 0.0666667 0.678431 0.513725 
0.0666667 0.678431 0.513725 0.0666667 0.678431 0.513725 
0.0666667 0.678431 0.513725 0.0666667 0.678431 0.513725 
0.0666667 0.678431 0.513725 0.0666667 0.678431 0.513725 
0.0666667 0.678431 0.513725 0.0666667 0.678431 0.513725 
0.0666667 0.678431 0.513725 0.0666667 0.678431 0.513725 
0.0666667 0.678431 0.513725 0.0666667 0.678431 0.513725 
0.0666667 0.678431 0.513725 0.0666667 0.678431 0.513725 
0.0666667 0.678431 0.513725 0.0666667 0.678431 0.513725 
0.0666667 0.678431 0.513725 0.0666667 0.678431 0.513725 
0.0666667 0.678431 0.513725 0.0666667 0.678431 0.513725 
0.0666667 0.678431 0.513725 0.0666667 0.678431 0.513725 
0.0666667 0.678431 0.513725 0.0666667 0.678431 0.513725 
0.0666667 0.678431 0.513725 0.0666667 0.678431 0.513725 
0.0666667 0.678431 0.513725 0.0666667 0.678431 0.513725 
0.0666667 0.678431 0.513725 0.0666667 0.678431 0.513725 
0.0666667 0.678431 0.513725 0.0666667 0.678431 0.513725 
0.0666667 0.678431 0.513725 0.0666667 0.678431 0.513725 
0.0666667 0.678431 0.513725 0.0666667 0.678431 0.513725 
0.0666667 0.678431 0.513725 0.0666667 0.678431 0.513725 
0.0666667 0.678431 0.513725 0.0666667 0.678431 0.513725 
0.0666667 0.678431 0.513725 0.0666667 0.678431 0.513725 
0.0666667 0.678431 0.513725 0.0666667 0.678431 0.513725 
0.0666667 0.678431 0.513725 0.0666667 0.678431 0.513725 
0.0666667 0.678431 0.513725 0.0666667 0.678431 0.513725 
0.0666667 0.678431 0.513725 0.0666667 0.678431 0.513725 
0.0666667 0.678431 0.513725 0.0666667 0.678431 0.513725 
0.0666667 0.678431 0.513725 0.0666667 0.678431 0.513725 
0.0666667 0.678431 0.513725 0.0666667 0.678431 0.513725 
0.0666667 0.678431 0.513725 0.0666667 0.678431 0.513725 
0.0666667 0.678431 0.513725 0.0666667 0.678431 0.513725 
0.0666667 0.678431 0.513725 0.0666667 0.678431 0.513725 
0.0666667 0.678431 0.513725 0.0666667 0.678431 0.513725 
0.0666667 0.678431 0.513725 0.0666667 0.678431 0.513725 
0.0666667 0.678431 0.513725 0.0666667 0.678431 0.513725 