# vtk DataFile Version 4.2
vtk output
ASCII
DATASET POLYDATA
POINTS 988 float
278.391 164.936 43.2586 278.092 165.942 43.3292 277.667 165.964 43.2365 
278.458 165.734 43.4591 277.822 166.264 43.4 277.533 166.426 43.5364 
278.136 166.288 43.5028 278.287 166.385 43.6994 279.254 153.597 44.2791 
279.192 153.361 44.4018 278.935 153.418 44.3137 279.353 153.429 44.468 
278.995 153.963 44.0821 279.38 153.939 44.201 278.84 154.748 43.8596 
278.268 154.764 43.7792 279.645 154.167 44.3224 279.373 155.112 43.987 
278.714 157.107 43.534 279.778 156.426 44.1986 277.966 158.234 43.2367 
279.515 159.048 44.0012 277.648 160.916 42.9827 278.918 160.379 43.569 
277.5 161.747 42.9095 279.365 160.968 43.9686 274.38 164.098 42.8835 
278.965 164.759 43.7184 279.211 164.156 43.9995 270.972 165.511 43.5432 
275.787 165.275 43.086 276.533 165.132 42.9952 278.966 165.241 43.8554 
270.104 166.328 43.8955 273.839 166.025 43.7197 274.788 165.999 43.6159 
268.01 167.709 44.1178 272.434 166.583 44.2731 275.494 166.471 44.0067 
276.275 166.491 43.8793 278.543 166.24 43.9165 277.489 166.672 43.8943 
277.958 166.709 44.0225 278.271 166.542 43.9727 267.322 170.072 44.132 
266.66 171.754 43.3803 266.431 173.496 42.9713 268.775 173.536 43.808 
264.901 174.352 42.9805 268.103 174.383 43.0697 270.967 175.394 44.2256 
264.708 176.119 43.1514 264.107 176.122 43.3919 272.306 176.856 44.0159 
272.887 177.203 44.295 266.295 177.069 42.8684 273.382 177.699 44.4944 
273.134 178.423 43.6897 273.587 178.119 44.231 273.644 178.509 44.0482 
273.878 178.493 44.3165 274.154 179.079 44.374 267.055 179.664 43.279 
271.628 179.938 42.846 274.055 180.192 43.7414 267.693 180.905 43.5756 
274.019 180.984 43.5079 274.651 180.656 44.0857 274.618 181.135 43.8776 
274.996 181.206 44.274 268.416 181.219 43.4181 269.696 181.433 43.1065 
273.264 181.707 43.1837 274.988 182.431 43.8269 275.162 182.477 43.9245 
273.853 183.12 43.4926 275.053 182.897 44.0007 275.157 182.606 43.9419 
278.686 153.067 44.5435 278.606 152.831 44.7371 278.42 152.938 44.6671 
277.626 153.156 45.0787 277.148 153.502 44.9255 278.536 153.381 44.307 
279.136 153.181 44.6681 279.528 153.494 44.7207 277.534 153.988 44.2293 
279.81 153.955 44.6718 275.757 154.389 44.9101 277.219 154.428 44.0861 
279.9 154.413 44.5035 274.335 155.328 45.1333 276.059 156.022 43.7383 
280.152 155.463 44.6147 272.574 159.442 43.5061 266.52 164.279 43.9495 
263.874 166.557 44.199 268.281 167.026 44.023 279.105 165.63 44.7622 
267.158 168.184 43.9941 269.291 167.669 44.7277 268.062 168.63 44.649 
277.321 166.87 44.266 261.347 170.502 44.5309 262.673 171.21 43.7167 
261.142 173.226 44.4461 268.586 172.574 44.5704 269.874 174.12 44.8303 
260.804 175.347 45.2297 272.65 176.67 44.7958 261.832 176.886 45.3611 
263.209 176.668 44.1437 265.098 178.772 43.9306 274.168 178.683 45.1539 
274.601 179.669 44.8396 265.615 180.888 45.2313 275.327 181.71 44.689 
275.251 182.557 44.1429 268.332 183.523 45.0196 273.536 183.766 43.6006 
269.179 184.775 45.3662 269.98 184.497 44.5604 271.658 184.626 44.019 
272.562 184.676 43.9057 275.514 184.069 44.6174 275.663 184.55 44.8298 
269.984 185.533 45.4167 275.229 185.001 44.5336 275.541 184.9 44.7432 
273.966 186.39 44.7729 278.633 152.753 44.8918 278.739 152.778 45.0423 
278.997 152.94 45.1005 279.674 153.532 45.5383 275.978 154.039 45.1552 
276.584 153.487 45.6963 279.983 154.029 45.0145 280.115 154.294 45.19 
273.054 155.844 45.5839 280.247 155.201 44.8373 271.207 156.889 45.8288 
273.166 156.599 44.6707 280.469 156.771 45.6372 266.185 160.753 45.3826 
280.108 160.076 44.9304 263.894 162.345 45.6741 279.873 162.595 45.0578 
262.921 165.041 45.0424 262.044 165.996 45.4672 262.522 166.729 44.843 
279.036 165.818 45.226 275.024 167.129 45.3842 276.907 166.964 45.0871 
277.801 166.932 44.7389 268.597 169.067 45.5058 278.083 166.831 44.6862 
268.128 170.39 45.4722 259.765 171.336 45.7814 268.194 171.041 45.7777 
259.832 173.715 45.5142 268.31 184.158 45.7271 269.41 185.24 45.6784 
275.632 185.45 45.2208 272.451 187.791 46.2534 273.408 187.542 45.784 
274.984 186.988 46.079 273.898 187.753 46.1691 274.318 187.57 46.0892 
277.629 153.025 46.0747 279.321 153.145 45.8077 275.775 153.799 46.209 
280.141 154.556 45.6323 273.403 155.293 46.3334 267.758 158.55 46.4656 
280.461 159.273 45.8112 262.52 162.814 46.6814 280.118 161.98 45.6399 
269.215 168.741 45.8503 272.746 167.748 46.1938 278.184 166.771 44.9706 
273.456 177.703 46.0778 275.779 185.303 45.6499 274.857 187.576 46.744 
275.166 187.348 47.1867 277.843 153.058 46.3965 278.949 153.128 46.2883 
279.54 153.647 46.3953 279.437 153.674 46.6746 273.437 155.165 47.0164 
280.542 158.739 47.1074 260.577 166.682 47.3189 278.91 165.82 46.3656 
278.651 165.959 46.6585 268.305 170.571 47.1443 268.374 170.461 47.7149 
268.2 170.998 47.0768 268.174 171.436 47.1752 273.036 177.644 47.5162 
267.3 183.873 47.3233 271.9 188.295 47.9386 273.251 188.372 47.6673 
278.666 153.184 46.5483 277.871 153.502 47.4062 275.303 154.152 47.8124 
279.784 154.506 47.0746 263.6 161.141 48.3667 280.286 161.111 47.0899 
278.926 165.145 47.6228 277.482 166.15 48.2494 268.704 170.075 47.9913 
269.152 169.776 48.4206 269.675 169.401 48.0848 268.077 171.246 48.4807 
256.857 174.877 49.4495 276.018 185.395 48.2038 274.566 188.059 47.7844 
274.796 187.961 48.2583 272.21 188.607 48.7954 280.232 159.243 48.2033 
265.439 159.759 49.4485 260.439 165.947 48.5115 276.544 166.619 48.7332 
269.161 169.901 49.2174 268.466 173.524 48.8051 256.631 174.797 49.9387 
257.23 174.583 49.1137 257.43 175.415 49.2092 258.856 176.209 48.2499 
275.828 182.284 48.3451 276.11 183.881 48.8954 275.855 186.302 49.3206 
272.073 188.877 49.8595 272.411 188.865 49.4343 272.889 188.79 49.4557 
274.237 188.352 49.1125 272.291 188.939 49.7028 276.812 154.288 49.104 
277.619 154.277 49.0709 279.503 156.529 49.0238 279.648 158.215 49.2595 
270.258 169.489 49.5068 270.914 169.355 49.8179 272.878 168.886 50.6496 
267.683 172.442 50.4211 256.555 173.735 50.7681 256.505 174.372 50.3693 
256.258 175.583 50.6659 256.002 175.351 51.0363 256.212 176.073 50.9301 
272.99 178.491 50.2245 276.122 184.042 49.8428 267.734 184.866 50.3872 
275.531 187.079 50.4612 272.309 188.972 49.9936 277.377 154.36 49.2252 
275.74 154.702 49.766 277.725 155.013 49.75 275.115 155.209 50.6621 
268.403 170.673 51.5603 255.971 175.01 51.2374 255.64 176.273 51.8856 
255.479 176.164 52.1376 258.667 177.433 49.9312 256.298 176.906 51.667 
264.8 182.049 51.5796 268.481 185.665 51.3984 274.621 188.214 50.5761 
272.474 188.966 50.3094 273.743 188.695 50.9846 260.045 165.563 51.1334 
274.076 168.253 51.466 267.871 171.096 52.0612 267.218 172.134 52.221 
255.54 175.476 52.2995 267.751 174.348 52.21 255.43 175.937 52.295 
269.282 176.692 52.2492 261.232 180.206 52.4125 275.204 181.48 51.8876 
275.571 182.021 51.19 272.144 188.895 52.3535 275.114 155.803 51.8991 
275.68 156.18 52.1522 276.622 156.519 51.8169 276.633 158.249 52.8219 
266.286 159.838 52.972 268.724 170.35 53.1872 273.036 169.159 52.6718 
273.302 168.975 52.9263 273.712 168.547 53.0522 267.227 171.903 52.6495 
267.242 173.566 52.9745 255.337 176.286 53.056 255.447 176.623 53.1472 
256.592 177.581 52.5942 272.122 178.83 52.7695 261.945 180.679 53.2414 
263.206 181.105 53.3932 275.859 185.846 52.889 271.071 188.192 53.3513 
272.239 189.008 52.7607 272.186 188.937 52.9616 272.765 188.885 53.0246 
272.288 189.021 52.9055 274.88 156.049 52.291 273.603 156.416 52.7235 
260.602 164.416 53.8794 267.032 172.596 53.2167 267.093 172.924 53.0199 
255.642 174.813 54.2176 255.324 176.201 53.5049 255.394 176.496 53.4977 
257.879 178.803 53.8381 271.871 179.022 53.358 259.744 179.914 54.1574 
265.213 181.854 53.4536 266.763 182.995 53.1363 274.416 188.142 54.2387 
272.385 188.967 53.0735 272.216 157.411 54.2959 275.874 161.085 54.2769 
259.662 165.731 54.2547 260.487 164.764 54.822 273.435 168.433 54.4376 
257.231 170.704 55.0039 267.199 171.426 54.3505 272.17 169.189 54.3637 
272.717 169.025 54.2388 266.954 172.129 54.1976 256.027 174.03 54.8505 
266.63 173.866 54.8073 255.614 175.142 54.5509 255.574 175.662 54.5468 
267.722 177.231 54.4662 267.901 178.315 54.771 270.062 179.103 54.3427 
267.638 183.334 53.791 270.038 186.538 55.0165 275.342 186.654 54.6779 
275.065 187.234 54.7974 274.818 158.672 54.8952 269.159 159.119 55.2911 
267.398 160.094 55.4503 264.395 161.856 55.1899 261.116 164.428 55.5992 
259.982 165.679 55.6931 257.827 168.525 55.7989 273.537 168.076 54.7571 
267.59 170.364 55.2823 269.355 169.399 55.1941 266.165 175.881 55.7296 
267.394 179.048 55.1487 257.745 178.864 55.1635 268.128 179.971 55.0796 
269.977 180.567 55.2449 260.187 180.141 55.3571 260.606 180.228 55.7607 
266.004 180.609 55.0521 268.869 181.207 55.2159 261.961 180.386 55.7905 
263.307 180.393 55.5993 267.81 181.916 54.7454 268.78 182.474 55.1299 
275.241 182.609 54.4094 269.348 185.181 54.9034 270.372 186.654 55.7321 
270.587 187.126 55.7277 270.72 187.419 55.4768 274.065 188.062 55.7932 
274.459 187.72 55.64 273.482 157.99 55.278 273.993 157.987 55.063 
274.34 159.094 55.4579 267.64 160.178 55.8088 273.906 160.121 56.0111 
265.235 161.961 56.1818 262.96 163.262 56.031 272.244 164.35 56.8335 
260.018 166.022 56.463 258.724 167.151 56.1926 272.652 166.763 56.1168 
257.931 168.182 56.0818 257.621 169.448 56.5002 272.806 167.786 55.5629 
257.515 170.299 56.3213 267.507 169.458 56.2864 272.774 168.3 55.1679 
266.389 171.353 55.9313 257.502 171.864 56.6808 266.024 172.394 55.9925 
265.831 173.356 56.0773 256.289 175.721 56.2899 256.274 177.128 55.7438 
264.826 177.815 56.6507 256.916 178.057 55.7557 263.015 179.961 56.2973 
271.042 181.771 56.0257 274.17 182.017 55.6572 260.576 180.056 56.2443 
274.45 182.198 55.5499 270.16 183.513 56.0181 275.077 183.135 55.176 
270.175 184.607 56.0342 275.051 186.288 55.7978 270.606 186.655 56.2061 
270.654 186.976 56.0554 274.864 186.772 55.9546 274.583 187.258 56.0914 
271.508 187.855 56.728 273.888 188.017 56.2012 273.24 188.296 55.992 
[...]
POINT_DATA 988
COLOR_SCALARS scalars 3
0.0666667 0.678431 0.513725 0.0666667 0.678431 0.513725 0.0666667 0.678431 0.513725 
0.0666667 0.678431 0.513725 0.0666667 0.678431 0.513725 
0.0666667 0.678431 0.513725 0.0666667 0.678431 0.513725 
0.0666667 0.678431 0.513725 0.0666667 0.678431 0.513725 
0.0666667 0.678431 0.513725 0.0666667 0.678431 0.513725 
0.0666667 0.678431 0.513725 0.0666667 0.678431 0.513725 
0.0666667 0.678431 0.513725 0.0666667 0.678431 0.513725 
0.0666667 0.678431 0.513725 0.0666667 0.678431 0.513725 
0.0666667 0.678431 0.513725 0.0666667 0.678431 0.513725 
0.0666667 0.678431 0.513725 0.0666667 0.678431 0.513725 
0.0666667 0.678431 0.513725 0.0666667 0.678431 0.513725 
0.0666667 0.678431 0.513725 0.0666667 0.678431 0.513725 
0.0666667 0.678431 0.513725 0.0666667 0.678431 0.513725 
0.0666667 0.678431 0.513725 0.0666667 0.678431 0.513725 
0.0666667 0.678431 0.513725 0.0666667 0.678431 0.513725 
0.0666667 0.678431 0.513725 0.0666667 0.678431 0.513725 
0.0666667 0.678431 0.513725 0.0666667 0.678431 0.513725 
0.0666667 0.678431 0.513725 0.0666667 0.678431 0.513725 
0.0666667 0.678431 0.513725 0.0666667 0.678431 0.513725 
0.0666667 0.678431 0.513725 0.0666667 0.678431 0.513725 
0.0666667 0.678431 0.513725 0.0666667 0.678431 0.513725 
0.0666667 0.678431 0.513725 0.0666667 0.678431 0.513725 
0.0666667 0.678431 0.513725 0.0666667 0.678431 0.513725 
0.0666667 0.678431 0.513725 0.0666667 0.678431 0.513725 
0.0666667 0.678431 0.513725 0.0666667 0.678431 0.513725 
0.0666667 0.678431 0.513725 0.0666667 0.678431 0.513725 
0.0666667 0.678431 0.513725 0.0666667 0.678431 0.513725 
0.0666667 0.678431 0.513725 0.0666667 0.678431 0.513725 
0.0666667 0.678431 0.513725 0.0666667 0.678431 0.513725 
0.0666667 0.678431 0.513725 0.0666667 0.678431 0.513725 
0.0666667 0.678431 0.513725 0.0666667 0.678431 0.513725 
0.0666667 0.678431 0.513725 0.0666667 0.678431 0.513725 
0.0666667 0.678431 0.513725 0.0666667 0.678431 0.513725 
0.0666667 0.678431 0.513725 0.0666667 0.678431 0.513725 
0.0666667 0.678431 0.513725 0.0666667 0.678431 0.513725 
0.0666667 0.678431 0.513725 0.0666667 0.678431 0.513725 
0.0666667 0.678431 0.513725 0.0666667 0.678431 0.513725 
0.0666667 0.678431 0.513725 0.0666667 0.678431 0.513725 
0.0666667 0.678431 0.513725 0.0666667 0.678431 0.513725 
0.0666667 0.678431 0.513725 0.0666667 0.678431 0.513725 
0.0666667 0.678431 0.513725 0.0666667 0.678431 0.513725 
0.0666667 0.678431 0.513725 0.0666667 0.678431 0.513725 
0.0666667 0.678431 0.513725 0.0666667 0.678431 0.513725 
0.0666667 0.678431 0.513725 0.0666667 0.678431 0.513725 
0.0666667 0.678431 0.513725 0.0666667 0.678431 0.513725 
0.0666667 0.678431 0.513725 0.0666667 0.678431 0.513725 
0.0666667 0.678431 0.513725 0.0666667 0.678431 0.513725 
0.0666667 0.678431 0.513725 0.0666667 0.678431 0.513725 
0.0666667 0.678431 0.513725 0.0666667 0.678431 0.513725 
0.0666667 0.678431 0.513725 0.0666667 0.678431 0.513725 
0.0666667 0.678431 0.513725 0.0666667 0.678431 0.513725 
0.0666667 0.678431 0.513725 0.0666667 0.678431 0.513725 
0.0666667 0.678431 0.513725 0.0666667 0.678431 0.513725 
0.0666667 0.678431 0.513725 0.0666667 0.678431 0.513725 
0.0666667 0.678431 0.513725 0.0666667 0.678431 0.513725 
0.0666667 0.678431 0.513725 0.0666667 0.678431 0.513725 
0.0666667 0.678431 0.513725 0.0666667 0.678431 0.513725 
0.0666667 0.678431 0.513725 0.0666667 0.678431 0.513725 
0.0666667 0.678431 0.513725 0.0666667 0.678431 0.513725 
0.0666667 0.678431 0.513725 0.0666667 0.678431 0.513725 
0.0666667 0.678431 0.513725 0.0666667 0.678431 0.513725 
0.0666667 0.678431 0.513725 0.0666667 0.678431 0.513725 
0.0666667 0.678431 0.513725 0.0666667 0.678431 0.513725 
0.0666667 0.678431 0.513725 0.0666667 0.678431 0.513725 
0.0666667 0.678431 0.513725 0.0666667 0.678431 0.513725 
0.0666667 0.678431 0.513725 0.0666667 0.678431 0.513725 
0.0666667 0.678431 0.513725 0.0666667 0.678431 0.513725 
0.0666667 0.678431 0.513725 0.0666667 0.678431 0.513725 
0.0666667 0.678431 0.513725 0.0666667 0.678431 0.513725 
0.0666667 0.678431 0.513725 0.0666667 0.678431 0.513725 
0.0666667 0.678431 0.513725 0.0666667 0.678431 0.513725 
0.0666667 0.678431 0.513725 0.0666667 0.678431 0.513725 
0.0666667 0.678431 0.513725 0.0666667 0.678431 0.513725 
0.0666667 0.678431 0.513725 0.0666667 0.678431 0.513725 
0.0666667 0.678431 0.513725 0.0666667 0.678431 0.513725 
0.0666667 0.678431 0.513725 0.0666667 0.678431 0.513725 
0.0666667 0.678431 0.513725 0.0666667 0.678431 0.513725 
0.0666667 0.678431 0.513725 0.0666667 0.678431 0.513725 
0.0666667 0.678431 0.513725 0.0666667 0.678431 0.513725 
0.0666667 0.678431 0.513725 0.0666667 0.678431 0.513725 
0.0666667 0.678431 0.513725 0.0666667 0.678431 0.513725 
0.0666667 0.678431 0.513725 0.0666667 0.678431 0.513725 
0.0666667 0.678431 0.513725 0.0666667 0.678431 0.513725 
0.0666667 0.678431 0.513725 0.0666667 0.678431 0.513725 
0.0666667 0.678431 0.513725 0.0666667 0.678431 0.513725 
0.0666667 0.678431 0.513725 0.0666667 0.678431 0.513725 
0.0666667 0.678431 0.513725 0.0666667 0.678431 0.513725 
0.0666667 0.678431 0.513725 0.0666667 0.678431 0.513725 
0.0666667 0.678431 0.513725 0.0666667 0.678431 0.513725 
0.0666667 0.678431 0.513725 0.0666667 0.678431 0.513725 
0.0666667 0.678431 0.513725 0.0666667 0.678431 0.513725 
0.0666667 0.678431 0.513725 0.0666667 0.678431 0.513725 
0.0666667 0.678431 0.513725 0.0666667 0.678431 0.513725 
0.0666667 0.678431 0.513725 0.0666667 0.678431 0.513725 
0.0666667 0.678431 0.513725 0.0666667 0.678431 0.513725 
0.0666667 0.678431 0.513725 0.0666667 0.678431 0.513725 
0.0666667 0.678431 0.513725 0.0666667 0.678431 0.513725 
0.0666667 0.678431 0.513725 0.0666667 0.678431 0.513725 
0.0666667 0.678431 0.513725 0.0666667 0.678431 0.513725 
0.0666667 0.678431 0.513725 0.0666667 0.678431 0.513725 
0.0666667 0.678431 0.513725 0.0666667 0.678431 0.513725 
0.0666667 0.678431 0.513725 0.0666667 0.678431 0.513725 
0.0666667 0.678431 0.513725 0.0666667 0.678431 0.513725 
0.0666667 0.678431 0.513725 0.0666667 0.678431 0.513725 
0.0666667 0.678431 0.513725 0.0666667 0.678431 0.513725 
0.0666667 0.678431 0.513725 0.0666667 0.678431 0.513725 
0.0666667 0.678431 0.513725 0.0666667 0.678431 0.513725 
0.0666667 0.678431 0.513725 0.0666667 0.678431 0.513725 
0.0666667 0.678431 0.513725 0.0666667 0.678431 0.513725 
0.0666667 0.678431 0.513725 0.0666667 0.678431 0.513725 
0.0666667 0.678431 0.513725 0.0666667 0.678431 0.513725 
0.0666667 0.678431 0.513725 0.0666667 0.678431 0.513725 
0.0666667 0.678431 0.513725 0.0666667 0.678431 0.513725 
0.0666667 0.678431 0.513725 0.0666667 0.678431 0.513725 
0.0666667 0.678431 0.513725 0.0666667 0.678431 0.513725 
0.0666667 0.678431 0.513725 0.0666667 0.678431 0.513725 
0.0666667 0.678431 0.513725 0.0666667 0.678431 0.513725 
0.0666667 0.678431 0.513725 0.0666667 0.678431 0.513725 
0.0666667 0.678431 0.513725 0.0666667 0.678431 0.513725 
0.0666667 0.678431 0.513725 0.0666667 0.678431 0.513725 
0.0666667 0.678431 0.513725 0.0666667 0.678431 0.513725 
0.0666667 0.678431 0.513725 0.0666667 0.678431 0.513725 
0.0666667 0.678431 0.513725 0.0666667 0.678431 0.513725 
0.0666667 0.678431 0.513725 0.0666667 0.678431 0.513725 
0.0666667 0.678431 0.513725 0.0666667 0.678431 0.513725 
0.0666667 0.678431 0.513725 0.0666667 0.678431 0.513725 
0.0666667 0.678431 0.513725 0.0666667 0.678431 0.513725 
0.0666667 0.678431 0.513725 0.0666667 0.678431 0.513725 
0.0666667 0.678431 0.513725 0.0666667 0.678431 0.513725 
0.0666667 0.678431 0.513725 0.0666667 0.678431 0.513725 
0.0666667 0.678431 0.513725 0.0666667 0.678431 0.513725 
0.0666667 0.678431 0.513725 0.0666667 0.678431 0.513725 
0.0666667 0.678431 0.513725 0.0666667 0.678431 0.513725 
0.0666667 0.678431 0.513725 0.0666667 0.678431 0.513725 
0.0666667 0.678431 0.513725 0.0666667 0.678431 0.513725 
0.0666667 0.678431 0.513725 0.0666667 0.678431 0.513725 
0.0666667 0.678431 0.513725 0.0666667 0.678431 0.513725 
0.0666667 0.678431 0.513725 0.0666667 0.678431 0.513725 
0.0666667 0.678431 0.513725 0.0666667 0.678431 0.513725 
0.0666667 0.678431 0.513725 0.0666667 0.678431 0.513725 
0.0666667 0.678431 0.513725 0.0666667 0.678431 0.513725 
0.0666667 0.678431 0.513725 0.0666667 0.678431 0.513725 
0.0666667 0.678431 0.513725 0.0666667 0.678431 0.513725 
0.0666667 0.678431 0.513725 0.0666667 0.678431 0.513725 
0.0666667 0.678431 0.513725 0.0666667 0.678431 0.513725 
0.0666667 0.678431 0.513725 0.0666667 0.678431 0.513725 
0.0666667 0.678431 0.513725 0.0666667 0.678431 0.513725 
0.0666667 0.678431 0.513725 0.0666667 0.678431 0.513725 
0.0666667 0.678431 0.513725 0.0666667 0.678431 0.513725 
0.0666667 0.678431 0.513725 0.0666667 0.678431 0.513725 
0.0666667 0.678431 0.513725 0.0666667 0.678431 0.513725 
0.0666667 0.678431 0.513725 0.0666667 0.678431 0.513725 
0.0666667 0.678431 0.513725 0.0666667 0.678431 0.513725 
0.0666667 0.678431 0.513725 0.0666667 0.678431 0.513725 
0.0666667 0.678431 0.513725 0.0666667 0.678431 0.513725 
0.0666667 0.678431 0.513725 0.0666667 0.678431 0.513725 
0.0666667 0.678431 0.513725 0.0666667 0.678431 0.513725 
0.0666667 0.678431 0.513725 0.0666667 0.678431 0.513725 
0.0666667 0.678431 0.513725 0.0666667 0.678431 0.513725 
0.0666667 0.678431 0.513725 0.0666667 0.678431 0.513725 
0.0666667 0.678431 0.513725 0.0666667 0.678431 0.513725 
0.0666667 0.678431 0.513725 0.0666667 0.678431 0.513725 
0.0666667 0.678431 0.513725 0.0666667 0.678431 0.513725 
0.0666667 0.678431 0.513725 0.0666667 0.678431 0.513725 
0.0666667 0.678431 0.513725 0.0666667 0.678431 0.513725 
0.0666667 0.678431 0.513725 0.0666667 0.678431 0.513725 
0.0666667 0.678431 0.513725 0.0666667 0.678431 0.513725 
0.0666667 0.678431 0.513725 0.0666667 0.678431 0.513725 
0.0666667 0.678431 0.513725 0.0666667 0.678431 0.513725 
0.0666667 0.678431 0.513725 0.0666667 0.678431 0.513725 
0.0666667 0.678431 0.513725 0.0666667 0.678431 0.513725 
0.0666667 0.678431 0.513725 0.0666667 0.678431 0.513725 
0.0666667 0.678431 0.513725 0.0666667 0.678431 0.513725 
0.0666667 0.678431 0.513725 0.0666667 0.678431 0.513725 
0.0666667 0.678431 0.513725 0.0666667 0.678431 0.513725 
0.0666667 0.678431 0.513725 0.0666667 0.678431 0.513725 
0.0666667 0.678431 0.513725 0.0666667 0.678431 0.513725 
0.0666667 0.678431 0.513725 0.0666667 0.678431 0.513725 
0.0666667 0.678431 0.513725 0.0666667 0.678431 0.513725 
0.0666667 0.678431 0.513725 0.0666667 0.678431 0.513725 
0.0666667 0.678431 0.513725 0.0666667 0.678431 0.513725 
0.0666667 0.678431 0.513725 0.0666667 0.678431 0.513725 
0.0666667 0.678431 0.513725 0.0666667 0.678431 0.513725 
0.0666667 0.678431 0.513725 0.0666667 0.678431 0.513725 
0.0666667 0.678431 0.513725 0.0666667 0.678431 0.513725 
0.0666667 0.678431 0.513725 0.0666667 0.678431 0.513725 
0.0666667 0.678431 0.513725 0.0666667 0.678431 0.513725 
0.0666667 0.678431 0.513725 0.0666667 0.678431 0.513725 
0.0666667 0.678431 0.513725 0.0666667 0.678431 0.513725 
0.0666667 0.678431 0.513725 0.0666667 0.678431 0.513725 
0.0666667 0.678431 0.513725 0.0666667 0.678431 0.513725 
0.0666667 0.678431 0.513725 0.0666667 0.678431 0.513725 
0.0666667 0.678431 0.513725 0.0666667 0.678431 0.513725 
0.0666667 0.678431 0.513725 0.0666667 0.678431 0.513725 
0.0666667 0.678431 0.513725 0.0666667 0.678431 0.513725 
0.0666667 0.678431 0.513725 0.0666667 0.678431 0.513725 
0.0666667 0.678431 0.513725 0.0666667 0.678431 0.513725 
0.0666667 0.678431 0.513725 0.0666667 0.678431 0.513725 
0.0666667 0.678431 0.513725 0.0666667 0.678431 0.513725 
0.0666667 0.678431 0.513725 0.0666667 0.678431 0.513725 
0.0666667 0.678431 0.513725 0.0666667 0.678431 0.513725 
0.0666667 0.678431 0.513725 0.0666667 0.678431 0.513725 
0.0666667 0.678431 0.513725 0.0666667 0.678431 0.513725 
0.0666667 0.678431 0.513725 0.0666667 0.678431 0.513725 
0.0666667 0.678431 0.513725 0.0666667 0.678431 0.513725 
0.0666667 0.678431 0.513725 0.0666667 0.678431 0.513725 
0.0666667 0.678431 0.513725 0.0666667 0.678431 0.513725 
0.0666667 0.678431 0.513725 0.0666667 0.678431 0.513725 
0.0666667 0.678431 0.513725 0.0666667 0.678431 0.513725 
0.0666667 0.678431 0.513725 0.0666667 0.678431 0.513725 
0.0666667 0.678431 0.513725 0.0666667 0.678431 0.513725 
0.0666667 0.678431 0.513725 0.0666667 0.678431 0.513725 
0.0666667 0.678431 0.513725 0.0666667 0.678431 0.513725 
0.0666667 0.678431 0.513725 0.0666667 0.678431 0.513725 
0.0666667 0.678431 0.513725 0.0666667 0.678431 0.513725 
0.0666667 0.678431 0.513725 0.0666667 0.678431 0.513725 
0.0666667 0.678431 0.513725 0.0666667 0.678431 0.513725 
0.0666667 0.678431 0.513725 0.0666667 0.678431 0.513725 
0.0666667 0.678431 0.513725 0.0666667 0.678431 0.513725 
0.0666667 0.678431 0.513725 0.0666667 0.678431 0.513725 
0.0666667 0.678431 0.513725 0.0666667 0.678431 0.513725 
0.0666667 0.678431 0.513725 0.0666667 0.678431 0.513725 
0.0666667 0.678431 0.513725 0.0666667 0.678431 0.513725 
0.0666667 0.678431 0.513725 0.0666667 0.678431 0.513725 
0.0666667 0.678431 0.513725 0.0666667 0.678431 0.513725 
0.0666667 0.678431 0.513725 0.0666667 0.678431 0.513725 
0.0666667 0.678431 0.513725 0.0666667 0.678431 0.513725 
0.0666667 0.678431 0.513725 0.0666667 0.678431 0.513725 
0.0666667 0.678431 0.513725 0.0666667 0.678431 0.513725 
0.0666667 0.678431 0.513725 0.0666667 0.678431 0.513725 
0.0666667 0.678431 0.513725 0.0666667 0.678431 0.513725 
0.0666667 0.678431 0.513725 0.0666667 0.678431 0.513725 
0.0666667 0.678431 0.513725 0.0666667 0.678431 0.513725 
0.0666667 0.678431 0.513725 0.0666667 0.678431 0.513725 
0.0666667 0.678431 0.513725 0.0666667 0.678431 0.513725 
0.0666667 0.678431 0.513725 0.0666667 0.678431 0.513725 
0.0666667 0.678431 0.513725 0.0666667 0.678431 0.513725 
0.0666667 0.678431 0.513725 0.0666667 0.678431 0.513725 
0.0666667 0.678431 0.513725 0.0666667 0.678431 0.513725 
0.0666667 0.678431 0.513725 0.0666667 0.678431 0.513725 
0.0666667 0.678431 0.513725 0.0666667 0.678431 0.513725 
0.0666667 0.678431 0.513725 0.0666667 0.678431 0.513725 
0.0666667 0.678431 0.513725 0.0666667 0.678431 0.513725 
0.0666667 0.678431 0.513725 0.0666667 0.678431 0.513725 
0.0666667 0.678431 0.513725 0.0666667 0.678431 0.513725 
0.0666667 0.678431 0.513725 0.0666667 0.678431 0.513725 
0.0666667 0.678431 0.513725 0.0666667 0.678431 0.513725 
0.0666667 0.678431 0.513725 0.0666667 0.678431 0.513725 
0.0666667 0.678431 0.513725 0.0666667 0.678431 0.513725 
0.0666667 0.678431 0.513725 0.0666667 0.678431 0.513725 
0.0666667 0.678431 0.513725 0.0666667 0.678431 0.513725 
0.0666667 0.678431 0.513725 0.0666667 0.678431 0.513725 
0.0666667 0.678431 0.513725 0.0666667 0.678431 0.513725 
0.0666667 0.678431 0.513725 0.0666667 0.678431 0.513725 
0.0666667 0.678431 0.513725 0.0666667 0.678431 0.513725 
0.0666667 0.678431 0.513725 0.0666667 0.678431 0.513725 
0.0666667 0.678431 0.513725 0.0666667 0.678431 0.513725 
0.0666667 0.678431 0.513725 0.0666667 0.678431 0.513725 
0.0666667 0.678431 0.513725 0.0666667 0.678431 0.513725 
0.0666667 0.678431 0.513725 0.0666667 0.678431 0.513725 
0.0666667 0.678431 0.513725 0.0666667 0.678431 0.513725 
0.0666667 0.678431 0.513725 0.0666667 0.678431 0.513725 
0.0666667 0.678431 0.513725 0.0666667 0.678431 0.513725 
0.0666667 0.678431 0.513725 0.0666667 0.678431 0.513725 
0.0666667 0.678431 0.513725 0.0666667 0.678431 0.513725 
0.0666667 0.678431 0.513725 0.0666667 0.678431 0.513725 
0.0666667 0.678431 0.513725 0.0666667 0.678431 0.513725 
0.0666667 0.678431 0.513725 0.0666667 0.678431 0.513725 
0.0666667 0.678431 0.513725 0.0666667 0.678431 0.513725 
0.0666667 0.678431 0.513725 0.0666667 0.678431 0.513725 
0.0666667 0.678431 0.513725 0.0666667 0.678431 0.513725 
0.0666667 0.678431 0.513725 0.0666667 0.678431 0.513725 
0.0666667 0.678431 0.513725 0.0666667 0.678431 0.513725 
0.0666667 0.678431 0.513725 0.0666667 0.678431 0.513725 
0.0666667 0.678431 0.513725 0.0666667 0.678431 0.513725 
0.0666667 0.678431 0.513725 0.0666667 0.678431 0.513725 
0.0666667 0.678431 0.513725 0.0666667 0.678431 0.513725 
0.0666667 0.678431 0.513725 0.0666667 0.678431 0.513725 
0.0666667 0.678431 0.513725 0.0666667 0.678431 0.513725 
0.0666667 0.678431 0.513725 0.0666667 0.678431 0.513725 
0.0666667 0.678431 0.513725 0.0666667 0.678431 0.513725 
0.0666667 0.678431 0.513725 0.0666667 0.678431 0.513725 
0.0666667 0.678431 0.513725 0.0666667 0.678431 0.513725 
0.0666667 0.678431 0.513725 0.0666667 0.678431 0.513725 
0.0666667 0.678431 0.513725 0.0666667 0.678431 0.513725 
0.0666667 0.678431 0.513725 0.0666667 0.678431 0.513725 
0.0666667 0.678431 0.513725 0.0666667 0.678431 0.513725 
0.0666667 0.678431 0.513725 0.0666667 0.678431 0.513725 
0.0666667 0.678431 0.513725 0.0666667 0.678431 0.513725 
0.0666667 0.678431 0.513725 0.0666667 0.678431 0.513725 
0.0666667 0.678431 0.513725 0.0666667 0.678431 0.513725 
0.0666667 0.678431 0.513725 0.0666667 0.678431 0.513725 
0.0666667 0.678431 0.513725 0.0666667 0.678431 0.513725 
0.0666667 0.678431 0.513725 0.0666667 0.678431 0.513725 
0.0666667 0.678431 0.513725 0.0666667 0.678431 0.513725 
0.0666667 0.678431 0.513725 0.0666667 0.678431 0.513725 
0.0666667 0.678431 0.513725 0.0666667 0.678431 0.513725 
0.0666667 0.678431 0.513725 0.0666667 0.678431 0.513725 
0.0666667 0.678431 0.513725 0.0666667 0.678431 0.513725 
0.0666667 0.678431 0.513725 0.0666667 0.678431 0.513725 
0.0666667 0.678431 0.513725 0.0666667 0.678431 0.513725 
0.0666667 0.678431 0.513725 0.0666667 0.678431 0.513725 
0.0666667 0.678431 0.513725 0.0666667 0.678431 0.513725 
0.0666667 0.678431 0.513725 0.0666667 0.678431 0.513725 
0.0666667 0.678431 0.513725 0.0666667 0.678431 0.513725 
0.0666667 0.678431 0.513725 0.0666667 0.678431 0.513725 
0.0666667 0.678431 0.513725 0.0666667 0.678431 0.513725 
0.0666667 0.678431 0.513725 0.0666667 0.678431 0.513725 
0.0666667 0.678431 0.513725 0.0666667 0.678431 0.513725 
0.0666667 0.678431 0.513725 0.0666667 0.678431 0.513725 
0.0666667 0.678431 0.513725 0.0666667 0.678431 0.513725 
0.0666667 0.678431 0.513725 0.0666667 0.678431 0.513725 
0.0666667 0.678431 0.513725 0.0666667 0.678431 0.513725 
0.0666667 0.678431 0.513725 0.0666667 0.678431 0.513725 
0.0666667 0.678431 0.513725 0.0666667 0.678431 0.513725 
0.0666667 0.678431 0.513725 0.0666667 0.678431 0.513725 
0.0666667 0.678431 0.513725 0.0666667 0.678431 0.513725 
0.0666667 0.678431 0.513725 0.0666667 0.678431 0.513725 
0.0666667 0.678431 0.513725 0.0666667 0.678431 0.513725 
0.0666667 0.678431 0.513725 0.0666667 0.678431 0.513725 
0.0666667 0.678431 0.513725 0.0666667 0.678431 0.513725 
0.0666667 0.678431 0.513725 0.0666667 0.678431 0.513725 
0.0666667 0.678431 0.513725 0.0666667 0.678431 0.513725 
0.0666667 0.678431 0.513725 0.0666667 0.678431 0.513725 
0.0666667 0.678431 0.513725 0.0666667 0.678431 0.513725 
0.0666667 0.678431 0.513725 0.0666667 0.678431 0.513725 
0.0666667 0.678431 0.513725 0.0666667 0.678431 0.513725 
0.0666667 0.678431 0.513725 0.0666667 0.678431 0.513725 
0.0666667 0.678431 0.513725 0.0666667 0.678431 0.513725 
0.0666667 0.678431 0.513725 0.0666667 0.678431 0.513725 
0.0666667 0.678431 0.513725 0.0666667 0.678431 0.513725 
0.0666667 0.678431 0.513725 0.0666667 0.678431 0.513725 
0.0666667 0.678431 0.513725 0.0666667 0.678431 0.513725 
0.0666667 0.678431 0.513725 0.0666667 0.678431 0.513725 
0.0666667 0.678431 0.513725 0.0666667 0.678431 0.513725 
0.0666667 0.678431 0.513725 0.0666667 0.678431 0.513725 
0.0666667 0.678431 0.513725 0.0666667 0.678431 0.513725 
0.0666667 0.678431 0.513725 0.0666667 0.678431 0.513725 
0.0666667 0.678431 0.513725 0.0666667 0.678431 0.513725 
0.0666667 0.678431 0.513725 0.0666667 0.678431 0.513725 
0.0666667 0.678431 0.513725 0.0666667 0.678431 0.513725 
0.0666667 0.678431 0.513725 0.0666667 0.678431 0.513725 
0.0666667 0.678431 0.513725 0.0666667 0.678431 0.513725 
0.0666667 0.678431 0.513725 0.0666667 0.678431 0.513725 
0.0666667 0.678431 0.513725 0.0666667 0.678431 0.513725 
0.0666667 0.678431 0.513725 0.0666667 0.678431 0.513725 
0.0666667 0.678431 0.513725 0.0666667 0.678431 0.513725 
0.0666667 0.678431 0.513725 0.0666667 0.678431 0.513725 
0.0666667 0.678431 0.513725 0.0666667 0.678431 0.513725 