# vtk DataFile Version 4.2
vtk output
ASCII
DATASET POLYDATA
POINTS 1986 float
277.665 201.045 168.779 278.406 201.271 168.596 279.594 201.322 168.639 
277.35 201.664 168.77 276.851 201.495 168.989 278.959 201.696 168.612 
277.474 202.054 168.855 278.716 200.519 168.993 280.902 200.272 169.312 
277.152 201.005 169.02 278.073 200.727 168.91 280.786 200.928 168.956 
281.576 200.638 169.212 281.338 200.898 169.092 281.841 200.824 169.275 
276.498 201.841 169.172 276.297 201.521 169.33 276.686 202.516 169.317 
280.788 199.828 169.711 282.126 200.488 169.506 284.268 200.719 170.215 
281.838 201.568 169.476 281.334 202.231 169.693 276.886 203.071 169.844 
276.105 200.265 170.257 275.368 201.357 170.268 285.408 201.019 170.791 
276.117 203.562 170.668 287.924 199.947 172.308 288.14 200.085 172.425 
287.845 200.643 172.249 281.282 203.213 170.575 274.671 199.594 172.6 
288.139 199.835 172.592 287.786 199.447 172.786 288.415 199.918 172.854 
288.369 200.124 172.691 288.471 200.45 172.851 282.15 203.835 171.768 
275.57 204.541 172.213 287.891 199.218 173.347 283.323 198.071 172.537 
288.607 199.965 173.503 288.701 200.263 173.452 288.308 200.912 172.761 
288.553 200.984 173.316 286.299 202.813 172.988 274.217 204.972 173.829 
275.636 197.818 174.415 284.574 197.622 173.852 286.264 197.979 174.19 
288.468 199.68 173.803 288.642 199.964 173.968 288.758 200.714 173.821 
273.284 203.464 173.762 273.367 204.088 173.99 273.308 205.085 174.889 
275.504 205.637 173.791 276.069 197.372 174.963 284.711 197.163 175.245 
286.679 197.936 175.342 274.213 198.515 175.207 288.737 200.491 174.449 
287.78 202.81 174.83 288.471 201.714 174.506 286.642 203.615 174.607 
272.501 205.286 176.063 273.824 206.122 175.552 287.063 198.23 176.072 
288.688 200.81 174.841 288.433 202.115 175.466 288.215 202.535 175.228 
288.45 202.488 175.641 288.437 202.601 175.684 271.647 203.725 176.689 
288.122 202.855 175.607 272.849 205.911 176.235 277.722 195.887 177.198 
288.365 202.612 175.808 288.11 202.963 176.299 271.627 204.509 176.952 
286.036 205.104 176.908 287.728 203.499 176.537 276.32 207.291 176.308 
272.541 206.98 178.148 280.025 195.786 177.036 286.824 198.75 178.026 
272.808 199.543 177.987 271.222 202.771 178.182 288.225 202.197 177.188 
271.135 204.772 178.515 281.631 207.214 177.538 273.023 207.693 178.943 
276.135 195.878 179.109 276.559 195.532 179.728 282.381 195.586 179.08 
275.036 196.694 179.145 274.118 197.718 178.559 270.803 203.399 179.263 
270.755 203.805 179.32 287.509 204.068 178.35 287.262 204.543 178.116 
287.435 204.594 178.575 287.128 204.837 178.456 287.367 204.666 178.559 
276.309 195.45 180.596 287.627 202.367 179.279 270.714 204.337 179.821 
287.356 204.596 178.692 286.794 205.194 178.728 287.058 204.925 179.04 
271.323 206.225 180.536 281.07 194.763 181.301 282.595 195.634 181.088 
270.68 203.857 180.322 285.63 206.833 181.087 279.517 194.286 182.497 
279.913 194.253 182.305 280.247 194.295 182.22 277.506 194.918 182.034 
285.631 199.757 182.253 287.041 203.94 181.438 271.095 205.914 182.085 
271.293 206.532 182.009 271.486 206.892 181.758 286.477 205.84 181.302 
273.869 209.305 181.895 279.548 194.307 182.858 279.853 194.262 182.704 
280.369 194.382 182.777 280.626 194.543 182.816 271.401 202.088 183.053 
286.37 201.341 182.274 270.906 204.383 182.647 286.922 204.16 182.781 
286.659 205.626 182.028 285.706 207.99 183.161 278.681 210.105 182.583 
279.465 194.378 183.079 280.114 194.329 182.877 278.276 194.845 183.372 
280.202 194.661 183.636 283.099 196.923 183.47 286.881 203.595 183.748 
287.186 206.582 184.118 290.77 206.828 186.168 290.689 206.74 186.177 
290.673 206.891 186.174 279.84 194.841 184.149 287.739 205.664 184.876 
287.781 207.162 184.901 290.441 206.833 186.142 290.967 206.492 186.418 
287.659 207.769 185.044 288.416 207.086 185.347 290.621 207.119 186.328 
288.779 208.135 186.027 284.838 209.681 184.719 270.889 205.381 184.914 
287.961 204.857 185.568 288.773 205.509 185.912 289.808 206.773 186.038 
292.362 206.891 187.245 271.854 209.023 185.852 287.003 209.271 185.883 
286.615 202.297 186.525 288.09 203.647 186.973 292.696 207.431 187.703 
271.345 210.123 187.563 271.84 210.966 187.914 272.328 211.471 188.118 
280.452 197.175 187.657 273.251 199.832 187.62 286.092 201.551 188.446 
270.424 205.132 187.996 292.23 205.238 187.883 294.66 206.687 189.035 
294.838 206.81 189.295 288.573 209.651 187.602 271.744 211.363 188.436 
267.372 188.932 190.486 267.004 188.622 190.943 268.486 188.966 190.393 
269.233 188.999 190.595 267.139 189.295 190.29 268.153 189.177 190.246 
269.138 189.3 190.44 268.542 189.704 190.23 267.706 189.981 190.212 
268.261 189.959 190.234 277.787 197.455 188.474 294.556 207.332 189.306 
269.751 209.452 189.302 270.327 211.538 189.758 282.884 211.902 189.163 
266.342 188.868 190.897 267.628 188.321 191.291 270.155 189.184 190.991 
270.445 189.287 191.182 270.353 189.049 191.183 270.586 189.099 191.427 
269.434 189.724 190.577 270.681 189.337 191.447 268.853 190.108 190.413 
268.766 191.741 191.156 278.428 197.628 189.218 277.352 197.949 189.889 
281.2 198.262 189.607 284.612 200.595 190.481 285.289 201.007 190.062 
289.33 202.633 190.192 295.046 205.201 189.968 295.605 206.07 190.503 
292.96 208.936 189.895 268.734 210.162 190.613 286.748 211.127 190.106 
262 187.009 191.017 262 187.009 191.017 262 187.009 191.017 
262 187.009 191.017 262 187.009 191.017 264.343 188.347 192.405 
263.552 188.914 192.061 270.617 188.952 191.701 270.795 189.545 191.636 
263.888 190.708 191.302 264.659 192.097 191.355 270.228 191.36 191.68 
267.208 193.003 191.677 278.912 197.835 189.919 276.234 198.307 191.266 
271.604 201.211 190.66 295.624 205.345 190.733 295.821 205.134 191.374 
264.418 210.672 192.863 264.463 210.511 192.878 264.671 210.629 192.803 
267.257 210.924 191.751 285.734 211.415 190.681 269.006 212.38 191.401 
262 187.009 191.017 259.62 189.132 192.844 264.137 188 193.144 
262.638 189.395 192.065 263.968 191.973 191.522 261.728 197.802 193.46 
259.599 198.708 193.46 259.427 198.523 193.464 259.373 198.764 193.571 
259.833 198.755 193.487 278.138 198.085 191.846 287.355 202.056 192.144 
292.772 202.619 191.999 294.898 203.421 191.978 295.621 204.674 191.286 
295.438 204.263 191.478 295.908 206.767 191.923 296.158 206.196 192.467 
267.826 208.784 192.023 294.295 208.75 191.28 262.742 210.233 193.752 
262.43 210.335 193.983 263.049 210.623 193.507 264.307 210.286 193.043 
265.813 210.266 192.584 267.824 210.167 191.416 289.736 210.597 191.695 
265.093 211.287 192.842 285.774 211.306 191.507 273.067 214.445 192.589 
258.663 188.27 194.007 258.314 188.634 193.758 260.05 187.765 194.346 
258.39 189.081 193.458 257.913 188.845 193.858 266.414 187.698 193.47 
270.825 188.913 192.807 258.817 189.635 193.097 271.102 189.24 193.201 
261.13 190.54 192.189 259.289 191.063 192.863 271.112 191.765 193.241 
260.145 194.734 192.993 259.339 196.285 193.308 261.746 196.034 193.053 
259.472 197.161 193.352 257.959 197.931 194.011 275.932 198.108 193.058 
276.889 198.034 192.947 280.043 198.322 192.536 258.097 198.712 194.253 
258.18 199.22 194.609 292.971 202.344 193.218 285.884 201.873 193.357 
288.329 202.279 192.787 295.224 203.558 192.201 295.423 203.537 192.627 
295.556 203.947 192.223 268.524 206.353 193.481 295.753 207.504 192.868 
296.069 207.036 193.349 294.88 208.46 192.024 262.43 209.888 194.287 
265.015 209.447 193.493 265.77 209.255 193.337 293.725 209.405 192.535 
262.456 210.616 193.963 262.785 210.787 193.754 289.368 210.568 192.709 
280.915 211.809 193.366 257.412 188.468 194.621 256.905 188.701 194.866 
256.745 189.237 194.702 256.532 190.296 194.636 269.862 193.982 193.289 
270.894 193.164 193.683 264.408 197.332 194.254 257.246 197.876 194.645 
256.865 197.572 194.984 280.885 198.546 193.327 260.618 199.205 194.109 
272.296 199.313 193.239 282.952 199.642 194.138 258.559 199.755 194.983 
259.25 199.821 194.863 271.092 200.134 193.588 292.916 202.322 193.909 
294.562 202.725 193.304 294.875 202.795 193.642 269.677 202.996 193.597 
287.322 202.739 194.179 288.251 202.583 193.87 294.945 202.958 193.194 
296.37 205.07 193.896 296.362 206.232 194.276 284.554 208.557 194.683 
295.792 207.527 194.262 261.573 210.175 195.182 291.401 210.176 193.409 
293.776 209.347 193.544 264.86 212.401 193.944 277.28 213.914 194.062 
273.961 215.289 195.197 256.626 188.573 195.321 256.288 188.734 195.672 
257.048 188.158 195.604 255.932 189.194 195.804 270.049 188.228 194.177 
271.005 188.938 194.327 271.383 189.44 194.742 271.794 191.305 194.581 
271.863 190.64 195.108 256.316 195.977 195.399 266.556 196.671 194.156 
276.357 197.583 194.406 276.045 197.231 195.036 277.354 197.597 194.473 
271.219 198.972 194.306 257.78 199.933 195.704 257.504 199.952 196.04 
259.846 200.308 195.787 284.771 201.722 195.376 295.587 203.298 193.797 
295.438 203.112 194.128 285.507 202.44 194.913 286.159 203.07 194.945 
285.712 203.503 195.498 287.71 203.427 194.95 296.04 203.945 194.346 
286.511 203.758 195.246 287.17 203.781 195.173 285.395 206.506 195.539 
268.37 206.166 195.305 287.027 206.794 195.442 282.269 208.335 195.995 
283.095 207.81 195.841 296.019 207.001 194.905 261.351 210.194 195.659 
294.315 209.006 193.978 289.508 209.584 194.579 291.924 209.836 194.176 
261.994 211.825 195.654 289.956 210.032 194.053 263.383 212.386 195.061 
273.369 215.606 196.209 256.537 188.365 196.232 256.079 188.765 196.327 
257.281 188.082 196.478 255.645 189.159 196.302 255.382 189.378 196.585 
255.255 189.734 196.585 271.503 189.511 195.601 271.849 190.136 195.893 
272.076 192.986 195.218 256.118 193.936 195.451 271.924 194.03 195.089 
272.226 194.88 195.311 270.928 196.947 194.787 265.091 197.983 195.222 
268.788 197.955 195.193 270.563 197.687 194.816 272.884 197.221 194.855 
269.657 198.833 195.167 269.063 199.404 195.674 270.615 198.576 194.735 
282.451 198.995 195.453 256.54 199.076 196.784 269.997 199.6 194.923 
283.211 199.709 195.202 260.887 200.069 196.142 269.49 201.184 195.362 
[...]
POINT_DATA 1986
COLOR_SCALARS scalars 3
1 0.501961 0.517647 1 0.501961 0.517647 1 0.501961 0.517647 
1 0.501961 0.517647 1 0.501961 0.517647 
1 0.501961 0.517647 1 0.501961 0.517647 
1 0.501961 0.517647 1 0.501961 0.517647 
1 0.501961 0.517647 1 0.501961 0.517647 
1 0.501961 0.517647 1 0.501961 0.517647 
1 0.501961 0.517647 1 0.501961 0.517647 
1 0.501961 0.517647 1 0.501961 0.517647 
1 0.501961 0.517647 1 0.501961 0.517647 
1 0.501961 0.517647 1 0.501961 0.517647 
1 0.501961 0.517647 1 0.501961 0.517647 
1 0.501961 0.517647 1 0.501961 0.517647 
1 0.501961 0.517647 1 0.501961 0.517647 
1 0.501961 0.517647 1 0.501961 0.517647 
1 0.501961 0.517647 1 0.501961 0.517647 
1 0.501961 0.517647 1 0.501961 0.517647 
1 0.501961 0.517647 1 0.501961 0.517647 
1 0.501961 0.517647 1 0.501961 0.517647 
1 0.501961 0.517647 1 0.501961 0.517647 
1 0.501961 0.517647 1 0.501961 0.517647 
1 0.501961 0.517647 1 0.501961 0.517647 
1 0.501961 0.517647 1 0.501961 0.517647 
1 0.501961 0.517647 1 0.501961 0.517647 
1 0.501961 0.517647 1 0.501961 0.517647 
1 0.501961 0.517647 1 0.501961 0.517647 
1 0.501961 0.517647 1 0.501961 0.517647 
1 0.501961 0.517647 1 0.501961 0.517647 
1 0.501961 0.517647 1 0.501961 0.517647 
1 0.501961 0.517647 1 0.501961 0.517647 
1 0.501961 0.517647 1 0.501961 0.517647 
1 0.501961 0.517647 1 0.501961 0.517647 
1 0.501961 0.517647 1 0.501961 0.517647 
1 0.501961 0.517647 1 0.501961 0.517647 
1 0.501961 0.517647 1 0.501961 0.517647 
1 0.501961 0.517647 1 0.501961 0.517647 
1 0.501961 0.517647 1 0.501961 0.517647 
1 0.501961 0.517647 1 0.501961 0.517647 
1 0.501961 0.517647 1 0.501961 0.517647 
1 0.501961 0.517647 1 0.501961 0.517647 
1 0.501961 0.517647 1 0.501961 0.517647 
1 0.501961 0.517647 1 0.501961 0.517647 
1 0.501961 0.517647 1 0.501961 0.517647 
1 0.501961 0.517647 1 0.501961 0.517647 
1 0.501961 0.517647 1 0.501961 0.517647 
1 0.501961 0.517647 1 0.501961 0.517647 
1 0.501961 0.517647 1 0.501961 0.517647 
1 0.501961 0.517647 1 0.501961 0.517647 
1 0.501961 0.517647 1 0.501961 0.517647 
1 0.501961 0.517647 1 0.501961 0.517647 
1 0.501961 0.517647 1 0.501961 0.517647 
1 0.501961 0.517647 1 0.501961 0.517647 
1 0.501961 0.517647 1 0.501961 0.517647 
1 0.501961 0.517647 1 0.501961 0.517647 
1 0.501961 0.517647 1 0.501961 0.517647 
1 0.501961 0.517647 1 0.501961 0.517647 
1 0.501961 0.517647 1 0.501961 0.517647 
1 0.501961 0.517647 1 0.501961 0.517647 
1 0.501961 0.517647 1 0.501961 0.517647 
1 0.501961 0.517647 1 0.501961 0.517647 
1 0.501961 0.517647 1 0.501961 0.517647 
1 0.501961 0.517647 1 0.501961 0.517647 
1 0.501961 0.517647 1 0.501961 0.517647 
1 0.501961 0.517647 1 0.501961 0.517647 
1 0.501961 0.517647 1 0.501961 0.517647 
1 0.501961 0.517647 1 0.501961 0.517647 
1 0.501961 0.517647 1 0.501961 0.517647 
1 0.501961 0.517647 1 0.501961 0.517647 
1 0.501961 0.517647 1 0.501961 0.517647 
1 0.501961 0.517647 1 0.501961 0.517647 
1 0.501961 0.517647 1 0.501961 0.517647 
1 0.501961 0.517647 1 0.501961 0.517647 
1 0.501961 0.517647 1 0.501961 0.517647 
1 0.501961 0.517647 1 0.501961 0.517647 
1 0.501961 0.517647 1 0.501961 0.517647 
1 0.501961 0.517647 1 0.501961 0.517647 
1 0.501961 0.517647 1 0.501961 0.517647 
1 0.501961 0.517647 1 0.501961 0.517647 
1 0.501961 0.517647 1 0.501961 0.517647 
1 0.501961 0.517647 1 0.501961 0.517647 
1 0.501961 0.517647 1 0.501961 0.517647 
1 0.501961 0.517647 1 0.501961 0.517647 
1 0.501961 0.517647 1 0.501961 0.517647 
1 0.501961 0.517647 1 0.501961 0.517647 
1 0.501961 0.517647 1 0.501961 0.517647 
1 0.501961 0.517647 1 0.501961 0.517647 
1 0.501961 0.517647 1 0.501961 0.517647 
1 0.501961 0.517647 1 0.501961 0.517647 
1 0.501961 0.517647 1 0.501961 0.517647 
1 0.501961 0.517647 1 0.501961 0.517647 
1 0.501961 0.517647 1 0.501961 0.517647 
1 0.501961 0.517647 1 0.501961 0.517647 
1 0.501961 0.517647 1 0.501961 0.517647 
1 0.501961 0.517647 1 0.501961 0.517647 
1 0.501961 0.517647 1 0.501961 0.517647 
1 0.501961 0.517647 1 0.501961 0.517647 
1 0.501961 0.517647 1 0.501961 0.517647 
1 0.501961 0.517647 1 0.501961 0.517647 
1 0.501961 0.517647 1 0.501961 0.517647 
1 0.501961 0.517647 1 0.501961 0.517647 
1 0.501961 0.517647 1 0.501961 0.517647 
1 0.501961 0.517647 1 0.501961 0.517647 
1 0.501961 0.517647 1 0.501961 0.517647 
1 0.501961 0.517647 1 0.501961 0.517647 
1 0.501961 0.517647 1 0.501961 0.517647 
1 0.501961 0.517647 1 0.501961 0.517647 
1 0.501961 0.517647 1 0.501961 0.517647 
1 0.501961 0.517647 1 0.501961 0.517647 
1 0.501961 0.517647 1 0.501961 0.517647 
1 0.501961 0.517647 1 0.501961 0.517647 
1 0.501961 0.517647 1 0.501961 0.517647 
1 0.501961 0.517647 1 0.501961 0.517647 
1 0.501961 0.517647 1 0.501961 0.517647 
1 0.501961 0.517647 1 0.501961 0.517647 
1 0.501961 0.517647 1 0.501961 0.517647 
1 0.501961 0.517647 1 0.501961 0.517647 
1 0.501961 0.517647 1 0.501961 0.517647 
1 0.501961 0.517647 1 0.501961 0.517647 
1 0.501961 0.517647 1 0.501961 0.517647 
1 0.501961 0.517647 1 0.501961 0.517647 
1 0.501961 0.517647 1 0.501961 0.517647 
1 0.501961 0.517647 1 0.501961 0.517647 
1 0.501961 0.517647 1 0.501961 0.517647 
1 0.501961 0.517647 1 0.501961 0.517647 
1 0.501961 0.517647 1 0.501961 0.517647 
1 0.501961 0.517647 1 0.501961 0.517647 
1 0.501961 0.517647 1 0.501961 0.517647 
1 0.501961 0.517647 1 0.501961 0.517647 
1 0.501961 0.517647 1 0.501961 0.517647 
1 0.501961 0.517647 1 0.501961 0.517647 
1 0.501961 0.517647 1 0.501961 0.517647 
1 0.501961 0.517647 1 0.501961 0.517647 
1 0.501961 0.517647 1 0.501961 0.517647 
1 0.501961 0.517647 1 0.501961 0.517647 
1 0.501961 0.517647 1 0.501961 0.517647 
1 0.501961 0.517647 1 0.501961 0.517647 
1 0.501961 0.517647 1 0.501961 0.517647 
1 0.501961 0.517647 1 0.501961 0.517647 
1 0.501961 0.517647 1 0.501961 0.517647 
1 0.501961 0.517647 1 0.501961 0.517647 
1 0.501961 0.517647 1 0.501961 0.517647 
1 0.501961 0.517647 1 0.501961 0.517647 
1 0.501961 0.517647 1 0.501961 0.517647 
1 0.501961 0.517647 1 0.501961 0.517647 
1 0.501961 0.517647 1 0.501961 0.517647 
1 0.501961 0.517647 1 0.501961 0.517647 
1 0.501961 0.517647 1 0.501961 0.517647 
1 0.501961 0.517647 1 0.501961 0.517647 
1 0.501961 0.517647 1 0.501961 0.517647 
1 0.501961 0.517647 1 0.501961 0.517647 
1 0.501961 0.517647 1 0.501961 0.517647 
1 0.501961 0.517647 1 0.501961 0.517647 
1 0.501961 0.517647 1 0.501961 0.517647 
1 0.501961 0.517647 1 0.501961 0.517647 
1 0.501961 0.517647 1 0.501961 0.517647 
1 0.501961 0.517647 1 0.501961 0.517647 
1 0.501961 0.517647 1 0.501961 0.517647 
1 0.501961 0.517647 1 0.501961 0.517647 
1 0.501961 0.517647 1 0.501961 0.517647 
1 0.501961 0.517647 1 0.501961 0.517647 
1 0.501961 0.517647 1 0.501961 0.517647 
1 0.501961 0.517647 1 0.501961 0.517647 
1 0.501961 0.517647 1 0.501961 0.517647 
1 0.501961 0.517647 1 0.501961 0.517647 
1 0.501961 0.517647 1 0.501961 0.517647 
1 0.501961 0.517647 1 0.501961 0.517647 
1 0.501961 0.517647 1 0.501961 0.517647 
1 0.501961 0.517647 1 0.501961 0.517647 
1 0.501961 0.517647 1 0.501961 0.517647 
1 0.501961 0.517647 1 0.501961 0.517647 
1 0.501961 0.517647 1 0.501961 0.517647 
1 0.501961 0.517647 1 0.501961 0.517647 
1 0.501961 0.517647 1 0.501961 0.517647 
1 0.501961 0.517647 1 0.501961 0.517647 
1 0.501961 0.517647 1 0.501961 0.517647 
1 0.501961 0.517647 1 0.501961 0.517647 
1 0.501961 0.517647 1 0.501961 0.517647 
1 0.501961 0.517647 1 0.501961 0.517647 
1 0.501961 0.517647 1 0.501961 0.517647 
1 0.501961 0.517647 1 0.501961 0.517647 
1 0.501961 0.517647 1 0.501961 0.517647 
1 0.501961 0.517647 1 0.501961 0.517647 
1 0.501961 0.517647 1 0.501961 0.517647 
1 0.501961 0.517647 1 0.501961 0.517647 
1 0.501961 0.517647 1 0.501961 0.517647 
1 0.501961 0.517647 1 0.501961 0.517647 
1 0.501961 0.517647 1 0.501961 0.517647 
1 0.501961 0.517647 1 0.501961 0.517647 
1 0.501961 0.517647 1 0.501961 0.517647 
1 0.501961 0.517647 1 0.501961 0.517647 
1 0.501961 0.517647 1 0.501961 0.517647 
1 0.501961 0.517647 1 0.501961 0.517647 
1 0.501961 0.517647 1 0.501961 0.517647 
1 0.501961 0.517647 1 0.501961 0.517647 
1 0.501961 0.517647 1 0.501961 0.517647 
1 0.501961 0.517647 1 0.501961 0.517647 
1 0.501961 0.517647 1 0.501961 0.517647 
1 0.501961 0.517647 1 0.501961 0.517647 
1 0.501961 0.517647 1 0.501961 0.517647 
1 0.501961 0.517647 1 0.501961 0.517647 
1 0.501961 0.517647 1 0.501961 0.517647 
1 0.501961 0.517647 1 0.501961 0.517647 
1 0.501961 0.517647 1 0.501961 0.517647 
1 0.501961 0.517647 1 0.501961 0.517647 
1 0.501961 0.517647 1 0.501961 0.517647 
1 0.501961 0.517647 1 0.501961 0.517647 
1 0.501961 0.517647 1 0.501961 0.517647 
1 0.501961 0.517647 1 0.501961 0.517647 
1 0.501961 0.517647 1 0.501961 0.517647 
1 0.501961 0.517647 1 0.501961 0.517647 
1 0.501961 0.517647 1 0.501961 0.517647 
1 0.501961 0.517647 1 0.501961 0.517647 
1 0.501961 0.517647 1 0.501961 0.517647 
1 0.501961 0.517647 1 0.501961 0.517647 
1 0.501961 0.517647 1 0.501961 0.517647 
1 0.501961 0.517647 1 0.501961 0.517647 
1 0.501961 0.517647 1 0.501961 0.517647 
1 0.501961 0.517647 1 0.501961 0.517647 
1 0.501961 0.517647 1 0.501961 0.517647 
1 0.501961 0.517647 1 0.501961 0.517647 
1 0.501961 0.517647 1 0.501961 0.517647 
1 0.501961 0.517647 1 0.501961 0.517647 
1 0.501961 0.517647 1 0.501961 0.517647 
1 0.501961 0.517647 1 0.501961 0.517647 
1 0.501961 0.517647 1 0.501961 0.517647 
1 0.501961 0.517647 1 0.501961 0.517647 
1 0.501961 0.517647 1 0.501961 0.517647 
1 0.501961 0.517647 1 0.501961 0.517647 
1 0.501961 0.517647 1 0.501961 0.517647 
1 0.501961 0.517647 1 0.501961 0.517647 
1 0.501961 0.517647 1 0.501961 0.517647 
1 0.501961 0.517647 1 0.501961 0.517647 
1 0.501961 0.517647 1 0.501961 0.517647 
1 0.501961 0.517647 1 0.501961 0.517647 
1 0.501961 0.517647 1 0.501961 0.517647 
1 0.501961 0.517647 1 0.501961 0.517647 
1 0.501961 0.517647 1 0.501961 0.517647 
1 0.501961 0.517647 1 0.501961 0.517647 
1 0.501961 0.517647 1 0.501961 0.517647 
1 0.501961 0.517647 1 0.501961 0.517647 
1 0.501961 0.517647 1 0.501961 0.517647 
1 0.501961 0.517647 1 0.501961 0.517647 
1 0.501961 0.517647 1 0.501961 0.517647 
1 0.501961 0.517647 1 0.501961 0.517647 
1 0.501961 0.517647 1 0.501961 0.517647 
1 0.501961 0.517647 1 0.501961 0.517647 
1 0.501961 0.517647 1 0.501961 0.517647 
1 0.501961 0.517647 1 0.501961 0.517647 
1 0.501961 0.517647 1 0.501961 0.517647 
1 0.501961 0.517647 1 0.501961 0.517647 
1 0.501961 0.517647 1 0.501961 0.517647 
1 0.501961 0.517647 1 0.501961 0.517647 
1 0.501961 0.517647 1 0.501961 0.517647 
1 0.501961 0.517647 1 0.501961 0.517647 
1 0.501961 0.517647 1 0.501961 0.517647 
1 0.501961 0.517647 1 0.501961 0.517647 
1 0.501961 0.517647 1 0.501961 0.517647 
1 0.501961 0.517647 1 0.501961 0.517647 
1 0.501961 0.517647 1 0.501961 0.517647 
1 0.501961 0.517647 1 0.501961 0.517647 
1 0.501961 0.517647 1 0.501961 0.517647 
1 0.501961 0.517647 1 0.501961 0.517647 
1 0.501961 0.517647 1 0.501961 0.517647 
1 0.501961 0.517647 1 0.501961 0.517647 
1 0.501961 0.517647 1 0.501961 0.517647 
1 0.501961 0.517647 1 0.501961 0.517647 
1 0.501961 0.517647 1 0.501961 0.517647 
1 0.501961 0.517647 1 0.501961 0.517647 
1 0.501961 0.517647 1 0.501961 0.517647 
1 0.501961 0.517647 1 0.501961 0.517647 
1 0.501961 0.517647 1 0.501961 0.517647 
1 0.501961 0.517647 1 0.501961 0.517647 
1 0.501961 0.517647 1 0.501961 0.517647 
1 0.501961 0.517647 1 0.501961 0.517647 
1 0.501961 0.517647 1 0.501961 0.517647 
1 0.501961 0.517647 1 0.501961 0.517647 
1 0.501961 0.517647 1 0.501961 0.517647 
1 0.501961 0.517647 1 0.501961 0.517647 
1 0.501961 0.517647 1 0.501961 0.517647 
1 0.501961 0.517647 1 0.501961 0.517647 
1 0.501961 0.517647 1 0.501961 0.517647 
1 0.501961 0.517647 1 0.501961 0.517647 
1 0.501961 0.517647 1 0.501961 0.517647 
1 0.501961 0.517647 1 0.501961 0.517647 
1 0.501961 0.517647 1 0.501961 0.517647 
1 0.501961 0.517647 1 0.501961 0.517647 
1 0.501961 0.517647 1 0.501961 0.517647 
1 0.501961 0.517647 1 0.501961 0.517647 
1 0.501961 0.517647 1 0.501961 0.517647 
1 0.501961 0.517647 1 0.501961 0.517647 
1 0.501961 0.517647 1 0.501961 0.517647 
1 0.501961 0.517647 1 0.501961 0.517647 
1 0.501961 0.517647 1 0.501961 0.517647 
1 0.501961 0.517647 1 0.501961 0.517647 
1 0.501961 0.517647 1 0.501961 0.517647 
1 0.501961 0.517647 1 0.501961 0.517647 
1 0.501961 0.517647 1 0.501961 0.517647 
1 0.501961 0.517647 1 0.501961 0.517647 
1 0.501961 0.517647 1 0.501961 0.517647 
1 0.501961 0.517647 1 0.501961 0.517647 
1 0.501961 0.517647 1 0.501961 0.517647 
1 0.501961 0.517647 1 0.501961 0.517647 
1 0.501961 0.517647 1 0.501961 0.517647 
1 0.501961 0.517647 1 0.501961 0.517647 
1 0.501961 0.517647 1 0.501961 0.517647 
1 0.501961 0.517647 1 0.501961 0.517647 
1 0.501961 0.517647 1 0.501961 0.517647 
1 0.501961 0.517647 1 0.501961 0.517647 
1 0.501961 0.517647 1 0.501961 0.517647 
1 0.501961 0.517647 1 0.501961 0.517647 
1 0.501961 0.517647 1 0.501961 0.517647 
1 0.501961 0.517647 1 0.501961 0.517647 
1 0.501961 0.517647 1 0.501961 0.517647 
1 0.501961 0.517647 1 0.501961 0.517647 
1 0.501961 0.517647 1 0.501961 0.517647 
1 0.501961 0.517647 1 0.501961 0.517647 
1 0.501961 0.517647 1 0.501961 0.517647 
1 0.501961 0.517647 1 0.501961 0.517647 
1 0.501961 0.517647 1 0.501961 0.517647 
1 0.501961 0.517647 1 0.501961 0.517647 
1 0.501961 0.517647 1 0.501961 0.517647 
1 0.501961 0.517647 1 0.501961 0.517647 
1 0.501961 0.517647 1 0.501961 0.517647 
1 0.501961 0.517647 1 0.501961 0.517647 
1 0.501961 0.517647 1 0.501961 0.517647 
1 0.501961 0.517647 1 0.501961 0.517647 
1 0.501961 0.517647 1 0.501961 0.517647 
1 0.501961 0.517647 1 0.501961 0.517647 
1 0.501961 0.517647 1 0.501961 0.517647 
1 0.501961 0.517647 1 0.501961 0.517647 
1 0.501961 0.517647 1 0.501961 0.517647 
1 0.501961 0.517647 1 0.501961 0.517647 
1 0.501961 0.517647 1 0.501961 0.517647 
1 0.501961 0.517647 1 0.501961 0.517647 
1 0.501961 0.517647 1 0.501961 0.517647 
1 0.501961 0.517647 1 0.501961 0.517647 
1 0.501961 0.517647 1 0.501961 0.517647 
1 0.501961 0.517647 1 0.501961 0.517647 
1 0.501961 0.517647 1 0.501961 0.517647 
1 0.501961 0.517647 1 0.501961 0.517647 
1 0.501961 0.517647 1 0.501961 0.517647 
1 0.501961 0.517647 1 0.501961 0.517647 
1 0.501961 0.517647 1 0.501961 0.517647 
1 0.501961 0.517647 1 0.501961 0.517647 
1 0.501961 0.517647 1 0.501961 0.517647 
1 0.501961 0.517647 1 0.501961 0.517647 
1 0.501961 0.517647 1 0.501961 0.517647 
1 0.501961 0.517647 1 0.501961 0.517647 
1 0.501961 0.517647 1 0.501961 0.517647 
1 0.501961 0.517647 1 0.501961 0.517647 
1 0.501961 0.517647 1 0.501961 0.517647 
1 0.501961 0.517647 1 0.501961 0.517647 
1 0.501961 0.517647 1 0.501961 0.517647 
1 0.501961 0.517647 1 0.501961 0.517647 
1 0.501961 0.517647 1 0.501961 0.517647 
1 0.501961 0.517647 1 0.501961 0.517647 
1 0.501961 0.517647 1 0.501961 0.517647 
1 0.501961 0.517647 1 0.501961 0.517647 
1 0.501961 0.517647 1 0.501961 0.517647 
1 0.501961 0.517647 1 0.501961 0.517647 
1 0.501961 0.517647 1 0.501961 0.517647 
1 0.501961 0.517647 1 0.501961 0.517647 
1 0.501961 0.517647 1 0.501961 0.517647 
1 0.501961 0.517647 1 0.501961 0.517647 
1 0.501961 0.517647 1 0.501961 0.517647 
1 0.501961 0.517647 1 0.501961 0.517647 
1 0.501961 0.517647 1 0.501961 0.517647 
1 0.501961 0.517647 1 0.501961 0.517647 
1 0.501961 0.517647 1 0.501961 0.517647 
1 0.501961 0.517647 1 0.501961 0.517647 
1 0.501961 0.517647 1 0.501961 0.517647 
1 0.501961 0.517647 1 0.501961 0.517647 
1 0.501961 0.517647 1 0.501961 0.517647 
1 0.501961 0.517647 1 0.501961 0.517647 
1 0.501961 0.517647 1 0.501961 0.517647 
1 0.501961 0.517647 1 0.501961 0.517647 
1 0.501961 0.517647 1 0.501961 0.517647 
1 0.501961 0.517647 1 0.501961 0.517647 
1 0.501961 0.517647 1 0.501961 0.517647 
1 0.501961 0.517647 1 0.501961 0.517647 
1 0.501961 0.517647 1 0.501961 0.517647 
1 0.501961 0.517647 1 0.501961 0.517647 
1 0.501961 0.517647 1 0.501961 0.517647 
1 0.501961 0.517647 1 0.501961 0.517647 
1 0.501961 0.517647 1 0.501961 0.517647 
1 0.501961 0.517647 1 0.501961 0.517647 
1 0.501961 0.517647 1 0.501961 0.517647 
1 0.501961 0.517647 1 0.501961 0.517647 
1 0.501961 0.517647 1 0.501961 0.517647 
1 0.501961 0.517647 1 0.501961 0.517647 
1 0.501961 0.517647 1 0.501961 0.517647 
1 0.501961 0.517647 1 0.501961 0.517647 
1 0.501961 0.517647 1 0.501961 0.517647 
1 0.501961 0.517647 1 0.501961 0.517647 
1 0.501961 0.517647 1 0.501961 0.517647 
1 0.501961 0.517647 1 0.501961 0.517647 
1 0.501961 0.517647 1 0.501961 0.517647 
1 0.501961 0.517647 1 0.501961 0.517647 
1 0.501961 0.517647 1 0.501961 0.517647 
1 0.501961 0.517647 1 0.501961 0.517647 
1 0.501961 0.517647 1 0.501961 0.517647 
1 0.501961 0.517647 1 0.501961 0.517647 
1 0.501961 0.517647 1 0.501961 0.517647 
1 0.501961 0.517647 1 0.501961 0.517647 
1 0.501961 0.517647 1 0.501961 0.517647 
1 0.501961 0.517647 1 0.501961 0.517647 
1 0.501961 0.517647 1 0.501961 0.517647 
1 0.501961 0.517647 1 0.501961 0.517647 
1 0.501961 0.517647 1 0.501961 0.517647 
1 0.501961 0.517647 1 0.501961 0.517647 
1 0.501961 0.517647 1 0.501961 0.517647 
1 0.501961 0.517647 1 0.501961 0.517647 
1 0.501961 0.517647 1 0.501961 0.517647 
1 0.501961 0.517647 1 0.501961 0.517647 
1 0.501961 0.517647 1 0.501961 0.517647 
1 0.501961 0.517647 1 0.501961 0.517647 
1 0.501961 0.517647 1 0.501961 0.517647 
1 0.501961 0.517647 1 0.501961 0.517647 
1 0.501961 0.517647 1 0.501961 0.517647 
1 0.501961 0.517647 1 0.501961 0.517647 
1 0.501961 0.517647 1 0.501961 0.517647 
1 0.501961 0.517647 1 0.501961 0.517647 
1 0.501961 0.517647 1 0.501961 0.517647 
1 0.501961 0.517647 1 0.501961 0.517647 
1 0.501961 0.517647 1 0.501961 0.517647 
1 0.501961 0.517647 1 0.501961 0.517647 
1 0.501961 0.517647 1 0.501961 0.517647 
1 0.501961 0.517647 1 0.501961 0.517647 
1 0.501961 0.517647 1 0.501961 0.517647 
1 0.501961 0.517647 1 0.501961 0.517647 
1 0.501961 0.517647 1 0.501961 0.517647 
1 0.501961 0.517647 1 0.501961 0.517647 
1 0.501961 0.517647 1 0.501961 0.517647 
1 0.501961 0.517647 1 0.501961 0.517647 
1 0.501961 0.517647 1 0.501961 0.517647 
1 0.501961 0.517647 1 0.501961 0.517647 
1 0.501961 0.517647 1 0.501961 0.517647 
1 0.501961 0.517647 1 0.501961 0.517647 
1 0.501961 0.517647 1 0.501961 0.517647 
1 0.501961 0.517647 1 0.501961 0.517647 
1 0.501961 0.517647 1 0.501961 0.517647 
1 0.501961 0.517647 1 0.501961 0.517647 
1 0.501961 0.517647 1 0.501961 0.517647 
1 0.501961 0.517647 1 0.501961 0.517647 
1 0.501961 0.517647 1 0.501961 0.517647 
1 0.501961 0.517647 1 0.501961 0.517647 
1 0.501961 0.517647 1 0.501961 0.517647 
1 0.501961 0.517647 1 0.501961 0.517647 
1 0.501961 0.517647 1 0.501961 0.517647 
1 0.501961 0.517647 1 0.501961 0.517647 
1 0.501961 0.517647 1 0.501961 0.517647 
1 0.501961 0.517647 1 0.501961 0.517647 
1 0.501961 0.517647 1 0.501961 0.517647 
1 0.501961 0.517647 1 0.501961 0.517647 
1 0.501961 0.517647 1 0.501961 0.517647 
1 0.501961 0.517647 1 0.501961 0.517647 
1 0.501961 0.517647 1 0.501961 0.517647 
1 0.501961 0.517647 1 0.501961 0.517647 
1 0.501961 0.517647 1 0.501961 0.517647 
1 0.501961 0.517647 1 0.501961 0.517647 
1 0.501961 0.517647 1 0.501961 0.517647 
1 0.501961 0.517647 1 0.501961 0.517647 
1 0.501961 0.517647 1 0.501961 0.517647 
1 0.501961 0.517647 1 0.501961 0.517647 
1 0.501961 0.517647 1 0.501961 0.517647 
1 0.501961 0.517647 1 0.501961 0.517647 
1 0.501961 0.517647 1 0.501961 0.517647 
1 0.501961 0.517647 1 0.501961 0.517647 
1 0.501961 0.517647 1 0.501961 0.517647 
1 0.501961 0.517647 1 0.501961 0.517647 
1 0.501961 0.517647 1 0.501961 0.517647 
1 0.501961 0.517647 1 0.501961 0.517647 
1 0.501961 0.517647 1 0.501961 0.517647 
1 0.501961 0.517647 1 0.501961 0.517647 
1 0.501961 0.517647 1 0.501961 0.517647 
1 0.501961 0.517647 1 0.501961 0.517647 
1 0.501961 0.517647 1 0.501961 0.517647 
1 0.501961 0.517647 1 0.501961 0.517647 
1 0.501961 0.517647 1 0.501961 0.517647 
1 0.501961 0.517647 1 0.501961 0.517647 
1 0.501961 0.517647 1 0.501961 0.517647 
1 0.501961 0.517647 1 0.501961 0.517647 
1 0.501961 0.517647 1 0.501961 0.517647 
1 0.501961 0.517647 1 0.501961 0.517647 
1 0.501961 0.517647 1 0.501961 0.517647 
1 0.501961 0.517647 1 0.501961 0.517647 
1 0.501961 0.517647 1 0.501961 0.517647 