# vtk DataFile Version 4.2
vtk output
ASCII
DATASET POLYDATA
POINTS 912 float
292.218 164.055 128.475 284.296 158.737 129.19 288.481 159.129 129.139 
281.098 159.678 129.474 292.265 160.089 129.452 291.837 161.242 128.961 
289.883 161.942 128.46 294.128 161.997 129.499 279.91 164.605 129.19 
287.885 164.814 128.265 281.19 167.048 128.805 289.341 167.353 128.64 
292.013 166.88 128.921 292.836 167.749 129.443 281.397 169.37 129.104 
288.92 169.701 129.319 282.426 157.982 130.276 282.003 158.161 130.216 
282.992 157.9 130.204 285.801 157.942 129.766 286.73 157.852 130.074 
285.488 158.237 129.466 280.005 159.334 130.443 279.874 159.571 130.277 
280.681 159.167 129.938 291.124 158.972 129.982 279.449 160.318 130.32 
293.607 159.732 130.154 279.299 161.393 130.321 278.784 162.7 130.362 
278.329 163.645 130.459 278.879 163.439 129.992 278.057 164.741 130.365 
277.33 167.246 130.575 277.658 169.362 130.446 294.826 167.832 130.56 
292.477 168.991 130.05 294.033 168.644 130.535 294.403 168.391 130.614 
278.792 170.398 130.119 292.427 169.635 130.574 293.824 168.948 130.74 
289.661 171.78 130.909 285.002 157.739 130.391 280.725 158.696 130.858 
281.739 158.239 130.782 283.112 157.977 130.877 287.275 157.975 130.658 
279.727 159.665 130.523 287.911 158.196 131.17 279.479 160.126 130.54 
294.85 159.169 131.193 279.376 160.569 130.892 295.55 159.74 131.152 
276.994 165.815 131.367 296.083 165.789 130.615 295.377 167.619 130.873 
295.529 167.669 131.168 292.742 169.75 130.976 293.266 169.538 131.261 
293.691 169.197 131.073 291.04 171.059 131.274 284.848 173.058 130.217 
289.662 172.893 132.096 285.325 174.819 131.139 294.502 158.67 131.679 
294.627 158.54 132.098 288.504 158.436 131.665 296.38 158.818 132.554 
280.116 159.757 131.609 279.778 159.972 131.282 296.618 159.095 132.334 
297.036 159.359 132.362 297.18 159.841 132.146 297.642 160.72 132.103 
278.294 162.518 131.895 297.331 162.211 131.476 276.665 166.065 132.445 
297.585 164.935 132.017 296.892 166.159 131.784 276.209 168.88 132.221 
276.148 169.82 132.412 292.365 170.28 131.962 291.251 171.272 132.521 
296.607 158.6 133.056 298.02 158.504 133.673 280.768 160.699 132.855 
298.442 160.597 133.067 298.085 161.705 132.386 298.328 162.005 132.752 
298.517 161.818 133.175 298.317 162.63 132.976 297.655 165.091 132.911 
276.397 166.723 133.2 276.282 167.406 132.733 297.044 166.059 132.478 
295.334 167.659 133.066 292.21 170.181 133.383 278.15 175.105 132.421 
276.338 175.996 133.871 288.547 175.427 132.962 278.576 177.046 133.204 
286.388 176.608 132.593 296.512 158.458 133.722 298.136 158.488 133.782 
294.229 158.712 133.431 298.527 158.714 134.09 298.834 158.97 134.151 
298.869 159.417 134.1 280.139 161.839 133.554 298.633 161.591 133.642 
298.506 162.09 133.863 297.752 164.54 133.709 292.039 170.063 134.02 
274.954 174.17 134.682 283.428 179.038 133.995 298.833 158.783 134.298 
298.902 158.768 134.397 298.763 158.78 134.404 298.923 158.885 134.389 
297.784 158.841 134.486 298.341 158.815 134.419 298.916 159.158 134.325 
297.096 159.12 134.772 298.848 159.576 134.407 293.489 159.804 134.604 
298.79 160.124 134.423 298.245 162.279 134.408 297.997 163.407 134.182 
295.007 166.437 134.948 292.052 169.288 134.994 275.024 171.28 134.8 
291.025 170.837 135.159 287.884 177.376 134.775 279.906 179.087 134.223 
277.447 179.769 135.375 286.49 178.984 135.281 298.908 158.79 134.438 
298.668 158.987 134.582 298.629 159.419 134.682 295.769 160.027 135.301 
298.28 160.821 134.925 297.037 163.58 135.509 280.381 164.393 136.212 
296.114 164.493 135.652 275.26 169.445 135.464 274.778 170.529 135.596 
290.379 172.013 135.922 269.512 173.059 137.573 269.505 172.941 137.63 
269.386 173.061 137.638 273.957 173.232 135.749 269.488 173.137 137.604 
269.427 173.163 137.704 269.644 173.117 137.593 298.845 158.981 134.569 
293.483 162.43 136.292 295.56 162.166 136.323 296.421 163.274 136.05 
277.094 166.363 135.931 291.823 165.64 136.91 291.61 166.651 136.843 
275.997 167.838 136.497 269.31 172.52 138.2 269.151 172.735 138.106 
269.736 172.659 137.778 273.044 171.967 136.805 269.134 172.916 137.899 
269.052 172.895 138.058 269.027 172.997 137.965 269.354 172.899 137.749 
271.061 172.481 137.553 269.089 173.054 137.9 269.057 173.069 137.999 
269.263 173.082 137.801 270.006 173.138 137.662 273.224 173.429 136.465 
269.536 173.246 137.956 273.254 175.738 137.199 275.743 181.62 137.609 
285.362 181.212 137.873 296.321 162.407 136.17 289.701 164.199 137.054 
292.273 163.658 136.711 293.448 164.022 136.605 295.051 163.137 136.567 
290.576 165.011 137.241 290.425 166.535 137.481 290.369 165.823 137.467 
290.351 167.58 137.51 275.023 168.879 137.189 270.107 171.778 138.456 
270.046 171.54 138.901 271.512 171.295 138.036 273.37 170.893 137.077 
269.06 172.987 138.128 271.81 172.526 137.378 269.154 173.095 138.156 
271.266 173.4 137.662 269.458 173.207 138.375 269.985 173.449 138.392 
270.667 173.667 138.202 286.292 180.218 138.167 274.795 181.288 138.242 
285.77 180.874 138.278 277.173 182.792 137.767 284.214 182.584 138.316 
282.877 183.562 138.257 283.418 183.508 138.473 283.62 183.709 138.825 
284.373 183.005 139.142 283.932 183.608 139.117 295.206 162.838 136.557 
292.54 163.822 136.754 289.529 165.219 137.531 277.29 167.291 138.333 
274.584 168.926 138.055 273.71 169.113 138.827 273.319 169.354 138.758 
289.851 168.983 138.036 271.065 170.57 139.179 273.017 169.733 138.473 
269.845 171.663 139.135 269.587 172.071 139.091 269.481 173.063 138.8 
270.51 173.773 138.953 271.157 174.195 138.728 273.702 180.739 139.613 
284.888 182.377 139.605 274.488 183.203 139.56 282.803 184.79 139.363 
283.603 166.799 139.49 287.644 167.305 139.279 273.53 168.947 139.718 
273.994 168.872 139.213 275.121 168.507 139.86 286.002 167.475 139.963 
271.134 170.093 140.156 269.866 171.617 139.611 271.04 174.214 139.571 
272.723 176.527 139.545 285.665 180.761 140.177 278.801 185.072 139.43 
283.352 184.968 140.062 283.798 184.676 140.446 271.829 169.419 141.2 
271.575 169.604 141.069 273.487 168.905 140.448 288.247 169.221 139.967 
270.506 170.785 140.727 270.185 171.27 140.592 288.7 172.665 140.167 
273.058 177.815 141.188 272.013 184.097 142.376 284.355 183.716 141.031 
273.959 185.428 141.292 283.772 184.951 141.043 274.397 186.045 141.566 
283.022 185.837 141.218 283.35 185.562 141.055 272.007 169.352 141.432 
272.214 169.313 141.556 270.891 170.387 141.255 275.783 169.081 141.616 
286.916 169.439 141.152 277.26 169.429 142.153 270.051 172.074 140.76 
271.262 173.939 141.414 272.599 176.301 140.978 284.862 180.943 142.455 
271.719 184.021 142.859 272.63 184.947 141.947 283.437 185.231 141.986 
275.566 186.943 142.098 283.46 185.434 141.382 283.274 185.668 141.778 
282.522 186.121 141.572 282.953 186.02 141.578 282.844 186.055 141.79 
283.032 186.006 141.708 271.118 170.359 141.725 272.325 169.809 142.272 
270.717 171.355 141.775 286.677 171.139 142.182 271.184 172.792 142.297 
286.691 174.824 142.703 271.506 183.642 143.617 283.016 185.248 142.725 
271.813 186.821 143.579 272.956 186.754 142.887 282.519 185.99 142.214 
279.75 186.821 142.82 277.055 187.551 143.319 271.516 170.692 142.408 
272.356 170.807 143.009 273.119 170.377 142.989 276.434 171.41 144.053 
279.478 171.898 144.394 282.412 171.669 143.932 272.107 173.421 142.95 
286.198 174.079 143.303 272.789 175.296 142.848 273.367 176.248 143.634 
273.482 177.115 143.95 271.53 183.394 144.541 270.916 185.79 144.246 
270.783 186.272 144.223 271.146 186.29 143.856 280.77 185.602 144.147 
271.125 186.728 144.152 279.047 186.72 143.88 280.927 186.294 143.178 
278.043 187.225 143.729 276.313 188.151 144.155 272.42 171.424 143.271 
273.412 172.031 143.951 285.257 172.778 143.673 285.361 173.765 143.97 
283.768 173.404 144.594 273.76 176.873 144.576 270.737 186.589 144.709 
270.525 187.193 145.102 270.576 187.319 145.179 270.651 187.594 145.361 
273.219 172.39 143.951 274.751 173.826 144.925 276.885 173.302 145.318 
274.261 174.847 144.821 279.395 174.316 146.111 283.705 175.013 145.083 
273.187 180.629 146.239 271.41 183.973 145.53 280.735 182.816 146.286 
271.472 184.161 145.976 270.736 185.857 145.442 270.508 187.225 145.211 
270.563 187.292 145.477 270.524 187.753 145.762 270.527 187.815 145.719 
271.059 188.329 145.723 271.724 189.202 146.193 272.417 189.17 145.857 
273.55 189.144 146.256 276.016 175.629 146.462 276.456 175.517 146.604 
276.99 175.228 146.572 277.806 175.012 146.564 282.698 178.652 146.278 
282.574 179.196 146.372 272.367 182.581 146.414 270.899 186.079 146.307 
270.665 188.047 146.154 274.855 187.383 146.933 270.608 188.647 146.674 
270.681 188.74 146.748 270.802 188.948 146.918 271.996 189.925 147.4 
275.103 178.349 147.353 274.683 179.157 147.44 275.829 182.652 148.199 
277.571 181.812 148.291 272.847 182.836 147.247 272.655 183.509 147.308 
271.473 185.364 146.847 274.609 185.252 147.641 271.55 185.764 147.123 
270.781 187.141 146.64 270.999 186.716 146.84 270.616 188.637 146.747 
270.724 188.561 146.888 270.798 188.93 147.179 270.81 189.07 147.196 
270.768 188.957 147.083 273.07 189.153 147.493 270.897 189.152 147.135 
271.2 189.425 147.289 271.567 189.791 147.406 271.41 189.696 147.658 
271.644 190.137 147.817 271.702 190.361 147.979 272.018 190.123 147.784 
272.447 189.787 147.508 281.105 177.514 147.341 275.657 178.534 147.95 
276.683 177.959 148.229 279.282 181.121 148.175 274.296 181.62 148.125 
273.334 182.753 147.676 273.415 184.625 147.772 271.805 186.08 147.42 
273.012 185.893 147.746 271.174 189.223 147.52 271.443 189.384 147.795 
271.577 189.97 147.96 272.165 189.912 147.87 271.591 190.331 148.064 
271.593 190.421 148.142 271.629 190.394 148.045 271.922 190.232 147.98 
271.61 190.447 148.128 271.686 190.431 148.097 271.791 190.357 148.075 
275.819 179.458 148.471 277.097 179.342 148.821 280.602 179.126 147.987 
278.947 179.338 148.722 279.805 179.496 148.509 274.853 181.163 148.463 
277.594 180.286 148.808 274.613 181.263 148.362 273.442 183.138 147.832 
273.401 183.503 147.839 272.041 186.52 147.658 271.757 189.51 147.975 
[...]
POINT_DATA 912
COLOR_SCALARS scalars 3
1 0.501961 0.517647 1 0.501961 0.517647 1 0.501961 0.517647 
1 0.501961 0.517647 1 0.501961 0.517647 
1 0.501961 0.517647 1 0.501961 0.517647 
1 0.501961 0.517647 1 0.501961 0.517647 
1 0.501961 0.517647 1 0.501961 0.517647 
1 0.501961 0.517647 1 0.501961 0.517647 
1 0.501961 0.517647 1 0.501961 0.517647 
1 0.501961 0.517647 1 0.501961 0.517647 
1 0.501961 0.517647 1 0.501961 0.517647 
1 0.501961 0.517647 1 0.501961 0.517647 
1 0.501961 0.517647 1 0.501961 0.517647 
1 0.501961 0.517647 1 0.501961 0.517647 
1 0.501961 0.517647 1 0.501961 0.517647 
1 0.501961 0.517647 1 0.501961 0.517647 
1 0.501961 0.517647 1 0.501961 0.517647 
1 0.501961 0.517647 1 0.501961 0.517647 
1 0.501961 0.517647 1 0.501961 0.517647 
1 0.501961 0.517647 1 0.501961 0.517647 
1 0.501961 0.517647 1 0.501961 0.517647 
1 0.501961 0.517647 1 0.501961 0.517647 
1 0.501961 0.517647 1 0.501961 0.517647 
1 0.501961 0.517647 1 0.501961 0.517647 
1 0.501961 0.517647 1 0.501961 0.517647 
1 0.501961 0.517647 1 0.501961 0.517647 
1 0.501961 0.517647 1 0.501961 0.517647 
1 0.501961 0.517647 1 0.501961 0.517647 
1 0.501961 0.517647 1 0.501961 0.517647 
1 0.501961 0.517647 1 0.501961 0.517647 
1 0.501961 0.517647 1 0.501961 0.517647 
1 0.501961 0.517647 1 0.501961 0.517647 
1 0.501961 0.517647 1 0.501961 0.517647 
1 0.501961 0.517647 1 0.501961 0.517647 
1 0.501961 0.517647 1 0.501961 0.517647 
1 0.501961 0.517647 1 0.501961 0.517647 
1 0.501961 0.517647 1 0.501961 0.517647 
1 0.501961 0.517647 1 0.501961 0.517647 
1 0.501961 0.517647 1 0.501961 0.517647 
1 0.501961 0.517647 1 0.501961 0.517647 
1 0.501961 0.517647 1 0.501961 0.517647 
1 0.501961 0.517647 1 0.501961 0.517647 
1 0.501961 0.517647 1 0.501961 0.517647 
1 0.501961 0.517647 1 0.501961 0.517647 
1 0.501961 0.517647 1 0.501961 0.517647 
1 0.501961 0.517647 1 0.501961 0.517647 
1 0.501961 0.517647 1 0.501961 0.517647 
1 0.501961 0.517647 1 0.501961 0.517647 
1 0.501961 0.517647 1 0.501961 0.517647 
1 0.501961 0.517647 1 0.501961 0.517647 
1 0.501961 0.517647 1 0.501961 0.517647 
1 0.501961 0.517647 1 0.501961 0.517647 
1 0.501961 0.517647 1 0.501961 0.517647 
1 0.501961 0.517647 1 0.501961 0.517647 
1 0.501961 0.517647 1 0.501961 0.517647 
1 0.501961 0.517647 1 0.501961 0.517647 
1 0.501961 0.517647 1 0.501961 0.517647 
1 0.501961 0.517647 1 0.501961 0.517647 
1 0.501961 0.517647 1 0.501961 0.517647 
1 0.501961 0.517647 1 0.501961 0.517647 
1 0.501961 0.517647 1 0.501961 0.517647 
1 0.501961 0.517647 1 0.501961 0.517647 
1 0.501961 0.517647 1 0.501961 0.517647 
1 0.501961 0.517647 1 0.501961 0.517647 
1 0.501961 0.517647 1 0.501961 0.517647 
1 0.501961 0.517647 1 0.501961 0.517647 
1 0.501961 0.517647 1 0.501961 0.517647 
1 0.501961 0.517647 1 0.501961 0.517647 
1 0.501961 0.517647 1 0.501961 0.517647 
1 0.501961 0.517647 1 0.501961 0.517647 
1 0.501961 0.517647 1 0.501961 0.517647 
1 0.501961 0.517647 1 0.501961 0.517647 
1 0.501961 0.517647 1 0.501961 0.517647 
1 0.501961 0.517647 1 0.501961 0.517647 
1 0.501961 0.517647 1 0.501961 0.517647 
1 0.501961 0.517647 1 0.501961 0.517647 
1 0.501961 0.517647 1 0.501961 0.517647 
1 0.501961 0.517647 1 0.501961 0.517647 
1 0.501961 0.517647 1 0.501961 0.517647 
1 0.501961 0.517647 1 0.501961 0.517647 
1 0.501961 0.517647 1 0.501961 0.517647 
1 0.501961 0.517647 1 0.501961 0.517647 
1 0.501961 0.517647 1 0.501961 0.517647 
1 0.501961 0.517647 1 0.501961 0.517647 
1 0.501961 0.517647 1 0.501961 0.517647 
1 0.501961 0.517647 1 0.501961 0.517647 
1 0.501961 0.517647 1 0.501961 0.517647 
1 0.501961 0.517647 1 0.501961 0.517647 
1 0.501961 0.517647 1 0.501961 0.517647 
1 0.501961 0.517647 1 0.501961 0.517647 
1 0.501961 0.517647 1 0.501961 0.517647 
1 0.501961 0.517647 1 0.501961 0.517647 
1 0.501961 0.517647 1 0.501961 0.517647 
1 0.501961 0.517647 1 0.501961 0.517647 
1 0.501961 0.517647 1 0.501961 0.517647 
1 0.501961 0.517647 1 0.501961 0.517647 
1 0.501961 0.517647 1 0.501961 0.517647 
1 0.501961 0.517647 1 0.501961 0.517647 
1 0.501961 0.517647 1 0.501961 0.517647 
1 0.501961 0.517647 1 0.501961 0.517647 
1 0.501961 0.517647 1 0.501961 0.517647 
1 0.501961 0.517647 1 0.501961 0.517647 
1 0.501961 0.517647 1 0.501961 0.517647 
1 0.501961 0.517647 1 0.501961 0.517647 
1 0.501961 0.517647 1 0.501961 0.517647 
1 0.501961 0.517647 1 0.501961 0.517647 
1 0.501961 0.517647 1 0.501961 0.517647 
1 0.501961 0.517647 1 0.501961 0.517647 
1 0.501961 0.517647 1 0.501961 0.517647 
1 0.501961 0.517647 1 0.501961 0.517647 
1 0.501961 0.517647 1 0.501961 0.517647 
1 0.501961 0.517647 1 0.501961 0.517647 
1 0.501961 0.517647 1 0.501961 0.517647 
1 0.501961 0.517647 1 0.501961 0.517647 
1 0.501961 0.517647 1 0.501961 0.517647 
1 0.501961 0.517647 1 0.501961 0.517647 
1 0.501961 0.517647 1 0.501961 0.517647 
1 0.501961 0.517647 1 0.501961 0.517647 
1 0.501961 0.517647 1 0.501961 0.517647 
1 0.501961 0.517647 1 0.501961 0.517647 
1 0.501961 0.517647 1 0.501961 0.517647 
1 0.501961 0.517647 1 0.501961 0.517647 
1 0.501961 0.517647 1 0.501961 0.517647 
1 0.501961 0.517647 1 0.501961 0.517647 
1 0.501961 0.517647 1 0.501961 0.517647 
1 0.501961 0.517647 1 0.501961 0.517647 
1 0.501961 0.517647 1 0.501961 0.517647 
1 0.501961 0.517647 1 0.501961 0.517647 
1 0.501961 0.517647 1 0.501961 0.517647 
1 0.501961 0.517647 1 0.501961 0.517647 
1 0.501961 0.517647 1 0.501961 0.517647 
1 0.501961 0.517647 1 0.501961 0.517647 
1 0.501961 0.517647 1 0.501961 0.517647 
1 0.501961 0.517647 1 0.501961 0.517647 
1 0.501961 0.517647 1 0.501961 0.517647 
1 0.501961 0.517647 1 0.501961 0.517647 
1 0.501961 0.517647 1 0.501961 0.517647 
1 0.501961 0.517647 1 0.501961 0.517647 
1 0.501961 0.517647 1 0.501961 0.517647 
1 0.501961 0.517647 1 0.501961 0.517647 
1 0.501961 0.517647 1 0.501961 0.517647 
1 0.501961 0.517647 1 0.501961 0.517647 
1 0.501961 0.517647 1 0.501961 0.517647 
1 0.501961 0.517647 1 0.501961 0.517647 
1 0.501961 0.517647 1 0.501961 0.517647 
1 0.501961 0.517647 1 0.501961 0.517647 
1 0.501961 0.517647 1 0.501961 0.517647 
1 0.501961 0.517647 1 0.501961 0.517647 
1 0.501961 0.517647 1 0.501961 0.517647 
1 0.501961 0.517647 1 0.501961 0.517647 
1 0.501961 0.517647 1 0.501961 0.517647 
1 0.501961 0.517647 1 0.501961 0.517647 
1 0.501961 0.517647 1 0.501961 0.517647 
1 0.501961 0.517647 1 0.501961 0.517647 
1 0.501961 0.517647 1 0.501961 0.517647 
1 0.501961 0.517647 1 0.501961 0.517647 
1 0.501961 0.517647 1 0.501961 0.517647 
1 0.501961 0.517647 1 0.501961 0.517647 
1 0.501961 0.517647 1 0.501961 0.517647 
1 0.501961 0.517647 1 0.501961 0.517647 
1 0.501961 0.517647 1 0.501961 0.517647 
1 0.501961 0.517647 1 0.501961 0.517647 
1 0.501961 0.517647 1 0.501961 0.517647 
1 0.501961 0.517647 1 0.501961 0.517647 
1 0.501961 0.517647 1 0.501961 0.517647 
1 0.501961 0.517647 1 0.501961 0.517647 
1 0.501961 0.517647 1 0.501961 0.517647 
1 0.501961 0.517647 1 0.501961 0.517647 
1 0.501961 0.517647 1 0.501961 0.517647 
1 0.501961 0.517647 1 0.501961 0.517647 
1 0.501961 0.517647 1 0.501961 0.517647 
1 0.501961 0.517647 1 0.501961 0.517647 
1 0.501961 0.517647 1 0.501961 0.517647 
1 0.501961 0.517647 1 0.501961 0.517647 
1 0.501961 0.517647 1 0.501961 0.517647 
1 0.501961 0.517647 1 0.501961 0.517647 
1 0.501961 0.517647 1 0.501961 0.517647 
1 0.501961 0.517647 1 0.501961 0.517647 
1 0.501961 0.517647 1 0.501961 0.517647 
1 0.501961 0.517647 1 0.501961 0.517647 
1 0.501961 0.517647 1 0.501961 0.517647 
1 0.501961 0.517647 1 0.501961 0.517647 
1 0.501961 0.517647 1 0.501961 0.517647 
1 0.501961 0.517647 1 0.501961 0.517647 
1 0.501961 0.517647 1 0.501961 0.517647 
1 0.501961 0.517647 1 0.501961 0.517647 
1 0.501961 0.517647 1 0.501961 0.517647 
1 0.501961 0.517647 1 0.501961 0.517647 
1 0.501961 0.517647 1 0.501961 0.517647 
1 0.501961 0.517647 1 0.501961 0.517647 
1 0.501961 0.517647 1 0.501961 0.517647 
1 0.501961 0.517647 1 0.501961 0.517647 
1 0.501961 0.517647 1 0.501961 0.517647 
1 0.501961 0.517647 1 0.501961 0.517647 
1 0.501961 0.517647 1 0.501961 0.517647 
1 0.501961 0.517647 1 0.501961 0.517647 
1 0.501961 0.517647 1 0.501961 0.517647 
1 0.501961 0.517647 1 0.501961 0.517647 
1 0.501961 0.517647 1 0.501961 0.517647 
1 0.501961 0.517647 1 0.501961 0.517647 
1 0.501961 0.517647 1 0.501961 0.517647 
1 0.501961 0.517647 1 0.501961 0.517647 
1 0.501961 0.517647 1 0.501961 0.517647 
1 0.501961 0.517647 1 0.501961 0.517647 
1 0.501961 0.517647 1 0.501961 0.517647 
1 0.501961 0.517647 1 0.501961 0.517647 
1 0.501961 0.517647 1 0.501961 0.517647 
1 0.501961 0.517647 1 0.501961 0.517647 
1 0.501961 0.517647 1 0.501961 0.517647 
1 0.501961 0.517647 1 0.501961 0.517647 
1 0.501961 0.517647 1 0.501961 0.517647 
1 0.501961 0.517647 1 0.501961 0.517647 
1 0.501961 0.517647 1 0.501961 0.517647 
1 0.501961 0.517647 1 0.501961 0.517647 
1 0.501961 0.517647 1 0.501961 0.517647 
1 0.501961 0.517647 1 0.501961 0.517647 
1 0.501961 0.517647 1 0.501961 0.517647 
1 0.501961 0.517647 1 0.501961 0.517647 
1 0.501961 0.517647 1 0.501961 0.517647 
1 0.501961 0.517647 1 0.501961 0.517647 
1 0.501961 0.517647 1 0.501961 0.517647 
1 0.501961 0.517647 1 0.501961 0.517647 
1 0.501961 0.517647 1 0.501961 0.517647 
1 0.501961 0.517647 1 0.501961 0.517647 
1 0.501961 0.517647 1 0.501961 0.517647 
1 0.501961 0.517647 1 0.501961 0.517647 
1 0.501961 0.517647 1 0.501961 0.517647 
1 0.501961 0.517647 1 0.501961 0.517647 
1 0.501961 0.517647 1 0.501961 0.517647 
1 0.501961 0.517647 1 0.501961 0.517647 
1 0.501961 0.517647 1 0.501961 0.517647 
1 0.501961 0.517647 1 0.501961 0.517647 
1 0.501961 0.517647 1 0.501961 0.517647 
1 0.501961 0.517647 1 0.501961 0.517647 
1 0.501961 0.517647 1 0.501961 0.517647 
1 0.501961 0.517647 1 0.501961 0.517647 
1 0.501961 0.517647 1 0.501961 0.517647 
1 0.501961 0.517647 1 0.501961 0.517647 
1 0.501961 0.517647 1 0.501961 0.517647 
1 0.501961 0.517647 1 0.501961 0.517647 
1 0.501961 0.517647 1 0.501961 0.517647 
1 0.501961 0.517647 1 0.501961 0.517647 
1 0.501961 0.517647 1 0.501961 0.517647 
1 0.501961 0.517647 1 0.501961 0.517647 
1 0.501961 0.517647 1 0.501961 0.517647 
1 0.501961 0.517647 1 0.501961 0.517647 
1 0.501961 0.517647 1 0.501961 0.517647 
1 0.501961 0.517647 1 0.501961 0.517647 
1 0.501961 0.517647 1 0.501961 0.517647 
1 0.501961 0.517647 1 0.501961 0.517647 
1 0.501961 0.517647 1 0.501961 0.517647 
1 0.501961 0.517647 1 0.501961 0.517647 
1 0.501961 0.517647 1 0.501961 0.517647 
1 0.501961 0.517647 1 0.501961 0.517647 
1 0.501961 0.517647 1 0.501961 0.517647 
1 0.501961 0.517647 1 0.501961 0.517647 
1 0.501961 0.517647 1 0.501961 0.517647 
1 0.501961 0.517647 1 0.501961 0.517647 
1 0.501961 0.517647 1 0.501961 0.517647 
1 0.501961 0.517647 1 0.501961 0.517647 
1 0.501961 0.517647 1 0.501961 0.517647 
1 0.501961 0.517647 1 0.501961 0.517647 
1 0.501961 0.517647 1 0.501961 0.517647 
1 0.501961 0.517647 1 0.501961 0.517647 
1 0.501961 0.517647 1 0.501961 0.517647 
1 0.501961 0.517647 1 0.501961 0.517647 
1 0.501961 0.517647 1 0.501961 0.517647 
1 0.501961 0.517647 1 0.501961 0.517647 
1 0.501961 0.517647 1 0.501961 0.517647 
1 0.501961 0.517647 1 0.501961 0.517647 
1 0.501961 0.517647 1 0.501961 0.517647 
1 0.501961 0.517647 1 0.501961 0.517647 
1 0.501961 0.517647 1 0.501961 0.517647 
1 0.501961 0.517647 1 0.501961 0.517647 
1 0.501961 0.517647 1 0.501961 0.517647 
1 0.501961 0.517647 1 0.501961 0.517647 
1 0.501961 0.517647 1 0.501961 0.517647 
1 0.501961 0.517647 1 0.501961 0.517647 
1 0.501961 0.517647 1 0.501961 0.517647 
1 0.501961 0.517647 1 0.501961 0.517647 
1 0.501961 0.517647 1 0.501961 0.517647 
1 0.501961 0.517647 1 0.501961 0.517647 
1 0.501961 0.517647 1 0.501961 0.517647 
1 0.501961 0.517647 1 0.501961 0.517647 
1 0.501961 0.517647 1 0.501961 0.517647 
1 0.501961 0.517647 1 0.501961 0.517647 
1 0.501961 0.517647 1 0.501961 0.517647 
1 0.501961 0.517647 1 0.501961 0.517647 
1 0.501961 0.517647 1 0.501961 0.517647 
1 0.501961 0.517647 1 0.501961 0.517647 
1 0.501961 0.517647 1 0.501961 0.517647 
1 0.501961 0.517647 1 0.501961 0.517647 
1 0.501961 0.517647 1 0.501961 0.517647 
1 0.501961 0.517647 1 0.501961 0.517647 
1 0.501961 0.517647 1 0.501961 0.517647 
1 0.501961 0.517647 1 0.501961 0.517647 
1 0.501961 0.517647 1 0.501961 0.517647 
1 0.501961 0.517647 1 0.501961 0.517647 
1 0.501961 0.517647 1 0.501961 0.517647 
1 0.501961 0.517647 1 0.501961 0.517647 
1 0.501961 0.517647 1 0.501961 0.517647 
1 0.501961 0.517647 1 0.501961 0.517647 
1 0.501961 0.517647 1 0.501961 0.517647 
1 0.501961 0.517647 1 0.501961 0.517647 
1 0.501961 0.517647 1 0.501961 0.517647 
1 0.501961 0.517647 1 0.501961 0.517647 
1 0.501961 0.517647 1 0.501961 0.517647 
1 0.501961 0.517647 1 0.501961 0.517647 
1 0.501961 0.517647 1 0.501961 0.517647 
1 0.501961 0.517647 1 0.501961 0.517647 
1 0.501961 0.517647 1 0.501961 0.517647 
1 0.501961 0.517647 1 0.501961 0.517647 
1 0.501961 0.517647 1 0.501961 0.517647 
1 0.501961 0.517647 1 0.501961 0.517647 
1 0.501961 0.517647 1 0.501961 0.517647 
1 0.501961 0.517647 1 0.501961 0.517647 
1 0.501961 0.517647 1 0.501961 0.517647 
1 0.501961 0.517647 1 0.501961 0.517647 
1 0.501961 0.517647 1 0.501961 0.517647 
1 0.501961 0.517647 1 0.501961 0.517647 
1 0.501961 0.517647 1 0.501961 0.517647 
1 0.501961 0.517647 1 0.501961 0.517647 
1 0.501961 0.517647 1 0.501961 0.517647 
1 0.501961 0.517647 1 0.501961 0.517647 
1 0.501961 0.517647 1 0.501961 0.517647 
1 0.501961 0.517647 1 0.501961 0.517647 
1 0.501961 0.517647 1 0.501961 0.517647 
1 0.501961 0.517647 1 0.501961 0.517647 
1 0.501961 0.517647 1 0.501961 0.517647 
1 0.501961 0.517647 1 0.501961 0.517647 
1 0.501961 0.517647 1 0.501961 0.517647 
1 0.501961 0.517647 1 0.501961 0.517647 
1 0.501961 0.517647 1 0.501961 0.517647 
1 0.501961 0.517647 1 0.501961 0.517647 
1 0.501961 0.517647 1 0.501961 0.517647 
1 0.501961 0.517647 1 0.501961 0.517647 
1 0.501961 0.517647 1 0.501961 0.517647 
1 0.501961 0.517647 1 0.501961 0.517647 
1 0.501961 0.517647 1 0.501961 0.517647 
1 0.501961 0.517647 1 0.501961 0.517647 
1 0.501961 0.517647 1 0.501961 0.517647 
1 0.501961 0.517647 1 0.501961 0.517647 
1 0.501961 0.517647 1 0.501961 0.517647 
1 0.501961 0.517647 1 0.501961 0.517647 
1 0.501961 0.517647 1 0.501961 0.517647 
1 0.501961 0.517647 1 0.501961 0.517647 
1 0.501961 0.517647 1 0.501961 0.517647 
1 0.501961 0.517647 1 0.501961 0.517647 
1 0.501961 0.517647 1 0.501961 0.517647 
1 0.501961 0.517647 1 0.501961 0.517647 
1 0.501961 0.517647 1 0.501961 0.517647 
1 0.501961 0.517647 1 0.501961 0.517647 
1 0.501961 0.517647 1 0.501961 0.517647 
1 0.501961 0.517647 1 0.501961 0.517647 
1 0.501961 0.517647 1 0.501961 0.517647 
1 0.501961 0.517647 1 0.501961 0.517647 
1 0.501961 0.517647 1 0.501961 0.517647 
1 0.501961 0.517647 1 0.501961 0.517647 
1 0.501961 0.517647 1 0.501961 0.517647 
1 0.501961 0.517647 1 0.501961 0.517647 
1 0.501961 0.517647 1 0.501961 0.517647 
1 0.501961 0.517647 1 0.501961 0.517647 
1 0.501961 0.517647 1 0.501961 0.517647 
1 0.501961 0.517647 1 0.501961 0.517647 
1 0.501961 0.517647 1 0.501961 0.517647 
1 0.501961 0.517647 1 0.501961 0.517647 
1 0.501961 0.517647 1 0.501961 0.517647 
1 0.501961 0.517647 1 0.501961 0.517647 
1 0.501961 0.517647 1 0.501961 0.517647 
1 0.501961 0.517647 1 0.501961 0.517647 
1 0.501961 0.517647 1 0.501961 0.517647 
1 0.501961 0.517647 1 0.501961 0.517647 
1 0.501961 0.517647 1 0.501961 0.517647 
1 0.501961 0.517647 1 0.501961 0.517647 
1 0.501961 0.517647 1 0.501961 0.517647 
1 0.501961 0.517647 1 0.501961 0.517647 
1 0.501961 0.517647 1 0.501961 0.517647 
1 0.501961 0.517647 1 0.501961 0.517647 
1 0.501961 0.517647 1 0.501961 0.517647 
1 0.501961 0.517647 1 0.501961 0.517647 
1 0.501961 0.517647 1 0.501961 0.517647 
1 0.501961 0.517647 1 0.501961 0.517647 
1 0.501961 0.517647 1 0.501961 0.517647 
1 0.501961 0.517647 1 0.501961 0.517647 
1 0.501961 0.517647 1 0.501961 0.517647 
1 0.501961 0.517647 1 0.501961 0.517647 
1 0.501961 0.517647 1 0.501961 0.517647 
1 0.501961 0.517647 1 0.501961 0.517647 
1 0.501961 0.517647 1 0.501961 0.517647 
1 0.501961 0.517647 1 0.501961 0.517647 
1 0.501961 0.517647 1 0.501961 0.517647 
1 0.501961 0.517647 1 0.501961 0.517647 
1 0.501961 0.517647 1 0.501961 0.517647 
1 0.501961 0.517647 1 0.501961 0.517647 
1 0.501961 0.517647 1 0.501961 0.517647 
1 0.501961 0.517647 1 0.501961 0.517647 
1 0.501961 0.517647 1 0.501961 0.517647 
1 0.501961 0.517647 1 0.501961 0.517647 
1 0.501961 0.517647 1 0.501961 0.517647 
1 0.501961 0.517647 1 0.501961 0.517647 
1 0.501961 0.517647 1 0.501961 0.517647 
1 0.501961 0.517647 1 0.501961 0.517647 
1 0.501961 0.517647 1 0.501961 0.517647 
1 0.501961 0.517647 1 0.501961 0.517647 
1 0.501961 0.517647 1 0.501961 0.517647 
1 0.501961 0.517647 1 0.501961 0.517647 
1 0.501961 0.517647 1 0.501961 0.517647 
1 0.501961 0.517647 1 0.501961 0.517647 
1 0.501961 0.517647 1 0.501961 0.517647 
1 0.501961 0.517647 1 0.501961 0.517647 
1 0.501961 0.517647 1 0.501961 0.517647 
1 0.501961 0.517647 1 0.501961 0.517647 
1 0.501961 0.517647 1 0.501961 0.517647 
1 0.501961 0.517647 1 0.501961 0.517647 
1 0.501961 0.517647 1 0.501961 0.517647 
1 0.501961 0.517647 1 0.501961 0.517647 
1 0.501961 0.517647 1 0.501961 0.517647 
1 0.501961 0.517647 1 0.501961 0.517647 
1 0.501961 0.517647 1 0.501961 0.517647 
1 0.501961 0.517647 1 0.501961 0.517647 
1 0.501961 0.517647 1 0.501961 0.517647 
1 0.501961 0.517647 1 0.501961 0.517647 
1 0.501961 0.517647 1 0.501961 0.517647 
1 0.501961 0.517647 1 0.501961 0.517647 
1 0.501961 0.517647 1 0.501961 0.517647 
1 0.501961 0.517647 1 0.501961 0.517647 
1 0.501961 0.517647 1 0.501961 0.517647 
1 0.501961 0.517647 1 0.501961 0.517647 
1 0.501961 0.517647 1 0.501961 0.517647 
1 0.501961 0.517647 1 0.501961 0.517647 
1 0.501961 0.517647 1 0.501961 0.517647 
1 0.501961 0.517647 1 0.501961 0.517647 
1 0.501961 0.517647 1 0.501961 0.517647 
1 0.501961 0.517647 1 0.501961 0.517647 
1 0.501961 0.517647 1 0.501961 0.517647 
1 0.501961 0.517647 1 0.501961 0.517647 
1 0.501961 0.517647 1 0.501961 0.517647 
1 0.501961 0.517647 1 0.501961 0.517647 
1 0.501961 0.517647 1 0.501961 0.517647 
1 0.501961 0.517647 1 0.501961 0.517647 
1 0.501961 0.517647 1 0.501961 0.517647 
1 0.501961 0.517647 1 0.501961 0.517647 
1 0.501961 0.517647 1 0.501961 0.517647 
1 0.501961 0.517647 1 0.501961 0.517647 
1 0.501961 0.517647 1 0.501961 0.517647 
1 0.501961 0.517647 1 0.501961 0.517647 
1 0.501961 0.517647 1 0.501961 0.517647 
1 0.501961 0.517647 1 0.501961 0.517647 
1 0.501961 0.517647 1 0.501961 0.517647 
1 0.501961 0.517647 1 0.501961 0.517647 
1 0.501961 0.517647 1 0.501961 0.517647 
1 0.501961 0.517647 1 0.501961 0.517647 
1 0.501961 0.517647 1 0.501961 0.517647 
1 0.501961 0.517647 1 0.501961 0.517647 
1 0.501961 0.517647 1 0.501961 0.517647 
1 0.501961 0.517647 1 0.501961 0.517647 
1 0.501961 0.517647 1 0.501961 0.517647 
1 0.501961 0.517647 
NORMALS Normals float
0.240154 0.0137473 -0.970637 -0.072958 -0.519791 -0.851173 0.0181008 -0.348631 -0.937085 
-0.372433 -0.323514 -0.869846 0.254507 -0.433524 -0.864455 0.206939 -0.176279 -0.962342 
0.114395 -0.244103 -0.962978 0.466936 -0.173031 -0.867198 -0.349861 -0.120897 -0.928968 
-0.0222049 0.0137353 -0.999659 -0.211527 0.0929591 -0.972941 0.0895577 0.256947 -0.962267 
0.247785 0.280918 -0.927193 0.327522 0.425273 -0.843725 -0.167689 0.197099 -0.965936 
0.167333 0.418076 -0.892867 -0.243152 -0.963871 -0.108766 -0.355144 -0.812913 -0.461568 
-0.156277 -0.814809 -0.558268 -0.00366445 -0.810788 -0.585328 0.26928 -0.910202 -0.314675 
0.0242985 -0.585831 -0.810069 -0.7017 -0.711371 -0.0395934 -0.610343 -0.405008 -0.680771 
-0.416921 -0.618877 -0.665708 0.162263 -0.669095 -0.725247 -0.828842 -0.312636 -0.463981 
0.30592 -0.559582 -0.770248 -0.749353 -0.188374 -0.634811 -0.72169 -0.337714 -0.604246 
-0.772176 -0.223567 -0.594779 -0.535631 -0.220932 -0.815039 -0.709142 -0.163159 -0.685928 
-0.70306 -0.0170415 -0.710927 -0.653769 0.171762 -0.736942 0.470913 0.43683 -0.766433 
0.303087 0.535258 -0.78844 0.462024 0.509267 -0.726072 0.584225 0.615742 -0.528718 
-0.30639 0.315787 -0.898 0.424827 0.6886 -0.587667 0.444039 0.701299 -0.557682 