# vtk DataFile Version 4.2
vtk output
ASCII
DATASET POLYDATA
POINTS 1459 float
276.545 158.143 131.192 276.451 158.073 131.214 276.494 158.164 131.165 
276.542 158.174 131.268 276.385 158.965 130.962 276.536 158.305 131.205 
276.441 158.726 131.033 276.53 159.089 131.037 276.372 159.962 131.004 
276.259 160.514 131.036 276.586 159.97 131.133 276.428 160.999 131.344 
275.458 163.073 131.3 276.186 161.424 131.34 275.887 157.543 131.227 
275.836 157.447 131.245 275.797 157.499 131.241 275.854 157.487 131.277 
274.928 158.217 131.463 276.171 157.877 131.336 276.305 158.272 131.131 
276.441 158.028 131.308 276.498 158.166 131.381 276.556 158.73 131.179 
276.625 159.055 131.392 273.729 160.553 131.313 276.659 159.722 131.223 
276.648 160.344 131.694 275.629 161.819 131.221 276.118 162.049 131.661 
275.771 163.387 131.777 273.944 164.643 131.496 272.829 165.744 131.7 
275.031 165.24 132.013 274.261 166.188 131.914 274.338 167.507 132.321 
274.329 157.417 132.163 274.262 157.364 132.209 274.2 157.422 132.217 
274.328 157.406 132.215 274.321 157.601 132.078 273.894 157.553 132.402 
274.54 157.542 132.132 275.762 157.616 131.413 272.758 157.879 132.524 
274.432 157.948 131.811 275.121 157.75 131.749 275.806 157.833 131.631 
276.177 157.993 131.571 276.182 158.168 131.745 276.393 158.239 131.566 
276.481 161.45 132.118 276.514 161.066 132.291 276.105 162.683 132.021 
276.301 162.107 132.202 275.761 164.447 132.618 275.566 165.263 132.717 
272.766 167.023 131.963 273.023 168.763 132.388 274.698 167.716 132.721 
273.54 169.339 132.601 272.981 170.182 132.73 273.81 170.812 133.172 
273.816 171.44 133.399 273.623 171.781 133.473 274.106 171.295 133.654 
271.814 156.918 133.293 274.198 157.411 132.269 271.267 156.753 133.661 
274.311 157.533 132.332 272.984 157.504 133.023 274.084 157.729 132.71 
275.515 157.977 131.987 275.434 158.736 132.752 269.708 161.365 132.907 
276.471 160.569 132.388 276.198 162.441 132.885 275.062 167.438 133.084 
271.229 168.861 132.864 271.928 169.686 132.83 272.626 170.52 132.894 
272.536 171.371 133.231 274.429 170.823 133.954 273.17 171.844 133.43 
272.471 172.812 133.929 272.911 173.274 134.203 273.395 173.164 134.353 
270.473 155.688 134.432 270.033 155.251 134.833 270.649 156.226 134.077 
270.906 156.197 134.286 271.606 156.802 134.074 272.022 157.026 133.479 
273.19 157.82 133.584 273.995 158.823 133.892 275.832 161.333 133.573 
276.045 162.736 133.439 275.707 165.376 134.105 275.436 167.035 134.319 
269.499 169.318 133.927 274.841 169.461 134.235 271.594 171.462 133.542 
274.032 172.575 134.597 272.992 173.996 134.694 272.506 174.826 134.977 
272.624 175.184 135.223 273.133 174.757 135.372 272.865 175.244 135.408 
269.614 152.609 135.734 269.623 152.489 135.75 269.535 152.528 135.774 
269.645 152.49 135.786 269.413 152.872 135.691 269.315 152.362 136.013 
269.628 152.854 135.772 269.661 152.587 135.814 268.518 153.64 135.434 
269.544 153.453 135.607 269.715 153.104 135.982 269.669 152.65 135.967 
269.473 154.272 135.233 269.879 154.154 135.689 269.201 155.009 134.844 
270.407 155.391 135.452 271.105 156.398 134.82 270.822 156.356 135.647 
267.504 157.081 134.69 271.619 157.797 135.449 275.578 165.732 134.695 
268.361 169.887 134.979 268.799 171.197 135.5 269.761 170.67 134.31 
274.347 171.672 135.037 270.1 173.141 135.884 270.218 172.678 135.197 
273.387 174.497 135.818 271.08 175.081 135.673 271.866 176.306 135.841 
273.015 175.599 135.922 272.326 176.857 136.158 271 150.009 136.017 
271 150.009 136.017 271 150.009 136.017 271 150.009 136.017 
268.471 151.814 136.326 271 150.009 136.017 269.573 152.44 135.827 
269.609 152.364 136.45 269.605 152.459 135.95 264.829 158.482 135.969 
275.23 164.337 135.255 275.309 166.79 135.533 274.491 170.258 135.781 
268.675 171.461 135.984 269.643 172.517 136.356 270.086 173.162 136.595 
270.308 173.889 136.246 273.706 173.381 135.932 270.348 174.7 136.489 
271.245 176.273 136.124 273.065 176.175 136.526 271.788 176.988 136.305 
271.918 177.376 136.583 273.008 176.711 136.794 272.563 177.498 136.844 
272.687 177.692 137.207 269.987 148.332 138.114 269.987 148.319 138.113 
269.917 148.39 138.121 269.983 148.315 138.149 269.286 149.5 137.826 
269.252 150.44 137.443 271 150.009 136.017 269.766 153.144 137.675 
275.181 166.348 135.919 274.924 167.501 136.334 274.19 169.877 136.745 
267.285 170.791 136.674 266.528 171.411 137.457 268.324 171.649 137.186 
267.852 171.894 137.62 269.162 172.029 136.798 269.431 171.892 137.632 
269.894 172.45 137.072 270.207 172.006 137.686 270.469 172.467 137.407 
273.134 171.926 137.027 270.375 173.028 137.122 270.893 172.39 137.54 
270.78 173.35 137.349 270.287 173.889 136.999 271.229 172.97 137.464 
273.218 173.251 136.69 269.255 174.837 137.618 269.215 174.287 137.984 
268.359 174.614 138.009 269.91 174.845 137.117 269.963 174.24 137.662 
268.78 175.762 137.66 270.269 175.677 136.709 272.887 174.743 137.311 
273.116 175.198 137.021 272.615 178.147 137.831 269.913 148.344 138.16 
269.911 148.278 138.225 269.943 148.286 138.233 269.613 148.668 138.165 
269.567 148.199 138.586 269.834 148.552 138.344 269.644 149.311 138.244 
269.654 150.371 138.146 262.314 162.142 137.744 274.823 167.085 136.6 
274.46 166.909 137.076 270.052 171.572 138.247 269.557 171.645 138.446 
270.772 171.536 138.125 271.862 170.516 138.42 268.364 171.976 137.871 
268.945 171.854 138.076 271.289 172.013 137.734 272.72 171.543 137.426 
267.115 172.463 137.984 268.035 172.306 138.082 271.944 172.559 137.465 
267.267 173.622 138.237 268.128 172.991 138.337 270.623 173.812 137.544 
271.409 173.548 137.637 272.209 173.389 137.404 268.76 173.739 138.372 
269.804 173.953 138.343 270.727 173.981 138.133 271.526 174.097 138.122 
272.257 174.148 137.671 271.956 174.527 138.456 273.085 177.259 137.78 
270.039 179.111 138.33 272.947 177.791 137.977 271.857 179.597 138.879 
270.761 146.016 140.413 270.596 146.035 140.422 270.813 146.045 140.411 
270.861 145.96 140.48 270.869 146.01 140.441 268.154 147.66 139.238 
270.638 146.188 140.398 269.847 148.258 138.327 270.816 146.095 140.497 
269.856 148.386 138.944 269.86 148.317 138.426 273.599 167.072 138.052 
262.717 169.426 138.923 270.067 170.953 139.45 268.761 172.139 138.461 
269.344 171.787 138.931 264.871 173.14 138.807 268.744 172.618 138.688 
269.245 172.251 139.19 268.943 173.143 138.751 269.458 172.828 139.372 
269.703 173.496 139.04 270.529 173.918 138.938 271.284 174.228 138.743 
273.023 176.65 139.176 273.058 177.687 138.482 272.993 178.273 139.339 
268.646 179.583 139.278 270.91 181.001 140.058 270.621 145.665 140.729 
271.022 144.885 141.329 270.079 146.463 140.198 270.921 145.865 140.775 
271.317 145.4 141.397 270.632 146.536 140.632 270.142 147.472 139.925 
271.44 168.898 139.677 269.939 170.83 140.243 269.58 171.81 139.738 
270.339 173.222 140.246 273.16 178.442 140.094 269.665 180.66 139.822 
271.009 181.583 140.932 271.338 181.406 140.678 271.336 181.495 140.804 
271.579 181.195 140.674 271.45 181.417 140.754 273.034 143.094 142.875 
271.613 144.487 141.679 271.789 144.173 141.954 271.824 144.425 141.746 
271.885 144.333 141.858 271.891 144.399 141.79 271.814 144.517 141.791 
270.399 147.538 140.686 267.582 160.459 140.933 270.497 168.86 140.654 
270.061 168.785 141.295 269.127 182.433 141.866 271.466 181.437 140.96 
271.883 143.643 142.322 272.63 143.41 142.706 273.089 142.759 143.118 
272.108 144.214 142.276 270.195 148.271 141.762 257.951 155.514 142.238 
269.714 169.26 141.935 269.891 171.372 140.964 269.893 170.733 141.642 
269.954 171.851 140.923 270.084 171.603 141.634 271.404 173.822 141.496 
268.367 182.895 142.512 273.583 142.314 143.613 274.106 142.126 143.936 
274.107 141.774 144.119 274.307 142.138 144.044 274.45 142.04 144.138 
273.99 142.462 143.93 274.434 142.111 144.243 271.766 174.139 141.887 
274.739 141.72 144.625 265.836 154.849 144.29 264.421 158.581 144.678 
268.577 168.615 143.618 269.548 170.262 143.454 270.473 171.888 143.055 
270.406 171.742 143.629 272.67 174.995 143.402 273.254 176.35 143.737 
269.775 184.591 144.813 276.923 139.65 146.096 276.387 140.019 145.811 
275.997 139.714 145.795 277.275 139.555 146.253 277.14 139.774 146.212 
277.408 139.582 146.395 276.807 140.178 146.211 277.251 139.809 146.416 
275.051 141.879 145.357 265.953 153.312 145.398 266.685 167.929 145.188 
269.832 171.15 144.524 270.147 171.63 144.761 273.593 178.592 145.645 
272.954 180.459 144.674 277.447 139.389 146.411 277.213 139.247 146.49 
277.59 139.328 146.5 277.499 139.264 146.561 277.605 139.305 146.554 
277.554 139.397 146.564 277.43 139.611 146.653 275.649 141.598 146.503 
261.104 147.404 145.277 254.043 162.716 145.894 269.372 171.49 145.817 
272.79 174.894 145.117 273.525 176.604 145.046 267.482 186.376 146.08 
276.617 138.683 147.325 277.25 139.116 146.863 277.53 139.277 146.672 
277.448 139.357 146.904 277.153 139.938 147.237 266.123 151.842 147.015 
255.844 153.074 146.486 262.647 161.781 146.937 271.829 174.339 146.72 
273.282 175.641 146.476 273.391 176.259 146.649 273.334 175.804 146.542 
271.405 184.727 146.965 272.88 137.842 147.916 274.889 138.285 147.371 
276.503 138.568 147.794 276.875 138.9 147.898 268.797 139.205 147.67 
277.232 139.13 147.328 277.305 139.619 147.381 277.243 139.446 147.635 
276.887 140.117 147.737 267.19 149.998 147.939 261.764 158.89 149.024 
261.587 160.563 149.021 261.92 163.225 148.392 272.89 175.626 147.009 
273.186 175.655 146.605 273.159 176.233 147.362 273.515 176.836 147.518 
271.746 184.81 147.741 269.29 137.458 149.13 271.373 137.436 148.621 
272.544 137.036 149.121 274.799 137.715 148.477 275.459 137.905 148.494 
275.879 138.074 148.828 269.03 138.633 148.114 276.255 138.421 148.565 
277.188 139.228 147.658 276.115 140.864 148.29 267.42 149.558 148.333 
265.865 150.928 149.403 273.41 177.107 147.825 273.418 177.904 148.317 
273.369 178.055 148.521 273.352 178.798 148.5 272.824 182.355 149.173 
272.302 184.476 148.925 271.592 185.771 148.334 270.728 187.157 148.296 
269.932 187.889 148.258 271.218 187.617 149.168 269.014 136.639 150.185 
[...]
POINT_DATA 1459
COLOR_SCALARS scalars 3
1 0.501961 0.517647 1 0.501961 0.517647 1 0.501961 0.517647 
1 0.501961 0.517647 1 0.501961 0.517647 
1 0.501961 0.517647 1 0.501961 0.517647 
1 0.501961 0.517647 1 0.501961 0.517647 
1 0.501961 0.517647 1 0.501961 0.517647 
1 0.501961 0.517647 1 0.501961 0.517647 
1 0.501961 0.517647 1 0.501961 0.517647 
1 0.501961 0.517647 1 0.501961 0.517647 
1 0.501961 0.517647 1 0.501961 0.517647 
1 0.501961 0.517647 1 0.501961 0.517647 
1 0.501961 0.517647 1 0.501961 0.517647 
1 0.501961 0.517647 1 0.501961 0.517647 
1 0.501961 0.517647 1 0.501961 0.517647 
1 0.501961 0.517647 1 0.501961 0.517647 
1 0.501961 0.517647 1 0.501961 0.517647 
1 0.501961 0.517647 1 0.501961 0.517647 
1 0.501961 0.517647 1 0.501961 0.517647 
1 0.501961 0.517647 1 0.501961 0.517647 
1 0.501961 0.517647 1 0.501961 0.517647 
1 0.501961 0.517647 1 0.501961 0.517647 
1 0.501961 0.517647 1 0.501961 0.517647 
1 0.501961 0.517647 1 0.501961 0.517647 
1 0.501961 0.517647 1 0.501961 0.517647 
1 0.501961 0.517647 1 0.501961 0.517647 
1 0.501961 0.517647 1 0.501961 0.517647 
1 0.501961 0.517647 1 0.501961 0.517647 
1 0.501961 0.517647 1 0.501961 0.517647 
1 0.501961 0.517647 1 0.501961 0.517647 
1 0.501961 0.517647 1 0.501961 0.517647 
1 0.501961 0.517647 1 0.501961 0.517647 
1 0.501961 0.517647 1 0.501961 0.517647 
1 0.501961 0.517647 1 0.501961 0.517647 
1 0.501961 0.517647 1 0.501961 0.517647 
1 0.501961 0.517647 1 0.501961 0.517647 
1 0.501961 0.517647 1 0.501961 0.517647 
1 0.501961 0.517647 1 0.501961 0.517647 
1 0.501961 0.517647 1 0.501961 0.517647 
1 0.501961 0.517647 1 0.501961 0.517647 
1 0.501961 0.517647 1 0.501961 0.517647 
1 0.501961 0.517647 1 0.501961 0.517647 
1 0.501961 0.517647 1 0.501961 0.517647 
1 0.501961 0.517647 1 0.501961 0.517647 
1 0.501961 0.517647 1 0.501961 0.517647 
1 0.501961 0.517647 1 0.501961 0.517647 
1 0.501961 0.517647 1 0.501961 0.517647 
1 0.501961 0.517647 1 0.501961 0.517647 
1 0.501961 0.517647 1 0.501961 0.517647 
1 0.501961 0.517647 1 0.501961 0.517647 
1 0.501961 0.517647 1 0.501961 0.517647 
1 0.501961 0.517647 1 0.501961 0.517647 
1 0.501961 0.517647 1 0.501961 0.517647 
1 0.501961 0.517647 1 0.501961 0.517647 
1 0.501961 0.517647 1 0.501961 0.517647 
1 0.501961 0.517647 1 0.501961 0.517647 
1 0.501961 0.517647 1 0.501961 0.517647 
1 0.501961 0.517647 1 0.501961 0.517647 
1 0.501961 0.517647 1 0.501961 0.517647 
1 0.501961 0.517647 1 0.501961 0.517647 
1 0.501961 0.517647 1 0.501961 0.517647 
1 0.501961 0.517647 1 0.501961 0.517647 
1 0.501961 0.517647 1 0.501961 0.517647 
1 0.501961 0.517647 1 0.501961 0.517647 
1 0.501961 0.517647 1 0.501961 0.517647 
1 0.501961 0.517647 1 0.501961 0.517647 
1 0.501961 0.517647 1 0.501961 0.517647 
1 0.501961 0.517647 1 0.501961 0.517647 
1 0.501961 0.517647 1 0.501961 0.517647 
1 0.501961 0.517647 1 0.501961 0.517647 
1 0.501961 0.517647 1 0.501961 0.517647 
1 0.501961 0.517647 1 0.501961 0.517647 
1 0.501961 0.517647 1 0.501961 0.517647 
1 0.501961 0.517647 1 0.501961 0.517647 
1 0.501961 0.517647 1 0.501961 0.517647 
1 0.501961 0.517647 1 0.501961 0.517647 
1 0.501961 0.517647 1 0.501961 0.517647 
1 0.501961 0.517647 1 0.501961 0.517647 
1 0.501961 0.517647 1 0.501961 0.517647 
1 0.501961 0.517647 1 0.501961 0.517647 
1 0.501961 0.517647 1 0.501961 0.517647 
1 0.501961 0.517647 1 0.501961 0.517647 
1 0.501961 0.517647 1 0.501961 0.517647 
1 0.501961 0.517647 1 0.501961 0.517647 
1 0.501961 0.517647 1 0.501961 0.517647 
1 0.501961 0.517647 1 0.501961 0.517647 
1 0.501961 0.517647 1 0.501961 0.517647 
1 0.501961 0.517647 1 0.501961 0.517647 
1 0.501961 0.517647 1 0.501961 0.517647 
1 0.501961 0.517647 1 0.501961 0.517647 
1 0.501961 0.517647 1 0.501961 0.517647 
1 0.501961 0.517647 1 0.501961 0.517647 
1 0.501961 0.517647 1 0.501961 0.517647 
1 0.501961 0.517647 1 0.501961 0.517647 
1 0.501961 0.517647 1 0.501961 0.517647 
1 0.501961 0.517647 1 0.501961 0.517647 
1 0.501961 0.517647 1 0.501961 0.517647 
1 0.501961 0.517647 1 0.501961 0.517647 
1 0.501961 0.517647 1 0.501961 0.517647 
1 0.501961 0.517647 1 0.501961 0.517647 
1 0.501961 0.517647 1 0.501961 0.517647 
1 0.501961 0.517647 1 0.501961 0.517647 
1 0.501961 0.517647 1 0.501961 0.517647 
1 0.501961 0.517647 1 0.501961 0.517647 
1 0.501961 0.517647 1 0.501961 0.517647 
1 0.501961 0.517647 1 0.501961 0.517647 
1 0.501961 0.517647 1 0.501961 0.517647 
1 0.501961 0.517647 1 0.501961 0.517647 
1 0.501961 0.517647 1 0.501961 0.517647 
1 0.501961 0.517647 1 0.501961 0.517647 
1 0.501961 0.517647 1 0.501961 0.517647 
1 0.501961 0.517647 1 0.501961 0.517647 
1 0.501961 0.517647 1 0.501961 0.517647 
1 0.501961 0.517647 1 0.501961 0.517647 
1 0.501961 0.517647 1 0.501961 0.517647 
1 0.501961 0.517647 1 0.501961 0.517647 
1 0.501961 0.517647 1 0.501961 0.517647 
1 0.501961 0.517647 1 0.501961 0.517647 
1 0.501961 0.517647 1 0.501961 0.517647 
1 0.501961 0.517647 1 0.501961 0.517647 
1 0.501961 0.517647 1 0.501961 0.517647 
1 0.501961 0.517647 1 0.501961 0.517647 
1 0.501961 0.517647 1 0.501961 0.517647 
1 0.501961 0.517647 1 0.501961 0.517647 
1 0.501961 0.517647 1 0.501961 0.517647 
1 0.501961 0.517647 1 0.501961 0.517647 
1 0.501961 0.517647 1 0.501961 0.517647 
1 0.501961 0.517647 1 0.501961 0.517647 
1 0.501961 0.517647 1 0.501961 0.517647 
1 0.501961 0.517647 1 0.501961 0.517647 
1 0.501961 0.517647 1 0.501961 0.517647 
1 0.501961 0.517647 1 0.501961 0.517647 
1 0.501961 0.517647 1 0.501961 0.517647 
1 0.501961 0.517647 1 0.501961 0.517647 
1 0.501961 0.517647 1 0.501961 0.517647 
1 0.501961 0.517647 1 0.501961 0.517647 
1 0.501961 0.517647 1 0.501961 0.517647 
1 0.501961 0.517647 1 0.501961 0.517647 
1 0.501961 0.517647 1 0.501961 0.517647 
1 0.501961 0.517647 1 0.501961 0.517647 
1 0.501961 0.517647 1 0.501961 0.517647 
1 0.501961 0.517647 1 0.501961 0.517647 
1 0.501961 0.517647 1 0.501961 0.517647 
1 0.501961 0.517647 1 0.501961 0.517647 
1 0.501961 0.517647 1 0.501961 0.517647 
1 0.501961 0.517647 1 0.501961 0.517647 
1 0.501961 0.517647 1 0.501961 0.517647 
1 0.501961 0.517647 1 0.501961 0.517647 
1 0.501961 0.517647 1 0.501961 0.517647 
1 0.501961 0.517647 1 0.501961 0.517647 
1 0.501961 0.517647 1 0.501961 0.517647 
1 0.501961 0.517647 1 0.501961 0.517647 
1 0.501961 0.517647 1 0.501961 0.517647 
1 0.501961 0.517647 1 0.501961 0.517647 
1 0.501961 0.517647 1 0.501961 0.517647 
1 0.501961 0.517647 1 0.501961 0.517647 
1 0.501961 0.517647 1 0.501961 0.517647 
1 0.501961 0.517647 1 0.501961 0.517647 
1 0.501961 0.517647 1 0.501961 0.517647 
1 0.501961 0.517647 1 0.501961 0.517647 
1 0.501961 0.517647 1 0.501961 0.517647 
1 0.501961 0.517647 1 0.501961 0.517647 
1 0.501961 0.517647 1 0.501961 0.517647 
1 0.501961 0.517647 1 0.501961 0.517647 
1 0.501961 0.517647 1 0.501961 0.517647 
1 0.501961 0.517647 1 0.501961 0.517647 
1 0.501961 0.517647 1 0.501961 0.517647 
1 0.501961 0.517647 1 0.501961 0.517647 
1 0.501961 0.517647 1 0.501961 0.517647 
1 0.501961 0.517647 1 0.501961 0.517647 
1 0.501961 0.517647 1 0.501961 0.517647 
1 0.501961 0.517647 1 0.501961 0.517647 
1 0.501961 0.517647 1 0.501961 0.517647 
1 0.501961 0.517647 1 0.501961 0.517647 
1 0.501961 0.517647 1 0.501961 0.517647 
1 0.501961 0.517647 1 0.501961 0.517647 
1 0.501961 0.517647 1 0.501961 0.517647 
1 0.501961 0.517647 1 0.501961 0.517647 
1 0.501961 0.517647 1 0.501961 0.517647 
1 0.501961 0.517647 1 0.501961 0.517647 
1 0.501961 0.517647 1 0.501961 0.517647 
1 0.501961 0.517647 1 0.501961 0.517647 
1 0.501961 0.517647 1 0.501961 0.517647 
1 0.501961 0.517647 1 0.501961 0.517647 
1 0.501961 0.517647 1 0.501961 0.517647 
1 0.501961 0.517647 1 0.501961 0.517647 
1 0.501961 0.517647 1 0.501961 0.517647 
1 0.501961 0.517647 1 0.501961 0.517647 
1 0.501961 0.517647 1 0.501961 0.517647 
1 0.501961 0.517647 1 0.501961 0.517647 
1 0.501961 0.517647 1 0.501961 0.517647 
1 0.501961 0.517647 1 0.501961 0.517647 
1 0.501961 0.517647 1 0.501961 0.517647 
1 0.501961 0.517647 1 0.501961 0.517647 
1 0.501961 0.517647 1 0.501961 0.517647 
1 0.501961 0.517647 1 0.501961 0.517647 
1 0.501961 0.517647 1 0.501961 0.517647 
1 0.501961 0.517647 1 0.501961 0.517647 
1 0.501961 0.517647 1 0.501961 0.517647 
1 0.501961 0.517647 1 0.501961 0.517647 
1 0.501961 0.517647 1 0.501961 0.517647 
1 0.501961 0.517647 1 0.501961 0.517647 
1 0.501961 0.517647 1 0.501961 0.517647 
1 0.501961 0.517647 1 0.501961 0.517647 
1 0.501961 0.517647 1 0.501961 0.517647 
1 0.501961 0.517647 1 0.501961 0.517647 
1 0.501961 0.517647 1 0.501961 0.517647 
1 0.501961 0.517647 1 0.501961 0.517647 
1 0.501961 0.517647 1 0.501961 0.517647 
1 0.501961 0.517647 1 0.501961 0.517647 
1 0.501961 0.517647 1 0.501961 0.517647 
1 0.501961 0.517647 1 0.501961 0.517647 
1 0.501961 0.517647 1 0.501961 0.517647 
1 0.501961 0.517647 1 0.501961 0.517647 
1 0.501961 0.517647 1 0.501961 0.517647 
1 0.501961 0.517647 1 0.501961 0.517647 
1 0.501961 0.517647 1 0.501961 0.517647 
1 0.501961 0.517647 1 0.501961 0.517647 
1 0.501961 0.517647 1 0.501961 0.517647 
1 0.501961 0.517647 1 0.501961 0.517647 
1 0.501961 0.517647 1 0.501961 0.517647 
1 0.501961 0.517647 1 0.501961 0.517647 
1 0.501961 0.517647 1 0.501961 0.517647 
1 0.501961 0.517647 1 0.501961 0.517647 
1 0.501961 0.517647 1 0.501961 0.517647 
1 0.501961 0.517647 1 0.501961 0.517647 
1 0.501961 0.517647 1 0.501961 0.517647 
1 0.501961 0.517647 1 0.501961 0.517647 
1 0.501961 0.517647 1 0.501961 0.517647 
1 0.501961 0.517647 1 0.501961 0.517647 
1 0.501961 0.517647 1 0.501961 0.517647 
1 0.501961 0.517647 1 0.501961 0.517647 
1 0.501961 0.517647 1 0.501961 0.517647 
1 0.501961 0.517647 1 0.501961 0.517647 
1 0.501961 0.517647 1 0.501961 0.517647 
1 0.501961 0.517647 1 0.501961 0.517647 
1 0.501961 0.517647 1 0.501961 0.517647 
1 0.501961 0.517647 1 0.501961 0.517647 
1 0.501961 0.517647 1 0.501961 0.517647 
1 0.501961 0.517647 1 0.501961 0.517647 
1 0.501961 0.517647 1 0.501961 0.517647 
1 0.501961 0.517647 1 0.501961 0.517647 
1 0.501961 0.517647 1 0.501961 0.517647 
1 0.501961 0.517647 1 0.501961 0.517647 
1 0.501961 0.517647 1 0.501961 0.517647 
1 0.501961 0.517647 1 0.501961 0.517647 
1 0.501961 0.517647 1 0.501961 0.517647 
1 0.501961 0.517647 1 0.501961 0.517647 
1 0.501961 0.517647 1 0.501961 0.517647 
1 0.501961 0.517647 1 0.501961 0.517647 
1 0.501961 0.517647 1 0.501961 0.517647 
1 0.501961 0.517647 1 0.501961 0.517647 
1 0.501961 0.517647 1 0.501961 0.517647 
1 0.501961 0.517647 1 0.501961 0.517647 
1 0.501961 0.517647 1 0.501961 0.517647 
1 0.501961 0.517647 1 0.501961 0.517647 
1 0.501961 0.517647 1 0.501961 0.517647 
1 0.501961 0.517647 1 0.501961 0.517647 
1 0.501961 0.517647 1 0.501961 0.517647 
1 0.501961 0.517647 1 0.501961 0.517647 
1 0.501961 0.517647 1 0.501961 0.517647 
1 0.501961 0.517647 1 0.501961 0.517647 
1 0.501961 0.517647 1 0.501961 0.517647 
1 0.501961 0.517647 1 0.501961 0.517647 
1 0.501961 0.517647 1 0.501961 0.517647 
1 0.501961 0.517647 1 0.501961 0.517647 
1 0.501961 0.517647 1 0.501961 0.517647 
1 0.501961 0.517647 1 0.501961 0.517647 
1 0.501961 0.517647 1 0.501961 0.517647 
1 0.501961 0.517647 1 0.501961 0.517647 
1 0.501961 0.517647 1 0.501961 0.517647 
1 0.501961 0.517647 1 0.501961 0.517647 
1 0.501961 0.517647 1 0.501961 0.517647 
1 0.501961 0.517647 1 0.501961 0.517647 
1 0.501961 0.517647 1 0.501961 0.517647 
1 0.501961 0.517647 1 0.501961 0.517647 
1 0.501961 0.517647 1 0.501961 0.517647 
1 0.501961 0.517647 1 0.501961 0.517647 
1 0.501961 0.517647 1 0.501961 0.517647 
1 0.501961 0.517647 1 0.501961 0.517647 
1 0.501961 0.517647 1 0.501961 0.517647 
1 0.501961 0.517647 1 0.501961 0.517647 
1 0.501961 0.517647 1 0.501961 0.517647 
1 0.501961 0.517647 1 0.501961 0.517647 
1 0.501961 0.517647 1 0.501961 0.517647 
1 0.501961 0.517647 1 0.501961 0.517647 
1 0.501961 0.517647 1 0.501961 0.517647 
1 0.501961 0.517647 1 0.501961 0.517647 
1 0.501961 0.517647 1 0.501961 0.517647 
1 0.501961 0.517647 1 0.501961 0.517647 
1 0.501961 0.517647 1 0.501961 0.517647 
1 0.501961 0.517647 1 0.501961 0.517647 
1 0.501961 0.517647 1 0.501961 0.517647 
1 0.501961 0.517647 1 0.501961 0.517647 
1 0.501961 0.517647 1 0.501961 0.517647 
1 0.501961 0.517647 1 0.501961 0.517647 
1 0.501961 0.517647 1 0.501961 0.517647 
1 0.501961 0.517647 1 0.501961 0.517647 
1 0.501961 0.517647 1 0.501961 0.517647 
1 0.501961 0.517647 1 0.501961 0.517647 
1 0.501961 0.517647 1 0.501961 0.517647 
1 0.501961 0.517647 1 0.501961 0.517647 
1 0.501961 0.517647 1 0.501961 0.517647 
1 0.501961 0.517647 1 0.501961 0.517647 
1 0.501961 0.517647 1 0.501961 0.517647 
1 0.501961 0.517647 1 0.501961 0.517647 
1 0.501961 0.517647 1 0.501961 0.517647 
1 0.501961 0.517647 1 0.501961 0.517647 
1 0.501961 0.517647 1 0.501961 0.517647 
1 0.501961 0.517647 1 0.501961 0.517647 
1 0.501961 0.517647 1 0.501961 0.517647 
1 0.501961 0.517647 1 0.501961 0.517647 
1 0.501961 0.517647 1 0.501961 0.517647 
1 0.501961 0.517647 1 0.501961 0.517647 
1 0.501961 0.517647 1 0.501961 0.517647 
1 0.501961 0.517647 1 0.501961 0.517647 
1 0.501961 0.517647 1 0.501961 0.517647 
1 0.501961 0.517647 1 0.501961 0.517647 
1 0.501961 0.517647 1 0.501961 0.517647 
1 0.501961 0.517647 1 0.501961 0.517647 
1 0.501961 0.517647 1 0.501961 0.517647 
1 0.501961 0.517647 1 0.501961 0.517647 
1 0.501961 0.517647 1 0.501961 0.517647 
1 0.501961 0.517647 1 0.501961 0.517647 
1 0.501961 0.517647 1 0.501961 0.517647 
1 0.501961 0.517647 1 0.501961 0.517647 
1 0.501961 0.517647 1 0.501961 0.517647 
1 0.501961 0.517647 1 0.501961 0.517647 
1 0.501961 0.517647 1 0.501961 0.517647 
1 0.501961 0.517647 1 0.501961 0.517647 
1 0.501961 0.517647 1 0.501961 0.517647 
1 0.501961 0.517647 1 0.501961 0.517647 
1 0.501961 0.517647 1 0.501961 0.517647 
1 0.501961 0.517647 1 0.501961 0.517647 
1 0.501961 0.517647 1 0.501961 0.517647 
1 0.501961 0.517647 1 0.501961 0.517647 
1 0.501961 0.517647 1 0.501961 0.517647 
1 0.501961 0.517647 1 0.501961 0.517647 
1 0.501961 0.517647 1 0.501961 0.517647 
1 0.501961 0.517647 1 0.501961 0.517647 
1 0.501961 0.517647 1 0.501961 0.517647 
1 0.501961 0.517647 1 0.501961 0.517647 
1 0.501961 0.517647 1 0.501961 0.517647 
1 0.501961 0.517647 1 0.501961 0.517647 
1 0.501961 0.517647 1 0.501961 0.517647 
1 0.501961 0.517647 1 0.501961 0.517647 
1 0.501961 0.517647 1 0.501961 0.517647 
1 0.501961 0.517647 1 0.501961 0.517647 
1 0.501961 0.517647 1 0.501961 0.517647 
1 0.501961 0.517647 1 0.501961 0.517647 
1 0.501961 0.517647 1 0.501961 0.517647 
1 0.501961 0.517647 1 0.501961 0.517647 
1 0.501961 0.517647 1 0.501961 0.517647 
1 0.501961 0.517647 1 0.501961 0.517647 
1 0.501961 0.517647 1 0.501961 0.517647 
1 0.501961 0.517647 1 0.501961 0.517647 
1 0.501961 0.517647 1 0.501961 0.517647 
1 0.501961 0.517647 1 0.501961 0.517647 
1 0.501961 0.517647 1 0.501961 0.517647 
1 0.501961 0.517647 1 0.501961 0.517647 
1 0.501961 0.517647 1 0.501961 0.517647 
1 0.501961 0.517647 1 0.501961 0.517647 
1 0.501961 0.517647 1 0.501961 0.517647 
1 0.501961 0.517647 1 0.501961 0.517647 
1 0.501961 0.517647 1 0.501961 0.517647 
1 0.501961 0.517647 1 0.501961 0.517647 
1 0.501961 0.517647 1 0.501961 0.517647 
1 0.501961 0.517647 1 0.501961 0.517647 
1 0.501961 0.517647 1 0.501961 0.517647 
1 0.501961 0.517647 1 0.501961 0.517647 
1 0.501961 0.517647 1 0.501961 0.517647 
1 0.501961 0.517647 1 0.501961 0.517647 
1 0.501961 0.517647 1 0.501961 0.517647 
1 0.501961 0.517647 1 0.501961 0.517647 
1 0.501961 0.517647 1 0.501961 0.517647 
1 0.501961 0.517647 1 0.501961 0.517647 
1 0.501961 0.517647 1 0.501961 0.517647 
1 0.501961 0.517647 1 0.501961 0.517647 
1 0.501961 0.517647 1 0.501961 0.517647 
1 0.501961 0.517647 1 0.501961 0.517647 
1 0.501961 0.517647 1 0.501961 0.517647 
1 0.501961 0.517647 1 0.501961 0.517647 
1 0.501961 0.517647 1 0.501961 0.517647 
1 0.501961 0.517647 1 0.501961 0.517647 
1 0.501961 0.517647 1 0.501961 0.517647 
1 0.501961 0.517647 1 0.501961 0.517647 
1 0.501961 0.517647 1 0.501961 0.517647 
1 0.501961 0.517647 1 0.501961 0.517647 
1 0.501961 0.517647 1 0.501961 0.517647 
1 0.501961 0.517647 1 0.501961 0.517647 
1 0.501961 0.517647 1 0.501961 0.517647 
1 0.501961 0.517647 1 0.501961 0.517647 
1 0.501961 0.517647 1 0.501961 0.517647 
1 0.501961 0.517647 1 0.501961 0.517647 
1 0.501961 0.517647 1 0.501961 0.517647 
1 0.501961 0.517647 1 0.501961 0.517647 
1 0.501961 0.517647 1 0.501961 0.517647 
1 0.501961 0.517647 1 0.501961 0.517647 
1 0.501961 0.517647 1 0.501961 0.517647 
1 0.501961 0.517647 1 0.501961 0.517647 
1 0.501961 0.517647 1 0.501961 0.517647 
1 0.501961 0.517647 1 0.501961 0.517647 
1 0.501961 0.517647 1 0.501961 0.517647 
1 0.501961 0.517647 1 0.501961 0.517647 
1 0.501961 0.517647 1 0.501961 0.517647 
1 0.501961 0.517647 1 0.501961 0.517647 
1 0.501961 0.517647 1 0.501961 0.517647 
1 0.501961 0.517647 1 0.501961 0.517647 
1 0.501961 0.517647 1 0.501961 0.517647 
1 0.501961 0.517647 1 0.501961 0.517647 
1 0.501961 0.517647 1 0.501961 0.517647 
1 0.501961 0.517647 1 0.501961 0.517647 
1 0.501961 0.517647 1 0.501961 0.517647 
1 0.501961 0.517647 1 0.501961 0.517647 
1 0.501961 0.517647 1 0.501961 0.517647 
1 0.501961 0.517647 1 0.501961 0.517647 
1 0.501961 0.517647 1 0.501961 0.517647 
1 0.501961 0.517647 1 0.501961 0.517647 
1 0.501961 0.517647 1 0.501961 0.517647 
1 0.501961 0.517647 1 0.501961 0.517647 
1 0.501961 0.517647 1 0.501961 0.517647 
1 0.501961 0.517647 1 0.501961 0.517647 
1 0.501961 0.517647 1 0.501961 0.517647 
1 0.501961 0.517647 1 0.501961 0.517647 
1 0.501961 0.517647 1 0.501961 0.517647 
1 0.501961 0.517647 1 0.501961 0.517647 
1 0.501961 0.517647 1 0.501961 0.517647 
1 0.501961 0.517647 1 0.501961 0.517647 
1 0.501961 0.517647 1 0.501961 0.517647 
1 0.501961 0.517647 1 0.501961 0.517647 
1 0.501961 0.517647 1 0.501961 0.517647 
1 0.501961 0.517647 1 0.501961 0.517647 
1 0.501961 0.517647 1 0.501961 0.517647 
1 0.501961 0.517647 1 0.501961 0.517647 
1 0.501961 0.517647 1 0.501961 0.517647 
1 0.501961 0.517647 1 0.501961 0.517647 
1 0.501961 0.517647 1 0.501961 0.517647 
1 0.501961 0.517647 1 0.501961 0.517647 
1 0.501961 0.517647 1 0.501961 0.517647 
1 0.501961 0.517647 1 0.501961 0.517647 
1 0.501961 0.517647 1 0.501961 0.517647 
1 0.501961 0.517647 1 0.501961 0.517647 
1 0.501961 0.517647 1 0.501961 0.517647 
1 0.501961 0.517647 1 0.501961 0.517647 
1 0.501961 0.517647 1 0.501961 0.517647 
1 0.501961 0.517647 1 0.501961 0.517647 
1 0.501961 0.517647 1 0.501961 0.517647 
1 0.501961 0.517647 1 0.501961 0.517647 
1 0.501961 0.517647 1 0.501961 0.517647 
1 0.501961 0.517647 1 0.501961 0.517647 
1 0.501961 0.517647 1 0.501961 0.517647 
1 0.501961 0.517647 1 0.501961 0.517647 
1 0.501961 0.517647 1 0.501961 0.517647 
1 0.501961 0.517647 1 0.501961 0.517647 
1 0.501961 0.517647 1 0.501961 0.517647 
1 0.501961 0.517647 1 0.501961 0.517647 
1 0.501961 0.517647 1 0.501961 0.517647 
1 0.501961 0.517647 1 0.501961 0.517647 
1 0.501961 0.517647 1 0.501961 0.517647 
1 0.501961 0.517647 1 0.501961 0.517647 
1 0.501961 0.517647 1 0.501961 0.517647 
1 0.501961 0.517647 1 0.501961 0.517647 
1 0.501961 0.517647 1 0.501961 0.517647 
1 0.501961 0.517647 1 0.501961 0.517647 
1 0.501961 0.517647 1 0.501961 0.517647 
1 0.501961 0.517647 1 0.501961 0.517647 
1 0.501961 0.517647 1 0.501961 0.517647 
1 0.501961 0.517647 1 0.501961 0.517647 
1 0.501961 0.517647 1 0.501961 0.517647 
1 0.501961 0.517647 1 0.501961 0.517647 
1 0.501961 0.517647 1 0.501961 0.517647 
1 0.501961 0.517647 1 0.501961 0.517647 
1 0.501961 0.517647 1 0.501961 0.517647 
1 0.501961 0.517647 1 0.501961 0.517647 
1 0.501961 0.517647 1 0.501961 0.517647 
1 0.501961 0.517647 1 0.501961 0.517647 
1 0.501961 0.517647 1 0.501961 0.517647 
1 0.501961 0.517647 1 0.501961 0.517647 
1 0.501961 0.517647 1 0.501961 0.517647 
1 0.501961 0.517647 1 0.501961 0.517647 
1 0.501961 0.517647 1 0.501961 0.517647 
1 0.501961 0.517647 1 0.501961 0.517647 
1 0.501961 0.517647 1 0.501961 0.517647 
1 0.501961 0.517647 1 0.501961 0.517647 
1 0.501961 0.517647 1 0.501961 0.517647 
1 0.501961 0.517647 1 0.501961 0.517647 
1 0.501961 0.517647 1 0.501961 0.517647 
1 0.501961 0.517647 1 0.501961 0.517647 