# vtk DataFile Version 4.2
vtk output
ASCII
DATASET POLYDATA
POINTS 921 float
297.741 161.172 138.692 297.588 161.062 138.726 297.498 161.314 138.71 
296.934 161.914 138.752 296.854 161.971 138.849 303.973 154.475 139.567 
303.823 154.226 139.689 303.67 154.582 139.498 303.051 155.26 139.28 
297.938 159.834 139.237 298.824 159.057 139.251 301.027 160.156 139.346 
296.937 161.555 138.887 296.65 161.873 139.052 297.266 161.701 138.793 
296.838 162.24 139.061 304.531 153.589 140.223 304.542 153.157 140.554 
303.863 153.748 140.112 302.481 154.888 139.607 304.781 156.01 139.835 
299.208 157.908 139.53 301.647 160.053 139.485 296.506 160.868 139.439 
302.138 160.696 140.059 296.079 161.84 139.5 295.619 162.697 139.812 
294.646 162.978 140.294 305.402 152.389 141.459 305.161 152.487 141.29 
305.663 152.484 141.495 305.466 153.247 140.838 305.573 153.864 140.652 
302.701 154.25 140.033 294.609 162.633 140.361 294.468 162.477 140.53 
293.783 164.155 140.81 292.612 166.149 141.488 303.984 152.775 141.245 
306.387 153.635 141.554 303.135 161.124 141.037 293.406 162.473 141.628 
292.215 164.731 141.643 291.282 165.541 141.855 305.775 151.78 142.704 
306.51 152.56 142.225 293.14 161.762 142.57 289.42 166.168 142.427 
286.881 168.432 142.92 307.021 151.567 143.546 307.15 151.656 143.646 
303.707 151.739 143.249 296.761 156.815 143.202 292.939 161.508 143.175 
284.915 168.286 143.814 286.335 169.545 143.271 307.08 151.526 143.751 
304.721 151.27 143.85 307.904 153.079 144.51 285.263 167.186 144.124 
283.178 170.854 144.116 280.49 171.1 144.76 306.978 151.457 143.967 
307.016 151.435 144.486 308.083 157.182 145.712 283.987 172.042 144.422 
281.236 172.465 144.938 284.165 173.209 145.086 306.43 150.849 145.685 
307.755 151.914 145.659 299.315 151.898 145.852 307.168 160.353 146.173 
284.948 165.636 145.438 303.594 165.216 145.526 274.662 169.861 146.604 
276.162 169.381 146.166 273.837 170.541 146.768 273.904 171.779 146.599 
299.88 150.742 146.965 304.657 150.15 146.59 288.26 162.835 146.532 
305.18 164.69 147.033 278.089 166.958 146.619 272.518 170.362 147.608 
270.906 171.757 148.206 271.906 173.236 147.59 298.195 150.114 148.776 
308.761 152.896 148.389 308.893 156.205 148.655 290.354 160.956 147.8 
277.87 164.873 148.23 275.639 166.563 148.038 272.138 169.547 148.469 
269.293 173.226 148.989 268.985 173.063 149.273 269.364 174.183 148.943 
271.732 174.573 148.032 288.168 175.785 147.839 299.625 148.869 149.271 
307.525 149.658 149.17 307.333 149.718 148.813 307.773 149.868 149.39 
297.373 150.63 149.092 306.869 149.541 148.669 307.752 150.521 148.3 
292.561 159.351 148.377 278.852 163.565 149.346 306.004 164.692 148.478 
275.164 165.998 149.172 271.451 169.368 149.563 269.826 171.235 149.698 
268.027 174.189 149.929 300.086 147.967 150.342 306.9 148.785 150.059 
306.658 148.79 149.76 298.748 148.687 150.052 296.71 151.057 149.813 
308.708 152.362 149.843 293.732 157.822 149.778 272.156 168.29 150.086 
267.88 173.653 150.338 267.276 174.679 150.714 267.263 175.467 150.664 
302.619 147.52 150.582 306.499 148.272 150.947 306.876 148.543 151.026 
307.554 149.277 150.352 307.686 149.484 150.457 295.324 153.806 150.998 
308.882 156.407 151.194 307.754 162.313 150.911 274.025 166.254 150.634 
267.651 173.461 150.957 267.022 174.441 151.247 266.088 176.036 152.009 
299.542 147.476 152.119 304.556 147.56 151.577 305.046 147.716 151.637 
299.174 147.819 151.553 305.616 147.896 151.396 306.611 148.289 151.212 
306.501 148.262 151.413 298.282 148.314 152.075 306.994 148.787 151.304 
303.081 171.168 152.052 265.886 175.79 152.408 265.563 176.254 153.017 
265.564 176.867 152.865 265.897 177.348 152.433 266.357 178.328 152.497 
300.974 146.996 152.678 300.68 147.034 152.564 301.453 146.986 152.44 
301.253 146.969 152.618 302.701 147.412 152.726 298.532 148.112 152.393 
304.736 147.932 152.393 305.434 148.004 151.918 297.626 149.079 152.373 
305.002 148.285 152.705 305.367 148.628 152.798 296.423 150.996 153 
296.075 151.622 152.366 307.837 151.236 151.895 308.331 153.699 152.26 
308.611 157.451 152.302 293.224 157.799 152.6 278.505 162.344 152.547 
299.93 173.588 152.769 298.427 174.514 152.972 265.331 176.443 153.718 
294.853 176.748 153.136 282.318 184.469 152.791 301.294 147.11 152.835 
301.299 147.414 153.18 298.667 148.383 153.459 303.937 148.02 152.975 
304.796 149.18 153.504 306.549 151.299 153.564 293.788 156.854 153.962 
297.317 175.256 153.155 265.191 176.758 154.338 297.336 175.585 153.571 
265.097 177.205 154.217 265.343 177.976 153.555 265.976 179.725 153.77 
286.884 184.083 153.729 285.534 185.405 154.138 307.075 154.278 154.177 
292.819 157.729 153.917 265.073 177.684 154.278 265.567 180.865 155.08 
265.858 181.688 155.395 266.505 182.583 155.488 304.225 153.665 156.04 
305.542 153.738 155.292 286.5 158.173 156.003 293.589 156.756 155.188 
306.981 157.957 155.742 292.203 157.822 154.507 306.174 170.435 155.989 
304.354 172.463 155.061 265.92 175.209 155.858 300.332 175.562 155.592 
282.671 187.92 155.577 278.989 188.448 156.118 297.663 151.114 155.728 
297.725 151.711 156.43 298.515 151.593 156.577 299.715 152.364 157.111 
295.478 153.663 156.422 293.75 156.244 155.951 292.16 156.982 156.923 
293.174 156.671 156.162 264.955 178.63 156.599 264.866 179.918 156.69 
265.04 180.771 156.102 297.79 152.578 157.496 295.855 153.603 157.666 
293.867 155.665 157.629 266.397 174.495 157.852 264.812 179.67 157.479 
265.975 184.735 157.872 295.903 153.694 158.056 295.791 153.813 158.18 
295.636 153.873 157.981 295.984 153.807 158.271 296.359 153.568 158.063 
301.02 155.772 158.831 303.15 175.257 158.131 264.213 183.502 159.119 
281.124 191.54 159.279 295.725 154.034 158.315 297.148 155.003 159.493 
298.027 155.664 159.844 298.511 155.943 159.912 292.249 156.611 159.17 
300.159 157.268 160.172 306.79 163.375 160.361 307.183 163.697 159.796 
307.481 167.846 159.567 305.134 173.159 159.023 266.671 173.712 160.093 
304.419 174.143 159.261 299.359 178.433 159.911 263.768 181.394 160.284 
263.508 182.992 160.09 283.579 191.958 159.987 296.538 155.156 159.594 
293.026 156.57 160.138 295.865 156.69 160.924 288.529 157.252 160.304 
306.23 162.93 160.83 306.446 163.473 161.12 266.748 173.227 160.959 
303.161 175.206 160.907 298.902 179.03 161.224 263.229 185.081 161.366 
268.267 188.351 160.741 294.324 156.951 161.104 285.709 157.472 161.337 
288.812 157.457 161.794 306.747 164.608 161.537 305.299 171.489 162.07 
300.686 177.45 161.966 262.032 183.342 162.186 261.733 182.962 162.772 
261.838 183.908 162.557 262.163 184.388 162.396 265.056 186.916 161.599 
287.326 191.634 161.858 284.08 157.888 162.369 285 157.816 163.004 
289.686 157.75 162.418 290.525 158.07 162.813 306.606 165.111 162.245 
261.412 183.383 163.192 261.097 183.544 163.809 261.245 184.019 163.792 
261.702 184.885 163.889 262.069 185.255 163.592 277.724 193.928 163.894 
284.207 158.13 163.594 282.75 158.542 163.479 289.895 158.374 163.416 
304.472 164.054 163.596 306.144 165.161 163.029 270.002 166.394 163.608 
305.148 169.776 163.958 306.601 168.433 162.851 261.651 181.898 163.658 
260.874 183.217 164.22 260.824 182.861 164.5 260.827 183.483 164.378 
267.127 189.079 163.878 283.195 158.744 164.383 281.018 159.577 164.25 
279.031 160.706 165.173 289.039 160.241 165.435 276.627 161.656 165.073 
301.827 163.693 164.499 304.409 165.1 164.515 305.977 166.167 163.861 
304.734 168.844 165.047 266.513 171.175 164.716 260.949 182.169 164.787 
260.66 183.366 165.457 295.015 183.289 164.471 261.171 184.483 165.094 
261.942 185.429 164.79 264.709 187.685 164.655 286.492 193.477 164.111 
283.412 195.047 165.76 283.065 159.748 165.675 280.737 160.113 165.357 
305.652 167.039 164.534 304.735 167.854 165.349 260.582 182.849 165.951 
264.6 187.653 166.161 268.82 190.418 165.91 271.088 191.795 166.385 
284.758 194.762 165.664 272.471 163.25 166.08 266.909 168.373 166.722 
303.884 168.409 166.026 266.193 170.105 166.666 261.037 181.567 166.475 
260.819 183.622 167.142 280.949 195.758 167.955 279.284 161.586 167.501 
280.649 162.266 168.236 266.653 167.864 168.314 303.353 167.856 166.468 
302.23 169.501 167.424 301.127 172.724 167.884 264.258 177.038 168.343 
260.811 181.968 167.285 260.656 182.304 167.001 260.628 182.87 167.239 
273.895 162.374 168.287 274.098 162.377 168.591 274.476 162.405 168.692 
271.834 163.084 168.191 272.141 162.982 168.563 266.791 167.526 168.714 
265.724 169.664 169.126 301.516 169.184 168.139 301.785 169.677 168.07 
301.661 169.577 168.239 265.257 172.522 168.655 261.151 181.753 168.058 
260.894 183.032 167.903 261.648 184.104 168.293 263.429 185.978 168.462 
264.161 186.78 168.212 269.7 190.711 168.749 280.325 195.768 169.394 
283.446 195.759 168.479 285.525 195.187 168.901 276.857 163.502 169.989 
265.557 170.468 169.714 300.861 169.839 168.946 265.43 171.224 169.848 
300.705 170.603 169.116 264.594 176.055 169.664 261.105 182.231 168.266 
261.326 183.229 168.479 264.088 186.016 169.135 264.764 186.884 168.854 
288.262 193.784 169.307 269.778 164.718 170.236 267.549 166.785 170.324 
266.348 169.072 170.919 299.487 170.637 170.11 265.079 173.727 169.658 
263.924 178.313 170.505 277.938 194.929 171.326 271.692 164.58 171.098 
265.882 169.945 170.648 266.172 170.183 171.396 265.707 171.234 170.947 
297.466 177.291 171.757 264.5 178.459 171.676 264.339 183.088 171.408 
292.185 188.472 172.553 275.708 193.77 171.911 282.155 195.852 171.109 
273.18 165.561 172.107 267.55 170.203 172.906 298.076 172.995 171.905 
265.756 181.519 172.953 270.477 188.703 172.821 290.88 190.942 173.572 
280.061 195.218 172.768 272.527 168.094 173.777 297.281 174.209 173.089 
297.462 174.587 173.185 296.923 177.234 173.157 279.779 194.851 173.983 
270.392 170.951 174.85 276.51 171.029 175.403 295.384 174.076 174.219 
296.176 174.263 173.944 297.324 174.501 173.275 296.741 174.909 173.918 
296.26 176.903 174.427 289.329 192.615 175.65 278.222 193.948 174.962 
281 194.806 174.959 294.436 175.031 175.25 293.075 175.373 175.964 
294.997 179.794 175.48 284.396 194.928 175.163 273.259 171.982 176.036 
[...]
POINT_DATA 921
COLOR_SCALARS scalars 3
1 0.501961 0.517647 1 0.501961 0.517647 1 0.501961 0.517647 
1 0.501961 0.517647 1 0.501961 0.517647 
1 0.501961 0.517647 1 0.501961 0.517647 
1 0.501961 0.517647 1 0.501961 0.517647 
1 0.501961 0.517647 1 0.501961 0.517647 
1 0.501961 0.517647 1 0.501961 0.517647 
1 0.501961 0.517647 1 0.501961 0.517647 
1 0.501961 0.517647 1 0.501961 0.517647 
1 0.501961 0.517647 1 0.501961 0.517647 
1 0.501961 0.517647 1 0.501961 0.517647 
1 0.501961 0.517647 1 0.501961 0.517647 
1 0.501961 0.517647 1 0.501961 0.517647 
1 0.501961 0.517647 1 0.501961 0.517647 
1 0.501961 0.517647 1 0.501961 0.517647 
1 0.501961 0.517647 1 0.501961 0.517647 
1 0.501961 0.517647 1 0.501961 0.517647 
1 0.501961 0.517647 1 0.501961 0.517647 
1 0.501961 0.517647 1 0.501961 0.517647 
1 0.501961 0.517647 1 0.501961 0.517647 
1 0.501961 0.517647 1 0.501961 0.517647 
1 0.501961 0.517647 1 0.501961 0.517647 
1 0.501961 0.517647 1 0.501961 0.517647 
1 0.501961 0.517647 1 0.501961 0.517647 
1 0.501961 0.517647 1 0.501961 0.517647 
1 0.501961 0.517647 1 0.501961 0.517647 
1 0.501961 0.517647 1 0.501961 0.517647 
1 0.501961 0.517647 1 0.501961 0.517647 
1 0.501961 0.517647 1 0.501961 0.517647 
1 0.501961 0.517647 1 0.501961 0.517647 
1 0.501961 0.517647 1 0.501961 0.517647 
1 0.501961 0.517647 1 0.501961 0.517647 
1 0.501961 0.517647 1 0.501961 0.517647 
1 0.501961 0.517647 1 0.501961 0.517647 
1 0.501961 0.517647 1 0.501961 0.517647 
1 0.501961 0.517647 1 0.501961 0.517647 
1 0.501961 0.517647 1 0.501961 0.517647 
1 0.501961 0.517647 1 0.501961 0.517647 
1 0.501961 0.517647 1 0.501961 0.517647 
1 0.501961 0.517647 1 0.501961 0.517647 
1 0.501961 0.517647 1 0.501961 0.517647 
1 0.501961 0.517647 1 0.501961 0.517647 
1 0.501961 0.517647 1 0.501961 0.517647 
1 0.501961 0.517647 1 0.501961 0.517647 
1 0.501961 0.517647 1 0.501961 0.517647 
1 0.501961 0.517647 1 0.501961 0.517647 
1 0.501961 0.517647 1 0.501961 0.517647 
1 0.501961 0.517647 1 0.501961 0.517647 
1 0.501961 0.517647 1 0.501961 0.517647 
1 0.501961 0.517647 1 0.501961 0.517647 
1 0.501961 0.517647 1 0.501961 0.517647 
1 0.501961 0.517647 1 0.501961 0.517647 
1 0.501961 0.517647 1 0.501961 0.517647 
1 0.501961 0.517647 1 0.501961 0.517647 
1 0.501961 0.517647 1 0.501961 0.517647 
1 0.501961 0.517647 1 0.501961 0.517647 
1 0.501961 0.517647 1 0.501961 0.517647 
1 0.501961 0.517647 1 0.501961 0.517647 
1 0.501961 0.517647 1 0.501961 0.517647 
1 0.501961 0.517647 1 0.501961 0.517647 
1 0.501961 0.517647 1 0.501961 0.517647 
1 0.501961 0.517647 1 0.501961 0.517647 
1 0.501961 0.517647 1 0.501961 0.517647 
1 0.501961 0.517647 1 0.501961 0.517647 
1 0.501961 0.517647 1 0.501961 0.517647 
1 0.501961 0.517647 1 0.501961 0.517647 
1 0.501961 0.517647 1 0.501961 0.517647 
1 0.501961 0.517647 1 0.501961 0.517647 
1 0.501961 0.517647 1 0.501961 0.517647 
1 0.501961 0.517647 1 0.501961 0.517647 
1 0.501961 0.517647 1 0.501961 0.517647 
1 0.501961 0.517647 1 0.501961 0.517647 
1 0.501961 0.517647 1 0.501961 0.517647 
1 0.501961 0.517647 1 0.501961 0.517647 
1 0.501961 0.517647 1 0.501961 0.517647 
1 0.501961 0.517647 1 0.501961 0.517647 
1 0.501961 0.517647 1 0.501961 0.517647 
1 0.501961 0.517647 1 0.501961 0.517647 
1 0.501961 0.517647 1 0.501961 0.517647 
1 0.501961 0.517647 1 0.501961 0.517647 
1 0.501961 0.517647 1 0.501961 0.517647 
1 0.501961 0.517647 1 0.501961 0.517647 
1 0.501961 0.517647 1 0.501961 0.517647 
1 0.501961 0.517647 1 0.501961 0.517647 
1 0.501961 0.517647 1 0.501961 0.517647 
1 0.501961 0.517647 1 0.501961 0.517647 
1 0.501961 0.517647 1 0.501961 0.517647 
1 0.501961 0.517647 1 0.501961 0.517647 
1 0.501961 0.517647 1 0.501961 0.517647 
1 0.501961 0.517647 1 0.501961 0.517647 
1 0.501961 0.517647 1 0.501961 0.517647 
1 0.501961 0.517647 1 0.501961 0.517647 
1 0.501961 0.517647 1 0.501961 0.517647 
1 0.501961 0.517647 1 0.501961 0.517647 
1 0.501961 0.517647 1 0.501961 0.517647 
1 0.501961 0.517647 1 0.501961 0.517647 
1 0.501961 0.517647 1 0.501961 0.517647 
1 0.501961 0.517647 1 0.501961 0.517647 
1 0.501961 0.517647 1 0.501961 0.517647 
1 0.501961 0.517647 1 0.501961 0.517647 
1 0.501961 0.517647 1 0.501961 0.517647 
1 0.501961 0.517647 1 0.501961 0.517647 
1 0.501961 0.517647 1 0.501961 0.517647 
1 0.501961 0.517647 1 0.501961 0.517647 
1 0.501961 0.517647 1 0.501961 0.517647 
1 0.501961 0.517647 1 0.501961 0.517647 
1 0.501961 0.517647 1 0.501961 0.517647 
1 0.501961 0.517647 1 0.501961 0.517647 
1 0.501961 0.517647 1 0.501961 0.517647 
1 0.501961 0.517647 1 0.501961 0.517647 
1 0.501961 0.517647 1 0.501961 0.517647 
1 0.501961 0.517647 1 0.501961 0.517647 
1 0.501961 0.517647 1 0.501961 0.517647 
1 0.501961 0.517647 1 0.501961 0.517647 
1 0.501961 0.517647 1 0.501961 0.517647 
1 0.501961 0.517647 1 0.501961 0.517647 
1 0.501961 0.517647 1 0.501961 0.517647 
1 0.501961 0.517647 1 0.501961 0.517647 
1 0.501961 0.517647 1 0.501961 0.517647 
1 0.501961 0.517647 1 0.501961 0.517647 
1 0.501961 0.517647 1 0.501961 0.517647 
1 0.501961 0.517647 1 0.501961 0.517647 
1 0.501961 0.517647 1 0.501961 0.517647 
1 0.501961 0.517647 1 0.501961 0.517647 
1 0.501961 0.517647 1 0.501961 0.517647 
1 0.501961 0.517647 1 0.501961 0.517647 
1 0.501961 0.517647 1 0.501961 0.517647 
1 0.501961 0.517647 1 0.501961 0.517647 
1 0.501961 0.517647 1 0.501961 0.517647 
1 0.501961 0.517647 1 0.501961 0.517647 
1 0.501961 0.517647 1 0.501961 0.517647 
1 0.501961 0.517647 1 0.501961 0.517647 
1 0.501961 0.517647 1 0.501961 0.517647 
1 0.501961 0.517647 1 0.501961 0.517647 
1 0.501961 0.517647 1 0.501961 0.517647 
1 0.501961 0.517647 1 0.501961 0.517647 
1 0.501961 0.517647 1 0.501961 0.517647 
1 0.501961 0.517647 1 0.501961 0.517647 
1 0.501961 0.517647 1 0.501961 0.517647 
1 0.501961 0.517647 1 0.501961 0.517647 
1 0.501961 0.517647 1 0.501961 0.517647 
1 0.501961 0.517647 1 0.501961 0.517647 
1 0.501961 0.517647 1 0.501961 0.517647 
1 0.501961 0.517647 1 0.501961 0.517647 
1 0.501961 0.517647 1 0.501961 0.517647 
1 0.501961 0.517647 1 0.501961 0.517647 
1 0.501961 0.517647 1 0.501961 0.517647 
1 0.501961 0.517647 1 0.501961 0.517647 
1 0.501961 0.517647 1 0.501961 0.517647 
1 0.501961 0.517647 1 0.501961 0.517647 
1 0.501961 0.517647 1 0.501961 0.517647 
1 0.501961 0.517647 1 0.501961 0.517647 
1 0.501961 0.517647 1 0.501961 0.517647 
1 0.501961 0.517647 1 0.501961 0.517647 
1 0.501961 0.517647 1 0.501961 0.517647 
1 0.501961 0.517647 1 0.501961 0.517647 
1 0.501961 0.517647 1 0.501961 0.517647 
1 0.501961 0.517647 1 0.501961 0.517647 
1 0.501961 0.517647 1 0.501961 0.517647 
1 0.501961 0.517647 1 0.501961 0.517647 
1 0.501961 0.517647 1 0.501961 0.517647 
1 0.501961 0.517647 1 0.501961 0.517647 
1 0.501961 0.517647 1 0.501961 0.517647 
1 0.501961 0.517647 1 0.501961 0.517647 
1 0.501961 0.517647 1 0.501961 0.517647 
1 0.501961 0.517647 1 0.501961 0.517647 
1 0.501961 0.517647 1 0.501961 0.517647 
1 0.501961 0.517647 1 0.501961 0.517647 
1 0.501961 0.517647 1 0.501961 0.517647 
1 0.501961 0.517647 1 0.501961 0.517647 
1 0.501961 0.517647 1 0.501961 0.517647 
1 0.501961 0.517647 1 0.501961 0.517647 
1 0.501961 0.517647 1 0.501961 0.517647 
1 0.501961 0.517647 1 0.501961 0.517647 
1 0.501961 0.517647 1 0.501961 0.517647 
1 0.501961 0.517647 1 0.501961 0.517647 
1 0.501961 0.517647 1 0.501961 0.517647 
1 0.501961 0.517647 1 0.501961 0.517647 
1 0.501961 0.517647 1 0.501961 0.517647 
1 0.501961 0.517647 1 0.501961 0.517647 
1 0.501961 0.517647 1 0.501961 0.517647 
1 0.501961 0.517647 1 0.501961 0.517647 
1 0.501961 0.517647 1 0.501961 0.517647 
1 0.501961 0.517647 1 0.501961 0.517647 
1 0.501961 0.517647 1 0.501961 0.517647 
1 0.501961 0.517647 1 0.501961 0.517647 
1 0.501961 0.517647 1 0.501961 0.517647 
1 0.501961 0.517647 1 0.501961 0.517647 
1 0.501961 0.517647 1 0.501961 0.517647 
1 0.501961 0.517647 1 0.501961 0.517647 
1 0.501961 0.517647 1 0.501961 0.517647 
1 0.501961 0.517647 1 0.501961 0.517647 
1 0.501961 0.517647 1 0.501961 0.517647 
1 0.501961 0.517647 1 0.501961 0.517647 
1 0.501961 0.517647 1 0.501961 0.517647 
1 0.501961 0.517647 1 0.501961 0.517647 
1 0.501961 0.517647 1 0.501961 0.517647 
1 0.501961 0.517647 1 0.501961 0.517647 
1 0.501961 0.517647 1 0.501961 0.517647 
1 0.501961 0.517647 1 0.501961 0.517647 
1 0.501961 0.517647 1 0.501961 0.517647 
1 0.501961 0.517647 1 0.501961 0.517647 
1 0.501961 0.517647 1 0.501961 0.517647 
1 0.501961 0.517647 1 0.501961 0.517647 
1 0.501961 0.517647 1 0.501961 0.517647 
1 0.501961 0.517647 1 0.501961 0.517647 
1 0.501961 0.517647 1 0.501961 0.517647 
1 0.501961 0.517647 1 0.501961 0.517647 
1 0.501961 0.517647 1 0.501961 0.517647 
1 0.501961 0.517647 1 0.501961 0.517647 
1 0.501961 0.517647 1 0.501961 0.517647 
1 0.501961 0.517647 1 0.501961 0.517647 
1 0.501961 0.517647 1 0.501961 0.517647 
1 0.501961 0.517647 1 0.501961 0.517647 
1 0.501961 0.517647 1 0.501961 0.517647 
1 0.501961 0.517647 1 0.501961 0.517647 
1 0.501961 0.517647 1 0.501961 0.517647 
1 0.501961 0.517647 1 0.501961 0.517647 
1 0.501961 0.517647 1 0.501961 0.517647 
1 0.501961 0.517647 1 0.501961 0.517647 
1 0.501961 0.517647 1 0.501961 0.517647 
1 0.501961 0.517647 1 0.501961 0.517647 
1 0.501961 0.517647 1 0.501961 0.517647 
1 0.501961 0.517647 1 0.501961 0.517647 
1 0.501961 0.517647 1 0.501961 0.517647 
1 0.501961 0.517647 1 0.501961 0.517647 
1 0.501961 0.517647 1 0.501961 0.517647 
1 0.501961 0.517647 1 0.501961 0.517647 
1 0.501961 0.517647 1 0.501961 0.517647 
1 0.501961 0.517647 1 0.501961 0.517647 
1 0.501961 0.517647 1 0.501961 0.517647 
1 0.501961 0.517647 1 0.501961 0.517647 
1 0.501961 0.517647 1 0.501961 0.517647 
1 0.501961 0.517647 1 0.501961 0.517647 
1 0.501961 0.517647 1 0.501961 0.517647 
1 0.501961 0.517647 1 0.501961 0.517647 
1 0.501961 0.517647 1 0.501961 0.517647 
1 0.501961 0.517647 1 0.501961 0.517647 
1 0.501961 0.517647 1 0.501961 0.517647 
1 0.501961 0.517647 1 0.501961 0.517647 
1 0.501961 0.517647 1 0.501961 0.517647 
1 0.501961 0.517647 1 0.501961 0.517647 
1 0.501961 0.517647 1 0.501961 0.517647 
1 0.501961 0.517647 1 0.501961 0.517647 
1 0.501961 0.517647 1 0.501961 0.517647 
1 0.501961 0.517647 1 0.501961 0.517647 
1 0.501961 0.517647 1 0.501961 0.517647 
1 0.501961 0.517647 1 0.501961 0.517647 
1 0.501961 0.517647 1 0.501961 0.517647 
1 0.501961 0.517647 1 0.501961 0.517647 
1 0.501961 0.517647 1 0.501961 0.517647 
1 0.501961 0.517647 1 0.501961 0.517647 
1 0.501961 0.517647 1 0.501961 0.517647 
1 0.501961 0.517647 1 0.501961 0.517647 
1 0.501961 0.517647 1 0.501961 0.517647 
1 0.501961 0.517647 1 0.501961 0.517647 
1 0.501961 0.517647 1 0.501961 0.517647 
1 0.501961 0.517647 1 0.501961 0.517647 
1 0.501961 0.517647 1 0.501961 0.517647 
1 0.501961 0.517647 1 0.501961 0.517647 
1 0.501961 0.517647 1 0.501961 0.517647 
1 0.501961 0.517647 1 0.501961 0.517647 
1 0.501961 0.517647 1 0.501961 0.517647 
1 0.501961 0.517647 1 0.501961 0.517647 
1 0.501961 0.517647 1 0.501961 0.517647 
1 0.501961 0.517647 1 0.501961 0.517647 
1 0.501961 0.517647 1 0.501961 0.517647 
1 0.501961 0.517647 1 0.501961 0.517647 
1 0.501961 0.517647 1 0.501961 0.517647 
1 0.501961 0.517647 1 0.501961 0.517647 
1 0.501961 0.517647 1 0.501961 0.517647 
1 0.501961 0.517647 1 0.501961 0.517647 
1 0.501961 0.517647 1 0.501961 0.517647 
1 0.501961 0.517647 1 0.501961 0.517647 
1 0.501961 0.517647 1 0.501961 0.517647 
1 0.501961 0.517647 1 0.501961 0.517647 
1 0.501961 0.517647 1 0.501961 0.517647 
1 0.501961 0.517647 1 0.501961 0.517647 
1 0.501961 0.517647 1 0.501961 0.517647 
1 0.501961 0.517647 1 0.501961 0.517647 
1 0.501961 0.517647 1 0.501961 0.517647 
1 0.501961 0.517647 1 0.501961 0.517647 
1 0.501961 0.517647 1 0.501961 0.517647 
1 0.501961 0.517647 1 0.501961 0.517647 
1 0.501961 0.517647 1 0.501961 0.517647 
1 0.501961 0.517647 1 0.501961 0.517647 
1 0.501961 0.517647 1 0.501961 0.517647 
1 0.501961 0.517647 1 0.501961 0.517647 
1 0.501961 0.517647 1 0.501961 0.517647 
1 0.501961 0.517647 1 0.501961 0.517647 
1 0.501961 0.517647 1 0.501961 0.517647 
1 0.501961 0.517647 1 0.501961 0.517647 
1 0.501961 0.517647 1 0.501961 0.517647 
1 0.501961 0.517647 1 0.501961 0.517647 
1 0.501961 0.517647 1 0.501961 0.517647 
1 0.501961 0.517647 1 0.501961 0.517647 
1 0.501961 0.517647 1 0.501961 0.517647 
1 0.501961 0.517647 1 0.501961 0.517647 
1 0.501961 0.517647 1 0.501961 0.517647 
1 0.501961 0.517647 1 0.501961 0.517647 
1 0.501961 0.517647 1 0.501961 0.517647 
1 0.501961 0.517647 1 0.501961 0.517647 
1 0.501961 0.517647 1 0.501961 0.517647 
1 0.501961 0.517647 1 0.501961 0.517647 
1 0.501961 0.517647 1 0.501961 0.517647 
1 0.501961 0.517647 1 0.501961 0.517647 
1 0.501961 0.517647 1 0.501961 0.517647 
1 0.501961 0.517647 1 0.501961 0.517647 
1 0.501961 0.517647 1 0.501961 0.517647 
1 0.501961 0.517647 1 0.501961 0.517647 
1 0.501961 0.517647 1 0.501961 0.517647 
1 0.501961 0.517647 1 0.501961 0.517647 
1 0.501961 0.517647 1 0.501961 0.517647 
1 0.501961 0.517647 1 0.501961 0.517647 
1 0.501961 0.517647 1 0.501961 0.517647 
1 0.501961 0.517647 1 0.501961 0.517647 
1 0.501961 0.517647 1 0.501961 0.517647 
1 0.501961 0.517647 1 0.501961 0.517647 
1 0.501961 0.517647 1 0.501961 0.517647 
1 0.501961 0.517647 1 0.501961 0.517647 
1 0.501961 0.517647 1 0.501961 0.517647 
1 0.501961 0.517647 1 0.501961 0.517647 
1 0.501961 0.517647 1 0.501961 0.517647 
1 0.501961 0.517647 1 0.501961 0.517647 
1 0.501961 0.517647 1 0.501961 0.517647 
1 0.501961 0.517647 1 0.501961 0.517647 
1 0.501961 0.517647 1 0.501961 0.517647 
1 0.501961 0.517647 1 0.501961 0.517647 
1 0.501961 0.517647 1 0.501961 0.517647 
1 0.501961 0.517647 1 0.501961 0.517647 
1 0.501961 0.517647 1 0.501961 0.517647 
1 0.501961 0.517647 1 0.501961 0.517647 
1 0.501961 0.517647 1 0.501961 0.517647 
1 0.501961 0.517647 1 0.501961 0.517647 
1 0.501961 0.517647 1 0.501961 0.517647 
1 0.501961 0.517647 1 0.501961 0.517647 
1 0.501961 0.517647 1 0.501961 0.517647 
1 0.501961 0.517647 1 0.501961 0.517647 
1 0.501961 0.517647 1 0.501961 0.517647 
1 0.501961 0.517647 1 0.501961 0.517647 
1 0.501961 0.517647 1 0.501961 0.517647 
1 0.501961 0.517647 1 0.501961 0.517647 
1 0.501961 0.517647 1 0.501961 0.517647 
1 0.501961 0.517647 1 0.501961 0.517647 
1 0.501961 0.517647 1 0.501961 0.517647 
1 0.501961 0.517647 1 0.501961 0.517647 
1 0.501961 0.517647 1 0.501961 0.517647 
1 0.501961 0.517647 1 0.501961 0.517647 
1 0.501961 0.517647 1 0.501961 0.517647 
1 0.501961 0.517647 1 0.501961 0.517647 
1 0.501961 0.517647 1 0.501961 0.517647 
1 0.501961 0.517647 1 0.501961 0.517647 
1 0.501961 0.517647 1 0.501961 0.517647 
1 0.501961 0.517647 1 0.501961 0.517647 
1 0.501961 0.517647 1 0.501961 0.517647 
1 0.501961 0.517647 1 0.501961 0.517647 
1 0.501961 0.517647 1 0.501961 0.517647 
1 0.501961 0.517647 1 0.501961 0.517647 
1 0.501961 0.517647 1 0.501961 0.517647 
1 0.501961 0.517647 1 0.501961 0.517647 
1 0.501961 0.517647 1 0.501961 0.517647 
1 0.501961 0.517647 1 0.501961 0.517647 
1 0.501961 0.517647 1 0.501961 0.517647 
1 0.501961 0.517647 1 0.501961 0.517647 
1 0.501961 0.517647 1 0.501961 0.517647 
1 0.501961 0.517647 1 0.501961 0.517647 
1 0.501961 0.517647 1 0.501961 0.517647 
1 0.501961 0.517647 1 0.501961 0.517647 
1 0.501961 0.517647 1 0.501961 0.517647 
1 0.501961 0.517647 1 0.501961 0.517647 
1 0.501961 0.517647 1 0.501961 0.517647 
1 0.501961 0.517647 1 0.501961 0.517647 
1 0.501961 0.517647 1 0.501961 0.517647 
1 0.501961 0.517647 1 0.501961 0.517647 
1 0.501961 0.517647 1 0.501961 0.517647 
1 0.501961 0.517647 1 0.501961 0.517647 
1 0.501961 0.517647 1 0.501961 0.517647 
1 0.501961 0.517647 1 0.501961 0.517647 
1 0.501961 0.517647 1 0.501961 0.517647 
1 0.501961 0.517647 1 0.501961 0.517647 
1 0.501961 0.517647 1 0.501961 0.517647 
1 0.501961 0.517647 1 0.501961 0.517647 
1 0.501961 0.517647 1 0.501961 0.517647 
1 0.501961 0.517647 1 0.501961 0.517647 
1 0.501961 0.517647 1 0.501961 0.517647 
1 0.501961 0.517647 1 0.501961 0.517647 
1 0.501961 0.517647 1 0.501961 0.517647 
1 0.501961 0.517647 1 0.501961 0.517647 
1 0.501961 0.517647 1 0.501961 0.517647 
1 0.501961 0.517647 1 0.501961 0.517647 
1 0.501961 0.517647 1 0.501961 0.517647 
1 0.501961 0.517647 1 0.501961 0.517647 
1 0.501961 0.517647 1 0.501961 0.517647 
1 0.501961 0.517647 1 0.501961 0.517647 
1 0.501961 0.517647 1 0.501961 0.517647 
1 0.501961 0.517647 1 0.501961 0.517647 
1 0.501961 0.517647 1 0.501961 0.517647 
1 0.501961 0.517647 1 0.501961 0.517647 
1 0.501961 0.517647 1 0.501961 0.517647 
1 0.501961 0.517647 1 0.501961 0.517647 
1 0.501961 0.517647 1 0.501961 0.517647 
1 0.501961 0.517647 1 0.501961 0.517647 
1 0.501961 0.517647 1 0.501961 0.517647 
1 0.501961 0.517647 1 0.501961 0.517647 
1 0.501961 0.517647 1 0.501961 0.517647 
1 0.501961 0.517647 1 0.501961 0.517647 
1 0.501961 0.517647 1 0.501961 0.517647 
1 0.501961 0.517647 1 0.501961 0.517647 
1 0.501961 0.517647 1 0.501961 0.517647 
1 0.501961 0.517647 1 0.501961 0.517647 
1 0.501961 0.517647 1 0.501961 0.517647 
1 0.501961 0.517647 1 0.501961 0.517647 
1 0.501961 0.517647 1 0.501961 0.517647 
1 0.501961 0.517647 1 0.501961 0.517647 
1 0.501961 0.517647 1 0.501961 0.517647 
1 0.501961 0.517647 1 0.501961 0.517647 
1 0.501961 0.517647 1 0.501961 0.517647 
1 0.501961 0.517647 1 0.501961 0.517647 
1 0.501961 0.517647 1 0.501961 0.517647 
1 0.501961 0.517647 1 0.501961 0.517647 
1 0.501961 0.517647 1 0.501961 0.517647 
1 0.501961 0.517647 1 0.501961 0.517647 
1 0.501961 0.517647 1 0.501961 0.517647 
1 0.501961 0.517647 1 0.501961 0.517647 
1 0.501961 0.517647 1 0.501961 0.517647 
1 0.501961 0.517647 1 0.501961 0.517647 
1 0.501961 0.517647 1 0.501961 0.517647 
1 0.501961 0.517647 1 0.501961 0.517647 
1 0.501961 0.517647 1 0.501961 0.517647 
1 0.501961 0.517647 1 0.501961 0.517647 
1 0.501961 0.517647 1 0.501961 0.517647 
1 0.501961 0.517647 1 0.501961 0.517647 
1 0.501961 0.517647 1 0.501961 0.517647 
1 0.501961 0.517647 1 0.501961 0.517647 
1 0.501961 0.517647 1 0.501961 0.517647 
1 0.501961 0.517647 1 0.501961 0.517647 
1 0.501961 0.517647 1 0.501961 0.517647 
1 0.501961 0.517647 1 0.501961 0.517647 
1 0.501961 0.517647 1 0.501961 0.517647 
1 0.501961 0.517647 1 0.501961 0.517647 
1 0.501961 0.517647 1 0.501961 0.517647 
1 0.501961 0.517647 1 0.501961 0.517647 
1 0.501961 0.517647 1 0.501961 0.517647 
1 0.501961 0.517647 1 0.501961 0.517647 
1 0.501961 0.517647 1 0.501961 0.517647 
1 0.501961 0.517647 1 0.501961 0.517647 
1 0.501961 0.517647 1 0.501961 0.517647 
1 0.501961 0.517647 1 0.501961 0.517647 
1 0.501961 0.517647 1 0.501961 0.517647 
1 0.501961 0.517647 1 0.501961 0.517647 
1 0.501961 0.517647 1 0.501961 0.517647 
1 0.501961 0.517647 1 0.501961 0.517647 
1 0.501961 0.517647 1 0.501961 0.517647 
1 0.501961 0.517647 1 0.501961 0.517647 
1 0.501961 0.517647 1 0.501961 0.517647 
1 0.501961 0.517647 1 0.501961 0.517647 
1 0.501961 0.517647 1 0.501961 0.517647 
1 0.501961 0.517647 1 0.501961 0.517647 
1 0.501961 0.517647 1 0.501961 0.517647 
1 0.501961 0.517647 1 0.501961 0.517647 
1 0.501961 0.517647 1 0.501961 0.517647 

NORMALS Normals float
0.0107467 -0.0518915 -0.998595 -0.405287 -0.3318 -0.851852 -0.400951 -0.183682 -0.897496 
-0.384626 0.180176 -0.905317 -0.664135 0.354945 -0.657981 0.278122 -0.340704 -0.898092 
-0.0519023 -0.594922 -0.802106 -0.183698 -0.489643 -0.852352 -0.0766663 -0.28936 -0.954145 
-0.479455 -0.493173 -0.725881 -0.451446 -0.430833 -0.781396 0.172341 0.510654 -0.842337 
-0.447185 -0.243071 -0.86078 -0.691185 0.0294542 -0.722077 0.235959 0.413676 -0.879315 
-0.295825 0.495323 -0.816788 0.23362 -0.506494 -0.829991 0.0305121 -0.684142 -0.72871 
-0.246112 -0.695939 -0.67461 -0.392502 -0.546728 -0.739615 0.499734 0.148007 -0.85344 
-0.498507 -0.465384 -0.731374 0.345289 0.322189 -0.881459 -0.609827 -0.361421 -0.705327 
0.269209 0.656323 -0.704816 -0.697342 -0.0603632 -0.714193 -0.547224 -0.0604045 -0.834804 
-0.486041 0.101909 -0.867974 0.115791 -0.868394 -0.482165 0.110244 -0.738927 -0.664705 
0.47435 -0.574943 -0.666658 0.451244 -0.46995 -0.758634 0.57161 -0.22474 -0.789147 