# vtk DataFile Version 4.2
vtk output
ASCII
DATASET POLYDATA
POINTS 504 float
340.526 207.74 187.365 340.436 207.378 187.365 340.276 207.613 187.219 
340.665 207.383 187.61 339.526 207.895 187.044 340.222 208.028 187.18 
338.101 208.713 187.084 340.528 208.628 187.44 340.737 208.418 187.632 
339.442 209.322 187.161 340.132 206.343 187.902 340.489 206.684 187.812 
340.353 206.41 187.971 340.595 206.584 188.125 339.742 206.846 187.441 
339.265 206.763 187.477 340.145 206.901 187.453 340.872 207.413 188.007 
337.764 208.082 187.352 340.269 209.518 187.672 340.682 209.463 188.034 
340.85 209.656 188.424 336.354 211.543 188.118 337.253 211.255 187.749 
338.953 205.879 188.349 339.631 205.816 188.831 338.439 206.121 188.233 
339.333 206.275 187.866 340.422 206.306 188.231 336.939 207.151 188.271 
341.127 208.703 188.726 340.54 210.563 188.636 338.556 211.754 188.269 
339.842 211.323 188.631 337.461 212.146 188.358 337.939 206.058 188.577 
340.213 206.089 188.702 340.455 206.255 188.979 340.692 206.549 188.841 
340.74 210.836 189.216 340.762 211.354 189.7 340.928 211.46 190.17 
337.009 213.605 189.431 338.376 205.215 189.672 338.134 205.298 189.766 
338.497 205.221 189.704 337.564 205.462 189.916 339.078 205.421 189.57 
336.91 205.806 189.747 340.398 206.278 189.381 340.8 207.152 189.69 
341.266 209.189 189.953 341.198 210.472 190.408 340.379 212.432 190.279 
340.703 212.195 190.517 330.08 213.676 191.205 331.501 214.475 190.477 
333.181 215.05 190.282 329.343 215.519 191.475 338.377 205.2 189.786 
338.447 205.279 189.984 338.191 205.335 190.331 338.938 205.634 190.6 
341.081 208.506 190.653 330.932 210.781 191.417 332.567 215.012 190.341 
332.109 217.367 191.369 333.451 216.723 191.285 335.775 216.288 191.73 
328.936 217.028 191.99 329.524 218.055 191.955 338.058 205.669 191.08 
339.019 206.098 191.204 339.314 206.51 191.46 340.349 207.565 191.423 
330.905 209.794 192.265 328.661 214.033 192.59 340.388 213.255 192.094 
339.055 214.637 192.204 337.234 215.801 192.04 337.615 215.743 192.325 
330.707 217.925 191.638 332.511 218.697 192.292 329.499 219.134 192.388 
328.769 219.441 192.768 335.527 206.064 192.737 337.122 206.427 193.017 
340.886 212.303 192.938 328.325 213.91 193.126 336.182 217.02 192.932 
327.151 218.613 193.941 334.134 218.593 193.206 329.98 219.991 192.776 
327.142 220.531 194.192 327.559 221.015 193.985 328.236 221.17 193.718 
333.239 206.728 193.682 333.328 206.674 193.801 335.005 206.225 193.002 
332.925 207.016 193.362 333.909 206.618 193.614 337.442 207.27 194.146 
339.735 209.047 193.934 329.245 210.913 194.45 340.418 213.354 193.848 
339.613 214.633 193.988 336.816 217.214 194.173 326.685 219.974 194.592 
326.825 221.594 194.803 329.428 221.642 193.706 331.042 221.274 193.845 
326.963 222.154 194.93 327.565 222.398 194.536 331.97 207.305 194.678 
333.72 206.878 195.135 336.075 207.179 194.973 330.355 208.98 195.086 
340.704 212.488 194.299 338.785 215.754 194.965 337.426 217.108 195.188 
326.303 217.84 195.237 326.167 217.512 195.619 335.289 218.922 195.193 
331.221 222.183 195.056 326.757 222.765 195.838 326.964 223.112 196.057 
327.377 223.303 195.792 327.221 214.309 195.569 340.013 214.061 195.986 
325.591 220.504 196.466 332.071 222.146 196.107 326.307 222.678 197.143 
330.491 223.032 195.762 327.437 223.515 196.433 328.773 223.634 195.781 
329.011 223.677 196.031 329.551 223.599 196.382 331.065 222.9 196.43 
328.605 223.725 196.047 332.21 207.634 196.456 339.984 212.47 196.829 
339.89 214.156 196.642 339.986 213.68 197.009 325.753 217.353 196.925 
325.242 218.505 197.538 334.605 219.94 196.441 326.053 222.308 197.633 
326.54 222.973 197.273 326.662 223.016 197.558 328.457 223.729 196.424 
329.001 223.669 196.784 329.626 223.727 196.66 329.53 223.689 196.79 
329.73 223.68 196.705 330.046 223.444 196.84 329.66 223.734 196.76 
330.569 209.099 197.291 327.905 212.616 198.347 339.978 213.315 197.263 
336.427 218.347 197.656 325.002 219.115 198.356 325.122 220.276 198.316 
325.313 220.939 198.877 326.249 222.481 198.007 326.932 223.135 197.651 
330.958 222.917 197.44 329.584 223.464 197.271 329.719 223.648 196.876 
338.976 211.803 198.47 339.822 213.244 197.757 324.904 218.711 199.412 
332.744 221.282 198.831 326.333 222.351 198.476 326.594 222.259 198.954 
326.993 222.6 198.727 328.776 222.998 198.531 332.579 208.625 198.627 
335.382 209.584 199.295 331.36 209.795 199.803 339.194 213.015 199.088 
325.436 216.969 200.169 325.057 218.078 200.32 335.384 218.715 200.266 
337.172 211.243 200.058 326.173 215.63 201.118 338.67 215.317 200.483 
337.253 216.997 200.581 325.183 219.322 200.802 337.414 212.523 201.077 
338.578 213.535 200.706 325.601 218.969 201.852 326.266 219.867 201.866 
337.312 214.392 202.218 337.477 214.733 202.157 338.303 214.351 201.264 
338.153 214.911 201.449 337.82 215.249 201.765 325.672 217.125 202.33 
325.321 218.037 201.752 335.682 217.609 202.146 336.057 216.771 202.672 
326.195 218.932 202.688 333.265 218.864 202.898 327.04 219.777 202.639 
336.696 215.625 202.602 336.072 215.88 203.129 326.102 216.796 203.306 
335.761 216.211 203.294 326.038 217.451 203.263 326.558 218.446 203.414 
327.428 219.814 202.823 327.932 219.966 202.807 330.106 213.392 203.876 
332.375 214.244 204.638 333.45 214.22 204.229 333.795 215.314 204.57 
327.1 215.762 204.552 326.714 216.161 204.134 334.722 215.824 204.058 
326.082 217.053 203.39 334.42 216.749 204.159 333.721 217.195 204.457 
332.098 218.633 203.933 328.525 214.509 204.613 330.819 214.318 204.895 
327.583 215.419 204.945 327.008 216.268 204.806 333.73 216.361 204.716 
326.813 217.26 204.413 327.263 217.276 204.903 334.02 216.68 204.485 
327.475 217.636 204.869 327.546 217.975 204.632 327.81 215.642 205.565 
328.815 215.447 205.906 327.5 215.938 205.533 327.295 216.112 205.334 
329.264 215.557 205.962 331.524 216.39 205.709 328.073 216.925 205.672 
330.303 216.998 205.814 330.539 216.709 205.901 327.869 217.753 205.002 
331.266 217.381 205.385 328.112 215.589 205.816 327.472 216.146 205.583 
328.14 215.817 205.915 328.709 215.778 206.047 329.118 216.277 206.128 
328.554 216.816 205.874 327.985 216.144 205.911 328.816 216.1 206.131 
328.215 215.88 248.874 328.135 215.753 248.954 327.984 215.902 249.027 
328.823 216.024 248.786 329.159 215.923 248.839 329.079 216.181 248.833 
327.854 215.302 249.69 327.66 215.624 249.521 328.452 215.391 249.146 
327.402 215.876 249.704 327.489 216.169 249.516 328.843 215.432 249.052 
330.325 215.608 249.198 331.316 216.187 249.316 327.807 216.207 249.206 
328.126 216.557 249.148 328.615 216.679 249.037 329.187 216.56 248.978 
331.682 216.436 249.452 327.652 215.16 250.164 330.872 215.095 249.508 
333.412 216.972 250.28 327.864 217.408 249.807 331.796 217.53 249.945 
328.467 214.061 251.011 334.639 216.093 250.801 327.129 216.785 250.114 
332.164 217.764 250.243 328.88 218.829 250.882 330.749 218.606 250.639 
335.161 214.86 251.272 326.187 217.39 251.757 335.934 216.35 251.796 
326.571 217.908 251.311 332.497 218.697 251.405 331.64 211.858 252.37 
335.731 213.542 252.125 337.57 214.423 252.794 326.443 215.634 252.625 
337.685 214.723 252.853 337.557 215.106 252.839 337.922 214.876 253.104 
325.945 217.27 252.336 336.631 216.226 252.466 326.261 218.974 252.39 
326.992 219.616 252.4 330.905 211.347 253.167 332.974 210.981 253.345 
334.029 211.469 253.04 328.086 213.155 253.364 338.736 213.613 254.074 
338.878 213.817 254.215 338.672 214.675 254.056 335.898 217.575 253.105 
327.589 220.946 253.726 330.712 211.109 253.579 338.289 212.132 255.01 
338.871 213.208 254.585 338.675 215.324 254.561 325.256 218.78 254.179 
332.974 219.966 253.805 329.527 221.124 253.724 332.476 209.238 255.458 
339.071 213.415 254.797 339.124 215.159 255.723 325.088 218.401 255.212 
325.449 219.771 254.339 326.191 221.518 255.378 331.789 208.729 256.461 
334.331 208.32 257.026 338.005 210.72 256.405 339.523 214.217 256.051 
337.922 216.855 256.007 325.906 221.331 255.447 326.932 222.466 256.271 
328.184 222.929 256.515 333.236 207.806 257.557 332.832 207.836 257.576 
335.993 208.711 257.396 339.578 214.775 257.172 338.883 215.848 256.846 
325.322 217.579 256.673 325.075 219.044 256.635 325.511 221.147 256.102 
332.284 221.701 256.564 326.068 222.02 256.673 327.042 223.127 257.585 
339.795 211.991 257.592 339.612 214.898 257.937 335.759 218.973 257.233 
325.163 220.264 256.868 325.544 221.402 257.018 325.587 221.315 257.616 
326.703 222.965 257.691 326.558 222.918 257.991 327.513 223.528 258.383 
329.046 223.682 258.179 329.409 223.761 258.171 329.534 223.757 258.158 
332.307 207.326 259.522 332.173 207.287 260.22 339.593 210.949 258.285 
340.24 212.283 258.517 340.48 212.923 259.278 340.103 214.054 258.788 
326.139 216.751 259.061 325.662 220.249 258.757 331.776 222.386 258.252 
326.324 222.659 258.128 331.221 222.794 258.467 327.501 223.605 258.795 
327.374 223.55 259.015 328.882 223.747 258.741 329.443 223.597 258.792 
329.536 223.696 258.285 328.155 223.741 258.966 328.548 223.747 259.019 
333.212 206.7 260.623 331.669 207.738 260.887 338.942 209.628 258.981 
340.753 212.138 260.186 339.741 214.713 259.913 326.216 221.185 259.562 
333.019 221.036 259.542 326.363 222.31 259.055 330.651 223.021 259.187 
327.128 223.153 259.311 327.23 223.427 259.102 328.701 223.635 259.309 
327.433 223.469 259.273 333.002 206.681 261.061 333.121 206.583 261.188 
333.275 206.571 261.127 332.457 207.084 261.169 334.437 206.537 260.741 
329.656 210.434 260.853 340.529 213.336 261.032 338.719 215.839 260.444 
326.617 218.424 260.614 335.112 218.86 260.552 326.342 219.826 260.146 
326.697 219.286 260.707 326.949 220.952 260.659 330.554 221.857 260.918 
329.031 222.533 260.732 328.278 222.753 260.492 333.236 206.603 261.369 
334.708 206.215 262.194 334.862 206.179 262.889 335.124 206.105 262.183 
333.343 206.679 261.767 336.757 206.427 261.536 338.159 207.038 261.54 
339.853 208.522 261.382 341.152 210.572 262.289 330.766 220.677 261.804 
331.546 220.44 261.707 332.487 219.908 261.703 328.729 221.833 261.287 
[...]
POINT_DATA 504
COLOR_SCALARS scalars 3
1 0.564706 1 1 0.564706 1 1 0.564706 1 
1 0.564706 1 1 0.564706 1 
1 0.564706 1 1 0.564706 1 
1 0.564706 1 1 0.564706 1 
1 0.564706 1 1 0.564706 1 
1 0.564706 1 1 0.564706 1 
1 0.564706 1 1 0.564706 1 
1 0.564706 1 1 0.564706 1 
1 0.564706 1 1 0.564706 1 
1 0.564706 1 1 0.564706 1 
1 0.564706 1 1 0.564706 1 
1 0.564706 1 1 0.564706 1 
1 0.564706 1 1 0.564706 1 
1 0.564706 1 1 0.564706 1 
1 0.564706 1 1 0.564706 1 
1 0.564706 1 1 0.564706 1 
1 0.564706 1 1 0.564706 1 
1 0.564706 1 1 0.564706 1 
1 0.564706 1 1 0.564706 1 
1 0.564706 1 1 0.564706 1 
1 0.564706 1 1 0.564706 1 
1 0.564706 1 1 0.564706 1 
1 0.564706 1 1 0.564706 1 
1 0.564706 1 1 0.564706 1 
1 0.564706 1 1 0.564706 1 
1 0.564706 1 1 0.564706 1 
1 0.564706 1 1 0.564706 1 
1 0.564706 1 1 0.564706 1 
1 0.564706 1 1 0.564706 1 
1 0.564706 1 1 0.564706 1 
1 0.564706 1 1 0.564706 1 
1 0.564706 1 1 0.564706 1 
1 0.564706 1 1 0.564706 1 
1 0.564706 1 1 0.564706 1 
1 0.564706 1 1 0.564706 1 
1 0.564706 1 1 0.564706 1 
1 0.564706 1 1 0.564706 1 
1 0.564706 1 1 0.564706 1 
1 0.564706 1 1 0.564706 1 
1 0.564706 1 1 0.564706 1 
1 0.564706 1 1 0.564706 1 
1 0.564706 1 1 0.564706 1 
1 0.564706 1 1 0.564706 1 
1 0.564706 1 1 0.564706 1 
1 0.564706 1 1 0.564706 1 
1 0.564706 1 1 0.564706 1 
1 0.564706 1 1 0.564706 1 
1 0.564706 1 1 0.564706 1 
1 0.564706 1 1 0.564706 1 
1 0.564706 1 1 0.564706 1 
1 0.564706 1 1 0.564706 1 
1 0.564706 1 1 0.564706 1 
1 0.564706 1 1 0.564706 1 
1 0.564706 1 1 0.564706 1 
1 0.564706 1 1 0.564706 1 
1 0.564706 1 1 0.564706 1 
1 0.564706 1 1 0.564706 1 
1 0.564706 1 1 0.564706 1 
1 0.564706 1 1 0.564706 1 
1 0.564706 1 1 0.564706 1 
1 0.564706 1 1 0.564706 1 
1 0.564706 1 1 0.564706 1 
1 0.564706 1 1 0.564706 1 
1 0.564706 1 1 0.564706 1 
1 0.564706 1 1 0.564706 1 
1 0.564706 1 1 0.564706 1 
1 0.564706 1 1 0.564706 1 
1 0.564706 1 1 0.564706 1 
1 0.564706 1 1 0.564706 1 
1 0.564706 1 1 0.564706 1 
1 0.564706 1 1 0.564706 1 
1 0.564706 1 1 0.564706 1 
1 0.564706 1 1 0.564706 1 
1 0.564706 1 1 0.564706 1 
1 0.564706 1 1 0.564706 1 
1 0.564706 1 1 0.564706 1 
1 0.564706 1 1 0.564706 1 
1 0.564706 1 1 0.564706 1 
1 0.564706 1 1 0.564706 1 
1 0.564706 1 1 0.564706 1 
1 0.564706 1 1 0.564706 1 
1 0.564706 1 1 0.564706 1 
1 0.564706 1 1 0.564706 1 
1 0.564706 1 1 0.564706 1 
1 0.564706 1 1 0.564706 1 
1 0.564706 1 1 0.564706 1 
1 0.564706 1 1 0.564706 1 
1 0.564706 1 1 0.564706 1 
1 0.564706 1 1 0.564706 1 
1 0.564706 1 1 0.564706 1 
1 0.564706 1 1 0.564706 1 
1 0.564706 1 1 0.564706 1 
1 0.564706 1 1 0.564706 1 
1 0.564706 1 1 0.564706 1 
1 0.564706 1 1 0.564706 1 
1 0.564706 1 1 0.564706 1 
1 0.564706 1 1 0.564706 1 
1 0.564706 1 1 0.564706 1 
1 0.564706 1 1 0.564706 1 
1 0.564706 1 1 0.564706 1 
1 0.564706 1 1 0.564706 1 
1 0.564706 1 1 0.564706 1 
1 0.564706 1 1 0.564706 1 
1 0.564706 1 1 0.564706 1 
1 0.564706 1 1 0.564706 1 
1 0.564706 1 1 0.564706 1 
1 0.564706 1 1 0.564706 1 
1 0.564706 1 1 0.564706 1 
1 0.564706 1 1 0.564706 1 
1 0.564706 1 1 0.564706 1 
1 0.564706 1 1 0.564706 1 
1 0.564706 1 1 0.564706 1 
1 0.564706 1 1 0.564706 1 
1 0.564706 1 1 0.564706 1 
1 0.564706 1 1 0.564706 1 
1 0.564706 1 1 0.564706 1 
1 0.564706 1 1 0.564706 1 
1 0.564706 1 1 0.564706 1 
1 0.564706 1 1 0.564706 1 
1 0.564706 1 1 0.564706 1 
1 0.564706 1 1 0.564706 1 
1 0.564706 1 1 0.564706 1 
1 0.564706 1 1 0.564706 1 
1 0.564706 1 1 0.564706 1 
1 0.564706 1 1 0.564706 1 
1 0.564706 1 1 0.564706 1 
1 0.564706 1 1 0.564706 1 
1 0.564706 1 1 0.564706 1 
1 0.564706 1 1 0.564706 1 
1 0.564706 1 1 0.564706 1 
1 0.564706 1 1 0.564706 1 
1 0.564706 1 1 0.564706 1 
1 0.564706 1 1 0.564706 1 
1 0.564706 1 1 0.564706 1 
1 0.564706 1 1 0.564706 1 
1 0.564706 1 1 0.564706 1 
1 0.564706 1 1 0.564706 1 
1 0.564706 1 1 0.564706 1 
1 0.564706 1 1 0.564706 1 
1 0.564706 1 1 0.564706 1 
1 0.564706 1 1 0.564706 1 
1 0.564706 1 1 0.564706 1 
1 0.564706 1 1 0.564706 1 
1 0.564706 1 1 0.564706 1 
1 0.564706 1 1 0.564706 1 
1 0.564706 1 1 0.564706 1 
1 0.564706 1 1 0.564706 1 
1 0.564706 1 1 0.564706 1 
1 0.564706 1 1 0.564706 1 
1 0.564706 1 1 0.564706 1 
1 0.564706 1 1 0.564706 1 
1 0.564706 1 1 0.564706 1 
1 0.564706 1 1 0.564706 1 
1 0.564706 1 1 0.564706 1 
1 0.564706 1 1 0.564706 1 
1 0.564706 1 1 0.564706 1 
1 0.564706 1 1 0.564706 1 
1 0.564706 1 1 0.564706 1 
1 0.564706 1 1 0.564706 1 
1 0.564706 1 1 0.564706 1 
1 0.564706 1 1 0.564706 1 
1 0.564706 1 1 0.564706 1 
1 0.564706 1 1 0.564706 1 
1 0.564706 1 1 0.564706 1 
1 0.564706 1 1 0.564706 1 
1 0.564706 1 1 0.564706 1 
1 0.564706 1 1 0.564706 1 
1 0.564706 1 1 0.564706 1 
1 0.564706 1 1 0.564706 1 
1 0.564706 1 1 0.564706 1 
1 0.564706 1 1 0.564706 1 
1 0.564706 1 1 0.564706 1 
1 0.564706 1 1 0.564706 1 
1 0.564706 1 1 0.564706 1 
1 0.564706 1 1 0.564706 1 
1 0.564706 1 1 0.564706 1 
1 0.564706 1 1 0.564706 1 
1 0.564706 1 1 0.564706 1 
1 0.564706 1 1 0.564706 1 
1 0.564706 1 1 0.564706 1 
1 0.564706 1 1 0.564706 1 
1 0.564706 1 1 0.564706 1 
1 0.564706 1 1 0.564706 1 
1 0.564706 1 1 0.564706 1 
1 0.564706 1 1 0.564706 1 
1 0.564706 1 1 0.564706 1 
1 0.564706 1 1 0.564706 1 
1 0.564706 1 1 0.564706 1 
1 0.564706 1 1 0.564706 1 
1 0.564706 1 1 0.564706 1 
1 0.564706 1 1 0.564706 1 
1 0.564706 1 1 0.564706 1 
1 0.564706 1 1 0.564706 1 
1 0.564706 1 1 0.564706 1 
1 0.564706 1 1 0.564706 1 
1 0.564706 1 1 0.564706 1 
1 0.564706 1 1 0.564706 1 
1 0.564706 1 1 0.564706 1 
1 0.564706 1 1 0.564706 1 
1 0.564706 1 1 0.564706 1 
1 0.564706 1 1 0.564706 1 
1 0.564706 1 1 0.564706 1 
1 0.564706 1 1 0.564706 1 
1 0.564706 1 1 0.564706 1 
1 0.564706 1 1 0.564706 1 
1 0.564706 1 1 0.564706 1 
1 0.564706 1 1 0.564706 1 
1 0.564706 1 1 0.564706 1 
1 0.564706 1 1 0.564706 1 
1 0.564706 1 1 0.564706 1 
1 0.564706 1 1 0.564706 1 
1 0.564706 1 1 0.564706 1 
1 0.564706 1 1 0.564706 1 
1 0.564706 1 1 0.564706 1 
1 0.564706 1 1 0.564706 1 
1 0.564706 1 1 0.564706 1 
1 0.564706 1 1 0.564706 1 
1 0.564706 1 1 0.564706 1 
1 0.564706 1 1 0.564706 1 
1 0.564706 1 1 0.564706 1 
1 0.564706 1 1 0.564706 1 
1 0.564706 1 1 0.564706 1 
1 0.564706 1 1 0.564706 1 
1 0.564706 1 1 0.564706 1 
1 0.564706 1 1 0.564706 1 
1 0.564706 1 1 0.564706 1 
1 0.564706 1 1 0.564706 1 
1 0.564706 1 1 0.564706 1 
1 0.564706 1 1 0.564706 1 
1 0.564706 1 1 0.564706 1 
1 0.564706 1 1 0.564706 1 
1 0.564706 1 1 0.564706 1 
1 0.564706 1 1 0.564706 1 
1 0.564706 1 1 0.564706 1 
1 0.564706 1 1 0.564706 1 
1 0.564706 1 1 0.564706 1 
1 0.564706 1 1 0.564706 1 
1 0.564706 1 1 0.564706 1 
1 0.564706 1 1 0.564706 1 
1 0.564706 1 1 0.564706 1 
1 0.564706 1 1 0.564706 1 
1 0.564706 1 1 0.564706 1 
1 0.564706 1 1 0.564706 1 
1 0.564706 1 1 0.564706 1 
1 0.564706 1 1 0.564706 1 
1 0.564706 1 1 0.564706 1 
1 0.564706 1 1 0.564706 1 
1 0.564706 1 1 0.564706 1 
1 0.564706 1 1 0.564706 1 
1 0.564706 1 1 0.564706 1 
1 0.564706 1 1 0.564706 1 
1 0.564706 1 
NORMALS Normals float
0.749995 -0.0376234 -0.660372 0.475965 -0.302894 -0.825659 0.263712 -0.217645 -0.939727 
0.801249 -0.216449 -0.557808 0.00478757 -0.159756 -0.987145 0.312973 0.0837487 -0.946062 
-0.169992 0.0561027 -0.983847 0.646145 0.218932 -0.731139 0.866082 0.0804816 -0.49338 
0.232774 0.289872 -0.928327 0.242254 -0.758883 -0.604491 0.644088 -0.4801 -0.595529 
0.553396 -0.663538 -0.503458 0.896908 -0.390594 -0.207344 0.0835144 -0.441743 -0.893246 
-0.101644 -0.512279 -0.852783 0.270859 -0.483858 -0.832176 0.928051 -0.182636 -0.324602 
-0.406982 -0.332476 -0.850779 0.485605 0.473097 -0.735097 0.714924 0.393713 -0.577818 
0.845363 0.310617 -0.434602 -0.320635 0.257598 -0.911502 0.0199698 0.430978 -0.902142 
-0.0997817 -0.838351 -0.535921 0.321242 -0.909405 -0.26417 -0.311012 -0.625481 -0.715573 
0.042335 -0.770088 -0.636531 0.611353 -0.74933 -0.254466 -0.570266 -0.424332 -0.703377 
0.984068 -0.09473 -0.150456 0.609087 0.455211 -0.649459 0.313504 0.568192 -0.760837 
0.537736 0.600266 -0.592048 0.135713 0.622207 -0.771 -0.36008 -0.705776 -0.610101 
0.437726 -0.893909 -0.0965533 0.730993 -0.677854 0.0785026 0.890107 -0.455292 -0.0204385 
0.844739 0.357585 -0.398182 0.76912 0.48328 -0.418204 0.831954 0.458744 -0.312099 
0.233244 0.641352 -0.730935 -0.155451 -0.935672 -0.316786 -0.345907 -0.93252 -0.103708 
0.242729 -0.966668 -0.0814544 -0.298966 -0.951229 -0.0760377 0.39879 -0.914747 0.064836 
-0.488226 -0.749601 -0.446915 0.619655 -0.75975 0.196999 0.907944 -0.368443 0.19972 
0.993169 0.0624112 -0.0985929 0.987206 0.140993 -0.0744661 0.601151 0.629541 -0.492235 
0.823112 0.490595 -0.286012 -0.659273 -0.250034 -0.709114 -0.272413 0.161598 -0.948513 
-0.115043 0.342604 -0.93241 -0.588586 0.0294843 -0.807896 -0.0864599 -0.988694 0.122509 
0.148927 -0.934644 0.322895 0.0376006 -0.956821 0.288234 0.54803 -0.738136 0.393469 
0.927552 -0.296831 0.227021 -0.711278 -0.3491 -0.610092 -0.0892626 0.314684 -0.94499 
0.0999466 0.473841 -0.87492 0.119632 0.577606 -0.807502 0.357085 0.743551 -0.565351 
-0.553429 0.136753 -0.821593 -0.34577 0.26071 -0.901373 0.118991 -0.856207 0.502744 
0.346651 -0.709881 0.613109 0.504886 -0.675933 0.536846 0.758734 -0.5585 0.335262 
-0.753875 -0.483529 -0.444829 -0.818158 -0.147735 -0.555691 0.81685 0.520542 -0.248578 
0.558678 0.679801 -0.475131 0.430462 0.693824 -0.577331 0.517855 0.776594 -0.358786 
-0.151781 0.342292 -0.927253 0.329129 0.53975 -0.774819 -0.0997274 0.344531 -0.933463 
-0.439024 0.292407 -0.849562 -0.0260576 -0.945947 0.323273 0.0922357 -0.879701 0.466495 
0.936551 0.349733 -0.0236429 -0.818106 -0.278921 -0.502898 0.56084 0.690802 -0.456346 
-0.713083 -0.0878424 -0.695555 0.458022 0.664967 -0.589945 0.170732 0.37271 -0.912106 
-0.64347 0.184389 -0.742931 -0.606537 0.185676 -0.77307 -0.339539 0.29295 -0.893809 
-0.469081 -0.866333 -0.171554 -0.404761 -0.911709 0.0703856 -0.00128837 -0.94268 0.333694 
-0.61245 -0.738327 -0.28245 -0.246638 -0.96152 -0.121029 0.356023 -0.763889 0.538257 
0.710903 -0.510215 0.484043 -0.822344 -0.505637 -0.260923 0.880909 0.464788 0.0892847 
0.786951 0.615499 -0.0432342 0.671405 0.667561 -0.321834 -0.769146 0.0807998 -0.633944 
-0.726701 0.21452 -0.6526 0.0005502 0.658711 -0.752395 0.359192 0.559925 -0.746636 
-0.760289 0.440704 -0.477221 -0.412189 0.503677 -0.759217 -0.524399 -0.851263 0.0189086 
-0.0820471 -0.952371 0.293696 0.299536 -0.811715 0.501395 -0.757816 -0.647481 -0.080518 
0.966756 0.153375 0.204593 0.750338 0.655445 -0.0859277 0.727758 0.654957 -0.203466 
-0.864203 -0.139296 -0.483477 -0.83536 -0.199082 -0.512388 0.551683 0.750879 -0.363078 
0.422522 0.722446 -0.547309 -0.81045 0.469157 -0.350802 -0.634497 0.729363 -0.255818 
-0.388737 0.776361 -0.496132 -0.921896 -0.267826 -0.27996 0.961161 0.26828 0.0647647 
-0.883343 0.210907 -0.418598 0.611871 0.754153 -0.238467 -0.838564 0.543634 -0.0356754 
0.39084 0.862432 -0.321646 -0.321358 0.945369 0.0548322 -0.0715756 0.823922 -0.562166 
0.217145 0.943074 -0.25191 0.230206 0.927309 -0.295134 0.460493 0.884307 -0.0771217 
-0.198794 0.916917 -0.34604 -0.444689 -0.847687 0.289273 0.946477 -0.16806 0.275566 
0.866463 0.459535 0.195115 0.935965 0.256213 0.241505 -0.937169 -0.287498 -0.197633 
-0.942579 -0.23134 -0.240889 0.638585 0.761955 -0.107861 -0.872738 0.487996 0.0136823 
-0.651608 0.758211 -0.0228981 -0.662162 0.723252 0.196082 -0.0431018 0.994149 0.0990444 
-0.023815 0.979302 0.200999 0.0291975 0.967046 -0.252924 -0.198418 0.959618 0.199407 
0.607069 0.775061 -0.175349 0.530873 0.84643 0.0415782 0.213963 0.959753 0.181918 
-0.670327 -0.695973 0.257456 -0.776936 -0.617516 0.122657 0.986185 0.0134724 0.165102 
0.68833 0.725183 0.0176719 -0.993717 0.104912 -0.038982 -0.975882 0.165433 -0.14243 
-0.898571 0.430008 0.0875389 -0.632548 0.706977 0.316332 -0.356197 0.887226 0.29318 
0.446638 0.879014 0.166883 0.198014 0.867564 0.456206 0.345527 0.84244 0.413408 
0.745219 -0.495528 0.446208 0.929134 0.013259 0.369506 -0.998499 -0.0530731 -0.0135181 
0.465942 0.812966 0.349263 -0.653936 0.673086 0.345431 -0.405933 0.722274 0.559946 
-0.331158 0.804143 0.493648 0.019304 0.867154 0.497665 -0.00833724 -0.788996 0.614341 
0.354071 -0.715269 0.602515 -0.283428 -0.781333 0.556046 0.867842 -0.227096 0.441902 
-0.906397 -0.422025 -0.0184123 -0.977331 -0.202659 0.0612654 0.625868 0.740167 0.245848 
0.465647 -0.585688 0.663432 -0.875239 -0.480297 0.0572004 0.876753 0.391662 0.279115 
0.705885 0.610268 0.359581 -0.923656 0.276232 0.265623 0.418307 -0.529499 0.738004 
0.752304 -0.359977 0.551775 -0.741949 0.410359 0.530204 -0.570295 0.650975 0.500994 
0.632077 -0.225866 0.741258 0.728854 0.0435762 0.683281 0.780193 -0.103732 0.616878 
0.781676 0.261 0.566446 0.783866 0.135987 0.605856 -0.936792 -0.118294 0.329283 
-0.940393 -0.0794877 0.33067 0.578152 0.677495 0.454688 0.650532 0.439874 0.619127 
-0.760555 0.345546 0.549685 0.511313 0.669563 0.538743 -0.460387 0.692084 0.555935 
0.633734 0.0929633 0.767944 0.647357 0.135867 0.749979 -0.893415 -0.324775 0.310371 
0.563355 0.406492 0.719302 -0.896515 0.132151 0.422844 -0.534486 0.484909 0.692234 
-0.267445 0.670599 0.691932 -0.194071 0.770772 0.606833 -0.322814 -0.770342 0.549877 
0.153166 -0.617152 0.771792 0.428486 -0.457472 0.779179 0.399389 -0.243352 0.883894 
-0.768159 -0.580064 0.271031 -0.878015 -0.306483 0.367638 0.536939 -0.150285 0.830127 
-0.900575 -0.0891329 0.425465 0.584949 0.232486 0.777036 0.503137 0.467514 0.726831 
0.13344 0.760264 0.635761 -0.352692 -0.794212 0.494808 0.0378201 -0.582459 0.81198 
-0.633037 -0.665192 0.395959 -0.882793 -0.0802557 0.462855 0.484285 0.128692 0.865394 
-0.779587 0.159177 0.605729 -0.59612 0.271198 0.755707 0.612753 0.370856 0.697853 
-0.543514 0.473977 0.692776 -0.377657 0.645288 0.664063 -0.614365 -0.51671 0.596294 
-0.0835958 -0.6289 0.772979 -0.673647 -0.453807 0.583318 -0.8177 -0.374341 0.437305 
0.104893 -0.479062 0.871491 0.298075 0.0739786 0.951671 -0.370643 0.480322 0.79493 
0.0761681 0.610782 0.788127 0.131128 0.303388 0.943801 -0.265033 0.595658 0.758254 
0.314733 0.507263 0.802264 -0.412561 -0.572491 0.708554 -0.664745 -0.0156382 0.746906 
-0.449778 -0.273563 0.850214 -0.101235 -0.287702 0.952354 0.0281633 0.0443034 0.998621 
-0.118053 0.430951 0.89462 -0.336289 0.108538 0.935483 -0.103919 -0.0293485 0.994153 
-0.327299 -0.0695465 -0.942358 -0.358481 -0.497699 -0.789802 -0.659111 -0.119602 -0.742475 
-0.0738508 0.153618 -0.985367 0.187167 -0.183047 -0.965123 0.231116 0.192634 -0.953665 
-0.541915 -0.699789 -0.465428 -0.712234 -0.369392 -0.596886 -0.184721 -0.837343 -0.514524 
-0.834441 -0.329807 -0.441515 -0.72076 0.122281 -0.682314 -0.03433 -0.665471 -0.745634 
0.15237 -0.121003 -0.980888 0.19384 0.070197 -0.978518 -0.649857 0.127466 -0.749292 
-0.430924 0.384117 -0.816553 -0.110159 0.525679 -0.84352 0.167747 0.355567 -0.919474 
0.37972 0.0613852 -0.923062 -0.492224 -0.783793 -0.378661 0.210499 -0.507056 -0.835814 
0.48662 0.503538 -0.713898 -0.49467 0.5413 -0.679923 0.133213 0.498197 -0.85677 
-0.40773 -0.748898 -0.522406 0.610024 0.0689881 -0.789374 -0.666069 0.395084 -0.632662 
0.309157 0.560135 -0.768551 -0.199511 0.712263 -0.672961 0.104824 0.775695 -0.622342 
0.500565 -0.272519 -0.821686 -0.904013 -0.0224242 -0.426916 0.605372 0.348009 -0.715831 
-0.754289 0.382852 -0.533359 0.308473 0.741935 -0.595295 0.0414506 -0.68936 -0.723232 
0.501105 -0.392492 -0.771261 0.56219 -0.180238 -0.807129 -0.86314 -0.464934 -0.197042 
0.601092 0.0292604 -0.798644 0.675126 0.411031 -0.612583 0.755206 0.122553 -0.643929 
-0.93256 0.0249495 -0.360152 0.706929 0.506807 -0.493353 -0.668519 0.485901 -0.563012 
-0.266773 0.730608 -0.628526 -0.280481 -0.789994 -0.545197 0.0136136 -0.795006 -0.606448 
0.24919 -0.693781 -0.675701 -0.647769 -0.68708 -0.329114 0.703144 -0.248584 -0.66618 
0.870357 -0.0943119 -0.483305 0.847848 0.239035 -0.473304 0.624756 0.665567 -0.408289 
-0.398175 0.722274 -0.565488 -0.362271 -0.797636 -0.482221 0.509432 -0.647914 -0.566292 
0.783816 -0.426889 -0.450998 0.803011 0.459252 -0.379817 -0.943798 -0.144723 -0.297155 
0.432111 0.784208 -0.445305 0.0292085 0.823967 -0.565885 0.0930488 -0.75499 -0.649101 
0.916555 -0.190673 -0.351527 0.863732 0.465824 -0.192287 -0.985239 -0.113212 -0.128401 
-0.879802 0.362942 -0.306957 -0.415522 0.784587 -0.46018 -0.331837 -0.801034 -0.498226 
0.100695 -0.790528 -0.604091 0.592171 -0.632737 -0.498976 0.93438 0.239794 -0.263503 
0.713932 0.66914 -0.206286 -0.623386 0.640705 -0.448204 -0.406237 0.801751 -0.438368 
-0.144893 0.877115 -0.457903 0.145744 -0.892981 -0.425845 -0.139917 -0.839122 -0.52564 
0.392909 -0.770284 -0.50228 0.842208 0.520857 -0.139261 0.832886 0.546655 -0.0864272 
-0.921504 -0.363238 0.137433 -0.959373 -0.0642178 0.274736 -0.819479 0.542036 -0.186149 
0.58104 0.791812 -0.188222 -0.715982 0.674285 -0.18086 -0.317348 0.903502 -0.288054 
0.838281 -0.319262 -0.441992 0.844046 0.513983 -0.152996 0.681965 0.731233 -0.014931 
-0.979627 0.123648 0.15825 -0.941813 0.33428 0.035282 -0.910493 0.390247 0.136785 
-0.614351 0.746622 -0.255203 -0.683672 0.728002 0.0510465 -0.310373 0.912436 -0.266699 
-0.0789312 0.985175 -0.152317 -0.0858834 0.995082 0.0493644 0.219153 0.926729 -0.305196 
-0.639644 -0.750386 -0.166663 -0.597032 -0.797023 -0.0911456 0.742602 -0.549538 -0.382819 
0.919821 -0.215196 -0.328053 0.959181 0.175352 -0.221862 0.880159 0.461921 -0.109313 
-0.930535 -0.241925 0.274913 -0.937632 0.0904774 0.335648 0.648555 0.757842 0.0710753 
-0.806445 0.591264 -0.00728658 0.506003 0.85641 0.102584 -0.461997 0.878073 -0.124686 
-0.428433 0.891093 0.149659 0.147645 0.985488 0.0837536 0.26906 0.945851 0.181585 
0.143505 0.909523 0.390094 -0.108274 0.994022 -0.0140097 0.00414928 0.994248 0.107019 
-0.31699 -0.912938 -0.257024 -0.755274 -0.641617 0.13375 0.632881 -0.650834 -0.419376 
0.98192 0.0930224 -0.164863 0.872084 0.488968 -0.0194698 -0.809824 0.268361 0.521697 
0.60141 0.749512 0.276654 -0.809292 0.455686 0.37067 0.426608 0.809397 0.403585 
-0.638592 0.589937 0.49414 -0.643185 0.761239 0.0826308 0.101696 0.896045 0.432159 
-0.343647 0.791351 0.505638 -0.574144 -0.817414 -0.0468393 -0.44779 -0.889241 0.0934614 
-0.142096 -0.981624 -0.127372 -0.591494 -0.791569 0.153469 -0.00856523 -0.986375 -0.16429 
-0.861886 -0.450676 0.232475 0.839977 0.541802 0.0298016 0.696781 0.711083 0.0941115 
-0.891944 -0.0399259 0.450379 0.668696 0.661776 0.338967 -0.817153 0.0566121 0.573634 
-0.801662 0.0807231 0.592303 -0.742544 0.19182 0.641743 0.24513 0.646793 0.722198 
0.071056 0.724905 0.685174 -0.11867 0.730369 0.672665 -0.349875 -0.895169 0.276152 
-0.360372 -0.932727 -0.0123614 -0.345492 -0.932413 0.106027 -0.0280287 -0.988764 -0.146834 
-0.356388 -0.920259 0.161587 0.260349 -0.875895 -0.406234 0.426186 -0.739569 -0.520964 
0.62494 -0.662507 -0.412959 0.993465 -0.0164109 -0.11295 0.16145 0.525459 0.835361 
0.382065 0.594068 0.707891 0.309313 0.632612 0.710019 -0.0924831 0.479058 0.872898 
-0.558867 0.45451 0.693605 -0.046986 -0.936615 -0.347196 -0.331167 -0.938599 -0.0967503 
-0.45861 -0.879341 0.128206 -0.140839 -0.986621 -0.0821133 -0.372685 -0.856046 0.358178 
-0.0597249 -0.967893 -0.244166 0.0572362 -0.808765 -0.58534 0.21403 -0.748856 -0.627221 
-0.521691 -0.741566 0.421804 0.358479 -0.765679 -0.534068 0.710323 -0.54832 -0.441346 
0.811385 -0.458887 -0.362045 0.821488 -0.467296 -0.32679 0.891587 0.451123 0.0395 
-0.778193 -0.107455 0.618764 0.561129 0.68507 0.464559 -0.0491745 0.396403 0.916759 
-0.531507 0.238459 0.812796 -0.221757 0.502142 0.835869 0.0994278 -0.911847 -0.398307 
-0.396743 -0.901641 0.172157 0.574601 -0.686661 -0.445342 0.901982 -0.330488 -0.27786 
-0.634565 -0.346119 0.691035 0.895498 0.403338 0.188151 0.668842 0.707792 0.227335 
0.425787 0.749845 0.506397 -0.696736 0.0886567 0.711828 -0.518321 0.261485 0.814229 
-0.0603084 -0.939997 -0.335811 0.0498384 -0.998601 0.0176927 -0.198416 -0.971042 0.133076 
0.381766 -0.870722 -0.309998 0.482683 -0.711466 -0.510718 0.697575 -0.684235 -0.212628 
0.94804 -0.292739 -0.124594 0.685802 0.603035 0.40746 0.712444 0.537066 0.451645 
0.553914 0.698889 0.452475 -0.624882 -0.139344 0.768183 -0.297338 0.16497 0.940412 