# vtk DataFile Version 4.2
vtk output
ASCII
DATASET POLYDATA
POINTS 1002 float
327.574 205.002 175.043 327.53 204.832 175.132 327.73 205.074 175.064 
327.768 204.816 175.119 327.993 204.921 175.231 327.502 205.225 175.063 
327.651 205.289 175.091 327.477 205.455 175.164 318.949 213.109 175.505 
318.893 213.039 175.561 318.866 213.242 175.584 319.059 212.992 175.56 
319.04 213.149 175.575 327.76 204.236 175.493 327.709 204.536 175.285 
327.504 204.393 175.459 328.418 204.106 175.715 328.303 204.391 175.515 
327.667 205.48 175.255 327.919 205.414 175.406 325.921 207.127 175.775 
325.736 207.225 175.836 327.31 205.831 175.477 320.37 211.945 175.843 
320.634 211.902 176.002 318.728 213.207 175.639 318.571 213.256 175.8 
319.113 212.693 175.714 319.374 212.956 175.749 327.931 203.719 176.28 
328.387 203.919 175.829 328.277 203.798 176.053 328.53 203.9 175.994 
326.681 204.887 175.728 328.753 204.246 176.037 328.669 204.092 175.983 
328.422 204.95 175.714 326.432 206.313 175.702 325.338 207.086 175.933 
323.559 208.039 176.217 325.62 207.658 176.073 321.658 209.675 176.304 
320.49 211.385 176.013 320.837 210.268 176.365 319.263 212.152 175.953 
321.267 211.332 176.148 321.735 211.389 176.299 318.08 213.645 176.362 
319.091 213.731 176.036 317.931 214.228 176.564 317.768 213.968 176.667 
317.773 214.747 176.882 317.459 214.946 177.267 318.314 215.018 176.963 
317.677 215.212 177.228 328.711 203.911 176.242 328.555 203.73 176.39 
326.154 204.391 176.605 328.867 205.068 176.771 323.793 206.828 176.583 
325.052 209.078 176.737 321.135 209.285 176.704 319.556 210.975 176.701 
324.027 210.259 176.986 317.804 213.619 176.688 317.718 213.432 176.943 
317.331 215.671 177.791 328.147 203.081 177.75 321.552 207.997 177.602 
319.565 210.371 177.368 321.206 213.215 177.288 317.048 214.692 177.989 
316.578 216.474 178.801 316.785 216.758 178.678 316.519 217.045 179.103 
328.388 203.127 177.87 328.18 202.983 178.219 328.689 203.375 177.749 
326.225 209.118 177.91 317.061 217.582 179.179 316.51 217.725 179.542 
329.187 203.712 178.788 316.122 217.05 179.97 317.38 217.685 179.237 
316.241 218.175 180.009 316.429 218.305 179.949 316.29 218.46 180.124 
316.425 218.716 180.322 329.53 206.232 180.361 315.893 218.181 180.804 
317.879 217.886 179.678 318.407 217.865 180.062 316.174 218.553 180.354 
317.149 218.659 180.234 316.258 219.19 180.852 316.392 219.413 181.106 
327.076 202.71 180.467 327.936 202.625 181.085 328.804 202.988 180.876 
340.59 202.901 182.782 340.425 202.578 182.937 340.277 202.769 182.846 
340.75 202.869 182.848 340.64 202.698 182.894 340.734 202.738 182.99 
340.643 203.216 182.749 340.773 203.109 182.83 340.824 202.974 183.01 
340.326 203.524 182.801 340.755 203.431 182.859 340.861 203.321 183.049 
329.819 204.931 181.055 340.825 203.654 183.079 329.104 207.644 180.74 
327.834 209.56 180.99 315.813 218.077 181.192 316.145 219.189 181.047 
316.367 219.727 181.527 316.254 219.763 181.663 316.414 219.955 181.953 
340.267 202.318 183.165 340.221 202.157 183.478 328.394 202.719 181.427 
340.531 202.495 183.163 340.729 202.743 183.284 325.16 202.99 182.324 
340.327 204.284 183.071 340.544 204.224 183.139 339.812 205.334 183.483 
339.786 205.272 183.498 339.777 205.361 183.534 339.848 205.325 183.562 
319.173 208.799 181.454 317.442 220.14 182.208 316.505 220.215 182.504 
316.414 220.207 182.98 338.351 200.924 184.269 338.317 200.998 184.25 
338.418 200.971 184.32 338.439 201.027 184.208 339.441 201.786 183.729 
339.684 202.134 183.355 340.108 201.999 183.879 327.17 202.347 183.311 
339.667 202.453 183.196 340.914 203.784 183.915 339.441 204.701 183.661 
340.621 204.616 183.531 339.655 205.187 183.635 339.923 204.982 183.477 
340.583 205.042 183.794 340.731 204.867 183.903 339.734 205.387 183.695 
339.993 205.451 183.895 315.991 219.12 183.117 316.153 219.832 182.662 
317.092 220.596 182.984 316.712 220.552 183.487 317.112 220.797 183.639 
336.798 200.689 184.93 336.944 200.924 184.742 337.776 200.715 184.746 
338.618 201.065 184.437 338.623 201.362 184.103 339.232 201.422 184.361 
337.996 201.986 184.069 338.185 202.365 183.962 329.987 203.778 183.426 
340.874 204.027 184.332 330.573 205.36 183.818 340.867 204.507 184.417 
339.436 205.327 184.045 340.652 205.194 184.057 339.215 205.612 184.54 
340.057 205.843 184.303 339.691 205.993 184.636 316.365 215.124 183.934 
319.24 219.836 183.333 316.629 220.419 184.316 317.963 220.919 183.695 
317.279 221.003 185.077 317.694 221.247 184.87 336.07 200.634 185.413 
336.747 200.378 185.472 337.135 200.397 185.483 337.757 200.606 185.246 
334.667 201.813 185.791 336.142 202.234 185.032 340.075 202.176 184.98 
324.272 202.683 185.349 329.77 203.132 184.163 335.81 202.768 185.237 
330.892 204.507 184.665 340.792 204.781 184.821 340.746 205.249 184.884 
340.646 205.684 184.802 339.635 206.109 184.922 340.193 206.227 184.888 
340.538 206.028 184.849 338 209.009 185.017 338 209.009 185.017 
338 209.009 185.017 339.767 206.209 185.088 338 209.009 185.017 
340.038 206.271 185.127 340.311 206.246 185.062 340.474 206.161 184.995 
338 209.009 185.017 316.625 220.211 184.824 316.86 220.628 184.792 
317.516 221.121 186.079 335.46 200.453 186.301 336.761 200.324 185.781 
334.527 201.34 186.046 334.206 201.746 186.103 328.003 201.97 186.037 
330.213 202.855 185.324 330.97 203.511 185.323 331.888 204.244 185.641 
333.589 204.11 186.029 334.572 203.934 185.89 331.588 205.537 185.393 
336.385 204.482 185.623 331.132 207.502 185.622 340.574 205.886 185.176 
340.443 205.963 185.394 340.514 205.743 185.409 340.203 206.241 185.297 
339.989 206.25 185.371 340.064 206.176 185.493 340.431 206.129 185.207 
338 209.009 185.017 328.638 212.408 186.056 326.469 214.473 185.622 
324.121 216.181 184.9 316.949 220.078 186.355 334.541 200.735 186.677 
336.281 200.367 186.707 333.369 202.154 186.372 332.692 202.075 186.694 
339.404 202.266 186.32 331.819 203.388 185.903 331.117 202.643 186.195 
332.649 202.838 186.263 332.009 202.473 186.501 333.338 203.007 186.101 
339.479 203.38 186.789 322.018 203.748 186.534 332.757 204.034 185.984 
340.267 204.477 185.931 334.443 204.974 186.275 335.308 204.992 186.236 
340.152 205.072 186.036 339.79 205.164 186.356 332.127 206.114 185.986 
333.177 205.798 186.435 333.996 205.59 186.559 335.934 205.494 186.612 
337.803 205.473 186.028 340.457 205.391 185.583 335.259 205.925 187.102 
336.283 205.842 187.271 336.893 205.817 187.056 336.917 205.689 186.741 
337.467 205.658 186.812 338.65 205.577 186.346 339.442 205.833 185.898 
337.036 205.835 186.955 337.079 205.839 187.054 337.151 205.802 186.907 
337.119 205.855 186.987 316.954 219.528 187.027 318.121 221.566 187.207 
318.34 221.67 187.654 335.211 200.392 187.203 336.233 200.546 187.234 
332.793 201.522 187.233 330.646 201.807 187.498 338.971 204.064 187.391 
338.741 204.838 187.223 338.031 205.368 187.124 334.005 206.55 187.334 
336.688 205.715 187.711 337.126 205.712 187.228 332.21 207.872 187.22 
337.193 205.805 187.005 333.946 207.108 188.212 327.004 218.013 188.009 
327.004 218.013 188.009 327.004 218.013 188.009 327.004 218.013 188.009 
327.004 218.013 188.009 318.402 221.583 188.223 318.685 221.792 187.977 
334.505 200.641 187.537 333.153 201.162 187.696 333.003 201.17 188.199 
332.075 201.709 187.343 335.716 205.91 188.985 334.948 206.477 189.094 
332.522 208.424 188.578 326.746 217.457 189.455 327.004 218.013 188.009 
324.865 220.39 189.358 319.148 221.803 189.355 334.042 201.039 188.571 
334.529 201.291 188.997 336.791 204.243 189.294 333.872 206.976 190.105 
330.212 211.661 190.787 327.613 216.135 189.864 318.393 220.898 189.68 
319.571 221.991 189.732 322.26 222.25 189.518 320.161 222.219 189.859 
320.785 222.343 189.659 321.652 222.471 189.888 322.929 223.109 190.96 
323.095 223.169 191.254 326.064 201.35 190.753 332.095 201.695 189.938 
333.94 201.719 189.67 332.823 202.552 191.044 333.838 202.706 190.691 
332.429 208.352 190.853 319.879 221.875 190.877 320.289 222.193 190.63 
322.722 222.73 190.438 324.742 222.281 191.335 322.148 222.842 190.858 
323.932 222.923 191.297 324.311 222.764 191.419 323.197 223.402 191.944 
319.865 205.228 191.774 333.662 205.178 191.627 319.488 220.713 192.274 
322.088 222.87 192.584 322.778 223.286 192.285 323.144 223.537 192.259 
323.163 223.536 192.444 323.325 223.58 192.284 323.672 223.497 192.41 
323.247 223.611 192.36 323.829 201.642 192.53 321.634 202.851 192.532 
329.466 202.327 192.602 330.726 203.063 192.843 332.057 203.793 192.525 
332.636 204.2 192.299 319.318 206.649 193.219 331.979 207.139 192.715 
318.898 218.417 192.956 323.295 223.391 192.863 323.344 223.576 192.47 
323.976 223.551 192.739 323.84 223.491 192.965 324.168 223.472 192.612 
324.166 223.507 192.958 324.445 223.395 192.89 326.298 201.79 193.526 
321.982 202.561 192.939 331.084 204.012 193.401 331.734 204.97 193.253 
318.572 213.058 193.66 327.678 214.971 194.653 320.059 220.582 193.479 
321.427 221.748 194.298 322.538 222.847 193.63 324.088 223.425 193.258 
324.214 223.246 193.547 324.682 223.22 192.824 324.652 223.212 193.155 
323.393 202.034 194.528 324.603 222.685 194.047 323.158 222.665 194.428 
324.83 222.951 193.342 322.262 202.63 195.133 322.093 202.754 195.297 
322.292 202.738 195.438 323.768 202.76 195.858 325.962 202.498 194.827 
321.029 203.96 195.332 329.263 208.502 196.024 321.258 220.517 195.564 
321.768 221.14 195.501 322.309 221.226 195.815 322.945 221.684 195.671 
324.085 221.823 195.475 323.685 222.071 195.361 322.425 203.027 195.923 
322.468 203.353 196.469 319.998 205.965 195.91 328.142 206.682 197.091 
328.699 210.284 197.464 321.742 220.183 196.418 326.168 205.871 198.477 
327.408 207.157 198.59 328.355 208.686 198.13 328.519 209.725 198.193 
321.51 218.097 197.922 323.502 220.814 196.679 321.694 204.685 197.513 
320.206 210.731 198.966 327.895 212.695 199.32 321.26 215.639 199.404 
325.807 216.769 198.505 321.149 216.707 198.475 325.01 217.813 198.485 
323.504 219.715 197.724 322.136 205.84 199.288 323.472 205.798 199.613 
[...]
POINT_DATA 1002
COLOR_SCALARS scalars 3
1 0.564706 1 1 0.564706 1 1 0.564706 1 
1 0.564706 1 1 0.564706 1 
1 0.564706 1 1 0.564706 1 
1 0.564706 1 1 0.564706 1 
1 0.564706 1 1 0.564706 1 
1 0.564706 1 1 0.564706 1 
1 0.564706 1 1 0.564706 1 
1 0.564706 1 1 0.564706 1 
1 0.564706 1 1 0.564706 1 
1 0.564706 1 1 0.564706 1 
1 0.564706 1 1 0.564706 1 
1 0.564706 1 1 0.564706 1 
1 0.564706 1 1 0.564706 1 
1 0.564706 1 1 0.564706 1 
1 0.564706 1 1 0.564706 1 
1 0.564706 1 1 0.564706 1 
1 0.564706 1 1 0.564706 1 
1 0.564706 1 1 0.564706 1 
1 0.564706 1 1 0.564706 1 
1 0.564706 1 1 0.564706 1 
1 0.564706 1 1 0.564706 1 
1 0.564706 1 1 0.564706 1 
1 0.564706 1 1 0.564706 1 
1 0.564706 1 1 0.564706 1 
1 0.564706 1 1 0.564706 1 
1 0.564706 1 1 0.564706 1 
1 0.564706 1 1 0.564706 1 
1 0.564706 1 1 0.564706 1 
1 0.564706 1 1 0.564706 1 
1 0.564706 1 1 0.564706 1 
1 0.564706 1 1 0.564706 1 
1 0.564706 1 1 0.564706 1 
1 0.564706 1 1 0.564706 1 
1 0.564706 1 1 0.564706 1 
1 0.564706 1 1 0.564706 1 
1 0.564706 1 1 0.564706 1 
1 0.564706 1 1 0.564706 1 
1 0.564706 1 1 0.564706 1 
1 0.564706 1 1 0.564706 1 
1 0.564706 1 1 0.564706 1 
1 0.564706 1 1 0.564706 1 
1 0.564706 1 1 0.564706 1 
1 0.564706 1 1 0.564706 1 
1 0.564706 1 1 0.564706 1 
1 0.564706 1 1 0.564706 1 
1 0.564706 1 1 0.564706 1 
1 0.564706 1 1 0.564706 1 
1 0.564706 1 1 0.564706 1 
1 0.564706 1 1 0.564706 1 
1 0.564706 1 1 0.564706 1 
1 0.564706 1 1 0.564706 1 
1 0.564706 1 1 0.564706 1 
1 0.564706 1 1 0.564706 1 
1 0.564706 1 1 0.564706 1 
1 0.564706 1 1 0.564706 1 
1 0.564706 1 1 0.564706 1 
1 0.564706 1 1 0.564706 1 
1 0.564706 1 1 0.564706 1 
1 0.564706 1 1 0.564706 1 
1 0.564706 1 1 0.564706 1 
1 0.564706 1 1 0.564706 1 
1 0.564706 1 1 0.564706 1 
1 0.564706 1 1 0.564706 1 
1 0.564706 1 1 0.564706 1 
1 0.564706 1 1 0.564706 1 
1 0.564706 1 1 0.564706 1 
1 0.564706 1 1 0.564706 1 
1 0.564706 1 1 0.564706 1 
1 0.564706 1 1 0.564706 1 
1 0.564706 1 1 0.564706 1 
1 0.564706 1 1 0.564706 1 
1 0.564706 1 1 0.564706 1 
1 0.564706 1 1 0.564706 1 
1 0.564706 1 1 0.564706 1 
1 0.564706 1 1 0.564706 1 
1 0.564706 1 1 0.564706 1 
1 0.564706 1 1 0.564706 1 
1 0.564706 1 1 0.564706 1 
1 0.564706 1 1 0.564706 1 
1 0.564706 1 1 0.564706 1 
1 0.564706 1 1 0.564706 1 
1 0.564706 1 1 0.564706 1 
1 0.564706 1 1 0.564706 1 
1 0.564706 1 1 0.564706 1 
1 0.564706 1 1 0.564706 1 
1 0.564706 1 1 0.564706 1 
1 0.564706 1 1 0.564706 1 
1 0.564706 1 1 0.564706 1 
1 0.564706 1 1 0.564706 1 
1 0.564706 1 1 0.564706 1 
1 0.564706 1 1 0.564706 1 
1 0.564706 1 1 0.564706 1 
1 0.564706 1 1 0.564706 1 
1 0.564706 1 1 0.564706 1 
1 0.564706 1 1 0.564706 1 
1 0.564706 1 1 0.564706 1 
1 0.564706 1 1 0.564706 1 
1 0.564706 1 1 0.564706 1 
1 0.564706 1 1 0.564706 1 
1 0.564706 1 1 0.564706 1 
1 0.564706 1 1 0.564706 1 
1 0.564706 1 1 0.564706 1 
1 0.564706 1 1 0.564706 1 
1 0.564706 1 1 0.564706 1 
1 0.564706 1 1 0.564706 1 
1 0.564706 1 1 0.564706 1 
1 0.564706 1 1 0.564706 1 
1 0.564706 1 1 0.564706 1 
1 0.564706 1 1 0.564706 1 
1 0.564706 1 1 0.564706 1 
1 0.564706 1 1 0.564706 1 
1 0.564706 1 1 0.564706 1 
1 0.564706 1 1 0.564706 1 
1 0.564706 1 1 0.564706 1 
1 0.564706 1 1 0.564706 1 
1 0.564706 1 1 0.564706 1 
1 0.564706 1 1 0.564706 1 
1 0.564706 1 1 0.564706 1 
1 0.564706 1 1 0.564706 1 
1 0.564706 1 1 0.564706 1 
1 0.564706 1 1 0.564706 1 
1 0.564706 1 1 0.564706 1 
1 0.564706 1 1 0.564706 1 
1 0.564706 1 1 0.564706 1 
1 0.564706 1 1 0.564706 1 
1 0.564706 1 1 0.564706 1 
1 0.564706 1 1 0.564706 1 
1 0.564706 1 1 0.564706 1 
1 0.564706 1 1 0.564706 1 
1 0.564706 1 1 0.564706 1 
1 0.564706 1 1 0.564706 1 
1 0.564706 1 1 0.564706 1 
1 0.564706 1 1 0.564706 1 
1 0.564706 1 1 0.564706 1 
1 0.564706 1 1 0.564706 1 
1 0.564706 1 1 0.564706 1 
1 0.564706 1 1 0.564706 1 
1 0.564706 1 1 0.564706 1 
1 0.564706 1 1 0.564706 1 
1 0.564706 1 1 0.564706 1 
1 0.564706 1 1 0.564706 1 
1 0.564706 1 1 0.564706 1 
1 0.564706 1 1 0.564706 1 
1 0.564706 1 1 0.564706 1 
1 0.564706 1 1 0.564706 1 
1 0.564706 1 1 0.564706 1 
1 0.564706 1 1 0.564706 1 
1 0.564706 1 1 0.564706 1 
1 0.564706 1 1 0.564706 1 
1 0.564706 1 1 0.564706 1 
1 0.564706 1 1 0.564706 1 
1 0.564706 1 1 0.564706 1 
1 0.564706 1 1 0.564706 1 
1 0.564706 1 1 0.564706 1 
1 0.564706 1 1 0.564706 1 
1 0.564706 1 1 0.564706 1 
1 0.564706 1 1 0.564706 1 
1 0.564706 1 1 0.564706 1 
1 0.564706 1 1 0.564706 1 
1 0.564706 1 1 0.564706 1 
1 0.564706 1 1 0.564706 1 
1 0.564706 1 1 0.564706 1 
1 0.564706 1 1 0.564706 1 
1 0.564706 1 1 0.564706 1 
1 0.564706 1 1 0.564706 1 
1 0.564706 1 1 0.564706 1 
1 0.564706 1 1 0.564706 1 
1 0.564706 1 1 0.564706 1 
1 0.564706 1 1 0.564706 1 
1 0.564706 1 1 0.564706 1 
1 0.564706 1 1 0.564706 1 
1 0.564706 1 1 0.564706 1 
1 0.564706 1 1 0.564706 1 
1 0.564706 1 1 0.564706 1 
1 0.564706 1 1 0.564706 1 
1 0.564706 1 1 0.564706 1 
1 0.564706 1 1 0.564706 1 
1 0.564706 1 1 0.564706 1 
1 0.564706 1 1 0.564706 1 
1 0.564706 1 1 0.564706 1 
1 0.564706 1 1 0.564706 1 
1 0.564706 1 1 0.564706 1 
1 0.564706 1 1 0.564706 1 
1 0.564706 1 1 0.564706 1 
1 0.564706 1 1 0.564706 1 
1 0.564706 1 1 0.564706 1 
1 0.564706 1 1 0.564706 1 
1 0.564706 1 1 0.564706 1 
1 0.564706 1 1 0.564706 1 
1 0.564706 1 1 0.564706 1 
1 0.564706 1 1 0.564706 1 
1 0.564706 1 1 0.564706 1 
1 0.564706 1 1 0.564706 1 
1 0.564706 1 1 0.564706 1 
1 0.564706 1 1 0.564706 1 
1 0.564706 1 1 0.564706 1 
1 0.564706 1 1 0.564706 1 
1 0.564706 1 1 0.564706 1 
1 0.564706 1 1 0.564706 1 
1 0.564706 1 1 0.564706 1 
1 0.564706 1 1 0.564706 1 
1 0.564706 1 1 0.564706 1 
1 0.564706 1 1 0.564706 1 
1 0.564706 1 1 0.564706 1 
1 0.564706 1 1 0.564706 1 
1 0.564706 1 1 0.564706 1 
1 0.564706 1 1 0.564706 1 
1 0.564706 1 1 0.564706 1 
1 0.564706 1 1 0.564706 1 
1 0.564706 1 1 0.564706 1 
1 0.564706 1 1 0.564706 1 
1 0.564706 1 1 0.564706 1 
1 0.564706 1 1 0.564706 1 
1 0.564706 1 1 0.564706 1 
1 0.564706 1 1 0.564706 1 
1 0.564706 1 1 0.564706 1 
1 0.564706 1 1 0.564706 1 
1 0.564706 1 1 0.564706 1 
1 0.564706 1 1 0.564706 1 
1 0.564706 1 1 0.564706 1 
1 0.564706 1 1 0.564706 1 
1 0.564706 1 1 0.564706 1 
1 0.564706 1 1 0.564706 1 
1 0.564706 1 1 0.564706 1 
1 0.564706 1 1 0.564706 1 
1 0.564706 1 1 0.564706 1 
1 0.564706 1 1 0.564706 1 
1 0.564706 1 1 0.564706 1 
1 0.564706 1 1 0.564706 1 
1 0.564706 1 1 0.564706 1 
1 0.564706 1 1 0.564706 1 
1 0.564706 1 1 0.564706 1 
1 0.564706 1 1 0.564706 1 
1 0.564706 1 1 0.564706 1 
1 0.564706 1 1 0.564706 1 
1 0.564706 1 1 0.564706 1 
1 0.564706 1 1 0.564706 1 
1 0.564706 1 1 0.564706 1 
1 0.564706 1 1 0.564706 1 
1 0.564706 1 1 0.564706 1 
1 0.564706 1 1 0.564706 1 
1 0.564706 1 1 0.564706 1 
1 0.564706 1 1 0.564706 1 
1 0.564706 1 1 0.564706 1 
1 0.564706 1 1 0.564706 1 
1 0.564706 1 1 0.564706 1 
1 0.564706 1 1 0.564706 1 
1 0.564706 1 1 0.564706 1 
1 0.564706 1 1 0.564706 1 
1 0.564706 1 1 0.564706 1 
1 0.564706 1 1 0.564706 1 
1 0.564706 1 1 0.564706 1 
1 0.564706 1 1 0.564706 1 
1 0.564706 1 1 0.564706 1 
1 0.564706 1 1 0.564706 1 
1 0.564706 1 1 0.564706 1 
1 0.564706 1 1 0.564706 1 
1 0.564706 1 1 0.564706 1 
1 0.564706 1 1 0.564706 1 
1 0.564706 1 1 0.564706 1 
1 0.564706 1 1 0.564706 1 
1 0.564706 1 1 0.564706 1 
1 0.564706 1 1 0.564706 1 
1 0.564706 1 1 0.564706 1 
1 0.564706 1 1 0.564706 1 
1 0.564706 1 1 0.564706 1 
1 0.564706 1 1 0.564706 1 
1 0.564706 1 1 0.564706 1 
1 0.564706 1 1 0.564706 1 
1 0.564706 1 1 0.564706 1 
1 0.564706 1 1 0.564706 1 
1 0.564706 1 1 0.564706 1 
1 0.564706 1 1 0.564706 1 
1 0.564706 1 1 0.564706 1 
1 0.564706 1 1 0.564706 1 
1 0.564706 1 1 0.564706 1 
1 0.564706 1 1 0.564706 1 
1 0.564706 1 1 0.564706 1 
1 0.564706 1 1 0.564706 1 
1 0.564706 1 1 0.564706 1 
1 0.564706 1 1 0.564706 1 
1 0.564706 1 1 0.564706 1 
1 0.564706 1 1 0.564706 1 
1 0.564706 1 1 0.564706 1 
1 0.564706 1 1 0.564706 1 
1 0.564706 1 1 0.564706 1 
1 0.564706 1 1 0.564706 1 
1 0.564706 1 1 0.564706 1 
1 0.564706 1 1 0.564706 1 
1 0.564706 1 1 0.564706 1 
1 0.564706 1 1 0.564706 1 
1 0.564706 1 1 0.564706 1 
1 0.564706 1 1 0.564706 1 
1 0.564706 1 1 0.564706 1 
1 0.564706 1 1 0.564706 1 
1 0.564706 1 1 0.564706 1 
1 0.564706 1 1 0.564706 1 
1 0.564706 1 1 0.564706 1 
1 0.564706 1 1 0.564706 1 
1 0.564706 1 1 0.564706 1 
1 0.564706 1 1 0.564706 1 
1 0.564706 1 1 0.564706 1 
1 0.564706 1 1 0.564706 1 
1 0.564706 1 1 0.564706 1 
1 0.564706 1 1 0.564706 1 
1 0.564706 1 1 0.564706 1 
1 0.564706 1 1 0.564706 1 
1 0.564706 1 1 0.564706 1 
1 0.564706 1 1 0.564706 1 
1 0.564706 1 1 0.564706 1 
1 0.564706 1 1 0.564706 1 
1 0.564706 1 1 0.564706 1 
1 0.564706 1 1 0.564706 1 
1 0.564706 1 1 0.564706 1 
1 0.564706 1 1 0.564706 1 
1 0.564706 1 1 0.564706 1 
1 0.564706 1 1 0.564706 1 
1 0.564706 1 1 0.564706 1 
1 0.564706 1 1 0.564706 1 
1 0.564706 1 1 0.564706 1 
1 0.564706 1 1 0.564706 1 
1 0.564706 1 1 0.564706 1 
1 0.564706 1 1 0.564706 1 
1 0.564706 1 1 0.564706 1 
1 0.564706 1 1 0.564706 1 
1 0.564706 1 1 0.564706 1 
1 0.564706 1 1 0.564706 1 
1 0.564706 1 1 0.564706 1 
1 0.564706 1 1 0.564706 1 
1 0.564706 1 1 0.564706 1 
1 0.564706 1 1 0.564706 1 
1 0.564706 1 1 0.564706 1 
1 0.564706 1 1 0.564706 1 
1 0.564706 1 1 0.564706 1 
1 0.564706 1 1 0.564706 1 
1 0.564706 1 1 0.564706 1 
1 0.564706 1 1 0.564706 1 
1 0.564706 1 1 0.564706 1 
1 0.564706 1 1 0.564706 1 
1 0.564706 1 1 0.564706 1 
1 0.564706 1 1 0.564706 1 
1 0.564706 1 1 0.564706 1 
1 0.564706 1 1 0.564706 1 
1 0.564706 1 1 0.564706 1 
1 0.564706 1 1 0.564706 1 
1 0.564706 1 1 0.564706 1 
1 0.564706 1 1 0.564706 1 
1 0.564706 1 1 0.564706 1 
1 0.564706 1 1 0.564706 1 
1 0.564706 1 1 0.564706 1 
1 0.564706 1 1 0.564706 1 
1 0.564706 1 1 0.564706 1 
1 0.564706 1 1 0.564706 1 
1 0.564706 1 1 0.564706 1 
1 0.564706 1 1 0.564706 1 
1 0.564706 1 1 0.564706 1 
1 0.564706 1 1 0.564706 1 
1 0.564706 1 1 0.564706 1 
1 0.564706 1 1 0.564706 1 
1 0.564706 1 1 0.564706 1 
1 0.564706 1 1 0.564706 1 
1 0.564706 1 1 0.564706 1 
1 0.564706 1 1 0.564706 1 
1 0.564706 1 1 0.564706 1 
1 0.564706 1 1 0.564706 1 
1 0.564706 1 1 0.564706 1 
1 0.564706 1 1 0.564706 1 
1 0.564706 1 1 0.564706 1 
1 0.564706 1 1 0.564706 1 
1 0.564706 1 1 0.564706 1 
1 0.564706 1 1 0.564706 1 
1 0.564706 1 1 0.564706 1 
1 0.564706 1 1 0.564706 1 
1 0.564706 1 1 0.564706 1 
1 0.564706 1 1 0.564706 1 
1 0.564706 1 1 0.564706 1 
1 0.564706 1 1 0.564706 1 
1 0.564706 1 1 0.564706 1 
1 0.564706 1 1 0.564706 1 
1 0.564706 1 1 0.564706 1 
1 0.564706 1 1 0.564706 1 
1 0.564706 1 1 0.564706 1 
1 0.564706 1 1 0.564706 1 
1 0.564706 1 1 0.564706 1 
1 0.564706 1 1 0.564706 1 
1 0.564706 1 1 0.564706 1 
1 0.564706 1 1 0.564706 1 
1 0.564706 1 1 0.564706 1 
1 0.564706 1 1 0.564706 1 
1 0.564706 1 1 0.564706 1 
1 0.564706 1 1 0.564706 1 
1 0.564706 1 1 0.564706 1 
1 0.564706 1 1 0.564706 1 
1 0.564706 1 1 0.564706 1 
1 0.564706 1 1 0.564706 1 
1 0.564706 1 1 0.564706 1 
1 0.564706 1 1 0.564706 1 
1 0.564706 1 1 0.564706 1 
1 0.564706 1 1 0.564706 1 
1 0.564706 1 1 0.564706 1 
1 0.564706 1 1 0.564706 1 
1 0.564706 1 1 0.564706 1 
1 0.564706 1 1 0.564706 1 
1 0.564706 1 1 0.564706 1 
1 0.564706 1 1 0.564706 1 
1 0.564706 1 1 0.564706 1 
1 0.564706 1 1 0.564706 1 
1 0.564706 1 1 0.564706 1 
1 0.564706 1 1 0.564706 1 
1 0.564706 1 1 0.564706 1 
1 0.564706 1 1 0.564706 1 
1 0.564706 1 1 0.564706 1 
1 0.564706 1 1 0.564706 1 
1 0.564706 1 1 0.564706 1 
1 0.564706 1 1 0.564706 1 
1 0.564706 1 1 0.564706 1 
1 0.564706 1 1 0.564706 1 
1 0.564706 1 1 0.564706 1 
1 0.564706 1 1 0.564706 1 
1 0.564706 1 1 0.564706 1 
1 0.564706 1 1 0.564706 1 
1 0.564706 1 1 0.564706 1 
1 0.564706 1 1 0.564706 1 
1 0.564706 1 1 0.564706 1 
1 0.564706 1 1 0.564706 1 
1 0.564706 1 1 0.564706 1 
1 0.564706 1 1 0.564706 1 
1 0.564706 1 1 0.564706 1 
1 0.564706 1 1 0.564706 1 
1 0.564706 1 1 0.564706 1 
1 0.564706 1 1 0.564706 1 
1 0.564706 1 1 0.564706 1 
1 0.564706 1 1 0.564706 1 
1 0.564706 1 1 0.564706 1 
1 0.564706 1 1 0.564706 1 
1 0.564706 1 1 0.564706 1 
1 0.564706 1 1 0.564706 1 
1 0.564706 1 1 0.564706 1 
1 0.564706 1 1 0.564706 1 
1 0.564706 1 1 0.564706 1 
1 0.564706 1 1 0.564706 1 
1 0.564706 1 1 0.564706 1 
1 0.564706 1 1 0.564706 1 
1 0.564706 1 1 0.564706 1 
1 0.564706 1 1 0.564706 1 
1 0.564706 1 1 0.564706 1 
1 0.564706 1 1 0.564706 1 
1 0.564706 1 1 0.564706 1 
1 0.564706 1 1 0.564706 1 
1 0.564706 1 1 0.564706 1 
1 0.564706 1 1 0.564706 1 
1 0.564706 1 1 0.564706 1 
1 0.564706 1 1 0.564706 1 
1 0.564706 1 1 0.564706 1 
1 0.564706 1 1 0.564706 1 
1 0.564706 1 1 0.564706 1 
1 0.564706 1 1 0.564706 1 
1 0.564706 1 1 0.564706 1 
1 0.564706 1 1 0.564706 1 
1 0.564706 1 1 0.564706 1 
1 0.564706 1 1 0.564706 1 
1 0.564706 1 1 0.564706 1 
1 0.564706 1 1 0.564706 1 
1 0.564706 1 1 0.564706 1 
1 0.564706 1 1 0.564706 1 
1 0.564706 1 1 0.564706 1 
1 0.564706 1 1 0.564706 1 
1 0.564706 1 1 0.564706 1 
1 0.564706 1 1 0.564706 1 
1 0.564706 1 1 0.564706 1 
1 0.564706 1 1 0.564706 1 
1 0.564706 1 1 0.564706 1 
1 0.564706 1 1 0.564706 1 
1 0.564706 1 1 0.564706 1 
1 0.564706 1 1 0.564706 1 
1 0.564706 1 1 0.564706 1 
1 0.564706 1 1 0.564706 1 
1 0.564706 1 1 0.564706 1 
1 0.564706 1 1 0.564706 1 
1 0.564706 1 1 0.564706 1 
1 0.564706 1 1 0.564706 1 
1 0.564706 1 1 0.564706 1 
1 0.564706 1 1 0.564706 1 
1 0.564706 1 1 0.564706 1 
1 0.564706 1 1 0.564706 1 
1 0.564706 1 1 0.564706 1 
1 0.564706 1 1 0.564706 1 
1 0.564706 1 1 0.564706 1 
1 0.564706 1 1 0.564706 1 
1 0.564706 1 1 0.564706 1 
1 0.564706 1 1 0.564706 1 
1 0.564706 1 1 0.564706 1 
1 0.564706 1 1 0.564706 1 
1 0.564706 1 1 0.564706 1 
1 0.564706 1 1 0.564706 1 
1 0.564706 1 1 0.564706 1 
1 0.564706 1 1 0.564706 1 
1 0.564706 1 1 0.564706 1 
1 0.564706 1 1 0.564706 1 
1 0.564706 1 1 0.564706 1 
1 0.564706 1 
NORMALS Normals float
-0.205901 -0.195162 -0.958914 -0.314065 -0.474477 -0.822335 0.483382 0.205175 -0.851026 
0.213223 -0.33586 -0.917461 0.620792 0.0676522 -0.781051 -0.259847 0.196419 -0.945462 
0.322238 0.417749 -0.849499 -0.0664738 0.53658 -0.841227 0.00108267 0.0705332 -0.997509 
-0.481716 -0.39379 -0.782866 -0.132631 0.564299 -0.814847 0.277695 -0.235487 -0.93136 
0.534821 0.517025 -0.66832 -0.17423 -0.723726 -0.667731 -0.109395 -0.540857 -0.83397 
-0.429636 -0.632306 -0.644672 0.59102 -0.383109 -0.709875 0.500584 -0.274727 -0.820939 
0.485416 0.591265 -0.644032 0.635414 0.629951 -0.446555 0.134439 0.365945 -0.920875 
-0.220575 0.32113 -0.92099 0.164511 0.810991 -0.561453 0.252316 0.0030681 -0.96764 
0.480786 0.202396 -0.853159 -0.581998 0.108034 -0.805982 -0.732431 -0.0425155 -0.679512 
0.0542149 -0.342376 -0.937997 0.511466 0.319172 -0.797829 -0.199233 -0.882136 -0.426782 
0.168489 -0.708112 -0.685703 0.114678 -0.914449 -0.388114 0.526512 -0.697898 -0.485514 
-0.506547 -0.314847 -0.802671 0.897555 -0.0800034 -0.433583 0.740671 -0.386637 -0.54947 
0.765528 0.289236 -0.574726 0.0894 0.434406 -0.89627 -0.268269 0.0166777 -0.9632 
-0.280528 -0.202623 -0.938215 0.191348 0.436289 -0.879226 -0.270493 -0.367535 -0.889804 
-0.0158705 -0.312711 -0.949716 -0.332446 -0.393547 -0.857088 -0.369977 -0.484221 -0.792873 
0.219387 0.152642 -0.963623 0.33958 0.370163 -0.864676 -0.735225 -0.134972 -0.664249 
0.390109 0.55353 -0.735812 -0.345953 0.409084 -0.844374 -0.811908 0.0129714 -0.583641 
-0.590093 0.265144 -0.762554 -0.759621 0.188952 -0.622313 0.00203858 0.641204 -0.767367 
-0.174168 0.598357 -0.78207 0.769801 -0.550624 -0.322831 0.348947 -0.876709 -0.331085 
-0.506997 -0.735986 -0.448641 0.848556 0.399459 -0.346967 -0.581726 -0.599122 -0.550134 
0.481122 0.685663 -0.54625 -0.527163 -0.556374 -0.642299 -0.556986 -0.533869 -0.6362 
0.529153 0.534104 -0.65934 -0.791906 -0.2504 -0.556943 -0.826847 -0.455951 -0.329292 
-0.583319 0.415133 -0.698143 -0.0135285 -0.942452 -0.334068 -0.525259 -0.605694 -0.597693 
-0.666994 -0.572282 -0.477088 0.475245 0.601894 -0.641768 -0.89637 -0.0821395 -0.435631 
-0.928636 0.0373451 -0.369107 -0.487705 0.407276 -0.772185 -0.790767 0.324298 -0.519152 
0.469653 -0.851552 -0.232991 0.313289 -0.944007 -0.10344 0.611935 -0.763693 -0.205691 
0.56445 0.635544 -0.526764 -0.25658 0.680276 -0.68658 -0.772047 0.285377 -0.567894 
0.914272 -0.359748 -0.186248 -0.969862 -0.102539 -0.221028 0.182032 0.685467 -0.704982 
-0.744941 0.289853 -0.600872 -0.168785 0.633581 -0.755041 -0.516547 0.541914 -0.662954 
-0.137662 0.7065 -0.694196 0.975983 0.136046 -0.170141 -0.940954 0.24863 -0.229759 
0.183528 0.749589 -0.635951 0.477459 0.625152 -0.617429 -0.805314 0.417832 -0.420578 
0.23486 0.742342 -0.62751 -0.311718 0.709659 -0.631836 -0.243357 0.766979 -0.593734 
-0.0523876 -0.979232 -0.195856 0.100659 -0.97847 -0.180178 0.481069 -0.863008 -0.15424 
0.111115 -0.251887 -0.961357 0.148264 -0.6388 -0.754952 -0.224866 -0.340253 -0.913052 
0.70676 -0.33961 -0.620609 0.436642 -0.639189 -0.633073 0.81811 -0.544035 -0.186339 
0.268166 0.0645669 -0.961206 0.741305 -0.0441032 -0.669717 0.969624 -0.207257 -0.1299 
-0.208662 0.175548 -0.962103 0.620866 0.262736 -0.738576 0.983595 -0.00913416 -0.180158 
0.978348 -0.00172813 -0.206957 0.888418 0.301522 -0.346119 0.854782 0.425227 -0.297539 
0.646532 0.642906 -0.410693 -0.982845 0.165534 -0.081333 -0.788923 0.502541 -0.353628 
-0.000855566 0.848309 -0.529502 -0.684043 0.645977 -0.338818 -0.310393 0.883518 -0.350787 
0.0316362 -0.75042 -0.660203 0.595161 -0.792797 -0.131362 0.449039 -0.886675 -0.110322 
0.610944 -0.74815 -0.258881 0.900345 -0.388751 0.195579 -0.384973 -0.902959 -0.190949 
0.26603 0.494133 -0.827684 0.486274 0.437343 -0.756485 0.109889 0.51023 -0.852989 
-0.649635 0.000949677 -0.760246 -0.436308 0.744581 -0.505208 0.611749 0.729977 -0.304792 
-0.766314 -0.605186 -0.215667 0.161609 0.785856 -0.596919 -0.298329 0.888158 -0.349536 
-0.79592 0.605398 0.00210585 0.139162 -0.793474 -0.59248 -0.283625 -0.386172 -0.87774 
0.633514 -0.76255 -0.131065 0.340325 -0.573429 -0.745223 -0.0388994 -0.728771 -0.683652 
-0.242557 -0.551038 -0.798451 0.398621 -0.890662 -0.218685 0.121548 -0.981486 -0.148024 
-0.380389 -0.342191 -0.859191 0.999924 0.000972103 0.0122713 -0.67474 0.3289 -0.66072 
0.776134 0.381016 -0.502437 -0.709048 0.135798 -0.691961 0.0152475 0.312635 -0.949751 
0.531788 0.55994 -0.635349 0.919337 0.256548 -0.298333 -0.0473608 0.981769 -0.184081 
0.187827 0.804575 -0.563365 -0.967177 0.190363 0.168316 -0.866423 0.496883 -0.0491733 
-0.269056 0.903519 -0.333561 -0.571544 0.812899 -0.111952 -0.37922 0.912074 -0.155924 
-0.176486 -0.687946 -0.703976 -0.352695 -0.332727 -0.874585 0.115371 -0.939098 -0.323703 
0.548728 -0.831485 -0.0867778 0.173037 -0.533513 -0.827902 0.465279 -0.876113 -0.12626 
-0.387727 -0.165828 -0.906735 -0.537627 -0.0668796 -0.840526 0.833157 -0.502906 -0.230075 
0.999452 0.0217368 0.024974 0.90281 -0.0957278 -0.419251 0.996515 0.0128036 0.0824226 
-0.589415 0.648902 -0.481161 0.893924 0.348546 -0.281807 -0.554828 0.619265 -0.555586 
0.0650365 0.758071 -0.648921 -0.314859 0.796762 -0.515785 -0.966091 -0.222951 0.130233 
0.521668 0.579032 -0.626565 -0.732596 0.679605 0.0379562 0.173853 0.896282 -0.407988 
-0.713589 0.689596 0.123483 -0.37517 0.919624 -0.11636 -0.452004 -0.590836 -0.668285 
-0.104167 -0.939436 -0.326509 0.245635 -0.967972 -0.0518958 0.386963 -0.921545 -0.0318382 
-0.450575 -0.157248 -0.878781 -0.343467 0.192645 -0.919194 0.778593 -0.570414 0.261574 
-0.416563 -0.884546 -0.209889 0.621547 -0.70756 -0.33621 -0.235538 0.233626 -0.943367 
0.768967 -0.290318 -0.569566 0.984589 0.0424309 0.169659 0.967539 0.0701958 0.242777 
0.973258 0.22613 0.0404298 -0.382917 0.849034 -0.364028 0.0521167 0.91002 -0.411275 
0.686884 0.612401 -0.39135 0 -0.159641 -0.987175 0 -1 0 
-0.963361 -0.268207 4.13429e-08 -0.275087 0.950166 -0.146668 0.963361 -0.268207 4.13429e-08 
-0.0326598 0.998409 -0.0459709 0.317925 0.947953 0.0175884 0.7441 0.666884 -0.0397565 
0 0.5547 -0.83205 -0.884743 0.407145 0.226855 -0.776948 0.584033 0.23507 
-0.781272 0.588297 0.208616 -0.308963 -0.898662 -0.311364 0.170761 -0.982498 0.0744156 
-0.553114 -0.503232 -0.663944 -0.525447 -0.42378 -0.737778 -0.0146168 -0.978862 -0.203997 
0.378693 -0.817578 -0.433772 0.558206 -0.503755 -0.659271 0.55289 -0.14316 -0.820864 